/*--------------------------------*- C++ -*----------------------------------*\
| =========                 |                                                 |
| \\      /  F ield         | OpenFOAM: The Open Source CFD Toolbox           |
|  \\    /   O peration     | Version:  2412                                  |
|   \\  /    A nd           | Website:  www.openfoam.com                      |
|    \\/     M anipulation  |                                                 |
\*---------------------------------------------------------------------------*/
FoamFile
{
    version     2.0;
    format      ascii;
    arch        "LSB;label=32;scalar=64";
    class       volScalarField;
    location    "916.5";
    object      yPlus;
}
// * * * * * * * * * * * * * * * * * * * * * * * * * * * * * * * * * * * * * //

dimensions      [0 0 0 0 0 0 0];

internalField   uniform 0;

boundaryField
{
    FrontBack
    {
        type            empty;
    }
    Top
    {
        type            calculated;
        value           nonuniform List<scalar> 
15
(
142.2752700154545
133.5724056314978
138.0700027349627
144.4046805180108
159.7714430619185
131.3687114635888
140.1259454572843
135.3588460687118
153.4357968175705
135.7442428281665
136.0946748349492
136.7716083962542
125.2473378824728
132.9038285482746
123.9472363062588
)
;
    }
    In
    {
        type            calculated;
        value           uniform 0;
    }
    Bottom
    {
        type            calculated;
        value           nonuniform List<scalar> 
15
(
155.5651867373361
158.1136711931887
141.0893982477243
142.0648903460815
141.1822384085549
148.4405115267303
142.7035802115884
143.1641203360305
143.423865793341
134.0559788399634
125.7320010169199
141.5527278217037
122.4112376828382
123.4915123012925
124.1387774364507
)
;
    }
    Out
    {
        type            calculated;
        value           uniform 0;
    }
    circle
    {
        type            calculated;
        value           nonuniform List<scalar> 
32
(
56.36867979412712
22.15142342094556
65.32728494928342
23.6348350610052
19.10009839518529
56.16876300061316
56.81830267812615
24.15621349542957
22.35477860493124
65.54701939480103
40.19104275828732
63.05677848887972
50.30013679245386
13.54776462622292
23.73790653155853
18.88292307897866
38.87893034397135
59.58641844495683
61.0016218938825
24.92022787296279
65.71270147216345
63.8282176677648
62.94497881417721
59.93014673552887
64.09200636970765
45.94976147063984
66.3538141238846
32.06753216131426
38.01733423636296
55.76016333321316
21.07004259918419
43.16189901956831
)
;
    }
}


// ************************************************************************* //
