/*--------------------------------*- C++ -*----------------------------------*\
| =========                 |                                                 |
| \\      /  F ield         | OpenFOAM: The Open Source CFD Toolbox           |
|  \\    /   O peration     | Version:  2412                                  |
|   \\  /    A nd           | Website:  www.openfoam.com                      |
|    \\/     M anipulation  |                                                 |
\*---------------------------------------------------------------------------*/
FoamFile
{
    version     2.0;
    format      ascii;
    arch        "LSB;label=32;scalar=64";
    class       volScalarField;
    location    "22";
    object      p;
}
// * * * * * * * * * * * * * * * * * * * * * * * * * * * * * * * * * * * * * //

dimensions      [0 2 -2 0 0 0 0];

internalField   nonuniform List<scalar> 
808
(
0.122669
0.0156626
0.0253124
0.122908
-0.184197
0.0165534
0.00249231
0.0292046
-0.0971201
-0.0206057
0.0325381
-0.108767
0.024499
0.0113765
-0.27497
0.0218051
-0.288039
0.0186764
0.0253884
0.00665349
0.0311125
0.388351
0.0734322
0.00182962
0.465347
-0.163533
-0.0390096
0.00610854
0.0152827
0.0123427
0.0104867
0.018951
0.0207728
0.00816482
-0.0790734
0.640271
0.0139684
0.0172541
0.0203981
0.0178757
-0.0503801
-0.0429794
0.0366803
0.0224101
-0.159999
0.0905112
0.0168915
0.0325887
0.0143765
-0.135978
0.00489535
0.0220184
0.045684
0.00566404
-0.0864719
0.010894
0.00799193
0.0394382
-0.0118605
0.00469348
-0.256812
0.021023
0.0360092
-0.172306
0.0303834
0.0474954
-0.228261
0.0218281
0.0192457
-0.232285
0.0227877
-0.258363
0.022263
0.019653
0.206607
0.0104444
-0.0143465
-0.0669968
0.00718935
0.320361
-0.114236
0.0157381
0.032584
0.286697
0.011383
-0.0327011
-0.300876
-0.10654
0.0274407
-0.191584
0.0409761
-0.0858396
0.260783
0.1623
0.0423919
-0.242099
0.0215168
-0.103721
-0.0971144
-0.210679
0.0131619
-0.00356229
0.0405304
-0.0288695
-0.126037
0.0597489
-0.166968
0.0144449
0.00885181
0.0513078
-0.0864587
0.341247
0.0168846
0.040655
0.0190959
0.465161
0.0110316
-0.216704
0.0186098
0.0583542
-0.276656
0.0367573
0.0124192
0.0603183
0.115821
-0.05011
0.114878
0.0551827
0.0377714
0.0693907
-0.231707
0.0269847
-0.0505275
0.129794
0.0229113
0.00801036
0.00914629
0.00240958
0.0188982
0.00671032
-0.289502
0.0519166
0.017784
0.019863
-0.0284859
0.0401757
0.0998921
0.163891
-0.0619693
0.0105013
0.017277
0.352011
0.0299129
0.546289
-0.268657
-0.0978026
0.0165778
-0.189138
0.0113185
-0.116933
-0.253412
-0.283733
-0.234929
0.0176544
0.0627119
0.0214719
0.0207924
-0.234979
0.0152184
0.0352634
0.0403761
0.163807
0.0380723
0.143137
0.0164019
0.0745918
0.0723028
-0.128976
0.0229841
-0.281339
0.0320085
-0.141232
0.0153841
0.276366
-0.266633
0.119433
0.0223606
-0.153843
0.0271597
-0.101302
-0.267208
-0.0761521
0.0185991
0.0887904
0.0149726
-0.278799
0.0168066
0.0337691
0.00697257
0.0826355
0.0684705
0.0295964
0.0205986
-0.251832
0.38584
-0.274617
-0.254321
0.00908058
0.0343059
0.0177829
0.0131866
-0.326633
-0.246521
0.015677
0.0222042
0.0184746
-0.262949
-0.0349208
0.01824
0.0386751
0.0224386
-0.0855024
0.0288094
0.0297317
0.00182206
0.0218854
0.12789
-0.265977
0.071519
0.0120526
0.120344
0.0165211
0.0197169
0.00994229
-0.0912347
0.0336646
0.0109189
0.00236949
0.0122043
0.015642
0.00434186
0.00155437
0.00426972
0.00653115
-0.000776767
0.00341427
-0.00419243
0.000491045
0.00628694
0.020705
-0.258012
0.00273626
-0.00743858
-0.153705
0.00437523
0.00888655
0.0225148
0.00131414
0.0230933
0.131589
0.0470079
0.0123817
0.0103034
0.0742413
0.0222835
0.0159826
0.0261781
0.0357288
0.033938
0.00397418
0.0428123
-0.322411
0.283608
0.00647554
-0.0321792
0.0196539
0.0109134
0.0119261
-0.230078
0.29635
0.0297607
0.0420362
0.0342643
0.0890179
-0.11875
0.0192169
0.0138935
0.0796725
0.0177121
-0.00222582
0.0228039
0.0275659
0.0390177
0.0404657
0.0407193
0.0194469
0.0298031
0.0601791
0.0335834
0.0316308
0.0264065
0.0201834
0.0469108
0.0136477
-0.436033
-0.0940939
0.0129
0.0548971
-0.15298
-0.229127
0.0175863
0.0215616
-0.257851
0.135537
0.167373
0.0186661
0.0161754
0.0580271
0.00216301
-0.174309
0.0246263
0.00260934
0.0231318
-0.00335486
-0.000765966
0.0242717
0.0534732
-0.00191242
0.00848227
-0.255856
-0.00366682
0.0275658
0.0636573
0.102546
0.0121331
0.23831
0.002694
-0.145972
0.561361
0.0490845
0.00220658
0.0236026
-0.0481557
-0.0469458
0.0749576
0.0242428
-0.0128655
0.0271421
-0.0432378
-0.25036
0.0672047
0.108885
-0.0629394
-0.254192
-0.25629
-0.258486
-0.254387
0.0666019
0.024249
0.00912911
-0.0349672
-0.0310553
0.00714293
0.0258974
0.00341717
-0.429963
0.0732233
0.0347592
0.0222537
-0.35847
0.0498238
0.00502414
0.118279
-0.265528
0.0588493
-0.0352262
0.0742175
0.0231822
-0.254293
0.0322584
-0.301005
0.0113486
-2.85467e-05
0.0226473
0.00973251
0.0145247
-0.0728836
-0.270042
0.00677078
0.0031325
-0.0264575
-0.00317017
-0.00499764
0.0314381
-0.0160919
-0.00592194
-0.0789661
0.0505966
0.0185018
0.0136755
-0.335045
-0.105996
0.0641992
0.0264531
-0.152593
-0.0316205
0.441434
-0.290648
0.00632863
-0.165352
0.0219676
0.040368
0.0204028
-0.0577786
-0.00195862
0.0426772
-0.0682826
-0.00268062
-0.00477482
-0.00690731
-0.0122421
-0.0117109
0.0230193
0.12299
-0.0385994
0.0156475
0.00942093
0.0227535
-0.0749289
0.0260839
-0.315293
-0.0596173
0.0312203
0.00324269
-0.239008
-0.280497
-0.0132231
-0.0505925
-0.046779
0.0244217
-0.0917538
-0.192899
0.237042
-0.244697
-0.382377
-0.350569
-0.0591883
-0.098625
-0.271492
0.365011
-0.0357162
-0.260563
0.0105191
0.0268916
0.592316
0.00808254
0.0234631
0.0498749
-0.0350686
-0.00810232
-0.246206
-0.277704
0.0581
0.0690703
0.0438351
-0.210948
-0.23578
-0.222003
0.014043
0.00857228
0.0954322
-0.0175255
-0.034484
0.0817625
-0.018511
0.0262883
-0.183828
-0.298655
-0.0298155
-0.106165
0.0203003
0.0108694
0.0842685
-0.0464412
-0.00360511
-0.38554
0.46763
-0.270439
-0.257552
-0.0369338
-0.0030877
-0.262776
-0.256182
0.128018
-0.265788
-0.221741
0.877272
0.0160866
-0.283136
0.00481947
-0.121065
0.0168905
-0.389589
-0.269399
-0.241341
0.00315174
-0.286475
-0.286984
-0.00841966
-0.0190491
0.108143
-0.236602
0.0335483
-0.42402
-0.316616
-0.3773
-0.201601
-0.00374248
0.0108998
0.10902
0.137538
-0.0431113
-0.250643
0.320885
0.0856825
0.0152375
-0.360273
-0.420054
-0.256727
0.034885
-0.276932
0.105686
-0.0245168
-0.0455551
-0.253542
-0.178993
0.01477
-0.253714
-0.289178
0.00845685
-0.00848643
-0.0954319
-0.00599977
0.0388441
-0.309537
-0.264445
-0.0969044
0.104423
0.0239695
-0.262807
-0.280535
-0.281706
-0.286792
0.0429836
0.104167
0.00610352
-0.269997
-0.293579
0.106914
0.0252142
-0.212301
0.0284026
0.0237357
-0.32456
0.0292654
-0.212301
0.0191887
-0.282175
-0.00242885
-0.00324318
-0.356261
-0.445424
0.00255609
-0.4037
-0.383433
0.0248113
-0.0608615
-0.263752
-0.0064336
-0.251439
0.0354444
0.085241
0.071742
-0.262507
0.0629282
0.0194603
-0.438573
0.00544403
-0.270698
0.0178936
-0.259382
-0.497694
0.119219
0.282151
0.457475
0.0145106
0.00223758
-0.00115978
-0.267741
0.658744
0.0201803
-0.207786
0.0294155
-0.0277127
0.0959372
0.496723
-0.361272
-0.0365821
-0.034407
0.0340718
0.0123044
-0.441833
-0.250061
-0.26242
-0.290119
-0.223949
0.00531481
-0.300489
0.0984749
-0.259813
-0.29912
0.523128
0.601065
-0.310994
0.140656
-0.263166
-0.0197163
-0.106535
0.417754
-0.0718898
-0.255279
-0.00995664
-0.495694
-0.0197263
-0.188319
-0.0112117
-0.306154
-0.271956
-0.00219759
0.00404064
-0.255097
0.470993
0.688739
-0.249436
-0.290834
-0.257114
-0.0467682
-0.297242
-0.271143
-0.176909
-0.254701
0.766613
-0.331848
0.762098
-0.343187
0.348417
-0.245674
0.00667318
0.18447
-0.488745
0.252606
-0.270503
-0.303427
-0.330129
0.884442
-0.25875
0.226231
0.168898
0.66223
0.13898
-0.324056
-0.283595
-0.190235
0.0116442
0.096874
0.544037
0.0136914
-0.0181015
-0.273763
0.129396
-0.084483
-0.319367
0.0265472
-0.305234
-0.114311
-0.144174
-0.294793
0.00771496
0.1154
-0.00368421
0.0814042
0.126346
-0.325475
-0.343941
-0.0251214
0.0154913
-0.451951
-0.499914
0.187215
0.202652
0.0975369
0.681689
-0.0435975
-0.230972
-0.370778
-0.292587
-0.0257549
0.0921623
0.77661
-0.438642
0.399924
-0.0113539
-0.415932
0.16138
-0.0645076
0.407244
-0.149874
0.0186578
-0.262175
-0.040219
0.223304
0.830328
0.351635
0.773127
-0.270539
-0.295446
-0.344772
0.177288
0.278533
0.0672048
0.39301
0.167628
0.513407
0.286875
-0.0100992
-0.144215
0.049799
-0.288492
0.897896
0.428536
0.662026
0.526715
-0.25455
-0.260532
-0.268311
-0.255135
0.0528339
-0.346434
0.133258
0.609507
-0.270109
0.0137005
-0.253291
0.194989
-0.320426
-0.358033
-0.165551
-0.283255
-0.292173
-0.269608
-0.270485
-0.125501
-0.342562
-0.0923892
-0.172199
0.155408
0.675308
-0.211023
-0.247765
0.840288
-0.249489
0.310312
-0.225435
0.413635
0.10054
-0.251582
-0.385672
0.455648
-0.226362
-0.310135
0.215776
-0.263634
-0.0267785
-0.287667
-0.107521
0.0310931
0.589114
0.795562
-0.28252
0.245434
-0.282222
0.83619
-0.0130808
-0.303042
-0.0311285
0.780615
0.216681
-0.310241
-0.270169
0.475441
-0.202484
0.0457633
0.362915
0.264112
0.315101
-0.242328
-0.312122
0.70426
)
;

boundaryField
{
    FrontBack
    {
        type            empty;
    }
    Top
    {
        type            zeroGradient;
    }
    In
    {
        type            zeroGradient;
    }
    Bottom
    {
        type            zeroGradient;
    }
    Out
    {
        type            fixedValue;
        value           uniform 0;
    }
    circle
    {
        type            zeroGradient;
    }
}


// ************************************************************************* //
