/*--------------------------------*- C++ -*----------------------------------*\
| =========                 |                                                 |
| \\      /  F ield         | OpenFOAM: The Open Source CFD Toolbox           |
|  \\    /   O peration     | Version:  2412                                  |
|   \\  /    A nd           | Website:  www.openfoam.com                      |
|    \\/     M anipulation  |                                                 |
\*---------------------------------------------------------------------------*/
FoamFile
{
    version     2.0;
    format      ascii;
    arch        "LSB;label=32;scalar=64";
    class       surfaceScalarField;
    location    "22";
    object      phi;
}
// * * * * * * * * * * * * * * * * * * * * * * * * * * * * * * * * * * * * * //

dimensions      [0 3 -1 0 0 0 0];

oriented        oriented;

internalField   nonuniform List<scalar> 
1171
(
-0.945614
0.945614
0.782743
-1.09285
0.310105
-0.342104
-0.739161
1.08126
0.0543857
-0.0630377
-0.277212
0.34025
-0.782743
0.0914739
0.691269
0.946793
-0.214211
-0.732582
0.844365
-1.04533
0.200967
-0.358383
-0.033554
0.391937
-0.000119542
0.606855
-0.606736
-0.489254
0.940225
-0.450971
-0.42142
1.01931
-0.174946
0.251926
0.088049
-0.339975
0.988178
0.0311329
0.284016
-0.0320897
1.02651
-0.0383279
0.644468
-0.986571
-0.791111
0.613625
0.177487
0.349488
-0.838742
0.560275
-0.915139
0.354863
-1.08044
0.671549
0.408895
-0.644203
0.644084
0.032823
-0.25199
0.219167
0.0277596
-0.632441
0.604682
0.469236
-0.50279
-0.833411
0.879544
-0.0461329
0.996698
0.0298084
0.913849
-1.06716
0.153316
1.02677
-0.0300733
-0.701838
-0.0892736
1.24415
-0.847291
-0.396864
0.19336
-0.0723756
-0.418398
0.490774
-0.273347
0.184392
0.0889546
-0.607111
-0.485737
0.966378
-0.0525297
-0.0203742
0.876496
-0.856122
0.50907
0.735085
0.53448
0.0271933
0.442043
-0.791145
-0.104993
0.896138
0.591023
0.22933
-0.820353
0.0446503
0.588427
-0.633077
-0.510011
-0.570433
-0.386307
-0.680858
0.0305809
0.243502
-0.274083
-0.948362
-0.0313283
0.97969
0.377169
0.0147674
0.855724
0.0910687
-0.606072
-0.0381311
0.0354387
-0.826583
0.145963
0.906839
-1.0528
-0.405286
0.0264576
0.378828
-0.713105
-0.235257
-0.711007
0.85697
0.649087
0.291138
-0.579542
0.996354
-0.821581
-0.174772
-0.0238308
-0.100375
0.124206
-0.460498
-0.0422925
-0.302678
0.951765
-0.0178102
0.444462
-0.426652
-0.482177
1.0732
0.7154
-0.820393
0.393454
-0.0802012
-0.313253
0.756769
-0.756769
-0.933148
0.0378013
-0.315013
-0.697128
0.676753
-0.0300176
-0.142449
0.172467
0.892993
-0.0164965
1.04141
-0.812076
0.224714
-0.320213
0.0954994
0.99308
-0.137356
-0.67952
-0.0478434
0.727364
0.148953
-0.23143
0.0824773
0.803838
-1.01805
-0.442439
0.31064
0.131799
0.665438
-0.637678
0.870673
-0.393344
-0.477328
0.484366
-0.694113
0.0361483
0.657965
0.172727
0.669288
0.0470955
-0.716384
0.132375
-0.0945737
-0.512504
0.107218
0.0361012
-0.906462
0.87036
-0.544392
-0.763529
0.061691
0.502037
-0.0599939
0.275026
-0.833079
0.558053
0.424675
0.575325
0.597892
-0.562453
-0.375644
-0.0344971
0.410141
0.535692
0.221078
-0.657162
0.701812
0.083639
0.895312
0.00431184
-0.683832
-0.766306
0.802407
0.621445
0.108338
0.364498
-0.472835
-0.155035
0.515187
0.0732397
0.84062
-0.712157
-0.128462
0.65627
0.340083
-0.429917
0.70704
-0.598703
0.409616
0.150659
-0.0568349
-0.688426
-0.16435
0.852777
-0.119088
-0.637682
-0.61252
0.363013
0.249507
0.661436
-0.657124
0.310232
1.02697
0.014435
-0.766306
-0.0950765
0.0712457
0.7154
0.785291
-0.785291
0.844771
-0.831237
-0.0135339
-0.45414
0.878815
-0.192795
-0.319709
0.764085
-0.669033
-0.095052
-0.842114
0.153687
0.107047
-0.713119
0.820393
-0.975428
-0.176116
0.178725
-0.00260883
0.118398
-0.990922
0.872524
0.550392
-0.0159128
-0.289246
0.595212
-0.305966
-0.651584
0.769982
-0.160146
0.72034
-0.849611
0.129271
1.17355
-0.687032
-0.486516
0.728456
-0.0702073
-0.0062749
0.00719685
-0.000921951
-0.80166
-0.934932
0.195771
-0.697128
0.57464
-0.548182
0.00609743
0.710272
-0.716369
0.77984
0.165774
0.491089
0.508911
-0.0263424
-0.664613
0.690955
0.803986
0.0366336
-0.728456
0.802407
0.180074
-0.432064
-0.0289629
0.011753
0.0172099
0.67285
-0.434355
-0.238496
0.691269
-0.0283954
-0.214593
0.557406
0.115445
-0.0141398
0.0011852
0.0129546
0.00463174
-0.0109066
0.122465
-0.202666
-0.945436
0.0360488
-0.143029
-0.0536514
0.123568
0.770522
0.742246
-0.166921
0.449574
-0.443476
-0.162075
0.386789
0.637149
0.0541198
0.228801
-1.06004
-0.975428
0.317175
0.676753
-0.158211
0.0157613
-0.80657
0.998055
-0.191485
0.482228
-0.1034
0.800153
0.305887
0.252721
0.0312943
-0.680879
0.680879
0.223711
0.672427
-0.0123337
0.456796
0.47844
0.00746487
-0.0364278
0.551607
-0.00121465
-0.651584
0.572859
0.191226
0.00665037
0.000546477
-0.637149
0.172808
0.825247
0.0260562
-0.718084
0.692028
0.759823
-0.821804
0.0619815
-0.77984
-0.0306474
0.0429335
-0.0122861
0.0848615
-0.123515
-0.105167
0.228682
-0.00671932
-0.00742046
0.766384
-0.740328
0.885099
0.196166
-0.433291
-0.501246
0.934537
-0.00172134
0.00172134
0.144228
0.406414
0.6674
-1.07381
-0.199425
-0.555618
0.755043
-0.020275
0.192742
0.382794
-0.233841
1.04969
-0.643276
0.76028
0.954014
-0.286614
0.189999
0.769982
0.595036
0.245914
0.63363
-0.637682
0.319121
-0.0344615
-0.0186062
0.0530678
0.89054
-0.0573853
-0.833154
-0.556708
0.526635
0.54586
-0.556708
-0.595036
0.526635
0.0082755
0.969364
-0.0842645
-0.535692
0.453822
0.08187
0.515164
0.637589
-1.15275
0.504599
0.54509
0.638252
0.509979
-1.14823
0.450561
0.503453
0.453822
-0.515761
-0.512081
-0.684398
-0.549918
-0.139339
-0.00499184
0.00499184
0.661467
0.554026
-1.10394
0.737528
-0.37303
-1.07849
0.391455
-0.684249
0.448993
-0.00580509
-0.986481
0.992286
0.453
0.0105821
0.879957
-1.1443
-0.994515
0.052075
0.94244
0.224902
-0.0717343
-0.153168
0.742906
-0.795435
1.00187
-1.02312
0.0212442
0.0167461
-0.728903
-0.134701
0.888762
-0.754061
-0.967633
0.984379
-0.656969
0.581441
0.0755275
-0.80556
0.136074
0.669485
0.00300209
-0.00472343
0.425686
0.142424
-1.00186
0.859441
-0.760123
0.733781
1.04187
0.0801459
-1.12202
0.0473561
0.00403202
0.406109
-0.359747
0.0395342
0.952308
-0.958113
-0.609394
-0.751362
0.0224582
-0.149426
-1.01173
-0.0113847
0.527698
-0.0781239
-0.0756711
0.300573
-0.564068
0.700143
0.477328
-0.975899
-0.887487
0.0818763
-0.167818
0.663236
-0.495418
-0.0194478
-0.777213
0.578646
0.181176
-0.0991676
0.979125
1.03645
0.972056
-0.983441
0.0451971
-0.0451971
-0.0802724
-0.176867
0.105133
0.343013
-0.0258378
0.224326
0.959677
0.00755517
-0.0142745
0.658176
0.341824
0.796976
-0.607111
-0.757956
-0.552803
-0.480502
0.480502
-0.207927
-0.107086
0.657731
-0.975618
0.317887
-0.473441
-0.548842
0.353476
-1.03433
-0.994345
1.01559
-0.665475
0.687933
0.672635
0.201671
-0.874306
-0.477276
-0.174307
0.852576
-0.678269
0.0346676
0.00434565
0.00261984
-0.00696548
0.0654422
-0.242309
1.01121
0.61279
-0.321534
-0.291256
0.459622
0.747472
-0.523761
0.0124658
-0.285813
0.129992
0.740715
-0.870707
-0.361699
-0.058311
0.140285
-0.980672
0.147518
-0.773948
0.0910396
0.76233
-0.85337
-0.907802
0.133855
0.718665
-0.776976
0.233433
-0.356948
-0.426095
-0.0511808
0.368804
0.738596
-0.0315558
0.00013257
-0.00013257
-0.00380664
-0.0108077
-0.0236539
-0.0169813
0.0245364
-0.504219
0.337374
0.760421
-0.853399
0.0929783
-0.746998
0.838037
0.791066
-0.0724006
-0.734921
-0.172881
-1.15784
0.020807
0.0243901
-0.374227
-0.869622
-0.8416
0.444736
-0.229206
0.26481
-0.0356044
-0.521473
0.147247
0.517372
0.712562
-0.0371763
-0.0164752
1.03185
0.501763
0.203955
-0.705718
-0.385533
-0.13594
-0.00439419
0.00873983
0.732254
-0.896604
0.00611856
-0.00611856
-0.708384
0.730232
-0.0218485
-0.461204
-0.0986943
-0.707943
0.0387149
0.652241
-0.0509224
-0.88225
-0.113566
0.224244
-0.110678
0.839048
-0.746069
0.344166
0.2601
-0.604266
-0.137369
-0.733376
-0.119993
-0.20662
-0.0748509
0.472495
-0.514788
0.166372
0.740109
-0.906481
0.484366
-0.157482
-0.0717234
-0.0165089
-0.058342
0.595781
-0.0937086
-0.502072
-0.284298
0.305349
-0.0210509
0.583365
0.154163
0.0576896
-0.311599
0.169668
0.141931
-0.0945813
-0.00049525
-0.291262
0.11109
0.0452356
-0.156326
0.907798
-0.347553
-0.113651
0.55481
0.275149
-0.596683
0.400532
-0.400532
-0.196475
-0.386467
-0.211904
-0.386467
-0.677281
-0.850734
0.181701
-0.24242
0.730148
0.0475986
0.167084
0.571512
0.108289
0.116399
0.0109848
-0.127383
-0.0181768
0.749423
-1.05687
0.555625
0.0190839
0.0566035
-0.0756874
-0.75067
-0.177918
-0.566168
0.770123
-0.536931
0.0491791
-0.107521
-0.33909
-0.0805582
0.0805582
0.0431485
-0.000214936
0.137206
0.264315
-0.750449
0.184281
0.000477656
0.472342
0.527658
0.791471
0.0188739
0.0201197
-0.0389936
-0.294979
-0.587271
-0.521219
0.113752
-0.118601
0.00484938
-0.136046
-0.413417
-0.0444729
0.696713
-0.590469
-0.160201
-0.0511964
0.0141152
0.098716
-0.29623
-0.196942
-0.178651
-0.0240151
-0.477166
0.428948
0.048218
0.000305341
0.294549
-0.864982
-0.538897
0.678537
-0.863677
0.726309
0.460828
-0.0326593
0.0587728
-0.0261135
0.0919679
-0.634207
-0.00645549
0.640663
-0.894263
0.644376
-0.724649
-0.0412824
0.00648572
-0.00648572
-0.299133
0.445922
-0.0398136
0.000205217
0.0186687
0.589889
0.518189
-0.646651
0.0119583
0.0035418
-0.00340922
0.00417581
-0.00417581
-0.502506
0.656669
0.0144643
-0.0144643
-0.780716
-0.00774656
0.0107487
-0.499287
0.683567
0.566964
-0.588813
0.0683025
-0.0683025
0.00503385
-0.0414617
0.0140909
-1.07309
0.586572
-0.53811
-0.00472343
0.604779
0.00587144
-0.610651
-0.708922
0.118453
-0.316291
-0.0132217
0.329513
-0.0191333
-0.018043
-0.606589
-0.0276178
0.0243901
0.00575015
0.000368404
-0.00288378
0.00288378
-0.421697
0.265371
-0.457489
0.133241
0.663734
-0.134206
0.00248726
-0.00248726
0.50849
0.00434355
0.00820706
0.0179044
-0.000547621
0.617653
-0.613309
-0.770505
0.656854
-0.092188
0.324999
0.782441
-0.00380664
-0.0947276
0.0952741
-0.636214
0.552592
-0.256947
-0.104143
-0.027943
-0.0258356
0.0031384
0.477225
-0.0860301
-0.416042
0.709812
0.000816024
0.00558638
-0.00558638
-0.197296
-0.157383
-0.571163
0.618762
-0.137826
0.509182
-0.215772
0.86024
0.883277
0.00575015
-0.761546
0.668685
0.0105779
-0.0333747
0.0227968
0.657159
0.0940351
-0.0121589
0.0672759
-0.055117
0.00927511
-0.00927511
-0.745317
0.0231054
-0.0426319
0.0605363
-0.0863157
0.0863157
0.0035418
-0.00131937
0.757147
0.0681005
-0.317745
-0.0956718
-0.521893
-0.0406185
-0.0669129
0.0669129
-0.0339597
0.0805574
-0.0805574
0.0269344
-0.0269344
-0.356962
-0.0729552
0.240508
0.0701318
0.0532894
-0.727666
-0.058669
0.160548
0.0195267
-0.243732
0.0805973
-0.0805973
-0.467999
-0.0467893
0.230173
-0.0110064
0.00286637
-0.658523
0.650248
0.032443
-0.0664028
0.0200548
-0.0615164
-0.0122549
-0.155915
0.16817
-0.149559
-0.20739
-0.0813996
0.0813996
0.0547845
-0.0547845
-0.02879
-0.0939834
0.122773
-0.0179744
-0.188798
-0.00499277
0.00158355
-0.268194
0.533565
-0.0257737
0.415373
0.0077807
0.00517389
-0.051325
0.051325
-0.731104
0.317667
-0.127668
-0.208468
-0.022962
-0.0176146
0.0204809
0.196483
0.0321992
-0.00208506
0.00153744
0.0840877
0.0296639
0.055558
0.10499
-0.0179641
0.00148893
-0.000532176
0.00657235
0.00526418
0.00467762
-0.00994179
-0.00204459
0.00859672
0.0278414
-0.0278414
0.0496613
-0.0423316
0.0423316
-0.190079
0.0117462
0.030012
-0.0757833
0.0176593
0.0768449
-0.0768449
0.244701
-0.237724
0.0881649
-0.0669401
-0.170783
-0.0157923
0.0157923
0.407712
0.250253
-0.519037
-0.0804679
-0.0381331
0.540954
0.00208036
-0.0625285
-0.465218
0.0939336
-0.152842
0.169857
-0.0170147
-0.047181
0.047181
0.876374
-0.590819
-0.00788681
0.00584222
-0.00575748
-0.285004
3.9971e-05
0.00491613
-0.0429077
-0.627904
0.568682
-0.664109
0.0144866
0.18131
0.0155879
0.0243905
-0.1586
-0.334881
0.259098
-0.0557331
0.0269431
0.172299
0.13305
0.183707
0.264363
-0.248775
0.00563258
-0.112706
-0.22169
0.0677821
-0.0122242
0.161086
-0.136696
-0.0682044
0.152292
-0.404008
0.122057
-0.104398
0.0586478
-0.47469
0.174773
0.177651
-0.245855
0.00651166
-0.176926
0.176966
0.00375246
0.14854
-0.0278673
0.0496265
0.458863
0.0120491
0.0216354
-0.00375567
0.0347007
-0.238705
-0.203082
0.590071
0.168573
0.0616003
0.0772007
-0.0638922
0.0713157
-0.0485189
-0.0302566
0.166298
-0.151811
0.0247738
-0.00630326
-0.104278
-0.0283866
0.0262627
0.252086
-0.00438984
0.00979927
-0.310789
-0.00629673
0.217185
0.140308
0.177359
0.0566883
0.0969996
0.0516745
0.538215
-0.010474
0.103924
0.0424808
0.0660004
-0.108481
-0.268784
-0.196997
0.0262132
-0.222603
0.284576
)
;

boundaryField
{
    FrontBack
    {
        type            empty;
    }
    Top
    {
        type            calculated;
        value           uniform 0;
    }
    In
    {
        type            calculated;
        value           uniform -1;
    }
    Bottom
    {
        type            calculated;
        value           uniform 0;
    }
    Out
    {
        type            calculated;
        value           nonuniform List<scalar> 10(1.14285 1.03092 1.19648 0.995651 1.14757 1.05337 1.21549 1.02228 0.597007 0.598371);
    }
    circle
    {
        type            calculated;
        value           uniform 0;
    }
}


// ************************************************************************* //
