/*--------------------------------*- C++ -*----------------------------------*\
| =========                 |                                                 |
| \\      /  F ield         | OpenFOAM: The Open Source CFD Toolbox           |
|  \\    /   O peration     | Version:  2412                                  |
|   \\  /    A nd           | Website:  www.openfoam.com                      |
|    \\/     M anipulation  |                                                 |
\*---------------------------------------------------------------------------*/
FoamFile
{
    version     2.0;
    format      ascii;
    arch        "LSB;label=32;scalar=64";
    class       volVectorField;
    location    "22";
    object      U;
}
// * * * * * * * * * * * * * * * * * * * * * * * * * * * * * * * * * * * * * //

dimensions      [0 1 -1 0 0 0 0];

internalField   nonuniform List<vector> 
808
(
(0.894773 -0.00962925 0)
(1.02585 -0.0356438 0)
(1.23639 0.138108 0)
(1.06879 0.00950931 -2.60569e-21)
(1.46873 -0.301516 0)
(0.96107 -0.0302258 0)
(1.15894 -0.0554184 -8.04868e-22)
(1.12988 -0.0258409 0)
(1.34719 -0.237349 1.99335e-20)
(1.23742 -0.101865 -4.53334e-21)
(1.15934 -0.12939 6.06132e-21)
(1.37298 -0.271577 0)
(1.00561 -0.0344716 0)
(0.751196 -0.0241419 0)
(0.96287 0.0234994 1.89311e-20)
(1.09872 -0.0336433 0)
(0.853466 0.0211382 -6.06471e-21)
(1.00021 -0.0440865 -8.89452e-23)
(1.20915 0.100126 0)
(1.12598 0.000575242 0)
(1.20225 -0.139139 -8.46003e-21)
(0.93027 0.125073 1.12738e-19)
(1.07436 0.0122081 -1.33777e-20)
(1.18045 -0.0374342 0)
(0.951676 0.185064 0)
(1.29658 0.0393284 -2.95842e-20)
(1.27753 -0.18853 2.78875e-21)
(0.951452 -0.0293242 -2.73197e-21)
(1.09634 -0.0381253 0)
(1.04175 0.0446816 -2.0809e-22)
(0.990412 -0.0406577 3.1114e-24)
(1.12928 -0.0145927 0)
(1.03228 0.0336654 0)
(1.07812 -0.0271339 2.32132e-21)
(1.30887 -0.0896248 7.27179e-21)
(0.740446 -0.112671 1.13938e-19)
(0.882806 -0.0279378 -6.1834e-21)
(1.02184 0.0367516 8.38387e-22)
(1.19702 0.040704 -2.66385e-21)
(1.07599 0.0189409 0)
(1.27199 -0.0764657 -1.40253e-20)
(1.27877 -0.143785 0)
(1.00892 0.00329016 -7.77513e-21)
(1.1169 -0.0527082 7.28167e-21)
(1.14927 -0.0213061 0)
(1.01121 0.016973 -1.97815e-20)
(0.999583 0.038788 1.36541e-21)
(1.24973 -0.260791 -6.05668e-21)
(1.1717 0.0448172 -4.94076e-21)
(1.40269 -0.203983 -2.87972e-20)
(1.15294 -0.0577964 1.80873e-21)
(1.15183 -0.0799908 0)
(1.12009 -0.00230429 6.94324e-21)
(1.11931 -0.0422728 0)
(1.31866 0.226991 4.6853e-21)
(1.06491 0.0413703 -1.73994e-21)
(1.17491 -0.0465203 0)
(1.11905 -0.0590391 4.68688e-21)
(1.23933 -0.105434 4.86613e-21)
(1.14092 0.0401052 1.99881e-22)
(-0.235138 -0.138952 0)
(1.21502 -0.220223 -2.29153e-21)
(1.12824 -0.0346756 0)
(1.44267 -0.110037 -2.56475e-20)
(1.10696 -0.0635107 -9.24336e-21)
(1.04311 -0.0298599 -7.8693e-21)
(1.32301 -0.163985 2.61438e-20)
(0.638831 0.0179665 0)
(1.13444 -0.0805828 0)
(1.42449 -0.362486 0)
(0.896726 0.027504 -2.00165e-22)
(1.21449 -0.154462 -3.40695e-20)
(1.01178 0.0454019 0)
(1.05056 -0.0467587 -2.91616e-21)
(1.11927 -0.338177 -6.19667e-20)
(1.14637 -0.0604911 -4.99507e-21)
(1.14987 0.0276447 5.14874e-22)
(1.32189 0.492884 2.52667e-20)
(1.11829 -0.0454224 0)
(1.01546 0.282603 -1.85487e-19)
(1.33232 0.0229877 1.57907e-20)
(0.744069 0.023578 0)
(0.840235 0.0368647 -8.13761e-21)
(0.967575 -0.110255 4.52844e-21)
(1.12003 -0.0682003 3.45787e-21)
(1.19873 0.0146574 1.62626e-21)
(1.25796 -0.2443 0)
(1.35002 0.280364 0)
(1.09149 5.00287e-05 -1.26843e-20)
(1.40163 0.0668601 3.16665e-20)
(1.08514 -0.0205257 1.35072e-20)
(1.32082 -0.139402 -1.17198e-21)
(0.965241 0.0268923 1.72992e-20)
(1.00448 -0.022651 0)
(1.11348 0.019108 1.56125e-21)
(1.2949 -0.113253 -7.32944e-20)
(0.749885 0.0199162 -2.58374e-21)
(1.32188 -0.038139 0)
(1.33493 -0.104789 0)
(1.4177 -0.129893 -3.96242e-20)
(1.11213 -0.0562102 -2.64825e-21)
(1.13214 0.00962832 -8.96177e-24)
(0.950656 0.0239813 1.11646e-20)
(1.19171 0.0156855 -6.05339e-22)
(1.34988 0.0298705 -2.96467e-20)
(1.00299 0.00684507 1.31969e-20)
(1.44536 -0.00364544 0)
(0.809608 -0.0625612 0)
(1.09327 0.032209 3.56544e-21)
(1.19865 -0.22624 -9.84732e-21)
(1.28779 0.0196773 1.24087e-20)
(1.04856 0.0483973 -1.24349e-19)
(1.15401 0.0411459 -1.30915e-21)
(1.15217 0.0055195 6.20845e-21)
(0.784376 0.0167798 0)
(0.916562 -0.046219 7.83091e-20)
(1.14525 0.0271134 -3.64266e-21)
(1.41631 -0.278871 -1.43423e-20)
(1.11997 -0.0478911 -5.92956e-21)
(0.929909 0.0159452 2.59888e-21)
(-0.276271 -0.0343163 0)
(0.862918 -0.0160141 2.15552e-21)
(0.79761 0.0247883 0)
(1.06295 0.00190264 -9.59951e-23)
(1.01227 0.0283177 0)
(1.3113 0.317608 7.54076e-21)
(1.03407 -0.0573523 -3.41449e-20)
(1.24497 0.0544904 4.17212e-21)
(1.15173 -0.0651256 0)
(1.09283 -0.0235904 0)
(0.538747 -0.0723407 0)
(1.12174 -0.0363937 -3.551e-21)
(1.26117 -0.0586146 8.0841e-21)
(1.06713 0.113855 -3.36247e-20)
(0.847612 -0.0141034 0)
(1.10321 0.0259132 -9.26906e-22)
(1.16412 0.0563454 1.93809e-22)
(1.21942 0.0168091 -4.64022e-22)
(0.987846 0.032347 3.1176e-21)
(1.1317 0.00634006 7.51305e-24)
(-0.0013704 0.0407704 0)
(1.09821 -0.0235369 -1.50761e-20)
(1.20339 0.142355 7.95253e-22)
(0.721318 0.0239906 -3.02331e-21)
(1.25985 0.164066 2.76072e-21)
(1.0387 -0.0572225 2.46187e-21)
(1.04736 0.0155768 1.76068e-20)
(0.990578 0.0263919 0)
(1.14261 0.0122979 -1.21191e-20)
(0.966728 -0.0620966 0)
(0.93836 0.0303467 6.18481e-21)
(0.969668 0.283238 1.48461e-19)
(0.970244 0.0338321 0)
(0.818013 0.100692 0)
(-0.120149 -0.00149376 -6.72216e-20)
(1.33728 0.128546 -1.26989e-20)
(0.680516 -0.0213049 0)
(1.44528 0.0245914 0)
(1.21151 0.100214 0)
(1.34415 0.0826812 1.42082e-20)
(-0.0366639 -0.0961719 0)
(-0.0590348 0.0615001 3.31695e-20)
(0.937665 -0.0825122 6.64334e-20)
(1.00365 0.039802 7.14202e-22)
(0.860566 0.00188852 0)
(1.02861 -0.0334699 9.29846e-21)
(0.891269 0.0239428 0)
(0.687239 -0.0630634 -7.18038e-20)
(1.02426 0.0395276 8.48894e-21)
(1.10314 -0.0604518 3.26391e-21)
(1.0968 0.0100468 6.21243e-21)
(1.01436 0.0699347 -1.20578e-20)
(0.715982 -0.117792 -2.45093e-21)
(1.13505 -0.352382 7.97804e-22)
(0.913404 -0.0275574 0)
(1.06932 -0.000648996 -1.44738e-20)
(0.874476 0.0101115 -1.09136e-20)
(1.38286 -0.190015 1.77939e-21)
(0.699884 0.0281835 0)
(1.01363 -0.150732 0)
(1.10269 -0.0332607 2.90109e-21)
(1.39141 0.208464 1.02555e-20)
(1.11619 0.0204126 4.33738e-21)
(1.03717 0.0183089 2.06032e-20)
(0.701921 -0.0334992 -6.38057e-20)
(0.813817 0.00270455 1.97306e-20)
(1.13929 -0.0183848 4.64898e-21)
(1.40919 -0.104019 -4.89171e-21)
(1.0942 -0.0481077 -5.57809e-21)
(1.34182 -0.0561352 4.19172e-21)
(-0.125268 0.017879 4.92951e-20)
(1.29045 -0.0294678 0)
(0.611703 -0.0206851 0)
(1.06496 -0.0268867 -7.23937e-21)
(1.1008 0.0133878 4.72435e-21)
(0.0575746 0.0530086 0)
(0.874945 -0.0221716 3.4338e-22)
(1.10195 -0.0254138 -3.59709e-21)
(0.968589 0.0301568 1.36776e-21)
(1.07829 0.0387485 -7.39245e-21)
(1.00638 0.0192699 2.82733e-21)
(1.037 -0.0284163 3.17306e-21)
(1.04025 0.0321765 0)
(0.300097 -0.0448234 0)
(1.04666 -0.0621533 0)
(1.15364 0.100273 -3.00463e-20)
(-0.0373309 -0.104889 4.14371e-20)
(1.09379 0.0260847 -1.2384e-23)
(1.15402 0.120319 0)
(0.751326 0.0183139 -5.88271e-21)
(1.15695 -0.100297 2.14853e-21)
(-0.0112172 -0.038349 -1.29855e-19)
(0.790718 -0.0377895 -4.70971e-20)
(0.625636 -0.0197165 0)
(0.946606 -0.098053 0)
(0.94037 0.044457 6.99487e-21)
(0.980524 -0.122049 4.85763e-21)
(1.28048 0.393944 -4.86842e-22)
(1.1034 -0.0525426 -1.72238e-22)
(1.1147 -0.0309313 -5.12226e-21)
(0.994243 -0.101674 0)
(1.36403 0.418402 -3.87482e-20)
(0.664104 -0.0203748 0)
(0.802824 -0.0229393 -3.93767e-21)
(1.04415 -0.0280384 6.14584e-22)
(0.58119 0.0169845 0)
(1.10028 -0.00587486 0)
(0.0633636 -0.0800196 -4.29808e-20)
(1.02786 0.0403876 -1.43379e-20)
(0.71475 -0.0187911 1.76056e-21)
(0.990492 -0.00224096 0)
(0.548671 -0.0188435 0)
(0.757731 -0.0187647 -3.44928e-21)
(0.52524 -0.0212547 -3.90861e-22)
(1.31984 0.0443637 2.5443e-22)
(1.22889 0.0765575 -5.62727e-21)
(0.695939 0.0180278 -1.90171e-21)
(1.09688 -0.0274873 1.63309e-22)
(1.09401 -0.0325789 1.62307e-22)
(0.54327 0.0158548 5.15294e-21)
(1.18158 -0.0199942 4.10038e-22)
(1.14536 0.00495266 0)
(0.908455 -0.0634469 0)
(0.49314 0.0187816 0)
(1.03192 -0.0146399 0)
(1.19509 0.0453425 -1.06584e-21)
(1.00224 -0.000616584 0)
(1.14759 -0.0088479 0)
(1.04797 0.0187721 0)
(1.1265 -0.0208629 0)
(-0.018864 -0.0362396 4.00529e-20)
(1.27528 0.0382374 5.32858e-22)
(1.13009 0.00750967 0)
(1.38728 0.0442697 2.29369e-20)
(1.2228 0.0148877 6.00529e-22)
(1.10382 0.0456467 1.56589e-21)
(1.19994 0.011124 3.78786e-21)
(1.21239 0.0566491 0)
(0.57999 -0.0172853 7.55268e-21)
(1.05128 0.0423168 1.17274e-20)
(1.17977 0.0569767 0)
(1.17029 -0.0662772 -2.4606e-21)
(1.20217 -0.012823 2.20169e-21)
(0.416208 0.107595 -1.05724e-20)
(1.12185 0.0494513 3.86577e-21)
(1.20983 -0.0774817 -4.1111e-21)
(0.96339 -0.0276418 0)
(1.22076 -0.0090322 -1.66233e-20)
(1.07839 -0.0337753 -5.31323e-21)
(0.779152 0.0686134 1.69351e-21)
(0.823233 0.122206 0)
(-0.0237721 -0.02067 0)
(0.977494 0.114123 -1.79628e-20)
(1.15564 -0.0433496 0)
(1.28017 -0.039279 1.3149e-20)
(1.15592 0.00280646 1.14396e-21)
(1.19932 -0.0854026 3.95232e-21)
(1.15073 -0.000276154 -1.80172e-21)
(1.36805 -0.0815721 1.08862e-19)
(1.01577 -0.324615 6.25612e-20)
(1.15539 -0.025395 -6.89288e-22)
(0.991235 0.127137 0)
(0.803194 0.00878457 0)
(0.906127 0.00422016 -2.97726e-20)
(1.18905 0.00512595 -2.32188e-20)
(1.21881 -0.0379526 0)
(0.592293 -0.112938 1.37738e-21)
(0.271863 -0.103048 0)
(0.719314 0.107161 4.54033e-21)
(0.896356 0.0019231 -1.47831e-21)
(0.819595 0.0297657 -4.2924e-21)
(1.20041 0.0178699 0)
(1.22013 -0.00492746 -1.33438e-21)
(1.09926 0.0396616 5.82409e-21)
(0.677829 0.141286 -9.33726e-21)
(1.22633 -0.0268124 -3.50829e-21)
(0.843001 0.166067 0)
(1.09138 0.0712632 0)
(1.08236 0.0593458 4.69544e-21)
(0.8243 0.104532 -4.58646e-21)
(1.26319 -0.0212003 7.62716e-21)
(1.16731 -0.0323093 -3.53886e-21)
(0.961082 0.0543128 9.71508e-22)
(1.14586 -0.0407505 0)
(0.402433 -0.136088 1.23129e-20)
(1.32747 0.0825513 -1.97924e-20)
(0.98749 0.118183 -2.35202e-21)
(0.0316555 0.140313 1.1178e-20)
(1.42953 -0.166411 2.1999e-20)
(0.851644 -0.0609749 6.04513e-20)
(1.24297 0.0120388 -4.80578e-21)
(1.14251 -0.031984 -8.43905e-22)
(-0.0559818 -0.115436 -7.07547e-21)
(1.00119 -0.00697837 0)
(1.03428 -0.0870135 -1.68553e-20)
(0.858044 -0.0324651 6.83365e-21)
(1.10342 -0.0545717 3.46384e-21)
(0.712623 0.070418 -1.20666e-21)
(0.501273 -0.0185648 -1.77551e-22)
(1.40596 -0.393644 -1.48529e-20)
(1.13381 0.0571714 0)
(1.02201 0.029383 -1.1923e-21)
(1.13803 0.0447851 -1.99804e-21)
(1.31522 -0.0779772 0)
(0.742331 -0.00150642 -1.186e-21)
(1.14426 0.0467403 2.63186e-21)
(0.622247 0.0393697 2.32894e-20)
(1.16305 -0.0278118 2.90336e-21)
(0.921179 0.0280004 7.13944e-22)
(-0.037933 -0.0409143 0)
(0.339734 0.306949 6.97749e-21)
(1.14576 0.056695 0)
(0.926183 0.161567 -4.69081e-21)
(0.806934 0.13034 0)
(1.12979 -0.00114366 2.52573e-21)
(1.01654 0.0262326 0)
(1.13971 -0.0146434 0)
(1.40949 -0.147719 2.00604e-20)
(0.795074 -0.0850085 0)
(1.15295 -0.153937 1.7628e-20)
(1.09384 -0.0248666 -2.21989e-23)
(1.0637 0.0516817 2.40103e-21)
(1.26156 -0.023241 -7.75218e-21)
(1.23944 0.118189 -5.55942e-21)
(1.16959 -0.00499291 2.48782e-20)
(1.19211 0.0587732 0)
(1.21811 -0.0690412 0)
(1.15425 0.0488184 1.37845e-21)
(1.22763 -0.00584922 0)
(1.41628 0.199207 -2.66022e-20)
(0.647146 -0.0570535 1.11066e-21)
(1.02711 0.0174635 2.14664e-20)
(1.27053 0.0476815 -3.43681e-22)
(-0.01406 0.000830294 0)
(-0.0268031 -0.0607444 0)
(0.0926505 -0.0497026 -3.69719e-20)
(-0.0502591 -0.123316 0)
(0.573773 -0.12753 -1.46973e-20)
(1.1852 0.0424874 -2.0788e-21)
(1.17683 -0.0989059 -2.50693e-21)
(1.29608 -0.0603562 -3.53402e-22)
(1.2202 -0.0180939 0)
(0.673577 -0.0142897 -1.40566e-21)
(1.19221 0.0403228 0)
(1.14585 0.0309015 9.74865e-22)
(0.48538 -0.108698 0)
(0.681354 -0.14441 -4.57304e-22)
(1.15728 0.0328569 0)
(1.11733 0.0331887 0)
(0.830122 0.0594665 6.55065e-20)
(0.591786 -0.197699 -1.48786e-21)
(0.841923 -0.0620863 -2.13645e-22)
(1.01112 0.0180745 -9.96851e-21)
(0.14181 -0.107297 0)
(1.19882 -0.0787652 -2.68686e-20)
(1.20212 0.0751905 -4.63317e-21)
(1.06238 -0.0675532 -1.26247e-21)
(0.778943 -0.161629 1.4768e-21)
(-0.0511843 -0.0716439 -8.76369e-20)
(1.14641 0.0367792 0)
(-0.0366873 0.0443157 0)
(1.15801 0.0619163 4.85874e-21)
(0.567837 -0.144769 -1.5895e-21)
(1.10295 0.0426159 -8.4579e-21)
(1.12547 -0.0411039 0)
(1.16326 -0.0994972 1.84384e-21)
(1.19255 -0.0453764 1.15732e-20)
(0.503191 -0.0574729 -8.04149e-21)
(1.15159 -0.0343179 -1.19072e-21)
(1.19742 -0.0792001 -6.70325e-23)
(0.0347687 0.238458 2.85616e-21)
(1.27812 -0.116617 1.33668e-21)
(1.1282 0.0458432 0)
(1.16617 0.0312503 0)
(1.21918 -0.0313954 3.32478e-21)
(1.15316 0.0829006 4.18739e-21)
(0.535363 -0.0267188 -2.63818e-20)
(1.19288 -0.128884 -1.94174e-20)
(1.11012 0.0500398 6.37719e-21)
(0.508734 -0.00231681 9.89343e-21)
(0.353991 -0.107663 -1.17612e-19)
(-0.217373 -0.0407151 1.70624e-20)
(1.17447 0.181447 -6.67299e-21)
(1.22713 -0.4971 3.35469e-21)
(1.41732 0.0808529 -1.98634e-20)
(1.22848 -0.0318764 -3.94e-21)
(0.935365 -0.232381 9.736e-20)
(-0.10432 0.0148827 0)
(1.1512 -0.0333567 -5.26404e-22)
(0.199554 0.274475 -2.09194e-20)
(1.15017 0.0467483 -4.2044e-21)
(1.16219 0.0120978 7.48828e-21)
(1.09628 0.0430726 0)
(0.756199 -0.101457 0)
(1.17535 -0.054967 0)
(1.16025 0.138606 1.90612e-21)
(1.27419 -0.0170063 -2.68916e-20)
(1.16897 -0.0484179 -5.88216e-22)
(0.452292 0.0179731 0)
(0.602521 0.0114241 0)
(0.605195 -0.000979877 5.77626e-22)
(0.423737 -0.0135293 0)
(1.1332 0.0337188 0)
(1.02219 -0.0130783 2.68743e-20)
(0.370022 0.116608 0)
(0.915935 0.0293209 0)
(1.11289 -0.0501 0)
(1.17401 0.185223 -5.79845e-21)
(1.25832 0.0590507 1.21034e-20)
(0.97054 -0.0302081 6.6302e-21)
(1.27391 -0.403984 -9.62741e-20)
(0.573323 0.0389319 7.54528e-21)
(1.31356 0.0241037 4.39559e-21)
(1.29608 -0.0990078 0)
(-0.436329 0.0208361 0)
(-0.279387 -0.0676467 0)
(1.17248 -0.0274433 -2.70425e-21)
(1.31601 -0.298369 -1.38663e-20)
(1.3156 0.142972 0)
(1.10496 0.0439545 -6.80235e-21)
(0.22294 -0.130044 0)
(1.50679 -0.19033 6.24407e-20)
(0.413212 0.52113 1.15384e-19)
(0.244754 -0.0504306 0)
(1.0783 -0.28005 1.03337e-19)
(0.477855 0.0388591 0)
(-0.268252 0.123767 1.61193e-20)
(1.34153 0.118312 0)
(-0.0378129 -0.0965114 -3.83761e-21)
(0.983567 -0.0494134 0)
(1.27288 -0.041361 -5.76665e-21)
(-0.136029 -0.06648 -6.97938e-21)
(1.12962 -0.0235275 1.11133e-21)
(1.20393 -0.165953 -5.70509e-21)
(0.569913 -0.512292 -9.41704e-20)
(1.17796 0.00454064 -1.17492e-21)
(1.19585 -0.134602 5.84558e-21)
(1.18303 0.245944 -1.99521e-20)
(1.16566 -0.0117204 -4.34036e-21)
(1.16311 -0.0045283 -1.17933e-22)
(-0.184439 -0.202539 -4.93007e-20)
(0.0491491 0.0546352 -7.4857e-21)
(1.26679 0.00528163 1.85684e-21)
(1.06044 -0.0508688 0)
(0.425365 -0.212315 -6.92987e-21)
(1.38899 -0.449009 6.96136e-20)
(0.892067 -0.0897643 -4.96268e-20)
(1.43233 0.136931 7.76678e-20)
(1.08645 -0.0562727 2.77586e-21)
(1.24477 -0.148762 1.01437e-21)
(1.06211 -0.00728257 0)
(1.18728 -0.0165534 0)
(1.30178 -0.0509733 5.52968e-21)
(1.08753 -0.0200415 -4.48976e-21)
(1.18248 -0.0847024 4.67202e-21)
(1.10027 0.03601 -5.98267e-21)
(1.45758 -0.0363003 -4.95102e-20)
(0.459445 0.0297053 0)
(1.31093 -0.111159 -7.47909e-21)
(1.35294 0.121645 0)
(1.11525 0.0435915 -3.87141e-21)
(1.14216 0.0272869 0)
(1.04216 -0.00945466 1.40204e-20)
(1.22932 0.0380628 1.30461e-20)
(1.15693 -0.0880076 0)
(0.0460686 -0.0303182 1.39091e-19)
(0.882743 -0.210695 -7.63626e-20)
(1.31557 -0.0394445 -3.25373e-20)
(-0.111373 -0.060676 3.82366e-20)
(1.19874 0.0365586 3.81444e-22)
(0.711824 -0.0868781 6.8791e-22)
(-0.100146 -0.0260705 -3.98686e-20)
(-0.0264651 0.0177343 -2.57668e-20)
(1.01801 -0.0304507 0)
(-0.0260148 -0.0297306 0)
(1.26022 0.113494 0)
(0.111362 -0.101249 0)
(1.12113 -0.0258019 0)
(0.12177 0.0277763 0)
(1.10923 0.0540938 0)
(1.1892 0.220169 0)
(1.2904 0.0930209 -5.76739e-21)
(0.565303 -0.281515 -1.91418e-20)
(-0.182253 0.0314288 0)
(1.09515 -0.11252 5.16393e-20)
(1.29485 0.00212441 5.78369e-22)
(1.39374 0.0835783 0)
(-0.036791 -0.0382392 0)
(1.15916 0.0184303 1.78249e-21)
(1.1695 0.00096376 -1.19036e-21)
(1.17067 0.388719 0)
(0.207501 -0.0858764 4.96683e-20)
(1.11996 0.0600659 1.23106e-21)
(0.22173 -0.0513924 -4.75691e-20)
(-0.0609062 0.0512993 -3.26666e-20)
(-0.0323102 0.0491947 8.43368e-20)
(0.600608 0.21199 3.21048e-20)
(1.0904 -0.113923 -6.47349e-22)
(1.12346 0.0545179 -4.02481e-21)
(1.02345 -0.00795784 0)
(1.06997 -0.0731918 -2.34629e-20)
(1.2259 0.0907988 -1.30083e-20)
(-0.00901553 -0.0193441 9.06985e-20)
(0.980368 -0.0717311 -6.18557e-20)
(0.551252 -0.100092 1.27023e-20)
(1.11065 -0.0463434 -3.91259e-21)
(0.0646756 -0.0310367 2.92886e-20)
(0.231389 -0.0388511 -4.23513e-20)
(0.355778 -0.0687943 -4.50131e-20)
(1.15212 0.0857152 7.69577e-21)
(-0.0522623 -0.031474 0)
(0.884051 -0.0432809 1.10425e-20)
(1.23615 -0.166544 -1.12396e-20)
(1.20063 -0.0982305 1.08368e-20)
(1.30761 -0.016667 0)
(1.51256 -0.243976 6.07153e-20)
(1.13077 0.0277745 -2.91158e-21)
(-0.0114532 -0.0301842 -3.03575e-20)
(0.319559 0.0599835 0)
(0.899583 0.0293768 -2.02281e-21)
(1.133 0.0276664 -2.91164e-22)
(0.505732 -0.0198145 8.65924e-21)
(1.16225 0.015163 -2.52157e-22)
(1.11687 0.0512226 0)
(1.11384 -0.178297 -1.2942e-20)
(-0.0819987 -0.107812 -5.82327e-20)
(1.32667 -0.0317811 2.3387e-20)
(1.10398 0.175881 -8.95129e-21)
(1.11645 0.034104 6.8423e-21)
(-0.0364786 -0.0476543 1.33978e-20)
(-0.0276329 0.0415412 -6.33102e-20)
(0.762449 -0.00723229 0)
(0.911374 0.214661 0)
(1.15138 0.0970851 -1.62463e-20)
(1.05165 0.0686475 1.25721e-20)
(1.12979 0.0259104 0)
(0.456234 -0.108031 4.5393e-20)
(0.746208 0.0828416 -1.16894e-20)
(1.09868 0.106315 0)
(1.10961 0.036034 0)
(1.3825 0.196621 0)
(1.17906 0.0702736 0)
(1.27747 0.0450747 1.09754e-21)
(-0.0428568 0.0468032 3.56799e-20)
(1.15972 0.0421221 5.91508e-21)
(1.39062 -0.216203 -6.98112e-20)
(1.30932 0.0794759 -2.47333e-21)
(-0.0437231 -0.0419221 0)
(1.20583 -0.194925 0)
(0.612268 -0.0117983 9.68801e-23)
(0.546014 0.00758786 -6.00421e-20)
(0.0760225 0.0351757 4.8682e-20)
(0.933322 0.0266744 1.45999e-21)
(0.725452 -0.269774 0)
(0.654761 -0.0917045 0)
(1.25154 0.0960114 0)
(0.541971 0.515595 2.14608e-20)
(-0.0194776 0.0262684 -2.89831e-20)
(1.08951 -0.0150807 2.46161e-22)
(-0.0184745 -0.050944 5.7041e-20)
(1.12588 -0.0180124 3.07988e-21)
(1.17548 0.313952 3.80544e-20)
(1.11444 -0.0955578 9.32747e-21)
(0.19505 -0.11113 6.44428e-20)
(1.01556 -0.0851544 3.97209e-21)
(1.18666 -0.211616 0)
(0.562918 0.272543 0)
(0.969963 -0.0654738 6.1428e-22)
(-0.187107 -0.0285231 0)
(0.605895 0.0275538 2.07683e-21)
(0.595439 -0.412143 -2.61643e-21)
(0.244412 0.0490745 -1.13399e-19)
(1.12088 -0.230722 3.79767e-20)
(1.04051 0.365417 1.02013e-20)
(0.977959 0.020673 0)
(1.21131 -0.0634295 3.89406e-22)
(0.631028 0.0174687 0)
(0.973747 -0.0178999 -7.14128e-22)
(0.408356 -0.0229611 0)
(0.710747 0.133106 0)
(1.00539 -0.018707 -4.10797e-21)
(1.43696 0.165083 -1.43078e-20)
(1.12113 -0.0164412 3.0814e-21)
(0.516465 -0.486206 0)
(1.13285 -0.159481 3.50114e-21)
(0.804233 0.379873 7.10778e-20)
(-0.0362425 0.0217347 1.18869e-21)
(1.2196 -0.00612051 8.09839e-21)
(1.21093 0.0378509 -9.75326e-21)
(1.15837 0.0194837 9.78773e-22)
(0.784813 0.0105001 -2.8829e-21)
(0.0671799 0.0179264 3.80247e-20)
(-0.0189704 -0.0212851 -5.10396e-20)
(-0.216776 -0.0544957 0)
(-0.230604 0.0859079 0)
(1.17292 -0.613729 2.87309e-20)
(1.15527 -0.0231822 1.15078e-22)
(0.873114 -0.459977 -3.72819e-20)
(0.94733 0.0147735 -2.29594e-20)
(1.37096 0.194033 3.46891e-20)
(0.606388 0.422209 0)
(0.247029 0.41758 -1.15578e-19)
(0.5962 0.483507 0)
(0.0186042 -0.000335287 0)
(1.11652 -0.481169 0)
(-0.0495572 0.014737 -5.27975e-22)
(1.20204 -0.0136732 0)
(0.950424 0.288996 -3.00876e-20)
(0.59661 0.695024 2.05895e-20)
(1.27875 0.212808 4.16543e-21)
(-0.0341825 -0.0937636 -9.34396e-20)
(0.724943 0.245689 4.42985e-21)
(0.457297 0.145142 -1.36149e-20)
(1.20178 0.0911877 0)
(1.36394 0.352722 3.58936e-20)
(1.22504 0.565756 7.5058e-21)
(0.168673 -0.0157683 -2.27004e-20)
(1.0204 0.117857 3.32617e-20)
(0.924399 -0.0237186 5.30654e-23)
(0.9061 0.0320934 -3.75388e-22)
(-0.0130225 -0.0300665 0)
(0.641705 -0.647182 -3.19259e-20)
(0.613143 0.204444 0)
(0.0567993 -0.138167 0)
(-0.0508082 0.0664996 0)
(-0.00441112 -0.122136 -3.51488e-20)
(1.23176 0.00711159 -9.32013e-21)
(-0.0245005 0.0601564 0)
(-0.037926 0.0544805 0)
(1.43882 0.110362 -7.42198e-20)
(-0.0366368 -0.0708053 4.23154e-20)
(0.115168 0.236608 -1.01662e-19)
(0.397852 0.0158698 0)
(0.167714 -0.273601 8.30024e-20)
(1.06083 -0.241533 0)
(0.994087 -0.284817 0)
(-0.0013689 -0.0987148 8.78523e-20)
(1.14747 0.0380857 -9.88378e-23)
(1.12831 0.342695 2.82593e-20)
(0.269187 0.0271717 4.68951e-20)
(0.399591 -0.511532 -4.13178e-20)
(1.29317 0.0664781 0)
(1.22865 0.189047 2.24473e-20)
(1.22603 0.207955 -2.75711e-20)
(0.102579 0.0918691 -2.36242e-20)
(-0.0654397 -0.0198683 0)
(1.06998 -0.05806 -2.01991e-20)
(1.09919 -0.225143 -1.86424e-20)
(0.579317 -0.39947 0)
(1.09633 -0.151945 -2.80531e-20)
(-0.131331 0.061243 0)
(0.618187 0.0390741 0)
(1.47153 0.0358354 4.45208e-20)
(0.984243 0.028269 4.01801e-22)
(1.07909 0.745228 -1.63329e-20)
(0.223109 -0.373868 1.37025e-19)
(1.09845 0.018771 -2.74854e-22)
(1.20512 0.0732819 -5.14261e-23)
(-0.0539475 0.0614209 3.00381e-20)
(0.789744 0.73533 2.85347e-20)
(1.34007 -0.380119 -1.25866e-20)
(-0.0822405 -0.166004 8.36213e-20)
(1.11261 0.053266 0)
(0.181542 -0.0878663 -7.74617e-21)
(0.885986 -0.629092 2.3599e-21)
(0.90372 0.643463 -1.94806e-20)
(0.515999 -0.0408545 -5.43846e-20)
(1.14531 -0.00210037 -3.41315e-21)
(1.07697 -0.0869963 7.8453e-21)
(1.14723 0.0571281 5.17955e-22)
(1.10627 0.120832 4.1542e-21)
(1.1304 -0.134147 0)
(0.917712 0.10621 1.47769e-20)
(0.891825 0.460236 0)
(1.23585 0.111104 7.6025e-22)
(1.16732 0.111829 6.34452e-23)
(0.758392 0.264829 0)
(0.527564 0.11014 1.08156e-19)
(0.895361 0.714209 -8.91173e-22)
(1.08012 0.291357 -2.17028e-20)
(1.04408 -0.0120493 1.31683e-20)
(0.415957 0.494911 0)
(1.28638 -0.478222 0)
(0.529681 -0.121298 4.26841e-21)
(1.26801 0.503299 0)
(-0.0206281 0.0563407 -4.34377e-20)
(1.27523 -0.419604 1.93395e-21)
(1.16699 0.509548 0)
(0.452306 0.22133 1.70654e-19)
(1.12963 0.315727 -1.20607e-19)
(0.80966 -0.636165 -2.83352e-20)
(1.15334 0.0597735 -2.89193e-21)
(0.923877 0.150674 8.19227e-20)
(1.09045 0.168687 5.22415e-20)
(1.07369 0.705101 4.95668e-22)
(0.898515 -0.435092 6.94348e-20)
(1.42618 0.175578 4.01791e-20)
(1.12907 0.0106862 -7.24263e-22)
(-0.00564075 -0.0489712 7.76467e-20)
(1.07186 -0.698837 1.72435e-20)
(0.863586 -0.714568 5.99142e-20)
(0.249019 -0.326057 0)
(0.971119 -0.146005 7.66691e-20)
(0.362694 0.31178 -4.42872e-19)
(-0.114799 -0.0695708 2.18186e-20)
(0.256035 0.039693 2.30896e-20)
(0.647206 -0.0614767 -6.47939e-20)
(1.08123 0.530071 0)
(0.99421 0.223873 8.13711e-20)
(1.08653 0.0318293 3.56967e-21)
(0.911223 0.444108 -9.16417e-20)
(0.772033 -0.717761 -9.71481e-21)
(0.925453 0.0255186 -5.00949e-20)
(0.978605 0.490864 0)
(1.12983 0.213837 -1.28916e-20)
(1.37013 -0.519093 1.08789e-20)
(1.22279 -0.345203 8.00558e-21)
(-0.275816 -0.0293172 3.32755e-20)
(0.193735 0.00918893 -1.83593e-20)
(0.9736 -0.116744 -5.97268e-20)
(0.354072 0.528629 0)
(0.913778 0.0194209 3.99147e-20)
(1.1602 0.636971 7.95238e-20)
(-0.0714275 -0.114777 1.24087e-19)
(-0.070503 0.0360056 -2.49009e-20)
(-0.0788477 -0.0885699 3.71531e-20)
(1.09653 0.0242062 -4.80027e-21)
(1.11329 -0.45913 0)
(1.0587 -0.731926 -5.02807e-20)
(0.698979 0.352279 0)
(0.0243796 -0.119388 -8.81233e-20)
(1.12385 0.0261943 3.91356e-21)
(-0.0322404 -0.0773112 -2.53888e-20)
(1.04848 0.0555349 -1.22349e-20)
(0.111487 0.0319813 5.63128e-20)
(0.855533 0.125293 0)
(1.40452 -0.0477053 4.83971e-20)
(0.0517606 0.0431939 -2.62159e-20)
(-0.292846 -0.0121191 -3.94995e-20)
(-0.233315 -0.0227046 0)
(0.0668951 -0.0143433 0)
(1.36232 -0.016746 -1.25744e-20)
(0.356403 -0.0135728 1.33007e-19)
(1.25466 -0.725097 -1.21099e-20)
(0.866909 -0.158013 1.72099e-20)
(1.0747 0.252285 -3.05342e-20)
(0.364034 -0.550315 1.44216e-19)
(1.54755 0.273545 -3.48825e-20)
(0.0491012 -0.0713431 2.98361e-20)
(0.208511 0.309834 1.97441e-19)
(0.0722171 -0.042753 -1.12402e-19)
(0.938099 -0.4911 -4.53343e-20)
(1.45643 0.385341 3.52019e-20)
(0.560271 -0.668955 5.17348e-20)
(1.1073 -0.0863459 -7.6405e-21)
(0.182531 -0.0456973 4.76272e-20)
(1.18844 0.289371 -4.84349e-20)
(0.663256 0.642695 -4.08911e-20)
(1.32128 -0.623049 0)
(1.42128 0.518106 3.38679e-20)
(1.04664 -0.527405 -1.20891e-20)
(1.3913 0.605913 -9.96875e-20)
(1.18398 0.0439463 0)
(-0.0539571 0.0766848 0)
(1.25331 0.729882 0)
(1.15087 0.0753471 -6.97502e-21)
(0.737409 -0.298191 -2.12388e-19)
(0.474859 -0.079372 0)
(-0.0571642 0.0742635 -2.54573e-20)
(1.0184 -0.246869 1.05749e-19)
(-0.374151 -0.0426971 0)
(0.321016 0.0300153 1.24039e-20)
(1.14233 0.0422178 0)
(1.41864 0.27064 0)
(1.18936 0.054162 3.09668e-21)
(0.358983 -0.28697 0)
(1.01518 0.152222 3.81278e-20)
(1.3124 0.283871 0)
(-0.0972933 0.0363299 -9.48566e-22)
(0.809282 -0.393016 0)
(1.51625 0.334486 -5.23841e-20)
(1.24353 0.367619 4.24922e-22)
(0.841815 0.647869 -9.88563e-21)
(1.01308 0.159378 -8.98636e-20)
(0.967673 -0.20396 -5.12731e-20)
(1.45417 0.291078 3.08252e-20)
(1.01152 0.0832931 0)
(0.563204 -0.0675747 0)
)
;

boundaryField
{
    FrontBack
    {
        type            empty;
    }
    Top
    {
        type            noSlip;
    }
    In
    {
        type            fixedValue;
        value           uniform (1 0 0);
    }
    Bottom
    {
        type            noSlip;
    }
    Out
    {
        type            zeroGradient;
    }
    circle
    {
        type            noSlip;
    }
}


// ************************************************************************* //
