/*--------------------------------*- C++ -*----------------------------------*\
| =========                 |                                                 |
| \\      /  F ield         | OpenFOAM: The Open Source CFD Toolbox           |
|  \\    /   O peration     | Version:  2412                                  |
|   \\  /    A nd           | Website:  www.openfoam.com                      |
|    \\/     M anipulation  |                                                 |
\*---------------------------------------------------------------------------*/
FoamFile
{
    version     2.0;
    format      ascii;
    arch        "LSB;label=32;scalar=64";
    class       volVectorField;
    location    "42.5";
    object      U;
}
// * * * * * * * * * * * * * * * * * * * * * * * * * * * * * * * * * * * * * //

dimensions      [0 1 -1 0 0 0 0];

internalField   nonuniform List<vector> 
808
(
(0.896921 -0.011537 0)
(1.00092 -0.0386859 0)
(1.1137 -0.203133 0)
(1.0661 0.0109861 -2.583e-21)
(1.47768 -0.248324 0)
(0.946789 -0.024498 0)
(1.10278 -0.037232 -7.81508e-21)
(1.12361 -0.0377451 0)
(1.34141 -0.194762 2.68975e-20)
(1.20803 -0.0637117 -3.58798e-21)
(1.27839 0.0638695 7.97385e-21)
(1.3792 -0.209239 0)
(0.981785 -0.0362129 0)
(0.725237 -0.01733 0)
(1.08385 0.0283283 1.93374e-20)
(1.0644 -0.0211342 0)
(0.940851 0.0757099 -7.59555e-21)
(0.961072 -0.00822899 -1.57885e-22)
(1.26665 -0.0837863 0)
(1.10567 -0.000154857 0)
(1.23784 0.0649552 -1.11262e-20)
(0.924029 0.126705 1.1205e-19)
(1.07141 0.0065078 -1.6855e-20)
(1.16499 -0.0382848 0)
(0.964308 0.188618 0)
(1.36459 0.0202117 -3.0392e-20)
(1.27123 -0.14343 9.61657e-21)
(1.00032 -0.0349118 -1.00576e-20)
(1.063 -0.00620317 0)
(1.06198 0.0215054 -2.77376e-22)
(0.999794 -0.0084507 8.79985e-24)
(1.11258 -0.0131156 0)
(1.06401 0.0609481 0)
(1.09886 -0.0346716 8.44561e-21)
(1.26352 -0.0469957 4.89017e-21)
(0.748219 -0.109089 1.10401e-19)
(0.851249 -0.0270758 -1.54924e-20)
(1.05115 0.0559946 1.50449e-21)
(1.17466 0.0554534 -5.11166e-21)
(1.11817 0.0407184 0)
(1.22976 -0.063807 -7.84847e-21)
(1.25992 -0.107458 0)
(1.00077 -0.0199872 -1.11793e-20)
(1.15911 -0.0164166 1.32159e-20)
(1.28833 -0.225083 0)
(1.00953 0.016619 -2.26451e-20)
(1.01471 0.0373865 3.47604e-21)
(1.24853 -0.218918 1.28986e-20)
(1.16852 0.0562084 -1.05662e-20)
(1.38774 -0.121603 -3.88539e-20)
(1.10141 -0.00678958 1.42465e-20)
(1.13873 -0.0571797 0)
(1.11187 -0.00388344 1.00686e-20)
(1.22932 -0.0233586 0)
(1.32948 0.217624 3.31365e-21)
(1.06984 0.0505125 -4.07824e-21)
(1.29587 0.0225469 0)
(1.34582 -0.087339 -9.15791e-23)
(1.21774 -0.076891 3.85162e-21)
(1.14451 0.0320498 -1.54346e-21)
(-0.00660214 -0.0382766 0)
(1.21113 -0.192637 -7.90136e-21)
(1.23479 -0.101304 0)
(1.36252 -0.0466122 -2.24563e-20)
(1.18277 -0.047647 -1.24803e-20)
(1.03083 -0.0290698 -1.14257e-20)
(1.35602 -0.0262569 2.24703e-20)
(0.661893 0.0163194 0)
(1.19665 -0.0114457 0)
(1.47041 -0.318932 0)
(0.890546 0.0250329 -3.33282e-22)
(1.31347 -0.0998749 -4.87355e-20)
(0.996075 0.0372584 0)
(1.05771 -0.046607 -7.4857e-21)
(1.12425 -0.321152 -5.32015e-20)
(1.10957 -0.00499531 -2.5169e-20)
(1.13897 0.0144728 -4.09036e-22)
(1.33437 0.502389 2.51763e-20)
(1.08247 -0.0396552 0)
(1.01115 0.284368 -1.86845e-19)
(1.36284 -0.0158193 1.46806e-20)
(0.75701 0.0116394 0)
(0.858998 0.0256788 -1.5284e-20)
(0.971311 -0.107761 4.16112e-21)
(1.123 -0.0219844 1.97578e-20)
(1.1724 0.00224103 2.13224e-22)
(1.34584 -0.205897 0)
(1.35258 0.285248 0)
(1.08267 0.00111729 -1.99777e-20)
(1.45965 0.0599446 3.26155e-20)
(1.07311 -0.018124 1.49856e-20)
(1.29753 -0.0879911 -1.36674e-21)
(0.965629 0.0234339 1.78192e-20)
(1.00348 -0.0271979 0)
(1.10927 0.00446958 2.11938e-21)
(1.24301 0.0140702 -4.25293e-20)
(0.775258 0.0127651 -2.55785e-21)
(1.35514 -0.117201 0)
(1.28781 -0.0649146 0)
(1.38723 0.00571263 -4.02831e-20)
(1.09097 -0.0263358 -8.77285e-21)
(1.11459 0.00596033 -2.30744e-22)
(0.943545 0.0220307 1.38569e-20)
(1.16814 -0.0168571 4.80885e-22)
(1.25634 -0.0155729 -4.665e-21)
(0.999029 -0.00181603 1.65087e-20)
(1.49378 -0.190465 0)
(0.946518 0.289828 0)
(1.09112 0.0317136 9.28933e-21)
(1.20078 -0.199252 -5.7821e-21)
(1.24181 -0.0223053 3.06405e-21)
(1.04096 0.0414218 -1.23449e-19)
(1.15569 0.0386963 -3.8331e-21)
(1.17594 0.229447 5.56073e-21)
(0.815302 0.0231409 0)
(0.92091 -0.0461528 7.5126e-20)
(1.14054 0.0183096 -1.03475e-20)
(1.46291 -0.213156 -2.01864e-20)
(1.14543 -0.0522156 -1.16999e-20)
(0.928165 0.0145785 2.10795e-21)
(-0.21896 -0.00241341 0)
(0.844838 -0.0199267 1.71912e-21)
(0.79391 0.0241147 0)
(1.05732 0.00127502 -1.06529e-22)
(1.01554 0.028631 0)
(1.31796 0.316683 5.73353e-21)
(1.03515 -0.0467786 -3.22587e-20)
(1.33177 0.253988 -6.03974e-22)
(1.13989 -0.0584106 0)
(1.0891 -0.0210679 0)
(0.713727 0.133583 0)
(1.14742 -0.0376257 -5.19148e-21)
(1.21968 -0.036867 3.9216e-21)
(1.07117 0.109731 -3.516e-20)
(0.849987 -0.0336448 0)
(1.09653 0.0199199 -2.57749e-21)
(0.859398 -0.0246913 3.83079e-21)
(1.04147 -0.027414 -5.69168e-21)
(0.991919 0.0342208 6.29638e-21)
(1.11941 0.00655168 1.93435e-22)
(0.024593 0.150032 0)
(1.08799 -0.0182184 -1.64981e-20)
(0.895762 -0.247879 1.57579e-21)
(0.708003 0.0256054 -5.58258e-21)
(1.26853 0.165638 3.55147e-21)
(0.992618 0.237035 4.39672e-21)
(1.04366 0.0209887 1.82015e-20)
(0.990878 0.0287355 0)
(1.12022 -0.340335 -3.59588e-21)
(1.05518 0.255449 0)
(0.937525 0.0297073 1.17748e-20)
(0.967367 0.284482 1.49286e-19)
(0.969011 0.0357732 0)
(0.822295 0.105252 0)
(-0.077144 0.201243 -7.10381e-20)
(1.34998 0.122096 -1.10436e-20)
(0.681141 -0.0210402 0)
(1.51623 -0.0325301 0)
(0.952628 -0.179513 0)
(1.36876 0.0658756 1.34288e-20)
(-0.0574788 -0.0531119 0)
(-0.0329206 0.178102 3.24324e-20)
(1.11815 0.0535632 9.56422e-20)
(1.00361 0.0378246 2.07562e-21)
(0.853912 -0.00358067 0)
(1.04535 -0.0523844 1.64673e-20)
(0.884142 0.0213282 0)
(0.849368 0.0652203 -1.03349e-19)
(1.02361 0.0498916 1.73961e-20)
(1.1752 -0.0361113 3.76064e-21)
(1.0878 0.0126 8.84865e-21)
(1.015 0.0710869 -1.27937e-20)
(0.68915 0.270791 -4.37713e-21)
(1.13503 -0.336213 4.2481e-22)
(0.917925 -0.0150475 0)
(1.06532 0.00602399 -1.47195e-20)
(0.87142 0.00662091 -1.29592e-20)
(1.34975 -0.119261 2.07514e-21)
(0.678617 0.0183772 0)
(1.13114 -0.114703 0)
(1.14461 -0.0722451 5.30692e-21)
(1.40031 0.213278 8.82076e-21)
(1.10846 0.0138335 7.04986e-21)
(1.03489 0.0185004 1.91585e-20)
(0.966791 0.0792927 -1.05264e-19)
(0.812885 0.00455462 2.25748e-20)
(1.12141 -0.0193981 8.64153e-21)
(1.30483 -0.0279932 -2.97806e-21)
(1.13969 -0.0472237 -7.17624e-21)
(1.26169 -0.0319341 2.5518e-21)
(-0.0603378 0.213351 5.12922e-20)
(1.23592 -0.0428918 0)
(0.619867 -0.0153833 0)
(1.05523 -0.0241551 -6.84045e-21)
(1.092 0.0108773 1.2107e-20)
(0.136111 0.163216 0)
(0.881101 -0.0255762 7.74012e-22)
(1.13801 -0.0782685 -3.54591e-21)
(0.97181 0.00183839 6.95682e-22)
(1.07815 0.0320027 -8.23247e-21)
(0.999787 0.0237949 2.36899e-21)
(1.0502 -0.0672231 3.12794e-21)
(1.07795 0.0325869 0)
(0.44868 -0.00314009 0)
(1.05112 -0.0672707 0)
(1.17985 0.108594 -2.57902e-20)
(-0.078223 -0.00956628 5.39135e-20)
(1.07172 0.0221051 -1.124e-23)
(1.13533 -0.0629093 0)
(0.746616 0.0255156 -1.17223e-20)
(1.12723 0.196526 -1.00391e-22)
(0.0143708 -0.0360104 -1.85117e-19)
(0.784988 0.120913 -3.2659e-20)
(0.639139 -0.0213004 0)
(0.954547 0.127548 0)
(0.926506 0.0125167 1.19027e-20)
(1.10629 -0.0681632 7.22377e-21)
(1.28655 0.398918 -2.97691e-21)
(1.1221 -0.00349467 4.99781e-22)
(1.23704 -0.134752 -1.63196e-21)
(0.973303 0.195616 0)
(1.37008 0.425936 -3.27184e-20)
(0.654791 -0.0104175 0)
(0.802561 -0.0191428 -5.33993e-21)
(1.09893 -0.0292023 4.72061e-22)
(0.608779 0.0121339 0)
(1.10037 -0.00667141 0)
(0.0604436 0.305033 -3.34656e-20)
(1.25678 -0.263488 4.48934e-21)
(0.749787 -0.0138315 5.0875e-21)
(0.98996 -0.00558832 0)
(0.568423 -0.0118444 0)
(0.766063 -0.0155159 -5.47899e-21)
(0.562459 -0.0197794 -1.19089e-21)
(1.35805 -0.02723 2.83174e-22)
(1.28661 0.0699048 2.91744e-21)
(0.718644 0.017449 -1.87299e-21)
(1.21788 -0.0382718 2.31678e-22)
(1.20015 -0.133128 -4.70928e-22)
(0.552548 0.0138644 5.03695e-21)
(1.31592 -0.0922209 -9.81083e-22)
(1.20609 -0.164264 0)
(0.956239 -0.0520223 0)
(0.506749 0.0164473 0)
(1.07808 -0.0318114 0)
(1.17219 -0.0679464 -3.77327e-21)
(1.08926 -0.193381 0)
(1.19357 -0.0834706 0)
(0.927099 -0.164865 0)
(0.985668 0.0864069 0)
(-0.034357 -0.0500289 5.58651e-20)
(1.10938 -0.101249 2.35646e-21)
(0.831811 -0.072656 0)
(1.26331 -0.0480905 2.63258e-21)
(1.10635 -0.00792852 2.56356e-21)
(1.1157 0.053852 3.18597e-21)
(1.06572 -0.0836041 6.37358e-21)
(1.01113 -0.146498 0)
(0.575524 -0.0124756 1.10463e-20)
(1.05277 0.0413551 1.24432e-20)
(1.23337 -0.208362 0)
(1.23753 0.107702 8.31978e-22)
(1.15321 0.0946172 4.32912e-21)
(0.853136 0.279579 1.76352e-20)
(1.19565 0.00421183 4.7222e-21)
(1.09474 0.181637 -1.02423e-20)
(1.13278 0.23984 0)
(1.08453 0.119211 -2.09284e-20)
(1.21075 0.221785 4.42164e-22)
(0.677016 -0.27298 2.00984e-21)
(0.943669 -0.0921185 0)
(0.00302548 -0.0207472 0)
(0.968287 0.113021 -1.77172e-20)
(1.15504 0.0261208 0)
(1.19809 -0.124137 7.35453e-21)
(1.23564 0.117666 1.13494e-22)
(1.11911 0.163677 9.84603e-21)
(1.09806 0.102163 -4.1334e-21)
(1.30913 0.0456767 5.52971e-20)
(1.01896 -0.317439 5.37057e-20)
(1.0663 -0.053252 -6.57869e-22)
(0.888517 -0.180043 0)
(1.05398 0.194142 0)
(0.906204 0.00213986 -3.12909e-20)
(1.32543 -0.333509 -5.8754e-20)
(1.04587 0.0475423 0)
(0.644842 0.0958494 9.88406e-21)
(0.709757 0.3614 0)
(0.765096 -0.130254 3.87256e-21)
(0.666819 -0.03996 -1.2974e-20)
(0.822658 0.0172014 -7.67713e-21)
(1.05015 -0.104755 0)
(1.31332 0.226323 -1.32398e-22)
(1.23517 0.172454 -2.79168e-21)
(0.775045 -0.32795 -2.04796e-21)
(1.03778 0.0282124 -5.68143e-21)
(0.728761 -0.367455 0)
(1.09168 0.0634801 0)
(1.0692 -0.200925 1.04422e-20)
(0.809674 -0.279169 -3.91201e-21)
(1.23343 0.138606 -1.39108e-22)
(1.08174 0.0195594 -5.63691e-21)
(1.06849 0.0921999 -6.69276e-22)
(1.07971 0.0633579 0)
(0.449645 -0.143659 1.56859e-20)
(1.34368 0.0371371 -1.77945e-20)
(0.712527 -0.300674 -3.38344e-21)
(0.470931 0.0112725 -1.86483e-20)
(1.38515 -0.0739996 2.23625e-20)
(1.06991 -0.019514 9.70838e-20)
(1.10243 -0.0843699 -1.08001e-20)
(1.05478 -0.0406728 -2.07735e-22)
(-0.103393 0.0271199 -9.27961e-21)
(0.999623 -0.00700069 0)
(1.03477 -0.0850358 -1.57596e-20)
(0.832429 -0.0355776 1.7121e-20)
(1.10678 -0.0407911 8.89173e-21)
(0.907525 -0.303179 5.26366e-21)
(0.526461 -0.0222273 9.00846e-22)
(1.42564 -0.35745 -1.69133e-20)
(1.11742 -0.0286756 0)
(1.05745 -0.00853321 -2.58068e-21)
(1.14884 0.0131554 -3.83128e-21)
(1.06224 0.159479 0)
(0.800604 0.197879 -8.79303e-22)
(1.10785 0.0123262 5.21319e-21)
(0.864448 -0.234281 -1.2434e-20)
(1.10582 -0.058569 -1.22267e-20)
(0.832471 0.00662568 8.2762e-22)
(-0.0451742 0.080314 0)
(0.615365 -0.0542807 4.37846e-20)
(1.19475 -0.0154273 0)
(1.14444 0.222078 3.19896e-20)
(1.11852 0.328557 0)
(1.11654 -0.0328869 7.95694e-21)
(1.01453 0.0254481 0)
(0.931608 0.0471656 0)
(1.34347 -0.0613268 1.49711e-20)
(0.797693 -0.0824985 0)
(1.20128 0.0581148 -9.57075e-21)
(1.17209 -0.0170064 5.58868e-22)
(1.05762 0.00541027 4.60414e-21)
(1.2455 -0.187737 -6.88889e-21)
(1.25042 0.106666 -3.23125e-21)
(1.2997 -0.249614 -9.70357e-21)
(1.08313 -0.0334721 0)
(1.09125 -0.0122057 0)
(1.04263 0.0131271 3.35749e-21)
(1.18379 -0.0686612 0)
(1.43828 0.221546 -2.43068e-20)
(0.942048 -0.118914 -1.61879e-21)
(1.02765 0.0119351 2.44544e-20)
(1.24462 -0.0371571 3.21665e-23)
(-0.0123468 0.0331183 0)
(-0.0414213 -0.0587453 0)
(-0.0353639 0.303212 -4.26046e-20)
(-0.11406 0.0184069 0)
(0.784423 0.0541164 1.19026e-20)
(1.15641 0.0289656 -3.33554e-21)
(1.11057 0.0689206 -9.7828e-21)
(1.13074 -0.071957 -2.98932e-21)
(1.14058 -0.0843001 0)
(0.711625 -0.0274836 -3.99957e-21)
(1.067 0.0487406 0)
(1.10648 -0.0290258 2.65984e-21)
(0.554901 -0.109379 0)
(0.820954 0.154061 3.6843e-22)
(1.06251 0.0928163 0)
(1.22439 0.0363732 0)
(0.354836 -0.0396396 2.10245e-21)
(0.620161 0.399605 -4.17323e-22)
(0.77745 0.173557 6.81891e-21)
(1.00992 0.0183868 -9.85836e-21)
(0.280025 0.0441311 0)
(1.25072 -0.102768 1.15201e-20)
(1.26707 0.0760334 6.39464e-23)
(1.28152 -0.227611 9.38635e-22)
(0.579539 0.316441 6.80956e-21)
(-0.0675634 0.0628237 -1.09189e-19)
(1.13221 0.113284 0)
(-0.0275758 0.0322092 0)
(1.20348 0.115316 4.91849e-21)
(0.533708 0.401698 -7.32533e-21)
(1.20745 0.068902 -1.00809e-20)
(1.08908 -0.0299678 0)
(1.17887 0.0730671 7.55016e-21)
(1.18095 -0.271506 3.43357e-21)
(0.654843 -0.00548681 -1.19638e-20)
(1.11473 -0.0308228 -5.32459e-21)
(1.09073 -0.0285366 -7.70876e-22)
(0.279138 -0.439923 2.7843e-21)
(1.17282 0.0704081 -3.49921e-20)
(1.1468 0.0264546 0)
(1.10879 0.108735 0)
(1.09983 -0.0601136 -3.63223e-21)
(1.2364 0.0651986 -5.77896e-23)
(0.543008 -0.372013 -1.14749e-20)
(1.18596 -0.0981349 -1.39167e-20)
(1.13562 0.0642084 8.22662e-21)
(0.530478 0.0015997 1.95752e-20)
(0.0468857 0.138246 -1.40064e-20)
(0.57761 -0.397453 1.59932e-20)
(1.17581 0.183531 -6.57459e-21)
(1.24439 -0.482114 7.51043e-21)
(1.3262 -0.028882 -2.26275e-21)
(1.12403 -0.0521843 4.30455e-21)
(0.937551 -0.229167 9.25557e-20)
(-0.178998 -0.35435 0)
(1.26719 -0.0406076 1.25939e-21)
(0.123773 -0.319775 -1.36973e-20)
(1.18346 0.143053 -4.2561e-21)
(1.13744 -0.174331 4.37292e-21)
(1.08128 0.0257443 0)
(0.340484 0.12839 0)
(1.15539 -0.0439956 0)
(1.45776 0.219702 -1.32178e-20)
(1.22769 -0.0319975 -5.60053e-21)
(1.0942 -0.0356653 8.27742e-21)
(0.485249 0.0157579 0)
(0.647079 0.00627616 0)
(0.636552 -0.00220054 3.79058e-22)
(0.447464 -0.0101646 0)
(1.2467 0.106241 0)
(1.01809 -0.0127299 2.53634e-20)
(0.28874 0.0533647 0)
(0.939293 0.0531135 0)
(1.17235 0.0271754 0)
(1.17757 0.173033 -1.02394e-20)
(1.26176 0.0098365 3.54645e-22)
(0.947591 -0.0318603 1.10442e-20)
(1.33719 -0.389184 -1.26301e-19)
(0.304826 -0.169095 -5.10626e-21)
(1.0968 0.0560234 7.56969e-21)
(1.08373 0.227681 0)
(0.0760707 -0.64608 0)
(-0.21824 0.37746 0)
(1.11723 -0.0493564 7.17189e-21)
(1.32391 -0.264758 -3.51105e-20)
(1.38023 0.0237247 0)
(1.04949 0.0195167 -1.26125e-20)
(0.759688 -0.34131 0)
(1.4895 -0.10463 7.78943e-20)
(0.416769 0.528252 1.13971e-19)
(0.383039 -0.00704891 0)
(1.15038 -0.267144 1.35593e-19)
(-0.0261729 -0.228561 0)
(0.114974 -0.465591 -1.78975e-20)
(1.38435 0.0293589 0)
(-0.2473 0.240162 4.03376e-21)
(0.984481 -0.0520464 0)
(1.14499 -0.14274 -9.58228e-22)
(-0.181423 0.181822 -8.97517e-21)
(1.10301 -0.0443993 3.71596e-21)
(1.12635 0.218132 1.79873e-21)
(0.576261 -0.510182 -9.11758e-20)
(1.04033 0.0625373 -3.66703e-21)
(1.18399 -0.110244 3.82175e-21)
(1.18079 0.245926 -2.34569e-20)
(1.12789 -0.140154 9.89239e-21)
(1.13464 -0.046253 1.54379e-21)
(0.365714 -0.162439 -9.48934e-20)
(0.115141 0.21028 -7.30629e-21)
(1.17688 0.172272 4.6292e-21)
(1.05663 -0.0445251 0)
(0.641168 0.378817 -4.27708e-21)
(1.42788 -0.420036 9.76875e-20)
(1.03447 -0.0164561 -7.38227e-20)
(1.47827 0.149169 7.569e-20)
(1.07774 -0.0180796 9.1957e-21)
(1.08784 0.170189 2.92093e-20)
(1.05852 -0.0110226 0)
(1.16235 -0.0284232 0)
(1.09206 -0.0790484 -8.57213e-21)
(1.08715 -0.0206547 -4.46942e-21)
(1.00702 -0.186633 -1.01916e-20)
(1.08193 0.0677049 -9.22148e-21)
(1.33324 -0.0214157 -1.8776e-20)
(0.43337 0.0316707 0)
(1.04781 0.0627148 2.4671e-20)
(1.3044 -0.0560411 0)
(1.09348 0.0754516 -5.09976e-21)
(1.13927 0.0045229 0)
(1.0395 -0.00895092 1.42585e-20)
(1.23133 0.014123 9.75078e-21)
(0.958218 0.279053 0)
(0.0812541 -0.0236805 1.88864e-19)
(0.884028 -0.208438 -7.25923e-20)
(1.14218 0.00061021 -1.20673e-20)
(-0.150798 0.148916 4.4378e-20)
(1.18097 0.0213152 -3.56992e-23)
(0.75496 0.335104 4.62519e-21)
(-0.112108 0.174143 -4.62327e-20)
(-0.0246814 0.0781334 -2.83371e-20)
(1.02031 -0.0258453 0)
(-0.0353526 -0.0462184 0)
(1.12789 -0.107864 0)
(0.112882 -0.0986872 0)
(1.09551 -0.032336 0)
(0.194724 0.0440005 0)
(1.13061 0.0396532 0)
(1.16506 -0.104011 0)
(1.37062 0.14384 1.31964e-21)
(0.601982 -0.294203 -2.44042e-20)
(-0.0798207 0.301848 0)
(1.22244 -0.0337661 7.68244e-20)
(1.11597 0.0102729 7.09389e-21)
(1.08566 -0.0476516 0)
(-0.0347064 -0.0456131 0)
(1.15083 -0.0136543 -2.55421e-21)
(1.14927 -0.0360084 4.10334e-22)
(1.17341 0.391983 0)
(0.363033 0.00472033 7.8795e-20)
(1.12187 0.0503694 1.60368e-21)
(0.273378 -0.0509067 -6.26937e-20)
(-0.0610052 0.0363314 -2.99052e-20)
(-0.040715 0.050791 7.83726e-20)
(0.332673 -0.423203 3.12059e-20)
(0.911284 0.309279 -4.35156e-21)
(1.14689 0.0710452 -8.0213e-21)
(1.02289 -0.00935848 0)
(1.07086 -0.0586495 -2.12462e-20)
(1.26429 -0.00593088 -3.81184e-22)
(-0.0134975 0.00197727 1.09972e-19)
(0.97297 -0.0700919 -5.81237e-20)
(0.8261 0.364909 5.74188e-21)
(1.13454 0.115937 -4.77777e-22)
(0.11101 -0.0228586 4.26641e-20)
(0.292784 -0.0326565 -5.84273e-20)
(0.540632 0.0155035 -7.15456e-20)
(1.31498 0.214599 -6.04971e-21)
(-0.0494409 -0.0449059 0)
(1.13893 0.316733 -3.16196e-21)
(0.869078 0.0249269 4.9348e-20)
(1.017 -0.0439383 -4.75817e-20)
(1.17215 -0.018405 0)
(1.50681 -0.175365 8.52824e-20)
(1.15236 0.0571941 -2.63127e-21)
(-0.0217068 -0.0287022 -3.8068e-20)
(0.315077 0.126317 0)
(0.907386 0.0257708 -1.18653e-21)
(1.13013 0.0152556 2.24827e-21)
(1.12193 -0.423643 1.65801e-20)
(1.15297 -0.0189504 1.78255e-21)
(1.11869 0.0387476 0)
(1.21252 -0.144446 -1.80611e-20)
(-0.152901 0.11898 -7.86323e-20)
(1.25708 -0.0182101 7.68016e-21)
(1.10232 0.165881 -8.6225e-21)
(1.06342 0.0649801 1.05465e-20)
(-0.0473421 -0.0688756 1.90598e-20)
(-0.0166036 0.0370809 -6.29928e-20)
(0.477274 0.138525 0)
(0.544868 -0.168287 0)
(1.15376 0.0923815 -2.01504e-20)
(1.05299 0.0612112 1.43018e-20)
(1.08021 -0.015681 0)
(0.478821 0.234111 3.14729e-20)
(0.729042 0.0975437 -1.03754e-20)
(1.10131 0.105096 0)
(1.05619 0.0394102 0)
(1.19815 -0.0579888 0)
(1.27311 -0.0278562 0)
(1.03741 -0.0239038 4.63789e-21)
(-0.0437548 0.0422613 3.26588e-20)
(1.35133 0.0765314 7.45565e-22)
(1.43379 -0.119121 -9.39194e-20)
(1.11107 -0.100789 -7.85009e-21)
(0.236561 0.18362 0)
(1.01898 0.193937 0)
(0.638671 -0.00934761 -1.19035e-21)
(0.538878 0.0111632 -5.63159e-20)
(0.0666466 0.0387515 4.60798e-20)
(0.952661 0.00475676 2.5266e-21)
(0.786689 -0.277286 0)
(0.740925 -0.0846979 0)
(1.1004 -0.161316 0)
(0.546461 0.521876 2.16394e-20)
(-0.0128073 0.0436506 -3.10297e-20)
(0.988598 0.0589659 -7.85959e-21)
(-0.0295491 -0.0101664 7.36934e-20)
(1.11689 -0.0731327 3.02185e-21)
(1.17682 0.312202 4.47383e-20)
(1.10693 -0.0763065 8.81347e-21)
(0.676569 -0.0491865 1.23871e-19)
(1.0954 0.234862 3.05015e-21)
(0.937168 0.27008 0)
(0.563472 0.27487 0)
(0.866401 0.24893 8.48187e-23)
(-0.261383 0.293534 0)
(0.622529 0.0321573 3.77836e-21)
(0.619324 -0.425569 -3.62641e-21)
(0.236992 0.0507153 -1.09414e-19)
(1.13106 -0.212793 2.82139e-20)
(1.04127 0.370136 1.03309e-20)
(0.984396 0.0198228 0)
(1.28004 0.00228581 -8.53578e-22)
(0.663455 0.0126792 0)
(1.01765 -0.00957144 -4.68715e-22)
(0.523923 -0.000213685 0)
(0.718572 0.137489 0)
(0.98731 -0.0273964 -7.61208e-21)
(1.4546 0.164508 -1.31881e-20)
(1.07559 -0.0765304 5.3999e-21)
(0.530565 -0.49814 0)
(1.13168 -0.14295 1.83639e-21)
(0.812014 0.387884 7.11775e-20)
(-0.046701 0.0174371 1.10201e-21)
(1.1986 -0.0772983 6.57268e-21)
(1.21302 0.0105988 -7.00678e-21)
(1.12336 -0.181132 7.2387e-22)
(0.811965 0.0135309 -7.8748e-21)
(0.0554254 0.0207161 3.52701e-20)
(-0.0215897 0.0446138 -6.13056e-20)
(-0.196462 0.32094 0)
(-0.0732634 0.375153 0)
(1.2067 -0.611227 3.60389e-20)
(1.12829 -0.0313327 -1.50639e-21)
(0.919759 -0.472127 -4.96279e-20)
(1.1525 0.330661 4.28979e-21)
(1.38565 0.195181 3.16718e-20)
(0.610087 0.426702 0)
(0.249271 0.424287 -1.14671e-19)
(0.602767 0.493978 0)
(0.190999 0.195955 0)
(1.128 -0.464555 0)
(-0.047672 0.13971 1.65929e-22)
(1.17807 -0.0197821 0)
(0.887894 -0.160427 -2.38449e-20)
(0.603833 0.705614 2.07202e-20)
(1.36863 0.0552112 1.29816e-20)
(-0.038326 -0.0419017 -1.38251e-19)
(0.871232 0.0330349 -5.25752e-20)
(0.454218 0.146396 -1.32348e-20)
(1.20741 0.0696644 0)
(1.37453 0.358793 3.18181e-20)
(1.23464 0.575497 5.73861e-21)
(0.150435 -0.0176844 -2.04081e-20)
(1.01529 0.150527 2.85456e-20)
(0.972886 -0.0287783 1.43004e-21)
(0.920805 0.00422308 -5.13391e-22)
(0.0280996 -0.0213488 0)
(0.649524 -0.648147 -2.9779e-20)
(0.617664 0.211661 0)
(0.0982683 0.0577435 0)
(-0.0423216 0.0547003 0)
(-0.0100085 0.0104579 -5.26312e-20)
(1.22784 -0.0431487 -7.63559e-21)
(-0.0299806 0.0749246 0)
(-0.0267871 0.0753916 0)
(1.46736 0.115904 -7.17406e-20)
(-0.0286695 -0.0641666 6.26425e-20)
(0.116269 0.241811 -1.01108e-19)
(0.383407 0.0187453 0)
(0.17061 -0.273738 8.13939e-20)
(1.15237 -0.229585 0)
(0.994593 -0.274786 0)
(0.0151262 -0.0120172 1.30668e-19)
(1.14299 0.0196788 -2.41986e-22)
(1.1259 0.346981 2.94427e-20)
(0.256729 0.0302166 4.47442e-20)
(0.406741 -0.519831 -3.54963e-20)
(1.35491 0.0675307 0)
(1.23535 0.204988 2.06573e-20)
(1.23276 0.213803 -2.53737e-20)
(0.103442 0.0966562 -2.34999e-20)
(-0.0684533 0.143122 0)
(1.06819 -0.0527247 -1.86288e-20)
(1.10067 -0.210208 -1.39681e-20)
(0.585627 -0.396993 0)
(1.09655 -0.142481 -2.51538e-20)
(0.0371138 0.357859 0)
(0.60668 0.0617417 0)
(1.31135 -0.0428853 5.56433e-21)
(0.986264 0.0205823 4.95014e-22)
(1.09133 0.757592 -1.65678e-20)
(0.226143 -0.378039 1.31014e-19)
(1.10003 0.0540821 -1.32444e-21)
(1.20726 0.0653976 -1.86853e-21)
(-0.0413763 0.126212 2.97493e-20)
(0.797366 0.744336 2.8318e-20)
(1.35654 -0.337045 -1.5186e-20)
(-0.249821 0.059055 3.79222e-20)
(1.19744 0.0202662 0)
(0.514795 0.107509 -1.08995e-20)
(0.918514 -0.641701 3.27113e-21)
(0.90993 0.650188 -1.96419e-20)
(0.636301 -0.0124442 -7.83599e-20)
(1.13052 -0.0193922 -1.13106e-20)
(1.07418 -0.0793317 7.13997e-21)
(1.16995 0.0613944 3.12091e-21)
(1.10792 0.115838 5.79364e-21)
(1.13246 -0.114267 0)
(0.920241 0.113643 1.31168e-20)
(0.894316 0.464364 0)
(1.40172 0.124006 4.49658e-21)
(1.17029 0.1008 2.3052e-21)
(0.755801 0.266934 0)
(0.519398 0.111884 1.04361e-19)
(0.904429 0.724488 -6.10572e-22)
(1.07763 0.28906 -2.26113e-20)
(1.03965 -0.00706844 1.30314e-20)
(0.420973 0.505991 0)
(1.30641 -0.452382 0)
(1.04228 -0.180019 8.41939e-21)
(1.27547 0.511185 0)
(-0.0298171 0.0529316 -3.89694e-20)
(1.29051 -0.398573 -1.65555e-20)
(1.17708 0.518101 0)
(0.456876 0.230088 1.69723e-19)
(1.1334 0.322236 -1.15738e-19)
(0.81641 -0.631561 -2.47559e-20)
(1.18037 0.0433534 2.00287e-21)
(0.923389 0.156207 7.74176e-20)
(1.0885 0.166782 5.65436e-20)
(1.08258 0.714864 6.51192e-22)
(0.906687 -0.430386 6.28812e-20)
(1.45385 0.167223 3.62922e-20)
(1.1228 -0.00724673 -1.7345e-21)
(0.0341739 -0.0411446 1.19699e-19)
(1.09442 -0.698626 3.39202e-20)
(0.876415 -0.71618 4.97567e-20)
(0.25231 -0.322209 0)
(0.972721 -0.146111 7.17677e-20)
(0.366618 0.322042 -4.40564e-19)
(-0.176734 0.354688 2.13945e-20)
(0.226795 0.0585448 1.97106e-20)
(0.754798 -0.0467786 -9.08861e-20)
(1.09011 0.539539 0)
(0.985674 0.221037 8.35141e-20)
(1.08669 0.0256073 4.37814e-21)
(0.922754 0.452549 -9.17632e-20)
(0.792183 -0.728186 -7.84041e-21)
(0.936422 0.0256594 -4.90611e-20)
(0.987331 0.499291 0)
(1.30875 0.0883409 -8.20395e-21)
(1.39287 -0.495974 1.57884e-20)
(1.22792 -0.321385 1.13756e-20)
(-0.0513064 0.26016 4.51796e-20)
(0.196229 0.0182624 -1.8228e-20)
(0.973935 -0.116098 -5.78307e-20)
(0.359141 0.539332 0)
(0.928424 0.018589 3.9092e-20)
(1.16794 0.645658 7.73515e-20)
(-0.135077 0.155571 1.68888e-19)
(-0.0487679 0.161635 -2.50419e-20)
(-0.112941 0.0776678 4.63281e-20)
(1.09791 0.0133247 -5.98451e-21)
(1.1649 -0.459208 0)
(1.07215 -0.725917 -3.7228e-20)
(0.705634 0.359308 0)
(0.0196591 0.167353 -1.25028e-19)
(1.08474 0.0475618 5.0509e-21)
(-0.0463967 0.00983376 -3.43576e-20)
(1.04997 0.0524977 -1.22308e-20)
(0.0941076 0.0245474 5.05599e-20)
(0.851902 0.132905 0)
(1.26696 -0.01432 1.83541e-20)
(0.0524047 0.0829395 -2.238e-20)
(-0.132203 0.363428 -5.3694e-20)
(-0.276654 0.385415 0)
(0.132225 0.00178486 0)
(1.24795 -0.0334328 -5.80627e-21)
(0.446476 0.00151826 1.88792e-19)
(1.28063 -0.718114 -3.0852e-20)
(1.12624 -0.259878 4.95064e-20)
(1.07056 0.248097 -3.25606e-20)
(0.369335 -0.553219 1.39585e-19)
(1.57233 0.282651 -3.1871e-20)
(0.122631 -0.0170063 4.69577e-20)
(0.211364 0.320468 1.96465e-19)
(0.170594 -0.00167984 -1.74516e-19)
(0.945309 -0.484898 -4.25782e-20)
(1.46831 0.393737 3.23354e-20)
(0.570662 -0.675697 4.82536e-20)
(1.10391 -0.0722936 -7.38538e-21)
(0.28956 0.25127 6.71845e-20)
(1.19295 0.298302 -4.53874e-20)
(0.670041 0.653078 -4.05898e-20)
(1.36221 -0.615414 0)
(1.43288 0.528771 3.25555e-20)
(1.05726 -0.519477 -1.28869e-20)
(1.40389 0.616479 -9.58925e-20)
(1.18166 0.00677422 0)
(-0.0481278 0.0953542 0)
(1.26607 0.741176 0)
(1.32266 -0.00253665 4.69262e-22)
(0.743599 -0.296068 -2.05801e-19)
(0.481241 -0.0737331 0)
(-0.0403241 0.138127 -2.51957e-20)
(1.02512 -0.239389 9.59458e-20)
(-0.181516 0.134405 0)
(0.324202 0.0371366 1.23157e-20)
(1.15067 0.0253839 0)
(1.43065 0.281781 0)
(1.19495 0.0398415 -2.14489e-21)
(0.363746 -0.283177 0)
(1.01101 0.146956 3.96945e-20)
(1.32008 0.290303 0)
(-0.0453408 0.190393 8.47526e-22)
(0.814481 -0.389795 0)
(1.53416 0.340183 -4.81773e-20)
(1.24343 0.373796 2.59848e-21)
(0.852256 0.66003 -9.86303e-21)
(1.0079 0.153252 -9.20894e-20)
(0.965465 -0.197982 -4.66105e-20)
(1.46853 0.296337 2.83793e-20)
(1.03586 0.138885 0)
(0.567388 -0.0640913 0)
)
;

boundaryField
{
    FrontBack
    {
        type            empty;
    }
    Top
    {
        type            noSlip;
    }
    In
    {
        type            fixedValue;
        value           uniform (1 0 0);
    }
    Bottom
    {
        type            noSlip;
    }
    Out
    {
        type            zeroGradient;
    }
    circle
    {
        type            noSlip;
    }
}


// ************************************************************************* //
