/*--------------------------------*- C++ -*----------------------------------*\
| =========                 |                                                 |
| \\      /  F ield         | OpenFOAM: The Open Source CFD Toolbox           |
|  \\    /   O peration     | Version:  2412                                  |
|   \\  /    A nd           | Website:  www.openfoam.com                      |
|    \\/     M anipulation  |                                                 |
\*---------------------------------------------------------------------------*/
FoamFile
{
    version     2.0;
    format      ascii;
    arch        "LSB;label=32;scalar=64";
    class       volVectorField;
    location    "0.9";
    object      cellDisplacement;
}
// * * * * * * * * * * * * * * * * * * * * * * * * * * * * * * * * * * * * * //

dimensions      [0 1 0 0 0 0 0];

internalField   nonuniform List<vector> 
256
(
(-0.0219373 0.00249464 0)
(-0.0221528 -0.000876445 0)
(-0.02082 -0.00385404 0)
(-0.0181845 -0.00586777 0)
(-0.0147042 -0.00660983 0)
(-0.0108559 -0.00608149 0)
(-0.00698433 -0.00451678 0)
(-0.00326029 -0.00228022 0)
(-0.0650557 0.00619151 0)
(-0.0653849 -0.00323847 0)
(-0.0618315 -0.0115179 0)
(-0.0549549 -0.0173065 0)
(-0.045785 -0.0198593 0)
(-0.0355731 -0.0191685 0)
(-0.0250178 -0.0156247 0)
(-0.0145754 -0.00996318 0)
(-0.106173 0.00850308 0)
(-0.106225 -0.00621946 0)
(-0.100707 -0.0190641 0)
(-0.090503 -0.028254 0)
(-0.0770829 -0.0328389 0)
(-0.0618887 -0.0326696 0)
(-0.0460489 -0.0282485 0)
(-0.0300761 -0.0203892 0)
(-0.145415 0.00948995 0)
(-0.144917 -0.00987807 0)
(-0.137723 -0.026723 0)
(-0.125015 -0.0390615 0)
(-0.10837 -0.0457849 0)
(-0.089408 -0.046672 0)
(-0.0695271 -0.0422625 0)
(-0.0492013 -0.0333211 0)
(-0.182977 0.0091443 0)
(-0.181757 -0.0143415 0)
(-0.173152 -0.0347482 0)
(-0.158506 -0.0500103 0)
(-0.139486 -0.058956 0)
(-0.117788 -0.0613277 0)
(-0.0949395 -0.0576442 0)
(-0.0714022 -0.0486272 0)
(-0.218971 0.00741301 0)
(-0.216904 -0.0197501 0)
(-0.207149 -0.0433847 0)
(-0.190995 -0.0613886 0)
(-0.170262 -0.0726138 0)
(-0.14672 -0.0768387 0)
(-0.121808 -0.0744539 0)
(-0.0960436 -0.0662133 0)
(-0.25357 0.00416818 0)
(-0.2506 -0.0263202 0)
(-0.239756 -0.052872 0)
(-0.222461 -0.0734742 0)
(-0.200588 -0.0870724 0)
(-0.175839 -0.0933992 0)
(-0.149632 -0.0928087 0)
(-0.122532 -0.0861162 0)
(-0.286895 -0.000773374 0)
(-0.28291 -0.0342572 0)
(-0.271066 -0.0634917 0)
(-0.252924 -0.0866195 0)
(-0.230292 -0.102633 0)
(-0.204866 -0.111314 0)
(-0.17799 -0.112961 0)
(-0.15019 -0.108414 0)
(-0.319012 -0.00767753 0)
(-0.313868 -0.0438589 0)
(-0.301105 -0.075584 0)
(-0.282298 -0.101162 0)
(-0.259212 -0.119693 0)
(-0.233471 -0.130939 0)
(-0.206366 -0.135199 0)
(-0.178384 -0.133336 0)
(-0.349833 -0.0168501 0)
(-0.343453 -0.0554763 0)
(-0.329824 -0.0895543 0)
(-0.310483 -0.117567 0)
(-0.287113 -0.138681 0)
(-0.261257 -0.152706 0)
(-0.234213 -0.159911 0)
(-0.20635 -0.161222 0)
(-0.379325 -0.0287836 0)
(-0.371615 -0.0696292 0)
(-0.357108 -0.105936 0)
(-0.337265 -0.136355 0)
(-0.313652 -0.160157 0)
(-0.287748 -0.177162 0)
(-0.260804 -0.187644 0)
(-0.233206 -0.192575 0)
(-0.407316 -0.0440972 0)
(-0.398117 -0.0869316 0)
(-0.38265 -0.125339 0)
(-0.362253 -0.158178 0)
(-0.338357 -0.184803 0)
(-0.312277 -0.205054 0)
(-0.28525 -0.219112 0)
(-0.257734 -0.228023 0)
(-0.433264 -0.0635689 0)
(-0.422374 -0.108067 0)
(-0.405782 -0.148457 0)
(-0.384656 -0.183756 0)
(-0.360266 -0.213403 0)
(-0.333789 -0.237174 0)
(-0.306272 -0.255218 0)
(-0.278226 -0.268545 0)
(-0.456205 -0.0880266 0)
(-0.443401 -0.133885 0)
(-0.425439 -0.176118 0)
(-0.403244 -0.213934 0)
(-0.377861 -0.246807 0)
(-0.350324 -0.274462 0)
(-0.321566 -0.296987 0)
(-0.29199 -0.315203 0)
(-0.474038 -0.117977 0)
(-0.4591 -0.164618 0)
(-0.439472 -0.208373 0)
(-0.415787 -0.248636 0)
(-0.388759 -0.284922 0)
(-0.359118 -0.316968 0)
(-0.327593 -0.344695 0)
(-0.294489 -0.368541 0)
(-0.481517 -0.151345 0)
(-0.464364 -0.197813 0)
(-0.442739 -0.242376 0)
(-0.41685 -0.284605 0)
(-0.386946 -0.324093 0)
(-0.353316 -0.360459 0)
(-0.316284 -0.393355 0)
(-0.276205 -0.422462 0)
(-0.00328647 -0.00217742 0)
(-0.00602829 -0.00424712 0)
(-0.00809884 -0.00646215 0)
(-0.00943033 -0.00895014 0)
(-0.0099359 -0.0117531 0)
(-0.00950056 -0.0147647 0)
(-0.0080577 -0.0177352 0)
(-0.00564355 -0.0202431 0)
(-0.0144391 -0.00982669 0)
(-0.0214645 -0.0158751 0)
(-0.0264519 -0.0224166 0)
(-0.0292765 -0.0297202 0)
(-0.0297082 -0.0377634 0)
(-0.0275307 -0.046196 0)
(-0.022644 -0.0542562 0)
(-0.0152998 -0.0608779 0)
(-0.0294019 -0.0204274 0)
(-0.0393318 -0.0301837 0)
(-0.0459372 -0.0407959 0)
(-0.0491247 -0.0525863 0)
(-0.0485626 -0.0653982 0)
(-0.0439516 -0.078522 0)
(-0.0352621 -0.0907093 0)
(-0.0230795 -0.100495 0)
(-0.0477269 -0.0338942 0)
(-0.0591824 -0.0470941 0)
(-0.0662177 -0.061551 0)
(-0.0687388 -0.0774956 0)
(-0.0663215 -0.0945147 0)
(-0.0586888 -0.111579 0)
(-0.0459616 -0.127034 0)
(-0.0290445 -0.138941 0)
(-0.0688506 -0.0501153 0)
(-0.0805743 -0.0665742 0)
(-0.0869089 -0.0846154 0)
(-0.0877987 -0.104306 0)
(-0.0827867 -0.124985 0)
(-0.0716351 -0.145227 0)
(-0.0547278 -0.163129 0)
(-0.033231 -0.176297 0)
(-0.0922387 -0.0690746 0)
(-0.103025 -0.0885901 0)
(-0.107606 -0.10994 0)
(-0.106003 -0.132971 0)
(-0.0977296 -0.156675 0)
(-0.0826852 -0.179371 0)
(-0.0614767 -0.198821 0)
(-0.0356277 -0.212536 0)
(-0.117249 -0.0907448 0)
(-0.126042 -0.113188 0)
(-0.127922 -0.137549 0)
(-0.123027 -0.163428 0)
(-0.110909 -0.189536 0)
(-0.0916596 -0.213908 0)
(-0.0661208 -0.234088 0)
(-0.0361359 -0.247763 0)
(-0.143255 -0.115231 0)
(-0.148994 -0.140367 0)
(-0.147342 -0.167437 0)
(-0.138456 -0.195668 0)
(-0.122005 -0.223455 0)
(-0.0983042 -0.248677 0)
(-0.0684885 -0.268896 0)
(-0.0346231 -0.281983 0)
(-0.16951 -0.142653 0)
(-0.171253 -0.170275 0)
(-0.165244 -0.19962 0)
(-0.151736 -0.229561 0)
(-0.130564 -0.258307 0)
(-0.1023 -0.283637 0)
(-0.0683223 -0.303247 0)
(-0.03081 -0.315329 0)
(-0.195206 -0.173308 0)
(-0.192036 -0.203079 0)
(-0.180926 -0.234182 0)
(-0.162251 -0.265168 0)
(-0.136066 -0.294072 0)
(-0.103213 -0.318768 0)
(-0.0652368 -0.337162 0)
(-0.024394 -0.347715 0)
(-0.219344 -0.207568 0)
(-0.210385 -0.239095 0)
(-0.193484 -0.271334 0)
(-0.169193 -0.302556 0)
(-0.137821 -0.330791 0)
(-0.100428 -0.354019 0)
(-0.0587258 -0.3705 0)
(-0.0148825 -0.379027 0)
(-0.240608 -0.24604 0)
(-0.224999 -0.278762 0)
(-0.201663 -0.311315 0)
(-0.171384 -0.3418 0)
(-0.134817 -0.368337 0)
(-0.093127 -0.389176 0)
(-0.048066 -0.40303 0)
(-0.00164967 -0.409085 0)
(-0.256998 -0.289497 0)
(-0.233893 -0.322558 0)
(-0.203614 -0.354291 0)
(-0.167252 -0.382756 0)
(-0.125687 -0.406373 0)
(-0.0801491 -0.423853 0)
(-0.0322555 -0.434332 0)
(0.0162296 -0.437417 0)
(-0.265417 -0.33878 0)
(-0.233984 -0.370814 0)
(-0.196549 -0.400021 0)
(-0.154417 -0.424762 0)
(-0.108537 -0.444009 0)
(-0.0600495 -0.457041 0)
(-0.0102142 -0.46341 0)
(0.0395815 -0.463041 0)
(-0.260787 -0.394115 0)
(-0.220821 -0.422713 0)
(-0.177005 -0.446749 0)
(-0.130356 -0.465559 0)
(-0.081574 -0.47882 0)
(-0.0314622 -0.48631 0)
(0.0190929 -0.487938 0)
(0.069208 -0.483771 0)
(-0.233467 -0.4475 0)
(-0.18848 -0.468229 0)
(-0.141678 -0.484449 0)
(-0.0935114 -0.496003 0)
(-0.0444443 -0.50278 0)
(0.00505078 -0.504716 0)
(0.0544972 -0.50179 0)
(0.103419 -0.494032 0)
)
;

boundaryField
{
    walls
    {
        type            cellMotion;
        value           uniform (0 0 0);
    }
    cylinder
    {
        type            cellMotion;
        value           nonuniform List<vector> 
16
(
(-0.481517 -0.151345 0)
(-0.464364 -0.197813 0)
(-0.442739 -0.242376 0)
(-0.41685 -0.284605 0)
(-0.386946 -0.324093 0)
(-0.353316 -0.360459 0)
(-0.316284 -0.393355 0)
(-0.276205 -0.422462 0)
(-0.233467 -0.4475 0)
(-0.18848 -0.468229 0)
(-0.141678 -0.484449 0)
(-0.0935114 -0.496003 0)
(-0.0444443 -0.50278 0)
(0.00505078 -0.504716 0)
(0.0544972 -0.50179 0)
(0.103419 -0.494032 0)
)
;
    }
    outlet
    {
        type            cellMotion;
        value           nonuniform List<vector> 0();
    }
    inlet
    {
        type            cellMotion;
        value           uniform (0 0 0);
    }
    frontAndBack
    {
        type            empty;
    }
    procBoundary2to0
    {
        type            processor;
        value           nonuniform List<vector> 
16
(
(-0.00251811 -0.0218804 0)
(-0.00626141 -0.0649577 0)
(-0.0086155 -0.105998 0)
(-0.00963342 -0.145232 0)
(-0.00932044 -0.182746 0)
(-0.00759833 -0.218757 0)
(-0.0043713 -0.253337 0)
(0.00058922 -0.286701 0)
(0.00749282 -0.318821 0)
(0.016712 -0.349694 0)
(0.0286616 -0.379209 0)
(0.0440369 -0.407243 0)
(0.0635398 -0.433219 0)
(0.0880468 -0.456183 0)
(0.117995 -0.474029 0)
(0.151345 -0.481517 0)
)
;
    }
    procBoundary2to3
    {
        type            processor;
        value           nonuniform List<vector> 
16
(
(-0.0202645 0.00561428 0)
(-0.0609968 0.0152205 0)
(-0.100647 0.0229551 0)
(-0.139164 0.0288792 0)
(-0.176522 0.0330411 0)
(-0.212797 0.0354104 0)
(-0.247996 0.0359211 0)
(-0.282223 0.0343989 0)
(-0.315521 0.0306173 0)
(-0.347891 0.0242105 0)
(-0.37915 0.0147526 0)
(-0.409177 0.00154671 0)
(-0.437469 -0.0162684 0)
(-0.463066 -0.0395881 0)
(-0.483777 -0.0691964 0)
(-0.494032 -0.103419 0)
)
;
    }
}


// ************************************************************************* //
