/*--------------------------------*- C++ -*----------------------------------*\
| =========                 |                                                 |
| \\      /  F ield         | OpenFOAM: The Open Source CFD Toolbox           |
|  \\    /   O peration     | Version:  2412                                  |
|   \\  /    A nd           | Website:  www.openfoam.com                      |
|    \\/     M anipulation  |                                                 |
\*---------------------------------------------------------------------------*/
FoamFile
{
    version     2.0;
    format      ascii;
    arch        "LSB;label=32;scalar=64";
    class       surfaceScalarField;
    location    "0.9";
    object      meshPhi;
}
// * * * * * * * * * * * * * * * * * * * * * * * * * * * * * * * * * * * * * //

dimensions      [0 3 -1 0 0 0 0];

internalField   nonuniform List<scalar> 
480
(
0.00107743
-0.00147013
0.00108432
-0.000986784
0.00102355
-0.000372972
0.000920937
0.000198915
0.000803697
0.000626499
0.000669509
0.000888941
0.000455475
0.000982495
0.000945414
0.000293019
0.00313485
-0.00263045
0.0031553
-0.00174465
0.00297769
-0.000692547
0.00270417
0.000304881
0.00239527
0.0010863
0.00201729
0.00157053
0.00141501
0.0017307
0.00158778
0.00092264
0.00503134
-0.00352421
0.00506431
-0.00233114
0.00478021
-0.000957594
0.00440587
0.000363507
0.00395809
0.0014019
0.00337969
0.00204609
0.00248068
0.00225253
0.00202684
0.00171438
0.00682998
-0.0040968
0.00688394
-0.00267899
0.00650052
-0.00111352
0.0060715
0.000428608
0.00550746
0.00165105
0.00476803
0.00238713
0.00365406
0.00260146
0.00233367
0.002749
0.00845833
-0.0044431
0.00855008
-0.00289713
0.00816622
-0.00120874
0.00772203
0.000502034
0.00708747
0.00184811
0.00622799
0.00263405
0.00496094
0.00283832
0.00255377
0.0040358
0.00980935
-0.00460571
0.00992302
-0.00290252
0.00975483
-0.00113153
0.00934858
0.000615884
0.00870956
0.0019913
0.00778822
0.002792
0.00643855
0.00299432
0.00272179
0.00556739
0.0111299
-0.00462353
0.0112336
-0.00276119
0.0112892
-0.000924026
0.0109581
0.000768255
0.0103489
0.00208364
0.00943035
0.00286532
0.00811028
0.0030864
0.00287286
0.00737751
0.0126576
-0.00445273
0.012762
-0.00249172
0.0128664
-0.000665692
0.0125895
0.000914556
0.0120152
0.00212566
0.0111838
0.00288887
0.0100195
0.00315764
0.00303832
0.00954515
0.0142543
-0.00412225
0.0144092
-0.00209989
0.0145572
-0.000335945
0.0143122
0.00106819
0.0137838
0.002143
0.0131192
0.00287977
0.0122426
0.00320696
0.00318767
0.0121248
0.015788
-0.00372011
0.0159538
-0.00168199
0.0162121
-8.2287e-05
0.0161097
0.00104787
0.0157206
0.00199935
0.0153197
0.00279787
0.0148728
0.003221
0.00327068
0.0151841
0.0173127
-0.00336768
0.0173623
-0.00147936
0.0176324
-2.37616e-05
0.0178275
0.00103148
0.0178453
0.00197482
0.0178774
0.0027611
0.0179769
0.0031748
0.00319424
0.0188007
0.0189431
-0.00282349
0.0189389
-0.00125886
0.0191911
9.31976e-05
0.0197077
0.00119194
0.0202858
0.00207225
0.0208676
0.00269318
0.0215638
0.00298137
0.0029371
0.0229174
0.0206837
-0.001948
0.020849
-0.000741988
0.0212948
0.000373323
0.0221138
0.00130121
0.0231563
0.00199186
0.0242988
0.00243983
0.0255761
0.00263633
0.002601
0.0273828
0.0223934
-0.000824798
0.022824
-1.97837e-05
0.0236005
0.000734209
0.0247616
0.00136343
0.0262251
0.00182995
0.0279289
0.00214106
0.029799
0.00230547
0.00231303
0.0320296
0.0237722
0.000407586
0.0244488
0.000782484
0.0255496
0.00112509
0.0270679
0.00142209
0.0289546
0.00166422
0.0311703
0.00185296
0.0335988
0.00198431
0.00204376
0.0361948
0.0221318
0.0230425
0.0243486
0.0260008
0.0279425
0.0301102
0.0324008
0.0346851
0.000245422
-0.000668226
0.000287978
-0.00111494
0.000382206
-0.00176306
0.00050007
-0.00232615
0.000614279
-0.00272397
0.000720058
-0.00286766
0.000819042
-0.00271847
-0.00225214
0.000806014
-0.00167272
0.000998596
-0.00252613
0.00125458
-0.00369472
0.00156
-0.0045703
0.0018779
-0.00512799
0.00217291
-0.005286
0.00245842
-0.00494196
-0.00406546
0.00156923
-0.00305134
0.00192364
-0.00414813
0.00231186
-0.00559626
0.00274706
-0.00666592
0.00320594
-0.00728312
0.00364547
-0.00736216
0.0040894
-0.00679652
-0.00553054
0.00259568
-0.00465778
0.00304523
-0.00586621
0.00354996
-0.00741484
0.00408808
-0.00855315
0.00462719
-0.00911737
0.00516383
-0.00902479
0.00571644
-0.00819168
-0.00657324
0.00390654
-0.00636278
0.00442895
-0.00765736
0.00500961
-0.0091843
0.00561037
-0.010259
0.0061818
-0.0106943
0.00676099
-0.0103819
0.00735399
-0.00926341
-0.00730342
0.00549805
-0.0080095
0.00612617
-0.00936202
0.00673657
-0.0108258
0.00733198
-0.0117288
0.00788747
-0.01193
0.00844268
-0.0113458
0.00899683
-0.00992281
-0.00770614
0.00738832
-0.00954754
0.00813051
-0.0108955
0.00872338
-0.0122062
0.00925573
-0.01287
0.00974474
-0.0128041
0.0102037
-0.0119402
0.010649
-0.0102495
-0.0078482
0.00960667
-0.0108928
0.0103851
-0.0121217
0.0109281
-0.0131909
0.0113502
-0.0135778
0.0117098
-0.0132202
0.0120179
-0.0121049
0.0123166
-0.0102142
-0.0076907
0.0121337
-0.011929
0.012842
-0.0129395
0.0132814
-0.013677
0.0135418
-0.0137394
0.013724
-0.0130968
0.0138597
-0.011789
0.0140132
-0.00980855
-0.00726597
0.0150062
-0.0126357
0.0154915
-0.0133264
0.0157549
-0.0136483
0.0158062
-0.0133776
0.0157698
-0.0124855
0.0157301
-0.0110592
0.0157476
-0.00910172
-0.00666426
0.0183234
-0.0129289
0.0184283
-0.0133112
0.0183817
-0.0131614
0.0181454
-0.0125034
0.017845
-0.0113871
0.0176015
-0.00987988
0.0174816
-0.00802649
-0.00586579
0.0221097
-0.012446
0.0217217
-0.0125897
0.0211815
-0.0120052
0.0205675
-0.0109899
0.0199627
-0.00970123
0.019487
-0.00820663
0.0191982
-0.00653769
-0.00471033
0.0261791
-0.0107552
0.0252142
-0.010673
0.0241048
-0.00983563
0.0230279
-0.00866456
0.0220894
-0.0073717
0.0213689
-0.00604129
0.0208808
-0.00463946
-0.00319852
0.0303008
-0.0076771
0.0286629
-0.00743792
0.0269533
-0.00656256
0.0253832
-0.00553245
0.0241032
-0.00450615
0.0231339
-0.00351141
0.0224879
-0.00252542
-0.0015516
0.0338397
-0.00311287
0.0314141
-0.00285221
0.0291374
-0.00234938
0.0271747
-0.00182926
0.0256128
-0.00133362
0.0244653
-0.000860209
0.0237516
-0.000399434
5.21493e-05
0.0317257
0.0289357
0.026537
0.0245909
0.0231218
0.0221413
0.021653
)
;

boundaryField
{
    walls
    {
        type            calculated;
        value           uniform 0;
    }
    cylinder
    {
        type            calculated;
        value           nonuniform List<scalar> 
16
(
4.9233e-12
-6.05114e-12
-2.0079e-12
3.64855e-12
-1.02809e-11
7.44463e-12
1.15296e-11
-5.83909e-12
5.83515e-12
-1.15331e-11
-7.44862e-12
1.02774e-11
-3.65136e-12
2.00446e-12
6.04672e-12
-4.92786e-12
)
;
    }
    outlet
    {
        type            calculated;
        value           nonuniform List<scalar> 0();
    }
    inlet
    {
        type            calculated;
        value           uniform 0;
    }
    frontAndBack
    {
        type            empty;
    }
    procBoundary2to0
    {
        type            processor;
        value           nonuniform List<scalar> 
16
(
0.000922497
0.00275979
0.00454714
0.0062676
0.00791317
0.00949385
0.0110596
0.0126421
0.014243
0.0158595
0.0174678
0.0190705
0.0206729
0.0222283
0.0235035
0.0216515
)
;
    }
    procBoundary2to3
    {
        type            processor;
        value           nonuniform List<scalar> 
16
(
-0.000957817
-0.00284349
-0.00464678
-0.00635887
-0.00797971
-0.00952751
-0.0110543
-0.0126
-0.0141704
-0.0157682
-0.0173825
-0.0190133
-0.020663
-0.0222615
-0.0235292
-0.0216555
)
;
    }
}


// ************************************************************************* //
