/*--------------------------------*- C++ -*----------------------------------*\
| =========                 |                                                 |
| \\      /  F ield         | OpenFOAM: The Open Source CFD Toolbox           |
|  \\    /   O peration     | Version:  2412                                  |
|   \\  /    A nd           | Website:  www.openfoam.com                      |
|    \\/     M anipulation  |                                                 |
\*---------------------------------------------------------------------------*/
FoamFile
{
    version     2.0;
    format      ascii;
    arch        "LSB;label=32;scalar=64";
    class       pointVectorField;
    location    "0.9";
    object      pointDisplacement;
}
// * * * * * * * * * * * * * * * * * * * * * * * * * * * * * * * * * * * * * //

dimensions      [0 1 0 0 0 0 0];

internalField   nonuniform List<vector> 
578
(
(0 0 0)
(0 0 0)
(0 0 0)
(0 0 0)
(0 0 0)
(0 0 0)
(0 0 0)
(0 0 0)
(0 0 0)
(-0.0421029 0.0074092 0)
(-0.043691 0.00115814 0)
(-0.0426163 -0.00487442 0)
(-0.039015 -0.00965569 0)
(-0.0334604 -0.0124387 0)
(-0.0267611 -0.0129558 0)
(-0.019614 -0.0113617 0)
(-0.0124407 -0.00809072 0)
(-0.00866911 -0.00591089 0)
(-0.0832595 0.0132414 0)
(-0.0857645 0.00131977 0)
(-0.0835988 -0.0100141 0)
(-0.0770599 -0.0190523 0)
(-0.0671346 -0.0245895 0)
(-0.0551221 -0.0261608 0)
(-0.0421554 -0.0239501 0)
(-0.0289385 -0.0185696 0)
(-0.0218419 -0.0149567 0)
(-0.122893 0.0174745 0)
(-0.125734 0.00047932 0)
(-0.122448 -0.0154771 0)
(-0.113541 -0.0282909 0)
(-0.100294 -0.036507 0)
(-0.0842316 -0.0395177 0)
(-0.0667531 -0.0374903 0)
(-0.0487448 -0.0310821 0)
(-0.0387788 -0.0267779 0)
(-0.161062 0.0201499 0)
(-0.163814 -0.00139575 0)
(-0.159435 -0.0214305 0)
(-0.148647 -0.0376502 0)
(-0.132892 -0.0484733 0)
(-0.113809 -0.0532106 0)
(-0.0929576 -0.052006 0)
(-0.0713156 -0.0454992 0)
(-0.0589486 -0.0412315 0)
(-0.197859 0.0212573 0)
(-0.200195 -0.00438723 0)
(-0.194783 -0.0280657 0)
(-0.182493 -0.0473969 0)
(-0.164856 -0.0607606 0)
(-0.14361 -0.0674582 0)
(-0.120359 -0.0675961 0)
(-0.0961064 -0.0617743 0)
(-0.0817792 -0.0582273 0)
(-0.233374 0.020728 0)
(-0.23505 -0.00862949 0)
(-0.22864 -0.0355927 0)
(-0.215128 -0.0577933 0)
(-0.196117 -0.0736542 0)
(-0.173396 -0.0825034 0)
(-0.148546 -0.0844044 0)
(-0.122567 -0.0799384 0)
(-0.106668 -0.0777392 0)
(-0.267709 0.0184238 0)
(-0.268529 -0.0143057 0)
(-0.261116 -0.0442472 0)
(-0.246586 -0.0691271 0)
(-0.226603 -0.0874652 0)
(-0.202937 -0.0986252 0)
(-0.177127 -0.102648 0)
(-0.150149 -0.100113 0)
(-0.132978 -0.0998145 0)
(-0.300948 0.0141323 0)
(-0.300703 -0.021654 0)
(-0.292266 -0.0543102 0)
(-0.276878 -0.0817262 0)
(-0.256214 -0.102541 0)
(-0.231998 -0.116163 0)
(-0.205715 -0.122629 0)
(-0.178291 -0.122511 0)
(-0.160036 -0.124586 0)
(-0.333097 0.00756225 0)
(-0.331569 -0.0309794 0)
(-0.322088 -0.0661305 0)
(-0.305953 -0.0959777 0)
(-0.284806 -0.119288 0)
(-0.260297 -0.135521 0)
(-0.233865 -0.144711 0)
(-0.206381 -0.147445 0)
(-0.187103 -0.1523 0)
(-0.364079 -0.00168328 0)
(-0.36108 -0.0426993 0)
(-0.350521 -0.0801606 0)
(-0.333692 -0.112363 0)
(-0.312154 -0.1382 0)
(-0.287472 -0.157189 0)
(-0.261039 -0.169373 0)
(-0.233688 -0.175358 0)
(-0.213316 -0.183335 0)
(-0.393768 -0.0141637 0)
(-0.389114 -0.0573755 0)
(-0.377391 -0.0969701 0)
(-0.359838 -0.13146 0)
(-0.337903 -0.15988 0)
(-0.313034 -0.181802 0)
(-0.286548 -0.197254 0)
(-0.259285 -0.206849 0)
(-0.237568 -0.21822 0)
(-0.421829 -0.0306182 0)
(-0.415284 -0.0756818 0)
(-0.402245 -0.117208 0)
(-0.38385 -0.153938 0)
(-0.361401 -0.185038 0)
(-0.336193 -0.210111 0)
(-0.309421 -0.229143 0)
(-0.2819 -0.242722 0)
(-0.2583 -0.257704 0)
(-0.447519 -0.0518879 0)
(-0.438824 -0.0984034 0)
(-0.42426 -0.14164 0)
(-0.404792 -0.180569 0)
(-0.381521 -0.214473 0)
(-0.355578 -0.242956 0)
(-0.328009 -0.265952 0)
(-0.29954 -0.28397 0)
(-0.273136 -0.302707 0)
(-0.469285 -0.0787296 0)
(-0.458194 -0.126148 0)
(-0.44186 -0.17076 0)
(-0.420994 -0.211768 0)
(-0.396425 -0.248569 0)
(-0.369032 -0.280777 0)
(-0.339672 -0.308258 0)
(-0.308939 -0.331323 0)
(-0.278215 -0.35392 0)
(-0.48335 -0.110547 0)
(-0.469759 -0.157988 0)
(-0.451422 -0.203334 0)
(-0.428716 -0.246028 0)
(-0.402092 -0.28559 0)
(-0.372045 -0.321636 0)
(-0.33909 -0.3539 0)
(-0.303656 -0.382304 0)
(-0.266263 -0.408144 0)
(-0.488952 -0.127689 0)
(-0.474082 -0.175 0)
(-0.454646 -0.220625 0)
(-0.430831 -0.264126 0)
(-0.402868 -0.305083 0)
(-0.371025 -0.343102 0)
(-0.335608 -0.377817 0)
(-0.29696 -0.408893 0)
(-0.255451 -0.436031 0)
(0 0 0)
(0 0 0)
(0 0 0)
(0 0 0)
(0 0 0)
(0 0 0)
(0 0 0)
(0 0 0)
(0 0 0)
(-0.0421029 0.0074092 0)
(-0.043691 0.00115814 0)
(-0.0426163 -0.00487442 0)
(-0.039015 -0.00965569 0)
(-0.0334604 -0.0124387 0)
(-0.0267611 -0.0129558 0)
(-0.019614 -0.0113617 0)
(-0.0124407 -0.00809072 0)
(-0.00866911 -0.00591089 0)
(-0.0832595 0.0132414 0)
(-0.0857645 0.00131977 0)
(-0.0835988 -0.0100141 0)
(-0.0770599 -0.0190523 0)
(-0.0671346 -0.0245895 0)
(-0.0551221 -0.0261608 0)
(-0.0421554 -0.0239501 0)
(-0.0289385 -0.0185696 0)
(-0.0218419 -0.0149567 0)
(-0.122893 0.0174745 0)
(-0.125734 0.00047932 0)
(-0.122448 -0.0154771 0)
(-0.113541 -0.0282909 0)
(-0.100294 -0.036507 0)
(-0.0842316 -0.0395177 0)
(-0.0667531 -0.0374903 0)
(-0.0487448 -0.0310821 0)
(-0.0387788 -0.0267779 0)
(-0.161062 0.0201499 0)
(-0.163814 -0.00139575 0)
(-0.159435 -0.0214305 0)
(-0.148647 -0.0376502 0)
(-0.132892 -0.0484733 0)
(-0.113809 -0.0532106 0)
(-0.0929576 -0.052006 0)
(-0.0713156 -0.0454992 0)
(-0.0589486 -0.0412315 0)
(-0.197859 0.0212573 0)
(-0.200195 -0.00438723 0)
(-0.194783 -0.0280657 0)
(-0.182493 -0.0473969 0)
(-0.164856 -0.0607606 0)
(-0.14361 -0.0674582 0)
(-0.120359 -0.0675961 0)
(-0.0961064 -0.0617743 0)
(-0.0817792 -0.0582273 0)
(-0.233374 0.020728 0)
(-0.23505 -0.00862949 0)
(-0.22864 -0.0355927 0)
(-0.215128 -0.0577933 0)
(-0.196117 -0.0736542 0)
(-0.173396 -0.0825034 0)
(-0.148546 -0.0844044 0)
(-0.122567 -0.0799384 0)
(-0.106668 -0.0777392 0)
(-0.267709 0.0184238 0)
(-0.268529 -0.0143057 0)
(-0.261116 -0.0442472 0)
(-0.246586 -0.0691271 0)
(-0.226603 -0.0874652 0)
(-0.202937 -0.0986252 0)
(-0.177127 -0.102648 0)
(-0.150149 -0.100113 0)
(-0.132978 -0.0998145 0)
(-0.300948 0.0141323 0)
(-0.300703 -0.021654 0)
(-0.292266 -0.0543102 0)
(-0.276878 -0.0817262 0)
(-0.256214 -0.102541 0)
(-0.231998 -0.116163 0)
(-0.205715 -0.122629 0)
(-0.178291 -0.122511 0)
(-0.160036 -0.124586 0)
(-0.333097 0.00756225 0)
(-0.331569 -0.0309794 0)
(-0.322088 -0.0661305 0)
(-0.305953 -0.0959777 0)
(-0.284806 -0.119288 0)
(-0.260297 -0.135521 0)
(-0.233865 -0.144711 0)
(-0.206381 -0.147445 0)
(-0.187103 -0.1523 0)
(-0.364079 -0.00168328 0)
(-0.36108 -0.0426993 0)
(-0.350521 -0.0801606 0)
(-0.333692 -0.112363 0)
(-0.312154 -0.1382 0)
(-0.287472 -0.157189 0)
(-0.261039 -0.169373 0)
(-0.233688 -0.175358 0)
(-0.213316 -0.183335 0)
(-0.393768 -0.0141637 0)
(-0.389114 -0.0573755 0)
(-0.377391 -0.0969701 0)
(-0.359838 -0.13146 0)
(-0.337903 -0.15988 0)
(-0.313034 -0.181802 0)
(-0.286548 -0.197254 0)
(-0.259285 -0.206849 0)
(-0.237568 -0.21822 0)
(-0.421829 -0.0306182 0)
(-0.415284 -0.0756818 0)
(-0.402245 -0.117208 0)
(-0.38385 -0.153938 0)
(-0.361401 -0.185038 0)
(-0.336193 -0.210111 0)
(-0.309421 -0.229143 0)
(-0.2819 -0.242722 0)
(-0.2583 -0.257704 0)
(-0.447519 -0.0518879 0)
(-0.438824 -0.0984034 0)
(-0.42426 -0.14164 0)
(-0.404792 -0.180569 0)
(-0.381521 -0.214473 0)
(-0.355578 -0.242956 0)
(-0.328009 -0.265952 0)
(-0.29954 -0.28397 0)
(-0.273136 -0.302707 0)
(-0.469285 -0.0787296 0)
(-0.458194 -0.126148 0)
(-0.44186 -0.17076 0)
(-0.420994 -0.211768 0)
(-0.396425 -0.248569 0)
(-0.369032 -0.280777 0)
(-0.339672 -0.308258 0)
(-0.308939 -0.331323 0)
(-0.278215 -0.35392 0)
(-0.48335 -0.110547 0)
(-0.469759 -0.157988 0)
(-0.451422 -0.203334 0)
(-0.428716 -0.246028 0)
(-0.402092 -0.28559 0)
(-0.372045 -0.321636 0)
(-0.33909 -0.3539 0)
(-0.303656 -0.382304 0)
(-0.266263 -0.408144 0)
(-0.488952 -0.127689 0)
(-0.474082 -0.175 0)
(-0.454646 -0.220625 0)
(-0.430831 -0.264126 0)
(-0.402868 -0.305083 0)
(-0.371025 -0.343102 0)
(-0.335608 -0.377817 0)
(-0.29696 -0.408893 0)
(-0.255451 -0.436031 0)
(0 0 0)
(0 0 0)
(0 0 0)
(0 0 0)
(0 0 0)
(0 0 0)
(0 0 0)
(0 0 0)
(-0.0112812 -0.00800603 0)
(-0.0155055 -0.012229 0)
(-0.0183229 -0.016869 0)
(-0.0196073 -0.0220323 0)
(-0.019197 -0.0276113 0)
(-0.0169672 -0.033241 0)
(-0.0129462 -0.0382971 0)
(-0.00745973 -0.0420288 0)
(-0.0261539 -0.0190598 0)
(-0.0333043 -0.027303 0)
(-0.0377145 -0.0363668 0)
(-0.0391925 -0.0463576 0)
(-0.0374688 -0.0569675 0)
(-0.0323808 -0.0674298 0)
(-0.0241032 -0.0766085 0)
(-0.0133379 -0.0831238 0)
(-0.0439196 -0.0328861 0)
(-0.0526854 -0.0448961 0)
(-0.0575282 -0.0580986 0)
(-0.0582156 -0.0724943 0)
(-0.0544132 -0.0875067 0)
(-0.0459983 -0.101976 0)
(-0.0333645 -0.114324 0)
(-0.017611 -0.122709 0)
(-0.064103 -0.049408 0)
(-0.0732471 -0.0649525 0)
(-0.0774451 -0.0819876 0)
(-0.076443 -0.100326 0)
(-0.0698907 -0.119086 0)
(-0.057783 -0.136763 0)
(-0.0407635 -0.151384 0)
(-0.0203187 -0.160847 0)
(-0.0862001 -0.0685785 0)
(-0.0945611 -0.0874272 0)
(-0.0971124 -0.107958 0)
(-0.0936133 -0.12974 0)
(-0.083741 -0.15158 0)
(-0.0676573 -0.171664 0)
(-0.046282 -0.187733 0)
(-0.0214497 -0.197626 0)
(-0.109673 -0.0903895 0)
(-0.116186 -0.112317 0)
(-0.116176 -0.135976 0)
(-0.109452 -0.160664 0)
(-0.0957758 -0.184894 0)
(-0.075507 -0.206579 0)
(-0.0498505 -0.22334 0)
(-0.0209331 -0.233138 0)
(-0.133925 -0.114874 0)
(-0.137615 -0.139639 0)
(-0.134224 -0.16603 0)
(-0.123633 -0.19304 0)
(-0.105746 -0.218922 0)
(-0.0811591 -0.241428 0)
(-0.0513463 -0.258221 0)
(-0.0186305 -0.267484 0)
(-0.158296 -0.142124 0)
(-0.15825 -0.169433 0)
(-0.150732 -0.198087 0)
(-0.135721 -0.226772 0)
(-0.113315 -0.253552 0)
(-0.0843634 -0.276152 0)
(-0.0505596 -0.292402 0)
(-0.0143287 -0.300744 0)
(-0.182047 -0.172323 0)
(-0.177407 -0.201802 0)
(-0.165075 -0.232154 0)
(-0.145181 -0.261808 0)
(-0.118051 -0.288734 0)
(-0.0847712 -0.310743 0)
(-0.0471837 -0.325901 0)
(-0.00773716 -0.332923 0)
(-0.204289 -0.20576 0)
(-0.194248 -0.236942 0)
(-0.176496 -0.268339 0)
(-0.151354 -0.298184 0)
(-0.11939 -0.324454 0)
(-0.0818966 -0.345153 0)
(-0.0407973 -0.358637 0)
(0.00153995 -0.363941 0)
(-0.223879 -0.242868 0)
(-0.207669 -0.275153 0)
(-0.183957 -0.306788 0)
(-0.153316 -0.335915 0)
(-0.116546 -0.360627 0)
(-0.0750743 -0.379223 0)
(-0.030813 -0.390444 0)
(0.0140598 -0.393667 0)
(-0.239166 -0.284223 0)
(-0.216071 -0.316768 0)
(-0.185993 -0.347587 0)
(-0.149784 -0.374867 0)
(-0.108431 -0.396983 0)
(-0.0633778 -0.412638 0)
(-0.0164115 -0.420997 0)
(0.0305605 -0.421763 0)
(-0.247607 -0.330432 0)
(-0.217024 -0.361971 0)
(-0.180454 -0.390516 0)
(-0.138953 -0.414533 0)
(-0.0935755 -0.432869 0)
(-0.0456335 -0.444697 0)
(0.00336659 -0.449577 0)
(0.0518743 -0.447483 0)
(-0.245261 -0.381655 0)
(-0.207069 -0.410151 0)
(-0.164542 -0.434348 0)
(-0.11867 -0.453352 0)
(-0.0703518 -0.466594 0)
(-0.0206075 -0.473709 0)
(0.02946 -0.474562 0)
(0.0787407 -0.469269 0)
(-0.225784 -0.433304 0)
(-0.181869 -0.455677 0)
(-0.13551 -0.473299 0)
(-0.0873501 -0.485869 0)
(-0.0379982 -0.493209 0)
(0.011889 -0.495221 0)
(0.0616326 -0.491901 0)
(0.110555 -0.483346 0)
(-0.211483 -0.45897 0)
(-0.165477 -0.477489 0)
(-0.117878 -0.491409 0)
(-0.0691443 -0.500597 0)
(-0.0197443 -0.504964 0)
(0.0298459 -0.504468 0)
(0.0791486 -0.499113 0)
(0.127689 -0.488952 0)
(0 0 0)
(0 0 0)
(0 0 0)
(0 0 0)
(0 0 0)
(0 0 0)
(0 0 0)
(0 0 0)
(-0.0112812 -0.00800603 0)
(-0.0155055 -0.012229 0)
(-0.0183229 -0.016869 0)
(-0.0196073 -0.0220323 0)
(-0.019197 -0.0276113 0)
(-0.0169672 -0.033241 0)
(-0.0129462 -0.0382971 0)
(-0.00745973 -0.0420288 0)
(-0.0261539 -0.0190598 0)
(-0.0333043 -0.027303 0)
(-0.0377145 -0.0363668 0)
(-0.0391925 -0.0463576 0)
(-0.0374688 -0.0569675 0)
(-0.0323808 -0.0674298 0)
(-0.0241032 -0.0766085 0)
(-0.0133379 -0.0831238 0)
(-0.0439196 -0.0328861 0)
(-0.0526854 -0.0448961 0)
(-0.0575282 -0.0580986 0)
(-0.0582156 -0.0724943 0)
(-0.0544132 -0.0875067 0)
(-0.0459983 -0.101976 0)
(-0.0333645 -0.114324 0)
(-0.017611 -0.122709 0)
(-0.064103 -0.049408 0)
(-0.0732471 -0.0649525 0)
(-0.0774451 -0.0819876 0)
(-0.076443 -0.100326 0)
(-0.0698907 -0.119086 0)
(-0.057783 -0.136763 0)
(-0.0407635 -0.151384 0)
(-0.0203187 -0.160847 0)
(-0.0862001 -0.0685785 0)
(-0.0945611 -0.0874272 0)
(-0.0971124 -0.107958 0)
(-0.0936133 -0.12974 0)
(-0.083741 -0.15158 0)
(-0.0676573 -0.171664 0)
(-0.046282 -0.187733 0)
(-0.0214497 -0.197626 0)
(-0.109673 -0.0903895 0)
(-0.116186 -0.112317 0)
(-0.116176 -0.135976 0)
(-0.109452 -0.160664 0)
(-0.0957758 -0.184894 0)
(-0.075507 -0.206579 0)
(-0.0498505 -0.22334 0)
(-0.0209331 -0.233138 0)
(-0.133925 -0.114874 0)
(-0.137615 -0.139639 0)
(-0.134224 -0.16603 0)
(-0.123633 -0.19304 0)
(-0.105746 -0.218922 0)
(-0.0811591 -0.241428 0)
(-0.0513463 -0.258221 0)
(-0.0186305 -0.267484 0)
(-0.158296 -0.142124 0)
(-0.15825 -0.169433 0)
(-0.150732 -0.198087 0)
(-0.135721 -0.226772 0)
(-0.113315 -0.253552 0)
(-0.0843634 -0.276152 0)
(-0.0505596 -0.292402 0)
(-0.0143287 -0.300744 0)
(-0.182047 -0.172323 0)
(-0.177407 -0.201802 0)
(-0.165075 -0.232154 0)
(-0.145181 -0.261808 0)
(-0.118051 -0.288734 0)
(-0.0847712 -0.310743 0)
(-0.0471837 -0.325901 0)
(-0.00773716 -0.332923 0)
(-0.204289 -0.20576 0)
(-0.194248 -0.236942 0)
(-0.176496 -0.268339 0)
(-0.151354 -0.298184 0)
(-0.11939 -0.324454 0)
(-0.0818966 -0.345153 0)
(-0.0407973 -0.358637 0)
(0.00153995 -0.363941 0)
(-0.223879 -0.242868 0)
(-0.207669 -0.275153 0)
(-0.183957 -0.306788 0)
(-0.153316 -0.335915 0)
(-0.116546 -0.360627 0)
(-0.0750743 -0.379223 0)
(-0.030813 -0.390444 0)
(0.0140598 -0.393667 0)
(-0.239166 -0.284223 0)
(-0.216071 -0.316768 0)
(-0.185993 -0.347587 0)
(-0.149784 -0.374867 0)
(-0.108431 -0.396983 0)
(-0.0633778 -0.412638 0)
(-0.0164115 -0.420997 0)
(0.0305605 -0.421763 0)
(-0.247607 -0.330432 0)
(-0.217024 -0.361971 0)
(-0.180454 -0.390516 0)
(-0.138953 -0.414533 0)
(-0.0935755 -0.432869 0)
(-0.0456335 -0.444697 0)
(0.00336659 -0.449577 0)
(0.0518743 -0.447483 0)
(-0.245261 -0.381655 0)
(-0.207069 -0.410151 0)
(-0.164542 -0.434348 0)
(-0.11867 -0.453352 0)
(-0.0703518 -0.466594 0)
(-0.0206075 -0.473709 0)
(0.02946 -0.474562 0)
(0.0787407 -0.469269 0)
(-0.225784 -0.433304 0)
(-0.181869 -0.455677 0)
(-0.13551 -0.473299 0)
(-0.0873501 -0.485869 0)
(-0.0379982 -0.493209 0)
(0.011889 -0.495221 0)
(0.0616326 -0.491901 0)
(0.110555 -0.483346 0)
(-0.211483 -0.45897 0)
(-0.165477 -0.477489 0)
(-0.117878 -0.491409 0)
(-0.0691443 -0.500597 0)
(-0.0197443 -0.504964 0)
(0.0298459 -0.504468 0)
(0.0791486 -0.499113 0)
(0.127689 -0.488952 0)
)
;

boundaryField
{
    walls
    {
        type            fixedValue;
        value           uniform (0 0 0);
    }
    cylinder
    {
        type            solidBodyMotionDisplacement;
        value           nonuniform List<vector> 
34
(
(-0.488952 -0.127689 0)
(-0.488952 -0.127689 0)
(-0.474082 -0.175 0)
(-0.474082 -0.175 0)
(-0.454646 -0.220625 0)
(-0.454646 -0.220625 0)
(-0.430831 -0.264126 0)
(-0.430831 -0.264126 0)
(-0.402868 -0.305083 0)
(-0.402868 -0.305083 0)
(-0.371025 -0.343102 0)
(-0.371025 -0.343102 0)
(-0.335608 -0.377817 0)
(-0.335608 -0.377817 0)
(-0.29696 -0.408893 0)
(-0.29696 -0.408893 0)
(-0.255451 -0.436031 0)
(-0.255451 -0.436031 0)
(-0.211483 -0.45897 0)
(-0.211483 -0.45897 0)
(-0.165477 -0.477489 0)
(-0.165477 -0.477489 0)
(-0.117878 -0.491409 0)
(-0.117878 -0.491409 0)
(-0.0691443 -0.500597 0)
(-0.0691443 -0.500597 0)
(-0.0197443 -0.504964 0)
(-0.0197443 -0.504964 0)
(0.0298459 -0.504468 0)
(0.0298459 -0.504468 0)
(0.0791486 -0.499113 0)
(0.0791486 -0.499113 0)
(0.127689 -0.488952 0)
(0.127689 -0.488952 0)
)
;
        solidBodyMotionFunction oscillatingRotatingMotion;
        oscillatingRotatingMotionCoeffs
        {
            origin          ( 0 0 0 );
            axis            ( 0 0 1 );
            omega           1.5;
            amplitude       ( 0 0 30 );
        }
    }
    outlet
    {
        type            fixedValue;
        value           nonuniform List<vector> 0();
    }
    inlet
    {
        type            fixedValue;
        value           uniform (0 0 0);
    }
    frontAndBack
    {
        type            empty;
    }
    procBoundary2to0
    {
        type            processor;
    }
    procBoundary2to3
    {
        type            processor;
    }
}


// ************************************************************************* //
