/*--------------------------------*- C++ -*----------------------------------*\
| =========                 |                                                 |
| \\      /  F ield         | OpenFOAM: The Open Source CFD Toolbox           |
|  \\    /   O peration     | Version:  2412                                  |
|   \\  /    A nd           | Website:  www.openfoam.com                      |
|    \\/     M anipulation  |                                                 |
\*---------------------------------------------------------------------------*/
FoamFile
{
    version     2.0;
    format      ascii;
    arch        "LSB;label=32;scalar=64";
    class       surfaceScalarField;
    location    "794";
    object      phi;
}
// * * * * * * * * * * * * * * * * * * * * * * * * * * * * * * * * * * * * * //

dimensions      [0 3 -1 0 0 0 0];

oriented        oriented;

internalField   nonuniform List<scalar> 
1171
(
-0.9278967139536083
0.9278967139516966
0.7873170144488747
-1.099003372418992
0.3116863579503796
-0.1919216880997308
-0.7675589969366872
0.9594806850600043
0.07210329570628744
-0.1178010488644044
-0.2121455167541874
0.3299465656952735
-0.7873170223834403
0.06929203440844364
0.7180249879749643
0.8107531939270896
-0.1777062217889599
-0.6330469721240712
0.873955304386436
-1.043792847426984
0.1698375430411124
-0.284997703869731
-0.09836703566448085
0.3833647395343138
-0.03647870552035035
0.5486396326271843
-0.5121609271076474
-0.5090618719526627
0.8293761788747041
-0.3203143069544261
-0.4027987573092874
1.045534790421843
-0.171579493299138
0.3937351819550701
0.05066260268365386
-0.444397784536014
1.046137655085193
-0.0006028662622654083
0.4460034304305928
-0.0522682403770446
1.056581490858548
-0.01044383995620707
0.5801777210775086
-0.7720994117529394
-0.7240562094150843
0.5567440130289503
0.1673121963908061
0.214729422036973
-0.7237912935725974
0.549683629916497
-0.922420205034874
0.3727365751312971
-1.094227930231705
0.686602932160741
0.4076249980755303
-0.5954880908021785
0.5590093909414409
0.0171310316344579
-0.2556436833251606
0.2385126516393211
-0.0229555350508057
-0.5250194201887205
0.5479749554102963
0.4000236428809433
-0.4983906809853292
-0.9188897585741277
0.9416785306611162
-0.02278877209306893
1.067892237890275
-0.01131074919431162
0.9350490706500528
-1.116846060294669
0.1817969896514205
1.067436187656737
0.0004560480107706909
-0.6642841456384609
-0.05977205466193929
1.262044738562664
-0.8644550769063639
-0.3975896616534298
0.1485464263964391
-0.1098637344764381
-0.3251505259759729
0.4350142604451223
-0.2855268873162231
0.1919948147220436
0.09353207260915286
-0.5835607053580768
-0.5154426613394105
1.01414525519509
-0.07909618272444266
0.009872462083553768
0.8254936918114198
-0.8353661539021137
0.5716836503608628
0.6903610833456856
0.4387759037955943
-0.03115489362285873
0.4311785356024225
-0.8080013352717571
-0.1025982697312958
0.9105996050090729
0.5023638446274988
0.2541345521863312
-0.756498396820696
0.005044287468265846
0.5312130105775328
-0.5362572979626634
-0.4900112638578751
-0.6042166717835966
-0.4228176006734622
-0.6940284605957143
-0.02750222347650218
0.2708696160152414
-0.2433673925645551
-0.9248967650593323
-0.005181095259696831
0.9300778603129782
0.3080584560685594
0.07530628197706503
0.7617223535233977
0.04903084288931749
-0.5328966101617729
-0.06259147591988663
0.04610120465452874
-0.8541025464389994
0.07724484598107906
0.8622469503866776
-0.9394917963742141
-0.347080847287168
-0.04056250155779081
0.3876433487892573
-0.682253890911271
-0.2426428741085657
-0.633629344250077
0.7108741893063761
0.6128489396972066
0.2165272397775536
-0.543315808692596
0.9459067870576123
-0.7790505734898953
-0.1668562135771738
0.01326653492009843
-0.005082299314932016
-0.008184235674642016
-0.4033325999928084
-0.09505807920533305
-0.2417768728621237
0.8546258161769837
0.04859291027973375
0.3334002915000888
-0.3819932017976687
-0.4616570677757338
0.9640209123012228
0.6803507123207523
-0.7829489884444376
0.3180932141369213
-0.01454804176747637
-0.3035451725885928
0.9306918311742292
-0.9306918311752702
-0.7819713756924773
0.1115186247543094
-0.3236641453510443
-0.7499672713942398
0.7598397348336929
-0.09126734071165077
-0.1429326300404924
0.2341999707000124
0.8648637599830435
-0.03937006756672211
1.054635082170208
-0.800500530544149
0.1866947936671024
-0.3163812961723587
0.1296865025423983
0.8584307973642902
-0.09670844454932047
-0.6113657221297372
-0.0393559515514161
0.6507216736769359
0.1234993968892157
-0.2304037526221763
0.1069043557277151
0.8055254652573517
-0.9832316862194929
-0.434164677110434
0.3290408454174292
0.1051238317449634
0.5335283888768627
-0.5564839269830594
1.022022267437374
-0.4562596142097172
-0.5657626532344027
0.5992046765896408
-0.7192628262151977
0.0664316094031125
0.6528312168218209
0.1019324033850484
0.5698044136218352
0.0549085279622985
-0.6247129415778014
0.19501326368913
-0.08349464381498008
-0.4921273945022214
0.145046547288846
0.05030503962277383
-0.8864978661823507
0.8361928265639682
-0.4743568265464562
-0.7131865044556727
0.04890236217831909
0.4367282761836002
-0.005549738182466054
0.3001169070805703
-0.8553077927198471
0.5551908856273182
0.4157581658198743
0.5842418341880492
0.5606220932201934
-0.5145208906562051
-0.3666861187622136
0.03951322478640183
0.3271728938326016
0.6812612189084645
0.2494306082554807
-0.5677837875470277
0.5728280830288939
0.1115777497231002
0.8748175065650298
0.01028294617968353
-0.6216486627664403
-0.7491039724021871
0.7994090174023912
0.5304484707028081
0.07101048142586416
0.3002909790625196
-0.3713014604704257
-0.1674996218544008
0.4450878661250392
0.08612512512952812
0.8737239863451751
-0.8031171951980964
-0.07060679115219345
0.6354726596888438
0.3104341299762748
-0.4308348204383091
0.5743152905185447
-0.50330480959458
0.4170336419039982
0.1326499911050798
-0.04678122835135692
-0.5901406943356524
-0.1395653446472991
0.7297060389910636
-0.149690171350697
-0.7810016641939513
-0.6110594532458269
0.3601589837534934
0.2509004694693959
0.6220358925182252
-0.6117529435470788
0.2386792293048819
1.011733181937567
0.04290190316371879
-0.749103973226377
0.2234108097150298
-0.2101442794630538
0.6803507085683141
0.8019295958355759
-0.801929595843561
0.8375954866836786
-0.8331033914714022
-0.004492095213214595
-0.445334729825041
0.8610928964450861
-0.147421568952172
-0.3447058204739226
0.7347727663323639
-0.6685757393571541
-0.06619702697462111
-0.7358783818907771
0.1457376929116474
0.1391495859949377
-0.6720461925764752
0.7829489847608785
-0.9504486066150182
-0.3667967933787138
0.2859832313322234
0.08081356176039327
0.1456989413707879
-1.009994846577829
0.8642959052086524
0.4806125134292504
-0.04183660963549228
-0.3080690532223985
0.5862243764977737
-0.2781553232692278
-0.7385354327531104
0.8842343715949074
-0.1570146741300636
0.7326000277175959
-0.8368202153096841
0.1042201875591443
0.9775666539395756
-0.5396233691259327
-0.4379432848232513
0.7551483644300161
-0.06490463594342319
-0.035703899719083
0.1854096835996582
-0.1497057838149491
-0.7757779764326572
-0.8395271839019156
0.07196818558276871
-0.7499672701368862
0.5139554250763551
-0.5545179242672974
0.09811359279062107
0.7159805637715567
-0.8140941565621254
0.7535960598931856
0.1743006547549498
0.5029251347061559
0.4970748652933581
-0.05511801245150466
-0.6096362883001827
0.6647543008383912
0.8789924358411743
-0.005268450952254597
-0.7551483644292257
0.7994090199013218
0.1916348768770717
-0.4472785583007455
0.01295372632566054
0.003054235864817065
-0.01600796211482924
0.5892572154211101
-0.437482740902883
-0.1517744744854596
0.7180249926910746
0.01171766251673497
-0.1069271560813135
0.4387542528986216
0.1505029636301552
-0.01499465139028635
-0.007757598074309766
0.0227522494432248
-0.03212322715156155
-0.003580655832554259
0.2457427050858014
-0.2602907502022915
-0.9589442732118291
0.0017383323195454
-0.1595352533097173
-0.1210540797799392
0.09471170660636785
0.7222440385191438
0.7289340405546662
-0.1446922066026772
0.6701202461120095
-0.5720066520706533
-0.2119673010446577
0.3986620911431635
0.6956335278727469
0.02239146481639197
0.2417997269180571
-1.074903110542371
-0.9504486108588619
0.3025087218723937
0.7598397342042364
-0.2093253465534352
0.0663927171484196
-0.723982369170282
0.9101266317352305
-0.1861442625745865
0.415935718927767
-0.02829237287065307
0.7712881961123217
0.2807371722804508
0.3764531535384901
0.0695502675777043
-0.6587150184053342
0.6587150184058151
0.2148303591539915
0.6957692390616578
-0.05623031292183005
0.3896305939232149
0.3787839506455943
-0.01238806207411686
0.02534179203667029
0.4483962776844621
0.0322162417786433
-0.7385354341423802
0.5339782463532434
0.2007945252190482
0.3003990380213197
-0.1149893615971526
-0.6956335313701252
0.1794969515670035
0.7306296788729736
-0.01027619300660507
-0.8135776539694665
0.8238538469792358
0.6964166046862648
-0.7919466134374794
0.09553000875908098
-0.7535960620872819
-0.1511467131140794
0.2123533484762399
-0.06120663534794522
0.07757979887217697
-0.1781624418723242
-0.1134000754264208
0.2915625174048355
-0.005397788762370824
-0.009596854408187718
0.7064831304417223
-0.7167593247485068
0.8869707705644156
0.07250991126169742
-0.3152426914671332
-0.520647211547973
0.8358899030352916
0.1040605710526782
-0.104060570914124
0.3254964716893373
0.4732592350194662
0.6156181655411396
-1.088877400576227
-0.1940770925620039
-0.5855858523940535
0.7796629449575283
0.01368003930266268
0.2205199297575914
0.3762097917586268
-0.2527103939243021
1.015956180958768
-0.5426969475838004
0.6684815492014919
0.9933483015714913
-0.3777301364437922
0.2287882253341101
0.8842343707921301
0.7126548752512786
0.2139091263686043
0.7277694021865033
-0.7810016664151814
0.3412849894261569
-0.2817081113429408
0.2568085548286434
0.02489955621789239
0.8477552428720131
-0.001095886578989048
-0.8466593562851252
-0.7022110321673414
0.702667078806693
0.5546652710878542
-0.7022110331924418
-0.712654875253516
0.702667077052498
-0.0342554029646534
0.9096503685690859
-0.02267959881672856
-0.6812612147990591
0.6122768830207025
0.06898433177656692
0.5384920541655166
0.5376640209825451
-1.07615607514463
0.4873765328145939
0.5285796474021869
0.5466323674818709
0.4574347743094163
-1.00406714179301
0.4924611295622284
0.5008871711440804
0.612276880511416
-0.5256078056153335
-0.4661988528151326
-0.5566043778025244
-0.5142264316948785
-0.1208396499726789
-0.01264128354654098
0.01264128353540714
0.5113677983462056
0.524239179118167
-1.038465610817526
0.5721426028840491
-0.2718516226222424
-0.8838019042151199
0.3441785333752311
-0.6330021059685602
0.3903592324688249
0.001351291746909182
-0.8255410346047332
0.8241897428447367
0.4208649881177943
-0.02314369790749869
0.8708989409570613
-0.9488720371788034
-0.8328677104956557
0.05449423042403136
0.7783734800596491
0.5637227803024659
-0.4398314594575249
-0.1238913208149643
0.6502755425906976
-0.7293717272984617
0.8885550001260792
-0.8279999482103941
-0.06055505192455259
-0.013888459571817
-0.7892287370230048
-0.1108387119306072
0.7120789878996855
-0.601240275968314
-0.9398092848886992
0.9259208260020622
-0.7257243687870175
0.6894947761357911
0.03622959264355789
-0.8068809033740111
0.03308211751965665
0.7737987858546043
0.06196256021008505
0.0420980066377876
0.432766902743066
0.06031704203740107
-0.851262415536066
0.7909453734930914
-0.6459819048230495
0.5908638940174005
0.8881734569945838
0.07301375215581969
-0.9611872091656417
0.05530574303277955
-0.04979756833772668
0.3769704677726303
-0.3819652667549643
0.06558397163953271
0.8410217615127914
-0.8396704725437032
-0.7343709902419036
-0.816653619305193
0.02742488161948127
-0.1645484213095681
-0.8501542383342149
0.02215428768609966
0.6215041779325363
0.04861606618083131
0.02878959769026968
0.5349331791086032
-0.8131927286161672
0.846274846338723
0.565762646057318
-0.8486847375091461
-0.8667955362500785
0.04285483199778559
-0.02709197026896676
0.8352450260874316
-0.8081530558221248
-0.0259645006078744
-0.7614629602715663
0.5442973786611275
0.1521192211561138
-0.02205229689440031
0.8929512364326614
0.9804150528842429
0.8625731724069812
-0.8404188864266203
0.1479665788669602
-0.1479665789399824
-0.117729692734359
-0.4696259340945998
0.02979447153603126
0.2704154650265522
0.03209325684256382
0.3881708316339038
0.8669867358783189
0.009425570772731451
-0.01482337456798104
0.6585825832403376
0.3414174167602787
0.7836623204837571
-0.5835607076123228
-0.7781090624121451
-0.8092489434626153
-0.6798783021463547
0.6798783021444388
-0.1681706457327104
-0.1554935046297009
0.6023820310479325
-0.8116555165331096
0.2092734854843949
-0.4940572837073498
-0.5688973780773567
0.2779929129547182
-0.9720213704521881
-0.8997569126749033
0.8392018582045804
-0.8135046693576131
0.8409295519623511
0.6486180285858797
0.1341647645359298
-0.7827827931195446
-0.7730193505993125
-0.146422445102858
0.7248417837926859
-0.5784193386815829
0.03277017777898243
-0.01189789264654149
0.01616362086101796
-0.004265728190018974
-0.3533460493917056
-0.1162798830136196
0.8803749441942518
0.7470837886646089
-0.2446524505070999
-0.5024313381058648
0.6231924671878082
0.6857406343945746
-0.4709102774732192
9.011678742232819e-05
-0.2856170045059396
0.01375477790099837
0.7514492835435047
-0.7652040614619231
-0.3234033411683894
-0.07315383691161165
0.07647267623256231
-0.9660658093783451
0.1194064518441714
-0.6774907517174956
0.05349852074541667
0.6397324016707193
-0.6932309224122702
-0.7560044985602465
0.07851374683973499
0.5885483608158611
-0.661702197727717
0.1575041689227482
-0.3356666135594304
-0.7711086303311513
-0.001910720261643737
0.371081631872401
0.5998860601511939
-0.02557076934452876
0.01893183154825969
-0.01893183166940568
-0.02039890190462982
-0.04865804887751751
-0.2330500652674831
0.02848449480288473
-0.01905890952647586
-0.7224925621404999
0.2792779144560952
0.6800389749348185
-0.6887632402986533
0.008724265363368091
-0.5937304309105288
0.6472289490754456
0.6541733997303394
-0.06562504168927563
-0.6306462172930621
-0.1253582830338967
-1.050661662115003
0.01107015823188453
0.136896422978629
-0.708737781399188
-0.7414849288221522
-0.7636557428831575
0.3660660765631104
-0.4065882685259665
0.4601259347811682
-0.05353766633657724
-0.6625094825835512
-0.0462282988131574
0.5012622978685596
0.7306858891544218
-0.2358795002825104
0.1148254206858579
0.9679765276390596
0.4468319831122808
0.1326559433130785
-0.5794879264203289
-0.6766435540767562
0.01413406930301058
-0.04466185708983822
0.03276398482772919
0.6364558535645274
-0.7760211968153736
-0.001830875705106922
0.001830875636414286
-0.6010367500825207
0.6492909082750092
-0.04825415816449288
-0.647853956729425
-0.1133802014095274
-0.671545322939971
0.06112735687922702
0.6036269420518854
-0.1374666791890797
-0.8179677657679256
-0.5727933877904841
0.5687404382444101
0.0040529497100006
0.6283676246022051
-0.6196433611414045
0.3225679714536702
0.2137524224302118
-0.5363203938866423
-0.1050290707153997
-0.6014361136706835
-0.09179481023592112
-0.1542047665089651
-0.5116660226892467
0.4041662235952339
-0.4992243025708992
0.1267302785993572
0.678550576986253
-0.8052808555981527
0.5992046765891302
-0.3683125218366532
-0.03827573786470486
0.07781066171865088
-0.589476683987996
0.5514190061946143
-0.04061034741129773
-0.5108086587950994
-0.3131826557082438
0.3057736669319802
0.007408988851853977
0.4534397007834963
0.1187028983444169
0.05273728850109411
-0.3165972053094395
0.1576015231059397
0.1589956822145506
0.232188827765795
-0.008778004381305882
-0.2931929534546862
-0.3099994752884691
0.3492931058469148
-0.03929363030107717
0.7878880038281477
-0.6257802952745803
-0.02207366141055988
0.4992373431953508
0.2837882165079531
-0.5284406710356698
0.5774861077949612
-0.5774861077951097
-0.2897472394874771
-0.5864552727474194
-0.2955846243960082
-0.5864552729138444
-0.5951211357875232
-0.8384922828371637
0.1699165469101055
-0.5959858108805665
0.8211142549984303
-0.003098921634241381
0.1174469452572826
0.4824391149583003
0.09679000093514492
0.186109891728621
-0.03649591884154208
-0.1496139729782393
-0.02724538862783164
0.5912393380656122
-0.9439325253697963
0.4232853116605122
-0.008388513956148808
0.003812929615952242
0.00457558419914712
-0.6440443824419236
-0.1319291406751189
-0.4684446355411745
0.6011005766936701
-0.5035048778125635
-0.3259587057472082
-0.263517961791679
-0.2714519142229117
-0.111470411856265
0.1114704119418759
0.1530666905021767
0.05928666732880297
0.1971800565529624
0.4513479224362936
-0.5708866501885351
0.1024420144756585
0.2484200280409447
0.4665203482000684
0.533479651787644
0.6436011715878943
0.08800340483136707
-0.004516291898057955
-0.08348711351905808
-0.2771165727388343
-0.5408511930135896
-0.5504746359071143
0.1148513906580403
-0.1266831774843868
0.01183178683274757
-0.1054284277887544
-0.3853161719852006
-0.0498707449062586
0.6534976904667659
-0.4991549493961476
-0.1448894330496472
-0.3310410246666007
0.2880109628756609
0.128465766925255
-0.6182349486516681
-0.2046665569194667
-0.2630535380467324
0.002762790814892938
-0.4216654045676491
0.3238538467016101
0.09781155782901631
-0.09542366921223941
0.291733595678215
-0.8959502666345601
-0.4574007340507845
0.6262523010784156
-0.7732622924554823
0.6682332217412154
0.3398330212910929
-0.1240690472281387
0.2236975235116757
-0.09962847627001375
0.02758558746605897
-0.586267821338898
0.02877824523524528
0.5574895761112475
-0.9006024445582208
0.5479112009108801
-0.6656408936607078
-0.1047306683921468
0.109891551577549
-0.1098915515402524
-0.3165070924424098
0.3590539682591069
0.01791649564146138
0.02851816954485726
0.05948526133595592
0.504877700660023
0.6655920909918815
-0.7361988834396902
0.03157240767354855
0.02064893465359099
-0.001717101987772359
-0.007066824462844724
0.007066824517185359
-0.4131964391820783
0.5318993383567631
0.01578121585694845
-0.01578121586137903
-0.7925592371295936
-0.06113522185124335
0.1230977773412814
-0.4564123044766926
0.5588543197586869
0.4520901679226589
-0.5003443236161274
0.1503291468462063
-0.1503291469409271
0.03345038070936967
-0.00810858594295664
-0.04253359887081032
-0.9751466008524656
0.537203314018776
-0.4667341101945426
0.04209800805715667
0.5151009359470771
0.03068748002702868
-0.5457884159640485
-0.6165138843369135
0.1173589335633696
-0.3289976295258918
0.01353754934518144
0.3154600801327264
-0.1558294660536377
-0.08005003068915398
-0.5410445140152472
-0.04522331333782195
0.1368964219183315
-0.03999066617661525
0.03815979990546254
0.08051199341940127
-0.08051199355259493
-0.5268349642572661
0.4875413278034452
-0.414921614040877
0.1613112607300058
0.6223510597522064
-0.09704881603688341
-0.002768219168730855
0.002768219215674266
0.5329519563616808
-0.0833017726240481
0.005830985516820347
0.02700486717272066
0.03503116652773348
0.6856283887744701
-0.7689301613853998
-0.6538378930441114
0.6317642333237438
-0.1076801280557246
0.3139855131661884
0.7456668238147275
-0.02039890195790447
-0.265724725829208
0.1507353667040451
-0.7445933256404399
0.483865464580588
-0.4280663900895922
-0.1014129585024995
0.003252857874260987
-0.0143120815491348
0.02396820767504187
0.4110001926720651
-0.1215183261897999
-0.3892903389118725
0.6288631598104168
0.01970813206196078
0.009546593037289277
-0.009546593082669714
-0.3503960264532208
-0.0754870386930193
-0.560236050545731
0.5571371289238102
-0.2374691294872497
0.4647060506105122
-0.1510032149304369
0.7311809351607287
0.6697530839547547
-0.0399906659218484
-0.6178007333038156
0.5628259278737689
0.2848114485797573
-0.2799819273086464
-0.004829521383792125
0.5363405699510835
0.09342302799136934
-0.0390005728018844
0.1958534814818187
-0.1568529087040056
0.1195125479013074
-0.1195125479233948
-0.8586446180347522
0.00236256736960389
-0.1136854118784982
0.1406902790661138
-0.1314860443550019
0.131486044457018
0.02064894687847509
-0.02316712016529355
0.6698329393003647
0.06079673775672121
-0.3225664824779956
-0.06274968957441288
-0.4712516622876933
-0.04622956559969949
-0.1511977027013497
0.1511977028118033
-0.05003672924390844
0.1437378456991927
-0.1437378458179391
0.1360466793044736
-0.1360466792676729
-0.3161836581891743
-0.1146511622552874
0.2259281437925941
0.1031127053312669
0.03479077279422502
-0.8211924299067355
-0.1986019021211217
0.169868450544682
0.02176642813003881
-0.2641612382232439
0.1262494750979993
-0.1262494752024758
-0.414321929576928
-0.08490237182751077
0.2356602449382838
0.002852408957813106
0.04052131861985814
-0.5443432693182602
0.5785986722837303
-0.03745947046874722
-0.01257725907494639
-0.02531107919326697
0.0172025071602262
0.006591306534432934
-0.184863547888227
0.1782722413278254
-0.1086135021817979
-0.227053103364326
-0.144320914005295
0.1443209141227809
0.07242843400521043
-0.07242843393297305
-0.01895010076495883
-0.1085267142471858
0.1274768149781836
0.23574273186885
-0.1834961590414799
-0.02730668839212984
0.02558958494425727
-0.1311699022300475
0.6187112293343461
-0.03904197836317887
0.4276844213541198
-0.04315906918634495
0.06591132055160379
-0.1529047717486205
0.1529047718452015
-0.6368626593779994
0.3080416616094444
-0.07925343640931924
-0.2340138227594931
0.003610064216217077
-0.1206111185523905
0.1611324371406437
0.1958508641464827
0.09571165547144897
0.09692230965239965
-0.06189114305831099
0.07318982761330566
0.04166156248229424
0.06419414393364359
0.1056743050202598
-0.09956040157633972
0.2143858088010492
0.01137748529259468
-0.1186193268973733
-0.09966377657097815
0.09602131071709188
0.003642465760916379
0.01110236345191003
-0.02345093873191385
0.03737256030466751
-0.03737256029042935
0.07524235959464341
-0.0553655960996227
0.05536559610735885
-0.2243637540768602
-0.05270800381023757
0.0117011483986835
-0.1030694811524317
0.01653412008625983
0.1088589496289901
-0.1088589496902431
0.2936624175489935
-0.270840271971363
0.1622267681120052
-0.05102793571001531
-0.2198123365291027
-0.01686212704652852
0.01686212701329915
0.3676618343064887
0.2851693817459518
-0.528150960917715
-0.0939346545648815
-0.03274851986203828
0.5289730931680117
0.2104316374567289
-0.1700130665809979
-0.379531752959358
0.07652092936061108
-0.1471513623709534
0.1867159372372343
-0.03956457482789191
-0.0671973869017118
0.06719738684791672
0.8221877531740844
-0.5603899831239473
-0.006000939215030013
0.01710330244820714
-0.02001560985916243
-0.2874226387118307
-0.01748837722185708
-0.01283486742269594
-0.1322091821237756
-0.5723232372108152
0.5561540362580644
-0.5691263805530632
-0.006876768464610108
0.1007562499748179
-0.001707077337231107
0.01685810564782342
-0.1671669630854128
-0.3360499920447789
0.2329805108717883
-0.05400596751515026
0.03505587033419914
0.1321279403202539
0.1736457210642925
0.3419412661157701
0.2758116611120274
-0.2775187384979864
-0.0615039607374419
-0.1552947009425466
-0.220476263061389
0.07451640278351573
-0.01032226046295626
0.2134163187788485
-0.1965582131412466
-0.08627813129544877
0.1594679611474219
-0.3553739568258918
0.2078808476359653
-0.191346727517952
0.08958596975068685
-0.4788763102925521
0.1738810723732145
0.170777701704398
-0.2570558347115093
0.07347136934496323
-0.1949429431886317
0.1774545659694388
0.01739052516824502
0.1420774384151764
-0.03958437583880869
0.06560662155605322
0.4673453348022378
0.02051043295341907
-0.08611751304421933
0.05368445595066135
0.1263781965535561
-0.2600408235154457
-0.2309261565339282
0.5597442135543663
0.1569281169005481
0.07873212625451645
0.07454198179874635
-0.03102083268638558
-0.008438150288943333
0.003608626846878561
-0.03264334803138759
0.1706143700715826
-0.1774911385507364
-0.06214930540785762
0.01958865576127198
-0.1472514023441872
-0.05286550897253781
0.1522365257038895
0.2770355617625024
-0.03969873162555615
0.008764346003685737
-0.2553454736370661
-0.1327580354228952
0.236361667946053
0.178337024237169
0.1297046429893449
0.02206959506102271
0.08843483372366605
0.05245492783907787
0.4524227728155992
0.01501993118274652
0.09806016025861587
0.04296561105903882
0.07233289146514457
-0.115298502463706
-0.2429815810625611
-0.2004066260050918
-0.01940571084316191
-0.2018407461844261
0.2747511864450614
)
;

boundaryField
{
    FrontBack
    {
        type            empty;
    }
    Top
    {
        type            calculated;
        value           uniform 0;
    }
    In
    {
        type            calculated;
        value           uniform -1;
    }
    Bottom
    {
        type            calculated;
        value           uniform 0;
    }
    Out
    {
        type            calculated;
        value           nonuniform List<scalar> 10(1.034008900138001 1.064099859743267 1.022803230617309 1.021040776871477 0.9950987946553124 1.015113602650759 1.035606977011881 1.062954661779361 0.8672333470331438 0.8820398971474088);
    }
    circle
    {
        type            calculated;
        value           uniform 0;
    }
}


// ************************************************************************* //
