/*--------------------------------*- C++ -*----------------------------------*\
| =========                 |                                                 |
| \\      /  F ield         | OpenFOAM: The Open Source CFD Toolbox           |
|  \\    /   O peration     | Version:  2412                                  |
|   \\  /    A nd           | Website:  www.openfoam.com                      |
|    \\/     M anipulation  |                                                 |
\*---------------------------------------------------------------------------*/
FoamFile
{
    version     2.0;
    format      ascii;
    arch        "LSB;label=32;scalar=64";
    class       volVectorField;
    location    "0.7";
    object      cellDisplacement;
}
// * * * * * * * * * * * * * * * * * * * * * * * * * * * * * * * * * * * * * //

dimensions      [0 1 0 0 0 0 0];

internalField   nonuniform List<vector> 
256
(
(0.00160924 0.0197863 0)
(-0.00143969 0.0198253 0)
(-0.00406573 0.0184922 0)
(-0.00576655 0.0159965 0)
(-0.00633141 0.0128753 0)
(-0.00575576 0.00946859 0)
(-0.00428166 0.00611533 0)
(-0.00219112 0.00289054 0)
(0.00383113 0.0585807 0)
(-0.00467973 0.0585257 0)
(-0.011999 0.0549413 0)
(-0.0169928 0.0485183 0)
(-0.0190374 0.0402148 0)
(-0.0181896 0.0311497 0)
(-0.0148099 0.0219215 0)
(-0.00950581 0.0128498 0)
(0.00502001 0.0955061 0)
(-0.00824666 0.0950497 0)
(-0.0196541 0.0895943 0)
(-0.0276452 0.0800396 0)
(-0.0314594 0.0678587 0)
(-0.0310036 0.0543103 0)
(-0.0267629 0.0403984 0)
(-0.0194074 0.0264975 0)
(0.0052239 0.130686 0)
(-0.0122138 0.129627 0)
(-0.0272035 0.122568 0)
(-0.0380292 0.110693 0)
(-0.043739 0.0955176 0)
(-0.0442617 0.0786318 0)
(-0.0399942 0.0610758 0)
(-0.0316209 0.0433128 0)
(0.00444205 0.164366 0)
(-0.0166846 0.162524 0)
(-0.0348935 0.154142 0)
(-0.0483508 0.140426 0)
(-0.05613 0.123121 0)
(-0.0580173 0.103735 0)
(-0.0544323 0.0834966 0)
(-0.0460166 0.0628692 0)
(0.00263138 0.19652 0)
(-0.0217846 0.193894 0)
(-0.0428915 0.184376 0)
(-0.058904 0.16935 0)
(-0.0688024 0.150464 0)
(-0.0724318 0.129374 0)
(-0.0700961 0.107256 0)
(-0.062424 0.0845694 0)
(-0.000303764 0.227379 0)
(-0.0276755 0.223902 0)
(-0.0514663 0.213463 0)
(-0.0698854 0.197401 0)
(-0.0820386 0.177493 0)
(-0.0876455 0.155243 0)
(-0.0870357 0.131909 0)
(-0.0808498 0.107952 0)
(-0.00448383 0.256961 0)
(-0.0345493 0.252648 0)
(-0.060805 0.241401 0)
(-0.0816175 0.224637 0)
(-0.0960446 0.204019 0)
(-0.103891 0.181099 0)
(-0.105412 0.157095 0)
(-0.101257 0.132397 0)
(-0.0101495 0.285431 0)
(-0.0426499 0.280215 0)
(-0.071251 0.268303 0)
(-0.0943562 0.250992 0)
(-0.111166 0.229947 0)
(-0.121428 0.206683 0)
(-0.125408 0.182352 0)
(-0.123826 0.157422 0)
(-0.0175251 0.312761 0)
(-0.0522992 0.30667 0)
(-0.0830797 0.294091 0)
(-0.108498 0.276422 0)
(-0.127718 0.255126 0)
(-0.140599 0.231673 0)
(-0.147348 0.207293 0)
(-0.148735 0.182332 0)
(-0.0270813 0.339005 0)
(-0.063843 0.331906 0)
(-0.0966987 0.318687 0)
(-0.124337 0.300678 0)
(-0.146121 0.279242 0)
(-0.161805 0.255752 0)
(-0.171617 0.23131 0)
(-0.176338 0.206438 0)
(-0.0391418 0.363885 0)
(-0.0777167 0.355668 0)
(-0.112476 0.341791 0)
(-0.142401 0.323411 0)
(-0.166812 0.301858 0)
(-0.185554 0.278261 0)
(-0.198702 0.253751 0)
(-0.207129 0.228733 0)
(-0.0543954 0.38706 0)
(-0.094476 0.377616 0)
(-0.131067 0.36296 0)
(-0.163225 0.344144 0)
(-0.190423 0.322226 0)
(-0.212406 0.298338 0)
(-0.229298 0.273429 0)
(-0.241746 0.248012 0)
(-0.0735211 0.407794 0)
(-0.114784 0.396925 0)
(-0.152984 0.381342 0)
(-0.187384 0.361848 0)
(-0.217502 0.339314 0)
(-0.243108 0.314594 0)
(-0.264123 0.288624 0)
(-0.281073 0.2619 0)
(-0.0966884 0.424447 0)
(-0.13868 0.411948 0)
(-0.178263 0.395173 0)
(-0.214884 0.374632 0)
(-0.248081 0.350954 0)
(-0.277569 0.324746 0)
(-0.303155 0.29671 0)
(-0.325132 0.26718 0)
(-0.122637 0.432702 0)
(-0.164459 0.418598 0)
(-0.204697 0.400463 0)
(-0.242963 0.378471 0)
(-0.27889 0.352834 0)
(-0.312131 0.323799 0)
(-0.342365 0.291645 0)
(-0.369303 0.256683 0)
(-0.00209594 0.002912 0)
(-0.00409043 0.00534343 0)
(-0.00618255 0.00714659 0)
(-0.00852341 0.00829311 0)
(-0.0111103 0.0086693 0)
(-0.0138324 0.00818203 0)
(-0.0164026 0.0067652 0)
(-0.01853 0.00450065 0)
(-0.00940975 0.0127588 0)
(-0.0151622 0.0189365 0)
(-0.0213394 0.0232941 0)
(-0.0281067 0.0256466 0)
(-0.0354809 0.0258363 0)
(-0.0430104 0.023623 0)
(-0.0500289 0.0189648 0)
(-0.0555607 0.0121328 0)
(-0.0194706 0.0259243 0)
(-0.0287201 0.0346638 0)
(-0.0386282 0.0403656 0)
(-0.0495184 0.0429688 0)
(-0.0611428 0.0421421 0)
(-0.0727987 0.0376301 0)
(-0.0833112 0.0294635 0)
(-0.09134 0.0182081 0)
(-0.0322008 0.0420602 0)
(-0.0446019 0.0520877 0)
(-0.0580307 0.0581268 0)
(-0.0725997 0.0600248 0)
(-0.0879248 0.057453 0)
(-0.102944 0.0501585 0)
(-0.116211 0.0383326 0)
(-0.125954 0.0228292 0)
(-0.0474157 0.0606312 0)
(-0.0627828 0.0708772 0)
(-0.0793607 0.0762018 0)
(-0.0972432 0.0765968 0)
(-0.11569 0.0716386 0)
(-0.133415 0.0611756 0)
(-0.148607 0.0455935 0)
(-0.159394 0.0260357 0)
(-0.065078 0.0812124 0)
(-0.0831023 0.0905496 0)
(-0.1026 0.0943088 0)
(-0.123302 0.0924195 0)
(-0.144296 0.0845311 0)
(-0.164002 0.0706041 0)
(-0.180506 0.0512368 0)
(-0.191808 0.0278356 0)
(-0.0850524 0.103205 0)
(-0.105589 0.110729 0)
(-0.127598 0.112047 0)
(-0.150701 0.107233 0)
(-0.173648 0.0959522 0)
(-0.194725 0.0783328 0)
(-0.211853 0.055198 0)
(-0.223215 0.0281843 0)
(-0.107396 0.126115 0)
(-0.130136 0.130881 0)
(-0.154392 0.129058 0)
(-0.179361 0.120721 0)
(-0.203681 0.10567 0)
(-0.22545 0.084217 0)
(-0.242714 0.0573704 0)
(-0.253618 0.0269562 0)
(-0.132126 0.149325 0)
(-0.156882 0.150529 0)
(-0.182911 0.144861 0)
(-0.209277 0.13251 0)
(-0.234354 0.113396 0)
(-0.25627 0.0880072 0)
(-0.273046 0.0575728 0)
(-0.283071 0.023989 0)
(-0.15947 0.172232 0)
(-0.185897 0.169079 0)
(-0.213338 0.158967 0)
(-0.240488 0.142144 0)
(-0.265691 0.11872 0)
(-0.287052 0.0894075 0)
(-0.302798 0.0555179 0)
(-0.311591 0.019029 0)
(-0.189638 0.193905 0)
(-0.21745 0.185754 0)
(-0.245736 0.170616 0)
(-0.27302 0.148976 0)
(-0.297598 0.121112 0)
(-0.31775 0.0879203 0)
(-0.331929 0.0508118 0)
(-0.339178 0.0116755 0)
(-0.223039 0.213327 0)
(-0.251762 0.199407 0)
(-0.280229 0.178791 0)
(-0.30685 0.152048 0)
(-0.330022 0.119763 0)
(-0.348254 0.0829105 0)
(-0.360367 0.0428792 0)
(-0.365656 0.00145671 0)
(-0.260292 0.228988 0)
(-0.289262 0.208659 0)
(-0.317031 0.182088 0)
(-0.341981 0.150162 0)
(-0.362771 0.1136 0)
(-0.378283 0.0734314 0)
(-0.387711 0.0309939 0)
(-0.390632 -0.012262 0)
(-0.301992 0.238416 0)
(-0.330162 0.211039 0)
(-0.35591 0.178396 0)
(-0.377871 0.141541 0)
(-0.395147 0.10123 0)
(-0.407069 0.0584434 0)
(-0.413205 0.01421 0)
(-0.413411 -0.030249 0)
(-0.348045 0.237669 0)
(-0.373631 0.202935 0)
(-0.395358 0.164758 0)
(-0.412654 0.123889 0)
(-0.425185 0.0809489 0)
(-0.432702 0.0366279 0)
(-0.435068 -0.00829571 0)
(-0.432269 -0.0530339 0)
(-0.392684 0.219249 0)
(-0.412284 0.179704 0)
(-0.427912 0.138428 0)
(-0.43942 0.0958183 0)
(-0.446696 0.0522862 0)
(-0.44967 0.0082506 0)
(-0.448313 -0.0358645 0)
(-0.442639 -0.0796342 0)
)
;

boundaryField
{
    walls
    {
        type            cellMotion;
        value           uniform (0 0 0);
    }
    cylinder
    {
        type            cellMotion;
        value           nonuniform List<vector> 
16
(
(-0.122637 0.432702 0)
(-0.164459 0.418598 0)
(-0.204697 0.400463 0)
(-0.242963 0.378471 0)
(-0.27889 0.352834 0)
(-0.312131 0.323799 0)
(-0.342365 0.291645 0)
(-0.369303 0.256683 0)
(-0.392684 0.219249 0)
(-0.412284 0.179704 0)
(-0.427912 0.138428 0)
(-0.43942 0.0958183 0)
(-0.446696 0.0522862 0)
(-0.44967 0.0082506 0)
(-0.448313 -0.0358645 0)
(-0.442639 -0.0796342 0)
)
;
    }
    outlet
    {
        type            cellMotion;
        value           uniform (0 0 0);
    }
    inlet
    {
        type            cellMotion;
        value           nonuniform List<vector> 0();
    }
    frontAndBack
    {
        type            empty;
    }
    procBoundary3to1
    {
        type            processor;
        value           nonuniform List<vector> 
16
(
(0.00450157 0.0185296 0)
(0.01214 0.0555791 0)
(0.0182201 0.0913405 0)
(0.0228562 0.12597 0)
(0.0260867 0.159385 0)
(0.0279174 0.191809 0)
(0.0283112 0.223182 0)
(0.0271162 0.25359 0)
(0.0242134 0.282997 0)
(0.0192717 0.311519 0)
(0.0119845 0.339066 0)
(0.00174126 0.365552 0)
(-0.0119847 0.390545 0)
(-0.03008 0.413355 0)
(-0.0529628 0.43225 0)
(-0.0796342 0.442639 0)
)
;
    }
    procBoundary3to2
    {
        type            processor;
        value           nonuniform List<vector> 
16
(
(-0.0197634 0.00161469 0)
(-0.058618 0.0038453 0)
(-0.0954853 0.00503959 0)
(-0.130699 0.00522783 0)
(-0.164328 0.00443494 0)
(-0.196521 0.00257905 0)
(-0.227356 -0.000385045 0)
(-0.256988 -0.0046393 0)
(-0.285453 -0.0103322 0)
(-0.312839 -0.0177986 0)
(-0.33908 -0.027359 0)
(-0.363978 -0.0394864 0)
(-0.387142 -0.0546541 0)
(-0.407828 -0.0737205 0)
(-0.424459 -0.0967632 0)
(-0.432702 -0.122637 0)
)
;
    }
}


// ************************************************************************* //
