/*--------------------------------*- C++ -*----------------------------------*\
| =========                 |                                                 |
| \\      /  F ield         | OpenFOAM: The Open Source CFD Toolbox           |
|  \\    /   O peration     | Version:  2412                                  |
|   \\  /    A nd           | Website:  www.openfoam.com                      |
|    \\/     M anipulation  |                                                 |
\*---------------------------------------------------------------------------*/
FoamFile
{
    version     2.0;
    format      ascii;
    arch        "LSB;label=32;scalar=64";
    class       surfaceScalarField;
    location    "0.7";
    object      meshPhi;
}
// * * * * * * * * * * * * * * * * * * * * * * * * * * * * * * * * * * * * * //

dimensions      [0 3 -1 0 0 0 0];

internalField   nonuniform List<scalar> 
480
(
0.00222773
-0.00318903
0.00252758
-0.00111196
0.00252618
0.000857857
0.00226599
0.00225835
0.00194088
0.00293751
0.00160926
0.00309997
0.00115221
0.00286594
0.00242677
0.000853346
0.00651409
-0.00579939
0.00726246
-0.00213141
0.00727054
0.00130476
0.0066252
0.00382866
0.00579104
0.00518705
0.00489024
0.00561263
0.00359966
0.00523876
0.00443593
0.00275968
0.0105244
-0.00797912
0.0114525
-0.00311685
0.0114826
0.00141977
0.0106835
0.00484252
0.00958462
0.00680638
0.00827439
0.00750658
0.00633486
0.00707724
0.00605925
0.00511365
0.0143274
-0.00963824
0.01523
-0.00391773
0.0152778
0.00137989
0.0144757
0.00544358
0.0132758
0.00787652
0.011702
0.00881151
0.00934491
0.0084136
0.00735693
0.00797278
0.0179513
-0.0108582
0.0187301
-0.00458919
0.0187806
0.00120875
0.0180593
0.00571293
0.016873
0.00849457
0.0151971
0.00964132
0.0126852
0.00936921
0.00843382
0.011401
0.021401
-0.0115783
0.0220445
-0.00499762
0.0221059
0.00104037
0.0215134
0.0057696
0.0204625
0.0087788
0.0188292
0.0100921
0.016376
0.0099743
0.00926165
0.0154169
0.0246949
-0.0118747
0.0252517
-0.00518649
0.0253565
0.000910963
0.0249454
0.00571406
0.0241156
0.00882926
0.0225898
0.010209
0.0203458
0.010226
0.00972753
0.0198266
0.027868
-0.0117115
0.02834
-0.00510613
0.0285218
0.000818687
0.0283048
0.00546609
0.0277777
0.00852421
0.0265424
0.00998302
0.0246547
0.0101936
0.00989503
0.0245322
0.0309933
-0.0111653
0.031303
-0.00483903
0.0315395
0.000797432
0.0315036
0.00514693
0.0313493
0.00803041
0.03075
0.00950059
0.0295514
0.00993111
0.0099303
0.0299601
0.0342095
-0.0102497
0.0343881
-0.00440591
0.0347011
0.000826601
0.0349396
0.00484016
0.0351389
0.00747976
0.0353415
0.00894469
0.0352271
0.00961002
0.00987738
0.0365014
0.0375137
-0.00888326
0.0377847
-0.00373981
0.0383458
0.000872215
0.0390422
0.0044263
0.0397828
0.00685485
0.0407622
0.00836331
0.0417707
0.00920541
0.00957257
0.0440411
0.0409053
-0.00696551
0.0414581
-0.00277179
0.0424383
0.000987413
0.0437742
0.00395981
0.0453744
0.00611861
0.0472152
0.00759141
0.0492219
0.00847136
0.0088472
0.052387
0.0445206
-0.00454723
0.0453792
-0.00140296
0.0468722
0.00139688
0.0489312
0.00366195
0.0514386
0.00540977
0.0542811
0.00670615
0.0573379
0.00752054
0.00789727
0.0613456
0.0482227
-0.00178733
0.0494283
0.000235124
0.0514539
0.00204946
0.054228
0.00356266
0.0575733
0.00478663
0.0614146
0.00574851
0.0655963
0.00639253
0.00673879
0.0705036
0.0514086
0.000834727
0.0529702
0.00173731
0.0554852
0.00256554
0.0588964
0.00329645
0.0630435
0.00391809
0.067833
0.0044349
0.073098
0.00482227
0.00508987
0.07883
0.0492376
0.0512165
0.0540937
0.0577624
0.0620877
0.0669194
0.0720662
0.0773141
0.000924599
-0.0023026
0.00119275
-0.00319458
0.001467
-0.00425036
0.00173825
-0.00502833
0.00194553
-0.00551568
0.00195647
-0.00550306
0.00196666
-0.00490541
-0.00382699
0.00296727
-0.00527242
0.00375049
-0.00684489
0.00446576
-0.0085494
0.00521761
-0.00966591
0.00579577
-0.0102973
0.00590605
-0.0101205
0.00596758
-0.00897643
-0.00694592
0.00546257
-0.00878278
0.00664007
-0.0107961
0.00766075
-0.0128236
0.00873005
-0.0140305
0.00956485
-0.0145379
0.00983789
-0.0140209
0.00998359
-0.0122781
-0.00936747
0.00842973
-0.012542
0.00988887
-0.0147966
0.0111026
-0.016892
0.0123227
-0.0179209
0.0132917
-0.0180791
0.0137035
-0.0170808
0.0139119
-0.0147303
-0.0110614
0.0119126
-0.0164327
0.0135243
-0.0187454
0.014804
-0.0206664
0.01604
-0.021372
0.017042
-0.0210638
0.0175153
-0.0195072
0.0177229
-0.0164838
-0.0120941
0.0159266
-0.0201136
0.0175443
-0.0223584
0.0187691
-0.0239622
0.0198848
-0.0241675
0.0208139
-0.023253
0.0212693
-0.0211117
0.0214348
-0.0175118
-0.0125645
0.0202996
-0.0230812
0.0218995
-0.0252548
0.0229852
-0.0265431
0.0238585
-0.0262311
0.0245794
-0.0246743
0.0249457
-0.0219565
0.0250775
-0.017898
-0.0125826
0.0248584
-0.0252089
0.0264667
-0.02713
0.0274135
-0.0281347
0.0279739
-0.0273939
0.0283412
-0.0252476
0.0285378
-0.0219709
0.0286572
-0.0175847
-0.0121819
0.0298727
-0.0269517
0.0312433
-0.0282831
0.0319676
-0.0286804
0.0322113
-0.0274921
0.0321869
-0.0249084
0.0321251
-0.021244
0.0321804
-0.0166915
-0.0114156
0.0357917
-0.0280297
0.0364589
-0.0287108
0.036704
-0.0282872
0.0365499
-0.026544
0.0361605
-0.0236686
0.035742
-0.0198523
0.0355733
-0.0152871
-0.0103047
0.0425814
-0.02787
0.0422634
-0.028007
0.0416943
-0.026826
0.0409344
-0.0245228
0.0401345
-0.0214487
0.039329
-0.0177287
0.0387766
-0.0134206
-0.00882029
0.0500501
-0.0260819
0.0486057
-0.0257529
0.0469892
-0.0239648
0.0454441
-0.0212966
0.0441019
-0.0181928
0.0429267
-0.0147862
0.0419938
-0.0110307
-0.0070233
0.0580496
-0.0220355
0.055371
-0.0214225
0.0526358
-0.0193814
0.050178
-0.0167626
0.0481448
-0.0139452
0.046571
-0.0110628
0.0453951
-0.00807454
-0.00495461
0.0662297
-0.0154476
0.0622766
-0.0147654
0.058412
-0.012934
0.0549924
-0.0108564
0.0522159
-0.00874951
0.0501458
-0.00666949
0.0487719
-0.00459611
-0.00248957
0.073487
-0.00645615
0.0681488
-0.00586516
0.0632136
-0.00485232
0.058972
-0.00380898
0.0555708
-0.00278044
0.0530744
-0.00176435
0.0515471
-0.00076304
0.000216891
0.0707626
0.0646339
0.059338
0.0550051
0.0517
0.0494671
0.0483291
)
;

boundaryField
{
    walls
    {
        type            calculated;
        value           uniform 0;
    }
    cylinder
    {
        type            calculated;
        value           nonuniform List<scalar> 
16
(
1.09721e-11
-1.34696e-11
-4.46747e-12
8.13096e-12
-2.28932e-11
1.65876e-11
2.56844e-11
-1.30005e-11
1.30025e-11
-2.56821e-11
-1.65827e-11
2.28971e-11
-8.12787e-12
4.47085e-12
1.34717e-11
-1.09696e-11
)
;
    }
    outlet
    {
        type            calculated;
        value           uniform 0;
    }
    inlet
    {
        type            calculated;
        value           nonuniform List<scalar> 0();
    }
    frontAndBack
    {
        type            empty;
    }
    procBoundary3to1
    {
        type            processor;
        value           nonuniform List<scalar> 
16
(
-0.00199803
-0.0059594
-0.00983851
-0.0136123
-0.0172549
-0.020774
-0.0241974
-0.0275616
-0.0309022
-0.0342248
-0.037469
-0.0407621
-0.0443098
-0.047901
-0.0508935
-0.0482466
)
;
    }
    procBoundary3to2
    {
        type            processor;
        value           nonuniform List<scalar> 
16
(
0.00210594
0.00630527
0.0103937
0.0143383
0.0181434
0.0218187
0.0253866
0.0288602
0.0322499
0.0355176
0.0385847
0.0416257
0.0448892
0.0481965
0.0510179
0.048277
)
;
    }
}


// ************************************************************************* //
