/*--------------------------------*- C++ -*----------------------------------*\
| =========                 |                                                 |
| \\      /  F ield         | OpenFOAM: The Open Source CFD Toolbox           |
|  \\    /   O peration     | Version:  2412                                  |
|   \\  /    A nd           | Website:  www.openfoam.com                      |
|    \\/     M anipulation  |                                                 |
\*---------------------------------------------------------------------------*/
FoamFile
{
    version     2.0;
    format      ascii;
    arch        "LSB;label=32;scalar=64";
    class       pointVectorField;
    location    "0.7";
    object      pointDisplacement;
}
// * * * * * * * * * * * * * * * * * * * * * * * * * * * * * * * * * * * * * //

dimensions      [0 1 0 0 0 0 0];

internalField   nonuniform List<vector> 
578
(
(0 0 0)
(0 0 0)
(0 0 0)
(0 0 0)
(0 0 0)
(0 0 0)
(0 0 0)
(0 0 0)
(0 0 0)
(0.00554393 0.0381589 0)
(-0.000159565 0.0392336 0)
(-0.00555207 0.0380074 0)
(-0.0097259 0.0345446 0)
(-0.0120584 0.0294448 0)
(-0.0123521 0.0234515 0)
(-0.010771 0.0171665 0)
(-0.0076909 0.0109261 0)
(-0.00565583 0.00765676 0)
(0.0098216 0.0752914 0)
(-0.00101207 0.0769658 0)
(-0.0111511 0.0745824 0)
(-0.0190898 0.0683259 0)
(-0.0238075 0.0592027 0)
(-0.0249473 0.0484158 0)
(-0.0227116 0.0369631 0)
(-0.0176328 0.0254222 0)
(-0.0142622 0.0192584 0)
(0.0128437 0.110916 0)
(-0.00255117 0.112764 0)
(-0.0168365 0.109258 0)
(-0.0281482 0.100771 0)
(-0.0352394 0.0885711 0)
(-0.0376409 0.0741173 0)
(-0.0355307 0.0586329 0)
(-0.0294703 0.0428458 0)
(-0.0254561 0.0341625 0)
(0.0146606 0.14514 0)
(-0.00480882 0.146843 0)
(-0.0227568 0.142258 0)
(-0.037133 0.132 0)
(-0.0465814 0.117482 0)
(-0.050561 0.100291 0)
(-0.049204 0.0817707 0)
(-0.0430485 0.0627281 0)
(-0.0390699 0.0519108 0)
(0.0152729 0.178058 0)
(-0.00785283 0.179364 0)
(-0.0290723 0.173772 0)
(-0.0462727 0.162112 0)
(-0.058064 0.14588 0)
(-0.0638681 0.126714 0)
(-0.0637727 0.106005 0)
(-0.0582788 0.0845962 0)
(-0.0549713 0.0720059 0)
(0.0146382 0.209758 0)
(-0.0117896 0.210458 0)
(-0.0359638 0.203942 0)
(-0.0557985 0.191182 0)
(-0.0699231 0.173714 0)
(-0.0777505 0.153183 0)
(-0.0793299 0.130986 0)
(-0.075139 0.107975 0)
(-0.0730758 0.093926 0)
(0.0126553 0.240311 0)
(-0.0167614 0.240253 0)
(-0.0436336 0.232883 0)
(-0.0659544 0.219256 0)
(-0.0824103 0.200921 0)
(-0.092424 0.179501 0)
(-0.0960222 0.156377 0)
(-0.0936742 0.132392 0)
(-0.0933548 0.117126 0)
(0.00916654 0.269775 0)
(-0.0229677 0.268841 0)
(-0.0523233 0.260667 0)
(-0.0770173 0.24636 0)
(-0.0958082 0.227429 0)
(-0.108149 0.205472 0)
(-0.114059 0.181845 0)
(-0.114008 0.157368 0)
(-0.115863 0.14105 0)
(0.00394254 0.298205 0)
(-0.0306663 0.296293 0)
(-0.0623293 0.287342 0)
(-0.089305 0.272476 0)
(-0.110445 0.253149 0)
(-0.125242 0.230889 0)
(-0.133716 0.207035 0)
(-0.136356 0.182397 0)
(-0.14075 0.165097 0)
(-0.00334952 0.325612 0)
(-0.0401983 0.322606 0)
(-0.0739891 0.312858 0)
(-0.103161 0.29749 0)
(-0.126677 0.277891 0)
(-0.144072 0.255476 0)
(-0.155359 0.231538 0)
(-0.16103 0.206884 0)
(-0.168259 0.188538 0)
(-0.0131388 0.351899 0)
(-0.0519573 0.347633 0)
(-0.0876918 0.337029 0)
(-0.118984 0.321159 0)
(-0.144923 0.301317 0)
(-0.16508 0.278802 0)
(-0.179431 0.254795 0)
(-0.188458 0.230092 0)
(-0.198758 0.21046 0)
(-0.0259615 0.376779 0)
(-0.0664445 0.371071 0)
(-0.103941 0.359522 0)
(-0.137296 0.343091 0)
(-0.165718 0.322927 0)
(-0.188801 0.300191 0)
(-0.206494 0.275967 0)
(-0.219221 0.25101 0)
(-0.232788 0.229677 0)
(-0.0425145 0.399704 0)
(-0.0843071 0.39236 0)
(-0.123335 0.379721 0)
(-0.158667 0.362585 0)
(-0.189632 0.341897 0)
(-0.215856 0.318635 0)
(-0.237229 0.293766 0)
(-0.25405 0.268016 0)
(-0.271038 0.244298 0)
(-0.0633379 0.419472 0)
(-0.105935 0.410286 0)
(-0.146186 0.396354 0)
(-0.18338 0.378257 0)
(-0.216958 0.356698 0)
(-0.246556 0.332417 0)
(-0.271975 0.306188 0)
(-0.293349 0.278629 0)
(-0.313875 0.251313 0)
(-0.0880243 0.433018 0)
(-0.130649 0.421929 0)
(-0.171549 0.406549 0)
(-0.21022 0.38719 0)
(-0.246218 0.36423 0)
(-0.27918 0.338094 0)
(-0.308819 0.30924 0)
(-0.335008 0.278073 0)
(-0.358766 0.24522 0)
(-0.10138 0.438727 0)
(-0.143894 0.426678 0)
(-0.185023 0.410519 0)
(-0.22437 0.390407 0)
(-0.261556 0.366535 0)
(-0.296223 0.339133 0)
(-0.328038 0.308465 0)
(-0.356693 0.274826 0)
(-0.381913 0.238541 0)
(0 0 0)
(0 0 0)
(0 0 0)
(0 0 0)
(0 0 0)
(0 0 0)
(0 0 0)
(0 0 0)
(0 0 0)
(0.00554393 0.0381589 0)
(-0.000159565 0.0392336 0)
(-0.00555207 0.0380074 0)
(-0.0097259 0.0345446 0)
(-0.0120584 0.0294448 0)
(-0.0123521 0.0234515 0)
(-0.010771 0.0171665 0)
(-0.0076909 0.0109261 0)
(-0.00565583 0.00765676 0)
(0.0098216 0.0752914 0)
(-0.00101207 0.0769658 0)
(-0.0111511 0.0745824 0)
(-0.0190898 0.0683259 0)
(-0.0238075 0.0592027 0)
(-0.0249473 0.0484158 0)
(-0.0227116 0.0369631 0)
(-0.0176328 0.0254222 0)
(-0.0142622 0.0192584 0)
(0.0128437 0.110916 0)
(-0.00255117 0.112764 0)
(-0.0168365 0.109258 0)
(-0.0281482 0.100771 0)
(-0.0352394 0.0885711 0)
(-0.0376409 0.0741173 0)
(-0.0355307 0.0586329 0)
(-0.0294703 0.0428458 0)
(-0.0254561 0.0341625 0)
(0.0146606 0.14514 0)
(-0.00480882 0.146843 0)
(-0.0227568 0.142258 0)
(-0.037133 0.132 0)
(-0.0465814 0.117482 0)
(-0.050561 0.100291 0)
(-0.049204 0.0817707 0)
(-0.0430485 0.0627281 0)
(-0.0390699 0.0519108 0)
(0.0152729 0.178058 0)
(-0.00785283 0.179364 0)
(-0.0290723 0.173772 0)
(-0.0462727 0.162112 0)
(-0.058064 0.14588 0)
(-0.0638681 0.126714 0)
(-0.0637727 0.106005 0)
(-0.0582788 0.0845962 0)
(-0.0549713 0.0720059 0)
(0.0146382 0.209758 0)
(-0.0117896 0.210458 0)
(-0.0359638 0.203942 0)
(-0.0557985 0.191182 0)
(-0.0699231 0.173714 0)
(-0.0777505 0.153183 0)
(-0.0793299 0.130986 0)
(-0.075139 0.107975 0)
(-0.0730758 0.093926 0)
(0.0126553 0.240311 0)
(-0.0167614 0.240253 0)
(-0.0436336 0.232883 0)
(-0.0659544 0.219256 0)
(-0.0824103 0.200921 0)
(-0.092424 0.179501 0)
(-0.0960222 0.156377 0)
(-0.0936742 0.132392 0)
(-0.0933548 0.117126 0)
(0.00916654 0.269775 0)
(-0.0229677 0.268841 0)
(-0.0523233 0.260667 0)
(-0.0770173 0.24636 0)
(-0.0958082 0.227429 0)
(-0.108149 0.205472 0)
(-0.114059 0.181845 0)
(-0.114008 0.157368 0)
(-0.115863 0.14105 0)
(0.00394254 0.298205 0)
(-0.0306663 0.296293 0)
(-0.0623293 0.287342 0)
(-0.089305 0.272476 0)
(-0.110445 0.253149 0)
(-0.125242 0.230889 0)
(-0.133716 0.207035 0)
(-0.136356 0.182397 0)
(-0.14075 0.165097 0)
(-0.00334952 0.325612 0)
(-0.0401983 0.322606 0)
(-0.0739891 0.312858 0)
(-0.103161 0.29749 0)
(-0.126677 0.277891 0)
(-0.144072 0.255476 0)
(-0.155359 0.231538 0)
(-0.16103 0.206884 0)
(-0.168259 0.188538 0)
(-0.0131388 0.351899 0)
(-0.0519573 0.347633 0)
(-0.0876918 0.337029 0)
(-0.118984 0.321159 0)
(-0.144923 0.301317 0)
(-0.16508 0.278802 0)
(-0.179431 0.254795 0)
(-0.188458 0.230092 0)
(-0.198758 0.21046 0)
(-0.0259615 0.376779 0)
(-0.0664445 0.371071 0)
(-0.103941 0.359522 0)
(-0.137296 0.343091 0)
(-0.165718 0.322927 0)
(-0.188801 0.300191 0)
(-0.206494 0.275967 0)
(-0.219221 0.25101 0)
(-0.232788 0.229677 0)
(-0.0425145 0.399704 0)
(-0.0843071 0.39236 0)
(-0.123335 0.379721 0)
(-0.158667 0.362585 0)
(-0.189632 0.341897 0)
(-0.215856 0.318635 0)
(-0.237229 0.293766 0)
(-0.25405 0.268016 0)
(-0.271038 0.244298 0)
(-0.0633379 0.419472 0)
(-0.105935 0.410286 0)
(-0.146186 0.396354 0)
(-0.18338 0.378257 0)
(-0.216958 0.356698 0)
(-0.246556 0.332417 0)
(-0.271975 0.306188 0)
(-0.293349 0.278629 0)
(-0.313875 0.251313 0)
(-0.0880243 0.433018 0)
(-0.130649 0.421929 0)
(-0.171549 0.406549 0)
(-0.21022 0.38719 0)
(-0.246218 0.36423 0)
(-0.27918 0.338094 0)
(-0.308819 0.30924 0)
(-0.335008 0.278073 0)
(-0.358766 0.24522 0)
(-0.10138 0.438727 0)
(-0.143894 0.426678 0)
(-0.185023 0.410519 0)
(-0.22437 0.390407 0)
(-0.261556 0.366535 0)
(-0.296223 0.339133 0)
(-0.328038 0.308465 0)
(-0.356693 0.274826 0)
(-0.381913 0.238541 0)
(0 0 0)
(0 0 0)
(0 0 0)
(0 0 0)
(0 0 0)
(0 0 0)
(0 0 0)
(0 0 0)
(-0.00766575 0.00996759 0)
(-0.0116742 0.013676 0)
(-0.0160228 0.0161041 0)
(-0.0207945 0.01713 0)
(-0.0258552 0.0166039 0)
(-0.0308261 0.0144143 0)
(-0.0351533 0.0106211 0)
(-0.0381578 0.00554676 0)
(-0.0181738 0.0230665 0)
(-0.0259504 0.0293233 0)
(-0.0343883 0.0330849 0)
(-0.0435571 0.0341715 0)
(-0.0531103 0.0323356 0)
(-0.0623006 0.0274499 0)
(-0.0700867 0.019719 0)
(-0.075291 0.00982521 0)
(-0.0312373 0.0386931 0)
(-0.0424879 0.0463281 0)
(-0.0546899 0.0503939 0)
(-0.0677966 0.0506734 0)
(-0.0812105 0.0468744 0)
(-0.0938343 0.0389237 0)
(-0.104234 0.0272308 0)
(-0.110909 0.0128399 0)
(-0.0467421 0.0564326 0)
(-0.061192 0.0643483 0)
(-0.0768085 0.0677642 0)
(-0.09337 0.0664567 0)
(-0.110007 0.0601345 0)
(-0.125317 0.0488396 0)
(-0.137574 0.0332154 0)
(-0.145133 0.0146403 0)
(-0.0645895 0.0758446 0)
(-0.081963 0.0830142 0)
(-0.100632 0.0849119 0)
(-0.120143 0.0813259 0)
(-0.139369 0.072014 0)
(-0.156659 0.0571734 0)
(-0.170112 0.037688 0)
(-0.17805 0.0152249 0)
(-0.0847014 0.0964562 0)
(-0.104728 0.101942 0)
(-0.12606 0.101534 0)
(-0.148002 0.0950633 0)
(-0.169191 0.0823793 0)
(-0.187801 0.0638596 0)
(-0.201879 0.0406212 0)
(-0.20976 0.0145527 0)
(-0.107042 0.117769 0)
(-0.129438 0.120714 0)
(-0.153027 0.117297 0)
(-0.176868 0.107422 0)
(-0.199403 0.0910637 0)
(-0.218718 0.0687915 0)
(-0.232884 0.0419299 0)
(-0.240327 0.0125245 0)
(-0.131635 0.139252 0)
(-0.156094 0.138869 0)
(-0.181504 0.131819 0)
(-0.206693 0.118099 0)
(-0.229969 0.097839 0)
(-0.249404 0.0717986 0)
(-0.263146 0.0414702 0)
(-0.269813 0.00898586 0)
(-0.158597 0.160332 0)
(-0.184774 0.155895 0)
(-0.211527 0.14465 0)
(-0.237482 0.126714 0)
(-0.260876 0.102394 0)
(-0.279827 0.0726278 0)
(-0.292658 0.0390211 0)
(-0.298266 0.00371191 0)
(-0.18812 0.180282 0)
(-0.215628 0.171137 0)
(-0.243175 0.155201 0)
(-0.269234 0.132754 0)
(-0.292059 0.104295 0)
(-0.309917 0.0709102 0)
(-0.321404 0.0342486 0)
(-0.325696 -0.00362542 0)
(-0.220482 0.198136 0)
(-0.248822 0.18367 0)
(-0.276494 0.162627 0)
(-0.301911 0.135483 0)
(-0.323444 0.102924 0)
(-0.339609 0.0661202 0)
(-0.34931 0.0266916 0)
(-0.351995 -0.0134426 0)
(-0.256104 0.212628 0)
(-0.284606 0.192258 0)
(-0.311564 0.165782 0)
(-0.335449 0.133891 0)
(-0.354872 0.0974146 0)
(-0.368686 0.0575363 0)
(-0.376116 0.0157483 0)
(-0.37687 -0.026253 0)
(-0.295451 0.221799 0)
(-0.323136 0.195054 0)
(-0.348247 0.163042 0)
(-0.369489 0.126617 0)
(-0.385857 0.0866528 0)
(-0.396598 0.0442439 0)
(-0.401262 0.000649103 0)
(-0.399768 -0.0427405 0)
(-0.3385 0.22252 0)
(-0.363826 0.189266 0)
(-0.385506 0.152116 0)
(-0.402764 0.111864 0)
(-0.415064 0.0692723 0)
(-0.422038 0.025208 0)
(-0.423506 -0.0193749 0)
(-0.419503 -0.0634666 0)
(-0.381777 0.209822 0)
(-0.402399 0.171372 0)
(-0.418916 0.130636 0)
(-0.431047 0.0881514 0)
(-0.438603 0.0444516 0)
(-0.441464 0.000112895 0)
(-0.439587 -0.0442623 0)
(-0.433026 -0.0880608 0)
(-0.403455 0.199958 0)
(-0.421112 0.15945 0)
(-0.434713 0.117406 0)
(-0.444127 0.074231 0)
(-0.449265 0.0303415 0)
(-0.450075 -0.0138403 0)
(-0.446552 -0.0578887 0)
(-0.438727 -0.10138 0)
(0 0 0)
(0 0 0)
(0 0 0)
(0 0 0)
(0 0 0)
(0 0 0)
(0 0 0)
(0 0 0)
(-0.00766575 0.00996759 0)
(-0.0116742 0.013676 0)
(-0.0160228 0.0161041 0)
(-0.0207945 0.01713 0)
(-0.0258552 0.0166039 0)
(-0.0308261 0.0144143 0)
(-0.0351533 0.0106211 0)
(-0.0381578 0.00554676 0)
(-0.0181738 0.0230665 0)
(-0.0259504 0.0293233 0)
(-0.0343883 0.0330849 0)
(-0.0435571 0.0341715 0)
(-0.0531103 0.0323356 0)
(-0.0623006 0.0274499 0)
(-0.0700867 0.019719 0)
(-0.075291 0.00982521 0)
(-0.0312373 0.0386931 0)
(-0.0424879 0.0463281 0)
(-0.0546899 0.0503939 0)
(-0.0677966 0.0506734 0)
(-0.0812105 0.0468744 0)
(-0.0938343 0.0389237 0)
(-0.104234 0.0272308 0)
(-0.110909 0.0128399 0)
(-0.0467421 0.0564326 0)
(-0.061192 0.0643483 0)
(-0.0768085 0.0677642 0)
(-0.09337 0.0664567 0)
(-0.110007 0.0601345 0)
(-0.125317 0.0488396 0)
(-0.137574 0.0332154 0)
(-0.145133 0.0146403 0)
(-0.0645895 0.0758446 0)
(-0.081963 0.0830142 0)
(-0.100632 0.0849119 0)
(-0.120143 0.0813259 0)
(-0.139369 0.072014 0)
(-0.156659 0.0571734 0)
(-0.170112 0.037688 0)
(-0.17805 0.0152249 0)
(-0.0847014 0.0964562 0)
(-0.104728 0.101942 0)
(-0.12606 0.101534 0)
(-0.148002 0.0950633 0)
(-0.169191 0.0823793 0)
(-0.187801 0.0638596 0)
(-0.201879 0.0406212 0)
(-0.20976 0.0145527 0)
(-0.107042 0.117769 0)
(-0.129438 0.120714 0)
(-0.153027 0.117297 0)
(-0.176868 0.107422 0)
(-0.199403 0.0910637 0)
(-0.218718 0.0687915 0)
(-0.232884 0.0419299 0)
(-0.240327 0.0125245 0)
(-0.131635 0.139252 0)
(-0.156094 0.138869 0)
(-0.181504 0.131819 0)
(-0.206693 0.118099 0)
(-0.229969 0.097839 0)
(-0.249404 0.0717986 0)
(-0.263146 0.0414702 0)
(-0.269813 0.00898586 0)
(-0.158597 0.160332 0)
(-0.184774 0.155895 0)
(-0.211527 0.14465 0)
(-0.237482 0.126714 0)
(-0.260876 0.102394 0)
(-0.279827 0.0726278 0)
(-0.292658 0.0390211 0)
(-0.298266 0.00371191 0)
(-0.18812 0.180282 0)
(-0.215628 0.171137 0)
(-0.243175 0.155201 0)
(-0.269234 0.132754 0)
(-0.292059 0.104295 0)
(-0.309917 0.0709102 0)
(-0.321404 0.0342486 0)
(-0.325696 -0.00362542 0)
(-0.220482 0.198136 0)
(-0.248822 0.18367 0)
(-0.276494 0.162627 0)
(-0.301911 0.135483 0)
(-0.323444 0.102924 0)
(-0.339609 0.0661202 0)
(-0.34931 0.0266916 0)
(-0.351995 -0.0134426 0)
(-0.256104 0.212628 0)
(-0.284606 0.192258 0)
(-0.311564 0.165782 0)
(-0.335449 0.133891 0)
(-0.354872 0.0974146 0)
(-0.368686 0.0575363 0)
(-0.376116 0.0157483 0)
(-0.37687 -0.026253 0)
(-0.295451 0.221799 0)
(-0.323136 0.195054 0)
(-0.348247 0.163042 0)
(-0.369489 0.126617 0)
(-0.385857 0.0866528 0)
(-0.396598 0.0442439 0)
(-0.401262 0.000649103 0)
(-0.399768 -0.0427405 0)
(-0.3385 0.22252 0)
(-0.363826 0.189266 0)
(-0.385506 0.152116 0)
(-0.402764 0.111864 0)
(-0.415064 0.0692723 0)
(-0.422038 0.025208 0)
(-0.423506 -0.0193749 0)
(-0.419503 -0.0634666 0)
(-0.381777 0.209822 0)
(-0.402399 0.171372 0)
(-0.418916 0.130636 0)
(-0.431047 0.0881514 0)
(-0.438603 0.0444516 0)
(-0.441464 0.000112895 0)
(-0.439587 -0.0442623 0)
(-0.433026 -0.0880608 0)
(-0.403455 0.199958 0)
(-0.421112 0.15945 0)
(-0.434713 0.117406 0)
(-0.444127 0.074231 0)
(-0.449265 0.0303415 0)
(-0.450075 -0.0138403 0)
(-0.446552 -0.0578887 0)
(-0.438727 -0.10138 0)
)
;

boundaryField
{
    walls
    {
        type            fixedValue;
        value           uniform (0 0 0);
    }
    cylinder
    {
        type            solidBodyMotionDisplacement;
        value           nonuniform List<vector> 
34
(
(-0.10138 0.438727 0)
(-0.10138 0.438727 0)
(-0.143894 0.426678 0)
(-0.143894 0.426678 0)
(-0.185023 0.410519 0)
(-0.185023 0.410519 0)
(-0.22437 0.390407 0)
(-0.22437 0.390407 0)
(-0.261556 0.366535 0)
(-0.261556 0.366535 0)
(-0.296223 0.339133 0)
(-0.296223 0.339133 0)
(-0.328038 0.308465 0)
(-0.328038 0.308465 0)
(-0.356693 0.274826 0)
(-0.356693 0.274826 0)
(-0.381913 0.238541 0)
(-0.381913 0.238541 0)
(-0.403455 0.199958 0)
(-0.403455 0.199958 0)
(-0.421112 0.15945 0)
(-0.421112 0.15945 0)
(-0.434713 0.117406 0)
(-0.434713 0.117406 0)
(-0.444127 0.074231 0)
(-0.444127 0.074231 0)
(-0.449265 0.0303415 0)
(-0.449265 0.0303415 0)
(-0.450075 -0.0138403 0)
(-0.450075 -0.0138403 0)
(-0.446552 -0.0578887 0)
(-0.446552 -0.0578887 0)
(-0.438727 -0.10138 0)
(-0.438727 -0.10138 0)
)
;
        solidBodyMotionFunction oscillatingRotatingMotion;
        oscillatingRotatingMotionCoeffs
        {
            origin          ( 0 0 0 );
            axis            ( 0 0 1 );
            omega           1.5;
            amplitude       ( 0 0 30 );
        }
    }
    outlet
    {
        type            fixedValue;
        value           uniform (0 0 0);
    }
    inlet
    {
        type            fixedValue;
        value           nonuniform List<vector> 0();
    }
    frontAndBack
    {
        type            empty;
    }
    procBoundary3to1
    {
        type            processor;
    }
    procBoundary3to2
    {
        type            processor;
    }
}


// ************************************************************************* //
