/*--------------------------------*- C++ -*----------------------------------*\
| =========                 |                                                 |
| \\      /  F ield         | OpenFOAM: The Open Source CFD Toolbox           |
|  \\    /   O peration     | Version:  2412                                  |
|   \\  /    A nd           | Website:  www.openfoam.com                      |
|    \\/     M anipulation  |                                                 |
\*---------------------------------------------------------------------------*/
FoamFile
{
    version     2.0;
    format      ascii;
    arch        "LSB;label=32;scalar=64";
    class       volScalarField;
    location    "41.8";
    object      p;
}
// * * * * * * * * * * * * * * * * * * * * * * * * * * * * * * * * * * * * * //

dimensions      [0 2 -2 0 0 0 0];

internalField   nonuniform List<scalar> 
808
(
0.132529
0.0367525
-0.029973
0.131861
-0.214843
0.0368547
0.0346601
0.0306945
-0.102608
0.00319941
0.00438056
-0.123036
0.0282062
0.0322244
-0.362018
0.0243609
-0.402818
0.0304873
0.0142085
0.0310159
0.0057184
0.372717
0.0730673
0.017266
0.451178
-0.182442
-0.0410788
0.0103303
0.0390728
0.0234033
0.027926
0.0395206
0.0286011
0.0222626
-0.0445137
0.628522
0.0305834
0.0277071
0.034248
0.0204326
-0.0181798
-0.0397865
0.0429695
0.0309663
-0.177977
0.0891936
0.0302032
0.0228356
0.0268641
-0.13732
0.0352628
0.0370146
0.0497319
0.0202353
-0.0988612
0.0246278
0.00981844
0.0144765
0.00295727
0.0250422
-0.337532
0.0182349
0.0416214
-0.120093
0.0246782
0.0523197
-0.203845
0.0210682
0.0201456
-0.269367
0.0308161
-0.308342
0.0327203
0.0362355
0.194711
0.0294044
0.0177244
-0.0979369
0.028789
0.304314
-0.125262
0.0249914
0.0418875
0.281257
0.0362433
-0.00160272
-0.348467
-0.12277
0.0447628
-0.235934
0.057042
-0.0748523
0.250297
0.156242
0.044236
-0.129202
0.0149266
-0.128149
-0.0747225
-0.136402
0.0310527
0.0242311
0.057065
0.00440453
-0.0376981
0.0614481
-0.210969
0.00410085
0.028086
0.0428363
-0.0391736
0.324014
0.032715
0.0451305
0.0241348
0.452369
0.0331335
-0.251424
0.0278102
0.0736765
-0.181691
0.0467454
0.031579
0.0746845
0.108626
-0.0662071
0.121605
0.0413669
0.0507095
0.0699187
-0.192028
0.0284062
-0.0134884
0.116463
0.0317921
0.0281209
0.0664337
0.0218436
0.0371478
0.0306484
-0.33031
0.0628332
-0.0086839
0.0301104
-0.0447548
0.0995929
0.11059
0.168123
0.0473009
0.0367293
0.0304826
0.335782
0.0485116
0.532491
-0.335576
-0.110919
0.0323648
-0.230377
0.043051
-0.125732
-0.301951
-0.3269
-0.24501
0.0376269
0.0653098
0.0283294
0.0406681
-0.251384
0.0288718
0.0276068
0.0566987
0.155088
0.0500401
0.13309
0.0348044
0.0851738
0.071976
-0.118075
0.0346736
-0.340228
0.0280394
-0.162731
0.0359257
0.271255
-0.433712
0.118119
0.0295003
-0.0886054
0.0340472
-0.0515829
-0.339666
-0.0286613
0.0290674
0.0968003
0.0367911
-0.326081
0.0299577
0.0351484
0.0012422
0.0776605
0.0826486
0.029945
0.0278716
-0.322769
0.371661
-0.299644
-0.297357
0.0121966
-0.0409825
0.0322031
-0.0242707
-0.397968
-0.135157
0.0322005
-0.0686055
0.0313732
-0.317062
-0.0589305
-0.0376328
0.0471851
-0.0464538
-0.108248
0.0357594
0.0331648
0.00955014
0.0294955
0.125404
-0.165426
0.0321597
0.0311731
0.11648
0.031751
0.0341718
0.0240886
-0.113644
-0.0264858
0.00973034
-0.00445504
-0.0354593
0.0131495
-0.0114874
-0.0124088
-0.0203278
0.00632992
-0.00206089
0.0110962
-0.00732532
-0.00496966
-0.00510658
0.0971208
-0.304293
0.0147061
0.0275131
-0.0478959
0.0244426
0.0223878
0.0434751
0.00300627
0.0325776
0.121764
0.0747816
-0.0141657
0.0159702
0.00762549
0.0132232
0.0292229
0.0350837
0.0691208
0.0235066
-0.0167454
-0.0521214
-0.3969
0.268417
0.0270553
0.0176519
0.0238921
0.00366997
0.0202931
-0.0818252
0.284455
0.0439574
-0.0548555
-0.0172642
0.101011
-0.0856688
0.0358063
0.0126881
0.0260475
0.00908582
0.0414012
0.0355222
0.0324384
0.00799812
-0.000109765
0.0243034
0.0335908
-0.0404292
0.0556869
0.0751879
0.0320491
0.0155968
0.0317065
-0.0196188
0.0141198
-0.484128
-0.0975251
-0.0197108
-0.0876315
-0.133446
-0.392542
0.0727092
0.0343237
-0.299562
0.141177
0.16782
0.035436
0.0371332
0.0411187
0.00696076
-0.203988
0.0565666
0.00879831
0.0318063
0.0243772
0.00128252
0.0442776
0.00571297
0.0274287
0.0166782
-0.307367
-0.180606
0.0182373
-0.0823713
-0.00974388
0.0233173
0.227358
0.0498873
-0.111824
0.549557
-0.0432165
0.00945224
0.0349321
-0.00285055
-0.0574565
-0.00499449
0.0383341
0.0544457
0.0617157
-0.0230331
-0.28235
0.0041616
0.103247
-0.0274841
-0.310749
-0.297062
-0.200735
-0.294728
-0.0588604
0.0379386
0.0540456
0.0741043
0.00404848
0.014374
0.052295
0.0177964
-0.481705
-0.0878368
0.0502712
0.00973652
-0.0992694
-0.0715718
0.00345411
0.126397
-0.317206
-0.0175698
-0.0256743
-0.0139224
-0.0423072
-0.302556
0.0257878
-0.338885
0.0186409
-0.0338468
0.00881498
0.0308465
0.0336663
0.0605774
-0.33609
0.025432
0.0494364
0.0112079
0.0705662
0.0158548
0.0384282
0.0429049
0.0134853
0.100139
0.0528986
0.0186561
0.0261466
-0.0679141
-0.126564
0.0526331
0.00936499
-0.0608794
0.0161304
0.432211
-0.173959
-0.0144534
-0.136519
0.0220471
0.0328329
0.0338192
0.09623
0.0169222
-0.0729366
-0.0258751
0.0337321
-0.0015422
-0.00472441
-0.00930301
-0.0088242
0.0198332
0.129128
0.0149335
0.0156954
0.0212247
0.00959455
-0.0385241
0.0386657
-0.353209
0.0434377
0.0716175
-0.0236355
-0.217749
-0.298246
0.0165295
-0.0652801
-0.0618036
0.0400391
-0.150764
-0.185509
0.192612
-0.314016
-0.432212
-0.151507
-0.187544
-0.0892067
-0.187884
0.354343
0.0312292
-0.313795
0.0253591
-0.0320388
0.591261
0.0235265
0.0328638
0.0344922
0.101358
0.0133209
-0.390045
-0.347016
0.0668126
0.0791434
0.0375533
-0.240647
-0.281939
-0.271656
0.0347336
0.054282
0.0944899
0.00800839
0.0567255
0.0802411
0.146817
0.0382057
-0.0896634
-0.318646
0.0673639
-0.0707664
0.0339105
0.00876211
0.0941622
-0.0518187
-0.00286047
-0.454921
0.456499
-0.0784335
-0.310319
-0.000895893
-0.0484565
-0.321741
-0.3178
0.134175
-0.324025
-0.11932
0.870752
0.028191
-0.357071
0.0255375
-0.152362
-0.0153627
-0.424268
-0.373048
-0.282158
0.0288681
-0.0964798
-0.357971
-0.0032442
-0.00685581
0.0848576
-0.296848
0.0280781
-0.483512
-0.350995
-0.413964
-0.234844
-0.0743293
0.0172401
0.107245
0.139168
-0.0205216
-0.296483
0.314816
0.0568728
0.0186136
-0.431064
-0.482918
-0.318148
-0.00133229
-0.345354
0.0587261
0.105664
0.105214
-0.0783657
-0.201845
0.00949978
-0.293134
-0.334037
0.00710969
0.0169288
-0.183413
0.00192058
0.0323439
-0.367694
-0.302813
-0.0330134
0.0946589
0.0426294
-0.315012
-0.332858
-0.0309619
-0.224352
0.0353341
0.0988862
0.0189024
-0.0939247
-0.317676
0.0959399
0.0466072
-0.137019
0.0213919
0.0565209
-0.355392
-0.00502478
-0.229976
0.0664672
-0.503289
-0.00551947
7.90923e-05
-0.392325
-0.488003
0.00783342
-0.442718
-0.446929
0.023883
-0.112228
-0.324332
0.0295361
-0.290563
0.029758
0.0689028
0.0816531
-0.473528
0.0926646
-0.032779
-0.49278
-0.012244
-0.337377
0.0292719
-0.278597
-0.544998
0.112339
0.260403
0.444845
-0.0304026
0.0051638
-0.000264672
-0.338708
0.644434
0.030675
-0.246593
0.0421896
-0.0341876
0.0960821
0.476599
-0.395805
-0.0229681
-0.03695
0.0312089
0.0247981
-0.484261
-0.302392
-0.301635
-0.434589
-0.246884
0.0208211
-0.325582
0.0203859
-0.291157
-0.353958
0.48688
0.575697
-0.395156
0.126642
-0.318842
0.00362502
-0.22679
0.379643
-0.148973
-0.31153
-0.185202
-0.546805
-0.0232685
-0.218672
-0.0434465
-0.332034
-0.299152
0.00317872
0.00403382
-0.322935
0.470344
0.671772
-0.284412
-0.336968
-0.310264
-0.0505254
-0.324424
-0.330255
-0.218289
-0.311292
0.739667
-0.361204
0.762567
-0.397022
0.337958
-0.295747
0.00924327
0.164457
-0.534136
0.254192
-0.307666
-0.334683
-0.363989
0.868664
-0.312571
0.221884
0.161552
0.657433
0.138609
-0.485456
-0.319693
-0.0598775
0.0117177
0.0591297
0.548099
0.0221744
-0.0218325
-0.326644
0.0842134
-0.105595
-0.155095
0.0138586
-0.524774
-0.126604
-0.194798
-0.364797
0.01655
0.12
0.0155846
0.0740182
0.121512
-0.354872
-0.396275
-0.0602945
0.0110484
-0.503136
-0.548888
0.148911
0.187518
0.106603
0.656052
-0.0637821
-0.38907
-0.415953
-0.316128
-0.0440101
0.0647429
0.759047
-0.485752
0.395237
0.0107803
-0.460366
0.15037
-0.107937
0.39918
-0.174869
0.0239718
-0.335008
-0.0522193
0.218845
0.827683
0.342022
0.751411
-0.285179
-0.312808
-0.408608
0.148656
0.266279
0.0638746
0.367938
0.165528
0.501383
0.261212
-0.0928787
-0.170181
0.0384752
-0.480061
0.886904
0.416877
0.631754
0.514268
-0.300163
-0.29372
-0.323982
-0.303683
0.0514621
-0.38104
0.124359
0.589713
-0.311877
0.027363
-0.295904
0.18289
-0.34423
-0.395604
-0.0634163
-0.306745
-0.43061
-0.345008
-0.341752
-0.0394921
-0.412746
-0.110287
-0.299184
0.139677
0.6761
-0.242155
-0.318092
0.819616
-0.318906
0.299952
-0.256581
0.416113
0.106053
-0.231962
-0.428967
0.423452
-0.253849
-0.349841
0.205142
-0.305707
0.00485226
-0.321889
-0.14858
0.00582262
0.581351
0.785669
-0.324593
0.238126
-0.384872
0.823396
0.0128771
-0.337411
0.000591941
0.775666
0.205842
-0.346615
-0.326256
0.467917
-0.230533
0.0236215
0.331579
0.253737
0.305313
-0.27435
-0.373862
0.691988
)
;

boundaryField
{
    FrontBack
    {
        type            empty;
    }
    Top
    {
        type            zeroGradient;
    }
    In
    {
        type            zeroGradient;
    }
    Bottom
    {
        type            zeroGradient;
    }
    Out
    {
        type            fixedValue;
        value           uniform 0;
    }
    circle
    {
        type            zeroGradient;
    }
}


// ************************************************************************* //
