/*--------------------------------*- C++ -*----------------------------------*\
| =========                 |                                                 |
| \\      /  F ield         | OpenFOAM: The Open Source CFD Toolbox           |
|  \\    /   O peration     | Version:  2412                                  |
|   \\  /    A nd           | Website:  www.openfoam.com                      |
|    \\/     M anipulation  |                                                 |
\*---------------------------------------------------------------------------*/
FoamFile
{
    version     2.0;
    format      ascii;
    arch        "LSB;label=32;scalar=64";
    class       surfaceScalarField;
    location    "41.8";
    object      phi;
}
// * * * * * * * * * * * * * * * * * * * * * * * * * * * * * * * * * * * * * //

dimensions      [0 3 -1 0 0 0 0];

oriented        oriented;

internalField   nonuniform List<scalar> 
1171
(
-0.945494
0.945494
0.766764
-1.06444
0.297676
-0.233136
-0.834991
1.06813
0.0545059
-0.0714798
-0.270514
0.341993
-0.766764
0.0719898
0.694775
0.896326
-0.183128
-0.713198
0.82521
-1.02794
0.202731
-0.345044
-0.0428307
0.387875
-0.00298298
0.594778
-0.591795
-0.623637
1.07626
-0.452625
-0.416524
0.989069
-0.163859
0.310097
0.0777819
-0.387879
0.993841
-0.0047719
0.381832
-0.0717348
1.0118
-0.0179633
0.751871
-0.985007
-0.783823
0.611124
0.172699
0.276458
-0.900095
0.560946
-0.916246
0.3553
-1.07807
0.664013
0.41406
-0.639984
0.637001
0.0387882
-0.260761
0.221973
-0.00459294
-0.647804
0.652397
0.458071
-0.500902
-0.866938
0.920665
-0.0537269
1.03106
-0.0192538
0.932584
-1.0907
0.158113
1.05908
-0.028019
-0.696233
-0.0875901
1.26799
-0.868601
-0.399392
0.192139
-0.07276
-0.400966
0.473726
-0.276401
0.180401
0.096
-0.591366
-0.473075
0.988249
-0.0556643
-0.0152185
0.853557
-0.838339
0.503912
0.764082
0.522018
0.0185297
0.439542
-0.776066
-0.111747
0.887813
0.610578
0.242918
-0.853496
-0.0549286
0.686658
-0.631729
-0.506531
-0.571542
-0.393748
-0.69695
0.0204154
0.246082
-0.266497
-0.939395
-0.0346573
0.974053
0.362218
0.0256572
0.86348
0.0328463
-0.597555
-0.0424286
0.046803
-0.822869
0.168822
0.96615
-1.13497
-0.407187
0.0177128
0.389474
-0.714025
-0.225371
-0.794135
0.962957
0.613478
0.462784
-0.573266
0.995183
-0.819259
-0.175923
0.11079
-0.169549
0.0587597
-0.450139
-0.0507636
-0.34513
0.958608
-0.00398439
0.418558
-0.414574
-0.519574
1.13015
0.701293
-0.81304
0.370125
-0.0551574
-0.314967
0.776582
-0.776582
-0.972199
0.0452674
-0.315781
-0.688297
0.673078
-0.039933
-0.144323
0.184256
0.874564
-0.0210068
1.05836
-0.815437
0.216774
-0.31496
0.098186
0.980266
-0.116787
-0.675006
-0.0548371
0.729843
0.152145
-0.236907
0.0847617
0.806753
-0.989881
-0.447915
0.3133
0.134614
0.649846
-0.654439
0.892569
-0.404196
-0.488373
0.498821
-0.6955
0.0388216
0.656678
0.12677
0.66815
0.0398875
-0.708037
0.139942
-0.0946749
-0.519987
0.1128
0.0360782
-0.902313
0.866235
-0.570022
-0.756947
0.0607138
0.489105
-0.0495632
0.27309
-0.832036
0.558946
0.424182
0.575818
0.59941
-0.552607
-0.36614
-0.00498221
0.371123
0.549
0.227582
-0.688891
0.633962
0.0881385
0.878742
0.00585655
-0.680862
-0.764413
0.800492
0.613313
0.13073
0.326239
-0.456969
-0.158856
0.521824
0.164834
0.695055
-0.878705
0.18365
0.653393
0.34179
-0.429723
0.716788
-0.586058
0.409126
0.151819
-0.060632
-0.570552
-0.241834
0.812386
-0.119648
-0.656935
-0.614664
0.367889
0.246775
0.659543
-0.653687
0.302061
1.04566
0.0126916
-0.764413
-0.0202646
0.131054
0.701293
0.783586
-0.783586
0.841599
-0.827481
-0.0141187
-0.456562
0.880745
-0.19502
-0.324967
0.76028
-0.668612
-0.0916675
-0.876512
0.30596
0.110181
-0.707736
0.81304
-0.971896
-0.186904
0.138022
0.0488825
0.110004
-0.993516
0.883512
0.536091
-0.0140722
-0.293794
0.598747
-0.304952
-0.653985
0.763989
-0.159716
0.75776
-0.622116
-0.135644
1.04213
-0.53942
-0.502713
0.722954
-0.069738
-0.0394281
0.0381789
0.0012492
-0.799376
-0.698153
-0.136838
-0.688297
0.577493
-0.55978
0.110866
0.57551
-0.686376
0.778532
0.166962
0.493822
0.506178
-0.104999
-0.598386
0.703386
0.761278
-0.0662229
-0.722954
0.800492
0.178217
-0.438978
0.0147883
-0.0395774
0.0247892
0.679558
-0.448848
-0.23071
0.694775
0.0206676
0.0596062
0.545697
0.133861
0.00105601
0.00449734
-0.00555335
-0.00308775
-0.0363404
0.153266
-0.208423
-0.943302
0.0521474
-0.14281
-0.0336384
0.135714
0.785022
0.743781
-0.167964
0.427416
-0.31655
-0.166178
0.382952
0.641293
0.0534816
0.231553
-1.05903
-0.971896
0.312654
0.673078
-0.16521
0.0208874
-0.83717
0.973313
-0.136144
0.490536
-0.101062
0.796497
0.3045
0.337454
0.0443778
-0.680524
0.680524
0.231073
0.656739
-0.0152453
0.433804
0.458481
0.062282
-0.0474937
0.546171
-0.0100802
-0.653985
0.567822
0.192457
0.0303342
0.0078447
-0.641293
0.144428
0.828885
-0.0062541
-0.717311
0.723565
0.757222
-0.8242
0.0669784
-0.778532
-0.0437695
0.0574606
-0.0136911
0.0837538
-0.132306
-0.111256
0.243562
-0.0109694
0.0120254
0.723958
-0.730212
0.910616
0.157512
-0.383679
-0.610628
0.994307
0.00087868
-0.00087868
0.13304
0.399318
0.673371
-1.07269
-0.184705
-0.564234
0.748939
-0.0138386
0.198094
0.389891
-0.237746
1.14738
-0.748062
0.822464
0.987139
-0.313768
0.194871
0.763989
0.60013
0.26233
0.658335
-0.656935
0.319476
0.0335282
-0.00896715
-0.024561
0.802148
0.23342
-1.03557
-0.582166
0.554147
0.543438
-0.582166
-0.60013
0.554147
-0.0390449
1.10743
-0.196815
-0.549
0.473765
0.0752351
0.515098
0.713382
-1.22848
0.365258
0.782123
0.784501
0.424702
-1.2092
0.284904
0.702236
0.473765
-0.53144
-0.601833
-0.626049
-0.252381
-0.0466058
-0.00225554
0.00225554
0.440299
0.6254
-0.877781
0.702864
-0.376625
-0.96726
0.42784
-0.686246
0.460876
0.00536699
-0.843156
0.837789
0.449987
-0.0813747
0.883522
-1.17781
-0.955665
0.100973
0.854692
0.567062
-0.214019
-0.353043
0.803362
-0.859026
1.12651
-0.84479
-0.28172
-0.186365
-0.69234
-0.134712
0.748793
-0.614082
-1.0846
0.898234
-0.417722
0.720591
-0.302869
-0.897485
0.147156
0.750329
0.00507034
-0.00419166
0.42491
0.0513044
-0.994138
0.942833
-0.738106
0.633106
0.944946
0.233982
-1.17893
-0.0107186
0.00331307
0.367809
-0.357391
0.0424318
0.904713
-0.899346
-0.739974
-1.00714
0.314802
-0.0765626
-0.95824
0.11345
0.553365
-0.125949
0.358918
0.208144
-0.599301
0.746458
0.488373
-0.924531
-0.850617
0.256813
0.15622
0.556357
-0.712578
-0.120451
-0.583753
0.581647
0.175575
0.042944
0.840578
0.999207
1.01339
-0.899941
0.048009
-0.048009
-0.108742
-0.472793
0.258774
0.326435
-0.0137811
0.358121
0.720127
-0.0287067
0.0177373
0.657619
0.342381
0.798322
-0.591366
-0.761956
-0.479158
-0.50042
0.50042
-0.203613
-0.112168
0.727311
-0.935659
0.208348
-0.525749
-0.554306
0.351617
-1.04857
-0.95693
0.67521
-0.509655
0.824457
0.703824
0.142753
-0.846576
-0.782028
-0.16792
0.807347
-0.639427
0.236803
-0.0231161
0.00484654
0.0182696
-0.193347
-0.279446
1.07893
0.810212
-0.477718
-0.332494
0.457169
0.732524
-0.501451
0.00781006
-0.284211
0.130513
0.762421
-0.892934
-0.344743
-0.104143
0.128644
-1.00536
-0.0302025
-0.792906
0.0198932
0.741833
-0.761727
-0.807772
0.0148659
0.655262
-0.759405
0.238373
-0.370679
-0.562188
-0.21984
0.374213
0.733883
-0.017095
0.0115333
-0.0115333
0.00224179
0.0667969
-0.0332687
-0.0205625
-0.00814419
-0.688137
0.31033
0.845429
-0.77468
-0.0707494
-0.662444
0.682337
0.735207
-0.079945
-0.674586
-0.133186
-1.1518
0.0202583
0.0277507
-0.557624
-0.809298
-0.904765
0.505373
-0.147539
0.0995486
0.0479908
-0.390972
-0.166651
0.447509
0.712125
-0.0456959
0.0120575
1.2252
0.510295
0.222803
-0.733098
-0.525814
0.134842
-0.0155357
-0.00758038
0.654541
-0.896375
0.00596223
-0.00596223
-0.729563
0.691827
0.0377362
-0.166896
-0.101403
-0.692205
0.151291
0.552095
-0.0576082
-0.860124
-0.17573
0.0878755
0.0878548
0.687035
-0.757784
0.344456
0.267228
-0.611684
-0.154757
-0.667577
-0.0941491
-0.219268
-0.0244397
0.463085
-0.513848
0.204549
0.709482
-0.914031
0.498821
-0.0685093
-0.0790301
0.387239
-0.411679
0.599884
-0.0931058
-0.506778
-0.282759
0.301261
-0.0185016
0.623562
0.0793016
0.0676296
-0.307516
0.164107
0.14341
-0.213729
0.193464
-0.246245
-0.17351
0.105492
0.0680176
0.792262
-0.345281
0.178385
0.54941
0.237461
-0.715179
0.429444
-0.429444
-0.213581
-0.406282
-0.221033
-0.406282
-0.673555
-0.848559
0.179947
-0.0865068
0.731493
0.0401037
0.134043
0.59984
0.109927
0.12118
0.00717328
-0.128353
0.00136865
0.702187
-0.982585
0.371957
-0.043057
0.09298
-0.049923
-0.719372
-0.170442
-0.609549
0.832353
-0.536246
-0.0808607
-0.330818
-0.328748
-0.0833398
0.0833398
0.0478685
0.00959212
0.141438
0.293013
-0.757605
0.148056
-0.0520242
0.46909
0.53091
0.700736
0.0464504
-0.0254552
-0.0209953
-0.293592
-0.566532
-0.616476
0.110342
-0.116089
0.00574712
-0.112568
-0.418073
-0.0382923
0.590387
-0.553381
-0.165992
-0.25041
0.0926162
0.198305
-0.483202
-0.19644
-0.197063
-0.01136
-0.4982
0.436161
0.0620384
-0.21306
0.291371
-0.862913
-0.535338
0.591756
-0.845196
0.690439
0.437117
-0.0341494
0.0617772
-0.0276278
-0.0754477
-0.638059
0.0119881
0.626071
-0.892072
0.627801
-0.736543
-0.307374
0.00919662
-0.00919662
-0.299706
0.407779
-0.0399695
0.048652
-0.00220161
0.596218
0.700733
-0.517082
0.00907459
0.0107276
0.000805685
0.00421374
-0.00421374
-0.507694
0.586995
0.0116791
-0.0116791
-0.766667
-0.0116469
0.0167173
-0.575924
0.723979
0.639051
-0.601315
0.0701271
-0.0701271
-0.0612519
0.0137582
0.00103069
-0.932984
0.430271
-0.459703
-0.00419166
0.580675
0.027043
-0.607718
-0.696987
0.143606
-0.320459
-0.014208
0.334667
-0.0365085
-0.00918736
-0.60103
-0.0370284
0.0277507
0.00582789
0.000134337
-0.00356642
0.00356642
-0.304085
0.372102
-0.453155
0.138781
0.659541
-0.133258
-0.00668678
0.00668678
0.507912
-0.275058
0.00831794
0.0185541
2.20769e-05
0.488071
-0.763129
-0.516308
0.694693
-0.051924
0.327718
0.753363
0.00224179
-0.107589
0.115434
-0.642076
0.55392
-0.40738
-0.116312
-0.0193831
-0.0252676
-0.0460176
0.448401
-0.0905354
-0.416243
0.669432
-0.0019582
0.00788882
-0.00788882
-0.108479
-0.0110716
-0.57519
0.615293
-0.145406
0.508211
-0.219902
0.971773
0.717053
0.00582789
-0.87037
0.776659
0.134835
-0.136347
0.00151217
0.481633
0.0941382
-0.0128632
0.0706436
-0.0577804
0.00929682
-0.00929682
-0.767886
0.0221181
-0.0467633
0.0653174
-0.0889406
0.0889406
0.0107276
-0.00444499
0.696616
0.132269
-0.321152
-0.0969208
-0.515278
-0.115575
-0.0688825
0.0688825
-0.0822472
0.0812715
-0.0812715
0.0278097
-0.0278097
-0.349578
-0.0801456
0.244336
0.0689648
0.0443212
-0.752473
-0.0692551
0.164333
0.0138842
-0.259826
0.0803815
-0.0803815
-0.461253
-0.0525951
0.236917
-0.0149443
0.00226148
-0.615799
0.654844
-0.0362478
-0.0459994
0.0710877
-0.0573295
-0.0111444
-0.156425
0.16757
-0.153534
-0.217145
-0.0837444
0.0837444
0.0572777
-0.0572777
-0.0320153
-0.0954506
0.127466
0.0208814
-0.184573
-0.0273441
0.0281498
-0.239838
0.61194
-0.0260621
0.484141
0.00387451
-0.00942786
-0.0530193
0.0530193
-0.724555
0.325121
-0.13025
-0.213085
-0.0238222
-0.0183626
0.0206241
0.210407
0.0331557
0.00304825
-0.00302617
0.0805695
0.0297729
0.0539381
0.110395
0.0122027
-0.000145268
0.00192659
0.00405854
0.00686936
0.0114069
-0.0182763
0.00283882
0.00191632
0.0297859
-0.0297859
0.052281
-0.0401701
0.0401701
-0.193285
-0.00536932
0.0183525
-0.076123
0.0185128
0.0756901
-0.0756901
0.272445
-0.246659
0.0931248
-0.069233
-0.177426
-0.0185412
0.0185412
0.402618
0.25406
-0.515755
-0.0817303
-0.0343592
0.541399
0.0919691
-0.0744334
-0.428549
0.0894173
-0.157739
0.174392
-0.0166534
-0.0459172
0.0459172
0.84278
-0.59591
-0.0165986
0.0194374
-0.00560074
-0.28261
-0.000890026
0.00519615
-0.0483677
-0.617762
0.567874
-0.672423
0.014862
0.231038
0.0158632
0.0252096
-0.16334
-0.337319
0.261196
-0.0595071
0.0274919
0.166156
0.135106
0.242546
0.271253
-0.25539
0.00700369
-0.116454
-0.227293
0.0707518
-0.0168137
0.166213
-0.141003
-0.0695011
0.150071
-0.405195
0.127013
-0.108501
0.0599558
-0.476198
0.179588
0.172579
-0.24208
0.00496456
-0.175817
0.174927
0.00469144
0.145379
-0.028491
0.0529314
0.45498
0.0112447
0.0305491
-0.0126561
0.0400498
-0.243946
-0.202705
0.589635
0.174981
0.0619359
0.083678
-0.0613344
0.0103489
-0.00883675
-0.0302203
0.170628
-0.155766
-0.0154686
0.0115512
-0.106235
-0.0304376
-0.0156138
0.253994
0.00856802
-0.0469806
-0.318207
-0.0145567
0.215011
0.144981
0.18014
0.057712
0.101404
0.0577646
0.538453
-0.0163497
0.0986705
0.047034
0.0628502
-0.109884
-0.261695
-0.202693
0.0252675
-0.222205
0.29294
)
;

boundaryField
{
    FrontBack
    {
        type            empty;
    }
    Top
    {
        type            calculated;
        value           uniform 0;
    }
    In
    {
        type            calculated;
        value           uniform -1;
    }
    Bottom
    {
        type            calculated;
        value           uniform 0;
    }
    Out
    {
        type            calculated;
        value           nonuniform List<scalar> 10(1.14976 1.04654 1.22788 1.06703 1.13808 0.954616 1.0657 1.08005 0.643025 0.627316);
    }
    circle
    {
        type            calculated;
        value           uniform 0;
    }
}


// ************************************************************************* //
