/*--------------------------------*- C++ -*----------------------------------*\
| =========                 |                                                 |
| \\      /  F ield         | OpenFOAM: The Open Source CFD Toolbox           |
|  \\    /   O peration     | Version:  2412                                  |
|   \\  /    A nd           | Website:  www.openfoam.com                      |
|    \\/     M anipulation  |                                                 |
\*---------------------------------------------------------------------------*/
FoamFile
{
    version     2.0;
    format      ascii;
    arch        "LSB;label=32;scalar=64";
    class       surfaceScalarField;
    location    "20.5";
    object      phi;
}
// * * * * * * * * * * * * * * * * * * * * * * * * * * * * * * * * * * * * * //

dimensions      [0 3 -1 0 0 0 0];

oriented        oriented;

internalField   nonuniform List<scalar> 
1171
(
-0.94545
0.94545
0.777933
-1.0898
0.311862
-0.255477
-0.72944
0.984918
0.0545496
-0.0661912
-0.278872
0.345063
-0.777933
0.0901377
0.687795
0.936415
-0.21505
-0.721365
0.835611
-1.0577
0.222091
-0.358823
-0.0373278
0.396151
-0.00436407
0.608089
-0.603725
-0.5402
0.93367
-0.39347
-0.425014
1.01641
-0.180794
0.223826
0.097519
-0.321345
0.9786
0.0378058
0.254141
-0.0303153
1.01629
-0.0376886
0.657885
-0.913363
-0.786901
0.609969
0.176932
0.262278
-0.802479
0.557099
-0.913541
0.356442
-1.08067
0.67255
0.40812
-0.645023
0.640659
0.029784
-0.248459
0.218675
0.0422678
-0.6329
0.590632
0.468541
-0.505869
-0.831823
0.875746
-0.0439231
0.988029
0.0282593
0.904871
-1.05845
0.153583
1.01171
-0.02368
-0.699833
-0.0870683
1.25841
-0.846076
-0.412338
0.179886
-0.0794598
-0.413282
0.492742
-0.273232
0.187142
0.0860894
-0.607294
-0.482501
0.969448
-0.0645769
-0.0279371
0.887703
-0.859766
0.510592
0.747822
0.528629
0.02222
0.446321
-0.793152
-0.105243
0.898395
0.579891
0.237061
-0.816952
0.0684658
0.57461
-0.643076
-0.510397
-0.570273
-0.380849
-0.677606
0.028129
0.246702
-0.274831
-0.955974
-0.0326328
0.988607
0.377144
0.0190062
0.836924
0.0994912
-0.60392
-0.0411031
0.033622
-0.826774
0.108384
0.923034
-1.03142
-0.404576
0.030213
0.374364
-0.713784
-0.242191
-0.723406
0.831791
0.714612
0.219059
-0.581505
0.996856
-0.818877
-0.177979
-0.145202
0.020971
0.124231
-0.460956
-0.0449132
-0.29072
1.00533
-0.00633361
0.436326
-0.429992
-0.501302
1.08119
0.716515
-0.821758
0.398914
-0.0764632
-0.322451
0.760237
-0.760237
-0.894772
0.0398825
-0.318754
-0.698994
0.671057
-0.0329114
-0.145334
0.178245
0.893784
-0.00608118
1.04532
-0.808255
0.226259
-0.322564
0.0963047
0.966791
-0.129867
-0.674174
-0.049834
0.724008
0.148211
-0.229641
0.0814307
0.797152
-1.0122
-0.438925
0.309112
0.129812
0.67888
-0.636612
0.864131
-0.391583
-0.472547
0.483282
-0.693931
0.0350733
0.658858
0.149838
0.66335
0.0475594
-0.710909
0.135889
-0.0960063
-0.509113
0.104537
0.0359433
-0.904199
0.868255
-0.535381
-0.760085
0.0602519
0.502288
-0.0559663
0.276156
-0.833695
0.557539
0.42466
0.57534
0.59834
-0.564718
-0.39258
-0.0177227
0.410303
0.536314
0.223923
-0.664341
0.732807
0.0890058
0.88729
0.00531883
-0.679493
-0.764863
0.800807
0.613516
0.101328
0.359216
-0.460544
-0.154224
0.539424
0.0351856
0.873405
-0.773143
-0.100262
0.659431
0.337425
-0.432827
0.690993
-0.589665
0.409141
0.147959
-0.0543528
-0.744166
-0.192166
0.936332
-0.123372
-0.636865
-0.613108
0.361717
0.251391
0.660655
-0.655337
0.312152
1.02684
0.0184751
-0.764863
-0.169101
0.0238993
0.716515
0.78598
-0.78598
0.843947
-0.829986
-0.0139614
-0.453744
0.878404
-0.192332
-0.316781
0.764554
-0.670966
-0.0935886
-0.890782
0.146616
0.109984
-0.713905
0.821758
-0.975983
-0.197239
0.195419
0.0018201
0.114002
-1.00029
0.886291
0.548243
-0.0196134
-0.288567
0.594375
-0.305808
-0.655439
0.769441
-0.158222
0.661403
-0.900046
0.238643
1.14832
-0.715163
-0.433162
0.731627
-0.0695239
0.00215487
-0.00234686
0.000191996
-0.801188
-0.898338
0.168897
-0.698994
0.574478
-0.544265
0.174408
0.655961
-0.830368
0.778825
0.166626
0.490493
0.509507
-0.0453119
-0.707133
0.752445
0.911437
-0.0380323
-0.731627
0.800807
0.181759
-0.430218
-0.0311073
0.0183019
0.0128055
0.671496
-0.429081
-0.242415
0.687795
-0.0524437
-0.236935
0.564138
0.107358
-0.0193722
0.000801033
0.0185712
0.00615972
-0.00400486
0.137006
-0.21347
-0.944201
0.026547
-0.143395
-0.0602323
0.128841
0.790474
0.741645
-0.166305
0.587811
-0.413403
-0.162819
0.389079
0.636963
0.0508316
0.229731
-1.05972
-0.975983
0.321178
0.671057
-0.162121
0.0167877
-0.817021
1.02789
-0.210867
0.479485
-0.105122
0.798732
0.306069
0.250965
0.00317607
-0.68081
0.68081
0.225625
0.67277
-0.0219542
0.45828
0.470787
0.000328303
-0.0314356
0.542106
0.00613716
-0.655439
0.571457
0.193097
-0.00468588
0.00233901
-0.636963
0.171411
0.856477
0.0324252
-0.721358
0.688933
0.760617
-0.821085
0.0604683
-0.778825
-0.0330471
0.0468696
-0.0138225
0.0864587
-0.119045
-0.102296
0.221341
-0.00713054
-0.0122417
0.769725
-0.7373
0.918221
0.066697
-0.358786
-0.535326
0.894112
-0.00171555
0.00171555
0.177696
0.453449
0.547818
-1.00127
-0.19851
-0.549916
0.748426
-0.0204935
0.198738
0.380092
-0.231881
1.01411
-0.560658
0.794465
0.96325
-0.415432
0.187759
0.769441
0.588646
0.238202
0.637544
-0.636865
0.31919
-0.0333083
-0.00360332
0.0369117
0.93457
-0.0377219
-0.896848
-0.550958
0.527278
0.546256
-0.550958
-0.588646
0.527278
0.0145388
0.921631
-0.00340976
-0.536314
0.450263
0.0860514
0.530637
0.630599
-1.16124
0.534624
0.479483
0.627567
0.537677
-1.16524
0.535064
0.428186
0.450263
-0.514105
-0.486432
-0.672021
-0.62294
-0.244086
-0.00710634
0.00710634
0.661893
0.527761
-1.1507
0.713955
-0.354739
-1.08248
0.367319
-0.690608
0.448417
-0.0493249
-0.959566
1.00889
0.453078
-0.0759533
1.01052
-1.08219
-1.04071
0.108584
0.932122
0.220578
-0.205756
-0.0148222
0.725679
-0.790256
0.973329
-0.990943
0.0176146
0.00751878
-0.780662
-0.189618
0.923748
-0.73413
-1.00979
1.01731
-0.68562
0.517469
0.168151
-0.684221
-0.0335099
0.717731
0.00337778
-0.00509333
0.424115
0.108863
-0.960395
0.851533
-0.794836
0.749524
1.08134
0.0782361
-1.15957
0.040629
-0.0120263
0.422329
-0.361602
0.0390383
0.935568
-0.984893
-0.617524
-0.707811
-0.0728509
-0.167709
-0.949705
-0.0412381
0.446978
0.140833
-0.140515
0.361093
-0.683924
0.650414
0.472547
-1.03552
-0.93155
-0.00991993
-0.068843
0.655893
-0.58705
0.0591852
-0.686367
0.578455
0.182162
0.0280316
0.982492
1.12589
0.932136
-0.973374
0.0463192
-0.0463192
-0.0724741
-0.0322032
-0.173553
0.340987
-0.0198085
0.198521
1.04168
0.0130111
-0.0201417
0.657363
0.342637
0.796562
-0.607294
-0.757423
-0.624772
-0.483355
0.483355
-0.209482
-0.109272
0.642037
-0.942468
0.300431
-0.465023
-0.541987
0.339974
-1.01758
-0.971543
0.989157
-0.720549
0.647698
0.660737
0.206246
-0.866983
-0.45662
-0.187058
0.864905
-0.677848
-0.0701343
0.0106885
0.00179542
-0.0124839
0.0227037
-0.0549069
0.98201
0.545559
-0.241945
-0.303614
0.530737
0.752522
-0.526898
0.0147095
-0.287941
0.020798
0.759145
-0.779943
-0.356842
-0.0620295
0.145397
-1.04423
0.147379
-0.736222
0.127237
0.732813
-0.86005
-0.906425
0.170204
0.725787
-0.787817
0.232514
-0.351558
-0.522644
0.066024
0.368007
0.717169
-0.0261756
-0.00368801
0.00368801
-0.00630531
-0.00173116
-0.0315772
-0.0165297
0.0295408
-0.381811
0.343868
0.744934
-0.832305
0.0873709
-0.713398
0.840634
0.80687
-0.0810822
-0.71339
-0.193035
-1.13704
0.0210551
0.0252641
-0.361013
-0.903009
-0.85046
0.438122
-0.209027
0.273921
-0.0648941
-0.364136
0.00312283
0.496005
0.711912
-0.0451702
-0.0150621
0.978204
0.526236
0.167529
-0.693766
-0.284258
-0.0798784
-0.00237513
0.0130636
0.743176
-0.935342
0.0050978
-0.0050978
-0.717137
0.76977
-0.0526327
-0.424772
-0.124781
-0.70034
0.0981575
0.654287
-0.0535406
-0.887398
-0.312176
0.289568
0.0226083
0.778071
-0.6907
0.353182
0.251545
-0.604727
-0.159832
-0.71651
-0.14354
-0.190901
-0.214018
0.471521
-0.516434
0.165572
0.753222
-0.918795
0.483282
-0.208637
-0.000390008
-0.101348
-0.112671
0.593887
-0.094079
-0.499808
-0.287042
0.308163
-0.0211211
0.561965
0.15199
0.0903599
-0.313864
0.171997
0.141866
-0.0691232
-0.0999781
-0.333453
0.170471
-0.045312
-0.125159
0.941844
-0.265507
-0.159265
0.553591
0.328873
-0.570818
0.398172
-0.398172
-0.199036
-0.390297
-0.216498
-0.390297
-0.721449
-0.852144
0.181178
-0.43906
0.734515
0.0496225
0.142312
0.574857
0.109221
0.118864
0.0103686
-0.129233
-0.149493
0.679662
-1.01687
0.481541
-0.019906
0.0608844
-0.0409784
-0.75893
-0.178312
-0.563859
0.731388
-0.523115
-0.0266282
-0.0860424
-0.342259
-0.079521
0.079521
0.0480775
-0.00120785
0.139919
0.173943
-0.704277
0.140419
-0.0235093
0.473351
0.526649
0.839884
0.0158774
0.022754
-0.0386314
-0.29949
-0.587907
-0.517665
0.115909
-0.120453
0.00454351
-0.15036
-0.41086
-0.126487
0.780774
-0.594315
-0.164615
-0.00565716
-0.00435757
0.202202
-0.41028
-0.199114
-0.187637
-0.0258325
-0.469584
0.428023
0.041561
-0.0244079
0.295173
-0.865446
-0.533978
0.631281
-0.882063
0.722231
0.446254
-0.0314155
0.0553053
-0.0238898
0.149935
-0.63421
-0.00988865
0.644099
-0.893091
0.652051
-0.724526
-0.0277103
0.00686782
-0.00686782
-0.299154
0.4283
-0.00597099
-0.00663941
0.0225168
0.58734
0.519725
-0.619987
0.0116625
0.000182164
-0.00387017
0.00512562
-0.00512562
-0.471301
0.623291
0.0158168
-0.0158168
-0.781992
-0.00790719
0.011285
-0.492883
0.633302
0.561909
-0.614542
0.0696137
-0.0696137
0.00384515
-0.0352808
0.0111014
-1.08786
0.654695
-0.536195
-0.00509333
0.609397
0.00270364
-0.6121
-0.712838
0.118523
-0.314095
-0.0130435
0.327139
-0.0222449
-0.0229253
-0.608646
-0.0255641
0.0252641
0.00560269
-0.000504896
-0.00292995
0.00292995
-0.304351
0.179192
-0.470378
0.13382
0.662742
-0.118909
0.00548342
-0.00548342
0.508424
-0.0491874
0.00858337
0.0183963
3.22942e-05
0.628166
-0.677354
-0.781216
0.621951
-0.107895
0.331158
0.788451
-0.00630531
-0.0860321
0.0883711
-0.635306
0.546029
-0.253751
-0.103441
-0.0301915
-0.0262324
0.00622435
0.476925
-0.0852578
-0.414551
0.71615
0.00198072
0.00318747
-0.00318747
-0.214608
-0.130408
-0.569586
0.619208
-0.133712
0.509118
-0.191754
0.84964
0.849866
0.00560269
-0.724858
0.612932
0.0257015
0.000732764
-0.0264342
0.597543
0.0930579
-0.01173
0.0651594
-0.0534294
0.0088001
-0.0088001
-0.741024
0.0232946
-0.0439128
0.0623091
-0.0852985
0.0852985
0.000182164
-0.00082189
0.762802
0.0936748
-0.315602
-0.0952581
-0.520807
0.0200443
-0.0658995
0.0658995
-0.0347863
0.0818877
-0.0818877
0.0261302
-0.0261302
-0.358609
-0.0742178
0.238589
0.0705225
0.0520909
-0.730602
-0.0614478
0.159349
0.0224098
-0.23707
0.0818871
-0.0818871
-0.468088
-0.0483463
0.227941
-0.00926549
0.00267275
-0.669294
0.654755
0.0168717
-0.0516579
0.030764
-0.0660448
-0.0122739
-0.157951
0.170225
-0.148305
-0.203254
-0.0803914
0.0803914
0.0538457
-0.0538457
-0.0275157
-0.0935706
0.121086
-0.0346728
-0.190737
0.000821417
-0.00469159
-0.17933
0.358521
-0.0256752
0.453972
0.00959543
0.00897578
-0.0502686
0.0502686
-0.734414
0.314966
-0.127206
-0.206794
-0.0228474
-0.0169754
0.0196481
0.191413
0.0299282
-0.00250527
0.00253756
0.0859145
0.0299947
0.0565127
0.102836
-0.0234543
0.00839224
-0.00191032
0.00608645
0.00474656
0.000606568
-0.00535313
-0.00300531
0.0115762
0.0270763
-0.0270763
0.0481841
-0.0436566
0.0436566
-0.189605
0.0150622
0.0319985
-0.075506
0.0173301
0.0781948
-0.0781948
0.232974
-0.233832
0.0855276
-0.0661155
-0.167717
-0.0146352
0.0146352
0.408485
0.250372
-0.521428
-0.0804588
-0.0399939
0.542305
-0.00390883
-0.0561038
-0.462634
0.0992082
-0.151208
0.168259
-0.0170508
-0.0482001
0.0482001
0.887659
-0.589017
-0.00410903
0.00110373
-0.00577754
-0.287584
-6.29803e-07
0.00490708
-0.04466
-0.630339
0.569154
-0.661279
0.014492
0.116846
0.0156308
0.0241384
-0.156986
-0.332728
0.257222
-0.0542852
0.0267695
0.173336
0.134827
0.218565
0.261872
-0.246242
0.00424166
-0.114248
-0.219838
0.0667262
-0.0102135
0.158805
-0.134666
-0.0683729
0.154287
-0.409733
0.119545
-0.102215
0.05838
-0.472931
0.173166
0.180177
-0.24855
0.00907089
-0.179073
0.179072
0.0036922
0.150595
-0.0278398
0.0477634
0.460661
0.012441
0.0151405
-0.000798564
0.0360767
-0.236888
-0.202915
0.590282
0.166366
0.0615749
0.073776
-0.064287
0.0568183
-0.0832525
-0.030452
0.164811
-0.150319
0.0213648
-0.00880062
-0.105938
-0.0284777
0.0297571
0.251731
-0.0163801
-0.00922654
-0.308376
-0.00786303
0.219215
0.138156
0.176809
0.05659
0.0954111
0.0586981
0.528642
-0.00726345
0.106683
0.0406655
0.0678338
-0.108499
-0.271056
-0.194746
0.0270295
-0.2212
0.281346
)
;

boundaryField
{
    FrontBack
    {
        type            empty;
    }
    Top
    {
        type            calculated;
        value           uniform 0;
    }
    In
    {
        type            calculated;
        value           uniform -1;
    }
    Bottom
    {
        type            calculated;
        value           uniform 0;
    }
    Out
    {
        type            calculated;
        value           nonuniform List<scalar> 10(1.16219 1.04474 1.15845 1.01455 1.16828 1.05113 1.18965 1.00701 0.597208 0.606794);
    }
    circle
    {
        type            calculated;
        value           uniform 0;
    }
}


// ************************************************************************* //
