/*--------------------------------*- C++ -*----------------------------------*\
| =========                 |                                                 |
| \\      /  F ield         | OpenFOAM: The Open Source CFD Toolbox           |
|  \\    /   O peration     | Version:  2412                                  |
|   \\  /    A nd           | Website:  www.openfoam.com                      |
|    \\/     M anipulation  |                                                 |
\*---------------------------------------------------------------------------*/
FoamFile
{
    version     2.0;
    format      ascii;
    arch        "LSB;label=32;scalar=64";
    class       volVectorField;
    location    "1877.5";
    object      U;
}
// * * * * * * * * * * * * * * * * * * * * * * * * * * * * * * * * * * * * * //

dimensions      [0 1 -1 0 0 0 0];

internalField   nonuniform List<vector> 
808
(
(0.756270766794674 -0.01751289489217161 0)
(1.031560031441241 -0.01260760030923957 0)
(1.111185295749389 -0.005005069547726781 -1.716875118496449e-20)
(1.08512508071195 0.01258650594315072 0)
(1.362587425854728 0.01297017325979366 -3.821366195250432e-19)
(1.038751449458533 -0.009420654647106041 -7.322431799654904e-20)
(1.014489383686511 -0.02095754277717211 -2.436186960526808e-20)
(1.079249418603278 -0.005244114878194855 9.056242656110058e-21)
(1.253955021032094 -0.02154437298388014 6.263459225843145e-20)
(1.08532024955708 0.009571185006471241 0)
(1.00772651126326 -0.009493976232882687 0)
(1.305173567239548 -0.0544997141404694 -3.467272509402239e-19)
(1.086407182611006 -0.001989620561509647 2.045205559792104e-20)
(0.675210399053344 0.006355431724734736 0)
(1.27534425783928 -0.1184436002831797 0)
(1.081733254912295 -0.000446732495924657 -3.873088422041056e-20)
(1.223938778864112 -0.1463532831999596 -9.493679076313642e-20)
(1.074161001476591 -0.0003333274235541769 3.211794101096398e-20)
(0.989073679190863 0.003832068305281735 0)
(1.026624024974794 0.009664401368048558 0)
(1.032595601735969 -0.01323585846106838 0)
(0.9875788465098509 0.04513786233072539 0)
(1.051079404975138 -0.006031012690325669 5.791736519800395e-20)
(1.053801249261807 0.008883454199380782 0)
(0.9333413657840051 0.1985233667173126 4.570968502529195e-19)
(1.161877703489543 -0.08648536349934505 0)
(1.185554097103932 -0.01976012873143044 1.543099776325724e-19)
(1.077264551536155 0.009660496401234554 5.233299736339956e-20)
(1.083644527701505 0.002125335318716237 5.123428934367875e-21)
(1.071748024703256 0.0309094134329278 0)
(1.075248363683632 0.002788764391146524 -1.183277946435368e-20)
(1.033266781881218 0.00673532609291113 -1.880848761174713e-19)
(1.060070379789471 0.01452781257540335 -2.35054425145497e-20)
(1.088781359684876 0.005651607331001576 -2.938991163315213e-20)
(1.12166564605859 0.0379365534808742 0)
(0.7549134526999794 -0.1219901786597836 -4.548617991988753e-19)
(0.9547923769420879 -0.005819324696033205 0)
(1.068758146232816 0.02222012753492577 0)
(1.068799133450475 0.007231593480767096 0)
(1.073790566425743 0.008736591983291304 -2.819449689153527e-20)
(1.093227064485693 0.0238746363556989 1.08180922607095e-19)
(1.150849648301474 0.002515997261547756 2.120591076365971e-19)
(1.09585158462429 -0.002262932892343973 0)
(1.01518274858638 -0.009308776507019516 0)
(1.1300648933057 -0.09283601406998299 -1.626638952832871e-19)
(1.04407440454633 -0.01168103689524519 -8.349579758529952e-20)
(1.058132386612014 0.02664642231702945 -2.678723784846354e-20)
(1.230439572978552 -0.1126535092594322 -5.562461873692896e-20)
(1.067484587723585 0.01201971184043005 -4.080688171344481e-20)
(1.257795412800378 0.01535170091527372 0)
(0.9969738645168927 -0.01923543799272068 2.214686760369519e-21)
(1.044753780787759 -0.002182337149919074 0)
(1.087475837682961 -0.002114925903692375 0)
(0.9990459735160866 0.007743595767051656 -1.878255715509403e-20)
(1.251255568049913 0.03295334935646283 -2.386654901121419e-19)
(1.063420850862677 0.01808942921721326 5.88671232468493e-20)
(0.9908453497979658 0.01137964486823168 0)
(1.015978270526613 -0.006496031531977066 2.517120948725885e-20)
(1.107571721414743 -0.001125790802672029 -1.158547032709644e-19)
(1.061159668334319 0.03121409984111621 0)
(-0.08815673539854019 -0.004426561084290619 7.671473851548088e-20)
(1.154488857653482 -0.0523537829666722 -1.852211004619189e-19)
(1.005024108004875 -0.005627234214339686 -2.76440104315746e-20)
(1.18816465891679 0.06706907557103806 -1.208431594422786e-19)
(0.9971641615729369 -0.009702001411479208 3.103806071754285e-20)
(1.084213650723887 -0.005455037700941082 0)
(1.249209320558227 0.09340181153282998 0)
(0.6960840810558636 0.003165156058926977 -7.423840304590629e-20)
(0.9883056125701822 -0.0146267784727332 -3.233595452650979e-20)
(1.458475143304518 -0.01996723844003617 4.401391898796446e-19)
(1.060529342757708 0.007608529850942519 -6.54062089851682e-20)
(1.366827984048439 0.09321709320603178 2.842023069365599e-19)
(1.054860840509795 0.006814984686202247 -1.958452092223523e-22)
(1.080961928580018 -0.0139614628939259 -2.4552821551798e-22)
(1.16387849393512 -0.2358776278317174 0)
(1.022073401750815 -0.01511158633960739 0)
(1.017224988585312 0.01807603930012001 -3.000771786049922e-20)
(1.387652213824772 0.3486927059457907 4.223610778798468e-19)
(1.097434701058259 -0.04246628993055197 9.587232321588311e-20)
(1.04627265274746 0.2102927813378268 2.421461890577581e-19)
(1.12317301582621 -0.06086538274016697 1.177651294461905e-19)
(0.9219582555131426 0.005170526323534638 0)
(0.9753359432544397 0.01852494319301165 0)
(1.004014423354843 -0.04857081109998419 3.118449416509868e-21)
(1.009902622750399 -0.01366763082307965 7.827002891919642e-21)
(1.030442058232541 0.02686354697854497 1.354606569704508e-20)
(1.527441723378419 0.03374011809641126 3.216232836245592e-19)
(1.290213284094588 0.07017260229016536 5.626720404939987e-19)
(1.072445914794003 0.003102520612115911 -8.844751142037356e-20)
(1.194525568120065 -0.09526438042341481 0)
(1.033855513399551 0.00182574712448759 1.293024221944964e-19)
(1.16525212090998 0.0208812638336786 -3.134431080707253e-19)
(1.001494779670621 0.03250415615418984 0)
(0.9996273703862628 0.0020070344236417 0)
(1.04430274473295 -3.549863096989529e-05 7.993347992742042e-20)
(1.218109931321092 0.107492027117666 4.083982998185117e-19)
(1.011139001444248 0.006972342041470955 0)
(1.090022112081493 -0.06787943492317741 -1.065118530923429e-19)
(1.151452563654809 0.03633392521387912 0)
(1.216399781965209 0.09172530043106605 -1.913063988042616e-19)
(1.108303716279627 -0.02890613323752768 -7.819213806679727e-20)
(1.027474637929817 0.01192706406756072 0)
(1.085127206486449 -0.004589423758298425 0)
(1.019341606159244 0.02646868001447176 7.854144179166133e-20)
(1.07337538639702 0.05662895315667912 -9.546525373346809e-21)
(1.10373855714658 -0.004195418114200682 6.428140151576293e-20)
(1.107262752926447 -0.09172751993074786 1.497341025170327e-19)
(0.9638659432570458 0.002695000936235653 0)
(1.0659978540677 0.03126698528491673 3.69490102674687e-20)
(1.16830249891799 -0.07687677828894998 2.263680712029391e-19)
(1.052181612480547 0.04729429987054383 -2.852519597457516e-20)
(1.022924204291119 0.06790324936357851 3.652753441465982e-20)
(1.090202613124964 0.0260818711891523 0)
(1.01764964158683 0.01454528883911672 0)
(1.028986480067742 0.009363554284050791 7.839816480474615e-20)
(0.948545183297718 -0.03257074678415817 0)
(1.052864435255243 -0.005445236482428913 -7.430893527231177e-21)
(1.341208592858702 0.0559492576271914 -1.543762180465486e-19)
(1.079702978501201 -0.01315307717130712 2.667433689304026e-20)
(0.7440340751310145 -0.001730551785277835 0)
(0.590342774757259 0.1911489174772942 -1.130924279591781e-19)
(0.7061243814074862 -0.002483559122091724 0)
(0.6988019686918479 0.01463411498593281 0)
(1.077719432352625 0.003624383229229716 -6.479498875425923e-22)
(0.9906528399469982 0.01447796534835346 0)
(1.279676294010253 0.1220302951349684 2.546899680957387e-19)
(1.012246585389478 -0.02788048305062312 -7.424230407055861e-21)
(1.044436819036263 0.01677841582488223 1.485855248974452e-21)
(1.058631768195194 -0.01208765215039727 0)
(1.126551773955267 -0.009141108765838214 -5.123691411186072e-20)
(1.271808379532408 0.1287962965067226 -2.26069118562262e-19)
(1.08914861240535 -0.01092557384078689 -8.626145939527266e-20)
(1.070875465488052 0.02636754640633797 -1.072336764110248e-19)
(1.040993741689745 0.04679287207401155 7.392914914420983e-20)
(1.022591168131282 -0.003667512873462726 -3.479699851052402e-20)
(1.060931524354267 0.02366543985722845 5.72358217204657e-21)
(1.137907150889561 0.004129516563879851 1.033682828275881e-20)
(1.039214301409267 -0.01425944385767743 -4.779353951428022e-22)
(1.087381102920222 0.03472836900211475 0)
(1.028293013797674 0.01372247998551014 0)
(0.7796618249369096 -0.07847786068019207 -1.816518306438008e-19)
(1.030284882025948 -0.001803303762938104 -6.566718204497024e-20)
(1.13163272220746 -0.001503594330888244 -1.245128511100207e-20)
(0.7034502349926888 0.006558496838037917 7.132589932485975e-20)
(1.175194180044862 0.01914900677980245 -1.968998662859015e-19)
(1.137056838860089 0.004861267664443077 5.144770415818046e-21)
(1.129010050309113 -0.010048036642394 3.373603324876104e-20)
(1.000933494103261 -0.002961398091537886 -6.78286186030663e-20)
(1.101970530184256 -0.05838739752063551 0)
(0.989788657315841 0.00506405225693344 0)
(1.057825975270213 0.007024399446821684 0)
(1.005890508466797 0.188946446514628 -2.373250725257073e-19)
(0.7792386555855944 0.01243613338143501 0)
(0.8570258774494549 0.1021803804039041 -8.230299002715273e-20)
(0.09233747592750821 0.03279699798542836 -2.97053496634045e-19)
(1.171782999673672 -0.03149334382807956 -2.288843843015691e-20)
(0.6712666760410244 -0.007333438249353687 2.453243989057427e-20)
(1.164606187155113 -0.100831103503226 6.922068145299372e-20)
(1.126019768341658 8.512540045495915e-06 -5.796142918632201e-21)
(1.153654864002111 -0.04944758575334057 2.224180015974515e-20)
(0.08307109511682922 -0.2073537734841717 0)
(0.2396805518867202 0.06483263380562242 0)
(1.261655577250423 0.1054391421992196 1.862430080908679e-19)
(1.021142338607008 0.01982913734826564 0)
(0.7377342691107079 -0.006250967875103836 0)
(1.075023721327128 -0.01142822831935935 2.743035425082403e-20)
(0.9748445864152204 0.00287501763275945 0)
(1.297261037340342 0.1201210747875277 -1.48891868712979e-19)
(1.057360756018 0.01095992342899196 0)
(0.9930146347858396 -0.007086961317950368 0)
(1.065149332746058 0.008286813998698989 0)
(1.006236603078598 0.0209007614375731 2.165915430272621e-20)
(0.93520790477257 0.01091627516516282 1.26626361524286e-20)
(1.17620560540558 -0.1996618639771507 0)
(1.005092697203482 -0.005193855199992713 8.04716906006669e-20)
(1.059183812381075 0.006327557637722134 0)
(0.7745983309136972 -0.003299509807521727 0)
(1.218079956689182 0.02643764434308087 1.622718314518038e-20)
(0.7050098333568288 0.001368920442735543 0)
(1.433497898568158 0.08405635953268271 -5.116503458840247e-20)
(0.9949697474057198 -0.005350532116338298 1.679614766133819e-20)
(1.273936631206438 -0.003730705019581818 -3.002007365533208e-19)
(1.05967657987375 0.009035827103016012 1.330890549750987e-19)
(1.000908909593895 -0.01353407420500708 0)
(1.209491568704969 -0.1439007408717459 2.053136691043637e-19)
(0.733175760789223 0.01378483596988759 0)
(1.098359154124164 -0.004916960294365955 0)
(1.156239442622945 0.06729859667092247 1.895142381819492e-20)
(1.006462040615145 -0.006448670230398935 -3.048253678992357e-20)
(1.122833226155036 0.05194822833103579 -1.721928894913724e-19)
(0.1258457900275559 -0.09392017924299008 0)
(1.073335930338255 0.03902648708523605 0)
(0.661710296724122 -0.002877894173826429 -5.02456419200857e-22)
(1.012113709583604 -0.01955317571667031 9.080319474614775e-20)
(1.061430993524479 0.0008753530749280012 0)
(1.078683873359837 -0.1374836650987264 3.763858797112488e-19)
(1.002706639312414 -0.006136614282016458 -3.29677571420333e-21)
(1.003229925267077 -0.004206383786936903 9.830550561136963e-22)
(1.09399365918982 -0.009211051917462066 0)
(1.020747911394891 0.02034034517512252 -6.631606112649645e-20)
(1.106639042603194 -0.001588199126404396 6.356932925762138e-22)
(1.074528712472651 -0.01084697735037132 6.655994838676848e-20)
(1.085647270296087 0.0221710520871441 0)
(1.326466790834122 0.1558774382629536 0)
(1.002071735722556 0.0004996281511687808 4.407900756047352e-20)
(1.319013577568663 -0.1324964660766118 1.602185866451549e-19)
(0.01079532221895332 -0.1620281187739115 -2.318779335225581e-19)
(1.071110616922412 -0.005354137451896566 0)
(1.111354127605373 -0.005271462426764587 1.163601869916473e-20)
(0.7267430829584886 0.01779524521865698 0)
(1.058352999593036 0.01124267093105563 0)
(0.8619162743171928 0.1615153975455353 4.597034828396136e-19)
(1.284217381368778 0.1253890378526874 1.9035489936686e-19)
(0.6542354533163357 -0.003101806137939392 -6.530338577895577e-20)
(1.039619987693495 0.005537159651635148 -4.354909316733809e-21)
(1.054798495647513 -0.0002085505680793753 6.450695060606847e-20)
(1.36276814051427 0.1169140705131641 6.569805162344785e-19)
(1.336323451267432 0.2519094207473948 0)
(1.058266932456609 0.009089609466418539 0)
(0.9994109790139585 -0.00419047294919018 1.386242151100043e-20)
(0.9930936406012275 -0.002263218480542797 3.021072025831106e-21)
(1.384235782733784 0.1992484991415032 4.320319349807439e-19)
(0.6818609805622454 0.0004893578857729465 9.969319164827672e-20)
(1.005693965946291 -0.002201475668136488 -6.023453311169913e-20)
(1.098180713569517 0.01314799036174939 2.562003240155054e-20)
(0.6694526174329076 0.004951335416200676 0)
(1.06608599326582 -0.01202469196130462 0)
(1.013537832857569 0.141094454004771 -1.42662589850696e-19)
(1.089378468946311 0.0004577073322367967 -2.583090494476491e-20)
(0.9819366861842914 9.616806913489573e-05 3.310411727245212e-20)
(0.9912118147010723 0.00600350394302806 0)
(0.6381292939935439 -0.001090186674645976 0)
(0.9767058173379725 -0.001246417829922151 0)
(0.6420460009375324 -0.001418649539004554 2.6380175415916e-21)
(1.087951064153627 -0.05538986456542446 1.212979205342704e-19)
(1.110071553831031 -0.005619210625824353 1.141020222031164e-21)
(0.9579690460835992 -0.0008539685142418649 3.878468938300629e-20)
(1.017217449026868 0.01029948889429314 1.741359212165507e-20)
(1.065954167000433 0.006745988686811213 -2.448315279207822e-21)
(0.6347736197844549 0.008870855558516778 -3.614128736828097e-20)
(1.005922795609003 0.01026782883322416 -6.459720781262514e-22)
(1.037825424991383 0.007620933666943599 5.368118867767264e-21)
(0.985613839573615 -0.005475495691422238 0)
(0.6099754286135837 -0.0004437268978115176 0)
(1.068990367002377 0.02249508263369043 0)
(1.016279745279627 -0.01688715402303869 1.031223654015474e-20)
(1.023189738988584 -0.007255764374384929 0)
(0.9930372657284922 0.01352627210013087 -9.860323232673024e-21)
(1.009099083146519 0.003222002262258208 0)
(1.13453865551537 0.003053679547266556 -1.203135988269388e-20)
(0.03182558595043289 -0.1417319447799545 -3.859392362485768e-20)
(1.034349014798451 -0.01818031671202674 -5.907050024001684e-22)
(1.042666730135737 0.007027677095449949 0)
(1.083815760949485 0.07050609218830044 8.435364775393056e-20)
(0.967236591682242 -0.00146188888842167 3.109081476903448e-20)
(1.020073194196162 0.01674154824131843 -2.242498002262426e-20)
(1.005297149170124 -0.002718453569911632 2.403838249799609e-20)
(1.03888480470529 -0.007961390427071762 0)
(0.6409213814511242 -0.004085978334789306 0)
(1.025947905236171 0.02450967886842052 -7.910913197444571e-20)
(1.087732576791043 -0.002099058385318586 5.089590256604537e-20)
(1.012940895423111 0.007731804094678155 0)
(0.9805047618747744 -0.0004739491523809265 -1.939594851563555e-21)
(0.8548237679311151 0.008702330030950441 -1.056311102288359e-20)
(1.013979551124097 0.002692830234746608 -9.51159851610035e-21)
(1.022246437649499 0.002853993524886236 1.873037954294725e-20)
(0.9829815567548598 0.001764669354699476 0)
(1.007398276511294 0.01125034618559394 3.22575068137107e-20)
(1.110961239622273 -0.0007404519354285898 0)
(0.9337905346840149 0.01190411833875274 -3.156247934229556e-20)
(0.9534398666511642 -0.0008165473860768401 0)
(0.9017740505422547 0.2023275306258883 4.952613510209948e-20)
(1.011113369762833 0.0673854343848319 0)
(0.9909695071782059 0.004926919000484932 -2.280481647358029e-20)
(1.058322259982734 -0.04942052243595196 -2.806939122025872e-20)
(0.9939674855426448 0.0003037306070223564 3.24513199110647e-20)
(1.006973784160015 0.006412278524948696 0)
(0.9801020311909922 0.0007459782877366787 -3.006272974407086e-20)
(1.178036224096321 0.1020411700524254 -3.394956098409606e-19)
(1.06864212776202 -0.2643137141422302 0)
(0.9942066089179381 0.0004196420463452741 -2.269419321505034e-20)
(0.9735301960678149 0.002630880783934617 4.774395100119429e-21)
(0.9603787080088735 -0.001096858869149763 1.015024294656194e-21)
(0.7459862646878215 -0.001058636653769308 0)
(1.120695277962387 -0.07005296408529572 0)
(1.003470324189486 6.84963356153021e-05 -2.258977724278895e-20)
(0.9091058396244796 0.009626247866087177 -1.06379628324631e-20)
(0.8410878538034242 -0.001393343198636478 3.390248508792788e-21)
(1.0126886540889 -0.0076616008045437 0)
(0.9620577946732338 0.0141045300410233 1.476181782608797e-20)
(1.005610778386989 -0.0001997096947088798 -2.24359524289546e-20)
(1.026238607016581 -0.002541577926210256 -2.485291285800292e-20)
(1.11440849548217 -0.003398782156811573 -4.911688201620604e-21)
(1.116847631036092 -0.004346259594573467 0)
(1.010092147176084 -0.0007644063191429937 0)
(1.022309851154054 -0.002789800263127314 0)
(0.9442289055798806 0.005512306797887986 -1.974050945489226e-20)
(1.017860966413167 0.01340563010700379 5.610933810287696e-20)
(1.088200611848743 -0.004583783134066007 -2.356875842814522e-20)
(1.038989455519677 -0.004587630954791326 0)
(1.108994937300634 -0.002370031740147188 1.838263139326525e-21)
(0.9941975802949533 0.001186875729407129 -2.245500075086674e-20)
(0.9806155851430676 -0.0006450150442938082 0)
(1.009942577268931 0.002569828406144282 4.689551177626587e-20)
(1.363675708125041 -0.3141050371546001 -1.120759538539741e-18)
(1.120784509664408 -0.04424211500855027 -1.108991898016549e-19)
(0.9709601126748133 0.01035002873662307 4.440985131026884e-20)
(0.7661160265923302 0.007003611670773745 -3.534966914393091e-20)
(1.223967591748321 0.04989853738240324 0)
(1.216913190901967 -0.1280151144149566 -1.480947148658026e-19)
(1.085167260873438 -0.004799424914436412 0)
(1.008576097446754 0.0004328881610282835 2.294117366486028e-20)
(-0.2003954643738956 -0.1144900809061013 0)
(0.993968785116784 -0.004668078751712712 0)
(1.012338281146723 -0.02304156517347067 3.950853106398121e-20)
(0.7064162057671914 -0.01943570661634413 0)
(1.096789800762272 -0.01488412412930897 2.315480488223169e-21)
(1.039347098790105 0.002006001624920099 1.564011170825433e-20)
(0.6332284083426287 0.004134836948173223 0)
(1.446730445322954 -0.1241403387282522 0)
(0.9857840990849078 0.001933718850041269 -1.066693479145227e-20)
(1.069684117343614 -0.01508806173239901 0)
(1.037804241264402 0.0005067781707410017 2.045816720137867e-20)
(1.083576404178908 -0.0003897095208580361 0)
(1.012234968683205 -0.005399155775047662 -1.190787187851199e-21)
(1.005959127146061 0.003294156721175669 0)
(1.00784646972772 0.003582034782447046 -1.262870267503971e-21)
(1.004415840727767 -0.0203689351113271 0)
(1.036338959003388 -0.007849073507395726 1.78182931590311e-20)
(-0.1903184199816448 0.03906100342966243 2.802066388489899e-19)
(0.8026436207682108 0.02731446951193429 5.893810106778714e-20)
(1.00510651095059 0.002076500949649584 0)
(1.122365283208854 0.01026550597054632 -1.193781399595763e-20)
(1.111062182733169 0.003981545184228143 9.187475541417856e-21)
(1.054294048627383 -0.01274845502833702 -1.326043545571066e-19)
(0.9987726165588442 0.01039846952166572 -2.266828900759627e-22)
(1.083322408945504 -0.00542606565935612 0)
(1.188992712077181 0.05097573918697434 0)
(0.8350974933538527 -0.0749762300834261 4.605918529530255e-19)
(1.089190681250717 -0.002791103779355422 0)
(1.033889997258619 0.007801192555140153 -7.693952030244311e-21)
(1.042522594678399 0.005344723011158105 5.655056657893309e-21)
(1.053868461880807 -0.05840481700147835 -7.598782098192314e-21)
(1.139333095814378 -0.001903451041553382 1.719901848064044e-19)
(1.082239133293991 0.001760976290724301 0)
(0.9942519147643107 0.00192493974688591 0)
(0.9979425686655151 -0.02652048695162438 -2.439073835333019e-21)
(0.9905110743587775 0.003622416621112528 0)
(1.03080553800191 -0.03668753158142349 6.511361274070798e-20)
(1.291141120397768 -0.09772096573835125 0)
(1.040522159422732 0.002124434066172877 -4.388397396998931e-21)
(0.98618654927696 0.01691248802487965 -9.045118736483592e-20)
(1.033402538552073 0.04308903202198729 -2.325381811771481e-21)
(-0.07468484853026092 0.1849881568901226 -1.737439747723928e-19)
(-0.0703432428562252 -0.2880302013318813 -1.295059223938966e-19)
(0.8836673953624514 0.1201097618261282 0)
(0.2777906615061803 -0.02983535458901563 -3.047209884800071e-19)
(1.007418741923292 -0.004017094636587316 -9.680547609934004e-21)
(1.063937976490857 0.002720876316136104 -2.064838653809528e-20)
(0.9919670866054113 -0.0216327011920197 3.105853316414156e-20)
(1.026523422106626 -0.03062098499709506 2.693021969517425e-21)
(1.009987823661466 -0.03067706176773343 -6.703686418794118e-20)
(0.9888420107109067 0.004874971387688025 -3.490997237404383e-20)
(0.9936012224664257 0.005072103102607355 0)
(1.024520238559774 -0.002245030755518121 -3.47089032071436e-21)
(1.932002121037957 -0.1564974091653202 1.066731956055877e-18)
(1.046576887128086 -0.008745651578994417 0)
(0.9966077660138777 0.008045363088695216 1.491483947678476e-20)
(1.003646111341848 -0.0005418282520847368 3.991607935945226e-20)
(1.168038799048872 0.1595468834061158 0)
(1.005341127514039 -0.01794123991308329 5.752203566850102e-21)
(0.9530110459221366 0.003766227060705439 0)
(1.037843601464689 0.04172957947726754 0)
(1.302375322553849 0.1503293897371763 2.234451407493306e-19)
(1.076926306029808 -2.507963506844505e-05 2.335242669484458e-20)
(1.016018009216201 0.03044058912609068 4.461043229058203e-20)
(1.079553672483003 0.004193188004254791 -2.24840644205985e-20)
(1.056665001722513 -0.02243140967506865 -6.159279932852603e-21)
(-0.3894190938471683 -0.0461376909588441 0)
(0.9996581588001716 0.01262547739669825 0)
(0.1230537212127633 0.05340853870558998 -9.475406310923045e-20)
(1.006088437952635 0.02025990510576338 -3.99670919060923e-20)
(1.006900787639989 -0.02708391911251386 0)
(1.001170280685113 0.005304992364289182 -4.868967264545591e-21)
(1.082043492317758 -0.04239962539684704 0)
(0.9939557446656395 -0.01862512769990004 -8.141058772139589e-21)
(1.100878713494133 -0.0519289661952134 0)
(1.44334315580938 0.1696630421480625 0)
(1.054869358108498 -0.01196957750522507 0)
(0.9914315323863576 -0.02495729111891533 -4.17421094337202e-20)
(0.9942781246328281 -0.02622575600514073 -3.504171103012921e-21)
(1.016225098927586 -0.02182871583766424 -2.163271771984432e-20)
(0.9966005801345709 0.01688415762718196 -5.402982014175973e-20)
(0.9961317399213213 0.009647130018018644 -1.453557637234675e-20)
(0.9954550173253011 -0.02781994408226322 0)
(1.001677593825423 0.02402555116274822 1.876649502808427e-20)
(1.045774652317889 -0.0250111078692466 0)
(1.110976154144492 -0.03633189652786047 2.532010335457943e-19)
(0.9953586463422001 0.01654485462414868 4.466922655849822e-20)
(0.6150368376314932 -0.008695461586470377 0)
(1.154261161054027 0.1623712318301454 7.291191820182808e-22)
(0.8279093739699749 -0.07930775231176937 0)
(1.138491294557708 0.07260413867680411 -2.792385777206534e-19)
(1.314905693374576 -0.3888064775777379 1.279543164084441e-19)
(1.070381811593373 0.06675725940537248 -1.247960500592378e-20)
(1.011827216483557 -0.03073810468694351 0)
(0.9553780077990931 -0.2150633550809273 0)
(0.5484616785889155 0.1778705578148499 0)
(1.015577571811074 0.01288338378577533 1.092054191749149e-21)
(0.7080045964249713 -0.01660554217691883 0)
(0.9989452917048844 0.01622958007941615 3.441274381344427e-20)
(1.026873268018277 -0.001327576819929258 -2.681044942437084e-20)
(1.079005927477886 -0.008025394647217523 2.636937780033844e-21)
(1.05482008197959 -0.02670319568270195 2.551488595676972e-20)
(1.04286340631694 0.01153869570752198 0)
(1.057458846115192 0.02046708115312932 -8.710582765245692e-21)
(1.050558363808715 0.03630802518650378 -1.768961367517301e-20)
(0.9838784929851362 -0.02237870593870241 0)
(0.6248806965117641 0.005110355465268954 9.16987091484291e-20)
(0.8941591823991675 -0.005949212234377853 -8.845367826894411e-20)
(0.9093630423473225 0.005227029593757593 1.451463697252909e-20)
(0.6296456363064713 -0.00644202626728956 1.410679904800795e-20)
(0.9809860973315337 2.020399221191104e-05 2.464768581820767e-20)
(1.004409160326848 -0.01753174931106859 -3.323061257616206e-20)
(0.9823661840207072 -0.03030465124746874 -2.752963618139317e-20)
(1.085640902864143 0.001593491690429042 0)
(1.019304231320127 0.005335323040631241 1.044945834871194e-20)
(1.132705947600966 0.04830962937707826 1.346988706810025e-19)
(1.03133602690447 0.04237805727074251 0)
(1.022597542005412 0.002602398017956641 0)
(1.582549444347549 -0.1682044624941422 4.362382837907099e-19)
(1.055815736440893 -0.0385919474061362 0)
(1.020715459137436 0.01067372749610611 -3.616874951166644e-20)
(1.082620434947447 0.004994837036153861 0)
(0.4928738504327816 0.00327670525559412 0)
(-0.001712015856663797 0.009935063973603182 0)
(0.9911784789486563 -0.02361083428537711 1.25230918164637e-20)
(1.300878796596287 -0.09676771988748499 3.671231013712389e-19)
(1.030907724341017 0.03637476232702962 0)
(1.022518036684289 0.003574572642234953 -2.179980884257498e-20)
(0.9316847253508416 -0.1609590944978905 -6.098495620798017e-21)
(1.256451550309289 0.07416397688912423 0)
(0.5979411591097205 0.7301356312069648 0)
(1.307684425510978 0.1409812573934488 1.039332380903251e-19)
(1.675258780375636 -0.02661513712634925 0)
(1.062347524735451 0.1323458318183968 0)
(0.7250945269718816 -0.005340243882699452 4.109812413466186e-21)
(1.046239309170138 0.04669834539315632 0)
(0.7512706185182125 0.1162699640567677 1.389404150985176e-19)
(0.9968106766532501 -0.01631311793728541 3.584255175485019e-19)
(1.038989282012599 -0.03946557630129192 2.713526278001603e-20)
(-0.3750660117802 -0.05340794869138691 0)
(1.072200107755807 -0.01620851899979692 0)
(1.084754795147563 -0.01067886716130136 0)
(0.648242837776229 -0.5031682799073343 -2.489616732461707e-19)
(0.9900927741060633 -0.0002011150510826371 0)
(1.092272379515264 -0.02192439463968149 6.69264710533166e-22)
(1.188181769954822 0.1207221059311309 -2.043565527510342e-19)
(1.099607592238033 -0.04454832671788015 0)
(1.005845366123667 -0.020755984488869 0)
(0.7750169858498445 -0.1896337648623084 -1.635339151009657e-19)
(0.8859208351026154 -0.1406709609024816 1.456365194717982e-19)
(1.033984896063635 0.01296641131476849 -2.055922404528063e-20)
(1.023130971437549 -0.009063346299965393 -4.301935477557037e-20)
(0.8734048895697817 0.00186564812582399 1.597075228131056e-22)
(1.504070995682312 -0.1948296788350567 0)
(1.307988238989784 0.1102867529953724 2.987796306507224e-20)
(1.24098382569475 -0.07746223768208785 -3.27687462691508e-21)
(1.095802166562555 -0.01873493084912582 -4.014560900890519e-20)
(1.036768583286565 -0.01787545276626109 3.073855699376064e-20)
(1.09281631089404 -0.0391203515187113 9.534532741243041e-20)
(1.032271125396101 0.02056524825314594 0)
(1.051347145941095 -0.0350457480907701 0)
(1.115901777229288 -0.008988969348199477 0)
(1.100538109785123 -0.03931490265588987 0)
(0.9982828566239754 0.01083135084934418 0)
(1.153587695576941 0.08032039228111171 9.415880418873146e-20)
(1.341606042406287 -0.1595000606004351 0)
(1.040178201363232 -0.02721783807142119 -2.597291615785653e-22)
(1.04823004883913 0.05421848409270493 0)
(1.010121958759756 0.0141676657822763 -3.802678220768487e-20)
(1.033598011694043 -0.007622880357268418 9.361854532434462e-21)
(1.088962885646821 0.01340338616704805 -3.173532788850801e-20)
(1.084427797652155 -0.02854385911034891 0)
(1.072332214827888 0.0008359318361850547 0)
(1.101609955794519 0.09254617085144394 -1.398522308060889e-18)
(0.9351501630199034 -0.1491187678163651 -7.103820677643476e-20)
(1.177635194857994 0.116400268079134 1.145983702009647e-19)
(-0.4566261206298492 -0.03014155305077861 -2.915286526464508e-19)
(1.018194364402704 0.02961269535847154 -8.570474458597473e-20)
(1.007055201344007 0.0007162549940189738 0)
(-0.2423677434159668 -0.004459195903945523 3.577184770696557e-19)
(-0.03286586979395227 0.3125340223582536 7.588531835198139e-21)
(0.9952076638497607 -0.006289100836901642 9.001688252435699e-20)
(0.1829760202891954 -0.04489945042039311 1.282138084079745e-19)
(1.087287554679386 0.09097811225032583 1.42028298366887e-20)
(0.09343759603582602 -0.1093323660432997 -5.408332491708739e-20)
(1.108348923051942 0.003084422916318953 0)
(1.094830656000188 0.2493206292488125 0)
(1.021057645829906 0.021617387092013 -1.678276755228462e-20)
(1.062085924234582 0.05637970566787388 0)
(1.024912356735158 0.02365949581239315 -8.28077815213648e-21)
(1.2618820235665 -0.548460614821629 7.998337731996771e-19)
(-0.1020914990980905 -0.2403885171277109 2.080511730570124e-19)
(1.300136885236643 0.1111679615718384 -6.131561677063856e-19)
(1.123553206708372 -0.000340043463581074 0)
(1.126922750555156 0.1079261941372358 0)
(0.5203777167158837 0.07604888106590789 2.403209876799128e-19)
(1.023293105018587 -0.02036091522339782 9.58754323098466e-20)
(1.006074923336902 -0.02313087024875213 0)
(1.211985053319282 0.2707453933926879 -9.78000425338944e-20)
(1.256103969345369 0.1257407510228999 -1.49678648675797e-19)
(1.02650371047485 0.003067729089363739 1.590220356756291e-20)
(1.296851379986768 -0.08518102593756603 -4.95233497510605e-19)
(0.3087152082072732 -0.02365721054017948 2.91939264969744e-19)
(0.8341344693006923 -0.1502333861861165 6.922096337828251e-19)
(1.044279588783298 0.06117480876186886 1.102095952632456e-19)
(1.038625305643935 0.00227192168894984 1.465449341079203e-21)
(1.000754484789032 0.01927037635307641 2.846719330927359e-20)