/*--------------------------------*- C++ -*----------------------------------*\
| =========                 |                                                 |
| \\      /  F ield         | OpenFOAM: The Open Source CFD Toolbox           |
|  \\    /   O peration     | Version:  2412                                  |
|   \\  /    A nd           | Website:  www.openfoam.com                      |
|    \\/     M anipulation  |                                                 |
\*---------------------------------------------------------------------------*/
FoamFile
{
    version     2.0;
    format      ascii;
    arch        "LSB;label=32;scalar=64";
    class       volVectorField;
    location    "1147";
    object      U;
}
// * * * * * * * * * * * * * * * * * * * * * * * * * * * * * * * * * * * * * //

dimensions      [0 1 -1 0 0 0 0];

internalField   nonuniform List<vector> 
808
(
(0.7562681884473947 -0.0175229691703589 0)
(1.031272466296114 -0.01249452149870805 0)
(1.115643454895909 0.00030177484572087 -1.779722144532208e-20)
(1.085130192588664 0.01257323013349919 0)
(1.360670258104039 0.01428946409005349 -3.851459021522549e-19)
(1.038657002798826 -0.009396903732930324 -7.224460321790883e-20)
(1.014085674913201 -0.02027212108151909 -2.373082591481516e-20)
(1.07872389872196 -0.004708902153161436 8.948702516546385e-21)
(1.252114013529439 -0.02090774781702675 6.297750761016565e-20)
(1.084718349254836 0.008853648753547699 0)
(1.010782008342663 -0.01244444390163077 0)
(1.303392948477934 -0.05348664765526526 -3.495897488593469e-19)
(1.086152968730661 -0.001594774471807563 2.033590687023418e-20)
(0.675066835232464 0.006402537952966596 0)
(1.280826550183168 -0.1227114337723287 0)
(1.081887485407468 -5.434669288857384e-05 -3.826418447337664e-20)
(1.230303362358393 -0.1534924944013546 -9.922226837970926e-20)
(1.07440561904654 -0.0002425519873557412 3.170427563571374e-20)
(0.99057972546392 0.006556308634146277 0)
(1.02695300408709 0.00915354521786994 0)
(1.039225710820167 -0.01564688715938416 0)
(0.9875463467973696 0.04524724041416991 0)
(1.051041805314279 -0.006219380001581242 5.690110025250687e-20)
(1.053630055085923 0.008223733223554205 0)
(0.9337472518005826 0.1997544226885865 4.578784681036818e-19)
(1.162584855187933 -0.09104897390436109 0)
(1.184270510464794 -0.01949065017146826 1.556675893278214e-19)
(1.077196943096786 0.009546166310738572 5.220959083932073e-20)
(1.0841345238107 0.001825220152717341 5.088045346697502e-21)
(1.072011312498086 0.03098621826974973 0)
(1.075535964856055 0.002517827733369975 -1.179004458918501e-20)
(1.033405818917289 0.006241970801030111 -1.905030469526267e-19)
(1.059936209613403 0.01467537605398108 -2.38391460729641e-20)
(1.088847592806346 0.005274895211332732 -2.930832262520279e-20)
(1.120435025195725 0.03643172271145955 0)
(0.7549366461164213 -0.1201948377560635 -4.547195224546134e-19)
(0.9544119317595758 -0.005734598569951965 0)
(1.068945416310494 0.02244202043247483 0)
(1.068835849340228 0.007243345639740766 0)
(1.073683349658551 0.008675087985427314 -2.823698146758849e-20)
(1.092675520240058 0.02258649617645271 1.089641179440719e-19)
(1.149609464348299 0.002246723935461174 2.136523636020915e-19)
(1.095558958753841 -0.002459228205381926 0)
(1.015600552678942 -0.009346828951003869 0)
(1.127682613071853 -0.09758714125706158 -1.659302056352673e-19)
(1.044060349729543 -0.01179915652233512 -8.193765009140907e-20)
(1.05840935154229 0.02669206878757552 -2.771525990367114e-20)
(1.229175175077064 -0.1118599564338854 -5.595446455767012e-20)
(1.067676496963085 0.01221425879199506 -4.149270446046078e-20)
(1.255369772833341 0.01588184174174281 0)
(0.9972025158769017 -0.01819746211297674 2.118055408377917e-21)
(1.044593402952418 -0.002553815813236559 0)
(1.087303289775815 -0.002368591360238345 0)
(0.9975784037765496 0.0076041234875684 -1.911836798459306e-20)
(1.252752369120001 0.03307992551407303 -2.363409394734524e-19)
(1.063741403476268 0.01839627320595091 5.98567115258036e-20)
(0.9882318062702953 0.009885047998616989 0)
(1.015523787947454 -0.01053323772581849 2.509068489051114e-20)
(1.10681228125735 -0.001544438794520553 -1.17010234830007e-19)
(1.061739572785239 0.03127509621924853 0)
(-0.06714580007675044 -0.02752381025521802 7.343611286075002e-20)
(1.153637890994457 -0.05204209441146269 -1.871675203309978e-19)
(1.001795362921317 -0.008044597573365014 -2.757537083448718e-20)
(1.185024722230286 0.06453775351735487 -1.205426227384154e-19)
(0.9975290244095352 -0.01069112977678572 3.036946461136057e-20)
(1.083814136052296 -0.005522231140060028 0)
(1.243911839534886 0.09253344228839723 0)
(0.6960266142592988 0.003174238746120642 -7.471619421669824e-20)
(0.989424365058564 -0.01592908923034298 -3.163278737972144e-20)
(1.456851578000171 -0.01841436562111654 4.435854768842997e-19)
(1.060678741217667 0.007559871821653266 -6.657268396635052e-20)
(1.364358063728656 0.09555066239516184 2.878694718140012e-19)
(1.054823177040812 0.006734399608975265 -1.869405072227277e-22)
(1.081055999059937 -0.01415891872365695 -4.09334477202564e-22)
(1.162743667513802 -0.2348756864208861 0)
(1.022687172223839 -0.01463488728660154 0)
(1.018000273825139 0.01777396143563515 -3.053297481795682e-20)
(1.389406688009084 0.3500235975480629 4.210509430037332e-19)
(1.097168327260275 -0.04205662743416003 9.425833881145046e-20)
(1.046713490894706 0.2111486825557969 2.449039471361904e-19)
(1.123312951881507 -0.06335897056712989 1.168990171066659e-19)
(0.9221366375774576 0.005195903374243478 0)
(0.9755040559651613 0.01859194544078492 0)
(1.004004187146142 -0.0485406247687279 3.01125525425669e-21)
(1.010832239864714 -0.01350627680242534 7.557601455591143e-21)
(1.031232791777833 0.02593974753345138 1.371972141678605e-20)
(1.525740073703298 0.03549950777684996 3.240917018818441e-19)
(1.291745071078412 0.07069159730452801 5.57209199903159e-19)
(1.072723527890691 0.002901106442762297 -8.978455502868028e-20)
(1.196721430882052 -0.09931950229045676 0)
(1.033956777916373 0.001480438912324012 1.30967771323909e-19)
(1.163579294132573 0.02044760498361814 -3.158223943562017e-19)
(1.001515943228242 0.03248834021239879 0)
(0.9996301436274094 0.001977743623179067 0)
(1.044175493190024 -0.0003731043808980157 7.86964119583648e-20)
(1.212798764278609 0.1013706926049568 3.994282362450456e-19)
(1.011130857956292 0.006940927757726485 0)
(1.087712794303806 -0.0709880222617367 -1.064217643834151e-19)
(1.149751158070095 0.03515573944794657 0)
(1.210934278493629 0.08959820396752161 -1.882978333244021e-19)
(1.108170480188256 -0.02865981028258927 -7.707309481113765e-20)
(1.028027039768358 0.01165491346479044 0)
(1.085485370969822 -0.004659792574874922 0)
(1.020266559371748 0.02584195773146391 7.960722978045216e-20)
(1.075446586109758 0.05417023836500767 -9.182303215834331e-21)
(1.10362861336173 -0.004389112267552044 6.343305204627787e-20)
(1.104392609503841 -0.09580617555333475 1.543263731778681e-19)
(0.959845654348439 -0.003571803662219524 0)
(1.066522495426069 0.03145729149111452 3.760712107113854e-20)
(1.167404791562016 -0.07628560334871322 2.287320109454209e-19)
(1.054068353485285 0.04547768497102737 -2.876309858589453e-20)
(1.022941229351655 0.06800073162086562 3.680211934173988e-20)
(1.090652257033065 0.02626093915346381 0)
(1.012593236845915 0.01474526238268137 0)
(1.0289642516748 0.00941085075734824 7.890274876773578e-20)
(0.9486236788376488 -0.03227155879038098 0)
(1.05335668640034 -0.005564207730808259 -7.602068394310543e-21)
(1.338848258789587 0.05769008927517846 -1.563843850792173e-19)
(1.079746621268108 -0.0133401422697826 2.60298191105028e-20)
(0.7442105959157794 -0.001787462172742115 0)
(0.5365326442437949 0.1567086669778942 -9.356079483399596e-20)
(0.7058196675240448 -0.002505251192104066 0)
(0.6991278899846032 0.01467666226652912 0)
(1.077835503146561 0.003459893192939547 -6.575700584728299e-22)
(0.9906376634579187 0.01443917192846429 0)
(1.281056348997724 0.1225987958504862 2.52413426439439e-19)
(1.012238852641562 -0.02796874341601335 -7.558260154306271e-21)
(1.038691401626815 0.01884574212694073 1.279576707800452e-21)
(1.058374941378336 -0.0123469675757428 0)
(1.126356107398615 -0.009260007388227911 -5.056100164761886e-20)
(1.25822003478894 0.1247458825454762 -2.160007138884194e-19)
(1.08878295476209 -0.01096820625996772 -8.500973733731795e-20)
(1.070779882103879 0.02503210225555691 -1.080051061922504e-19)
(1.041054525005934 0.0467615641239823 7.213076850237538e-20)
(1.02231203198898 -0.003537005676288577 -3.452284800484141e-20)
(1.061411156074417 0.02366327251564534 5.85544165023031e-21)
(1.136361854668366 -0.002061233323420948 1.065445486428931e-20)
(1.041132678708926 -0.01257241335696469 -4.670930430945052e-22)
(1.087745960009073 0.03483178528219142 0)
(1.028770146444618 0.0133356007180913 0)
(0.7902719150479736 -0.07246819705143598 -1.847796650116275e-19)
(1.030267027150651 -0.002135261257563371 -6.673242867281434e-20)
(1.13775205524601 0.001964463030493248 -1.306472081896254e-20)
(0.7035498655388305 0.006547498815325257 7.259813109741482e-20)
(1.17621688792004 0.01904934920105602 -1.946537980018458e-19)
(1.127989717785499 -0.004247738200097262 5.804528980548591e-21)
(1.129050128823598 -0.01010718143529449 3.404221834799213e-20)
(1.000937865729327 -0.002987357925422626 -7.005002106867736e-20)
(1.094089014742293 -0.06055133683101069 0)
(0.9868426894655238 -0.0004580875589578643 0)
(1.057995348907195 0.007049990100391968 0)
(1.006163365647865 0.1896625477317907 -2.397823005472195e-19)
(0.7795342890824847 0.01242452968732079 0)
(0.8570030404846002 0.1034091755194546 -8.28179398041522e-20)
(0.1029745401571094 0.03650243375303337 -3.049113225844613e-19)
(1.173168932658313 -0.03226356475938869 -2.263032416948336e-20)
(0.6712502914716256 -0.007368566579063729 2.442773018899305e-20)
(1.163715036178182 -0.1062825747462042 7.008220423098769e-20)
(1.128833472242959 -0.001078898284646497 -6.143064795066881e-21)
(1.154896933775429 -0.05091230979633234 2.199115862572071e-20)
(0.07731774997829924 -0.1900220965041556 0)
(0.2663138342870383 0.07078826544017218 0)
(1.253874506353628 0.1060526466769785 1.865992946165197e-19)
(1.021596289383202 0.0198834584194218 0)
(0.7375521273846098 -0.006325188345491424 0)
(1.074868097517313 -0.01174916845371299 2.704780393507298e-20)
(0.9752515417379123 0.00285208030554129 0)
(1.287069830428586 0.121631628542976 -1.45533575937373e-19)
(1.057401921452774 0.01113315803725824 0)
(0.992436999438823 -0.00821985266962807 0)
(1.065326274713199 0.008025521210654075 0)
(1.00623938081766 0.02088737346225154 2.030160145082999e-20)
(0.9226824135436862 0.003520407283422849 1.233228178059713e-20)
(1.175186388740625 -0.1988430187323382 0)
(1.004988629758158 -0.005231608565613132 7.883021591965699e-20)
(1.059232153647437 0.006148948693219521 0)
(0.774548314788624 -0.003353880688476914 0)
(1.21559137871537 0.02643170338240204 1.634239769049125e-20)
(0.7051325632902867 0.001333472921689511 0)
(1.431572842040287 0.08672975433807859 -5.197561691959283e-20)
(0.9935239224210235 -0.005981173110540821 1.658683020665164e-20)
(1.275940757692783 -0.003571366515912295 -2.972922366325734e-19)
(1.06005751237606 0.008802361370159321 1.351013374722784e-19)
(1.00089716065932 -0.0135813971112644 0)
(1.214530355968071 -0.1549519534101794 2.03406578360291e-19)
(0.7331692907989457 0.01379027266449175 0)
(1.09796992362928 -0.00506704149303081 0)
(1.154133544062205 0.06410983434877582 1.940260959897914e-20)
(1.006455354910799 -0.007244339861536346 -3.027508110439923e-20)
(1.121769337038235 0.04941129744476443 -1.723120932188899e-19)
(0.1568830770269707 -0.08847042708274035 0)
(1.073745595486088 0.03700203791045884 0)
(0.6614999762314904 -0.002888889451250337 -5.828093252206491e-22)
(1.012066682446953 -0.01972083926251427 9.261976230199716e-20)
(1.061838906134972 0.0007354382546686218 0)
(1.087800385848823 -0.1376264035403358 3.789828397342071e-19)
(1.002477795741702 -0.006164259564868354 -3.385422089828381e-21)
(1.001977165117151 -0.00417471189321625 1.29617799500121e-21)
(1.09402441653939 -0.009204593488333338 0)
(1.020793484405031 0.0201716273191255 -6.496005379935122e-20)
(1.106824744593901 -0.001680254438523583 6.451296003957946e-22)
(1.073794882119538 -0.01072447802778245 6.55477254162458e-20)
(1.085690228822643 0.02230606454386884 0)
(1.325144709281327 0.1608118565267935 0)
(1.002075273201746 0.0004544389364571132 4.411419828845767e-20)
(1.323315019662619 -0.1315324771310803 1.576772170900375e-19)
(0.02049081691779978 -0.1401513584081819 -2.413239095028717e-19)
(1.071230111981312 -0.005517547126634263 0)
(1.115158920211263 0.0008477162125407521 1.213745431114043e-20)
(0.7269421573315789 0.01785919380818813 0)
(1.060147221647094 0.004404988697150646 0)
(0.8650523018694622 0.1640574333693945 4.693934670981136e-19)
(1.276677886627884 0.1181493958368304 1.81912596633692e-19)
(0.6541210347674092 -0.003116742119336824 -6.386098459242437e-20)
(1.041788744037413 -0.002232072167133046 -2.837289753786391e-21)
(1.054961690147265 -0.0002489230498925929 6.536358486196636e-20)
(1.359111846701271 0.1208660748806222 6.656456145971827e-19)
(1.337833950795937 0.2528689535273535 0)
(1.057480648086684 0.006601887282605789 0)
(0.9952537156949113 -0.005914820250848398 1.425595699480428e-20)
(0.9947342266065129 -0.007503373711222784 1.634513843920046e-21)
(1.385841349711303 0.2001021814985233 4.300093554968317e-19)
(0.6817103142004537 0.0006447930275830162 9.872775753539221e-20)
(1.005681104687189 -0.00205601794323101 -5.978481739760209e-20)
(1.097977576285795 0.01308669761871877 2.545227027255408e-20)
(0.6694614903825294 0.004992554875988194 0)
(1.066081793363217 -0.01203254661441169 0)
(0.989362203025958 0.1244317037084935 -1.277691111182565e-19)
(1.081845135687057 0.003962728266880784 -2.506290630514146e-20)
(0.9819366974840897 -1.110661478884019e-05 3.294797608779451e-20)
(0.9912108059953768 0.005996965286418091 0)
(0.6382187131067198 -0.001157350115957009 0)
(0.9768595161428802 -0.001298445453366032 0)
(0.6419666265995038 -0.001461369082215345 2.712726255491655e-21)
(1.087429468472489 -0.05748152730140287 1.210954616818266e-19)
(1.110064492124637 -0.002950214011598876 1.212937901555528e-21)
(0.9580806513662387 -0.0009037409907194634 3.902203820157938e-20)
(1.016184207452479 0.01081524068549822 1.679478198328334e-20)
(1.063779104308697 0.009780815865917858 -2.156562333541548e-21)
(0.6348171510566131 0.008846576345979547 -3.636247333470976e-20)
(1.002458273823972 0.01273845041912229 -7.202421572341339e-22)
(1.036201391317108 0.01261223044386886 5.000181515287468e-21)
(0.9875932882005668 -0.005389133951917272 0)
(0.6100841349268096 -0.000465433825537662 0)
(1.068869112928492 0.02272156467366798 0)
(1.015757410063392 -0.01586196251937058 1.054936576617e-20)
(1.021688305494245 -0.001807744743043248 0)
(0.9926466407233622 0.01500459631922075 -9.347911225650551e-21)
(1.011707209721148 0.006908453955335074 0)
(1.130569814482784 -0.00481618226384957 -1.267477280898641e-20)
(0.03269705117528206 -0.1375720339096325 -4.509241303677256e-20)
(1.035638912356103 -0.01568194238997699 -7.468948034526448e-22)
(1.045886931808379 0.009081990459378136 0)
(1.087727473788421 0.06632362722627461 8.385440536058532e-20)
(0.9694725942766392 -0.0008683186797143084 3.117806954275028e-20)
(1.020469175851007 0.01715542839518627 -2.296247584416029e-20)
(1.006281934282329 0.001200278136720976 2.43287817588818e-20)
(1.040467418999877 -0.005123751446495335 0)
(0.6409862446450595 -0.004035290896771558 0)
(1.025996205379635 0.02447867184744664 -7.701045211713925e-20)
(1.08011223961166 0.005728938240963895 4.933721597565681e-20)
(1.012601871639378 0.003404283471598941 0)
(0.9816592704264294 -0.001823392198242422 -1.907707986297196e-21)
(0.8682444609580003 0.02192845188395924 -1.463403464508972e-20)
(1.013950600372312 0.003061005552675999 -9.96137458789001e-21)
(1.026635996598458 -0.001154354206967927 1.777204260925101e-20)
(0.9780901749723687 -0.001319047543340784 0)
(1.005879964708648 0.008444921400706464 3.332134489979595e-20)
(1.106879018887544 -0.005204060322527253 0)
(0.9314814827632812 0.004094034116651482 -3.454200756689498e-20)
(0.958051150517544 0.007489484901943825 0)
(0.9070793773095017 0.2069271552594975 5.088154704714475e-20)
(1.011129432042774 0.06747393701001154 0)
(0.9912793576387812 0.003789586103593029 -2.314227418911879e-20)
(1.053120292519644 -0.05078400536567113 -2.736695883879849e-20)
(0.9923124802705764 -0.001442222434432953 3.370957435853883e-20)
(1.00926856705498 0.002083923249711092 0)
(0.980046814116518 -0.0007320815649429882 -3.141123818242094e-20)
(1.174871487572523 0.09486928935358732 -3.304086070157193e-19)
(1.067800053389234 -0.2631550392384951 0)
(0.994818268164814 0.001892465755905212 -2.205281052257407e-20)
(0.9811042827463741 0.009562619641178194 4.868540450238014e-21)
(0.9582423676534754 -0.0003461268512943125 1.06657796113727e-21)
(0.7460280990783466 -0.001099305142854113 0)
(1.112881241389259 -0.0742098401794497 0)
(1.008023096373918 0.0003893733611624398 -2.14664055181794e-20)
(0.8987542255066987 -0.002517809770825239 -1.071368688034449e-20)
(0.8481193009118021 0.01292876538717588 5.886437282678275e-21)
(1.010085499404648 0.004548709716054969 0)
(0.9545296720345086 0.004861698300487811 1.602910966815302e-20)
(1.005818859777916 -0.0002137700499984776 -2.273807441283714e-20)
(1.023766860924345 0.002369385763304106 -2.517079539649642e-20)
(1.111320891274684 -0.006076961933534851 -4.897551923048173e-21)
(1.114358255282996 -0.004236998061323946 0)
(1.011018532517908 0.003968719449654669 0)
(1.025385866730255 0.0002418691701157896 0)
(0.9506828141832164 0.01012265652137305 -2.15697430390775e-20)
(1.017885433392565 0.01316266520803994 5.507731438579201e-20)
(1.081696411459646 0.007043310354088212 -2.277711271181493e-20)
(1.036799460146247 0.006653480251270088 0)
(1.107245158707649 -0.00587865750128441 1.808533687626327e-21)
(0.9960643197654825 0.00134391690776541 -2.215225338084564e-20)
(0.9812766779958041 0.003192373823766053 0)
(1.011266869560871 0.001921744019259995 4.691458716520456e-20)
(1.362809229062125 -0.3135514494548868 -1.123341999002716e-18)
(1.121508175621918 -0.04591646604857493 -1.100851650660242e-19)
(0.975354950632039 0.01024377491453577 4.853273400564714e-20)
(0.7821113417248706 0.02498566956199282 -3.499901055874796e-20)
(1.220844795036944 0.04945515774886475 0)
(1.215210598505817 -0.1373551579068699 -1.471901957982265e-19)
(1.082948017257214 0.0035631431125606 0)
(1.009584766129239 0.001349381459954713 2.229251734306779e-20)
(-0.1776773840000469 -0.06863108117432044 0)
(0.9939715723303205 -0.004671564952835593 0)
(1.012362117083565 -0.02309528112287842 4.104554977269287e-20)
(0.706135071349149 -0.01941298991989262 0)
(1.096802786998253 -0.01504260100176662 2.314417877417519e-21)
(1.040628791787986 -0.0001485044058237829 1.455473520019181e-20)
(0.6331246256250931 0.004182831597447123 0)
(1.445212202714743 -0.1230095127032179 0)
(0.9864740707047307 0.002073019709352651 -1.078195498008269e-20)
(1.069621789018804 -0.0149575050230744 0)
(1.03808352609937 0.0005628905599734397 2.114106079319259e-20)
(1.087785522012218 -0.002653893466220276 0)
(1.00916637734797 -0.001903600439114149 -1.212057930011306e-21)
(1.006243767349498 0.003151116198818468 0)
(1.013069996776223 -0.00817899543376298 -4.605375538718516e-23)
(1.003294014539844 -0.02010850245749734 0)
(1.033863266567654 0.00115889654456028 1.852478211380965e-20)
(-0.2139826648003389 0.05279671835753782 2.742406397016908e-19)
(0.8224914525454268 0.04044646086416366 5.778574246588906e-20)
(1.005287828356983 0.002365980278418437 0)
(1.125773968916151 0.02306398404505482 -1.316109772221062e-20)
(1.112034681421256 0.01418737661572097 9.575287410655705e-21)
(1.053828893226712 -0.01304471743026807 -1.305045117670118e-19)
(0.9987778905721448 0.01038449506230937 2.640581192731188e-22)
(1.08364562499932 4.861155050045582e-05 0)
(1.186175695638741 0.04988748190440889 0)
(0.8351218010843534 -0.07385630543704938 4.604239212613217e-19)
(1.098952257329527 -0.01511715341759742 0)
(1.03265178243124 0.007967199239661892 -7.59399590352775e-21)
(1.042784423377432 0.005349362840260607 5.881443033131953e-21)
(1.0505062789847 -0.06039478646910117 -7.507518652844947e-21)
(1.140187785164804 -0.002402143936324747 1.700344794758063e-19)
(1.076948526935883 -0.0008399921051117361 0)
(0.9951477671809149 0.001645275483352319 0)
(0.9975738189517166 -0.02404080840520915 -2.308092898855107e-21)
(0.9916345484944575 0.002875276351089735 0)
(1.028875030803295 -0.0373920403262428 6.442304344291397e-20)
(1.294481743785904 -0.0974577387648741 0)
(1.046353967471415 -0.01283233928316531 -1.099077268629085e-21)
(0.9861680584291426 0.01680906274910344 -8.844163173383729e-20)
(1.035543717142793 0.0420332679030757 -2.3638591994502e-21)
(-0.09219163315588581 0.1866244999390102 -1.678617843854638e-19)
(-0.063449962610395 -0.2814760815057143 -1.375563989433091e-19)
(0.8568268713094324 0.114129189228127 0)
(0.2826208799225111 -0.004151051103038833 -2.943549905173e-19)
(1.013653400087918 -0.01915452232491964 -1.28887298261126e-20)
(1.0640054173801 0.002628306873326224 -2.088893612555058e-20)
(0.9934979364219052 -0.02029935454834174 2.929359095710392e-20)
(1.025059937871887 -0.02656057942470808 2.548869301128618e-21)
(1.008364055977403 -0.03074741542995805 -6.628625402513054e-20)
(0.9886903773904464 0.004908072724891795 -3.483071157764282e-20)
(0.9937505307297101 0.004278500378791013 0)
(1.024578355203524 -0.001797839503351401 -3.573745232920816e-21)
(1.931427161728932 -0.1555951168030096 1.069167803687599e-18)
(1.053174320609245 -0.01883916487524837 0)
(0.9962369339924086 0.007192708939614196 1.50857706598013e-20)
(1.003004311645023 -0.0003132601380622986 4.053517758072361e-20)
(1.177553309835588 0.1404434458171403 0)
(1.006400569425947 -0.01732858402319364 -1.126304876553518e-21)
(0.9519573042387549 -0.0009216366047254368 0)
(1.037849445537382 0.04171964134520102 0)
(1.292612544473606 0.1558200530039961 2.17777968372066e-19)
(1.080486380200117 -0.01002167913596446 2.281798205850082e-20)
(1.017702084545618 0.03231868766362102 4.610280655056735e-20)
(1.079642976137772 -0.005449444197004518 -2.200247039840123e-20)
(1.055796230436045 -0.01534787089890146 1.549502455482571e-21)
(-0.3845766254204925 -0.03483618741650933 0)
(0.998178485503603 0.01329467683658879 0)
(0.1211616150396845 0.0586546965248208 -8.854912072877861e-20)
(1.005665074116729 0.02247353692275969 -4.071719012256239e-20)
(0.9985190593320633 -0.007974195708338207 0)
(1.000249671617526 0.005702443804225216 -5.005782575925331e-21)
(1.081616195636204 -0.04209129746161225 0)
(0.9956419218434457 -0.01869722004522191 -7.859674702364514e-21)
(1.0905562792339 -0.04685754399107652 0)
(1.440397195248403 0.1741623412408203 0)
(1.054208865703819 -0.01167752230248944 0)
(0.9916774508797863 -0.02289263606676317 -3.939246987168393e-20)
(0.9804615999696477 -0.02602482302743583 -2.440500393256803e-21)
(1.020216550257331 -0.01862290647985685 -1.918081465600675e-20)
(0.9973881089767082 0.01726400141486109 -5.511237671035874e-20)
(0.9952549948503023 0.009574052208609811 -1.470211387390119e-20)
(0.99423117010669 -0.02622972059069958 0)
(1.002311531360874 0.02570509436082397 1.922506640644576e-20)
(1.036164656448907 -0.03096680336726447 0)
(1.11041323136194 -0.03625383217224001 2.561254720636588e-19)
(0.9951742193034158 0.01717533672252658 4.566114605891429e-20)
(0.615106567892013 -0.008675493891594954 0)
(1.148029331545322 0.1376200672045828 -2.748980457400641e-21)
(0.8349451093803086 -0.09866136918657123 0)
(1.139207885547865 0.0728019465457207 -2.753629146020211e-19)
(1.313410703146807 -0.3874169192567459 1.281353357926231e-19)
(1.076475943096668 0.06419519690124496 -1.328360930627668e-20)
(1.009914180899831 -0.0294643522318331 0)
(0.9548251667070894 -0.2139027841891297 0)
(0.5228856855678259 0.1562787978259376 0)
(1.0120528853702 0.0128469643104216 1.054718877973622e-21)
(0.7082097676419599 -0.01481203813141473 0)
(0.9980255500290538 0.01761503326900057 3.505379128005353e-20)
(1.021516509793384 -0.0007569145144450979 -2.689153849858587e-20)
(1.079178079769794 -0.008029377507431148 2.719049821615917e-21)
(1.043448126784946 -0.008283844234176085 3.016394484699513e-20)
(1.042848304148283 0.0108384226519955 0)
(1.054452362069553 0.02827052212326144 -9.959204422932907e-21)
(1.051566913183252 0.03465451443504524 -1.791650805293523e-20)
(0.982990102283244 -0.02164960831899447 0)
(0.6249194881912937 0.005139576537997998 9.182854963402513e-20)
(0.8941769832839315 -0.005904404066665761 -8.857932851070791e-20)
(0.9093523669901515 0.005288854968231609 1.443145422892783e-20)
(0.629601229896952 -0.006391880893856122 1.408388631127397e-20)
(0.978732779934509 -0.0001237083192661559 2.602796259268162e-20)
(1.004438676620345 -0.01762256584332867 -3.400271564858843e-20)
(0.9671063576234604 -0.0111756052268174 -3.246332988053483e-20)
(1.085547375387018 0.001446705109397562 0)
(1.018767411937969 0.004632808151331237 1.085260292517245e-20)
(1.133317190572052 0.04829326183709234 1.329329574475589e-19)
(1.034067305772512 0.04238800930549814 0)
(1.022135067428957 0.002623644032570388 0)
(1.580794137202163 -0.1670397609262477 4.375722483975868e-19)
(1.039554264128793 -0.02693177138723033 0)
(1.021788612633828 0.007388161379425335 -3.643627739231189e-20)
(1.08826885629273 -0.004117768335580607 0)
(0.4841134528870426 -0.02128607715289588 0)
(-0.04195399634382109 0.007138500263705124 0)
(0.9900004371863287 -0.0236642374354187 1.233144903464905e-20)
(1.299338036242776 -0.09581220781095698 3.699022546785738e-19)
(1.033895224160572 0.0395206926873924 0)
(1.022598587664976 0.003354264317694402 -2.216716748218169e-20)
(0.9457248582316417 -0.1656418229610421 -9.203147429028593e-22)
(1.252587521757146 0.07440926623526217 0)
(0.5991519253149992 0.7326651425872781 0)
(1.30623582449565 0.1468165834407792 1.08238945688926e-19)
(1.673809664666724 -0.0254177150448673 0)
(1.070498149599939 0.1215185421484498 0)
(0.7283677167049977 -0.0006648904674863526 2.856225852303309e-21)
(1.051295061765801 0.04914779392296563 0)
(0.7152778190820598 0.09851681707446408 1.248450589714114e-19)
(0.996813707344713 -0.01632240081597887 3.581473082518047e-19)
(1.034161335976487 -0.03891515885756924 2.646574183730361e-20)
(-0.3710615565077212 -0.03138027105243909 0)
(1.071577438297929 -0.01619046218196271 0)
(1.095006477832979 -0.01650014024378925 0)
(0.6471545365407971 -0.5002525281095699 -2.503755407440769e-19)
(0.9923501062683718 -0.0003576949732981938 0)
(1.091737782606682 -0.02206018086625297 5.606034985414341e-22)
(1.189203940276032 0.1211600551492956 -2.025658271392589e-19)
(1.091821743534501 -0.03738241704630251 0)
(1.004930907840397 -0.02103656349798998 0)
(0.8113729039639028 -0.1941510977831441 -1.736690624731406e-19)
(0.9013440178574261 -0.140567990999146 1.516965352968852e-19)
(1.029639805670399 0.01002132652559528 -2.14921699643616e-20)
(1.023124702118948 -0.009271120813613528 -4.392300865927386e-20)
(0.867527607924891 0.001447323406659148 -3.688263811967795e-22)
(1.502485325679089 -0.1934721614007654 0)
(1.301437679197521 0.1146130284341703 3.158654910187783e-20)
(1.24422265258495 -0.07908302015233834 -3.03943900194065e-21)
(1.095910200204386 -0.01873660183942133 -3.902284798966525e-20)
(1.044041821293571 -0.01619114222257549 2.746066762560729e-20)
(1.092803224541512 -0.03918805149339212 9.356585423251316e-20)
(1.032681560193863 0.0196910173437972 0)
(1.04709821447299 -0.03170462185680692 0)
(1.115856684905187 -0.00904728451829905 0)
(1.092429861323124 -0.02583482673696985 0)
(0.9979491593541525 0.01081535064226729 0)
(1.152292490207188 0.0750684511096005 9.357406149162372e-20)
(1.345358737275315 -0.1557796514364745 0)
(1.042059411769519 -0.02176589387172913 -2.05052022168265e-22)
(1.053276273885221 0.05396725192991515 0)
(1.009922926646267 0.0144780540618528 -3.887342903810337e-20)
(1.033570857354851 -0.008207493888304589 9.23639765405959e-21)
(1.088993142643019 0.01330736593956969 -3.202336470507307e-20)
(1.084466351543832 -0.02982124902212387 0)
(1.076787088689393 -0.005585851573884491 0)
(1.103215694249221 0.0935334054031977 -1.41070952886649e-18)
(0.9349447535931531 -0.1482039781045587 -7.099113725854692e-20)
(1.177577705360283 0.1056958594322597 1.106691687575363e-19)
(-0.4649223903266673 -0.004224141143285376 -2.923078391995668e-19)
(1.019555314281341 0.0292867917656734 -8.686584983510051e-20)
(1.00602101531655 -0.006189331303760352 0)
(-0.2768364048899461 0.03257909357030034 3.555001151948341e-19)
(-0.0523745574492276 0.3386034338321955 7.293267725529109e-21)
(0.995223352481781 -0.006328487511533512 9.239200948296304e-20)
(0.1881474356195831 -0.0400858258017792 1.393662925013248e-19)
(1.097553000791342 0.08712246590503744 1.510139733922173e-20)
(0.09359631502392458 -0.106848886966954 -5.389997219963452e-20)
(1.107877527565897 0.003149042357091259 0)
(1.097110820533154 0.2539061807043174 0)
(1.021645633419433 0.02201680387425487 -1.70188820223967e-20)
(1.071662602069901 0.06061156366070745 0)
(1.024552718509897 0.02678823371272303 -9.2419664373204e-21)
(1.26050581039633 -0.5475627270482341 8.000056703956553e-19)
(-0.08380816791206888 -0.2070757009662058 2.135984707278882e-19)
(1.295345689144332 0.1136722427955816 -6.195966900621809e-19)
(1.124604192102355 -6.405138302169857e-05 0)
(1.13510954019004 0.1003069269870525 0)
(0.5239371732843749 0.08016020418922434 2.500754654334769e-19)
(1.022957647911277 -0.02109453289514297 9.459976589930525e-20)
(1.005288879770907 -0.02372080222004069 0)
(1.213134019192037 0.2716952584172585 -9.738752901661311e-20)
(1.250970862590993 0.1332196501369513 -1.544962652584518e-19)
(1.026537554498681 0.002669684074213759 1.565041374442893e-20)
(1.296979575249002 -0.08468209339900258 -4.978573436171064e-19)
(0.3034323077520686 -0.01920644935823295 2.710821584195531e-19)
(0.8324313178076955 -0.1485162392998921 6.797225309627753e-19)
(1.058947424075172 0.06967968708249929 1.070027862410498e-19)
(1.041187054919231 -0.007521188000231174 1.353062102252776e-21)
(1.001054188738588 0.02006481351683378 2.91342845364663e-20)