/*--------------------------------*- C++ -*----------------------------------*\
| =========                 |                                                 |
| \\      /  F ield         | OpenFOAM: The Open Source CFD Toolbox           |
|  \\    /   O peration     | Version:  2412                                  |
|   \\  /    A nd           | Website:  www.openfoam.com                      |
|    \\/     M anipulation  |                                                 |
\*---------------------------------------------------------------------------*/
FoamFile
{
    version     2.0;
    format      ascii;
    arch        "LSB;label=32;scalar=64";
    class       volVectorField;
    location    "0.9";
    object      cellDisplacement;
}
// * * * * * * * * * * * * * * * * * * * * * * * * * * * * * * * * * * * * * //

dimensions      [0 1 0 0 0 0 0];

internalField   nonuniform List<vector> 
256
(
(0.0219488 -0.00248835 0)
(0.0221628 0.000883475 0)
(0.020828 0.00386059 0)
(0.0181902 0.00587312 0)
(0.0147078 0.00661385 0)
(0.0108581 0.00608433 0)
(0.00698542 0.0045185 0)
(0.00326044 0.00228095 0)
(0.0650906 -0.0061702 0)
(0.0654144 0.00326072 0)
(0.0618543 0.0115378 0)
(0.0549715 0.0173229 0)
(0.0457964 0.019872 0)
(0.0355801 0.0191777 0)
(0.0250217 0.015631 0)
(0.0145768 0.00996663 0)
(0.106229 -0.0084667 0)
(0.106271 0.00625678 0)
(0.100744 0.0190976 0)
(0.0905296 0.0282814 0)
(0.0771014 0.0328603 0)
(0.0619008 0.0326858 0)
(0.046056 0.0282601 0)
(0.0300792 0.0203965 0)
(0.145492 -0.00943587 0)
(0.14498 0.00993159 0)
(0.137771 0.0267698 0)
(0.12505 0.0390999 0)
(0.108395 0.0458153 0)
(0.0894249 0.0466955 0)
(0.0695376 0.0422802 0)
(0.0492067 0.0333333 0)
(0.183072 -0.00907297 0)
(0.181833 0.0144106 0)
(0.17321 0.0348086 0)
(0.158549 0.0500597 0)
(0.139517 0.0589953 0)
(0.117809 0.0613588 0)
(0.0949533 0.0576684 0)
(0.0714098 0.0486451 0)
(0.219081 -0.00732254 0)
(0.216991 0.0198355 0)
(0.207215 0.043458 0)
(0.191043 0.0614484 0)
(0.170297 0.072662 0)
(0.146745 0.0768773 0)
(0.121825 0.0744849 0)
(0.0960533 0.0662376 0)
(0.253694 -0.0040602 0)
(0.250695 0.02642 0)
(0.239828 0.0529574 0)
(0.222513 0.073544 0)
(0.200627 0.0871289 0)
(0.175867 0.0934453 0)
(0.149651 0.0928466 0)
(0.122544 0.0861471 0)
(0.287026 0.000897768 0)
(0.283009 0.0343698 0)
(0.27114 0.0635872 0)
(0.252978 0.0866976 0)
(0.230332 0.102697 0)
(0.204895 0.111366 0)
(0.17801 0.113005 0)
(0.150202 0.108451 0)
(0.319146 0.00781375 0)
(0.313967 0.0439801 0)
(0.301177 0.0756864 0)
(0.282351 0.101246 0)
(0.259251 0.119763 0)
(0.233499 0.130997 0)
(0.206386 0.135249 0)
(0.178396 0.133379 0)
(0.349961 0.016993 0)
(0.343545 0.0556014 0)
(0.329891 0.0896595 0)
(0.310532 0.117654 0)
(0.287149 0.138752 0)
(0.261283 0.152766 0)
(0.234231 0.159964 0)
(0.20636 0.16127 0)
(0.37944 0.0289244 0)
(0.371696 0.0697514 0)
(0.357166 0.106038 0)
(0.337306 0.136439 0)
(0.313683 0.160227 0)
(0.287769 0.177222 0)
(0.260819 0.187696 0)
(0.233214 0.192623 0)
(0.40741 0.0442262 0)
(0.398181 0.0870424 0)
(0.382694 0.125431 0)
(0.362284 0.158253 0)
(0.338379 0.184866 0)
(0.312292 0.205107 0)
(0.285259 0.21916 0)
(0.257738 0.228068 0)
(0.433332 0.0636739 0)
(0.422418 0.108154 0)
(0.405811 0.148528 0)
(0.384675 0.183814 0)
(0.360278 0.213451 0)
(0.333797 0.237216 0)
(0.306276 0.255256 0)
(0.278226 0.268582 0)
(0.456242 0.0880946 0)
(0.443423 0.133939 0)
(0.425452 0.17616 0)
(0.403253 0.213969 0)
(0.377865 0.246836 0)
(0.350326 0.274488 0)
(0.321565 0.297011 0)
(0.291988 0.315227 0)
(0.474049 0.118002 0)
(0.459106 0.164637 0)
(0.439475 0.208388 0)
(0.415788 0.248649 0)
(0.388759 0.284933 0)
(0.359116 0.316978 0)
(0.327591 0.344704 0)
(0.294486 0.36855 0)
(0.481517 0.151345 0)
(0.464364 0.197813 0)
(0.442739 0.242376 0)
(0.41685 0.284605 0)
(0.386946 0.324093 0)
(0.353316 0.360459 0)
(0.316284 0.393355 0)
(0.276205 0.422462 0)
(0.00328664 0.00217832 0)
(0.00602868 0.00424858 0)
(0.00809891 0.00646418 0)
(0.00942959 0.00895293 0)
(0.00993363 0.011757 0)
(0.00949677 0.0147701 0)
(0.00805242 0.0177424 0)
(0.0056382 0.0202507 0)
(0.0144402 0.00983029 0)
(0.0214659 0.0158804 0)
(0.0264517 0.0224238 0)
(0.0292734 0.0297298 0)
(0.0297012 0.037776 0)
(0.0275196 0.0462126 0)
(0.0226295 0.0542772 0)
(0.015287 0.0608983 0)
(0.0294045 0.0204347 0)
(0.0393338 0.0301938 0)
(0.0459363 0.0408091 0)
(0.0491191 0.0526033 0)
(0.0485507 0.06542 0)
(0.0439333 0.0785497 0)
(0.0352394 0.0907426 0)
(0.0230593 0.100526 0)
(0.0477309 0.0339061 0)
(0.0591849 0.0471098 0)
(0.0662157 0.0615709 0)
(0.06873 0.0775204 0)
(0.0663047 0.0945454 0)
(0.0586641 0.111616 0)
(0.045932 0.127077 0)
(0.0290199 0.138979 0)
(0.0688561 0.0501329 0)
(0.0805767 0.0665963 0)
(0.0869053 0.0846423 0)
(0.0877868 0.104338 0)
(0.0827653 0.125024 0)
(0.0716049 0.145273 0)
(0.0546927 0.16318 0)
(0.0332019 0.176341 0)
(0.0922452 0.0690984 0)
(0.103027 0.0886187 0)
(0.1076 0.109974 0)
(0.105988 0.133011 0)
(0.0977041 0.156721 0)
(0.0826504 0.179424 0)
(0.0614374 0.198878 0)
(0.0355963 0.212584 0)
(0.117256 0.0907752 0)
(0.126043 0.113223 0)
(0.127914 0.137589 0)
(0.123008 0.163473 0)
(0.110881 0.189588 0)
(0.0916218 0.213966 0)
(0.0660791 0.234148 0)
(0.0361034 0.247815 0)
(0.143262 0.115268 0)
(0.148994 0.140408 0)
(0.147332 0.167481 0)
(0.138435 0.195717 0)
(0.121974 0.223509 0)
(0.0982648 0.248736 0)
(0.0684463 0.268957 0)
(0.0345915 0.282036 0)
(0.169516 0.142695 0)
(0.17125 0.170319 0)
(0.165232 0.199667 0)
(0.151714 0.229611 0)
(0.130532 0.258363 0)
(0.102261 0.283696 0)
(0.068282 0.303307 0)
(0.0307815 0.315381 0)
(0.19521 0.173354 0)
(0.192031 0.203125 0)
(0.180912 0.23423 0)
(0.162228 0.265217 0)
(0.136036 0.294125 0)
(0.103177 0.318824 0)
(0.0652009 0.337217 0)
(0.0243703 0.347763 0)
(0.219344 0.207613 0)
(0.210377 0.23914 0)
(0.193468 0.271378 0)
(0.169171 0.302602 0)
(0.137793 0.33084 0)
(0.100396 0.35407 0)
(0.0586961 0.370549 0)
(0.0148666 0.379067 0)
(0.240606 0.246082 0)
(0.22499 0.278802 0)
(0.201648 0.311354 0)
(0.171364 0.341839 0)
(0.134793 0.368377 0)
(0.093102 0.389218 0)
(0.0480465 0.403068 0)
(0.00164283 0.409115 0)
(0.256993 0.289531 0)
(0.233884 0.322589 0)
(0.2036 0.354321 0)
(0.167236 0.382786 0)
(0.125669 0.406403 0)
(0.0801342 0.423882 0)
(0.0322472 0.434357 0)
(-0.0162189 0.437435 0)
(0.265412 0.338803 0)
(0.233976 0.370834 0)
(0.196539 0.400039 0)
(0.154406 0.42478 0)
(0.108528 0.444026 0)
(0.0600446 0.457056 0)
(0.0102239 0.463421 0)
(-0.0395585 0.463053 0)
(0.260784 0.394124 0)
(0.220817 0.422721 0)
(0.177001 0.446756 0)
(0.130352 0.465566 0)
(0.0815723 0.478825 0)
(0.0314663 0.486314 0)
(-0.0190824 0.487942 0)
(-0.0691877 0.483774 0)
(0.233467 0.4475 0)
(0.18848 0.468229 0)
(0.141678 0.484449 0)
(0.0935114 0.496003 0)
(0.0444443 0.50278 0)
(-0.00505078 0.504716 0)
(-0.0544972 0.50179 0)
(-0.103419 0.494032 0)
)
;

boundaryField
{
    walls
    {
        type            cellMotion;
        value           uniform (0 0 0);
    }
    cylinder
    {
        type            cellMotion;
        value           nonuniform List<vector> 
16
(
(0.481517 0.151345 0)
(0.464364 0.197813 0)
(0.442739 0.242376 0)
(0.41685 0.284605 0)
(0.386946 0.324093 0)
(0.353316 0.360459 0)
(0.316284 0.393355 0)
(0.276205 0.422462 0)
(0.233467 0.4475 0)
(0.18848 0.468229 0)
(0.141678 0.484449 0)
(0.0935114 0.496003 0)
(0.0444443 0.50278 0)
(-0.00505078 0.504716 0)
(-0.0544972 0.50179 0)
(-0.103419 0.494032 0)
)
;
    }
    outlet
    {
        type            cellMotion;
        value           uniform (0 0 0);
    }
    inlet
    {
        type            cellMotion;
        value           nonuniform List<vector> 0();
    }
    frontAndBack
    {
        type            empty;
    }
    procBoundary1to0
    {
        type            processor;
        value           nonuniform List<vector> 
16
(
(0.0202774 -0.00560922 0)
(0.0610347 -0.0152048 0)
(0.100711 -0.0229248 0)
(0.139253 -0.0288335 0)
(0.176635 -0.0329759 0)
(0.212934 -0.0353254 0)
(0.248151 -0.0358143 0)
(0.282393 -0.0342725 0)
(0.315696 -0.0304744 0)
(0.348063 -0.0240588 0)
(0.379306 -0.0146011 0)
(0.409307 -0.00140784 0)
(0.437564 0.0163824 0)
(0.463121 0.0396638 0)
(0.483794 0.069227 0)
(0.494032 0.103419 0)
)
;
    }
    procBoundary1to3
    {
        type            processor;
        value           nonuniform List<vector> 
16
(
(0.00251786 0.0218812 0)
(0.00625967 0.0649584 0)
(0.008615 0.105998 0)
(0.00963151 0.145239 0)
(0.00931926 0.182759 0)
(0.00759551 0.21878 0)
(0.00436978 0.253365 0)
(-0.000591392 0.286737 0)
(-0.00749105 0.318857 0)
(-0.0167087 0.349729 0)
(-0.0286515 0.379236 0)
(-0.0440219 0.407262 0)
(-0.0635103 0.433237 0)
(-0.0880074 0.456189 0)
(-0.117969 0.474034 0)
(-0.151345 0.481517 0)
)
;
    }
}


// ************************************************************************* //
