/*--------------------------------*- C++ -*----------------------------------*\
| =========                 |                                                 |
| \\      /  F ield         | OpenFOAM: The Open Source CFD Toolbox           |
|  \\    /   O peration     | Version:  2412                                  |
|   \\  /    A nd           | Website:  www.openfoam.com                      |
|    \\/     M anipulation  |                                                 |
\*---------------------------------------------------------------------------*/
FoamFile
{
    version     2.0;
    format      ascii;
    arch        "LSB;label=32;scalar=64";
    class       surfaceScalarField;
    location    "0.9";
    object      meshPhi;
}
// * * * * * * * * * * * * * * * * * * * * * * * * * * * * * * * * * * * * * //

dimensions      [0 3 -1 0 0 0 0];

internalField   nonuniform List<scalar> 
480
(
0.00105909
-0.00150344
0.00107126
-0.000982913
0.00101351
-0.000361442
0.000912468
0.000204957
0.000796209
0.000624939
0.000662031
0.000882602
0.000445619
0.00097501
0.000945051
0.000282287
0.00307779
-0.0027294
0.00311408
-0.00176544
0.00294582
-0.000686704
0.00267716
0.000309415
0.00237132
0.00108101
0.0019939
0.00155862
0.00138633
0.00171866
0.00158856
0.000892141
0.00493172
-0.003712
0.00499136
-0.00239508
0.00472349
-0.000971899
0.00435774
0.000358545
0.00391544
0.00139095
0.00333905
0.00202965
0.00243462
0.00223733
0.00202743
0.00166697
0.00668562
-0.00440045
0.0067757
-0.00280924
0.00641575
-0.00116271
0.00600002
0.000405848
0.00544466
0.00163122
0.00470936
0.00236607
0.00359105
0.00258331
0.00233199
0.00268526
0.00826949
-0.00488604
0.00840341
-0.00311708
0.0080504
-0.00130662
0.00762549
0.000454518
0.0070039
0.00181736
0.00615129
0.00260896
0.00488132
0.00281813
0.00254901
0.00395567
0.00957994
-0.00521103
0.00973561
-0.00323643
0.00960489
-0.00129665
0.00922541
0.000533885
0.00860525
0.00194597
0.00769419
0.00276245
0.00634298
0.00297227
0.00271332
0.00547113
0.0108662
-0.00538748
0.0110041
-0.00321116
0.0111023
-0.00116074
0.0108069
0.000648821
0.0102239
0.00202253
0.00931917
0.00283039
0.00799886
0.00306177
0.00286084
0.00726563
0.0123675
-0.00535088
0.0124909
-0.00304226
0.0126405
-0.000965183
0.0124087
0.000761108
0.0118681
0.00204848
0.0110537
0.00284649
0.00989136
0.00312942
0.00302348
0.00941785
0.0139444
-0.00509641
0.0140974
-0.00270553
0.0142903
-0.00067196
0.014098
0.000891203
0.0136095
0.0020508
0.0129659
0.00282823
0.0120947
0.00317405
0.00317037
0.011981
0.0154639
-0.00470475
0.0156062
-0.00229483
0.0159043
-0.000427691
0.0158575
0.00085914
0.0155124
0.00189563
0.0151366
0.00273731
0.0147016
0.00318357
0.00325244
0.0150227
0.0169899
-0.00433021
0.0169937
-0.0020789
0.0172921
-0.000366841
0.0175385
0.000837203
0.0176004
0.00186233
0.017662
0.00269413
0.0177831
0.00313558
0.00317773
0.0186248
0.0186549
-0.00379473
0.0185783
-0.00189229
0.0188399
-0.000270481
0.0193959
0.000983835
0.0200141
0.00195184
0.02063
0.00262361
0.0213576
0.00294355
0.00292321
0.0227374
0.020462
-0.00279451
0.020535
-0.00131083
0.0209691
3.70458e-05
0.0218121
0.00110809
0.0228874
0.00188266
0.0240646
0.00237969
0.0253786
0.00260569
0.00259056
0.0272161
0.0222458
-0.00132685
0.0225933
-0.000360065
0.0233493
0.000531681
0.0245213
0.00124873
0.0260076
0.00176792
0.0277388
0.0021097
0.0296416
0.00229132
0.00230958
0.0319
0.0236901
0.000263374
0.0243229
0.000682437
0.025412
0.00107007
0.0269351
0.00139347
0.0288336
0.00165095
0.0310642
0.00184813
0.0335114
0.00198365
0.00204513
0.0361242
0.0221098
0.0230115
0.0243155
0.0259693
0.0279139
0.0300853
0.0323805
0.0346689
0.000238492
-0.000609801
0.00028155
-0.00105254
0.000372283
-0.00168671
0.000486182
-0.00222046
0.000598156
-0.0025806
0.000704391
-0.00268208
0.000803175
-0.00249253
-0.00201219
0.00078528
-0.00157428
0.000978573
-0.00241845
0.00122519
-0.00356071
0.00151993
-0.00438493
0.00183148
-0.00487491
0.00212722
-0.00495472
0.00241062
-0.00453085
-0.00361324
0.0015349
-0.00292493
0.0018897
-0.00400759
0.00226529
-0.00542137
0.0026856
-0.00642483
0.00313483
-0.00695104
0.00357396
-0.00692158
0.00401149
-0.00623996
-0.00490268
0.00254698
-0.00451158
0.00299745
-0.00570242
0.0034887
-0.00721086
0.00400987
-0.0082726
0.00453716
-0.00872926
0.00507083
-0.00850398
0.00561264
-0.00752419
-0.00580691
0.00384304
-0.00620431
0.00436805
-0.0074792
0.0049364
-0.0089632
0.00552011
-0.0099558
0.00607853
-0.0102717
0.0066516
-0.00980782
0.00723019
-0.00851926
-0.00643981
0.00542018
-0.00784562
0.00605387
-0.00917819
0.00665499
-0.0105983
0.007235
-0.0114171
0.00777712
-0.0114931
0.00832359
-0.0107458
0.00886167
-0.00913978
-0.00679377
0.00729729
-0.00938381
0.00804926
-0.0107131
0.00863755
-0.0119822
0.00915792
-0.0125643
0.00963462
-0.0123734
0.0100837
-0.0113439
0.0105148
-0.00946861
-0.00693643
0.00950361
-0.0107326
0.0102972
-0.0119457
0.010842
-0.012978
0.0112576
-0.0132902
0.0116081
-0.0128158
0.0119079
-0.0115438
0.0121961
-0.00947961
-0.00683396
0.0120186
-0.0117741
0.0127485
-0.0127717
0.0131977
-0.0134787
0.0134594
-0.0134787
0.0136388
-0.0127364
0.0137706
-0.0112932
0.0139183
-0.0091616
-0.00650411
0.0148791
-0.0124884
0.0153925
-0.0131682
0.0156746
-0.0134672
0.0157375
-0.0131505
0.0157082
-0.0121842
0.0156718
-0.0106542
0.0156855
-0.00857431
-0.00603218
0.0181866
-0.0127965
0.0183245
-0.013169
0.0183058
-0.0130037
0.0180927
-0.0123179
0.0178117
-0.0111567
0.0175801
-0.00958338
0.0174552
-0.00764501
-0.00539715
0.0219706
-0.0123405
0.0216182
-0.012475
0.0211123
-0.0118813
0.0205313
-0.0108537
0.0199574
-0.00954814
0.0195021
-0.00802853
0.0192105
-0.00632938
-0.00447055
0.0260518
-0.0106864
0.0251208
-0.0105967
0.0240465
-0.0097544
0.0230057
-0.00858198
0.0221037
-0.00729302
0.0214126
-0.00597928
0.0209364
-0.00461378
-0.00321072
0.0302031
-0.0076449
0.0285922
-0.00740154
0.0269109
-0.00652459
0.0253708
-0.00549759
0.0241227
-0.00448315
0.0231866
-0.0035216
0.0225698
-0.00259269
-0.00167256
0.0337873
-0.0031055
0.031377
-0.00284372
0.029116
-0.00234085
0.027169
-0.00182205
0.0256249
-0.00133209
0.0244998
-0.000872681
0.0238067
-0.000433243
-4.68693e-06
0.0317139
0.0289275
0.0265324
0.0245895
0.0231243
0.0221498
0.0216651
)
;

boundaryField
{
    walls
    {
        type            calculated;
        value           uniform 0;
    }
    cylinder
    {
        type            calculated;
        value           nonuniform List<scalar> 
16
(
4.9233e-12
-6.05114e-12
-2.0079e-12
3.64855e-12
-1.02809e-11
7.44463e-12
1.15296e-11
-5.83909e-12
5.83515e-12
-1.15331e-11
-7.44862e-12
1.02774e-11
-3.65136e-12
2.00446e-12
6.04672e-12
-4.92786e-12
)
;
    }
    outlet
    {
        type            calculated;
        value           uniform 0;
    }
    inlet
    {
        type            calculated;
        value           nonuniform List<scalar> 0();
    }
    frontAndBack
    {
        type            empty;
    }
    procBoundary1to0
    {
        type            processor;
        value           nonuniform List<scalar> 
16
(
-0.000933663
-0.00276799
-0.00451867
-0.00618251
-0.00776502
-0.00929065
-0.0108137
-0.0123724
-0.0139648
-0.0155864
-0.0172337
-0.0189253
-0.0206519
-0.0222883
-0.0235366
-0.0216529
)
;
    }
    procBoundary1to3
    {
        type            processor;
        value           nonuniform List<scalar> 
16
(
0.000887717
0.00265511
0.00438537
0.00607413
0.00770999
0.00929845
0.0108867
0.0125038
0.0141404
0.0157851
0.0174169
0.0190615
0.0207261
0.0223115
0.0235598
0.0216659
)
;
    }
}


// ************************************************************************* //
