/*--------------------------------*- C++ -*----------------------------------*\
| =========                 |                                                 |
| \\      /  F ield         | OpenFOAM: The Open Source CFD Toolbox           |
|  \\    /   O peration     | Version:  2412                                  |
|   \\  /    A nd           | Website:  www.openfoam.com                      |
|    \\/     M anipulation  |                                                 |
\*---------------------------------------------------------------------------*/
FoamFile
{
    version     2.0;
    format      ascii;
    arch        "LSB;label=32;scalar=64";
    class       pointVectorField;
    location    "0.9";
    object      pointDisplacement;
}
// * * * * * * * * * * * * * * * * * * * * * * * * * * * * * * * * * * * * * //

dimensions      [0 1 0 0 0 0 0];

internalField   nonuniform List<vector> 
578
(
(0 0 0)
(0 0 0)
(0 0 0)
(0 0 0)
(0 0 0)
(0 0 0)
(0 0 0)
(0 0 0)
(0 0 0)
(0.0421272 -0.00739711 0)
(0.0437125 -0.00114391 0)
(0.042634 0.00488838 0)
(0.0390283 0.00966775 0)
(0.0334697 0.0124483 0)
(0.0267672 0.0129631 0)
(0.0196175 0.0113668 0)
(0.0124423 0.00809375 0)
(0.00866979 0.00591301 0)
(0.0833078 -0.0132154 0)
(0.0858065 -0.00129044 0)
(0.0836327 0.0100423 0)
(0.0770855 0.0190767 0)
(0.0671528 0.024609 0)
(0.0551344 0.0261757 0)
(0.0421629 0.0239609 0)
(0.0289424 0.0185767 0)
(0.0218439 0.0149621 0)
(0.122964 -0.0174328 0)
(0.125794 -0.000433966 0)
(0.122496 0.0155199 0)
(0.113578 0.0283275 0)
(0.10032 0.0365365 0)
(0.0842498 0.0395406 0)
(0.0667648 0.0375075 0)
(0.0487514 0.0310943 0)
(0.0387825 0.0267875 0)
(0.161156 -0.0200908 0)
(0.163891 0.0014578 0)
(0.159497 0.021488 0)
(0.148693 0.0376989 0)
(0.132926 0.0485127 0)
(0.113833 0.0532416 0)
(0.0929733 0.0520301 0)
(0.0713249 0.0455172 0)
(0.0589542 0.0412463 0)
(0.197972 -0.0211793 0)
(0.200287 0.00446634 0)
(0.194855 0.0281377 0)
(0.182547 0.0474576 0)
(0.164896 0.0608098 0)
(0.143638 0.0674975 0)
(0.120379 0.0676273 0)
(0.0961184 0.0617986 0)
(0.0817864 0.0582481 0)
(0.233505 -0.0206304 0)
(0.235154 0.00872544 0)
(0.22872 0.0356787 0)
(0.215188 0.0578654 0)
(0.196161 0.0737128 0)
(0.173428 0.0825508 0)
(0.148568 0.0844428 0)
(0.122581 0.0799694 0)
(0.106676 0.0777665 0)
(0.267854 -0.0183073 0)
(0.268641 0.014417 0)
(0.261201 0.0443455 0)
(0.246649 0.0692094 0)
(0.226649 0.0875323 0)
(0.202971 0.09868 0)
(0.177151 0.102694 0)
(0.150164 0.100151 0)
(0.132987 0.0998483 0)
(0.301101 -0.0139997 0)
(0.300818 0.0217777 0)
(0.292352 0.0544182 0)
(0.276941 0.0818163 0)
(0.256261 0.102615 0)
(0.232032 0.116224 0)
(0.20574 0.12268 0)
(0.178307 0.122555 0)
(0.160045 0.124626 0)
(0.333249 -0.00741875 0)
(0.331682 0.0311108 0)
(0.32217 0.066244 0)
(0.306014 0.0960723 0)
(0.28485 0.119366 0)
(0.260329 0.135585 0)
(0.233888 0.144766 0)
(0.206396 0.147493 0)
(0.187111 0.152345 0)
(0.364222 0.00183005 0)
(0.361184 0.0428321 0)
(0.350596 0.0802743 0)
(0.333746 0.112457 0)
(0.312193 0.138278 0)
(0.287501 0.157254 0)
(0.261059 0.16943 0)
(0.233701 0.175408 0)
(0.213321 0.183382 0)
(0.393892 0.0143038 0)
(0.389202 0.0575012 0)
(0.377452 0.0970767 0)
(0.359881 0.131548 0)
(0.337935 0.159953 0)
(0.313056 0.181864 0)
(0.286563 0.197308 0)
(0.259294 0.206897 0)
(0.237571 0.218265 0)
(0.421925 0.0307399 0)
(0.415352 0.07579 0)
(0.40229 0.117299 0)
(0.383881 0.154012 0)
(0.361422 0.185099 0)
(0.336208 0.210162 0)
(0.30943 0.229188 0)
(0.281905 0.242764 0)
(0.2583 0.257744 0)
(0.447583 0.0519785 0)
(0.438867 0.0984822 0)
(0.424287 0.141704 0)
(0.40481 0.18062 0)
(0.381533 0.214515 0)
(0.355585 0.242992 0)
(0.328012 0.265985 0)
(0.29954 0.284001 0)
(0.273133 0.302737 0)
(0.469315 0.0787794 0)
(0.458214 0.12619 0)
(0.441872 0.170793 0)
(0.421001 0.211794 0)
(0.396428 0.248591 0)
(0.369034 0.280796 0)
(0.339672 0.308275 0)
(0.308937 0.33134 0)
(0.278211 0.353936 0)
(0.483357 0.110561 0)
(0.469763 0.157999 0)
(0.451424 0.203342 0)
(0.428717 0.246035 0)
(0.402092 0.285596 0)
(0.372044 0.321641 0)
(0.339089 0.353904 0)
(0.303655 0.382308 0)
(0.266261 0.408149 0)
(0.488952 0.127689 0)
(0.474082 0.175 0)
(0.454646 0.220625 0)
(0.430831 0.264126 0)
(0.402868 0.305083 0)
(0.371025 0.343102 0)
(0.335608 0.377817 0)
(0.29696 0.408893 0)
(0.255451 0.436031 0)
(0 0 0)
(0 0 0)
(0 0 0)
(0 0 0)
(0 0 0)
(0 0 0)
(0 0 0)
(0 0 0)
(0 0 0)
(0.0421272 -0.00739711 0)
(0.0437125 -0.00114391 0)
(0.042634 0.00488838 0)
(0.0390283 0.00966775 0)
(0.0334697 0.0124483 0)
(0.0267672 0.0129631 0)
(0.0196175 0.0113668 0)
(0.0124423 0.00809375 0)
(0.00866979 0.00591301 0)
(0.0833078 -0.0132154 0)
(0.0858065 -0.00129044 0)
(0.0836327 0.0100423 0)
(0.0770855 0.0190767 0)
(0.0671528 0.024609 0)
(0.0551344 0.0261757 0)
(0.0421629 0.0239609 0)
(0.0289424 0.0185767 0)
(0.0218439 0.0149621 0)
(0.122964 -0.0174328 0)
(0.125794 -0.000433966 0)
(0.122496 0.0155199 0)
(0.113578 0.0283275 0)
(0.10032 0.0365365 0)
(0.0842498 0.0395406 0)
(0.0667648 0.0375075 0)
(0.0487514 0.0310943 0)
(0.0387825 0.0267875 0)
(0.161156 -0.0200908 0)
(0.163891 0.0014578 0)
(0.159497 0.021488 0)
(0.148693 0.0376989 0)
(0.132926 0.0485127 0)
(0.113833 0.0532416 0)
(0.0929733 0.0520301 0)
(0.0713249 0.0455172 0)
(0.0589542 0.0412463 0)
(0.197972 -0.0211793 0)
(0.200287 0.00446634 0)
(0.194855 0.0281377 0)
(0.182547 0.0474576 0)
(0.164896 0.0608098 0)
(0.143638 0.0674975 0)
(0.120379 0.0676273 0)
(0.0961184 0.0617986 0)
(0.0817864 0.0582481 0)
(0.233505 -0.0206304 0)
(0.235154 0.00872544 0)
(0.22872 0.0356787 0)
(0.215188 0.0578654 0)
(0.196161 0.0737128 0)
(0.173428 0.0825508 0)
(0.148568 0.0844428 0)
(0.122581 0.0799694 0)
(0.106676 0.0777665 0)
(0.267854 -0.0183073 0)
(0.268641 0.014417 0)
(0.261201 0.0443455 0)
(0.246649 0.0692094 0)
(0.226649 0.0875323 0)
(0.202971 0.09868 0)
(0.177151 0.102694 0)
(0.150164 0.100151 0)
(0.132987 0.0998483 0)
(0.301101 -0.0139997 0)
(0.300818 0.0217777 0)
(0.292352 0.0544182 0)
(0.276941 0.0818163 0)
(0.256261 0.102615 0)
(0.232032 0.116224 0)
(0.20574 0.12268 0)
(0.178307 0.122555 0)
(0.160045 0.124626 0)
(0.333249 -0.00741875 0)
(0.331682 0.0311108 0)
(0.32217 0.066244 0)
(0.306014 0.0960723 0)
(0.28485 0.119366 0)
(0.260329 0.135585 0)
(0.233888 0.144766 0)
(0.206396 0.147493 0)
(0.187111 0.152345 0)
(0.364222 0.00183005 0)
(0.361184 0.0428321 0)
(0.350596 0.0802743 0)
(0.333746 0.112457 0)
(0.312193 0.138278 0)
(0.287501 0.157254 0)
(0.261059 0.16943 0)
(0.233701 0.175408 0)
(0.213321 0.183382 0)
(0.393892 0.0143038 0)
(0.389202 0.0575012 0)
(0.377452 0.0970767 0)
(0.359881 0.131548 0)
(0.337935 0.159953 0)
(0.313056 0.181864 0)
(0.286563 0.197308 0)
(0.259294 0.206897 0)
(0.237571 0.218265 0)
(0.421925 0.0307399 0)
(0.415352 0.07579 0)
(0.40229 0.117299 0)
(0.383881 0.154012 0)
(0.361422 0.185099 0)
(0.336208 0.210162 0)
(0.30943 0.229188 0)
(0.281905 0.242764 0)
(0.2583 0.257744 0)
(0.447583 0.0519785 0)
(0.438867 0.0984822 0)
(0.424287 0.141704 0)
(0.40481 0.18062 0)
(0.381533 0.214515 0)
(0.355585 0.242992 0)
(0.328012 0.265985 0)
(0.29954 0.284001 0)
(0.273133 0.302737 0)
(0.469315 0.0787794 0)
(0.458214 0.12619 0)
(0.441872 0.170793 0)
(0.421001 0.211794 0)
(0.396428 0.248591 0)
(0.369034 0.280796 0)
(0.339672 0.308275 0)
(0.308937 0.33134 0)
(0.278211 0.353936 0)
(0.483357 0.110561 0)
(0.469763 0.157999 0)
(0.451424 0.203342 0)
(0.428717 0.246035 0)
(0.402092 0.285596 0)
(0.372044 0.321641 0)
(0.339089 0.353904 0)
(0.303655 0.382308 0)
(0.266261 0.408149 0)
(0.488952 0.127689 0)
(0.474082 0.175 0)
(0.454646 0.220625 0)
(0.430831 0.264126 0)
(0.402868 0.305083 0)
(0.371025 0.343102 0)
(0.335608 0.377817 0)
(0.29696 0.408893 0)
(0.255451 0.436031 0)
(0 0 0)
(0 0 0)
(0 0 0)
(0 0 0)
(0 0 0)
(0 0 0)
(0 0 0)
(0 0 0)
(0.011282 0.00800884 0)
(0.015506 0.012233 0)
(0.0183219 0.0168744 0)
(0.019604 0.0220395 0)
(0.019191 0.0276209 0)
(0.0169585 0.0332535 0)
(0.0129367 0.0383112 0)
(0.00745467 0.0420363 0)
(0.0261557 0.0190663 0)
(0.0333049 0.027312 0)
(0.0377121 0.0363786 0)
(0.0391855 0.0463728 0)
(0.0374567 0.0569871 0)
(0.0323642 0.0674544 0)
(0.0240856 0.0766348 0)
(0.0133291 0.0831366 0)
(0.0439224 0.0328974 0)
(0.0526858 0.0449108 0)
(0.0575239 0.0581174 0)
(0.0582048 0.0725179 0)
(0.0543953 0.0875361 0)
(0.0459745 0.102011 0)
(0.0333402 0.114361 0)
(0.0175991 0.122728 0)
(0.0641066 0.0494248 0)
(0.0732469 0.0649737 0)
(0.0774385 0.0820137 0)
(0.0764283 0.100358 0)
(0.0698674 0.119124 0)
(0.0577531 0.136807 0)
(0.0407339 0.151428 0)
(0.0203044 0.160872 0)
(0.0862042 0.0686015 0)
(0.0945598 0.087455 0)
(0.0971034 0.107991 0)
(0.0935948 0.129779 0)
(0.083713 0.151626 0)
(0.0676224 0.171716 0)
(0.0462483 0.187783 0)
(0.0214335 0.197658 0)
(0.109677 0.0904189 0)
(0.116183 0.112352 0)
(0.116164 0.136016 0)
(0.10943 0.16071 0)
(0.0957441 0.184946 0)
(0.0754685 0.206636 0)
(0.0498142 0.223395 0)
(0.0209161 0.233176 0)
(0.133928 0.11491 0)
(0.137611 0.139679 0)
(0.13421 0.166074 0)
(0.123608 0.19309 0)
(0.105712 0.218978 0)
(0.0811188 0.241488 0)
(0.0513093 0.258278 0)
(0.0186136 0.267526 0)
(0.158299 0.142165 0)
(0.158244 0.169477 0)
(0.150716 0.198135 0)
(0.135695 0.226824 0)
(0.113279 0.253609 0)
(0.0843232 0.276213 0)
(0.050524 0.292459 0)
(0.0143136 0.300788 0)
(0.182047 0.172368 0)
(0.177398 0.201849 0)
(0.165058 0.232203 0)
(0.145155 0.26186 0)
(0.118017 0.28879 0)
(0.0847333 0.310801 0)
(0.0471516 0.325955 0)
(0.00772537 0.332965 0)
(0.204287 0.205806 0)
(0.194237 0.236988 0)
(0.176477 0.268386 0)
(0.151328 0.298233 0)
(0.119358 0.324507 0)
(0.0818632 0.345206 0)
(0.040771 0.358685 0)
(-0.00154653 0.363978 0)
(0.223874 0.242911 0)
(0.207657 0.275195 0)
(0.183939 0.30683 0)
(0.153292 0.335959 0)
(0.116519 0.360672 0)
(0.0750478 0.379268 0)
(0.030795 0.390484 0)
(-0.0140592 0.393696 0)
(0.239159 0.28426 0)
(0.216059 0.316803 0)
(0.185977 0.347622 0)
(0.149765 0.374902 0)
(0.108411 0.397018 0)
(0.0633609 0.412672 0)
(0.0164056 0.421025 0)
(-0.0305484 0.421785 0)
(0.2476 0.330459 0)
(0.217014 0.361996 0)
(0.180442 0.39054 0)
(0.13894 0.414556 0)
(0.0935641 0.432891 0)
(0.045629 0.444717 0)
(-0.00335775 0.449593 0)
(-0.0518486 0.447497 0)
(0.245256 0.381669 0)
(0.207062 0.410164 0)
(0.164535 0.434361 0)
(0.118664 0.453363 0)
(0.070349 0.466605 0)
(0.0206124 0.473717 0)
(-0.0294441 0.474569 0)
(-0.0787133 0.469276 0)
(0.225782 0.433308 0)
(0.181867 0.455681 0)
(0.135508 0.473302 0)
(0.0873489 0.485872 0)
(0.0379988 0.493211 0)
(-0.0118853 0.495223 0)
(-0.0616249 0.491903 0)
(-0.110543 0.483349 0)
(0.211483 0.45897 0)
(0.165477 0.477489 0)
(0.117878 0.491409 0)
(0.0691443 0.500597 0)
(0.0197443 0.504964 0)
(-0.0298459 0.504468 0)
(-0.0791486 0.499113 0)
(-0.127689 0.488952 0)
(0 0 0)
(0 0 0)
(0 0 0)
(0 0 0)
(0 0 0)
(0 0 0)
(0 0 0)
(0 0 0)
(0.011282 0.00800884 0)
(0.015506 0.012233 0)
(0.0183219 0.0168744 0)
(0.019604 0.0220395 0)
(0.019191 0.0276209 0)
(0.0169585 0.0332535 0)
(0.0129367 0.0383112 0)
(0.00745467 0.0420363 0)
(0.0261557 0.0190663 0)
(0.0333049 0.027312 0)
(0.0377121 0.0363786 0)
(0.0391855 0.0463728 0)
(0.0374567 0.0569871 0)
(0.0323642 0.0674544 0)
(0.0240856 0.0766348 0)
(0.0133291 0.0831366 0)
(0.0439224 0.0328974 0)
(0.0526858 0.0449108 0)
(0.0575239 0.0581174 0)
(0.0582048 0.0725179 0)
(0.0543953 0.0875361 0)
(0.0459745 0.102011 0)
(0.0333402 0.114361 0)
(0.0175991 0.122728 0)
(0.0641066 0.0494248 0)
(0.0732469 0.0649737 0)
(0.0774385 0.0820137 0)
(0.0764283 0.100358 0)
(0.0698674 0.119124 0)
(0.0577531 0.136807 0)
(0.0407339 0.151428 0)
(0.0203044 0.160872 0)
(0.0862042 0.0686015 0)
(0.0945598 0.087455 0)
(0.0971034 0.107991 0)
(0.0935948 0.129779 0)
(0.083713 0.151626 0)
(0.0676224 0.171716 0)
(0.0462483 0.187783 0)
(0.0214335 0.197658 0)
(0.109677 0.0904189 0)
(0.116183 0.112352 0)
(0.116164 0.136016 0)
(0.10943 0.16071 0)
(0.0957441 0.184946 0)
(0.0754685 0.206636 0)
(0.0498142 0.223395 0)
(0.0209161 0.233176 0)
(0.133928 0.11491 0)
(0.137611 0.139679 0)
(0.13421 0.166074 0)
(0.123608 0.19309 0)
(0.105712 0.218978 0)
(0.0811188 0.241488 0)
(0.0513093 0.258278 0)
(0.0186136 0.267526 0)
(0.158299 0.142165 0)
(0.158244 0.169477 0)
(0.150716 0.198135 0)
(0.135695 0.226824 0)
(0.113279 0.253609 0)
(0.0843232 0.276213 0)
(0.050524 0.292459 0)
(0.0143136 0.300788 0)
(0.182047 0.172368 0)
(0.177398 0.201849 0)
(0.165058 0.232203 0)
(0.145155 0.26186 0)
(0.118017 0.28879 0)
(0.0847333 0.310801 0)
(0.0471516 0.325955 0)
(0.00772537 0.332965 0)
(0.204287 0.205806 0)
(0.194237 0.236988 0)
(0.176477 0.268386 0)
(0.151328 0.298233 0)
(0.119358 0.324507 0)
(0.0818632 0.345206 0)
(0.040771 0.358685 0)
(-0.00154653 0.363978 0)
(0.223874 0.242911 0)
(0.207657 0.275195 0)
(0.183939 0.30683 0)
(0.153292 0.335959 0)
(0.116519 0.360672 0)
(0.0750478 0.379268 0)
(0.030795 0.390484 0)
(-0.0140592 0.393696 0)
(0.239159 0.28426 0)
(0.216059 0.316803 0)
(0.185977 0.347622 0)
(0.149765 0.374902 0)
(0.108411 0.397018 0)
(0.0633609 0.412672 0)
(0.0164056 0.421025 0)
(-0.0305484 0.421785 0)
(0.2476 0.330459 0)
(0.217014 0.361996 0)
(0.180442 0.39054 0)
(0.13894 0.414556 0)
(0.0935641 0.432891 0)
(0.045629 0.444717 0)
(-0.00335775 0.449593 0)
(-0.0518486 0.447497 0)
(0.245256 0.381669 0)
(0.207062 0.410164 0)
(0.164535 0.434361 0)
(0.118664 0.453363 0)
(0.070349 0.466605 0)
(0.0206124 0.473717 0)
(-0.0294441 0.474569 0)
(-0.0787133 0.469276 0)
(0.225782 0.433308 0)
(0.181867 0.455681 0)
(0.135508 0.473302 0)
(0.0873489 0.485872 0)
(0.0379988 0.493211 0)
(-0.0118853 0.495223 0)
(-0.0616249 0.491903 0)
(-0.110543 0.483349 0)
(0.211483 0.45897 0)
(0.165477 0.477489 0)
(0.117878 0.491409 0)
(0.0691443 0.500597 0)
(0.0197443 0.504964 0)
(-0.0298459 0.504468 0)
(-0.0791486 0.499113 0)
(-0.127689 0.488952 0)
)
;

boundaryField
{
    walls
    {
        type            fixedValue;
        value           uniform (0 0 0);
    }
    cylinder
    {
        type            solidBodyMotionDisplacement;
        value           nonuniform List<vector> 
34
(
(0.488952 0.127689 0)
(0.488952 0.127689 0)
(0.474082 0.175 0)
(0.474082 0.175 0)
(0.454646 0.220625 0)
(0.454646 0.220625 0)
(0.430831 0.264126 0)
(0.430831 0.264126 0)
(0.402868 0.305083 0)
(0.402868 0.305083 0)
(0.371025 0.343102 0)
(0.371025 0.343102 0)
(0.335608 0.377817 0)
(0.335608 0.377817 0)
(0.29696 0.408893 0)
(0.29696 0.408893 0)
(0.255451 0.436031 0)
(0.255451 0.436031 0)
(0.211483 0.45897 0)
(0.211483 0.45897 0)
(0.165477 0.477489 0)
(0.165477 0.477489 0)
(0.117878 0.491409 0)
(0.117878 0.491409 0)
(0.0691443 0.500597 0)
(0.0691443 0.500597 0)
(0.0197443 0.504964 0)
(0.0197443 0.504964 0)
(-0.0298459 0.504468 0)
(-0.0298459 0.504468 0)
(-0.0791486 0.499113 0)
(-0.0791486 0.499113 0)
(-0.127689 0.488952 0)
(-0.127689 0.488952 0)
)
;
        solidBodyMotionFunction oscillatingRotatingMotion;
        oscillatingRotatingMotionCoeffs
        {
            origin          ( 0 0 0 );
            axis            ( 0 0 1 );
            omega           1.5;
            amplitude       ( 0 0 30 );
        }
    }
    outlet
    {
        type            fixedValue;
        value           uniform (0 0 0);
    }
    inlet
    {
        type            fixedValue;
        value           nonuniform List<vector> 0();
    }
    frontAndBack
    {
        type            empty;
    }
    procBoundary1to0
    {
        type            processor;
    }
    procBoundary1to3
    {
        type            processor;
    }
}


// ************************************************************************* //
