/*--------------------------------*- C++ -*----------------------------------*\
| =========                 |                                                 |
| \\      /  F ield         | OpenFOAM: The Open Source CFD Toolbox           |
|  \\    /   O peration     | Version:  2412                                  |
|   \\  /    A nd           | Website:  www.openfoam.com                      |
|    \\/     M anipulation  |                                                 |
\*---------------------------------------------------------------------------*/
FoamFile
{
    version     2.0;
    format      ascii;
    arch        "LSB;label=32;scalar=64";
    class       surfaceScalarField;
    location    "124.5";
    object      phi;
}
// * * * * * * * * * * * * * * * * * * * * * * * * * * * * * * * * * * * * * //

dimensions      [0 3 -1 0 0 0 0];

oriented        oriented;

internalField   nonuniform List<scalar> 
1171
(
-0.9279253339175955
0.9279253339655132
0.7872692997218746
-1.098745553025425
0.3114762531520323
-0.1949779812276463
-0.7669893380728033
0.9619673192880027
0.07207467022574364
-0.1173116717833347
-0.2117719881141379
0.3290836603709099
-0.7872693092057956
0.06931014449972003
0.7179591646927327
0.8108496203375308
-0.1773903461125572
-0.6334592741684654
0.8742773571714352
-1.043488575444638
0.1692112182294269
-0.28472202905792
-0.09781496717057103
0.3825369958550037
-0.03597397834346647
0.5483651630718638
-0.5123911846430554
-0.5058196399930524
0.8282721923346275
-0.3224525523404705
-0.4020337062883974
1.0457279436802
-0.1714505860888032
0.3959442039904281
0.04840146448604388
-0.4443456674222827
1.046408974370724
-0.0006810307605101061
0.4461150621288107
-0.05017085522450632
1.05697821627191
-0.01056923747965203
0.5779050670483586
-0.7728830547878408
-0.7243807159068634
0.557165733326712
0.167214982653955
0.220879086673626
-0.7266987191400481
0.5502386526779313
-0.9226563804919948
0.3724177286106509
-1.094179909541749
0.6864087534787877
0.407771155947844
-0.5953485311321908
0.5593745467036061
0.01800402223401366
-0.2567089997181517
0.238704978553289
-0.02448241208651448
-0.5230087308010766
0.547491143024348
0.3998801618973231
-0.4976951358978061
-0.9187450107729878
0.9414510798324149
-0.02270606907514842
1.067718185661392
-0.01073996715903246
0.9352117070037395
-1.116978055555309
0.1817663486180752
1.067358486381558
0.0003597043282445998
-0.6643008569245253
-0.06007985892250301
1.262095643140958
-0.8644220080644378
-0.3976736350769837
0.1486134812764382
-0.1090049169509023
-0.3257780527112511
0.4347829693522952
-0.2857302321771378
0.1911904304611249
0.09453980122672083
-0.5833851257431338
-0.5153604231629593
1.01410034949462
-0.07888864140281518
0.00993104622499056
0.8254395010619036
-0.8353705473254222
0.5718144411660888
0.6902811999318229
0.4393602432296906
-0.03051438522198794
0.4303945470416389
-0.8076935633659291
-0.102616117344433
0.910309680780957
0.5027147194630645
0.2538434202718052
-0.7565581397168809
0.003710722287478916
0.5296443124036369
-0.5333550342578606
-0.4898828585713062
-0.604297047730219
-0.4229089406140126
-0.6940691148851545
-0.0274044335729707
0.2703270958012897
-0.2429226630599091
-0.9248889996219068
-0.005193130496341291
0.930082130069124
0.3078881267475746
0.07464886112154556
0.7623539315185583
0.04849569261635774
-0.5330437825806913
-0.06230475082018887
0.04633158157026879
-0.8540251432826108
0.07640143685859135
0.8619208702049584
-0.9383223070746373
-0.3474124407137315
-0.04112037578606357
0.3885328164279004
-0.682425406961054
-0.2424635956097965
-0.6314626431746871
0.7078640824890723
0.6092322841477774
0.2190399149580702
-0.5429055759204749
0.9462199932253009
-0.7794063256787821
-0.1668136675762854
0.02182066619313295
-0.01366172388437718
-0.008158941768969214
-0.4029447284762755
-0.09475040746583548
-0.241897819448538
0.8511301094078553
0.04679657086690486
0.3344682335189014
-0.3812648048133903
-0.4606024166076003
0.9633171397456076
0.6800989310933618
-0.7827150451643157
0.3184848616263271
-0.01609685992868451
-0.3023880015773835
0.9306687707647719
-0.930668770779974
-0.7830549580631675
0.1110843437480613
-0.3228563359571394
-0.7500501959329712
0.7599812411467544
-0.0907221276032595
-0.1427116983318608
0.2334338253536499
0.8649551815445773
-0.03951568252525803
1.054423439192424
-0.8005800128973382
0.1860758583057646
-0.3156459489177724
0.1295700907499965
0.859213769227152
-0.09685983713541997
-0.6117405805987923
-0.03940383401176426
0.6511444145837662
0.123830103258972
-0.2310258820014032
0.1071957798440703
0.8056320109332697
-0.9830223543813142
-0.4351411716642374
0.3295027098575256
0.105638462261342
0.5318932141212235
-0.5563756231971573
1.022133026712978
-0.4562737623500248
-0.5658592643671836
0.59922408838973
-0.7193116530822947
0.06666124355906013
0.6526504091700962
0.1026556343687768
0.5704932606798456
0.05468626992441215
-0.6251795304748298
0.194421088247608
-0.08333674523174303
-0.4930385346351746
0.1456260949091596
0.05037233553556054
-0.8868203239246243
0.8364479884513708
-0.4746072705366661
-0.7134281255761131
0.04912726703560785
0.436527243078132
-0.006132699834852302
0.2999463735310094
-0.8552669455315827
0.5553205721931009
0.4157206680962068
0.5842793319631105
0.5605936801204005
-0.5142620925319404
-0.3652814285504344
0.03562453987209319
0.329656885973896
0.6813510140484018
0.2493177564754345
-0.5667312096980811
0.5704419314530051
0.1107491918586273
0.874942161941886
0.01028180655653268
-0.6220223880122266
-0.7493118800960018
0.7996842174817334
0.5310894233645042
0.07151938959116715
0.301043621097107
-0.3725630105165782
-0.1676163860944366
0.4422992012535229
0.08734510297860733
0.8754261632767135
-0.7977017337725584
-0.07772442942677489
0.6355176998028997
0.310702293440588
-0.4303491611771252
0.5755091306935005
-0.5039897396905789
0.417137143609225
0.1331015172576871
-0.04690770791368747
-0.5890703913538949
-0.1384717176945413
0.7275421090423411
-0.1496783370941851
-0.7809904366295878
-0.6110535540197873
0.3606029236910787
0.2504506292716638
0.6222864326310122
-0.6120046250613099
0.2383615366517293
1.011564639050595
0.0428588005668028
-0.7493118777426916
0.2207364428998785
-0.1989157828140625
0.680098929648734
0.802151034756426
-0.8021510348121871
0.8376930523275011
-0.8333075025363769
-0.004385549716323293
-0.4453715514389231
0.8610922201454825
-0.147641317622539
-0.3453972196116132
0.7347291477136926
-0.6684883951828274
-0.06624075259674593
-0.7320430951802683
0.1429727038857856
0.1388018093243406
-0.6718455918298362
0.7827150300246909
-0.9503314161747717
-0.3648274949136027
0.2880629646833882
0.07676452927090568
0.145878475907378
-1.009570118699661
0.8636916428166836
0.4806903773557618
-0.04133013420104194
-0.3081639631057233
0.5864076430358124
-0.2782436798115761
-0.7383202822880287
0.8841987560967303
-0.1571198925763822
0.7347282429451824
-0.8377860478329038
0.1030578049496256
0.9781277178154073
-0.5417288111184735
-0.4363989067523764
0.7552433294842207
-0.06485665618706471
-0.03528617476954335
0.1877979176512116
-0.1525117433342377
-0.7757328731453256
-0.8448761871065006
0.07788684220800537
-0.7500501958596202
0.5141179771763957
-0.5552383558604231
0.09041117097886608
0.7184162658802179
-0.8088274367336644
0.7536974131509572
0.1742279401906847
0.5028809631767662
0.4971190368011562
-0.05292857941689017
-0.6057344366454441
0.658663016425884
0.8796423821443949
-0.004216215388399361
-0.7552433294692047
0.7996842175655452
0.1911367974187927
-0.4478457939106297
0.01912485804242448
0.001151401155509848
-0.0202762554630783
0.5894071217601888
-0.4383264989174964
-0.1510806224347158
0.7179591702739671
0.01413611653707562
-0.1101479440212017
0.4377567554850405
0.1516503683061947
-0.01350634259954601
-0.006540939524449183
0.0200472814738995
-0.03382760703852029
-0.001458576334144457
0.2436388878494785
-0.2597357349987109
-0.9592709271126615
0.001994516102311132
-0.1595867095580385
-0.121188608768811
0.09471157921767226
0.7214193264308533
0.7290123833151608
-0.1447330518864811
0.6611415934764014
-0.5707304241566035
-0.2118837968759088
0.3979596556620828
0.6954614837792702
0.02249768647337964
0.2416257727805616
-1.074933272603261
-0.9503314178598297
0.3017554323510078
0.7599812398046127
-0.2087808383533739
0.06606914367620959
-0.7234138432907155
0.9094600273062015
-0.1860461839956543
0.4163261392305943
-0.02779332932076778
0.7715913350458617
0.2806883493253335
0.3727607891155039
0.0733542616028893
-0.6586963833929071
0.6586963833737949
0.2147792706015698
0.6955304132843493
-0.05500692583568901
0.3894751628615696
0.3797760475414991
-0.01333181886421533
0.03245666572046906
0.4493034744107336
0.03138690040295652
-0.7383202829850106
0.5341070923513027
0.2006220586967429
0.3052154007414783
-0.1174174802515733
-0.6954614842762792
0.179796932635323
0.72966309471658
-0.01025163587530429
-0.8136493024833262
0.8239009383412179
0.6963015288477291
-0.7920577674386751
0.0957562386316758
-0.7536974210765754
-0.1505059413143099
0.2114919761196703
-0.06098603565618352
0.07734362322481873
-0.1793452703303182
-0.1129679820477601
0.2923132532105251
-0.006362508088952078
-0.007143841320161073
0.7066099384654002
-0.7168615822050686
0.8849901977894776
0.07697711558592145
-0.3165686757673846
-0.5171606453426144
0.8337293209373511
0.1036007565597029
-0.1036007543424919
0.3236875113327698
0.4739825865616661
0.6167270581416462
-1.090709644617042
-0.1941219803873969
-0.585671783403048
0.7797937638042457
0.01337983242177761
0.2200540016280285
0.3770627070424445
-0.2532325907562575
1.013419413358471
-0.539436823167566
0.6650839255977689
0.9946341521217867
-0.377907090403398
0.2294213855745138
0.8841987539511229
0.7127481696110777
0.2137276375377122
0.7277234462597423
-0.7809904369709831
0.341303631496959
-0.276209339786216
0.2452778768110948
0.03093146209984105
0.8468758902234985
-0.009066126813257535
-0.8378097632057531
-0.7021789370878723
0.70253864403939
0.5546284510147754
-0.7021789350233506
-0.7127481696155318
0.7025386463571126
-0.03483798678499865
0.9063434597972962
-0.02135326569009042
-0.6813510037371324
0.6123589817357568
0.06899202199708983
0.5387368411730347
0.5369116708581514
-1.075648512022708
0.4912958974298743
0.5221235170811421
0.5428802244044485
0.4592763616207626
-1.002156585971335
0.4971766208096879
0.4974575325993901
0.6123589745199125
-0.5255386444637477
-0.4651422132530305
-0.5565883192839862
-0.5187866898243861
-0.1193697860270647
-0.0122224789285076
0.0122224780160875
0.5129855026829359
0.5230645068213319
-1.041851196535065
0.5749105586957999
-0.2738669380747961
-0.885465810956419
0.3437369992568555
-0.6330709791768233
0.3906073827169057
0.00255158609891622
-0.8292582208706933
0.8267066347301177
0.4208484137629574
-0.01762202829982166
0.8644979172875787
-0.9480313139592889
-0.8339753957183782
0.05426773408916182
0.779707661551831
0.5648891924778152
-0.4390745348065502
-0.1258146576672931
0.6500624005140895
-0.7289510422569724
0.8861632166758852
-0.832249177238063
-0.05391403963611417
-0.00965091376452938
-0.7880508168433238
-0.1097057016547222
0.713444024075035
-0.6037383224121092
-0.9361142079881754
0.9264632945645781
-0.7269220838719342
0.6917917439525367
0.03513033989913075
-0.8108277496389028
0.03911399354508348
0.7717137560101934
0.06172384717699422
0.04187690622987447
0.4330478907708268
0.0618680831184801
-0.8515768996427333
0.7897088166336607
-0.6431146336705078
0.5901860580570972
0.8898390366604897
0.07024401823309813
-0.9600830548323968
0.05586363830146401
-0.047555699683523
0.3772125934204658
-0.3814222872934111
0.06577634206180086
0.8422846901349114
-0.8397331004933956
-0.7338506400273568
-0.8121870189647777
0.02413620247965415
-0.1634352348191029
-0.8529623518103323
0.02071318118426421
0.6238642796293731
0.0372773122988778
0.03340236933469837
0.5314868309595315
-0.8066919635909311
0.8458059533642704
0.5658592623229648
-0.8468802442511389
-0.8658701914091204
0.04047326481999546
-0.0358279436856276
0.8380163302546875
-0.8021883866188509
-0.02625570871851532
-0.7696785862904011
0.5443483385824244
0.1519531870341173
-0.03132436459642358
0.8958222826122449
0.9807310271960078
0.8623168533152631
-0.8416036688282218
0.1475653312599612
-0.1475653296826203
-0.1186188690624681
-0.4820282296685642
0.0429536996424934
0.270515606602876
0.03123982543552166
0.3868969124813422
0.8695665719456998
0.004834799972925468
-0.01119731826083092
0.6586062463895878
0.341393753591924
0.78356930282667
-0.5833851237407357
-0.7780823287120576
-0.8112545181280193
-0.6798325824436657
0.679832582439257
-0.1677744514504374
-0.1550818887376215
0.601906435718593
-0.8122355828644728
0.2103291471213421
-0.4937586141012418
-0.5690114013296
0.2781871225821296
-0.9722562367806834
-0.9018679427885139
0.8479539118456358
-0.8135045858886836
0.8376407876255693
0.6487362325412802
0.134278816027272
-0.7830150485517485
-0.7761241777747111
-0.1459783857251535
0.7242245386269321
-0.5782461528805971
0.03230136781676421
-0.0145961306924183
0.0182819094155784
-0.003685779850721228
-0.3551616558791922
-0.1268665776920583
0.8800935563229972
0.7451687567109911
-0.2460792109657596
-0.4990895453506468
0.6193540957336137
0.6853225537835406
-0.4705432814407106
-0.0005553572379739359
-0.2851748722340146
0.02481223625213369
0.7469978421697889
-0.7718100785617877
-0.3235200057735855
-0.0726727004910674
0.0757914796527817
-0.96046486484016
0.122655099334644
-0.6779567698855621
0.05172590097874866
0.6409702367099933
-0.6926961377077002
-0.7565843839882033
0.07862761410721476
0.5879825345206826
-0.6606552350901398
0.1569837263221628
-0.336328994303635
-0.77055127543659
-0.005572902302910823
0.3712093606004025
0.6013288154575759
-0.02581968770371945
0.02241984556873143
-0.0224198448838657
-0.01876343043457282
-0.04996821337533758
-0.2262411362943111
0.0244260369813321
-0.01959120691391859
-0.7332739602046077
0.2792834017974116
0.6803993206461496
-0.6894659374542392
0.009066616625162338
-0.5961438816326116
0.6478697868045117
0.6530809645571993
-0.06509843114447084
-0.6314917826719557
-0.1250925983414317
-1.050346934981891
0.01107060442812614
0.1364947240043667
-0.7084617221897737
-0.7411974792836002
-0.763152360836074
0.3654787241517382
-0.4123203221760988
0.465451916395543
-0.05313159433031989
-0.6704021627988409
-0.03805955948308891
0.5017352927857807
0.7306809094583444
-0.233699477512295
0.1125108677724781
0.9660377641074694
0.4461387754692467
0.1342319738543653
-0.5803707492601019
-0.6779327816778302
0.00753061696135108
-0.0446413108193365
0.03004519429022428
0.6365495538650785
-0.7750212705839705
-0.001989809781585057
0.001989810130962275
-0.6010553392063571
0.6482027792911471
-0.04714744003465675
-0.6445304096857015
-0.1130899656584999
-0.6715460927684875
0.05456925805470908
0.6040937643673808
-0.1371261025303135
-0.8175244787877014
-0.5600662825621232
0.5654533520630809
-0.005387069769587222
0.6326354319877534
-0.6235688113910988
0.322368689682193
0.2141889997264428
-0.5365576894061793
-0.1046479263595699
-0.6019308687965771
-0.09076526765682
-0.1549165664714401
-0.5054970185480253
0.4041037665132804
-0.4988541722702993
0.1268184987016045
0.678276273598725
-0.8050947723343316
0.5992240883942421
-0.368531663018698
-0.04378865285729852
0.08083704322169091
-0.5863340595072595
0.5518166752815915
-0.0405423009543823
-0.5112743741718286
-0.3124525251568533
0.3049830551253999
0.007469469050627308
0.4544483015299667
0.120462258272117
0.05115009512163448
-0.3159788118532207
0.1568861819531525
0.1590926297088955
0.230757338678115
-0.01002088825144209
-0.2942925018287701
-0.3115943763167497
0.3605487286612687
-0.04895435460421802
0.7877390266957863
-0.6267678910692736
-0.01776251839267717
0.4992946868216503
0.2806085859651489
-0.5266877971087703
0.5775054876250232
-0.5775054876259824
-0.2897430141935158
-0.5864488610410376
-0.2955685263770255
-0.5864488608296863
-0.5946043349823461
-0.8385128193910946
0.1700244283854637
-0.583814198949366
0.8211321924430817
-0.003421677331051671
0.1187859018571382
0.48254291236622
0.09671380571766339
0.1855770812394399
-0.03637316644995061
-0.1492039159074179
-0.01836083707533048
0.5940742406351908
-0.9462590623304459
0.4290984210911387
-0.002573451348928104
0.002947642915378585
-0.0003741920178808115
-0.6433445836189788
-0.131706609111818
-0.4673900998144896
0.6016220720457942
-0.5037316463124863
-0.3252927941441293
-0.2610412798037924
-0.2711481718713457
-0.1119408663296722
0.111940865844365
0.1524968281181112
0.0589951437275749
0.1966476821189392
0.4554310346949589
-0.5732342037621603
0.1058441081299472
0.2427044271139177
0.4662900716277955
0.5337099276914857
0.6413361587771634
0.08629574342318065
-0.005033259701042827
-0.08126248541261671
-0.2768837979533416
-0.5406406807862045
-0.5509309840120995
0.1142230931968923
-0.1261753137828397
0.0119522201356449
-0.1057581511152391
-0.3859395186277445
-0.04519228130566252
0.6492860280089688
-0.4986627129508401
-0.1446818707033427
-0.3389545214202245
0.2918835809294434
0.1238037921947051
-0.6087899848834649
-0.2041476079186196
-0.2619162191542135
0.002180465012727107
-0.4222292380753188
0.3229569010484558
0.09927233671219356
-0.09406327979050622
0.2916350485846169
-0.8959320941109613
-0.457964550070074
0.6309251936115892
-0.7729878506891154
0.6683399242869801
0.3419194643387155
-0.1252437835164605
0.225125611083126
-0.09988182679061981
0.02430097961396497
-0.5862850410192023
0.02924131745820689
0.5570437238065257
-0.9007053317395275
0.5470618439311425
-0.6656807130297154
-0.09830514625392701
0.1095111556355012
-0.1095111529618077
-0.3165341662058608
0.3632998837963459
0.01391271395889697
0.03045713056162074
0.05583862863029526
0.5052697349137644
0.6616112169432039
-0.7393356440067885
0.0316085403981216
0.02349170473626713
-0.00107184915079297
-0.007145133824008636
0.007145133129831218
-0.4168207451725551
0.5372830058550416
0.01531095190147963
-0.01531095202076159
-0.792244218214438
-0.06078821175291408
0.1225120664060487
-0.4561205485298016
0.5619646593229684
0.4514345029571352
-0.4985819458782382
0.1499204252893586
-0.1499204241062435
0.03394926032630616
-0.001492599444027612
-0.04186222917735553
-0.9765148124429469
0.5401159041795063
-0.4699523317736376
0.04187690924740926
0.5145144000644369
0.03106534069393143
-0.5455797405613586
-0.6160287636476915
0.1173660502257811
-0.3295722217948724
0.01343277134385901
0.3161394512272904
-0.1546772963284472
-0.07902216834457219
-0.5408227948449146
-0.04546225135688344
0.1364947223938566
-0.0404888531270132
0.03849904952836147
0.08109860721492365
-0.08109861032574409
-0.5365934845466563
0.4876391407321436
-0.4144873912266971
0.1613376068142401
0.6222316959673266
-0.09782783527895768
-0.004137938887410114
0.004137938711361145
0.5329513274028148
-0.07730315672231707
0.005910401931583781
0.02698356658026501
0.03473176416038216
0.6850236397159567
-0.7623267963212584
-0.6552261732983491
0.6374636525437058
-0.1066524713042622
0.3130104013300395
0.7461448364961178
-0.01876343221210257
-0.2671458842214523
0.149728395864324
-0.7446572938857028
0.484330747439418
-0.4244765065087516
-0.1015143700707292
0.003525541501523913
-0.01435975371600872
0.01939275726924009
0.4111629453328435
-0.1216198063364136
-0.3896545664449255
0.6288242416962607
0.019367638411616
0.01072045315517904
-0.01072045307434122
-0.3546189638793261
-0.08116245313139253
-0.5605440611871521
0.5571223840258306
-0.2382117680414604
0.4647878294208874
-0.151142507418483
0.729047571222071
0.6727018581727104
-0.04048885250849002
-0.6159576026938495
0.5625539139251069
0.2891890081457651
-0.2866086994548988
-0.00258030967620568
0.5434003699376903
0.09338372378390709
-0.03899704160055704
0.1966633080787646
-0.1576662669723981
0.1200956480313638
-0.120095650710014
-0.8587544169114192
0.002355098831938312
-0.1133109410768266
0.1402945088624584
-0.1319241998892083
0.1319241991409246
0.02349169906029559
-0.02290136073561002
0.6705218778082406
0.05914121638433649
-0.3230326632913404
-0.06290685571352334
-0.4712235357147367
-0.04976551335546204
-0.1516289038171671
0.1516289026382689
-0.04731322910212254
0.1433180764027062
-0.14331807545023
0.1365414353142974
-0.136541437231303
-0.3157000698168687
-0.1146490914209935
0.2264962323281048
0.1030064780950009
0.03485348533693732
-0.821107170951372
-0.1979143080463595
0.1702597090897703
0.02087709492207716
-0.2652455231785906
0.1258203435210388
-0.125820342687194
-0.414086765499715
-0.08476740896941627
0.236409298420004
0.002295684451021941
0.0406097535345037
-0.5432891893332817
0.5781271761235882
-0.02851332759786665
-0.01879990298418293
-0.02845828602171824
0.02696569625331788
0.006602365310321472
-0.1843672452186015
0.1777648798674455
-0.1083799324914937
-0.2279490623990796
-0.1447454568183458
0.1447454558144572
0.07289551594881065
-0.07289551639783202
-0.01938663898309594
-0.1086512564377903
0.1280378960783975
0.2417127122372441
-0.1828824346226653
-0.02792276635590032
0.0268509255876949
-0.1383169795896952
0.6259561205035254
-0.03904534106294663
0.4236476737490568
-0.04287775122600842
0.06292504447124887
-0.1533685560420664
0.1533685545232276
-0.6364394031742567
0.3087971272804885
-0.07937574125495891
-0.2345882175667751
0.003562339374586147
-0.1215667167521158
0.1621764693416755
0.1953449349697192
0.09696832300095393
0.09625779960426671
-0.06152603529972266
0.07264559288450423
0.04157750094151447
0.06390413525951767
0.106355569738767
-0.09605449839109065
0.2085653464640933
0.01271025777527433
-0.1156457138478879
-0.1007937003768811
0.09756368871179111
0.003230012819462675
0.01277125107184565
-0.02351010654315022
0.03780263199468945
-0.03780263205721646
0.07509659193743057
-0.05485536526999307
0.05485536498056538
-0.2245361057732116
-0.05272066949020076
0.01146397296739723
-0.1030759898698567
0.01644578911324638
0.1083850941476324
-0.108385093597448
0.2946172719874917
-0.2714951064046049
0.1631151787173819
-0.05087164798706399
-0.2206234582475852
-0.01747556098925931
0.0174755613021655
0.3673982413594643
0.285252175749425
-0.5275838653933237
-0.09399181536611044
-0.03218349896007591
0.5287358548636579
0.2132544425596712
-0.1701775616130277
-0.3805193998683921
0.07647489855075125
-0.1477294619808393
0.1872695517226926
-0.03954009001698116
-0.0668075834560266
0.06680758380430409
0.8226197350452686
-0.5606479229309322
-0.005116096110754873
0.01788734635498044
-0.01998333915434867
-0.2867884947943067
-0.01749773200640745
-0.01282125228646149
-0.131845163409515
-0.5720576517600336
0.555990942717845
-0.5694039576958994
-0.006883450086609688
0.1030401246452614
-0.00173964593384302
0.01682711612180756
-0.1677128011349355
-0.3365184913093744
0.2334425015518154
-0.05447951837979632
0.03509288129159017
0.1317515041457144
0.173231550839539
0.337131398708751
0.2765833509744973
-0.278322996400472
-0.06229464732583635
-0.1550369930430836
-0.2211554401971355
0.07480659017184235
-0.01090245620107021
0.214034740884573
-0.1972076243020924
-0.08629015074897965
0.1589357411734578
-0.3552149574871771
0.2085379129189587
-0.1920921237284472
0.08959017017541195
-0.4792447400223887
0.1744483002357958
0.1700011060671778
-0.2562912505772875
0.07274769885219876
-0.1943955119804839
0.1768977795556649
0.01743524976026182
0.1415004926753
-0.03954442614566604
0.06608353303322906
0.466867793900559
0.02032707171549318
-0.0784815008195103
0.05494805486974332
0.1259347602399615
-0.2606955282051392
-0.230880035438808
0.559724347431383
0.1576890562072538
0.07872024146707689
0.07542805779033498
-0.03091605829626707
-0.01111342643931172
0.008533111568225234
-0.0327865127942475
0.171127205162474
-0.1780106548052348
-0.05908874094942558
0.0217348261192534
-0.1468488166807874
-0.05289501372736702
0.1494766185062326
0.2770768875951686
-0.03859993545584451
0.01585227030502869
-0.2557423809010395
-0.1317428401170199
0.2357774491183946
0.1789409537491097
0.1298561751502366
0.02194262242489019
0.08899255913640418
0.05222694193337674
0.4530427929497194
0.01594026253502621
0.09719862144043186
0.04368896734163532
0.07172792507040247
-0.115416893571243
-0.2423316918402429
-0.2008835705091128
-0.01973988518962786
-0.2021678552032277
0.2754822707642354
)
;

boundaryField
{
    FrontBack
    {
        type            empty;
    }
    Top
    {
        type            calculated;
        value           uniform 0;
    }
    In
    {
        type            calculated;
        value           uniform -1;
    }
    Bottom
    {
        type            calculated;
        value           uniform 0;
    }
    Out
    {
        type            calculated;
        value           nonuniform List<scalar> 10(1.034176121603789 1.064275486063817 1.021730532541383 1.019300136811538 0.99618803371472 1.016244222323599 1.036050009167696 1.062770015434847 0.86724849738014 0.8820173874016263);
    }
    circle
    {
        type            calculated;
        value           uniform 0;
    }
}


// ************************************************************************* //
