/*--------------------------------*- C++ -*----------------------------------*\
| =========                 |                                                 |
| \\      /  F ield         | OpenFOAM: The Open Source CFD Toolbox           |
|  \\    /   O peration     | Version:  2412                                  |
|   \\  /    A nd           | Website:  www.openfoam.com                      |
|    \\/     M anipulation  |                                                 |
\*---------------------------------------------------------------------------*/
FoamFile
{
    version     2.0;
    format      ascii;
    arch        "LSB;label=32;scalar=64";
    class       volScalarField;
    location    "1331";
    object      p;
}
// * * * * * * * * * * * * * * * * * * * * * * * * * * * * * * * * * * * * * //

dimensions      [0 2 -2 0 0 0 0];

internalField   nonuniform List<scalar> 
808
(
-0.03515470859687062
0.04461225752368358
-0.0113542609148348
0.03579024519951499
-0.3012160386339286
-0.05508661478740969
-0.01495653922747703
-0.02404279810534404
-0.198420241146326
-0.08487473606808629
-0.01025078236502519
-0.2557808410387937
-0.03061764718943264
-0.01338452981791195
-0.1201720010661625
-0.01412629309788558
-0.1372216045048977
-0.01363993394930883
-0.01241727156987892
-0.05634236363667031
-0.006762600733387268
0.1178078960164078
-0.06169732798439097
-0.07260499825893101
0.175949264556438
-0.09987956816752122
-0.1538333374734659
-0.02035840699399431
-0.01741343170325715
-0.02578378268657713
-0.02024905712502843
-0.05920683763202242
-0.0228150253774911
-0.01683517470174933
-0.100553159848971
0.3441789579191265
-0.03905482016338532
-0.01654349197828868
-0.02307360800962566
-0.02653243805840949
-0.09128011131955792
-0.1279266897366444
-0.05147334064983105
-0.02100136661382446
-0.05407091085845255
-0.04073773075245546
-0.01215606641775143
-0.1860427817882351
-0.0273281338688857
-0.2057850957206368
-0.01658180144551628
-0.06815305824368699
-0.06026338801447324
-0.01435420294284721
-0.192159950034253
-0.02865423385415193
-0.01049033483616469
-0.01384445258238451
-0.1014321425998018
-0.04021980409717866
-0.107109587454996
-0.1272987426850468
-0.01387465290018959
-0.1303304870842321
-0.0172848896781816
-0.0512675069311261
-0.1667208026158503
-0.03554615089984335
-0.0149204286845306
-0.4430942893981346
-0.02672743731724686
-0.304200357788211
-0.02184038990065181
-0.0207749643154749
-0.06628924308398031
-0.017561009757459
-0.04303485050646459
-0.3607386946444445
-0.03587316907899949
0.04120807842006643
-0.09078511766446826
-0.01712240571902836
0.05696754872922719
0.04414574529298881
-0.01684450177877278
-0.05278133023901233
-0.5449763854689018
-0.2248121184699562
-0.05279582696549169
-0.1120672548544853
-0.05734427525772814
-0.1339417559963552
0.03993853771679295
-0.02471599657137973
-0.06133247753868161
-0.1218576040103425
-0.03838342974975049
-0.05166340019336028
-0.1173620265244697
-0.1410223799009776
-0.05249730544104562
-0.04785625340911058
-0.05504132364462273
-0.04530065312639547
-0.05771453114882338
-0.07402737861082101
-0.04017893310475581
-0.01085715250839691
-0.04066200076039602
-0.1253585580381206
-0.05080119233959826
0.0827251890885194
-0.04275139355578243
-0.00781569872923878
-0.0277013831172319
0.1803342057434957
-0.03933957526882501
-0.270727300854621
-0.02051038486375983
-0.05424407510282207
-0.03537070857871907
-0.04844955433977935
0.0130174241411259
-0.04941797701648282
-0.03491270025198918
-0.2159520511051572
-0.04207823578625116
-0.004710395305006369
-0.07684058330422545
-0.06831839676754761
-0.1522407599316368
-0.02114475807223529
-0.07599827464346426
-0.0421120987920103
-0.0228881394737676
-0.01612252238881607
-0.006156121692071286
-0.007592009656383344
-0.05276550369628261
-0.05036736314847639
-0.2091144447767138
-0.05736056296312167
-0.008419333092499539
-0.02250205736318605
-0.1463349698840734
-0.00208833994500855
-0.07707496059473286
-0.02296178491482778
-0.0003756253188312807
-0.01005399002166164
-0.03359156059327694
0.09486377938769652
-0.03927514640895209
0.2523768091221714
-0.2594396524532647
-0.1316011711775193
-0.03750624552285486
-0.09092099227167021
-0.00903053595751788
-0.112803692039089
-0.1768712782886471
-0.2122096448460236
-0.1830252783572307
0.05580629251426381
-0.06254697123651004
-0.02039291850616489
-0.06742902130554587
-0.1750711097974741
-0.02365783367807197
-0.01869230936979694
-0.05266480147938586
-0.01892742758740317
-0.006605955414497889
-0.1093054516581486
-0.02311865688727587
-0.04594218391209066
-0.06958213369929094
-0.1627263447667258
-0.03351663676322268
-0.3914180842111949
-0.01779950344262532
-0.2242854468712964
-0.04488057253063474
0.03126171029070625
-0.1048444133001828
-0.01500492747822724
-0.04221234807445319
-0.1059350254813757
-0.01777247882118128
-0.09687472809099654
-0.2032789151850906
-0.07258221096292206
-0.02392073417745144
-0.04905444367839432
-0.04330200515084889
-0.2015487957035043
-0.02208852714500853
-0.01912049152420722
-0.01134893714996069
-0.05559094784152097
-0.05139693374291467
-0.02257457833021225
-0.02071722036646806
-0.2411330052179758
0.127668084395571
-0.2028866887454839
-0.2007184717940205
-0.01174183081668212
-0.01149675251541267
-0.0673444948771813
-0.009699817516478228
-0.5042765717481325
-0.1270380535709164
-0.01924588487020535
-0.001509937732619809
-0.02409819005205553
-0.2833393392575753
-0.2754541637831103
-0.007423767701203145
-0.01793751893148653
-0.002326762310451661
-0.3461268714406924
-0.02841282267632799
-0.02927619665421782
-0.01260885840167833
-0.01963841400667947
0.05017690511184819
-0.1195092404495163
-0.01386774889171234
-0.02080929388030953
-0.04380638694478608
-0.01828632969329522
-0.0162733255282108
-0.02341726555949907
-0.06711810215981708
-0.0115157208253177
-0.01899143524147769
-0.008789668227400741
-0.001247624261602783
-0.02944064895555282
-0.00182684333637386
-0.002132551134427061
-0.005968102991171771
-0.02555655624418155
-0.008097761001971009
0.001656456217127226
-0.004086698284439533
0.001139491002124572
0.002367453931122207
-0.008646666445768249
-0.1345249280750576
-0.002984508369698529
-0.0004342449249275899
-0.04790746981669609
-0.02139830091983434
-0.02453967733132148
-0.01415403424438591
-0.006131272562167405
-0.02100404737087758
-0.03827819894405417
-0.01465833113463779
-0.01263201463815897
-0.01192634858260819
0.005472734422617487
-0.009918871894377828
-0.01286580218562253
-0.01127869535209118
-0.01047381718196909
-0.01001984899731554
-0.01093359769480935
-0.01385495143299049
-0.3011913409693741
0.06036730834772932
-0.01507336476555839
-0.01625060946563006
-0.01269202239763154
-0.01257189198384259
-0.008434083153599694
-0.09960853221724435
0.009948012137475874
-0.01418779229242087
-0.01440131840563482
-0.01077187865933511
-0.05263049148372882
-0.008382210858637797
-0.01398799571722524
-0.009277952468293011
-0.002162382752738903
-0.01031296695849908
-0.01039601378491601
-0.0246991324589479
-0.01603765326082487
-0.01228591156977334
-0.01333562961011127
-0.009465355481050189
-0.01331180251858234
-0.01105091845883759
-0.0581392625579745
-0.01300283658759607
-0.012003010432931
-0.008924660965305635
-0.01515086253894292
-0.01418519271680625
-0.01572177459643716
-1.377254800856151
-0.09899701275330784
-0.01218896709517104
0.02228536093009626
-0.1647326247932729
-0.09391662164400523
-0.01159428914073045
-0.01415188636013718
-0.2525014288175047
-0.03011653623652332
-0.01972220333574854
-0.01141515167314566
-0.0200402373426042
-0.011202519601111
-0.03071583771352241
-0.4135249527292475
-0.01211215518719248
-0.01408679912907729
-0.004730560412599959
-0.01041752857602845
-0.009124212578416176
-0.01420853269651961
-0.009442134538389012
-0.02660992142855933
-0.01143925160783982
-0.1631508719143837
0.01768287930081262
-0.007669132995601779
0.002903971657797748
0.01199825879216093
-0.04789454753420221
0.02914260290829291
-0.0127003932874384
-0.1353838313189426
0.2821982752745089
-0.007733711109345552
-0.01321238294048326
-0.008284363589848314
-0.03330892835345138
-0.1235094922590272
-0.0134246733569451
-0.01226650391164371
-0.01724741918478491
-0.01365630707696446
-0.04113814992883107
-0.2159700442951669
-0.01058353340995236
-0.0420044213713445
-0.03939131525491159
-0.1712252837187924
-0.1584525842583507
-0.1533588174223448
-0.2543979975681778
-0.00496458931078119
-0.02112451177391792
-0.01504781393246857
-0.01324762686680284
-0.03305633500222382
-0.02440494897768601
-0.01433850151022702
-0.01502480875662842
-1.079329803521247
-0.003498504714784343
-0.01378108428425083
-0.01824765322336451
-0.01764367119789291
0.00530219983515976
-0.01390594980122282
-0.02716265324713326
-0.164923151508006
-0.01353478556669458
-0.0216711029722131
-0.01432639761842511
0.002287044008204589
-0.1780359866128802
-0.01324554132171624
-0.1504457837899273
-0.01593446588132019
0.009522273519523025
-0.01423966669616311
-0.02349414672555753
-0.01604439751308443
0.006825480581237562
-0.2731908451830576
-0.02593802039311507
-0.01641204544733519
-0.01141685683955434
-0.009970931260866603
-0.03023199872335609
-0.01419419112043555
-0.02064607043392158
-0.02115245437154226
0.009107357190660489
-0.1000894694480194
-0.02187884720759555
0.00935212794016451
-0.05326283479706072
0.1653234503933003
-0.1040125208335232
-0.3209355758539282
-0.02981029685353287
-0.02546928080171284
0.1494137354593836
0.09469125162340462
-0.00344540752402487
0.05114211874842312
-0.01568898147032816
-0.01396081353068429
0.002372105668296362
0.01081160403134332
-0.06649127706228844
-0.005040569452464451
-0.057135095905013
-0.02269291792259849
-0.01568917851922767
-0.03651090512438157
-0.03292900056976389
-0.006668402299280445
-0.01469469867535549
-0.03859195034814053
0.03395657257619673
-0.03877058739448846
-0.01358272552960969
-0.1173626441621114
-0.03157295850436249
-0.03900966066179752
-0.6757580822673944
0.0155942308666858
-0.01113633911468348
-0.005319498898101456
0.176181503448561
-0.09293392174901402
-0.03530882407312714
-0.2458306937737774
-0.01607569962314487
-0.01644857999344052
0.06620071731356791
-0.1842671491932642
-0.2257643226212309
-0.192808549285288
-0.6840493337399229
0.01064716749062028
-0.01974736970972343
-0.01581453716103259
-0.08799291373148208
0.1179392110776156
-0.02154280262467463
-0.2507270900768024
-0.03542275740924909
-0.006565717098525134
0.2767547664642165
-0.01103083168526542
-0.09308288987703535
-0.1500484847615539
-0.004569708336910547
-0.04084485770898928
-0.04481297910620505
-0.2007759415699292
-0.008644090563646619
-0.04158764326727404
-0.00329224453707435
-0.549843966339706
-0.198790018521442
-0.176363726853482
-0.02307739820007362
-0.007745819182213203
-0.06061486163940451
-0.05777951171359973
-0.01573491648278361
-0.06818504608509011
0.003916391749023195
-0.01813326196693233
-0.09586769023321126
-0.2705500341284222
-0.008881150830622757
-0.02569065977225357
-0.02186704154499652
-0.07491065654117013
-0.0906148444940716
-0.08838205316220077
-0.01117586100860804
-0.920524591743312
0.1608883342229956
-0.08213176490074323
-0.2558328992315192
-0.0423060646064596
-0.009712489988560785
-0.2466488116746942
-0.1873495646386641
-0.03264830397061084
-0.1193696607677154
-0.01803631470763698
0.5622570404761954
-0.02431177601132468
-0.221320682384771
-0.02590169264739715
-0.00465867663173289
-0.01155471378790244
-1.254247117874477
-0.1839993487858795
-0.2320609373741497
0.0053654004583083
-0.03800937391862593
-0.2430662750098537
-0.06591724024565228
-0.05130468278337751
-0.1428263837762971
-0.1899172832859775
-0.06848328121228039
-1.226404992072736
-0.1526131309805769
-0.5280839394449891
0.07820681259710699
-0.006883360368096066
-0.02174759025257089
-0.04322802217771193
-0.04003826389746148
-0.02845495586678022
-0.1318434637864677
0.08017968310267515
-0.00432081490423109
-0.009725710886236156
-0.5731224596749342
-0.859566665140523
-0.1827588206343192
-0.007969354758159946
-0.1288841436780563
0.000684812448519442
-0.0007056869458984879
-0.002242316128197596
-0.06099857264944957
-0.2375669457293028
-0.01344441786380746
-0.1165297284587392
-0.154600656073491
-0.01318582187402503
-0.03549572904707336
0.02431448491600705
-0.05776842798951952
-0.07045379106306286
-0.4997043207911572
-0.2453703528911888
-0.08095644620086898
-0.0734026703155588
-0.01975358804845948
-0.1152079579974573
-0.1602303872013851
-0.0793759110834536
0.02631222670809693
-0.0852978206179439
-0.04877039000480424
-0.01495511858629555
-0.1132706240667088
-0.2755593918652159
-0.0575977372137862
-0.01841568066298948
0.001606978711808969
-0.01021216558102912
-0.01094592961617695
-0.2270281908009469
-0.01436285109377703
-0.2210775815052794
-0.01076736954383509
-0.06640204065568515
-0.003488483838965373
-0.02320477617216639
-0.3830754011897096
-0.9143802356733264
-0.01127760685401829
-1.048762255240061
-0.6097625592446437
-0.01079857139389299
-0.6537793673418073
-0.1796993949916463
-0.005093389416554488
-0.127440768800135
-0.01718929136033154
-0.1226541198612376
-0.06678703986426461
-0.0755103149881627
-0.005589874860360979
-0.003254359883765521
-1.335787619830147
-0.01113989602904281
-0.1905870161253644
0.0006674568100449782
-1.01407460876702
-1.235586110430088
-0.08081804402886349
0.01914877339871779
0.1643856089973454
-0.004943164065182027
-0.02298626773654147
-0.004328700585987432
-0.2464867218319476
0.3659839522328152
-0.04131624083087401
-0.2114482399980747
-0.0151065275227486
-0.6582901292213035
-0.07438615037321165
0.1909617131607851
-0.2927876937127579
-0.05013338151276202
-0.0692702392885032
-0.01578884606249716
-0.02161126118858397
-0.581542276312304
-0.1483748608030989
-0.09055024323314156
-0.1228424513057223
-0.5561807496975946
-0.04459138174356704
-0.9092570396456169
-0.001148472967442983
-0.2397059277809912
-1.046360837215854
0.1700180300513727
0.2922542479834892
-0.1748758026509903
-0.1927895535927229
-0.2079520131370224
-0.06771626262114515
0.02405566911622718
0.05021171787631942
0.00452976578262016
-0.1580467761942959
0.02482881676841921
-1.355822784442716
-0.08578427026176656
-0.4741194660549721
-0.3301619167931203
-0.2108189874042483
-0.1770370495568093
-0.01695007444502996
-0.01540464372887144
-0.09872137661669311
0.1705668339285963
0.3855946837380655
-0.220142558760864
-0.1496610885366652
-0.236589704025036
-0.06280176332246665
-0.1574992730375545
-0.1670433836624425
-0.1261350490629107
-0.1144392842105441
0.467209054256769
-0.274592474628422
0.4300989797782598
-0.5967907432061035
0.07101099355386783
-0.197796920858083
-0.06664888980776354
-0.07483715650268785
-0.8818773183863825
-0.2227278676551026
-0.1900641988435313
-0.3492216050603686
-0.4599986334198819
0.5703667175920082
-0.2063089641762443
0.0007578825553073911
-0.07005646654176088
0.3431334796052715
-0.03693241230099247
-0.121989308605091
-0.1792430215809114
-0.06453217602389764
-0.01643022933454142
-0.1944563303170984
0.1922169304062828
-0.01263673835510468
-0.09699309233613229
-0.1707396166876297
-0.3131746149065058
-0.31227029192093
-0.07432866499601266
-0.01000144486015896
-0.07530113893383322
-0.6565651135921375
-0.6678115171423957
-0.3328449917076791
-0.05814622227123514
-0.05140633082541048
-0.02516277113286793
-0.0683315636041068
-0.05715818677404098
-0.361901339223221
-0.9556570245539139
-0.009484869883063051
-0.08363582926166151
-1.13692985466939
-1.032861133877998
-0.1043582479692961
-0.03926975877384965
-0.06953628142655363
0.3909917368880658
-0.3438155908057856
-0.05228777367326479
-0.5989253989777967
-0.1308955043652766
-0.252263806759956
-0.2102918579173608
0.4742502458752205
-0.6292299401961992
0.07292344812756486
-0.02926853523459639
-0.5609017552276916
-0.05223734766606113
-0.3606243389051393
0.1067945845226606
-0.1910039397067486
-0.06030171060882338
-0.1307245046648809
-0.3627555074005029
-0.08866480065017339
0.5137692877769101
0.08561443458622613
0.4712062276120705
-0.1211454280340563
-0.2017126060194587
-0.5177141760943726
-0.130684130859352
0.0262556135108196
-0.05410294339605901
0.1026771631450916
-0.3090820976838972
0.2362282746420782
0.008226234046304431
-0.003306559935200785
-0.5132394993593234
-0.1849058775110084
-0.09625779356306922
0.5811537798018417
0.138605876760247
0.3468056058448368
0.2255837049243561
-0.5608574594516196
-0.2151902640208821
-0.2184117301489011
-0.2367686110474893
-0.06085673287694714
-0.6941499300217575
-0.1942940674856668
0.3061840883615075
-0.2103331505028063
-0.01107390379048339
-0.1693527417289089
-0.01007968110688039
-0.1634827427975417
-0.4385180879737697
-0.07714446280125076
-0.1996714313047101
-0.07375419529866704
-0.1027660634718365
-0.1383656567290495
-0.07356458397208183
-0.4493122816227886
-0.4153818707232676
-0.02645970920996931
-0.07514431157750584
0.3261319165174834
-0.2482495880287064
-0.1789321668583258
0.5258345347797942
-0.2011762168373377
0.0180177084998001
-0.4502312756325502
0.04546389097919941
-0.06153550226710362
-0.157689884715203
-0.5845310428418214
0.162169164132463
-0.5808048957043026
-0.5348479552629469
-0.1057768349267989
-0.5071612655928206
-0.03704060001017766
-0.1490545975548587
-0.4094734356723279
-0.01629166310713775
0.2863508463193868
0.4894173413334778
-0.1619367420595103
-0.007696292027439093
-0.07224502243936985
0.5253005585456355
-0.03308501831563539
-0.4402299426761289
-0.03245166607725663
0.460189657166489
-0.01544703696257367
-0.5443580192011925
-0.2405221833378581
0.1758644386325214
-0.3111510409997939
-0.1791573118239995
0.05174279186015089
0.03303953068632697
0.05466857291755983
-0.3001798238955645
-0.157071518785123
0.4127478991212247
)
;

boundaryField
{
    FrontBack
    {
        type            empty;
    }
    Top
    {
        type            zeroGradient;
    }
    In
    {
        type            zeroGradient;
    }
    Bottom
    {
        type            zeroGradient;
    }
    Out
    {
        type            fixedValue;
        value           uniform 0;
    }
    circle
    {
        type            zeroGradient;
    }
}


// ************************************************************************* //
