/*--------------------------------*- C++ -*----------------------------------*\
| =========                 |                                                 |
| \\      /  F ield         | OpenFOAM: The Open Source CFD Toolbox           |
|  \\    /   O peration     | Version:  2412                                  |
|   \\  /    A nd           | Website:  www.openfoam.com                      |
|    \\/     M anipulation  |                                                 |
\*---------------------------------------------------------------------------*/
FoamFile
{
    version     2.0;
    format      ascii;
    arch        "LSB;label=32;scalar=64";
    class       volVectorField;
    location    "1886";
    object      U;
}
// * * * * * * * * * * * * * * * * * * * * * * * * * * * * * * * * * * * * * //

dimensions      [0 1 -1 0 0 0 0];

internalField   nonuniform List<vector> 
808
(
(0.756260828580827 -0.01750271167174969 0)
(1.031543932074857 -0.01262722477935622 0)
(1.111364866216189 -0.006480337518033675 -1.734567744422271e-20)
(1.085120428264854 0.01260124685445092 0)
(1.364247740907726 0.0142830334281172 -3.860696515814592e-19)
(1.038750577041681 -0.009374822054805219 -7.283946134079248e-20)
(1.014139580681733 -0.02112154192390587 -2.409174544505241e-20)
(1.079147935180316 -0.005411931735077029 9.059437303011171e-21)
(1.254775664070881 -0.02044848682850198 6.308554061846018e-20)
(1.085133726583003 0.01020320927600194 0)
(1.009510951050523 -0.007896096618624501 0)
(1.306382246136208 -0.05357146934853579 -3.509861013274453e-19)
(1.086273574292304 -0.002016428586112465 2.043418196510586e-20)
(0.6751989586135861 0.006364457082516125 0)
(1.278268631097557 -0.1147116488785475 0)
(1.081523269117392 -0.0003093910696949218 -3.858381849098328e-20)
(1.225682650712038 -0.1434558985611134 -9.508741650419577e-20)
(1.073978511441425 -0.0001605303525934654 3.200338349975886e-20)
(0.9905907328462773 0.003513884752114439 0)
(1.026373662342645 0.009694846052904804 0)
(1.033389771136992 -0.0108289479553672 0)
(0.9875251359126476 0.04469382323038056 0)
(1.051120262631189 -0.005934165508233098 5.689984350571535e-20)
(1.053638400585339 0.009228206175540259 0)
(0.9328129273071087 0.1973546624135661 4.588732849608213e-19)
(1.164482269494474 -0.08461585808746948 0)
(1.186115069502881 -0.01890982066724763 1.564584969262794e-19)
(1.077374664345381 0.009562813139268385 5.216532155546186e-20)
(1.083649348033879 0.002295077863791262 5.09686470171349e-21)
(1.071763776411805 0.03088287408433049 0)
(1.075303905385261 0.002818763622643355 -1.17916653296126e-20)
(1.033073579171725 0.00686260689463873 -1.918236823089402e-19)
(1.060004297181547 0.0146530717556116 -2.359681476436375e-20)
(1.088949098021362 0.005618685467316168 -2.936429594274516e-20)
(1.121070698437421 0.03907338948405448 0)
(0.7550521738032501 -0.1235956149127247 -4.540737447778575e-19)
(0.954812471045251 -0.005866946502158185 0)
(1.06878491037702 0.02223340139210223 0)
(1.06880216914933 0.007291781629550124 0)
(1.073735171603025 0.00888882530376332 -2.826217644713213e-20)
(1.092762806700636 0.02457592252050673 1.098790357583917e-19)
(1.151071451053638 0.003447145824759998 2.153548767307322e-19)
(1.095997130731755 -0.002256264739872236 0)
(1.01539879056684 -0.009121501747276084 0)
(1.133031995693805 -0.09325606872928804 -1.626499496918533e-19)
(1.044092273278004 -0.01160533001381999 -8.190165936138821e-20)
(1.05811580826148 0.02662370182239125 -2.717688665256622e-20)
(1.231464826866012 -0.1123671414143542 -5.587242451896513e-20)
(1.067543415374034 0.01205490655793423 -4.147272218187187e-20)
(1.258444468203538 0.01699383966609305 0)
(0.996526484039134 -0.01921846902450828 2.193832477987219e-21)
(1.044724062456205 -0.0019105822855308 0)
(1.087600386963138 -0.002064061261811624 0)
(0.9994608014525278 0.007183127381313232 -1.847168267097715e-20)
(1.250476799954667 0.03397004531208173 -2.358497710452031e-19)
(1.063487567482026 0.01807250311060772 5.982768444824909e-20)
(0.9920163085284168 0.01044040494293354 0)
(1.018620008065706 -0.006515099075087831 2.442442831289442e-20)
(1.107605992419166 -0.0004194167367805096 -1.178943223817021e-19)
(1.061081519185141 0.03108249355502324 0)
(-0.0890663568318678 0.008591054831416591 7.534857850567661e-20)
(1.155089334281329 -0.05191263335674393 -1.884301931190144e-19)
(1.006785398201848 -0.005992548593911092 -2.682454110875041e-20)
(1.187033818589451 0.06945846441632686 -1.224891986011253e-19)
(0.9976688456372017 -0.009321807621301683 3.079913643846373e-20)
(1.084328208914546 -0.005473300249625073 0)
(1.249045944507284 0.09701551459052374 0)
(0.6960831731829997 0.003182613896973763 -7.440335774268445e-20)
(0.9887303112195811 -0.01364453697284073 -3.209042024106661e-20)
(1.460607337772711 -0.01885991196058013 4.446319813988989e-19)
(1.060475205975296 0.007611212417054195 -6.629668676541884e-20)
(1.368627466212186 0.09548838587801342 2.875869677934725e-19)
(1.054800089689236 0.006874137517188942 -1.958082488146654e-22)
(1.081089826296789 -0.01386293495213583 -3.077646614095414e-22)
(1.16504684527332 -0.236413816714252 0)
(1.021757090727044 -0.01491566168112234 0)
(1.016970858094012 0.01791702711682658 -3.057246625618689e-20)
(1.385678298227122 0.3484439405856845 4.187430238918859e-19)
(1.097309580071867 -0.04248002495368145 9.517982927405493e-20)
(1.045564683508827 0.2094467585244928 2.477212512905883e-19)
(1.124655345834015 -0.06016972239548409 1.165886591287269e-19)
(0.9219371699795006 0.005140639230413975 0)
(0.9753367630737944 0.01850781494560309 0)
(1.004083266847113 -0.048818744294063 2.895395892696443e-21)
(1.009842805677913 -0.01332893801747801 7.752318619873506e-21)
(1.029919838862912 0.02676844792367187 1.375157648133778e-20)
(1.52985214653914 0.03509420387816707 3.244158062659972e-19)
(1.288959338031268 0.07104115409016196 5.564677201421586e-19)
(1.07231646088258 0.00311825874922077 -9.025283171584388e-20)
(1.196754525338224 -0.0925831606545667 0)
(1.033737697881208 0.001928312616940671 1.31870209695801e-19)
(1.165323509252252 0.02212687445436136 -3.183777087312858e-19)
(1.001452818516287 0.03239302001206223 0)
(0.9996260747872432 0.002030334794932201 0)
(1.04444326650655 6.868333007823481e-05 7.887073732240795e-20)
(1.215299832399959 0.1112209668886598 4.140792421940723e-19)
(1.01109824836052 0.00698966697436811 0)
(1.091936511798465 -0.06830796626079523 -1.059059047583718e-19)
(1.15110087471423 0.03772113360380194 0)
(1.215432649235291 0.09531353939479162 -1.943961879049123e-19)
(1.108211575070247 -0.02882962068219166 -7.771451123506895e-20)
(1.027237234139194 0.01185849173037717 0)
(1.085012394374199 -0.004600615811269352 0)
(1.018915757640698 0.02626329679293396 7.979626396558468e-20)
(1.071874008908394 0.0561497903703535 -9.625570833788663e-21)
(1.103817225370616 -0.004131497630143562 6.349703476247902e-20)
(1.110600431674176 -0.09279399477165121 1.498786894306635e-19)
(0.9639124682702007 0.00472008502957591 0)
(1.065958984508932 0.03115066407280583 3.759671319918443e-20)
(1.169051720638161 -0.07658025150600498 2.302916804863876e-19)
(1.051266528021987 0.04678865695492716 -2.881852532246861e-20)
(1.022691209167942 0.0674879829578459 3.695151993985629e-20)
(1.090196731864187 0.0260227086047265 0)
(1.017763744079804 0.01633177521508217 0)
(1.02900029989504 0.009382792469403016 7.857236464724455e-20)
(0.9486084100244836 -0.03327956946338842 0)
(1.052728010989 -0.005529865683451189 -7.637061257350105e-21)
(1.342787765346799 0.05780493455292021 -1.56490028555846e-19)
(1.079861753923149 -0.01311991956029846 2.654589429065418e-20)
(0.7439523117007798 -0.001723544418032917 0)
(0.5908998394862082 0.1937045734382805 -1.058793145780233e-19)
(0.7062074062560039 -0.002505920929282797 0)
(0.6987613031804161 0.01462376814846686 0)
(1.077647941397756 0.003673519185072592 -6.631605273278904e-22)
(0.9906504607762936 0.0145134287340407 0)
(1.278387856972347 0.1224530439610079 2.516042269989555e-19)
(1.012306981873932 -0.02782171680099712 -7.661251875308044e-21)
(1.046066081497461 0.01885751837620797 1.603916639126346e-21)
(1.058700402055962 -0.01179265344857935 0)
(1.126645404540908 -0.009109396695195886 -5.061175129257308e-20)
(1.271302522709902 0.1364455542975714 -2.295525305420451e-19)
(1.089333406334156 -0.0110755602648961 -8.623000846818442e-20)
(1.070304961891181 0.02681300911286973 -1.089258033004027e-19)
(1.040824813626927 0.04676357513054748 7.173330783711221e-20)
(1.022625431172756 -0.003750795544555796 -3.474296695044631e-20)
(1.060843793858056 0.02358042773684828 5.882417581532754e-21)
(1.134181777118743 0.001791823098925114 1.038864146933212e-20)
(1.039069366805611 -0.01541027125439692 -4.815035408254252e-22)
(1.087380491307138 0.03471754424216661 0)
(1.028055542039445 0.01370465766479082 0)
(0.7696784987769075 -0.07034522497234631 -1.810035715215949e-19)
(1.030223977106334 -0.001638540102852357 -6.740445615795554e-20)
(1.1295551474009 -0.004927548713247737 -1.250178525717767e-20)
(0.703418759171003 0.006572676108668579 7.229676004073865e-20)
(1.174738392671838 0.01997716266242702 -1.945183953183923e-19)
(1.136558516821766 0.007438151267015769 5.005957882815256e-21)
(1.128977739012297 -0.01001571951787748 3.424583083831706e-20)
(1.000935686981216 -0.002941861901311964 -7.197385375623348e-20)
(1.103296330501169 -0.06311847698230419 0)
(0.9884773246346592 0.005047341183718896 0)
(1.05782475825648 0.007047815193503472 0)
(1.00546448559613 0.1880961144513183 -2.420503861953681e-19)
(0.7791683579773014 0.01242499255256029 0)
(0.8569411445667511 0.1008331578058985 -8.333756183498554e-20)
(0.0806646572594366 0.03560781607646128 -2.981205448889854e-19)
(1.171909186940968 -0.0301849422130858 -2.263059300752995e-20)
(0.6713076374565425 -0.007305566754536414 2.448247135381533e-20)
(1.168210819409593 -0.09987515912256424 6.890308262645878e-20)
(1.123546479153033 -0.003096318027423636 -5.689118175456612e-21)
(1.154346332094091 -0.04815964236818473 2.199128014267476e-20)
(0.09720689639706895 -0.2193092245641165 0)
(0.2377695498052882 0.07428839658926496 0)
(1.261183526347828 0.1097171421644047 1.902602081774882e-19)
(1.021082878241845 0.01979481691438082 0)
(0.7378311399779339 -0.006250896418405725 0)
(1.075271055589453 -0.01153202936102824 2.738488285983045e-20)
(0.9747544792762207 0.002835580640157901 0)
(1.297884707387485 0.1261125471596732 -1.549409088143605e-19)
(1.057407453829817 0.01104064856364326 0)
(0.9936012332974684 -0.006940889925685327 0)
(1.065034425233292 0.008340388571202622 0)
(1.006195803896364 0.02085652879955334 2.006713931658384e-20)
(0.9383200221597948 0.01547487806319189 1.173052369997084e-20)
(1.177238040793678 -0.2000211563071207 0)
(1.005183227289091 -0.005181015213221565 7.986842234428916e-20)
(1.059142904344673 0.006410783434183181 0)
(0.7746544023450086 -0.003279092489180832 0)
(1.218305506735836 0.02809496875102354 1.647678795122308e-20)
(0.7049504598253018 0.001360620018719213 0)
(1.435711233029514 0.08614644021813384 -5.207732416343767e-20)
(0.9952608924805791 -0.005918327364562419 1.70354535592903e-20)
(1.273186490345181 -0.002151799753927847 -2.970124751526344e-19)
(1.05952033082905 0.009016061529416331 1.358065705156373e-19)
(1.000911913291596 -0.01355323059984022 0)
(1.21162830721748 -0.140623429811804 2.053813847335342e-19)
(0.7331877409237938 0.0137861776032274 0)
(1.098517116881241 -0.004970691728172753 0)
(1.154550645548382 0.06918153696210468 1.95303123682801e-20)
(1.006795128838723 -0.00642622103587554 -3.047227988948348e-20)
(1.121651686192551 0.05306870068856952 -1.745074482779424e-19)
(0.1030719934214021 -0.09081346195045933 0)
(1.072442492640397 0.03927021258573871 0)
(0.6617788450116778 -0.00290021795808263 -5.54956296800397e-22)
(1.012152128213871 -0.01942870897961922 9.381184121427036e-20)
(1.061309637001779 0.0008346164309779732 0)
(1.075194611716412 -0.1310213543070446 3.735491036102475e-19)
(1.002821144920458 -0.006168206496325995 -3.347450204993917e-21)
(1.003274076784488 -0.004805306498468322 7.759576407775098e-22)
(1.093945105585159 -0.009277119880800518 0)
(1.020689895800776 0.02051162159694755 -6.491227855319335e-20)
(1.106551290794777 -0.001566562371991776 6.506156091955384e-22)
(1.074627036373594 -0.0111482831752276 6.657670118032592e-20)
(1.085722333603317 0.02221823876820272 0)
(1.329652434423027 0.1592615996461474 0)
(1.002032222014003 0.0003140479348082707 4.408863605382268e-20)
(1.318794686387613 -0.1284991403563117 1.579313128095332e-19)
(0.02770785503990976 -0.1819716031039367 -2.405417235366034e-19)
(1.071179244719388 -0.005386188287127902 0)
(1.113035461552401 -0.005049212992338855 1.170046826533347e-20)
(0.7267456053221156 0.01780185750842078 0)
(1.060044726465707 0.01030860897829455 0)
(0.8657202834201418 0.163419977040491 4.656831067233761e-19)
(1.279583528110164 0.1317341408855225 1.933613723317088e-19)
(0.6543264968504218 -0.003096646626768251 -6.480712638820061e-20)
(1.039922671421398 0.003812045475434527 -6.22594404977037e-21)
(1.054734194682991 -0.000234112472695298 6.508191595040537e-20)
(1.364292089798797 0.1199703029598754 6.668546175100359e-19)
(1.334635679760422 0.2518831864558144 0)
(1.059597753434787 0.005494298813300754 0)
(1.00063791335206 -0.005160108189915728 1.44832036579673e-20)
(0.9927429415835407 -0.004827227740754612 4.639197710015018e-21)
(1.382481063324013 0.1995275331400581 4.2842810400479e-19)
(0.6818358132593977 0.000464547638678379 9.949164690428625e-20)
(1.00563738774809 -0.00219600813961294 -6.015367433034605e-20)
(1.098235009695703 0.01310248251201594 2.559057736692932e-20)
(0.6694588156462427 0.00496374067622292 0)
(1.066089584686984 -0.01201567181567337 0)
(1.017666839632928 0.1509370366815297 -1.385032327651859e-19)
(1.092005527566635 -0.005454826119681185 -2.542204217867502e-20)
(0.9820357589736101 8.590491788452374e-05 3.300186027065517e-20)
(0.9912114982418574 0.006023762142003405 0)
(0.6381884417783235 -0.001071375181514183 0)
(0.9767151723351054 -0.001194048886446109 0)
(0.6421179455131559 -0.001444333828997058 2.63864228100041e-21)
(1.089438606257474 -0.0552695797517694 1.205969445775298e-19)
(1.111836207399722 -0.004029654544392883 1.157659802318616e-21)
(0.957913310190151 -0.0008666726143667292 3.885673764523023e-20)
(1.016896355051041 0.01005098578225196 1.734810311382979e-20)
(1.06696708652655 0.002948562194183254 -2.545977422019206e-21)
(0.6347220634158068 0.008877044578818206 -3.620841078372804e-20)
(1.005648267908222 0.00866523679338007 -7.596083370732065e-22)
(1.037191368459005 0.006488304442827651 5.430475925933661e-21)
(0.9858836752466797 -0.009179972982402701 0)
(0.6099485738966477 -0.00046144828508918 0)
(1.068851323638196 0.0225016518819307 0)
(1.016787839831242 -0.01668914124452965 1.03259061906259e-20)
(1.023767891070693 -0.009770281479546136 0)
(0.9922607775654363 0.01340976946501277 -9.907956718506693e-21)
(1.009263757482736 0.001233243199701954 0)
(1.132304000766588 0.003029687226080647 -1.151309694745699e-20)
(0.03539715262903789 -0.1436601683334425 -3.817199266543431e-20)
(1.034936367056552 -0.0186023011056865 -5.814895706997416e-22)
(1.041245940275994 0.005088817551308595 0)
(1.081517095124934 0.06951415594153211 8.453884536124961e-20)
(0.9672349754685878 -0.002114536005716964 3.107585525597629e-20)
(1.020197949125369 0.01666911657987459 -2.285293571951177e-20)
(1.003043351498854 -0.002665231326936492 2.443378205106791e-20)
(1.039121381253053 -0.007962641489879454 0)
(0.6408851578334768 -0.004063445780499948 0)
(1.025855589031277 0.02453352658103701 -7.657029638317352e-20)
(1.087717839445655 -0.005617485762251158 5.00025103736998e-20)
(1.015147495053783 0.007217409965563737 0)
(0.9794338074824874 -0.001254195369962626 -1.953013176281024e-21)
(0.858963593498189 0.009536563300437281 -9.507554786156597e-21)
(1.014014054491319 0.002572688956939811 -9.653212354909924e-21)
(1.0225423953922 0.005328777042182234 1.884901322959375e-20)
(0.9845465241960591 0.004198481495614927 0)
(1.00538258925303 0.01204241978197563 3.312992057228339e-20)
(1.110955532135568 0.0005387098880059691 0)
(0.9299100616869047 0.008694544485451629 -3.083674503574954e-20)
(0.9550403693255675 -0.0008272791314066182 0)
(0.9072464091484114 0.2051410329936305 5.027125431223899e-20)
(1.010917053464978 0.06703539176653688 0)
(0.9918974572634872 0.00496732818682923 -2.269092723088273e-20)
(1.059309671670165 -0.05140631381088035 -2.890376904542413e-20)
(0.9932207516292647 0.0008736812642364901 3.273613744381368e-20)
(1.008694425140702 0.00720188996646803 0)
(0.9790010256156905 0.0008559694616042322 -3.035524075862475e-20)
(1.174466808757088 0.1047831530204157 -3.431663024222297e-19)
(1.069599379907307 -0.2651781165279302 0)
(0.9934180851929627 0.0004048904923861204 -2.271424583830158e-20)
(0.9736413182358753 0.000948430006699172 4.88209090758558e-21)
(0.9627683634669802 0.002164052317131019 9.946257271662347e-22)
(0.7459398271616119 -0.001045861567962078 0)
(1.12396420466283 -0.07493844254332924 0)
(1.002656801365547 0.002061243929426013 -2.273246454267077e-20)
(0.9095757503150996 0.01306245643312806 -1.00889115419225e-20)
(0.8455712941516501 0.001671308458689203 2.684395811273491e-21)
(1.014099205718841 -0.008743977283061007 0)
(0.9587069627657402 0.01333878650760742 1.41337694931769e-20)
(1.005550612260961 -0.0002277978493266954 -2.263603678987791e-20)
(1.024230692217446 -0.003585984009078854 -2.52562927436574e-20)
(1.115105002044138 -0.001613636438507905 -4.926969138986364e-21)
(1.118914728146982 -0.001793709193428071 0)
(1.012034014584834 -0.007266590826755456 0)
(1.020199849836429 -0.0009251378777099234 0)
(0.9417655929093491 0.001077807689363119 -1.97751350861684e-20)
(1.017851917784981 0.01358267059001965 5.507600075308344e-20)
(1.08686043080039 -0.006305980768838649 -2.312641067979524e-20)
(1.040262672793535 -0.008577918498028775 0)
(1.108147288657763 -0.002720907270960615 1.851059606689656e-21)
(0.9941729286738721 0.001897033813155079 -2.240812755610543e-20)
(0.9835356879873731 0.001489776359510451 0)
(1.010381327295599 0.003101764669166813 4.673490661228186e-20)
(1.366060805394153 -0.3145521917735342 -1.126749239022956e-18)
(1.121583923467731 -0.04328449696674467 -1.097921021471484e-19)
(0.9666344659043065 0.006397557990204919 4.423203902476863e-20)
(0.7645857340985546 0.001628358728193929 -3.33938583009436e-20)
(1.223892046684073 0.05214607167798267 0)
(1.221897684427985 -0.126336207326869 -1.475780000774179e-19)
(1.082409833472419 -0.003165630127879958 0)
(1.008137025812543 0.0006724557657073879 2.296143231759284e-20)
(-0.1929269805573237 -0.1358667643454118 0)
(0.9939669635565698 -0.004656965079350588 0)
(1.012387360749742 -0.02309286449807637 4.245578520581305e-20)
(0.7064288794724261 -0.01945332174435252 0)
(1.096788775898971 -0.01479478875515748 2.221552535991293e-21)
(1.04122325855777 -0.004480754221723345 1.729232575881278e-20)
(0.6332260026393177 0.004119151157768123 0)
(1.448768533427376 -0.1236525428842317 0)
(0.9860344155260105 0.001552191442948601 -1.069296403688683e-20)
(1.069771454497032 -0.01509122214046882 0)
(1.037779633757624 0.000425500904743694 2.071210635020507e-20)
(1.081419612009967 0.003844026847991564 0)
(1.012090376109778 -0.001125376106608074 -1.112297983232367e-21)
(1.005805533462069 0.003176726786178578 0)
(1.008438415494918 -0.0002190254846010073 -9.310339433640148e-22)
(1.004432752822751 -0.02070606086021657 0)
(1.03634265992502 -0.005141945842164242 1.718163590148181e-20)
(-0.1775880855991988 0.0303677658084326 2.731236615364769e-19)
(0.7974047517604926 0.02144526170146759 5.626624718338886e-20)
(1.005359864972378 0.001864114626077059 0)
(1.126213108879755 0.01072110816899934 -1.173973720877355e-20)
(1.116413865343841 0.007182586329152422 8.86061492661774e-21)
(1.054532012166652 -0.01278997708061116 -1.309808342951163e-19)
(0.9987772002891964 0.01037789378975385 3.430740114170575e-22)
(1.080169702515775 -0.001339800537012398 0)
(1.188496218641318 0.0529725934214401 0)
(0.835272802609347 -0.07622676568929598 4.596608934934985e-19)
(1.090525916983646 0.0009237659679425527 0)
(1.033849966330751 0.00751349060290904 -7.5745996169468e-21)
(1.042429327273218 0.0052451849050444 5.788977338370697e-21)
(1.055593387672726 -0.05931958818681515 -7.613756166034929e-21)
(1.139258224822097 -0.001092374927958727 1.698823950674386e-19)
(1.085854625103315 -0.002636227426788608 0)
(0.9941674505544948 0.001681751942389266 0)
(0.9970367065604395 -0.02679420112590474 -2.427963307878739e-21)
(0.9900873743652807 0.003460885782821402 0)
(1.031458156664032 -0.03750303877254355 6.475723692116494e-20)
(1.290613221926905 -0.09486334256358299 0)
(1.040877786005649 0.001598905516171355 -4.532345841348615e-21)
(0.9861780642424978 0.01699697233978786 -8.833075410053165e-20)
(1.032750699473012 0.04234320041771244 -2.3603553914843e-21)
(-0.07489858228635764 0.1641631706227808 -1.714133812690457e-19)
(-0.07113945553108694 -0.2976398125105931 -1.311947333102001e-19)
(0.895445210497272 0.1330660433521163 0)
(0.2841013403388168 -0.03640745102351439 -3.224131546939454e-19)
(1.005302990807837 0.0008561276971579151 -1.16589522134933e-20)
(1.063855756514839 0.002723796668686353 -2.081561342726833e-20)
(0.9913502501836746 -0.02053721319492051 3.095017649162024e-20)
(1.024269802885535 -0.0317902541912547 2.681413066086787e-21)
(1.010212414617149 -0.03153336268142194 -6.65867018444903e-20)
(0.9888778056826634 0.004828924418735594 -3.481075473859994e-20)
(0.9931720550497051 0.005229114037362591 0)
(1.024921528947289 -0.002372462073071978 -3.473924593667543e-21)
(1.935885339606709 -0.1562865191458941 1.072490012394083e-18)
(1.043496275411157 -0.001955638443313245 0)
(0.9960283752083886 0.008506549394243555 1.512908773361866e-20)
(1.003553973995043 -0.0004308642413153978 4.008356927482055e-20)
(1.161670053017448 0.1551679376252124 0)
(1.000809456405253 -0.009106482060900022 8.129909595377035e-21)
(0.9511185551574179 0.002418884906819447 0)
(1.037838233792733 0.0417525319114878 0)
(1.309051593181104 0.1564894142108256 2.321040939414889e-19)
(1.080458274841466 0.000410282847108871 2.32385935604862e-20)
(1.016603209232108 0.02974709453126004 4.515892623539417e-20)
(1.083828270106927 0.001164240350677549 -2.239077387601607e-20)
(1.051549515753496 -0.01572987180195783 -8.79443699279854e-21)
(-0.3866076386513326 -0.05172081697597203 0)
(0.9997725403068691 0.01334460573405453 0)
(0.1153571401273816 0.05369021024997088 -9.274940969517424e-20)
(1.006775067850502 0.02037052585870745 -4.041460291937062e-20)
(1.003265403252053 -0.02453773972003286 0)
(1.001482324758294 0.005399475394195994 -4.905773770454556e-21)
(1.082000115987088 -0.04249065174648305 0)
(0.993937304455962 -0.01755048083531523 -8.063177375011141e-21)
(1.101811378103981 -0.05749184274146676 0)
(1.445235442934791 0.1729586275601513 0)
(1.054886739945293 -0.0121571761194044 0)
(0.9907335389342947 -0.02486189282906581 -4.157425654599152e-20)
(0.9997986116880556 -0.03825184813327052 -3.418750070337323e-21)
(1.014348223012306 -0.02085299911131104 -2.027839012549935e-20)
(0.9966571000439993 0.01663071481423327 -5.504421288285058e-20)
(0.9960139230796138 0.01018878134709398 -1.474437024425645e-20)
(0.9950584809324152 -0.0285579255051626 0)
(1.002248294276606 0.02366008707832016 1.903260773821788e-20)
(1.053896361030181 -0.03288627483637425 0)
(1.111346854378273 -0.03594495998410378 2.581832339390388e-19)
(0.9956189442396647 0.01663435394664732 4.533187136323553e-20)
(0.6150377866009865 -0.00869137470365567 0)
(1.146258570230617 0.161454508519777 -8.979744281506034e-22)
(0.841976846938189 -0.08334842091069522 0)
(1.13790230555869 0.07290152292594948 -2.747415396511082e-19)
(1.316661931878659 -0.3894916127183572 1.292013605245584e-19)
(1.068763017843142 0.06459762108438528 -1.236083859997963e-20)
(1.011592923384313 -0.03183899647309781 0)
(0.9560151717696651 -0.2162140583667233 0)
(0.5338186629825649 0.1690962918791754 0)
(1.016510160880539 0.01081415717428051 1.219027877038123e-21)
(0.6969799102481629 -0.02465077610451482 0)
(0.9994781434735684 0.01662709419650854 3.479724917086883e-20)
(1.027431006538995 -0.003608760541326357 -2.744544312666838e-20)
(1.078962411854972 -0.008066208011082642 2.688122479051158e-21)
(1.052208840128898 -0.02754307119878687 2.787953972784433e-20)
(1.042615298226313 0.01179127506876223 0)
(1.062226809544013 0.02111099661701815 -8.591818746919793e-21)
(1.049737167651697 0.03627778875977119 -1.795968450177646e-20)
(0.9836251579612459 -0.02274755157798312 0)
(0.6248955205859278 0.005098966421232669 9.168746688537167e-20)
(0.8941505107546395 -0.005928619377930191 -8.844295437331181e-20)
(0.9093764528958107 0.005256358821465215 1.451461854073251e-20)
(0.6296162156793658 -0.006438278994169886 1.408346586969431e-20)
(0.9808160639581059 0.0007889426562382911 2.47634415920258e-20)
(1.00442295473607 -0.01747261977309438 -3.458260666401102e-20)
(0.9843404222266369 -0.03742257003679745 -3.005413669682946e-20)
(1.085607665022205 0.001651713940644213 0)
(1.019929982808712 0.005169456586571121 1.018580192084426e-20)
(1.132276374074165 0.04871054081820328 1.327260135537001e-19)
(1.031059395023321 0.04126282462697139 0)
(1.022664520659194 0.002561043076535 0)
(1.585119571249654 -0.1679806596634353 4.392518489157647e-19)
(1.059406257837786 -0.04602245982190256 0)
(1.018232063917214 0.01023258273033949 -3.708242778064758e-20)
(1.082370903367943 0.006527386826000033 0)
(0.4896015950491038 -0.005865599122209747 0)
(0.01142148253016947 0.02028537218370612 0)
(0.991373800102156 -0.02402524772198712 1.242000271429493e-20)
(1.302154142726814 -0.09626738361460496 3.717446718350845e-19)
(1.032073764029741 0.0349774641567699 0)
(1.022337993804889 0.003557592251283116 -2.203344057665399e-20)
(0.9422994708922465 -0.1603434474442911 -3.344824153949781e-21)
(1.257001917024853 0.07672289756844097 0)
(0.5969319202020189 0.7284574660922488 0)
(1.311738502638053 0.1441518234930401 1.065077017431326e-19)
(1.678202055938376 -0.02596814714613725 0)
(1.053324997939828 0.1231657892345574 0)
(0.7149192317158993 -0.0166860230084882 4.018090463262714e-21)
(1.047069962844467 0.04437023665265438 0)
(0.7596446923585773 0.1249765289598233 1.346433373631641e-19)
(0.996783919156501 -0.01643833676258082 3.574409777490837e-19)
(1.038800052096717 -0.04130738240720991 2.79491519922211e-20)
(-0.3808695267011061 -0.03528388376184222 0)
(1.072321092988911 -0.01635785566880677 0)
(1.084302658078098 -0.005533399157950245 0)
(0.6491713869655598 -0.5052482221942171 -2.468667254957696e-19)
(0.9894576025643049 -0.0009087769901900872 0)
(1.092468232892452 -0.02152418552560896 5.579755511468252e-22)
(1.187214280712982 0.1209384932214375 -2.018477657160818e-19)
(1.097677144513814 -0.04861624507262131 0)
(1.006194446599891 -0.02099153306727154 0)
(0.7732567559009141 -0.1828369406820011 -1.629246158994201e-19)
(0.8798577058434316 -0.1338254626882016 1.479466628904868e-19)
(1.032720215373069 0.0145453124447037 -2.116343479080871e-20)
(1.023123877191505 -0.008953802246886512 -4.455235003085972e-20)
(0.8787847024204938 0.009035199492015748 3.115637137233474e-22)
(1.506331742931704 -0.1945677625799256 0)
(1.308933982686249 0.1146909079803055 2.975661353150257e-20)
(1.241695731748442 -0.07469850346905962 -3.290518576985955e-21)
(1.095715832763914 -0.01856520555712893 -3.978985182663502e-20)
(1.034876745317062 -0.01514669184801658 2.877554829027481e-20)
(1.092832260625346 -0.03906943880600751 9.352508278901227e-20)
(1.031852822174915 0.02063315471686753 0)
(1.049617741905927 -0.03730707821655019 0)
(1.115942327590546 -0.008948825830243388 0)
(1.097366214339446 -0.04179515283907562 0)
(0.9982627721953646 0.01105022514301175 0)
(1.150947653299584 0.08193835098875338 9.527134264392146e-20)
(1.338515440386901 -0.1549697600806421 0)
(1.037007512644796 -0.0273470000819939 -2.533335077717456e-22)
(1.047753960260344 0.05217791518411583 0)
(1.010248649302067 0.01431586181374525 -3.859157898682168e-20)
(1.033782400705898 -0.007365753300540397 9.246804520447837e-21)
(1.08893541690281 0.01346338173983521 -3.221489124467097e-20)
(1.084987872217291 -0.02799868579664808 0)
(1.070681046411825 0.005123156553696349 0)
(1.104922886316186 0.09340370261295308 -1.410050566504423e-18)
(0.9354933436140249 -0.1502072265266187 -7.07770729912877e-20)
(1.172368573645184 0.1175059714090323 1.148343495600494e-19)
(-0.4673330188720972 -0.01974938505921129 -2.903484913362002e-19)
(1.017839529544428 0.02917239654710123 -8.707965832730693e-20)
(1.005865869739682 0.004232172792068796 0)
(-0.2529308716988369 -0.003471627162018448 3.562968766954637e-19)
(-0.03432170024181878 0.2926382517928683 7.466668806375186e-21)
(0.9952114240125718 -0.006263519814294073 9.427736831649714e-20)
(0.1844729184802295 -0.04482883876582838 1.309754501776547e-19)
(1.084512328920908 0.08701670122219124 1.407285585110736e-20)
(0.09375793033798127 -0.1113188663059335 -5.487781530165608e-20)
(1.10842493553481 0.003006559794320134 0)
(1.099278014310584 0.2525632729258157 0)
(1.021122036766922 0.02145476404944617 -1.7043690620286e-20)
(1.063578486850412 0.05221176068959114 0)
(1.02615700574979 0.02353982035567357 -8.406950559817699e-21)
(1.26386229516798 -0.5493455406583858 8.037727183083572e-19)
(-0.1147378610765587 -0.238857881397843 2.132613700170022e-19)
(1.301061396603377 0.1140690486809597 -6.233107225593528e-19)
(1.122140141177498 -0.002170307272480166 0)
(1.121994855857099 0.1046862970478262 0)
(0.5237559622022563 0.07803229514571053 2.446341422205685e-19)
(1.023667666302336 -0.02023917942934349 9.479266648084288e-20)
(1.006518091287752 -0.02330033989556012 0)
(1.210644446378652 0.2702848972339854 -9.639863706504906e-20)
(1.261821654529587 0.1295325810391469 -1.539825891628478e-19)
(1.026571165053489 0.003299622948269854 1.565998675970248e-20)
(1.299663586519259 -0.08508526532376937 -4.985487922155686e-19)
(0.3020652237083473 -0.02010427185803325 2.854015663850543e-19)
(0.8298054228993853 -0.1479561180790236 6.823534031166012e-19)
(1.039563835310259 0.05210934459957963 1.095039469617388e-19)
(1.038193555105636 0.003535382441723223 1.713247496497354e-21)
(1.001038933463691 0.01917421236823753 2.901636285104144e-20)