/*--------------------------------*- C++ -*----------------------------------*\
| =========                 |                                                 |
| \\      /  F ield         | OpenFOAM: The Open Source CFD Toolbox           |
|  \\    /   O peration     | Version:  2412                                  |
|   \\  /    A nd           | Website:  www.openfoam.com                      |
|    \\/     M anipulation  |                                                 |
\*---------------------------------------------------------------------------*/
FoamFile
{
    version     2.0;
    format      ascii;
    arch        "LSB;label=32;scalar=64";
    class       volScalarField;
    location    "116";
    object      yPlus;
}
// * * * * * * * * * * * * * * * * * * * * * * * * * * * * * * * * * * * * * //

dimensions      [0 0 0 0 0 0 0];

internalField   uniform 0;

boundaryField
{
    FrontBack
    {
        type            empty;
    }
    Top
    {
        type            calculated;
        value           nonuniform List<scalar> 
15
(
142.2721855129046
133.5628051612029
138.0683433731032
144.3971273192863
159.7681386111793
131.3681793668569
140.1184479753171
135.35313731695
153.432914060453
135.7443657012647
136.0901923381576
136.7745994835605
125.2409587354289
132.9013225516442
123.9470601186033
)
;
    }
    In
    {
        type            calculated;
        value           uniform 0;
    }
    Bottom
    {
        type            calculated;
        value           nonuniform List<scalar> 
15
(
155.5655916589829
158.1120374078811
141.09627184948
142.0743393419193
141.185511286843
148.4497396430634
142.7082991600021
143.1687252942471
143.4236972708765
134.0588080462664
125.7354985819729
141.5553725579453
122.412662267691
123.4918917381448
124.1425865139298
)
;
    }
    Out
    {
        type            calculated;
        value           uniform 0;
    }
    circle
    {
        type            calculated;
        value           nonuniform List<scalar> 
32
(
56.35110633080419
22.00515108302323
65.30281185726544
24.1541689323317
19.28251168735425
56.2072585731871
56.79912926185663
24.18567832604764
22.2782646007684
65.52048803696195
40.18148263119507
63.03431497472192
50.33284942932373
13.91270964410924
23.53632927356773
19.25140254347978
38.90757354180299
59.61820691798996
61.03406076712954
25.52907737880994
65.74049922918154
63.79920598901707
62.97354848782494
59.89757454079738
64.12117184409287
45.99788027466845
66.38175918449791
32.13358135849476
37.96103571858732
55.72180471043844
21.20268144499489
43.12024271700346
)
;
    }
}


// ************************************************************************* //
