/*--------------------------------*- C++ -*----------------------------------*\
| =========                 |                                                 |
| \\      /  F ield         | OpenFOAM: The Open Source CFD Toolbox           |
|  \\    /   O peration     | Version:  2412                                  |
|   \\  /    A nd           | Website:  www.openfoam.com                      |
|    \\/     M anipulation  |                                                 |
\*---------------------------------------------------------------------------*/
FoamFile
{
    version     2.0;
    format      ascii;
    arch        "LSB;label=32;scalar=64";
    class       volScalarField;
    location    "401";
    object      yPlus;
}
// * * * * * * * * * * * * * * * * * * * * * * * * * * * * * * * * * * * * * //

dimensions      [0 0 0 0 0 0 0];

internalField   uniform 0;

boundaryField
{
    FrontBack
    {
        type            empty;
    }
    Top
    {
        type            calculated;
        value           nonuniform List<scalar> 
15
(
142.27964542934
133.5565744162679
138.0604501535352
144.3837182464671
159.7578356141683
131.3661266375827
140.1119789934293
135.338257772836
153.4454512606345
135.728744961375
136.0776983037555
136.7803489323319
125.2471815999942
132.9059196695668
123.9549504084834
)
;
    }
    In
    {
        type            calculated;
        value           uniform 0;
    }
    Bottom
    {
        type            calculated;
        value           nonuniform List<scalar> 
15
(
155.5680539810899
158.1142971003207
141.1066498462542
142.0712704915303
141.1883008654494
148.4539557239551
142.7160013674947
143.1612260209708
143.4215660573435
134.0681004656256
125.7370115445923
141.5633520682703
122.409680446764
123.4873636372317
124.1423362679304
)
;
    }
    Out
    {
        type            calculated;
        value           uniform 0;
    }
    circle
    {
        type            calculated;
        value           nonuniform List<scalar> 
32
(
56.03568331207428
21.69379507053972
65.19256630005431
26.42779076363796
20.38055375744681
56.29883370530193
56.60210490559424
23.8832133915329
22.05145025135928
65.42647951741864
39.83613247863683
62.89126723907285
50.6495828964707
17.39548626107597
22.5386059731664
18.97309657593032
39.32205175250174
59.84414862651274
61.11985849014238
26.46350720157239
65.83743208499408
63.71162235304315
63.12900764570917
59.80968871239855
64.2089541607305
46.10059509173761
66.49908290525255
32.26072656324312
37.82126303398961
55.62422922104312
21.44926049886366
43.01895121102023
)
;
    }
}


// ************************************************************************* //
