/*--------------------------------*- C++ -*----------------------------------*\
| =========                 |                                                 |
| \\      /  F ield         | OpenFOAM: The Open Source CFD Toolbox           |
|  \\    /   O peration     | Version:  2412                                  |
|   \\  /    A nd           | Website:  www.openfoam.com                      |
|    \\/     M anipulation  |                                                 |
\*---------------------------------------------------------------------------*/
FoamFile
{
    version     2.0;
    format      ascii;
    arch        "LSB;label=32;scalar=64";
    class       volScalarField;
    location    "505";
    object      yPlus;
}
// * * * * * * * * * * * * * * * * * * * * * * * * * * * * * * * * * * * * * //

dimensions      [0 0 0 0 0 0 0];

internalField   uniform 0;

boundaryField
{
    FrontBack
    {
        type            empty;
    }
    Top
    {
        type            calculated;
        value           nonuniform List<scalar> 
15
(
142.2865639581662
133.5696570459339
138.0611390574737
144.3917618290578
159.7601867076191
131.3663936500109
140.1219304883823
135.3434710928969
153.4530962846776
135.7244151671982
136.081470491878
136.7772267266298
125.2585783270991
132.9108961562444
123.9570027493568
)
;
    }
    In
    {
        type            calculated;
        value           uniform 0;
    }
    Bottom
    {
        type            calculated;
        value           nonuniform List<scalar> 
15
(
155.5681972610584
158.1172661502403
141.0992118304065
142.0564115858037
141.1839372643592
148.4413620376102
142.7105405527181
143.1524019163767
143.421146026709
134.066121915246
125.7319692676542
141.5616332952311
122.4065897337765
123.4855967049955
124.1362788345808
)
;
    }
    Out
    {
        type            calculated;
        value           uniform 0;
    }
    circle
    {
        type            calculated;
        value           nonuniform List<scalar> 
32
(
55.98374629880031
21.8243784549533
65.2023545467749
26.21157591090869
20.36788008544467
56.26255592894842
56.58212180277112
23.77191711705955
22.11239402997814
65.44351063489044
39.76507338940749
62.88976848536025
50.67655928372784
17.80205041346793
22.59659100030778
18.36547429771097
39.37892190251304
59.85086956124093
61.09141481949329
25.70761987122654
65.81885555804897
63.7340684321092
63.12353394926496
59.83752919783127
64.18603232594484
46.05239602829536
66.48528749385174
32.19161881088353
37.87272521886656
55.65852922700925
21.31053632839275
43.05745842559401
)
;
    }
}


// ************************************************************************* //
