/*--------------------------------*- C++ -*----------------------------------*\
| =========                 |                                                 |
| \\      /  F ield         | OpenFOAM: The Open Source CFD Toolbox           |
|  \\    /   O peration     | Version:  2412                                  |
|   \\  /    A nd           | Website:  www.openfoam.com                      |
|    \\/     M anipulation  |                                                 |
\*---------------------------------------------------------------------------*/
FoamFile
{
    version     2.0;
    format      ascii;
    arch        "LSB;label=32;scalar=64";
    class       volScalarField;
    location    "8.4";
    object      p;
}
// * * * * * * * * * * * * * * * * * * * * * * * * * * * * * * * * * * * * * //

dimensions      [0 2 -2 0 0 0 0];

internalField   nonuniform List<scalar> 
808
(
0.0903314
-0.000106749
0.0293199
0.089656
-0.258947
0.00315964
-0.00661839
0.0202629
-0.161442
-0.0598033
0.0358634
-0.176696
0.0174005
-0.00646309
-0.290838
0.0172133
-0.295915
0.0167688
0.0284036
-0.0176022
0.0384115
0.357584
0.0557443
-0.0334179
0.435773
-0.192801
-0.0917649
0.00860007
0.012978
0.0105857
0.0114679
-0.00869511
0.0148859
0.0107218
-0.121971
0.599864
-0.00388071
0.0160283
-0.00268143
0.0140483
-0.0875656
-0.0917962
0.0182172
0.0109063
-0.210859
0.0698671
0.0126232
-0.0214516
-0.0141308
-0.202606
-0.00163907
-0.0140962
0.0277787
0.00848309
-0.103235
-0.00900092
0.00866746
0.0371248
-0.0561744
-0.0128073
-0.353858
-0.02975
0.0298081
-0.223375
0.0198546
0.0296112
-0.318312
0.0146158
0.0254466
-0.308252
-0.0049309
-0.341571
0.00500196
0.00673309
0.154944
0.0088989
-0.0271199
-0.0841471
-0.00256308
0.294857
-0.137408
0.00560086
0.0214186
0.243285
0.0111219
-0.049485
-0.384492
-0.122211
0.00235043
-0.210222
0.00982726
-0.136852
0.232398
0.137288
0.0213724
-0.330078
0.0125273
-0.14507
-0.145785
-0.293029
0.000876383
-0.0194287
0.00997517
-0.0406329
-0.130094
0.0419301
-0.240653
0.0103186
-0.00488927
-0.00295017
-0.0903636
0.313167
0.00259621
0.0273655
0.0132974
0.427024
-0.0106533
-0.295395
0.00800276
0.0265107
-0.330479
0.0179177
-0.00340939
0.0302923
0.0951309
-0.0675103
0.0774347
0.0339371
-0.00163763
0.0488703
-0.3563
0.0162149
-0.0794475
0.108359
0.0174714
-0.0132236
0.0478865
0.00388068
0.00759595
-0.0154175
-0.302775
0.0199569
0.0397452
-0.00383963
-0.0483626
0.0511109
0.0673614
0.12761
-0.103054
0.00823606
-0.00159988
0.324639
0.00195415
0.513835
-0.299703
-0.115348
0.000262703
-0.234534
0.0373722
-0.134967
-0.330982
-0.301866
-0.337489
-0.000595893
0.0447703
0.0111965
-0.000633052
-0.349814
-0.00820172
0.0219262
0.0102314
0.141434
0.0521919
0.0914154
9.51338e-05
0.0411833
0.0486335
-0.19061
0.00586729
-0.367954
0.0235438
-0.1554
-0.00657535
0.236319
-0.289083
0.098496
0.00343675
-0.192654
0.0196424
-0.143029
-0.293896
-0.100752
0.0130342
0.0515098
-0.00689601
-0.284894
0.00597608
0.0231428
0.00919513
0.0605379
0.0394205
0.0183509
0.0167945
-0.339175
0.352558
-0.282637
-0.329012
0.00938026
0.0289692
-0.00222666
0.00985785
-0.416382
-0.368746
0.00238687
0.00837638
0.00633317
-0.349915
-0.0532249
0.00558472
0.0303578
0.00834461
-0.102769
0.0219489
0.0206809
0.00930741
0.0128275
0.105666
-0.394712
0.0395906
0.0129189
0.0993187
0.0146741
0.0179276
0.0115605
-0.118408
0.0230435
0.0122028
0.0048084
0.00250039
0.0139232
0.00294997
0.00149618
0.00355999
0.00994554
0.000358215
0.00236316
0.00189894
0.00144038
0.00098309
0.0434652
-0.339493
0.00265547
0.00342184
-0.143625
0.00821506
-0.00519283
0.0224778
0.00217965
0.0196885
0.108633
0.0321259
0.00922446
0.0109033
0.0684601
0.0241578
0.0141166
0.0155119
0.0297961
0.017817
0.0455135
0.0262596
-0.412972
0.256965
0.0114214
-0.089772
0.0159248
0.00963484
0.0136154
-0.282687
0.246765
0.0218652
0.0293926
0.0193754
0.0583372
-0.199726
0.0175983
0.0568505
0.0744329
0.0267681
0.0480017
0.00841887
0.0253902
0.0190356
0.0197495
0.0349125
0.0188325
0.0353931
0.0382731
0.0305829
0.0272778
0.0105577
0.0187895
0.0194192
0.0142227
-0.525673
-0.11518
0.0374776
0.0803465
-0.215577
-0.294686
0.0239481
0.0203629
-0.336575
0.097744
0.124909
-0.000572511
0.00335356
0.037304
0.0104721
-0.246009
0.0255626
7.22787e-05
0.0176836
0.0204984
0.0179547
0.0179122
0.0458044
-0.0181121
0.0198619
-0.305622
0.069113
0.0216032
0.0441674
0.0652258
-0.00419372
0.212536
0.0232021
-0.200028
0.521394
0.0557387
0.00891271
0.0156629
-0.0987069
-0.0675728
0.0340516
0.0232698
-0.00645651
0.0224155
-0.071362
-0.26131
0.047231
0.0873604
-0.061665
-0.293632
-0.335448
-0.39005
-0.340268
0.0604958
0.013303
0.00821968
-0.00805821
-0.0458033
0.00999708
0.017339
0.000952173
-0.519507
0.0586461
0.0178137
0.0174252
-0.240405
0.0752104
0.0055447
0.0837068
-0.367348
0.0439404
-0.0286057
0.046872
0.0737929
-0.312792
0.0158321
-0.31474
0.00579903
0.0914642
0.0204773
-0.0047698
0.0148703
-0.0694877
-0.357422
-0.0118659
0.00210706
-0.0188693
0.0183303
-0.0161938
0.0154626
-0.0163437
-0.00871162
-0.0949935
0.0054212
0.00621569
0.0127919
-0.364579
-0.131325
0.0436019
-0.0363416
-0.118739
-0.0382309
0.396336
-0.217051
0.00611301
-0.0389946
0.00951484
0.0304638
0.0105796
0.0656646
-0.0326341
0.0352145
-0.0824998
-0.0165582
-0.00112739
-0.0055612
-0.00327758
0.00102395
0.0185991
0.0875332
0.0776975
0.012403
0.00973699
0.0023559
-0.0614107
0.00785792
-0.396511
0.0127303
0.0398788
0.012719
-0.148862
-0.368307
-0.0299872
-0.11352
-0.0249201
0.0140054
-0.284811
-0.272385
0.220309
-0.331206
-0.470614
-0.178984
0.0184975
-0.053367
-0.385735
0.325726
-0.059891
-0.333544
-0.0100145
0.0486813
0.541511
0.00927649
-0.0200618
0.0295999
-0.0603721
-0.0253336
-0.353483
-0.289559
0.0368128
0.0357182
0.0628681
-0.284144
-0.331845
-0.23378
0.00375893
0.0328146
0.073042
-0.040166
-0.0481904
0.0600073
-0.00176443
0.00789269
-0.218299
-0.307984
0.0107744
-0.0728806
0.00773222
-0.0115055
0.0499199
-0.0684802
0.0168081
-0.478524
0.425404
-0.303972
-0.316563
-0.0451442
0.0110199
-0.308406
-0.28814
0.0922818
-0.351074
-0.159771
0.837016
-0.00302145
-0.369159
-0.00729473
-0.0504329
0.00965267
-0.475478
-0.311623
-0.329557
0.00533238
-0.212786
-0.374369
-0.0278005
-0.0340957
0.0874078
-0.333647
0.0108066
-0.515681
-0.330326
-0.390492
-0.030403
0.00944254
-0.00249837
0.0883264
0.0949204
-0.0393642
-0.307155
0.276975
0.0657727
0.00803994
-0.452225
-0.512158
-0.349624
0.0213355
-0.363866
0.0564673
0.0531037
0.0244307
-0.2352
-0.256047
0.0123692
-0.325754
-0.291581
0.0089269
-0.0240372
-0.305036
-0.0242435
0.0167594
-0.397054
-0.35868
-0.130767
0.0834619
0.00797027
-0.346858
-0.298222
-0.376845
-0.158692
0.0222415
0.0802724
0.00418465
-0.39891
-0.302437
0.0848655
0.014132
-0.134008
0.0252449
0.035678
-0.337362
0.0227713
-0.294292
0.0370019
-0.315164
0.0431974
0.00695827
-0.36943
-0.458505
0.00109367
-0.489852
-0.475436
0.0323094
-0.0746486
-0.290306
0.00502225
-0.316189
0.0236453
0.0642432
0.0312518
-0.323006
0.0447773
0.066963
-0.451011
0.0161042
-0.340895
0.00835335
-0.338246
-0.510354
0.0696238
0.2582
0.420989
0.00829088
0.00523508
0.00220058
-0.355087
0.62519
0.00166131
-0.218885
0.0225316
-0.0979657
0.0530222
0.470154
-0.374814
-0.0630842
-0.0605348
0.0249453
0.00959669
-0.455262
-0.296988
-0.361874
-0.322521
-0.299329
-0.0151833
-0.380788
0.0485402
-0.271543
-0.311709
0.502006
0.575528
-0.307825
0.0831065
-0.29621
-0.0466446
0.0221715
0.398088
0.00196366
-0.337435
0.0622623
-0.508187
-0.0398286
-0.204003
-0.0287681
-0.319214
-0.278872
0.00730566
0.0067426
-0.337556
0.417062
0.657865
-0.357363
-0.306524
-0.349565
-0.0781244
-0.311009
-0.292252
-0.190073
-0.337549
0.74004
-0.344602
0.714654
-0.43133
0.301977
-0.332813
-0.0125256
0.161988
-0.501393
0.190692
-0.282265
-0.314969
-0.342279
0.851172
-0.299742
0.18155
0.11911
0.615326
0.0948781
-0.342476
-0.285528
-0.199636
0.0109758
0.079059
0.489441
0.0108001
-0.03787
-0.294819
0.113384
-0.150444
-0.337042
0.0248681
-0.307445
-0.187127
-0.157945
-0.384376
-0.00891632
0.0746731
-0.0101507
0.0606745
0.0816365
-0.336101
-0.356794
-0.00303956
-0.00437216
-0.464498
-0.512259
0.169045
0.178931
0.0630693
0.655383
-0.108624
-0.328034
-0.384351
-0.303978
-0.0886778
0.0727641
0.74488
-0.4514
0.345167
-0.0168369
-0.428851
0.138952
-0.0800923
0.356094
-0.163603
0.00125223
-0.345097
-0.108042
0.163308
0.786448
0.308728
0.743927
-0.389061
-0.302455
-0.434642
0.156977
0.253392
0.0458777
0.369172
0.103966
0.475842
0.264133
0.00579088
-0.215449
-0.00570994
-0.324627
0.861279
0.387109
0.637717
0.491696
-0.268615
-0.370055
-0.294353
-0.319865
0.0309573
-0.428423
0.0718697
0.581709
-0.384965
0.0102712
-0.319453
0.17105
-0.333168
-0.370712
-0.188582
-0.291184
-0.337968
-0.36214
-0.354366
-0.150732
-0.434387
-0.162017
-0.32967
0.13219
0.625212
-0.224735
-0.334971
0.810161
-0.334648
0.258129
-0.240216
0.356284
0.0594763
-0.381323
-0.39856
0.433827
-0.302085
-0.324433
0.159444
-0.278098
-0.0330682
-0.301869
-0.123222
0.0251327
0.543362
0.756686
-0.300321
0.20044
-0.338258
0.800488
-0.0259492
-0.316026
-0.0304654
0.737243
0.193067
-0.32363
-0.2912
0.426942
-0.217053
0.0258914
0.341629
0.239047
0.271016
-0.256157
-0.326492
0.666187
)
;

boundaryField
{
    FrontBack
    {
        type            empty;
    }
    Top
    {
        type            zeroGradient;
    }
    In
    {
        type            zeroGradient;
    }
    Bottom
    {
        type            zeroGradient;
    }
    Out
    {
        type            fixedValue;
        value           uniform 0;
    }
    circle
    {
        type            zeroGradient;
    }
}


// ************************************************************************* //
