/*--------------------------------*- C++ -*----------------------------------*\
| =========                 |                                                 |
| \\      /  F ield         | OpenFOAM: The Open Source CFD Toolbox           |
|  \\    /   O peration     | Version:  2412                                  |
|   \\  /    A nd           | Website:  www.openfoam.com                      |
|    \\/     M anipulation  |                                                 |
\*---------------------------------------------------------------------------*/
FoamFile
{
    version     2.0;
    format      ascii;
    arch        "LSB;label=32;scalar=64";
    class       volScalarField;
    location    "1971.5";
    object      p;
}
// * * * * * * * * * * * * * * * * * * * * * * * * * * * * * * * * * * * * * //

dimensions      [0 2 -2 0 0 0 0];

internalField   nonuniform List<scalar> 
808
(
-0.03590404291194425
0.04495847025427599
-0.01164059482519306
0.03502923121985287
-0.3037260254135271
-0.05476642870679294
-0.01464569693554935
-0.02396938475301407
-0.2001305681291076
-0.08569840148848053
-0.00979203465093883
-0.2577706221547902
-0.03059132347607719
-0.01305508895543924
-0.1203863774857293
-0.01405993215929673
-0.1383338833971118
-0.01358748258794717
-0.01234999994837323
-0.0569589664313235
-0.006095818909564338
0.1182777536099449
-0.06093982674607575
-0.07342463233294212
0.1765252332521315
-0.09957423497222964
-0.1552797913867595
-0.02031007631709944
-0.01735895219751441
-0.0259161694601641
-0.02018354108280974
-0.05987851058320087
-0.02288536625555789
-0.01681661996630058
-0.1012807517290768
0.3439392625802228
-0.03865416495468182
-0.0166784116597349
-0.02325863371770209
-0.02655329002861703
-0.09201645186067596
-0.1291076233100819
-0.05087490165427359
-0.02075279492637765
-0.05437591032898888
-0.03996788126795599
-0.01228426940788214
-0.1876537449866375
-0.02757230019203966
-0.2075105188779572
-0.01625409675418991
-0.06898462457997888
-0.0595926001103218
-0.01447457733603172
-0.1905031063710029
-0.02894916324909294
-0.01051457258114177
-0.01386549698413888
-0.1024441912109114
-0.04064969619131982
-0.1005499795032413
-0.1286313249705315
-0.01350226397406176
-0.1309155340983292
-0.01707159936838598
-0.05068194384555772
-0.1679226138712542
-0.03562773370221922
-0.01482168104856882
-0.44609209438997
-0.02694335483438479
-0.3075955212226697
-0.02199538080147881
-0.02051665970008171
-0.06751249082027359
-0.01737027069694583
-0.04350244867202025
-0.3588743275929783
-0.03556276011798351
0.04210715960250015
-0.0903525305183151
-0.01725109032199036
0.05685104457148785
0.04341434616979083
-0.01659626830673223
-0.05327949030007125
-0.5487903084233702
-0.2229486710309332
-0.05340858490353698
-0.1115164293134383
-0.05803761297370488
-0.1350942058851244
0.04067410638981932
-0.02389696820765039
-0.06064181392610571
-0.1212752389874981
-0.03846603928683171
-0.05179131794440388
-0.118343620683236
-0.1412501337862369
-0.05219863853745675
-0.04837643977719952
-0.05563582269920395
-0.04575945833870149
-0.05793505439039418
-0.07332219438159097
-0.04094030988828942
-0.01108527796999384
-0.04105093527128215
-0.1267470493355103
-0.05121774984385589
0.08333541788943125
-0.04310660902696403
-0.007900211489038252
-0.02778771515272647
0.1800866084121056
-0.03984331490064258
-0.2734350579975725
-0.02036959491919111
-0.05487807808275276
-0.02955343668542262
-0.04792639121999012
0.0126062696393646
-0.05011309885804294
-0.03410093866191737
-0.2142109567701594
-0.04292561613513333
-0.004893199546822251
-0.07776736766221165
-0.06763186955302201
-0.1504506174699088
-0.0210271046377394
-0.07662102537965536
-0.04119024262026102
-0.02278697707802375
-0.01658510844228569
-0.0063018923548173
-0.007480739242725271
-0.05312696605056998
-0.05095665709127778
-0.2078121554290769
-0.05813574989680453
-0.008534730339395157
-0.02274058913226555
-0.1449607489225288
-0.002138969812693826
-0.07781330625185527
-0.02377811211503369
-0.001074806594799082
-0.01017183025383359
-0.03386959720582464
0.09556757784578712
-0.03980739676683379
0.2527259444035221
-0.2617517259335595
-0.1304509150634451
-0.03723681204915508
-0.0912258603027794
-0.009069791536450839
-0.1118539948017028
-0.1834770500927631
-0.2124392749999302
-0.1842753639917887
0.05536923901327537
-0.06191484608055747
-0.02031378053747363
-0.06793672278950098
-0.1747471098444901
-0.02387807028730547
-0.01862056489934266
-0.05333432950903621
-0.01809671782803342
-0.006022763831689194
-0.1106315673623391
-0.02287128419166342
-0.04668830842812453
-0.06886823652360588
-0.1640711971512309
-0.03369477921340234
-0.3955507237979619
-0.0177893174108215
-0.2225715895684816
-0.04545430457922469
0.03050988963724858
-0.1047155909274644
-0.01425336290604364
-0.04167804195403162
-0.1062021016660453
-0.01773171846472664
-0.09733596783420896
-0.2040207505415917
-0.07308695583050807
-0.02377930203349617
-0.04989659867338633
-0.04383460067000026
-0.2029210443217607
-0.02191719694213346
-0.0190004443556363
-0.01137344349167027
-0.05470502039974411
-0.05207956265353036
-0.02248621027829581
-0.02079020532532215
-0.2461725952435725
0.1280055274360299
-0.200673079757206
-0.2070257412448829
-0.01176236767460925
-0.01159475258454309
-0.0676691017063998
-0.009472880814110419
-0.512278612804319
-0.1250831922257167
-0.01903714171866399
-0.001590895038241498
-0.02425412120354971
-0.2867946546424307
-0.2736521279134956
-0.007238078045756461
-0.01785277263331779
-0.002329143098955051
-0.3441336778952964
-0.02831452060658935
-0.02920187678276184
-0.01254176883316316
-0.01973166905237507
0.0509370784185165
-0.112983639308561
-0.01373974789744919
-0.02075000338576142
-0.04301922943849615
-0.01822451294968885
-0.01618515480687319
-0.02337023548062014
-0.06682490283966708
-0.01178533848556429
-0.01904249046124228
-0.008622558808036765
-0.001026970203289177
-0.02951636890990049
-0.001631749019373942
-0.002252363363184713
-0.006083145539791349
-0.0255954828476817
-0.008052434288368828
0.001623972629413058
-0.004110585829987679
0.001114528866930134
0.002450447127135274
-0.008520234165606119
-0.1395507896101735
-0.003020841282881441
-0.0008958715968284842
-0.04819652335521239
-0.02144561372263914
-0.02484847264915072
-0.01429028437530965
-0.0060918292545832
-0.02092055456228852
-0.03740480304691021
-0.01423153130756806
-0.01271367715237256
-0.01200573751667551
0.005985307412330255
-0.01012604830512799
-0.01239790615680995
-0.01124068136564724
-0.01065949481821011
-0.00999632234460137
-0.01114274183961174
-0.01405641145930557
-0.3083542120853968
0.06104243476361951
-0.01519415861582568
-0.01673184734161179
-0.01292969336056256
-0.01252657319875659
-0.008619253102687782
-0.09889681621465718
0.008910277339310406
-0.0139504943877654
-0.01470348074145881
-0.0108264557477215
-0.05334376872360332
-0.009233081554370026
-0.01395744761901476
-0.009126480972042116
-0.00132048288333712
-0.009794603642494211
-0.01057532568887421
-0.02485793629047009
-0.01625687020100668
-0.01205362265253563
-0.01329956180755455
-0.008638011795918273
-0.01316935446560969
-0.01134636123544298
-0.05729899160015538
-0.01289018712280104
-0.01164514148794632
-0.008733840417401804
-0.01496073500750549
-0.01411757009860036
-0.01574157840502871
-1.381255079275004
-0.0982888765033552
-0.01271334278085117
0.02248844699080142
-0.166011697657495
-0.09340455039292078
-0.01135909888238905
-0.01409206018755785
-0.2571431613715208
-0.03090648835715478
-0.0205643015443788
-0.01099870294810225
-0.01977703290249346
-0.01121107980851892
-0.03068778260150342
-0.4160940020059037
-0.01219003230384901
-0.01409437324514924
-0.004850507328319919
-0.01041428994232307
-0.009289238803675237
-0.01431717497314716
-0.009653281184347105
-0.0262529228966448
-0.01129120005076652
-0.1605819151054285
0.01742058467974732
-0.007757049825085237
0.002881786571013794
0.0126586730490621
-0.04735711552496218
0.02989829542950758
-0.01274107375367633
-0.1362220142609694
0.2819265058337405
-0.007429010332822825
-0.01312162195980444
-0.008400396823124498
-0.03331822115004281
-0.1223552456029545
-0.01326051491030335
-0.01235851857963332
-0.01708344553268405
-0.01362588218495252
-0.0409772375581168
-0.213856795199462
-0.0113596223040492
-0.04118563928278817
-0.03983090697630289
-0.1662842597699976
-0.1636594777859025
-0.1474408528563166
-0.25959124407608
-0.006543312113310616
-0.0212699738599039
-0.01464745688633372
-0.01289858693510178
-0.03284213975758402
-0.02437785268417671
-0.01444809581458647
-0.01505126618788269
-1.083726638710054
-0.004638105942181285
-0.01376558544391465
-0.01840071681907396
-0.01794754816665207
0.003694899064836728
-0.01392410078732746
-0.0279371516630366
-0.1669750429717718
-0.01355524795592748
-0.02198591498101382
-0.01400726665215995
0.00206494577550686
-0.1789027565301326
-0.01337387936338835
-0.1446562478200517
-0.01602313937201433
0.009834021049930882
-0.01446623011336362
-0.02315437987685949
-0.01582222649488482
0.005453019807254772
-0.2778743388749118
-0.02557222815784987
-0.01615400475118478
-0.008083401013242531
-0.009490290802127438
-0.03056364657829091
-0.01433931313793209
-0.02046866525789028
-0.0213300966171223
0.01030160458635673
-0.1012484392197239
-0.0221138820720375
0.009234931741236295
-0.05082829304219725
0.1580084453306833
-0.1027604912870403
-0.3225771439413555
-0.03016527046106041
-0.02540062182032768
0.1487557357298237
0.08990930125520231
-0.003286046037745894
0.05035554933224529
-0.01572517659727726
-0.01448704354860579
0.002248726702987785
0.01190373257757686
-0.06721261086292099
-0.005346062746613918
-0.05765662972702615
-0.02237155671840428
-0.01570269582920045
-0.03652006858434807
-0.03292198916984696
-0.00664935946125244
-0.01487545343333715
-0.03941495743232307
0.03624204238934586
-0.03885019036824935
-0.01350829514075133
-0.1161484916920753
-0.03186312271946518
-0.03853519757870008
-0.6789374564200124
0.01734563877024418
-0.01110972434719312
-0.005252124144344276
0.165957716061342
-0.08636899115205818
-0.03502018679292841
-0.2476701212573066
-0.01643348983227405
-0.01658714356522959
0.06122948769723146
-0.1857188544283982
-0.2251534466212767
-0.197440216714225
-0.6878196850235142
0.00808118446958782
-0.01807360688027253
-0.01622131646689712
-0.08114163645910315
0.1176000506073908
-0.02133178317939952
-0.2505545250743422
-0.03499854169669267
-0.006439953252785634
0.2762853544132227
-0.01121293778604841
-0.09409314930157935
-0.1485914948297902
-0.004741294677506475
-0.04044175471014998
-0.04537312411491287
-0.2050729838441756
-0.008889724597300388
-0.04236850326309299
-0.002782246817069261
-0.5524314506851524
-0.2010081479167903
-0.1752643544447872
-0.02279228423865192
-0.007040346048242169
-0.05985608250332534
-0.05836873817666972
-0.01533581446266474
-0.06744577958879446
0.00326812698583279
-0.01834263862796705
-0.09566900674724066
-0.2668403823752493
-0.008100723114716046
-0.02610410854376129
-0.02207216097741621
-0.07412896603196388
-0.09136722129593644
-0.08767236811188195
-0.0113911389321313
-0.9277838208551052
0.1603951786221039
-0.08060752534813656
-0.2580927321581731
-0.04266123044905108
-0.01021467302233461
-0.2487638083195769
-0.1832811815010622
-0.03346243910599172
-0.1247751514617308
-0.01836462028323622
0.562295178865119
-0.02388414524688546
-0.2275183379497288
-0.02621396773035525
-0.005066656276058262
-0.01178506254178046
-1.256972701698651
-0.1844541926047441
-0.2345928830147336
0.005418809679581406
-0.03696031169962691
-0.2502657897444145
-0.06531487827589717
-0.05090169801782062
-0.1413992919190548
-0.1931444587694444
-0.06768473928982371
-1.232010856748903
-0.1461191165655334
-0.5198848944381149
0.07832576077875196
-0.00708547161927632
-0.02200012527363813
-0.04246019932039113
-0.04093373402365647
-0.02875035197839075
-0.1322812065885069
0.07960144156204756
-0.003512251136201223
-0.009692697325014566
-0.5802027857174277
-0.8653338290527863
-0.186554545188505
-0.008065538696409243
-0.1348433674861319
0.0009908874268621929
-0.000769116095523041
-0.00198308998178242
-0.06016119201978401
-0.2397039646973245
-0.01345066396941323
-0.1221087872386814
-0.1544213978440137
-0.01322632247454186
-0.03595152410359779
0.02194436555176061
-0.05723107040840542
-0.06957967377404092
-0.5038210147139589
-0.2478627217033897
-0.0812837855684309
-0.072292024361677
-0.01991628272055563
-0.1203685465016177
-0.1550942377900612
-0.07635823181820225
0.02527456236607313
-0.08423363577747328
-0.04791049686348066
-0.01493014348242545
-0.1097015702392498
-0.2720932065150921
-0.05658987518321542
-0.01853549934889673
0.001234553259924986
-0.0100939997257621
-0.01112356290691855
-0.2195541222679854
-0.01481374114848071
-0.2231786530336871
-0.01054646208736461
-0.0652969768965035
-0.00348414289323027
-0.02318855235888775
-0.3774704367806692
-0.9071015016573103
-0.0113158527054254
-1.051907237952319
-0.6146201702950238
-0.01076848028280344
-0.6526920430259
-0.1757883597645525
-0.005474634022808231
-0.1301969205381603
-0.01712923110916088
-0.1212928366004373
-0.06768813077276027
-0.0749408662544943
-0.005308555841755362
-0.0028564684434386
-1.333074060076049
-0.01107071714998355
-0.1884804439004777
0.0005345675589916745
-1.015860863109636
-1.229952092443097
-0.08201522764004825
0.02022167452208867
0.1642639021901052
-0.004828176161548913
-0.02301728544675695
-0.004265966526471145
-0.2520514749926269
0.366188701618371
-0.04082860187865432
-0.2100126640507594
-0.01497490975871077
-0.6594154806463008
-0.07544433532437431
0.1916277002686275
-0.2853714575494755
-0.04976326954440842
-0.0686730152885129
-0.01584669602271278
-0.02171249182522186
-0.5744482025534741
-0.144897945674609
-0.08695634029978672
-0.1267598571875793
-0.5582704593270575
-0.04414406071454839
-0.9114328097728839
-0.0006686644953891143
-0.2372495913321706
-1.04458516992509
0.1703073360479891
0.2927779490878916
-0.1803109485870135
-0.1942007790264301
-0.2060445252258908
-0.068370631515085
0.02329479298636409
0.05075670360290514
0.00429616838697667
-0.1637321530445892
0.02504497168769721
-1.351816417198236
-0.08498622172357247
-0.4717053119791298
-0.3285369179666297
-0.2047481321245528
-0.1754120496824753
-0.01692618496416565
-0.01544096418269703
-0.1042431930009744
0.1699227421869248
0.3858939427347173
-0.2215436034141478
-0.143404701594138
-0.2410523160863582
-0.06237497010928215
-0.1524087484038208
-0.1631148730283506
-0.1253233877274427
-0.1197442938541082
0.4674656111175239
-0.2692162844824872
0.429857668841543
-0.6008834492333979
0.07014977574772571
-0.2036796541869147
-0.0659605134739429
-0.07360196331453786
-0.8759450125999788
-0.2234260101470585
-0.1891101198860438
-0.3458968528235991
-0.4564873103709974
0.5706559617310426
-0.2046112957108664
-0.0001387860470245457
-0.07121941762719054
0.3427651614483966
-0.0378950426505917
-0.1271933926495186
-0.1782487035043437
-0.06391956821160401
-0.01649656376281927
-0.1931675319452903
0.191788067408117
-0.01272893469789829
-0.09600329403391523
-0.1678493861980765
-0.3122267326212748
-0.3143950990908898
-0.06695715821714386
-0.01021108763666425
-0.07597957268334836
-0.6580299760763527
-0.6663332164727186
-0.3381167827541675
-0.05756267689770291
-0.05229687642824358
-0.02544354865997465
-0.06734326344946537
-0.05823603346458828
-0.3580518072182701
-0.953451765570286
-0.00992997501960028
-0.08268451967601767
-1.133748421754052
-1.028440905563391
-0.1032708413307744
-0.0381565684150629
-0.07031464428055886
0.391393990630062
-0.3456739202649588
-0.05136236401128921
-0.5961705535533189
-0.1250575955541609
-0.2541145856990967
-0.2088798935843869
0.4744724826391049
-0.625570780115548
0.07210722627134381
-0.02957823825205983
-0.5561491685148348
-0.05114823879436654
-0.3590811581318664
0.1059900294840477
-0.1895486898040218
-0.05965518528329807
-0.1358975547898343
-0.3642840900731502
-0.08968499682569903
0.5136225001472909
0.0849975928108561
0.4715032238751395
-0.1133343536374698
-0.1990106551103266
-0.5228543886340693
-0.129455994598437
0.02719512904089788
-0.05331089202361968
0.1035416486490231
-0.3100248910207839
0.2361438879464281
0.009282172498961473
-0.003305122186421377
-0.5154699225702126
-0.1864822425233827
-0.08890586398397804
0.5812937649784147
0.1381526247816127
0.3471204895270449
0.2257961207818781
-0.5587647926777828
-0.2122087228236539
-0.2192678916253126
-0.2390766883166228
-0.06009297091414486
-0.6969533402827019
-0.1955534660067778
0.3066770135039756
-0.208915744384854
-0.01108536267857369
-0.1727847540821339
-0.009199188570490431
-0.1583574343958379
-0.4336824600386212
-0.07702828391238681
-0.1967615833368597
-0.07231637265436193
-0.09372635450089607
-0.1438086578307046
-0.07368180355300424
-0.4551007446209554
-0.4171524579594749
-0.02707689769206997
-0.07395513212667165
0.3257873187917842
-0.2459957992778559
-0.184100027955888
0.5260841480738507
-0.2067500746858826
0.01703241871014438
-0.4476041100755698
0.04486944806044114
-0.06249776751844964
-0.1544445439919745
-0.5806005859036283
0.1628427698143603
-0.5831131415286618
-0.531956148019503
-0.1069713098443471
-0.5048484950956105
-0.0374212762680608
-0.1427925755566819
-0.407731313294352
-0.01634507542792826
0.2859213695128117
0.4893382766190315
-0.1584614025003159
-0.008643358697419824
-0.06973382333285345
0.5253707940483365
-0.03347678568312502
-0.4371357238326116
-0.03275955441099038
0.4599877407225423
-0.01448990193223631
-0.5411620076331798
-0.243100689747157
0.1752229300361293
-0.3087840496638448
-0.1775970151999117
0.05261709211715673
0.03391895625384474
0.05385524429019029
-0.297685459896614
-0.1567151202172777
0.4127148786022214
)
;

boundaryField
{
    FrontBack
    {
        type            empty;
    }
    Top
    {
        type            zeroGradient;
    }
    In
    {
        type            zeroGradient;
    }
    Bottom
    {
        type            zeroGradient;
    }
    Out
    {
        type            fixedValue;
        value           uniform 0;
    }
    circle
    {
        type            zeroGradient;
    }
}


// ************************************************************************* //
