/*--------------------------------*- C++ -*----------------------------------*\
| =========                 |                                                 |
| \\      /  F ield         | OpenFOAM: The Open Source CFD Toolbox           |
|  \\    /   O peration     | Version:  2412                                  |
|   \\  /    A nd           | Website:  www.openfoam.com                      |
|    \\/     M anipulation  |                                                 |
\*---------------------------------------------------------------------------*/
FoamFile
{
    version     2.0;
    format      ascii;
    arch        "LSB;label=32;scalar=64";
    class       volVectorField;
    location    "48.7";
    object      U;
}
// * * * * * * * * * * * * * * * * * * * * * * * * * * * * * * * * * * * * * //

dimensions      [0 1 -1 0 0 0 0];

internalField   nonuniform List<vector> 
808
(
(0.89647 -0.012606 0)
(0.995017 -0.0411609 0)
(1.03087 -0.257656 0)
(1.06604 0.0122485 -2.56165e-21)
(1.4917 -0.233364 0)
(0.938744 -0.0214661 0)
(1.09198 -0.0481494 -8.38519e-21)
(1.12775 -0.0415074 0)
(1.35512 -0.184711 3.06731e-20)
(1.20469 -0.0473747 -5.21112e-21)
(1.21336 0.130029 9.39568e-21)
(1.39478 -0.19224 0)
(0.98308 -0.039714 0)
(0.716427 -0.0184324 0)
(1.05309 0.0443616 1.56039e-20)
(1.05864 -0.0271193 0)
(0.898281 0.0773056 -6.25762e-21)
(0.950261 -0.0114926 -1.58864e-22)
(1.18708 -0.127446 0)
(1.09662 0.00374185 0)
(1.16522 0.11652 -1.31095e-20)
(0.923628 0.124193 1.14787e-19)
(1.07064 0.00641306 -1.96356e-20)
(1.15954 -0.0275389 0)
(0.962199 0.179493 0)
(1.37095 0.0315324 -2.50708e-20)
(1.27786 -0.126567 1.27923e-20)
(1.00284 -0.0293512 -1.08898e-20)
(1.04817 0.00111165 0)
(1.05556 0.015835 -2.92453e-22)
(0.989629 0.00388932 8.63498e-24)
(1.10625 -0.0060675 0)
(1.06771 0.058301 0)
(1.09577 -0.0270239 9.16328e-21)
(1.25714 -0.0213763 5.27208e-21)
(0.749944 -0.118159 1.0933e-19)
(0.844397 -0.0294323 -1.90459e-20)
(1.048 0.0504999 2.19864e-21)
(1.17428 0.0607397 -6.80353e-21)
(1.1286 0.0410507 0)
(1.22096 -0.0450641 -8.18652e-21)
(1.26107 -0.0908699 0)
(1.00136 -0.0231259 -1.35895e-20)
(1.15032 -0.00870513 1.5652e-20)
(1.32732 -0.191276 0)
(1.00888 0.0162963 -2.53908e-20)
(1.00976 0.0358856 4.55457e-21)
(1.25601 -0.20757 2.07677e-20)
(1.16599 0.0558111 -1.46513e-20)
(1.39779 -0.0939308 -4.43089e-20)
(1.08561 -0.015409 1.56503e-20)
(1.13571 -0.0489918 0)
(1.10999 -0.00283542 1.22295e-20)
(1.23474 -0.0045614 0)
(1.32032 0.218117 1.88598e-21)
(1.06697 0.0484605 -5.69472e-21)
(1.27824 0.0659587 0)
(1.34986 -0.0339252 7.04452e-22)
(1.21684 -0.0628337 5.59411e-21)
(1.13778 0.0284912 -2.33347e-21)
(0.0201844 0.0924213 0)
(1.21535 -0.187134 -1.05103e-20)
(1.24777 -0.0698957 0)
(1.35351 -0.00204723 -2.44451e-20)
(1.17816 -0.0255535 -1.48629e-20)
(1.02909 -0.0296062 -1.35989e-20)
(1.40102 0.0144094 2.60198e-20)
(0.66494 0.0174661 0)
(1.17753 0.0179971 0)
(1.50009 -0.310887 0)
(0.884341 0.0262815 -4.37832e-22)
(1.36055 -0.0827021 -5.41447e-20)
(0.99322 0.044003 0)
(1.05212 -0.0397302 -7.86383e-21)
(1.13486 -0.322338 -4.98475e-20)
(1.08413 0.0026454 -2.9965e-20)
(1.12653 0.014439 -6.92595e-22)
(1.32633 0.497482 2.48491e-20)
(1.07327 -0.0460427 0)
(1.00585 0.275679 -1.92914e-19)
(1.36247 -0.0117021 1.12869e-20)
(0.750427 0.011076 0)
(0.855896 0.0203872 -1.91012e-20)
(0.973087 -0.11055 4.02311e-21)
(1.09601 -0.0221711 2.36547e-20)
(1.15559 0.00724274 -1.92948e-22)
(1.38663 -0.197788 0)
(1.34343 0.281294 0)
(1.07575 0.0051819 -2.26459e-20)
(1.44533 0.078022 2.71901e-20)
(1.0684 -0.0134531 1.51477e-20)
(1.29947 -0.0660187 -1.53192e-21)
(0.965586 0.0219171 1.87363e-20)
(1.00318 -0.0271011 0)
(1.10912 0.00451603 2.59067e-21)
(1.2917 0.0781035 -4.92509e-20)
(0.781497 0.00944499 -3.56523e-21)
(1.36857 -0.10953 0)
(1.28448 -0.0415347 0)
(1.39565 0.0528291 -4.60416e-20)
(1.07571 -0.0315082 -1.02108e-20)
(1.10342 0.00975296 -2.97686e-22)
(0.939244 0.0212296 1.47941e-20)
(1.15095 -0.0123856 8.14246e-22)
(1.21991 -0.00407813 -1.62995e-21)
(0.998927 -0.00301464 1.9175e-20)
(1.49682 -0.204277 0)
(0.998105 0.311362 0)
(1.08502 0.0311527 1.26304e-20)
(1.20963 -0.192175 -4.05042e-21)
(1.21264 -0.00777429 -1.80649e-22)
(1.03568 0.0363772 -1.26272e-19)
(1.14889 0.0365018 -5.07291e-21)
(1.20467 0.240583 5.8896e-21)
(0.821387 0.0208587 0)
(0.922474 -0.0510301 7.46272e-20)
(1.1337 0.0183448 -1.2852e-20)
(1.49374 -0.198111 -2.27745e-20)
(1.14101 -0.0478594 -1.28748e-20)
(0.925065 0.0156704 1.86593e-21)
(-0.170223 0.0955329 0)
(0.843548 -0.0194715 1.86514e-21)
(0.78986 0.0236531 0)
(1.05412 0.00322646 -1.09173e-22)
(1.01555 0.0279672 0)
(1.30857 0.314057 3.69256e-21)
(1.03731 -0.0438341 -3.12949e-20)
(1.37427 0.239306 -1.02892e-21)
(1.1393 -0.0504975 0)
(1.08791 -0.0196636 0)
(0.828722 0.169712 0)
(1.14849 -0.0350405 -5.58197e-21)
(1.20801 -0.0236789 3.96492e-21)
(1.06978 0.107994 -3.78178e-20)
(0.852198 -0.0366721 0)
(1.08863 0.0192492 -3.34157e-21)
(0.884738 0.0888443 3.37318e-21)
(1.02472 0.00834572 -6.33997e-21)
(0.987747 0.0329257 8.19777e-21)
(1.10945 0.00954243 2.49549e-22)
(0.00764195 0.115347 0)
(1.08533 -0.0121721 -1.65973e-20)
(0.844257 -0.25204 1.95747e-21)
(0.705978 0.0266171 -7.56272e-21)
(1.26136 0.164031 4.28641e-21)
(1.06188 0.281986 3.48143e-21)
(1.04313 0.0229041 1.83092e-20)
(0.991481 0.030633 0)
(1.14963 -0.384169 -8.34556e-21)
(1.09934 0.307813 0)
(0.933413 0.0304046 1.58967e-20)
(0.964989 0.277765 1.5395e-19)
(0.963677 0.035299 0)
(0.823305 0.0955689 0)
(-0.0988695 0.156599 -6.75596e-20)
(1.34321 0.121905 -8.61113e-21)
(0.670466 -0.0209239 0)
(1.51236 -0.012215 0)
(0.92562 -0.105914 0)
(1.36126 0.0749576 1.05782e-20)
(-0.0645216 -0.111857 0)
(-0.040377 0.134355 3.02644e-20)
(1.20332 0.0895716 1.11156e-19)
(0.997649 0.0366188 2.68821e-21)
(0.85453 -0.00379264 0)
(1.04526 -0.0522439 1.79891e-20)
(0.878824 0.0213164 0)
(0.945762 0.0893519 -1.20073e-19)
(1.02412 0.049338 2.37794e-20)
(1.1791 -0.0299157 4.49452e-21)
(1.08328 0.0154843 9.8351e-21)
(1.01428 0.0689896 -1.38671e-20)
(0.772908 0.360544 -3.46579e-21)
(1.14209 -0.335922 2.72206e-22)
(0.913101 -0.0125408 0)
(1.0637 0.00978249 -1.4671e-20)
(0.871902 0.0051302 -1.47805e-20)
(1.35671 -0.0974633 2.32591e-21)
(0.672251 0.0196607 0)
(1.17896 -0.107 0)
(1.15512 -0.0683526 6.83149e-21)
(1.39074 0.2112 6.86293e-21)
(1.10211 0.0144288 8.09272e-21)
(1.03406 0.0208934 1.86407e-20)
(0.935954 0.1141 -9.3272e-20)
(0.813443 0.004402 2.51548e-20)
(1.11912 -0.02198 1.10047e-20)
(1.28741 0.0132456 -3.10228e-21)
(1.14445 -0.033651 -8.35767e-21)
(1.24878 -0.00753464 2.65828e-21)
(-0.0827759 0.195936 4.83039e-20)
(1.21888 -0.0207643 0)
(0.616455 -0.0127022 0)
(1.0546 -0.0199055 -6.47208e-21)
(1.08541 0.0120567 1.47768e-20)
(0.105782 0.150821 0)
(0.880342 -0.0263697 8.54661e-22)
(1.15613 -0.0797467 -3.70288e-21)
(0.974977 0.000187172 1.6596e-21)
(1.07701 0.0307685 -9.16432e-21)
(0.997557 0.024789 2.19066e-21)
(1.05721 -0.0677285 3.2664e-21)
(1.08072 0.027419 0)
(0.497709 0.00256143 0)
(1.05019 -0.0693656 0)
(1.16848 0.1063 -2.24721e-20)
(-0.0788796 -0.0776652 5.95468e-20)
(1.07374 0.0256476 -1.92028e-23)
(1.07154 -0.161726 0)
(0.744609 0.0263699 -1.55076e-20)
(1.07992 0.284721 3.02108e-22)
(0.0182196 -0.0367496 -2.04473e-19)
(0.893368 0.171486 -4.08832e-20)
(0.6342 -0.020237 0)
(0.951674 0.209156 0)
(0.918268 0.0113106 1.49559e-20)
(1.15893 -0.0576454 8.04177e-21)
(1.27813 0.395052 -6.58321e-21)
(1.11644 0.0753035 5.00216e-22)
(1.28508 -0.108401 -2.1147e-22)
(0.965871 0.272857 0)
(1.36112 0.421302 -2.54965e-20)
(0.651157 -0.0118756 0)
(0.802403 -0.01638 -5.4797e-21)
(1.10657 -0.0289878 4.6957e-22)
(0.60769 0.0107975 0)
(1.10007 -0.0067392 0)
(0.17422 0.414332 -3.707e-20)
(1.29267 -0.286287 6.1744e-21)
(0.753235 -0.0139686 5.18868e-21)
(0.989776 -0.00595029 0)
(0.562597 -0.0110466 0)
(0.766051 -0.0135384 -5.39073e-21)
(0.564426 -0.0173835 -1.10641e-21)
(1.36095 -0.0193284 2.16859e-22)
(1.23191 -0.0147486 2.14263e-21)
(0.725523 0.0162387 -2.68062e-21)
(1.23834 -0.0240812 1.77516e-22)
(1.18403 -0.0648513 -4.71302e-22)
(0.554078 0.0124976 7.18625e-21)
(1.32358 -0.0569725 -1.09577e-21)
(1.21123 -0.155622 0)
(0.982791 0.0370967 0)
(0.508695 0.0157092 0)
(1.09395 -0.028766 0)
(1.13859 -0.0836565 -3.94769e-21)
(1.09594 -0.17944 0)
(1.21085 -0.0796841 0)
(0.931091 -0.142404 0)
(1.01116 0.168746 0)
(-0.0394026 -0.0740451 6.28199e-20)
(1.05222 -0.0841946 2.61993e-21)
(0.846218 -0.0214182 0)
(1.21664 -0.0256867 -2.68085e-21)
(1.0896 0.0118859 3.3561e-21)
(1.11461 0.047097 5.59609e-21)
(1.05454 -0.126099 6.10089e-21)
(0.970399 -0.151301 0)
(0.570616 -0.0122085 1.11111e-20)
(1.05134 0.0410884 1.34872e-20)
(1.24281 -0.250054 0)
(1.18027 0.156676 5.30865e-22)
(1.16303 0.113864 6.1759e-21)
(0.864125 0.211597 1.94673e-20)
(1.19384 -0.013829 7.85282e-21)
(1.04478 0.169587 -9.60976e-21)
(1.15195 0.246454 0)
(1.09557 0.157607 -2.07649e-20)
(1.24628 0.245985 1.17415e-21)
(0.754366 -0.177275 1.72778e-21)
(0.928215 -0.190081 0)
(0.00532175 -0.0216728 0)
(0.9658 0.10933 -1.81917e-20)
(1.12445 0.0515766 0)
(1.22 -0.154987 1.09017e-20)
(1.27177 0.126165 1.44212e-22)
(1.05832 0.198053 9.23743e-21)
(1.11772 0.103353 -5.85683e-21)
(1.30955 0.106009 6.27821e-20)
(1.02664 -0.322686 5.03218e-20)
(1.07172 -0.0661701 -7.9192e-22)
(0.846173 -0.276202 0)
(1.05751 0.153822 0)
(0.904952 0.00226099 -3.16311e-20)
(1.36991 -0.365802 -6.49457e-20)
(1.00599 0.00818608 0)
(0.721534 0.231597 8.47423e-21)
(0.768111 0.300789 0)
(0.838881 -0.237602 3.00104e-21)
(0.710069 0.0736357 -1.12097e-20)
(0.814744 0.0149293 -9.70326e-21)
(1.04754 -0.146774 0)
(1.29957 0.20891 -1.68235e-22)
(1.23566 0.120247 -1.78726e-21)
(0.882979 -0.352657 2.18902e-21)
(1.01058 -0.0156574 -5.4838e-21)
(0.756117 -0.419402 0)
(1.09129 0.0623134 0)
(1.12534 -0.252314 7.53746e-21)
(0.875262 -0.351274 -3.03162e-21)
(1.21314 0.172701 -9.38401e-22)
(1.06551 -0.00049377 -5.29265e-21)
(1.05361 0.0166228 -6.23673e-22)
(1.04179 0.0742693 0)
(0.467589 -0.147963 1.71077e-20)
(1.3411 0.0438866 -1.3172e-20)
(0.720425 -0.280218 -3.4732e-21)
(0.474839 -0.128756 -2.05875e-20)
(1.38717 -0.0357976 2.47533e-20)
(1.05612 0.0360189 8.54432e-20)
(1.1021 -0.153281 -7.88477e-21)
(1.04468 -0.0604087 2.28117e-23)
(-0.0955657 -0.0374556 -1.02993e-20)
(0.999072 -0.00650755 0)
(1.03544 -0.086957 -1.5413e-20)
(0.828448 -0.0353281 2.10479e-20)
(1.09956 -0.033009 9.34088e-21)
(0.986873 -0.296145 5.61457e-21)
(0.533361 -0.0225237 1.04086e-21)
(1.44386 -0.350544 -1.78348e-20)
(1.07764 -0.0363518 0)
(1.05864 -0.0183763 -2.66084e-21)
(1.13817 0.0118841 -4.83921e-21)
(1.02761 0.120294 0)
(0.877311 0.131081 1.31642e-21)
(1.09112 0.0144339 6.23755e-21)
(0.928532 -0.171876 -2.12755e-20)
(1.10422 -0.0690214 -1.44485e-20)
(0.869019 -0.0819047 1.93042e-22)
(-0.0513509 0.00619683 0)
(0.551219 -0.23078 2.65616e-20)
(1.16801 -0.034177 0)
(1.13639 0.095435 2.51763e-20)
(1.16324 0.258961 0)
(1.11696 -0.0371449 1.14396e-20)
(1.01466 0.0250713 0)
(0.952464 -0.0372934 0)
(1.33997 -0.0291606 1.59552e-20)
(0.802359 -0.0899662 0)
(1.13955 0.194206 -3.48022e-21)
(1.17548 -0.00679189 6.55848e-22)
(1.03906 0.00182624 5.81548e-21)
(1.27757 -0.201226 -9.03487e-21)
(1.24483 0.108005 -3.55721e-22)
(1.27805 -0.248393 -1.21932e-20)
(1.04338 -0.0206723 0)
(1.07523 -0.0237193 0)
(1.02834 0.0389354 3.66176e-21)
(1.18802 -0.0785924 0)
(1.42546 0.22095 -2.06961e-20)
(0.957685 -0.0396378 1.93759e-21)
(1.02773 0.011413 2.73685e-20)
(1.20945 -0.032911 1.69326e-22)
(-0.0130196 -0.00594483 0)
(-0.0483123 -0.105502 0)
(0.065808 0.369665 -4.9833e-20)
(-0.0979172 -0.0191863 0)
(0.79606 0.182352 1.25742e-20)
(1.15268 0.0330847 -4.32457e-21)
(1.07523 0.0616646 -9.78484e-21)
(1.11552 -0.125694 -4.2472e-21)
(1.14157 -0.104381 0)
(0.720843 -0.0267787 -4.19509e-21)
(1.0617 0.0759243 0)
(1.09561 -0.0316076 2.59835e-21)
(0.578607 -0.111036 0)
(0.791651 0.279959 1.62969e-22)
(1.07035 0.109948 0)
(1.23951 0.0334552 0)
(0.316146 0.0197154 -2.06071e-21)
(0.679303 0.469248 -5.51535e-22)
(0.85198 0.245506 6.09188e-21)
(1.0091 0.0182364 -9.73402e-21)
(0.362278 0.0508674 0)
(1.21824 0.0158575 8.71058e-21)
(1.25477 0.0511281 5.49548e-21)
(1.29205 -0.163742 1.48844e-21)
(0.57569 0.308455 8.09685e-21)
(-0.0743883 -0.0110005 -1.17508e-19)
(1.15085 0.111572 0)
(-0.0255689 0.0252315 0)
(1.21854 0.0942707 9.43243e-21)
(0.605616 0.317406 -8.70997e-21)
(1.20344 0.0533275 -1.63614e-20)
(1.08177 -0.0328507 0)
(1.13031 0.101998 7.16821e-21)
(1.23487 -0.340612 7.96962e-21)
(0.706599 0.00420434 -1.33207e-20)
(1.11157 -0.036567 -6.57445e-21)
(1.06424 -0.0561372 -8.0339e-22)
(0.461693 -0.512418 6.52037e-21)
(1.13112 0.0468214 -3.43095e-20)
(1.13881 0.0227117 0)
(1.12037 0.115707 0)
(1.09347 -0.0841119 -3.97066e-21)
(1.23991 0.0468755 -4.96636e-21)
(0.673913 -0.397167 -2.44301e-20)
(1.18794 -0.0863501 -1.11508e-20)
(1.13882 0.0602211 1.33132e-20)
(0.525226 0.00123128 2.46666e-20)
(0.13223 0.292854 -8.37436e-21)
(0.684773 -0.341402 2.3254e-20)
(1.17016 0.181299 -6.39557e-21)
(1.26132 -0.485242 9.4704e-21)
(1.26621 -0.0307492 1.39342e-21)
(1.11784 -0.0684583 4.70564e-21)
(0.944915 -0.236498 9.11056e-20)
(-0.118326 -0.257346 0)
(1.25319 -0.0009609 1.40659e-21)
(0.121763 -0.357895 -8.01984e-21)
(1.20286 0.134062 -8.16229e-21)
(1.17055 -0.181345 3.20976e-21)
(1.0719 0.0226622 0)
(0.366691 0.0235213 0)
(1.14731 -0.0352821 0)
(1.46462 0.154768 -9.83066e-21)
(1.20331 -0.0207724 5.09421e-22)
(1.08562 -0.0454943 9.21643e-21)
(0.492553 0.0160991 0)
(0.658258 0.00381848 0)
(0.646167 -0.000276496 3.44345e-22)
(0.454091 -0.00932317 0)
(1.26399 0.0816156 0)
(1.01798 -0.011603 2.45872e-20)
(0.360707 -0.117191 0)
(0.949696 0.0551501 0)
(1.14808 0.0512793 0)
(1.17181 0.170781 -1.532e-20)
(1.22961 0.00278718 -5.49235e-21)
(0.94368 -0.0337261 1.32731e-20)
(1.36933 -0.390145 -1.38593e-19)
(0.398632 -0.280495 -3.29322e-21)
(1.09867 0.102325 7.77457e-21)
(1.04106 0.278055 0)
(0.273801 -0.593879 0)
(-0.210835 0.516139 0)
(1.11689 -0.0537625 9.2557e-21)
(1.33855 -0.257495 -4.40301e-20)
(1.33697 -0.0254891 0)
(1.03628 0.0269954 -1.52496e-20)
(0.82688 -0.334969 0)
(1.49823 -0.0745251 8.77871e-20)
(0.413181 0.52107 1.23101e-19)
(0.431132 -0.00676036 0)
(1.18264 -0.26707 1.48813e-19)
(-0.0598904 -0.0723214 0)
(0.235278 -0.569994 -1.26995e-20)
(1.3263 -0.0119906 0)
(-0.233893 0.333594 6.6222e-21)
(0.984806 -0.0523368 0)
(1.15536 -0.172629 -2.46533e-21)
(-0.192178 0.157614 -1.00011e-20)
(1.1001 -0.0511842 4.64616e-21)
(1.05354 0.299522 -1.56763e-21)
(0.585261 -0.526272 -8.93204e-20)
(1.04204 0.0915948 -4.78745e-21)
(1.18566 -0.0997406 2.63041e-21)
(1.17229 0.241079 -2.80676e-20)
(1.15205 -0.192958 3.88838e-21)
(1.13795 -0.0549704 2.28621e-21)
(0.392028 -0.0448613 -9.22283e-20)
(0.0832404 0.189092 -6.59357e-21)
(1.20241 0.212259 4.6283e-21)
(1.05547 -0.0413476 0)
(0.754956 0.409423 -1.78995e-21)
(1.45444 -0.417064 1.0916e-19)
(1.09899 -0.00438566 -8.33149e-20)
(1.46176 0.153107 6.18858e-20)
(1.06438 -0.0114889 1.0703e-20)
(1.02858 0.185221 2.83123e-20)
(1.05772 -0.0117533 0)
(1.14837 -0.019383 0)
(1.07437 -0.131319 -6.88483e-21)
(1.08662 -0.0197918 -4.49937e-21)
(1.07058 -0.235486 -3.98008e-21)
(1.0844 0.0706517 -1.1442e-20)
(1.30611 0.0208756 -1.74349e-20)
(0.423335 0.0240879 0)
(1.00186 0.0214873 2.42142e-20)
(1.24845 -0.074361 0)
(1.09648 0.0744319 -7.78402e-21)
(1.13729 0.00461324 0)
(1.03775 -0.0082391 1.42115e-20)
(1.22897 0.0129235 4.48549e-21)
(0.953399 0.280537 0)
(0.0898923 -0.0231161 2.07115e-19)
(0.886812 -0.216601 -7.14571e-20)
(1.1785 0.0771023 -1.28898e-20)
(-0.157743 0.106444 4.55316e-20)
(1.16306 0.0161146 -1.87914e-22)
(0.829431 0.339649 2.87238e-21)
(-0.121086 0.117477 -4.74347e-20)
(-0.0241864 0.0265366 -2.78537e-20)
(1.02196 -0.0249444 0)
(-0.03719 -0.0553761 0)
(1.09277 -0.0836792 0)
(0.11406 -0.111195 0)
(1.0922 -0.0354242 0)
(0.213904 0.0463234 0)
(1.12712 0.0318498 0)
(1.09902 -0.150664 0)
(1.38527 0.116278 1.71616e-21)
(0.6193 -0.302144 -2.69148e-20)
(-0.10529 0.298233 0)
(1.28288 -0.00910201 8.67206e-20)
(1.08392 0.0600427 7.90209e-21)
(1.06431 0.00312519 0)
(-0.0363491 -0.0493344 0)
(1.14978 -0.0135129 -5.98896e-21)
(1.15021 -0.0392764 1.6545e-21)
(1.16526 0.386366 0)
(0.436584 -0.000980134 8.929e-20)
(1.12088 0.0514429 2.0142e-21)
(0.290098 -0.0519457 -6.84949e-20)
(-0.0590712 0.0300176 -2.77279e-20)
(-0.0392753 0.0499367 7.34729e-20)
(0.226235 -0.502631 1.13983e-20)
(0.912317 0.392 -2.70252e-21)
(1.14596 0.0656903 -1.50845e-20)
(1.02287 -0.00972499 0)
(1.07217 -0.0535055 -2.02722e-20)
(1.23929 -0.0284427 5.90347e-21)
(-0.0167719 -0.0359662 1.16497e-19)
(0.973714 -0.0707198 -5.69439e-20)
(0.915614 0.366446 2.50273e-21)
(1.15494 0.164292 -4.23014e-22)
(0.121819 -0.0227141 4.72664e-20)
(0.310266 -0.0323031 -6.41871e-20)
(0.610079 0.027076 -8.11397e-20)
(1.34089 0.181045 -3.07347e-21)
(-0.0516829 -0.0508036 0)
(1.19345 0.344299 -3.81537e-21)
(0.854556 -0.077587 4.64917e-20)
(1.01613 -0.103012 -4.48315e-20)
(1.16747 0.0304501 0)
(1.51543 -0.153888 9.55154e-20)
(1.15614 0.0471478 -3.79735e-21)
(-0.0278091 -0.0607373 -4.16713e-20)
(0.286252 0.12004 0)
(0.912243 0.0266502 -2.55845e-21)
(1.1189 0.0144024 3.39896e-21)
(1.19886 -0.41339 1.99222e-20)
(1.15595 -0.0201382 3.42e-21)
(1.11704 0.0379602 0)
(1.25496 -0.136515 -1.99341e-20)
(-0.130278 0.0982251 -9.14526e-20)
(1.23936 0.00704488 7.00203e-21)
(1.09816 0.16285 -8.46134e-21)
(1.06564 0.0732605 1.30862e-20)
(-0.0504731 -0.0932658 2.14015e-20)
(-0.0122407 0.0205756 -5.88013e-20)
(0.55725 0.203447 0)
(0.46328 -0.145546 0)
(1.15137 0.0918947 -2.44544e-20)
(1.05282 0.0601302 1.61955e-20)
(1.06798 -0.0109393 0)
(0.613615 0.28634 3.93939e-20)
(0.720177 0.0920599 -9.4886e-21)
(1.0995 0.103856 0)
(1.05217 0.0539812 0)
(1.12786 -0.0664207 0)
(1.2335 -0.0740333 0)
(1.02239 0.0357786 4.649e-21)
(-0.0432003 0.0403144 3.0279e-20)
(1.35461 0.0411215 2.88526e-21)
(1.46746 -0.0933848 -1.05476e-19)
(1.06843 -0.065374 -8.18109e-21)
(0.225758 0.269754 0)
(0.978261 0.11759 0)
(0.646393 -0.00815363 -1.36123e-21)
(0.534922 0.0101122 -5.29877e-20)
(0.0667564 0.0381331 4.35438e-20)
(0.957198 -0.000945923 2.8782e-21)
(0.81159 -0.282515 0)
(0.771706 -0.0850644 0)
(1.03216 -0.160237 0)
(0.54224 0.516322 1.62305e-20)
(-0.00880986 0.0158199 -2.98224e-20)
(1.00426 0.11797 -7.02201e-21)
(-0.0368598 -0.0703005 8.17688e-20)
(1.13469 -0.0719676 2.94545e-21)
(1.16849 0.307349 5.35337e-20)
(1.1075 -0.0698307 8.33881e-21)
(0.658497 0.0510953 1.20629e-19)
(1.13405 0.269178 2.33665e-21)
(0.85352 0.296701 0)
(0.559695 0.272721 0)
(0.908226 0.225814 -1.90585e-21)
(-0.269586 0.308079 0)
(0.619775 0.0322175 4.78193e-21)
(0.633534 -0.435993 -4.16823e-21)
(0.235509 0.0501863 -1.03744e-19)
(1.13776 -0.211181 2.41753e-20)
(1.03492 0.362626 1.07928e-20)
(0.986047 0.0145484 0)
(1.24814 0.08419 -9.66902e-22)
(0.671612 0.0118458 0)
(1.02679 -0.00749403 -4.25814e-22)
(0.562701 0.00299767 0)
(0.719656 0.126151 0)
(0.986358 -0.0288021 -9.79791e-21)
(1.44364 0.165713 -1.00369e-20)
(1.08932 -0.0829266 4.82504e-21)
(0.541172 -0.510008 0)
(1.13399 -0.138435 1.12037e-21)
(0.809448 0.377808 7.33194e-20)
(-0.0449485 0.016772 1.03279e-21)
(1.20702 -0.0808933 4.05229e-21)
(1.21416 0.0134988 -2.5534e-21)
(1.14391 -0.194264 7.7026e-22)
(0.813717 0.0114455 -1.04133e-20)
(0.0562215 0.020044 3.30093e-20)
(-0.023786 -0.0162063 -6.43465e-20)
(-0.187608 0.362042 0)
(-0.0789852 0.40895 0)
(1.22902 -0.618741 3.96322e-20)
(1.12893 -0.034753 -2.23084e-21)
(0.942943 -0.481269 -5.56938e-20)
(1.17282 0.341298 6.0445e-21)
(1.37614 0.194496 2.79246e-20)
(0.605809 0.422866 0)
(0.246766 0.416134 -1.18886e-19)
(0.599354 0.481362 0)
(0.143008 0.221674 0)
(1.14192 -0.468088 0)
(-0.0499554 0.0790138 3.47566e-22)
(1.1666 -0.00801308 0)
(0.779224 -0.268492 -8.74774e-21)
(0.598008 0.695444 2.02788e-20)
(1.29738 -0.0294082 5.29999e-21)
(-0.0235278 -0.0957027 -1.55872e-19)
(0.799197 -0.14909 -3.81104e-20)
(0.451023 0.145313 -1.25293e-20)
(1.20557 0.0718604 0)
(1.36614 0.356896 2.66373e-20)
(1.22667 0.569189 1.71962e-21)
(0.151311 -0.0201414 -1.89904e-20)
(0.999305 0.146905 2.48745e-20)
(0.983485 -0.0315039 1.59128e-21)
(0.92118 -0.0011268 -7.7275e-22)
(0.0340684 -0.028717 0)
(0.659943 -0.664177 -2.83451e-20)
(0.61765 0.198814 0)
(0.195795 0.0473189 0)
(-0.0377373 0.03655 0)
(0.0270555 -0.0327597 -6.03178e-20)
(1.22893 -0.0428848 -4.74687e-21)
(-0.0334792 0.0503098 0)
(-0.0212625 0.0418191 0)
(1.46109 0.117462 -5.80857e-20)
(-0.0249521 -0.0956708 7.00648e-20)
(0.11499 0.23361 -1.0299e-19)
(0.381873 0.0155543 0)
(0.173725 -0.286157 8.03863e-20)
(1.19058 -0.229726 0)
(1.00147 -0.278705 0)
(0.0519995 -0.0484517 1.48848e-19)
(1.14265 0.0201517 -3.58791e-22)
(1.11785 0.34007 3.15904e-20)
(0.255873 0.0294827 4.22816e-20)
(0.414187 -0.532681 -3.14651e-20)
(1.33644 0.0726375 0)
(1.22583 0.202996 1.89773e-20)
(1.22508 0.21266 -2.33107e-20)
(0.102874 0.0854613 -2.36904e-20)
(-0.0812442 0.0762546 0)
(1.06953 -0.0500101 -1.83049e-20)
(1.10601 -0.210618 -1.20348e-20)
(0.592387 -0.411799 0)
(1.09853 -0.14368 -2.39826e-20)
(0.0194484 0.395803 0)
(0.584303 0.0513289 0)
(1.25724 -0.0115747 5.19211e-22)
(0.993362 0.0217459 6.9341e-22)
(1.08394 0.748796 -2.00442e-20)
(0.230415 -0.389518 1.26532e-19)
(1.11417 0.0569563 -1.101e-21)
(1.20474 0.0663415 -3.88057e-21)
(-0.0377951 0.081893 2.80419e-20)
(0.791028 0.736706 3.24611e-20)
(1.37525 -0.329714 -1.60798e-20)
(-0.193269 0.225271 3.80105e-20)
(1.17941 0.00466485 0)
(0.470099 0.172791 -9.2192e-21)
(0.938762 -0.654025 3.75985e-21)
(0.903667 0.644965 -1.47326e-20)
(0.677711 -0.00603126 -8.6817e-20)
(1.12978 -0.0204914 -1.6278e-20)
(1.07541 -0.075884 6.73912e-21)
(1.16807 0.0485235 6.33161e-21)
(1.10612 0.114436 7.63116e-21)
(1.13526 -0.106581 0)
(0.913053 0.111528 1.19951e-20)
(0.888718 0.461315 0)
(1.39507 0.0717802 8.43439e-22)
(1.16818 0.0996798 4.78745e-21)
(0.75122 0.265436 0)
(0.516448 0.111042 9.8938e-20)
(0.898118 0.715504 -7.91535e-22)
(1.07018 0.283735 -2.42607e-20)
(1.03825 -0.00430836 1.28828e-20)
(0.418221 0.492293 0)
(1.32562 -0.451695 0)
(1.04306 -0.109422 7.96274e-21)
(1.26805 0.507557 0)
(-0.027246 0.0418535 -3.61457e-20)
(1.30661 -0.39725 -2.42438e-20)
(1.17002 0.511489 0)
(0.457036 0.215273 1.71918e-19)
(1.12663 0.319995 -1.08411e-19)
(0.828016 -0.64518 -2.2755e-20)
(1.17568 0.0263018 4.50112e-21)
(0.917394 0.154738 7.2233e-20)
(1.08376 0.163644 6.17879e-20)
(1.0755 0.708011 2.14943e-21)
(0.917848 -0.440637 5.99794e-20)
(1.4424 0.17169 2.92845e-20)
(1.12278 -0.00816033 -2.46433e-21)
(0.0436165 -0.0615404 1.33052e-19)
(1.11299 -0.709128 4.23777e-20)
(0.89048 -0.729669 4.41342e-20)
(0.256864 -0.342115 0)
(0.974744 -0.150806 7.00923e-20)
(0.364698 0.306721 -4.4628e-19)
(-0.143618 0.39204 2.53073e-20)
(0.217299 0.0423257 1.7706e-20)
(0.792899 -0.0445387 -1.00272e-19)
(1.08319 0.53188 0)
(0.980964 0.215703 8.69067e-20)
(1.08601 0.0250611 5.18515e-21)
(0.917475 0.443306 -9.45233e-20)
(0.80869 -0.743042 -6.61518e-21)
(0.93798 0.0183303 -4.91482e-20)
(0.982191 0.490703 0)
(1.27674 -0.0280626 2.78283e-21)
(1.41325 -0.495869 1.78682e-20)
(1.2386 -0.320116 1.28445e-20)
(-0.0419022 0.345433 4.16782e-20)
(0.197335 -0.000525121 -1.83075e-20)
(0.978757 -0.120871 -5.774e-20)
(0.35479 0.52697 0)
(0.929379 0.00967353 3.91611e-20)
(1.1609 0.640674 6.99573e-20)
(-0.0958337 0.160901 1.95925e-19)
(-0.0535495 0.104514 -2.34551e-20)
(-0.123908 0.0113857 4.98327e-20)
(1.09814 0.0135748 -7.20649e-21)
(1.19139 -0.465272 0)
(1.08852 -0.737036 -3.04973e-20)
(0.702988 0.348112 0)
(0.0917946 0.157255 -1.47368e-19)
(1.08884 0.0515532 6.36012e-21)
(-0.0546882 -0.0629201 -3.90627e-20)
(1.04933 0.0514134 -1.19837e-20)
(0.0953182 0.0168538 4.695e-20)
(0.846098 0.130632 0)
(1.23175 0.0390538 1.70433e-20)
(0.0413981 0.0582248 -2.01045e-20)
(-0.140578 0.441215 -4.95426e-20)
(-0.277587 0.457337 0)
(0.146906 -0.000572385 0)
(1.22341 -0.0109527 -6.25248e-21)
(0.475162 0.00355556 2.08696e-19)
(1.30244 -0.726832 -4.0191e-20)
(1.15029 -0.183018 5.292e-20)
(1.06344 0.242769 -3.54112e-20)
(0.376929 -0.571712 1.36704e-19)
(1.56193 0.283193 -2.8327e-20)
(0.163158 -0.0351323 5.24516e-20)
(0.209896 0.304419 1.99084e-19)
(0.206102 -0.0154477 -1.94293e-19)
(0.954998 -0.494005 -4.13855e-20)
(1.45923 0.391157 2.86752e-20)
(0.58264 -0.692022 4.59345e-20)
(1.10459 -0.0662095 -7.13893e-21)
(0.419768 0.266642 7.96655e-20)
(1.18536 0.296167 -4.24387e-20)
(0.665252 0.641644 -4.24193e-20)
(1.38858 -0.621382 0)
(1.42453 0.525398 3.04386e-20)
(1.07085 -0.527073 -1.35515e-20)
(1.39542 0.611803 -8.52821e-20)
(1.16316 0.00150187 0)
(-0.0447621 0.0677696 0)
(1.25795 0.734495 0)
(1.29503 -0.0541072 -1.82173e-21)
(0.751484 -0.307804 -2.03814e-19)
(0.483173 -0.0873957 0)
(-0.0412967 0.098552 -2.37579e-20)
(1.0286 -0.241484 9.24922e-20)
(-0.136698 0.264891 0)
(0.324637 0.0210284 1.23683e-20)
(1.13869 0.0200291 0)
(1.42144 0.280438 0)
(1.1799 0.0273669 -4.82039e-21)
(0.367805 -0.299987 0)
(1.00759 0.142813 4.20252e-20)
(1.31192 0.288644 0)
(-0.0550235 0.142521 1.57046e-21)
(0.821115 -0.401861 0)
(1.52452 0.339642 -4.27468e-20)
(1.23411 0.367769 5.74613e-21)
(0.846555 0.64921 -1.02811e-20)
(1.00283 0.150148 -9.58113e-20)
(0.967337 -0.202295 -4.50366e-20)
(1.459 0.294632 2.51952e-20)
(1.01025 0.135249 0)
(0.568303 -0.0765802 0)
)
;

boundaryField
{
    FrontBack
    {
        type            empty;
    }
    Top
    {
        type            noSlip;
    }
    In
    {
        type            fixedValue;
        value           uniform (1 0 0);
    }
    Bottom
    {
        type            noSlip;
    }
    Out
    {
        type            zeroGradient;
    }
    circle
    {
        type            noSlip;
    }
}


// ************************************************************************* //
