/*--------------------------------*- C++ -*----------------------------------*\
| =========                 |                                                 |
| \\      /  F ield         | OpenFOAM: The Open Source CFD Toolbox           |
|  \\    /   O peration     | Version:  2412                                  |
|   \\  /    A nd           | Website:  www.openfoam.com                      |
|    \\/     M anipulation  |                                                 |
\*---------------------------------------------------------------------------*/
FoamFile
{
    version     2.0;
    format      ascii;
    arch        "LSB;label=32;scalar=64";
    class       volScalarField;
    location    "44.3";
    object      p;
}
// * * * * * * * * * * * * * * * * * * * * * * * * * * * * * * * * * * * * * //

dimensions      [0 2 -2 0 0 0 0];

internalField   nonuniform List<scalar> 
808
(
0.113039
0.0370584
0.0702335
0.112537
-0.284499
0.0326892
0.0299347
0.038644
-0.170637
-0.0392612
0.0850591
-0.193655
0.0427819
0.0282702
-0.128037
0.0369544
-0.113184
0.0219678
0.0494375
0.0132945
0.0473688
0.388148
0.0970044
-0.00578388
0.463901
-0.0988638
-0.0862123
0.013984
0.0136416
0.0303286
0.0203882
0.0188963
0.033683
0.0156272
-0.101523
0.617984
0.0372102
0.0377586
0.0318697
0.0326039
-0.0627349
-0.080235
0.0607384
0.057747
-0.0850941
0.112724
0.0310081
-0.0207967
0.0351739
-0.213666
0.0356458
0.00862346
0.071252
0.00195239
-0.0589129
0.0330325
0.0121708
0.0676014
-0.0422879
0.0263519
-0.324866
-0.0237141
0.0423194
-0.20429
0.0555691
0.0718307
-0.35214
0.0371753
0.0806845
-0.338449
0.0376961
-0.378474
0.0313859
0.032715
0.15487
0.0481407
0.0113969
-0.0425693
0.0375302
0.329374
-0.0610447
0.0271332
0.0464881
0.253641
0.054199
-0.00416504
-0.426818
-0.0800736
0.0360325
-0.0970114
0.0363592
-0.125607
0.268673
0.178371
0.0652178
-0.349357
0.0370844
-0.0669069
-0.131248
-0.304812
0.0341686
0.0166144
0.0424613
0.00509523
-0.0606976
0.0847328
-0.0927897
-0.0375827
0.0306159
-0.00485325
-0.0196882
0.347046
0.0357776
-0.00468542
0.0335232
0.445336
0.025229
-0.325223
0.043231
0.0563134
-0.207655
0.0610883
0.0273134
0.0555167
0.137343
-0.0259
0.0945924
0.0150229
0.015982
0.0924836
-0.445421
0.0436202
-0.0448932
0.149322
0.0415934
0.0266972
0.0124431
-0.0135028
0.0342629
0.0190378
-0.261727
0.0422221
0.0556684
0.0379475
2.05972e-06
-0.0480358
0.0909735
0.147121
-0.204791
-0.0619108
0.0376092
0.355641
0.0361232
0.539402
-0.298454
-0.0524789
0.0336637
-0.115436
0.0338658
-0.0638222
-0.374121
-0.277875
-0.385538
0.0305169
0.0864445
0.0485698
0.030342
-0.422268
0.0320591
0.0562375
0.0421638
0.180678
-0.0536857
0.092029
0.0325906
0.0650728
0.0953429
-0.191392
0.0347447
-0.411731
0.0583395
-0.101045
0.0278419
0.247812
-0.0712079
0.141984
0.0467391
-0.163767
0.058234
-0.118926
-0.277268
-0.0577869
0.0420993
0.0715054
0.0277342
-0.219967
0.0417733
0.0443173
0.0152735
0.104664
0.0641474
0.0420183
0.0353087
-0.379879
0.379005
-0.238062
-0.373891
0.0114844
0.0619385
0.036105
0.0077527
-0.466212
-0.44122
0.0359016
0.00484374
0.0288184
-0.389449
-0.0136775
0.0204893
0.0325445
-0.00954897
-0.0636455
0.0428499
0.0419361
0.0143617
0.0337905
0.150516
-0.514423
-0.0434134
0.0168761
0.141878
0.0217841
0.0250829
0.0160637
-0.0400869
0.0503308
0.0178247
0.0192643
0.0196202
0.0286519
0.0194246
0.0128737
-0.0025001
0.0116264
0.0103993
-0.01168
0.00673481
0.0277072
-0.0212171
-0.0201723
-0.386775
-0.00929545
-0.0177333
-0.0500234
0.000303043
0.03246
0.0377827
-0.00264364
0.0319701
0.150374
-0.0445186
0.0198712
0.0258585
0.0183825
0.0648013
0.0107657
-0.0289433
0.0185164
-0.0366599
0.0286892
-0.0130684
-0.462843
0.291589
0.0341825
-0.108249
0.0175988
0.0404418
0.016206
-0.2664
0.248635
0.0156494
0.0281687
-0.0173334
0.081908
-0.210312
0.0182316
-0.0163807
-0.0892985
-0.0488162
0.0282451
0.0307688
0.0162104
-0.0131295
0.0103387
-0.0680745
0.0261433
0.0187012
0.0834166
-0.0492436
-0.0487473
-0.0193708
0.0237604
0.00525971
0.039353
-0.582304
-0.0449041
0.052879
-0.0368856
-0.214431
-0.097253
-0.037564
0.03568
-0.385287
0.118252
0.141996
0.0409236
0.0336499
-0.0557324
0.0110443
-0.272029
0.034652
-0.00821358
0.0422531
0.0306615
-0.00539932
0.0371625
-0.0229735
0.00449879
-0.00637141
-0.334845
-0.000379749
0.0479174
0.0569323
-0.0122691
0.036586
0.248272
-0.0207724
-0.186111
0.539077
0.13388
0.0155523
0.0424216
-0.077761
-0.0163475
0.0103161
0.041979
0.000202087
0.0190785
-0.0192735
-0.204963
0.0297266
0.130907
0.00598986
-0.311778
-0.384818
-0.518609
-0.395953
0.0205528
0.0346085
0.0110527
0.00390185
-0.0134588
0.014475
0.0324999
-0.00323265
-0.5745
0.0596282
0.0232468
0.0582485
-0.080229
0.0336372
-0.0543394
0.104923
-0.423977
0.064623
0.0391111
0.0370564
0.0591587
-0.351233
0.037958
-0.2899
0.0202537
0.0407377
0.0624401
0.0369648
0.0626004
-0.14864
-0.400099
0.0247115
0.0142494
-0.223245
0.0141377
0.0246984
0.0296264
0.00204686
0.0257279
-0.254061
0.018253
0.0416151
0.0313597
-0.329001
-0.222492
0.0835204
-0.0539777
-0.00611103
-0.0180975
0.404878
-0.0771124
0.034117
-0.108146
0.0349014
0.0490648
0.0356971
0.0573122
-0.000933273
0.113403
-0.02656
-0.0049349
-0.00502592
-0.00655072
-0.0115491
-0.00717383
0.0368046
0.10594
-0.0349065
0.0315828
0.0132995
0.0464544
0.0173454
0.0497678
-0.43981
-0.092443
0.0180491
0.0213755
-0.0905601
-0.433882
0.000319189
-0.125129
0.0679313
0.0331118
-0.272006
-0.297935
0.271079
-0.369322
-0.522566
-0.0624681
-0.139922
0.0592035
-0.46469
0.343458
-0.0684056
-0.383913
0.0292562
0.126978
0.541028
0.0124921
-0.0071238
0.0726799
-0.107113
0.0148172
-0.255269
-0.228129
-0.0194761
0.0571872
-0.0737081
-0.314959
-0.377292
-0.138163
0.0347967
0.0396256
0.116578
-0.000966337
-0.062159
0.104706
-0.0781251
0.0319175
-0.182617
-0.284433
0.00110045
0.0279562
0.032978
0.0394409
0.0730858
-0.010126
0.021647
-0.533708
0.43833
-0.271446
-0.35132
0.0048739
0.00384604
-0.325095
-0.294679
0.109674
-0.394942
-0.00701603
0.857338
0.0391072
-0.412041
0.0269773
0.081281
0.0576053
-0.530633
-0.308838
-0.366768
-0.00683037
-0.0696591
-0.41905
0.0255682
0.0160106
0.127458
-0.384112
0.0586158
-0.571716
-0.306876
-0.369582
0.0680426
0.0403793
0.0359237
0.130111
0.112957
0.0278992
-0.347003
0.286893
-0.0989835
-0.0200506
-0.505335
-0.567944
-0.394855
0.0488945
-0.407824
-0.0933649
0.00883296
-0.0258475
-0.150532
-0.281599
0.0342472
-0.374915
-0.220091
0.0161034
0.018433
-0.272706
0.0278113
0.0638198
-0.443939
-0.431025
-0.0997742
0.122825
0.0387783
-0.39234
-0.276869
-0.389549
0.0931717
0.0700275
0.124992
0.000280019
-0.478206
-0.274021
0.126425
0.0324393
0.0459332
0.0485725
0.0386349
-0.316119
0.0539728
-0.327052
0.0469508
-0.153858
0.053357
0.00946041
-0.348722
-0.434438
-0.00189541
-0.543456
-0.530274
0.0576715
-0.0239167
-0.284532
-0.0166584
-0.363125
0.0378736
0.106304
0.0491724
-0.0951444
-0.0695029
0.0834394
-0.408422
0.0117773
-0.379312
0.0275781
-0.386854
-0.480167
0.0735591
0.296467
0.438932
0.0396032
0.00272938
0.00795698
-0.400084
0.651464
0.043087
-0.142192
0.0199562
-0.134897
0.0656194
0.504875
-0.356779
-0.00777333
-0.00415265
0.0197567
0.0208221
-0.432502
-0.326643
-0.441969
-0.274559
-0.339101
0.0249808
-0.429395
-0.0615093
-0.222814
-0.263905
0.55032
0.616038
-0.220964
0.073641
-0.301089
-0.0103768
0.131759
0.446868
0.11734
-0.377887
0.0685475
-0.47196
0.0155182
-0.164156
0.0138675
-0.302963
-0.223044
0.0104197
0.00341561
-0.3747
0.410123
0.689499
-0.42206
-0.280432
-0.401016
-0.0183133
-0.291643
-0.276121
-0.0873386
-0.377366
0.783011
-0.32368
0.72081
-0.480896
0.307187
-0.376744
0.0377366
0.200228
-0.473162
0.167572
-0.1966
-0.28033
-0.308965
0.884078
-0.31586
0.190165
0.122119
0.62283
0.104764
-0.224843
-0.233547
-0.137652
0.0225406
0.124573
0.480774
0.0201171
0.016177
-0.279284
0.163428
-0.168204
-0.37229
0.05756
-0.12826
-0.226755
-0.108818
-0.433445
0.0354634
0.0920061
0.0290657
0.103582
0.0919586
-0.309353
-0.311331
0.0773565
0.0456582
-0.424663
-0.478297
0.215859
0.216184
0.0851235
0.696631
-0.128028
-0.119837
-0.343305
-0.281765
-0.103177
0.113899
0.777654
-0.416109
0.337683
0.0257329
-0.401225
0.177352
-0.0332022
0.354221
-0.0987602
0.0459923
-0.38247
-0.138435
0.145556
0.799649
0.319695
0.781756
-0.496637
-0.272499
-0.485573
0.198786
0.286947
0.0890502
0.408357
0.0784478
0.494953
0.30408
0.0750834
-0.244587
-0.00853501
-0.246128
0.888397
0.401872
0.682659
0.514202
-0.223517
-0.459991
-0.289701
-0.361342
0.0753311
-0.475356
0.0525585
0.617037
-0.469941
0.00594893
-0.364057
0.209418
-0.31877
-0.344827
-0.140331
-0.259057
-0.311776
-0.428543
-0.393535
-0.108902
-0.487382
-0.193199
-0.207185
0.172239
0.626116
-0.173136
-0.374115
0.848008
-0.371185
0.254433
-0.199927
0.342172
0.0760469
-0.484144
-0.365707
0.4787
-0.340069
-0.285215
0.150105
-0.235352
0.0155129
-0.281153
-0.0782667
0.0553755
0.551956
0.778405
-0.279543
0.208234
-0.287748
0.828091
0.0190896
-0.278404
0.0190123
0.75127
0.229872
-0.286311
-0.279419
0.430321
-0.173512
0.0665735
0.385093
0.273557
0.278358
-0.210455
-0.205233
0.688409
)
;

boundaryField
{
    FrontBack
    {
        type            empty;
    }
    Top
    {
        type            zeroGradient;
    }
    In
    {
        type            zeroGradient;
    }
    Bottom
    {
        type            zeroGradient;
    }
    Out
    {
        type            fixedValue;
        value           uniform 0;
    }
    circle
    {
        type            zeroGradient;
    }
}


// ************************************************************************* //
