/*--------------------------------*- C++ -*----------------------------------*\
| =========                 |                                                 |
| \\      /  F ield         | OpenFOAM: The Open Source CFD Toolbox           |
|  \\    /   O peration     | Version:  2412                                  |
|   \\  /    A nd           | Website:  www.openfoam.com                      |
|    \\/     M anipulation  |                                                 |
\*---------------------------------------------------------------------------*/
FoamFile
{
    version     2.0;
    format      ascii;
    arch        "LSB;label=32;scalar=64";
    class       volScalarField;
    location    "672.5";
    object      yPlus;
}
// * * * * * * * * * * * * * * * * * * * * * * * * * * * * * * * * * * * * * //

dimensions      [0 0 0 0 0 0 0];

internalField   uniform 0;

boundaryField
{
    FrontBack
    {
        type            empty;
    }
    Top
    {
        type            calculated;
        value           nonuniform List<scalar> 
15
(
142.2899392293741
133.5852931401936
138.0653051210789
144.4055970185902
159.7669540552376
131.3675429954511
140.1347086921631
135.3553043972185
153.4550704143701
135.7270178601686
136.0907696650501
136.7714845604094
125.2669611260675
132.9136624838599
123.955533209009
)
;
    }
    In
    {
        type            calculated;
        value           uniform 0;
    }
    Bottom
    {
        type            calculated;
        value           nonuniform List<scalar> 
15
(
155.5671880630361
158.1192507979338
141.0869769590087
142.0426456381227
141.1781286031874
148.4267132141116
142.7015434856282
143.1466955619818
143.4216766110083
134.0599801949381
125.7262881912919
141.5562747985931
122.4048176472917
123.4858938706911
124.1302929766978
)
;
    }
    Out
    {
        type            calculated;
        value           uniform 0;
    }
    circle
    {
        type            calculated;
        value           nonuniform List<scalar> 
32
(
56.07068086237159
22.07863312480706
65.26062864636671
24.92518441147592
19.87783863792231
56.18645963846316
56.64883981465765
23.78537325105319
22.27363614474754
65.50185997975763
39.84600731533956
62.95121039254121
50.56701927405582
16.79251558574264
23.0602206894904
17.93864912939025
39.25547636974228
59.76024086995914
61.02576412603904
24.62214847755882
65.75836162998266
63.79499154550572
63.05105061967561
59.90394893950559
64.12509256532407
45.95936476052955
66.42083628946096
32.06628366812808
37.98549984417902
55.73563795129338
21.05926608394917
43.1403430440867
)
;
    }
}


// ************************************************************************* //
