/*--------------------------------*- C++ -*----------------------------------*\
| =========                 |                                                 |
| \\      /  F ield         | OpenFOAM: The Open Source CFD Toolbox           |
|  \\    /   O peration     | Version:  2412                                  |
|   \\  /    A nd           | Website:  www.openfoam.com                      |
|    \\/     M anipulation  |                                                 |
\*---------------------------------------------------------------------------*/
FoamFile
{
    version     2.0;
    format      ascii;
    arch        "LSB;label=32;scalar=64";
    class       volVectorField;
    location    "0.2";
    object      cellDisplacement;
}
// * * * * * * * * * * * * * * * * * * * * * * * * * * * * * * * * * * * * * //

dimensions      [0 1 0 0 0 0 0];

internalField   nonuniform List<vector> 
256
(
(-0.000379058 0.00700659 0)
(-0.00141101 0.0067282 0)
(-0.00218748 0.00596738 0)
(-0.00263303 0.00502286 0)
(-0.00275212 0.0040389 0)
(-0.0024715 0.00297927 0)
(-0.00192364 0.00201124 0)
(-0.00106798 0.00101338 0)
(-0.00115187 0.0206639 0)
(-0.00403697 0.0198421 0)
(-0.00634503 0.0180369 0)
(-0.00779805 0.0155709 0)
(-0.00825255 0.0127038 0)
(-0.00786999 0.00992906 0)
(-0.00652684 0.00710735 0)
(-0.00445676 0.00437983 0)
(-0.00191917 0.0335514 0)
(-0.00646784 0.0323826 0)
(-0.01015 0.0296488 0)
(-0.012583 0.0259285 0)
(-0.0136854 0.0217597 0)
(-0.0133463 0.0173809 0)
(-0.01175 0.0131295 0)
(-0.00889197 0.00889696 0)
(-0.00268356 0.0457681 0)
(-0.00869193 0.0442171 0)
(-0.0136799 0.0408966 0)
(-0.0171657 0.0362904 0)
(-0.0189131 0.0309051 0)
(-0.0190087 0.0253944 0)
(-0.0173713 0.0198355 0)
(-0.0141921 0.0144027 0)
(-0.00346044 0.0573915 0)
(-0.0108064 0.0556135 0)
(-0.016985 0.0517504 0)
(-0.0214687 0.0464052 0)
(-0.0240889 0.0402625 0)
(-0.0246741 0.0336948 0)
(-0.0234045 0.0272087 0)
(-0.0202704 0.0207876 0)
(-0.00426243 0.0685022 0)
(-0.0127946 0.066445 0)
(-0.0201126 0.0622656 0)
(-0.0256495 0.0564557 0)
(-0.0290902 0.049575 0)
(-0.0304611 0.0423539 0)
(-0.0296882 0.0350327 0)
(-0.0269373 0.0278594 0)
(-0.00510424 0.079109 0)
(-0.0147428 0.0769225 0)
(-0.0231137 0.0724468 0)
(-0.0296309 0.0662311 0)
(-0.0340707 0.0589809 0)
(-0.0362211 0.0511342 0)
(-0.0362389 0.0432812 0)
(-0.0341454 0.0355272 0)
(-0.00600459 0.0893085 0)
(-0.0166362 0.0869384 0)
(-0.0260132 0.0823147 0)
(-0.0335623 0.0759122 0)
(-0.0389213 0.0682687 0)
(-0.0420779 0.0601142 0)
(-0.0429526 0.0517855 0)
(-0.041714 0.0435851 0)
(-0.00698345 0.0990728 0)
(-0.0185473 0.0966469 0)
(-0.0288673 0.0918981 0)
(-0.0373634 0.0853201 0)
(-0.0437951 0.077568 0)
(-0.047912 0.0690988 0)
(-0.0498468 0.0604955 0)
(-0.0496739 0.0520016 0)
(-0.00807447 0.108496 0)
(-0.0204683 0.105953 0)
(-0.0316785 0.101176 0)
(-0.04118 0.0945996 0)
(-0.0485819 0.0866995 0)
(-0.0538467 0.0781287 0)
(-0.056897 0.0693435 0)
(-0.0579312 0.0605957 0)
(-0.00930419 0.117492 0)
(-0.0224715 0.114945 0)
(-0.0345194 0.110176 0)
(-0.0449177 0.103591 0)
(-0.0534378 0.0957344 0)
(-0.0598075 0.0871456 0)
(-0.064159 0.0782207 0)
(-0.0665116 0.0693641 0)
(-0.0107365 0.126144 0)
(-0.0245699 0.123536 0)
(-0.0373769 0.118821 0)
(-0.0487224 0.112361 0)
(-0.0582506 0.104629 0)
(-0.065915 0.0960418 0)
(-0.0715701 0.0871366 0)
(-0.075439 0.0780553 0)
(-0.0124323 0.134304 0)
(-0.0268372 0.131693 0)
(-0.0403137 0.127095 0)
(-0.0524963 0.120822 0)
(-0.063145 0.113245 0)
(-0.072043 0.104818 0)
(-0.0792119 0.0958039 0)
(-0.0845975 0.0865783 0)
(-0.0144506 0.141905 0)
(-0.0292597 0.139272 0)
(-0.0433099 0.134819 0)
(-0.056294 0.12879 0)
(-0.0679949 0.121456 0)
(-0.078231 0.113122 0)
(-0.0869192 0.104064 0)
(-0.0940414 0.09453 0)
(-0.0168634 0.148519 0)
(-0.0318648 0.145872 0)
(-0.046307 0.141601 0)
(-0.059983 0.13583 0)
(-0.072675 0.128747 0)
(-0.084259 0.120506 0)
(-0.0945647 0.111359 0)
(-0.103571 0.101419 0)
(-0.0194717 0.153161 0)
(-0.0343904 0.150515 0)
(-0.0489778 0.146419 0)
(-0.0630935 0.140913 0)
(-0.0766016 0.134051 0)
(-0.089372 0.125897 0)
(-0.101282 0.116531 0)
(-0.112216 0.106042 0)
(-0.00103503 0.00102476 0)
(-0.00198532 0.001859 0)
(-0.00286441 0.00239477 0)
(-0.00384371 0.00269873 0)
(-0.00477205 0.00265886 0)
(-0.00567404 0.00230077 0)
(-0.00652077 0.00163512 0)
(-0.00697765 0.000692629 0)
(-0.00448789 0.00438451 0)
(-0.00700546 0.00636342 0)
(-0.00964007 0.00768839 0)
(-0.0121983 0.00815672 0)
(-0.0149071 0.00784774 0)
(-0.017419 0.00662815 0)
(-0.0194325 0.00455973 0)
(-0.020596 0.00184772 0)
(-0.00897948 0.00872427 0)
(-0.0129999 0.0115241 0)
(-0.0169527 0.0131191 0)
(-0.0210823 0.0135625 0)
(-0.0251237 0.0126902 0)
(-0.0288351 0.0105011 0)
(-0.0318702 0.00710165 0)
(-0.0335513 0.00277052 0)
(-0.0145505 0.014033 0)
(-0.0196608 0.017101 0)
(-0.0249296 0.0187502 0)
(-0.0301779 0.0187921 0)
(-0.0354137 0.0172414 0)
(-0.0401291 0.0140191 0)
(-0.0437679 0.00929975 0)
(-0.0458212 0.00349472 0)
(-0.0208979 0.0200354 0)
(-0.0270709 0.0231248 0)
(-0.033252 0.024404 0)
(-0.0395977 0.0239177 0)
(-0.0456741 0.0214897 0)
(-0.0510627 0.0171806 0)
(-0.0552614 0.0112135 0)
(-0.0575624 0.00405018 0)
(-0.0280505 0.0267186 0)
(-0.034931 0.0293731 0)
(-0.0420323 0.0301378 0)
(-0.0490826 0.0288389 0)
(-0.0558841 0.0254689 0)
(-0.0618405 0.020049 0)
(-0.0662957 0.0128635 0)
(-0.0687413 0.00445036 0)
(-0.0357284 0.0338262 0)
(-0.0433262 0.0358803 0)
(-0.0509975 0.0358 0)
(-0.0587447 0.0336076 0)
(-0.066005 0.0291683 0)
(-0.0722654 0.0226183 0)
(-0.076964 0.014276 0)
(-0.0794718 0.00470308 0)
(-0.04397 0.0413451 0)
(-0.0519975 0.0424471 0)
(-0.0602723 0.0414306 0)
(-0.0683881 0.0381417 0)
(-0.0760142 0.0325967 0)
(-0.0825166 0.0249114 0)
(-0.087238 0.015451 0)
(-0.0897315 0.00480848 0)
(-0.0525724 0.0490632 0)
(-0.0610616 0.049099 0)
(-0.0696332 0.0468928 0)
(-0.0781274 0.0424577 0)
(-0.0859184 0.0357277 0)
(-0.0924405 0.0269119 0)
(-0.0971753 0.0163847 0)
(-0.0995973 0.00475176 0)
(-0.0616085 0.0569757 0)
(-0.0703499 0.0556616 0)
(-0.0792384 0.0521966 0)
(-0.0878262 0.0464654 0)
(-0.095673 0.0385325 0)
(-0.102181 0.0285908 0)
(-0.106763 0.0170573 0)
(-0.109057 0.00450442 0)
(-0.0709994 0.064873 0)
(-0.0799752 0.062123 0)
(-0.0889544 0.0571805 0)
(-0.0975902 0.0501183 0)
(-0.105332 0.0409365 0)
(-0.111625 0.029906 0)
(-0.116022 0.0174153 0)
(-0.118139 0.00404177 0)
(-0.0807443 0.0726953 0)
(-0.0898839 0.0682308 0)
(-0.0988935 0.0617686 0)
(-0.107372 0.0532582 0)
(-0.114848 0.0428344 0)
(-0.120852 0.0307558 0)
(-0.124935 0.017405 0)
(-0.126823 0.00328955 0)
(-0.0908596 0.080098 0)
(-0.100088 0.073843 0)
(-0.108989 0.0656789 0)
(-0.117189 0.0556891 0)
(-0.124255 0.0440578 0)
(-0.129789 0.0310032 0)
(-0.13347 0.0168879 0)
(-0.135074 0.00218835 0)
(-0.101287 0.0867944 0)
(-0.110549 0.0785211 0)
(-0.119231 0.0685706 0)
(-0.126955 0.057132 0)
(-0.133421 0.0443329 0)
(-0.138356 0.0304154 0)
(-0.141524 0.0157275 0)
(-0.142763 0.000554868 0)
(-0.111924 0.092153 0)
(-0.121132 0.081674 0)
(-0.129353 0.0699514 0)
(-0.136382 0.0571309 0)
(-0.142057 0.0433197 0)
(-0.146218 0.0287538 0)
(-0.148732 0.0136791 0)
(-0.149526 -0.00162939 0)
(-0.12207 0.0945324 0)
(-0.130748 0.0821123 0)
(-0.138166 0.0689014 0)
(-0.144255 0.0550269 0)
(-0.148954 0.0406225 0)
(-0.152218 0.0258269 0)
(-0.154017 0.0107826 0)
(-0.154332 -0.00436561 0)
)
;

boundaryField
{
    walls
    {
        type            cellMotion;
        value           uniform (0 0 0);
    }
    cylinder
    {
        type            cellMotion;
        value           nonuniform List<vector> 
16
(
(-0.0194717 0.153161 0)
(-0.0343904 0.150515 0)
(-0.0489778 0.146419 0)
(-0.0630935 0.140913 0)
(-0.0766016 0.134051 0)
(-0.089372 0.125897 0)
(-0.101282 0.116531 0)
(-0.112216 0.106042 0)
(-0.12207 0.0945324 0)
(-0.130748 0.0821123 0)
(-0.138166 0.0689014 0)
(-0.144255 0.0550269 0)
(-0.148954 0.0406225 0)
(-0.152218 0.0258269 0)
(-0.154017 0.0107826 0)
(-0.154332 -0.00436561 0)
)
;
    }
    outlet
    {
        type            cellMotion;
        value           uniform (0 0 0);
    }
    inlet
    {
        type            cellMotion;
        value           nonuniform List<vector> 0();
    }
    frontAndBack
    {
        type            empty;
    }
    procBoundary3to1
    {
        type            processor;
        value           nonuniform List<vector> 
16
(
(0.000711779 0.00682726 0)
(0.00191033 0.0202085 0)
(0.00288824 0.0330515 0)
(0.00366413 0.0452377 0)
(0.00426908 0.0569423 0)
(0.00471233 0.0680917 0)
(0.00500085 0.0788227 0)
(0.00512878 0.089093 0)
(0.00508392 0.0989915 0)
(0.00484294 0.108495 0)
(0.00436805 0.117657 0)
(0.00359479 0.126425 0)
(0.00243872 0.13479 0)
(0.000722693 0.142592 0)
(-0.00156268 0.149463 0)
(-0.00436561 0.154332 0)
)
;
    }
    procBoundary3to2
    {
        type            processor;
        value           nonuniform List<vector> 
16
(
(-0.00700927 -0.000389497 0)
(-0.0206983 -0.00118801 0)
(-0.0337104 -0.00199476 0)
(-0.0460179 -0.00279952 0)
(-0.0577401 -0.00362036 0)
(-0.0688929 -0.00445499 0)
(-0.0795471 -0.00532792 0)
(-0.0897425 -0.00625067 0)
(-0.0995002 -0.00724855 0)
(-0.108867 -0.00833979 0)
(-0.117829 -0.00957909 0)
(-0.1264 -0.010987 0)
(-0.134507 -0.0126625 0)
(-0.142023 -0.0146017 0)
(-0.148559 -0.0169372 0)
(-0.153161 -0.0194717 0)
)
;
    }
}


// ************************************************************************* //
