/*--------------------------------*- C++ -*----------------------------------*\
| =========                 |                                                 |
| \\      /  F ield         | OpenFOAM: The Open Source CFD Toolbox           |
|  \\    /   O peration     | Version:  2412                                  |
|   \\  /    A nd           | Website:  www.openfoam.com                      |
|    \\/     M anipulation  |                                                 |
\*---------------------------------------------------------------------------*/
FoamFile
{
    version     2.0;
    format      ascii;
    arch        "LSB;label=32;scalar=64";
    class       surfaceScalarField;
    location    "0.2";
    object      meshPhi;
}
// * * * * * * * * * * * * * * * * * * * * * * * * * * * * * * * * * * * * * //

dimensions      [0 3 -1 0 0 0 0];

internalField   nonuniform List<scalar> 
480
(
0.00527581
0.00106278
0.00515866
0.00476796
0.00482677
0.00761272
0.0043824
0.00928885
0.00389855
0.00990849
0.00329328
0.00959561
0.0025234
0.00843429
0.00737816
0.00225688
0.0152057
0.00171239
0.0150331
0.00831357
0.0142436
0.0135177
0.0131071
0.0168271
0.0117975
0.0183545
0.010194
0.0182652
0.00811716
0.0166466
0.0148473
0.00734862
0.0240877
0.00201804
0.0240639
0.0108075
0.0231586
0.0178938
0.0217259
0.022748
0.0199606
0.0254291
0.0177035
0.025942
0.0147587
0.0242832
0.0220681
0.0136246
0.0321562
0.00211239
0.0323293
0.0124608
0.0315635
0.0210113
0.0301564
0.0272136
0.0282581
0.0310046
0.025698
0.032291
0.0223018
0.0309674
0.0287863
0.0211276
0.0396129
0.00204538
0.0399639
0.0134192
0.0394782
0.0229956
0.0383066
0.0302684
0.03653
0.0350849
0.0340315
0.037213
0.0306442
0.0364802
0.0346365
0.0297612
0.0465376
0.00187891
0.0470303
0.0137997
0.0468867
0.0240007
0.0460944
0.032027
0.0446936
0.0376518
0.0426031
0.0405728
0.039613
0.0405366
0.0391701
0.0392264
0.0529695
0.00165198
0.0535973
0.0136981
0.0538284
0.0241327
0.0535448
0.0325998
0.0527558
0.0388258
0.051325
0.0423862
0.0488444
0.0428957
0.0419099
0.0490155
0.0589695
0.00135739
0.0597412
0.0131372
0.060386
0.0234749
0.0607467
0.0320845
0.0607178
0.0386284
0.0599421
0.0425464
0.0579952
0.0434783
0.0429857
0.0588571
0.0646084
0.00105394
0.0655475
0.0121871
0.0666657
0.0220956
0.0677258
0.0305548
0.0683462
0.0371293
0.0681944
0.0412071
0.0670641
0.0425926
0.042683
0.0688631
0.0699492
0.000733293
0.0710952
0.0108813
0.0727051
0.0200571
0.0743128
0.0281008
0.0755458
0.0345028
0.076247
0.0386971
0.0763555
0.0405654
0.0412931
0.0795257
0.0750076
0.000460879
0.0764056
0.00936155
0.0783719
0.0175842
0.0804909
0.0249612
0.082567
0.0309844
0.0845282
0.0351895
0.0864925
0.0375046
0.0388145
0.0914341
0.0798203
0.000435712
0.0814214
0.00794454
0.0837413
0.0149263
0.0865717
0.0212972
0.0898105
0.0266387
0.0935238
0.0306124
0.0977336
0.0331005
0.0347421
0.104398
0.0843326
0.000548556
0.0861807
0.00646722
0.0890598
0.0119991
0.0928394
0.0170576
0.0975751
0.0214076
0.10324
0.0247641
0.109513
0.0271025
0.0288752
0.117716
0.088559
0.000897615
0.0907794
0.00489509
0.0943802
0.00872214
0.099346
0.0122138
0.10563
0.0152422
0.113019
0.0177142
0.121103
0.0195763
0.0211674
0.130724
0.092283
0.00138047
0.0949635
0.00328148
0.099379
0.00510021
0.105472
0.00680363
0.113045
0.00833911
0.121871
0.00967974
0.131577
0.010794
0.0117968
0.142555
0.0942242
0.0974875
0.10262
0.109469
0.117822
0.127425
0.137961
0.149343
0.00262207
-0.00478374
0.00327837
-0.00665968
0.00381729
-0.00852488
0.004189
-0.00941217
0.00457268
-0.00931251
0.00494549
-0.00825671
0.00508327
-0.00617102
-0.00307324
0.0082611
-0.0103789
0.0101718
-0.0134876
0.0115859
-0.0165053
0.0126688
-0.0177307
0.0136661
-0.0172403
0.0145187
-0.0149593
0.0147498
-0.0109042
-0.00527578
0.0148728
-0.0166774
0.0176843
-0.0203923
0.0197138
-0.0238863
0.0212559
-0.0250355
0.0225012
-0.0237771
0.0234336
-0.0201889
0.0235208
-0.0144329
-0.00681099
0.0224627
-0.0231599
0.0257688
-0.0269685
0.0281274
-0.0304076
0.0298097
-0.0310829
0.0309905
-0.0289446
0.0317202
-0.0240973
0.0315707
-0.016879
-0.00775877
0.0308827
-0.0294364
0.0342983
-0.0329386
0.0366662
-0.0359086
0.0382296
-0.0359206
0.0391307
-0.0328214
0.0394977
-0.0268601
0.0390882
-0.0185181
-0.0083356
0.0398633
-0.0348719
0.0430595
-0.0378409
0.0451704
-0.04014
0.0464026
-0.0393568
0.0468978
-0.0354119
0.0468347
-0.0285788
0.0461555
-0.0194084
-0.00855939
0.0490306
-0.038953
0.0518218
-0.0413705
0.0535058
-0.0429431
0.0542822
-0.0414558
0.0542909
-0.0368022
0.0537657
-0.0293381
0.0528223
-0.0197033
-0.0085538
0.0581731
-0.0414732
0.0603923
-0.0432886
0.0615778
-0.0441862
0.0618272
-0.0421197
0.061306
-0.0370064
0.060311
-0.0292205
0.0591149
-0.0194288
-0.00832012
0.0673769
-0.0424696
0.0688311
-0.0437328
0.0693545
-0.0439357
0.0690093
-0.0414238
0.0679303
-0.0360676
0.0664805
-0.0282413
0.065045
-0.0186213
-0.00787476
0.0771408
-0.0421914
0.0774308
-0.0427794
0.0769927
-0.0422231
0.0758526
-0.0393382
0.074169
-0.0339891
0.072293
-0.0264461
0.070623
-0.0173084
-0.00722282
0.0877603
-0.0404382
0.0864049
-0.0402462
0.0846246
-0.0389745
0.0824646
-0.0358634
0.0800662
-0.0307474
0.0777457
-0.0238113
0.0758425
-0.0154739
-0.00635798
0.0990746
-0.0367166
0.0957856
-0.0358947
0.0924013
-0.0340998
0.0890018
-0.0309498
0.0857592
-0.0263441
0.0829259
-0.0203154
0.0807741
-0.0131315
-0.00529399
0.11068
-0.0306695
0.10538
-0.0295081
0.100267
-0.0275028
0.0954784
-0.024637
0.0912435
-0.0207793
0.0877722
-0.0158719
0.0853363
-0.0101638
-0.00401016
0.121975
-0.0221605
0.11465
-0.0209329
0.107807
-0.0190938
0.101583
-0.0168815
0.0962276
-0.0139873
0.0920932
-0.0104249
0.0893741
-0.00647207
-0.0023362
0.13215
-0.0112164
0.122749
-0.0102139
0.114197
-0.00897253
0.106617
-0.00763964
0.100302
-0.00605137
0.095603
-0.00422168
0.0926652
-0.00229585
-0.00033337
0.137295
0.126212
0.116388
0.108017
0.101329
0.0965247
0.0937287
)
;

boundaryField
{
    walls
    {
        type            calculated;
        value           uniform 0;
    }
    cylinder
    {
        type            calculated;
        value           nonuniform List<scalar> 
16
(
2.08407e-11
-2.55895e-11
-8.48939e-12
1.54423e-11
-4.34913e-11
3.15057e-11
4.87881e-11
-2.46991e-11
2.46986e-11
-4.87869e-11
-3.15045e-11
4.34906e-11
-1.54429e-11
8.48888e-12
2.55902e-11
-2.08398e-11
)
;
    }
    outlet
    {
        type            calculated;
        value           uniform 0;
    }
    inlet
    {
        type            calculated;
        value           nonuniform List<scalar> 0();
    }
    frontAndBack
    {
        type            empty;
    }
    procBoundary3to1
    {
        type            processor;
        value           nonuniform List<scalar> 
16
(
-0.0048213
-0.0140973
-0.0227608
-0.0308833
-0.0385078
-0.0456379
-0.0522685
-0.058429
-0.0641611
-0.0695373
-0.07457
-0.0793217
-0.0837871
-0.0879089
-0.0914289
-0.0929383
)
;
    }
    procBoundary3to2
    {
        type            processor;
        value           nonuniform List<scalar> 
16
(
0.00478294
0.0139863
0.0225828
0.0306347
0.038195
0.0453075
0.0519876
0.0582533
0.0641229
0.0696466
0.0748232
0.0796939
0.08422
0.0882674
0.0915991
0.0929717
)
;
    }
}


// ************************************************************************* //
