/*--------------------------------*- C++ -*----------------------------------*\
| =========                 |                                                 |
| \\      /  F ield         | OpenFOAM: The Open Source CFD Toolbox           |
|  \\    /   O peration     | Version:  2412                                  |
|   \\  /    A nd           | Website:  www.openfoam.com                      |
|    \\/     M anipulation  |                                                 |
\*---------------------------------------------------------------------------*/
FoamFile
{
    version     2.0;
    format      ascii;
    arch        "LSB;label=32;scalar=64";
    class       pointVectorField;
    location    "0.2";
    object      pointDisplacement;
}
// * * * * * * * * * * * * * * * * * * * * * * * * * * * * * * * * * * * * * //

dimensions      [0 1 0 0 0 0 0];

internalField   nonuniform List<vector> 
578
(
(0 0 0)
(0 0 0)
(0 0 0)
(0 0 0)
(0 0 0)
(0 0 0)
(0 0 0)
(0 0 0)
(0 0 0)
(0.000275233 0.0136949 0)
(-0.00174744 0.0135794 0)
(-0.00350241 0.0126611 0)
(-0.00475093 0.0111629 0)
(-0.00536879 0.0093416 0)
(-0.00534488 0.00741598 0)
(-0.00470072 0.00550372 0)
(-0.00349044 0.00362062 0)
(-0.00269327 0.00263315 0)
(0.000433705 0.0268857 0)
(-0.00339626 0.0266274 0)
(-0.00675592 0.0249938 0)
(-0.00922751 0.0223098 0)
(-0.0105898 0.0190013 0)
(-0.0107973 0.0154489 0)
(-0.00988075 0.0118894 0)
(-0.00790929 0.00837682 0)
(-0.00661949 0.00651263 0)
(0.000488604 0.0394175 0)
(-0.0049426 0.0389954 0)
(-0.00975238 0.0368014 0)
(-0.0134021 0.0332049 0)
(-0.0155956 0.028732 0)
(-0.0162486 0.0238692 0)
(-0.0153781 0.0189405 0)
(-0.0130595 0.01407 0)
(-0.0115568 0.0114183 0)
(0.000447929 0.0513489 0)
(-0.0064124 0.0507616 0)
(-0.0125449 0.0481332 0)
(-0.017331 0.0438488 0)
(-0.0204176 0.0384784 0)
(-0.0216807 0.0325743 0)
(-0.0211259 0.0265425 0)
(-0.0188211 0.0205664 0)
(-0.0173746 0.0172125 0)
(0.000314769 0.0627445 0)
(-0.00783261 0.0620006 0)
(-0.015178 0.0590313 0)
(-0.0210593 0.0542321 0)
(-0.0250814 0.0481868 0)
(-0.0270883 0.0414837 0)
(-0.0270681 0.034583 0)
(-0.0250886 0.0277329 0)
(-0.0239326 0.0237455 0)
(8.63475e-05 0.0736428 0)
(-0.00922754 0.072756 0)
(-0.0176937 0.0695315 0)
(-0.0246309 0.0643617 0)
(-0.0296169 0.0578234 0)
(-0.0324692 0.0505231 0)
(-0.0331638 0.0429629 0)
(-0.0317667 0.0354379 0)
(-0.03111 0.03088 0)
(-0.000245412 0.0840934 0)
(-0.0106233 0.0830796 0)
(-0.0201287 0.0796661 0)
(-0.0280835 0.0742376 0)
(-0.0340514 0.06736 0)
(-0.0378307 0.0596373 0)
(-0.039383 0.0515913 0)
(-0.0387765 0.0435586 0)
(-0.0387874 0.0384729 0)
(-0.000694719 0.0941255 0)
(-0.0120441 0.0930006 0)
(-0.0225176 0.089459 0)
(-0.0314541 0.0838716 0)
(-0.0384149 0.0767789 0)
(-0.0431829 0.0687746 0)
(-0.0457069 0.0603865 0)
(-0.0460597 0.0519814 0)
(-0.0468864 0.0464084 0)
(-0.00128386 0.103772 0)
(-0.0135194 0.10255 0)
(-0.0248915 0.0989269 0)
(-0.0347741 0.0932581 0)
(-0.0427331 0.0860575 0)
(-0.0485393 0.0778858 0)
(-0.0521336 0.0692794 0)
(-0.0535984 0.0606232 0)
(-0.0553575 0.0545781 0)
(-0.0020432 0.113042 0)
(-0.0150805 0.111728 0)
(-0.0272851 0.10807 0)
(-0.0380748 0.102394 0)
(-0.0470315 0.0951662 0)
(-0.0539223 0.0869383 0)
(-0.0586841 0.0782217 0)
(-0.0613839 0.0693949 0)
(-0.0641824 0.0628823 0)
(-0.00302092 0.121935 0)
(-0.0167713 0.120535 0)
(-0.0297346 0.116876 0)
(-0.0413843 0.111245 0)
(-0.0513329 0.104088 0)
(-0.0593553 0.0958979 0)
(-0.0653673 0.0871477 0)
(-0.0694269 0.0782068 0)
(-0.0733532 0.0711895 0)
(-0.00428548 0.130421 0)
(-0.0186446 0.128924 0)
(-0.0322741 0.125292 0)
(-0.0447266 0.119781 0)
(-0.0556533 0.112772 0)
(-0.0648391 0.104693 0)
(-0.0721875 0.0959602 0)
(-0.0777087 0.0869053 0)
(-0.082851 0.0793132 0)
(-0.00593239 0.138402 0)
(-0.0207455 0.136797 0)
(-0.0349295 0.133224 0)
(-0.0481021 0.127887 0)
(-0.0599811 0.121085 0)
(-0.0703526 0.113168 0)
(-0.0791013 0.104461 0)
(-0.0861938 0.0952546 0)
(-0.09265 0.086971 0)
(-0.00804095 0.145623 0)
(-0.0231104 0.143895 0)
(-0.0376846 0.140395 0)
(-0.0514716 0.135265 0)
(-0.0642342 0.128711 0)
(-0.0757873 0.120965 0)
(-0.085991 0.112271 0)
(-0.0947719 0.102852 0)
(-0.102674 0.0937091 0)
(-0.010569 0.151371 0)
(-0.0256487 0.149519 0)
(-0.0403844 0.146104 0)
(-0.0545883 0.141194 0)
(-0.0680853 0.134889 0)
(-0.0807232 0.127305 0)
(-0.0923652 0.11858 0)
(-0.102904 0.108846 0)
(-0.112432 0.0985339 0)
(-0.0119474 0.154117 0)
(-0.026996 0.152204 0)
(-0.0417847 0.148825 0)
(-0.0561709 0.144013 0)
(-0.0700161 0.137814 0)
(-0.0831871 0.130287 0)
(-0.0955569 0.121506 0)
(-0.107006 0.111555 0)
(-0.117426 0.100529 0)
(0 0 0)
(0 0 0)
(0 0 0)
(0 0 0)
(0 0 0)
(0 0 0)
(0 0 0)
(0 0 0)
(0 0 0)
(0.000275233 0.0136949 0)
(-0.00174744 0.0135794 0)
(-0.00350241 0.0126611 0)
(-0.00475093 0.0111629 0)
(-0.00536879 0.0093416 0)
(-0.00534488 0.00741598 0)
(-0.00470072 0.00550372 0)
(-0.00349044 0.00362062 0)
(-0.00269327 0.00263315 0)
(0.000433705 0.0268857 0)
(-0.00339626 0.0266274 0)
(-0.00675592 0.0249938 0)
(-0.00922751 0.0223098 0)
(-0.0105898 0.0190013 0)
(-0.0107973 0.0154489 0)
(-0.00988075 0.0118894 0)
(-0.00790929 0.00837682 0)
(-0.00661949 0.00651263 0)
(0.000488604 0.0394175 0)
(-0.0049426 0.0389954 0)
(-0.00975238 0.0368014 0)
(-0.0134021 0.0332049 0)
(-0.0155956 0.028732 0)
(-0.0162486 0.0238692 0)
(-0.0153781 0.0189405 0)
(-0.0130595 0.01407 0)
(-0.0115568 0.0114183 0)
(0.000447929 0.0513489 0)
(-0.0064124 0.0507616 0)
(-0.0125449 0.0481332 0)
(-0.017331 0.0438488 0)
(-0.0204176 0.0384784 0)
(-0.0216807 0.0325743 0)
(-0.0211259 0.0265425 0)
(-0.0188211 0.0205664 0)
(-0.0173746 0.0172125 0)
(0.000314769 0.0627445 0)
(-0.00783261 0.0620006 0)
(-0.015178 0.0590313 0)
(-0.0210593 0.0542321 0)
(-0.0250814 0.0481868 0)
(-0.0270883 0.0414837 0)
(-0.0270681 0.034583 0)
(-0.0250886 0.0277329 0)
(-0.0239326 0.0237455 0)
(8.63475e-05 0.0736428 0)
(-0.00922754 0.072756 0)
(-0.0176937 0.0695315 0)
(-0.0246309 0.0643617 0)
(-0.0296169 0.0578234 0)
(-0.0324692 0.0505231 0)
(-0.0331638 0.0429629 0)
(-0.0317667 0.0354379 0)
(-0.03111 0.03088 0)
(-0.000245412 0.0840934 0)
(-0.0106233 0.0830796 0)
(-0.0201287 0.0796661 0)
(-0.0280835 0.0742376 0)
(-0.0340514 0.06736 0)
(-0.0378307 0.0596373 0)
(-0.039383 0.0515913 0)
(-0.0387765 0.0435586 0)
(-0.0387874 0.0384729 0)
(-0.000694719 0.0941255 0)
(-0.0120441 0.0930006 0)
(-0.0225176 0.089459 0)
(-0.0314541 0.0838716 0)
(-0.0384149 0.0767789 0)
(-0.0431829 0.0687746 0)
(-0.0457069 0.0603865 0)
(-0.0460597 0.0519814 0)
(-0.0468864 0.0464084 0)
(-0.00128386 0.103772 0)
(-0.0135194 0.10255 0)
(-0.0248915 0.0989269 0)
(-0.0347741 0.0932581 0)
(-0.0427331 0.0860575 0)
(-0.0485393 0.0778858 0)
(-0.0521336 0.0692794 0)
(-0.0535984 0.0606232 0)
(-0.0553575 0.0545781 0)
(-0.0020432 0.113042 0)
(-0.0150805 0.111728 0)
(-0.0272851 0.10807 0)
(-0.0380748 0.102394 0)
(-0.0470315 0.0951662 0)
(-0.0539223 0.0869383 0)
(-0.0586841 0.0782217 0)
(-0.0613839 0.0693949 0)
(-0.0641824 0.0628823 0)
(-0.00302092 0.121935 0)
(-0.0167713 0.120535 0)
(-0.0297346 0.116876 0)
(-0.0413843 0.111245 0)
(-0.0513329 0.104088 0)
(-0.0593553 0.0958979 0)
(-0.0653673 0.0871477 0)
(-0.0694269 0.0782068 0)
(-0.0733532 0.0711895 0)
(-0.00428548 0.130421 0)
(-0.0186446 0.128924 0)
(-0.0322741 0.125292 0)
(-0.0447266 0.119781 0)
(-0.0556533 0.112772 0)
(-0.0648391 0.104693 0)
(-0.0721875 0.0959602 0)
(-0.0777087 0.0869053 0)
(-0.082851 0.0793132 0)
(-0.00593239 0.138402 0)
(-0.0207455 0.136797 0)
(-0.0349295 0.133224 0)
(-0.0481021 0.127887 0)
(-0.0599811 0.121085 0)
(-0.0703526 0.113168 0)
(-0.0791013 0.104461 0)
(-0.0861938 0.0952546 0)
(-0.09265 0.086971 0)
(-0.00804095 0.145623 0)
(-0.0231104 0.143895 0)
(-0.0376846 0.140395 0)
(-0.0514716 0.135265 0)
(-0.0642342 0.128711 0)
(-0.0757873 0.120965 0)
(-0.085991 0.112271 0)
(-0.0947719 0.102852 0)
(-0.102674 0.0937091 0)
(-0.010569 0.151371 0)
(-0.0256487 0.149519 0)
(-0.0403844 0.146104 0)
(-0.0545883 0.141194 0)
(-0.0680853 0.134889 0)
(-0.0807232 0.127305 0)
(-0.0923652 0.11858 0)
(-0.102904 0.108846 0)
(-0.112432 0.0985339 0)
(-0.0119474 0.154117 0)
(-0.026996 0.152204 0)
(-0.0417847 0.148825 0)
(-0.0561709 0.144013 0)
(-0.0700161 0.137814 0)
(-0.0831871 0.130287 0)
(-0.0955569 0.121506 0)
(-0.107006 0.111555 0)
(-0.117426 0.100529 0)
(0 0 0)
(0 0 0)
(0 0 0)
(0 0 0)
(0 0 0)
(0 0 0)
(0 0 0)
(0 0 0)
(-0.00362035 0.00340331 0)
(-0.005368 0.00457691 0)
(-0.00713603 0.00524073 0)
(-0.00893217 0.00534893 0)
(-0.0106998 0.00486891 0)
(-0.0122735 0.00379045 0)
(-0.0133977 0.00219054 0)
(-0.0138391 0.000243097 0)
(-0.00836335 0.00774937 0)
(-0.0116495 0.00967931 0)
(-0.0149693 0.0106389 0)
(-0.0183334 0.0105736 0)
(-0.02158 0.00942611 0)
(-0.0244011 0.00720564 0)
(-0.0263777 0.00407532 0)
(-0.0271561 0.000360615 0)
(-0.0140485 0.0128519 0)
(-0.0186374 0.015131 0)
(-0.0232909 0.0160653 0)
(-0.0279562 0.0155806 0)
(-0.0323851 0.0136214 0)
(-0.0361633 0.0102372 0)
(-0.0387669 0.00567082 0)
(-0.0397906 0.000368861 0)
(-0.0205475 0.0185823 0)
(-0.0262342 0.0208553 0)
(-0.0319955 0.0214753 0)
(-0.0377249 0.0203693 0)
(-0.0430808 0.0174901 0)
(-0.0475673 0.0129336 0)
(-0.0506166 0.00701759 0)
(-0.0517994 0.000281807 0)
(-0.0277439 0.0248251 0)
(-0.0343283 0.0267706 0)
(-0.0410002 0.0268346 0)
(-0.0475693 0.024937 0)
(-0.0536263 0.0210534 0)
(-0.0586273 0.0153309 0)
(-0.0619776 0.00814643 0)
(-0.0632467 0.000106362 0)
(-0.0355159 0.0314622 0)
(-0.0428313 0.0328096 0)
(-0.0502236 0.0321054 0)
(-0.05744 0.0292784 0)
(-0.0640102 0.0243314 0)
(-0.0693528 0.0174547 0)
(-0.0728797 0.00907441 0)
(-0.0741746 -0.000157706 0)
(-0.0437648 0.0383886 0)
(-0.051658 0.0389004 0)
(-0.0596117 0.037254 0)
(-0.0672989 0.0333849 0)
(-0.0742114 0.0273277 0)
(-0.0797572 0.0193162 0)
(-0.0833618 0.00981006 0)
(-0.0846333 -0.00051741 0)
(-0.0524097 0.0455016 0)
(-0.0607526 0.0449781 0)
(-0.0691161 0.0422384 0)
(-0.0771234 0.0372362 0)
(-0.0842336 0.0300398 0)
(-0.0898528 0.0209158 0)
(-0.093445 0.0103487 0)
(-0.0946519 -0.000985652 0)
(-0.0614087 0.0527126 0)
(-0.0700819 0.0509717 0)
(-0.0787181 0.0470098 0)
(-0.0868974 0.0407997 0)
(-0.0940636 0.0324424 0)
(-0.0996495 0.0222362 0)
(-0.103157 0.0106737 0)
(-0.104263 -0.00158415 0)
(-0.0707439 0.0599191 0)
(-0.0796414 0.0567985 0)
(-0.0884138 0.0514951 0)
(-0.0966165 0.0440156 0)
(-0.103713 0.0344918 0)
(-0.109156 0.0232415 0)
(-0.112503 0.0107533 0)
(-0.11348 -0.00234443 0)
(-0.0804115 0.0669898 0)
(-0.0894385 0.0623315 0)
(-0.098214 0.0555847 0)
(-0.106296 0.0467877 0)
(-0.113174 0.0361073 0)
(-0.118366 0.0238687 0)
(-0.121487 0.010536 0)
(-0.122304 -0.00331012 0)
(-0.0904047 0.0737232 0)
(-0.0994754 0.0673841 0)
(-0.108122 0.0590999 0)
(-0.115926 0.0489589 0)
(-0.122445 0.0371605 0)
(-0.127269 0.0240102 0)
(-0.130082 0.0099402 0)
(-0.130706 -0.0045445 0)
(-0.100706 0.0798176 0)
(-0.109726 0.0716543 0)
(-0.118102 0.0617663 0)
(-0.125465 0.0503001 0)
(-0.131463 0.0374485 0)
(-0.135791 0.0235046 0)
(-0.138213 0.00883655 0)
(-0.138596 -0.00613222 0)
(-0.111233 0.0847854 0)
(-0.120077 0.0746767 0)
(-0.127991 0.063192 0)
(-0.134713 0.0504736 0)
(-0.14002 0.0366998 0)
(-0.143713 0.0221388 0)
(-0.14564 0.00707899 0)
(-0.145721 -0.00815572 0)
(-0.121481 0.0876117 0)
(-0.129862 0.0756521 0)
(-0.137049 0.0627442 0)
(-0.14292 0.0490164 0)
(-0.147368 0.0346227 0)
(-0.1503 0.0197538 0)
(-0.151654 0.00461163 0)
(-0.151396 -0.0106041 0)
(-0.126714 0.0885355 0)
(-0.134781 0.075689 0)
(-0.141551 0.0621137 0)
(-0.146958 0.0479401 0)
(-0.150949 0.0333049 0)
(-0.153487 0.0183489 0)
(-0.154546 0.00321623 0)
(-0.154117 -0.0119474 0)
(0 0 0)
(0 0 0)
(0 0 0)
(0 0 0)
(0 0 0)
(0 0 0)
(0 0 0)
(0 0 0)
(-0.00362035 0.00340331 0)
(-0.005368 0.00457691 0)
(-0.00713603 0.00524073 0)
(-0.00893217 0.00534893 0)
(-0.0106998 0.00486891 0)
(-0.0122735 0.00379045 0)
(-0.0133977 0.00219054 0)
(-0.0138391 0.000243097 0)
(-0.00836335 0.00774937 0)
(-0.0116495 0.00967931 0)
(-0.0149693 0.0106389 0)
(-0.0183334 0.0105736 0)
(-0.02158 0.00942611 0)
(-0.0244011 0.00720564 0)
(-0.0263777 0.00407532 0)
(-0.0271561 0.000360615 0)
(-0.0140485 0.0128519 0)
(-0.0186374 0.015131 0)
(-0.0232909 0.0160653 0)
(-0.0279562 0.0155806 0)
(-0.0323851 0.0136214 0)
(-0.0361633 0.0102372 0)
(-0.0387669 0.00567082 0)
(-0.0397906 0.000368861 0)
(-0.0205475 0.0185823 0)
(-0.0262342 0.0208553 0)
(-0.0319955 0.0214753 0)
(-0.0377249 0.0203693 0)
(-0.0430808 0.0174901 0)
(-0.0475673 0.0129336 0)
(-0.0506166 0.00701759 0)
(-0.0517994 0.000281807 0)
(-0.0277439 0.0248251 0)
(-0.0343283 0.0267706 0)
(-0.0410002 0.0268346 0)
(-0.0475693 0.024937 0)
(-0.0536263 0.0210534 0)
(-0.0586273 0.0153309 0)
(-0.0619776 0.00814643 0)
(-0.0632467 0.000106362 0)
(-0.0355159 0.0314622 0)
(-0.0428313 0.0328096 0)
(-0.0502236 0.0321054 0)
(-0.05744 0.0292784 0)
(-0.0640102 0.0243314 0)
(-0.0693528 0.0174547 0)
(-0.0728797 0.00907441 0)
(-0.0741746 -0.000157706 0)
(-0.0437648 0.0383886 0)
(-0.051658 0.0389004 0)
(-0.0596117 0.037254 0)
(-0.0672989 0.0333849 0)
(-0.0742114 0.0273277 0)
(-0.0797572 0.0193162 0)
(-0.0833618 0.00981006 0)
(-0.0846333 -0.00051741 0)
(-0.0524097 0.0455016 0)
(-0.0607526 0.0449781 0)
(-0.0691161 0.0422384 0)
(-0.0771234 0.0372362 0)
(-0.0842336 0.0300398 0)
(-0.0898528 0.0209158 0)
(-0.093445 0.0103487 0)
(-0.0946519 -0.000985652 0)
(-0.0614087 0.0527126 0)
(-0.0700819 0.0509717 0)
(-0.0787181 0.0470098 0)
(-0.0868974 0.0407997 0)
(-0.0940636 0.0324424 0)
(-0.0996495 0.0222362 0)
(-0.103157 0.0106737 0)
(-0.104263 -0.00158415 0)
(-0.0707439 0.0599191 0)
(-0.0796414 0.0567985 0)
(-0.0884138 0.0514951 0)
(-0.0966165 0.0440156 0)
(-0.103713 0.0344918 0)
(-0.109156 0.0232415 0)
(-0.112503 0.0107533 0)
(-0.11348 -0.00234443 0)
(-0.0804115 0.0669898 0)
(-0.0894385 0.0623315 0)
(-0.098214 0.0555847 0)
(-0.106296 0.0467877 0)
(-0.113174 0.0361073 0)
(-0.118366 0.0238687 0)
(-0.121487 0.010536 0)
(-0.122304 -0.00331012 0)
(-0.0904047 0.0737232 0)
(-0.0994754 0.0673841 0)
(-0.108122 0.0590999 0)
(-0.115926 0.0489589 0)
(-0.122445 0.0371605 0)
(-0.127269 0.0240102 0)
(-0.130082 0.0099402 0)
(-0.130706 -0.0045445 0)
(-0.100706 0.0798176 0)
(-0.109726 0.0716543 0)
(-0.118102 0.0617663 0)
(-0.125465 0.0503001 0)
(-0.131463 0.0374485 0)
(-0.135791 0.0235046 0)
(-0.138213 0.00883655 0)
(-0.138596 -0.00613222 0)
(-0.111233 0.0847854 0)
(-0.120077 0.0746767 0)
(-0.127991 0.063192 0)
(-0.134713 0.0504736 0)
(-0.14002 0.0366998 0)
(-0.143713 0.0221388 0)
(-0.14564 0.00707899 0)
(-0.145721 -0.00815572 0)
(-0.121481 0.0876117 0)
(-0.129862 0.0756521 0)
(-0.137049 0.0627442 0)
(-0.14292 0.0490164 0)
(-0.147368 0.0346227 0)
(-0.1503 0.0197538 0)
(-0.151654 0.00461163 0)
(-0.151396 -0.0106041 0)
(-0.126714 0.0885355 0)
(-0.134781 0.075689 0)
(-0.141551 0.0621137 0)
(-0.146958 0.0479401 0)
(-0.150949 0.0333049 0)
(-0.153487 0.0183489 0)
(-0.154546 0.00321623 0)
(-0.154117 -0.0119474 0)
)
;

boundaryField
{
    walls
    {
        type            fixedValue;
        value           uniform (0 0 0);
    }
    cylinder
    {
        type            solidBodyMotionDisplacement;
        value           nonuniform List<vector> 
34
(
(-0.0119474 0.154117 0)
(-0.0119474 0.154117 0)
(-0.026996 0.152204 0)
(-0.026996 0.152204 0)
(-0.0417847 0.148825 0)
(-0.0417847 0.148825 0)
(-0.0561709 0.144013 0)
(-0.0561709 0.144013 0)
(-0.0700161 0.137814 0)
(-0.0700161 0.137814 0)
(-0.0831871 0.130287 0)
(-0.0831871 0.130287 0)
(-0.0955569 0.121506 0)
(-0.0955569 0.121506 0)
(-0.107006 0.111555 0)
(-0.107006 0.111555 0)
(-0.117426 0.100529 0)
(-0.117426 0.100529 0)
(-0.126714 0.0885355 0)
(-0.126714 0.0885355 0)
(-0.134781 0.075689 0)
(-0.134781 0.075689 0)
(-0.141551 0.0621137 0)
(-0.141551 0.0621137 0)
(-0.146958 0.0479401 0)
(-0.146958 0.0479401 0)
(-0.150949 0.0333049 0)
(-0.150949 0.0333049 0)
(-0.153487 0.0183489 0)
(-0.153487 0.0183489 0)
(-0.154546 0.00321623 0)
(-0.154546 0.00321623 0)
(-0.154117 -0.0119474 0)
(-0.154117 -0.0119474 0)
)
;
        solidBodyMotionFunction oscillatingRotatingMotion;
        oscillatingRotatingMotionCoeffs
        {
            origin          ( 0 0 0 );
            axis            ( 0 0 1 );
            omega           1.5;
            amplitude       ( 0 0 30 );
        }
    }
    outlet
    {
        type            fixedValue;
        value           uniform (0 0 0);
    }
    inlet
    {
        type            fixedValue;
        value           nonuniform List<vector> 0();
    }
    frontAndBack
    {
        type            empty;
    }
    procBoundary3to1
    {
        type            processor;
    }
    procBoundary3to2
    {
        type            processor;
    }
}


// ************************************************************************* //
