/*--------------------------------*- C++ -*----------------------------------*\
| =========                 |                                                 |
| \\      /  F ield         | OpenFOAM: The Open Source CFD Toolbox           |
|  \\    /   O peration     | Version:  2412                                  |
|   \\  /    A nd           | Website:  www.openfoam.com                      |
|    \\/     M anipulation  |                                                 |
\*---------------------------------------------------------------------------*/
FoamFile
{
    version     2.0;
    format      ascii;
    arch        "LSB;label=32;scalar=64";
    class       volVectorField;
    location    "0.3";
    object      cellDisplacement;
}
// * * * * * * * * * * * * * * * * * * * * * * * * * * * * * * * * * * * * * //

dimensions      [0 1 0 0 0 0 0];

internalField   nonuniform List<vector> 
256
(
(0.0103038 0.000237898 0)
(0.00997493 0.00178347 0)
(0.00894695 0.00299151 0)
(0.0076462 0.00374113 0)
(0.0060986 0.00389948 0)
(0.00445496 0.00346599 0)
(0.00293341 0.00262441 0)
(0.00143471 0.00140331 0)
(0.0304199 0.000860497 0)
(0.0294486 0.00517494 0)
(0.0269791 0.00870907 0)
(0.0233802 0.0109624 0)
(0.01917 0.0117062 0)
(0.0148108 0.0110231 0)
(0.010466 0.00900334 0)
(0.00630332 0.00597834 0)
(0.0494054 0.00160879 0)
(0.047976 0.00837331 0)
(0.0441996 0.0139437 0)
(0.0389087 0.0177227 0)
(0.0326357 0.0193358 0)
(0.0259387 0.0187405 0)
(0.0193683 0.0162613 0)
(0.0129123 0.0120605 0)
(0.0673977 0.00247597 0)
(0.0654692 0.0113839 0)
(0.06085 0.0188665 0)
(0.0541531 0.0241126 0)
(0.0462215 0.0267187 0)
(0.0378173 0.0266989 0)
(0.0293345 0.0241582 0)
(0.0210343 0.0194318 0)
(0.0845086 0.00347677 0)
(0.0822364 0.014325 0)
(0.0768063 0.023507 0)
(0.0691328 0.0302302 0)
(0.0600008 0.034019 0)
(0.0501402 0.034742 0)
(0.0402643 0.0326727 0)
(0.0304816 0.027965 0)
(0.10085 0.00463249 0)
(0.0981748 0.0171962 0)
(0.0922775 0.0280115 0)
(0.0838158 0.036163 0)
(0.0737312 0.0411725 0)
(0.062917 0.0429867 0)
(0.0518842 0.0416433 0)
(0.0409825 0.0374405 0)
(0.116458 0.00596963 0)
(0.113535 0.0201189 0)
(0.107153 0.0323988 0)
(0.0981896 0.0419766 0)
(0.0875061 0.0483497 0)
(0.0758821 0.0513169 0)
(0.0640939 0.0510791 0)
(0.0523608 0.0477925 0)
(0.13145 0.00752387 0)
(0.128208 0.0230878 0)
(0.121598 0.0368042 0)
(0.112261 0.047768 0)
(0.101114 0.0554923 0)
(0.0890566 0.0598741 0)
(0.0766677 0.0608904 0)
(0.0643349 0.0588287 0)
(0.145806 0.00933709 0)
(0.142386 0.0262364 0)
(0.135511 0.0412407 0)
(0.125987 0.0535847 0)
(0.114636 0.0627787 0)
(0.102212 0.0685711 0)
(0.089478 0.0711024 0)
(0.0767678 0.0705683 0)
(0.159628 0.0114898 0)
(0.155943 0.029556 0)
(0.148996 0.0458469 0)
(0.139377 0.0595344 0)
(0.127878 0.0701496 0)
(0.115324 0.0775662 0)
(0.10239 0.0817223 0)
(0.0893976 0.0829286 0)
(0.172811 0.0140276 0)
(0.168993 0.033214 0)
(0.161946 0.0506378 0)
(0.152329 0.0656463 0)
(0.140856 0.0777992 0)
(0.128278 0.0868394 0)
(0.115206 0.0928442 0)
(0.102101 0.0959701 0)
(0.185425 0.0171003 0)
(0.181386 0.0372114 0)
(0.174345 0.0557664 0)
(0.164832 0.0720477 0)
(0.153453 0.0857187 0)
(0.140905 0.0965504 0)
(0.127821 0.104482 0)
(0.114516 0.109742 0)
(0.197248 0.0207875 0)
(0.193075 0.0417587 0)
(0.186096 0.0612486 0)
(0.176708 0.0788268 0)
(0.165525 0.0940204 0)
(0.153036 0.106714 0)
(0.139872 0.11673 0)
(0.12631 0.124273 0)
(0.208159 0.0253036 0)
(0.203846 0.0468834 0)
(0.196921 0.0672794 0)
(0.187775 0.0859816 0)
(0.176718 0.102771 0)
(0.164308 0.117322 0)
(0.150878 0.129608 0)
(0.136933 0.139575 0)
(0.217584 0.030822 0)
(0.213088 0.05272 0)
(0.206254 0.073687 0)
(0.197268 0.0934286 0)
(0.186411 0.111656 0)
(0.173928 0.128186 0)
(0.16017 0.142837 0)
(0.145353 0.155581 0)
(0.223975 0.0368257 0)
(0.219287 0.0586017 0)
(0.212487 0.0798134 0)
(0.20364 0.100256 0)
(0.192833 0.119734 0)
(0.180168 0.138058 0)
(0.165769 0.155053 0)
(0.149773 0.170555 0)
(0.00144924 0.00135413 0)
(0.00266305 0.00264219 0)
(0.00349482 0.00390348 0)
(0.00398161 0.00529057 0)
(0.00401333 0.0066879 0)
(0.00354555 0.00797192 0)
(0.00262339 0.00913392 0)
(0.00129304 0.00991964 0)
(0.00628231 0.00597491 0)
(0.00924682 0.00950398 0)
(0.0112668 0.0132299 0)
(0.0121441 0.0170311 0)
(0.0118048 0.0208394 0)
(0.0101903 0.0244869 0)
(0.0073367 0.0275623 0)
(0.00345406 0.0296287 0)
(0.0126449 0.0121443 0)
(0.0168174 0.0177669 0)
(0.0193377 0.0234876 0)
(0.0201783 0.0294537 0)
(0.0191415 0.0353731 0)
(0.0161602 0.0408264 0)
(0.0113866 0.0453811 0)
(0.00516693 0.0482986 0)
(0.0204444 0.0198562 0)
(0.0250941 0.0271224 0)
(0.0276846 0.0347008 0)
(0.0280195 0.0424221 0)
(0.0259813 0.0500104 0)
(0.0215372 0.0570251 0)
(0.0148694 0.0626833 0)
(0.00647365 0.0662564 0)
(0.0293522 0.0287985 0)
(0.0340238 0.0375964 0)
(0.0361264 0.046603 0)
(0.0356422 0.055852 0)
(0.0323828 0.0648664 0)
(0.0263461 0.072959 0)
(0.0178264 0.0794125 0)
(0.00743614 0.0833234 0)
(0.039266 0.038959 0)
(0.0433457 0.0488915 0)
(0.0446383 0.0592291 0)
(0.0429913 0.0696542 0)
(0.0383054 0.079692 0)
(0.03063 0.0886737 0)
(0.0203052 0.0956406 0)
(0.0080407 0.0997878 0)
(0.0498507 0.0500338 0)
(0.0530045 0.061057 0)
(0.0530618 0.0723472 0)
(0.0500256 0.0837492 0)
(0.0437689 0.0946154 0)
(0.0343902 0.104093 0)
(0.0223162 0.111356 0)
(0.00833493 0.115512 0)
(0.0609881 0.0620368 0)
(0.0627545 0.0738239 0)
(0.0613458 0.0860097 0)
(0.0566808 0.0980945 0)
(0.048723 0.109433 0)
(0.0376217 0.119262 0)
(0.0238551 0.126603 0)
(0.00825165 0.130754 0)
(0.0724042 0.0747617 0)
(0.0725218 0.0872937 0)
(0.0693322 0.100035 0)
(0.0628783 0.112611 0)
(0.0531256 0.124281 0)
(0.0402876 0.134139 0)
(0.0248855 0.1414 0)
(0.00781819 0.145319 0)
(0.0839922 0.0882885 0)
(0.0820729 0.1013 0)
(0.0769204 0.114509 0)
(0.0685045 0.12733 0)
(0.0568909 0.139007 0)
(0.0423251 0.148763 0)
(0.0253721 0.155764 0)
(0.00690827 0.159428 0)
(0.0954459 0.102546 0)
(0.0912768 0.115962 0)
(0.0838984 0.129376 0)
(0.0734048 0.142206 0)
(0.059889 0.153731 0)
(0.0436195 0.163132 0)
(0.0252017 0.169731 0)
(0.00553272 0.172911 0)
(0.106528 0.117586 0)
(0.0998227 0.131254 0)
(0.0900378 0.144731 0)
(0.0773741 0.157338 0)
(0.0618832 0.168399 0)
(0.0440042 0.177227 0)
(0.0242614 0.183179 0)
(0.00348762 0.185888 0)
(0.116768 0.133439 0)
(0.107245 0.147287 0)
(0.0949631 0.160542 0)
(0.0799688 0.172645 0)
(0.0626185 0.182956 0)
(0.0431892 0.190924 0)
(0.0223194 0.196094 0)
(0.000666623 0.19813 0)
(0.125433 0.150191 0)
(0.112928 0.163934 0)
(0.097885 0.176706 0)
(0.0806938 0.187926 0)
(0.0615361 0.197163 0)
(0.040847 0.204023 0)
(0.0190767 0.2082 0)
(-0.00325592 0.209533 0)
(0.131465 0.167652 0)
(0.11564 0.18099 0)
(0.0979836 0.192759 0)
(0.0787266 0.202672 0)
(0.0581367 0.210488 0)
(0.0365193 0.215997 0)
(0.0141911 0.219046 0)
(-0.00842128 0.219553 0)
(0.132334 0.184414 0)
(0.113621 0.196497 0)
(0.0938141 0.206687 0)
(0.0731035 0.214887 0)
(0.0516888 0.221018 0)
(0.0297764 0.22502 0)
(0.00757716 0.226855 0)
(-0.014695 0.226506 0)
)
;

boundaryField
{
    walls
    {
        type            cellMotion;
        value           uniform (0 0 0);
    }
    cylinder
    {
        type            cellMotion;
        value           nonuniform List<vector> 
16
(
(0.223975 0.0368257 0)
(0.219287 0.0586017 0)
(0.212487 0.0798134 0)
(0.20364 0.100256 0)
(0.192833 0.119734 0)
(0.180168 0.138058 0)
(0.165769 0.155053 0)
(0.149773 0.170555 0)
(0.132334 0.184414 0)
(0.113621 0.196497 0)
(0.0938141 0.206687 0)
(0.0731035 0.214887 0)
(0.0516888 0.221018 0)
(0.0297764 0.22502 0)
(0.00757716 0.226855 0)
(-0.014695 0.226506 0)
)
;
    }
    outlet
    {
        type            cellMotion;
        value           uniform (0 0 0);
    }
    inlet
    {
        type            cellMotion;
        value           nonuniform List<vector> 0();
    }
    frontAndBack
    {
        type            empty;
    }
    procBoundary1to0
    {
        type            processor;
        value           nonuniform List<vector> 
16
(
(0.00995481 -0.00135695 0)
(0.0295482 -0.0036306 0)
(0.0483269 -0.00545046 0)
(0.0662122 -0.00685574 0)
(0.083382 -0.00788964 0)
(0.0997866 -0.00856689 0)
(0.115607 -0.00888935 0)
(0.130809 -0.00884342 0)
(0.14546 -0.00838503 0)
(0.15954 -0.00746786 0)
(0.173102 -0.00600779 0)
(0.18605 -0.00389872 0)
(0.198324 -0.000960948 0)
(0.209663 0.00305862 0)
(0.21961 0.00834905 0)
(0.226506 0.014695 0)
)
;
    }
    procBoundary1to3
    {
        type            processor;
        value           nonuniform List<vector> 
16
(
(-0.000274648 0.0102258 0)
(-0.000955331 0.0301207 0)
(-0.00178704 0.0491307 0)
(-0.00271209 0.0670296 0)
(-0.00379477 0.084226 0)
(-0.00498535 0.10049 0)
(-0.00638761 0.116193 0)
(-0.00794048 0.131102 0)
(-0.00979612 0.145545 0)
(-0.01189 0.159269 0)
(-0.0144358 0.172542 0)
(-0.017389 0.185081 0)
(-0.021046 0.196991 0)
(-0.0254294 0.207981 0)
(-0.0308895 0.217506 0)
(-0.0368257 0.223975 0)
)
;
    }
}


// ************************************************************************* //
