/*--------------------------------*- C++ -*----------------------------------*\
| =========                 |                                                 |
| \\      /  F ield         | OpenFOAM: The Open Source CFD Toolbox           |
|  \\    /   O peration     | Version:  2412                                  |
|   \\  /    A nd           | Website:  www.openfoam.com                      |
|    \\/     M anipulation  |                                                 |
\*---------------------------------------------------------------------------*/
FoamFile
{
    version     2.0;
    format      ascii;
    arch        "LSB;label=32;scalar=64";
    class       surfaceScalarField;
    location    "0.3";
    object      meshPhi;
}
// * * * * * * * * * * * * * * * * * * * * * * * * * * * * * * * * * * * * * //

dimensions      [0 3 -1 0 0 0 0];

internalField   nonuniform List<scalar> 
480
(
0.00465913
-0.000686499
0.00471995
0.00297661
0.00473619
0.00642605
0.00466881
0.00904099
0.00415126
0.00999502
0.0032388
0.00917971
0.00222608
0.00742093
0.00603128
0.00177933
0.0134225
-0.00138161
0.0137236
0.00511665
0.0138272
0.011205
0.0136051
0.0158269
0.012212
0.0177379
0.00982784
0.0168603
0.00711902
0.0143389
0.0120582
0.00588495
0.0212591
-0.00212155
0.0219017
0.00650375
0.0221574
0.0144971
0.0218043
0.0206194
0.0199003
0.0235438
0.016685
0.0231923
0.0129002
0.0206108
0.017924
0.0111408
0.0284005
-0.0028219
0.0293359
0.00730459
0.0297462
0.0166021
0.02934
0.0237982
0.02729
0.0276802
0.0238054
0.0281625
0.0195087
0.0260406
0.0234943
0.0176249
0.0350476
-0.00349601
0.0361767
0.00759716
0.0367433
0.0177401
0.0363888
0.0257011
0.0344702
0.0304408
0.0311589
0.031858
0.0268915
0.0305052
0.0284738
0.0253038
0.0412849
-0.00403863
0.0425226
0.00752776
0.0432499
0.0180657
0.043064
0.0264826
0.0415202
0.0319313
0.0387436
0.034272
0.0349454
0.0338326
0.0324704
0.0339257
0.0471672
-0.00445345
0.0484674
0.00719908
0.0493703
0.0177813
0.0494909
0.0264028
0.0485483
0.0323799
0.0465484
0.0355022
0.0433817
0.0358227
0.0349782
0.0429414
0.0527793
-0.0047485
0.054122
0.00667059
0.0552418
0.0169965
0.055825
0.0255654
0.055615
0.0318226
0.0543607
0.0354167
0.0518265
0.0363013
0.036013
0.051989
0.0582003
-0.00477645
0.0595845
0.00606427
0.0609977
0.0158584
0.0621231
0.024102
0.0625175
0.0303108
0.0619265
0.0341303
0.0602315
0.0355507
0.0358968
0.0612115
0.0634756
-0.00459009
0.0649441
0.00537885
0.0666871
0.014349
0.0682268
0.0219952
0.0691694
0.0279713
0.0694195
0.0319889
0.0689525
0.0339671
0.0350011
0.0712652
0.06861
-0.00416105
0.0701793
0.00468074
0.0721585
0.0126047
0.0741094
0.0194857
0.075834
0.0251149
0.0772962
0.029198
0.0786522
0.0316395
0.0332259
0.0827643
0.0735951
-0.00349057
0.0752345
0.00400559
0.0774852
0.0107713
0.0800824
0.0167317
0.0829258
0.0217846
0.0860981
0.0256866
0.089641
0.028218
0.0300209
0.0955161
0.0783508
-0.00240055
0.0801886
0.00346912
0.0829172
0.00886027
0.0864192
0.0137426
0.0907314
0.0179538
0.0958404
0.0211918
0.101449
0.0234338
0.0251984
0.108946
0.0829786
-0.000671584
0.0851463
0.00330077
0.0885851
0.00700749
0.0932141
0.0103842
0.0990184
0.0133189
0.105827
0.0156488
0.113341
0.0173951
0.0189006
0.122386
0.0872043
0.00118322
0.0898004
0.0030536
0.0940505
0.0047906
0.0997819
0.00638788
0.106854
0.00781915
0.115088
0.00906656
0.124244
0.0101037
0.0110253
0.134677
0.0886431
0.0918563
0.0967974
0.103282
0.111098
0.120018
0.129765
0.140263
0.00214085
-0.00388303
0.00289219
-0.00585878
0.00359763
-0.00808839
0.00389369
-0.00932465
0.00381282
-0.00918786
0.00371563
-0.00796218
0.00375287
-0.00598526
-0.00329308
0.00678939
-0.00877641
0.00894645
-0.0120009
0.0107722
-0.0155306
0.0115725
-0.0172194
0.0114409
-0.0167477
0.0111881
-0.0144659
0.0112025
-0.0107654
-0.00577315
0.0123637
-0.0145075
0.0154641
-0.0182703
0.0179235
-0.0221908
0.0190367
-0.0238343
0.0189448
-0.0228579
0.0185955
-0.0195929
0.0184702
-0.0144249
-0.00757492
0.0189133
-0.0205641
0.0224122
-0.0242978
0.0250633
-0.0279842
0.0262744
-0.0291069
0.0262234
-0.0274992
0.0258006
-0.0234049
0.0255255
-0.0170886
-0.00882231
0.0263805
-0.0266337
0.0298006
-0.0299317
0.0322662
-0.0328894
0.0333785
-0.0332822
0.0332993
-0.0309741
0.0327572
-0.0261027
0.0322976
-0.0188562
-0.0095841
0.0345457
-0.0320122
0.0375505
-0.0346598
0.0395681
-0.0367251
0.0404002
-0.0362157
0.0401814
-0.0331897
0.039455
-0.0277185
0.0387122
-0.0198291
-0.00988696
0.0429634
-0.0360421
0.0454725
-0.0380763
0.0469421
-0.0392902
0.0473802
-0.0379872
0.0469064
-0.0343314
0.0459335
-0.0283749
0.044888
-0.0200957
-0.00983895
0.0513523
-0.0384957
0.0533675
-0.0399087
0.0543167
-0.0404229
0.0543045
-0.0384541
0.0534894
-0.03429
0.0522215
-0.0280486
0.0509437
-0.0196741
-0.00947664
0.0598597
-0.0395228
0.061266
-0.0403234
0.061632
-0.0401281
0.061149
-0.0376388
0.0599412
-0.0331347
0.058329
-0.0268223
0.0568244
-0.0186259
-0.00881178
0.0690926
-0.0394709
0.0694739
-0.0395481
0.0690517
-0.0385656
0.0679315
-0.0355948
0.0662366
-0.0309249
0.0642679
-0.0247552
0.0625066
-0.01701
-0.00791316
0.0794197
-0.0381657
0.0782814
-0.0375687
0.0766581
-0.0357874
0.0746381
-0.0324146
0.0723477
-0.0277521
0.0700051
-0.0219252
0.0679779
-0.0148874
-0.00680562
0.0906964
-0.0350848
0.0876999
-0.0339842
0.0845444
-0.0316424
0.0813908
-0.0281259
0.0783315
-0.0236747
0.075528
-0.0184313
0.0732447
-0.0123538
-0.00546737
0.102513
-0.0296768
0.0975432
-0.0283521
0.0927056
-0.0258561
0.088206
-0.0225432
0.0842203
-0.0186614
0.0808787
-0.0143034
0.0782981
-0.00939978
-0.00395462
0.11432
-0.0214915
0.107358
-0.0203065
0.100762
-0.0180932
0.0948691
-0.0154484
0.0898888
-0.012528
0.0859577
-0.00939289
0.0831066
-0.0059608
-0.00224194
0.125044
-0.0105182
0.116063
-0.00959899
0.107816
-0.00823715
0.100641
-0.00674754
0.0947574
-0.00517908
0.090298
-0.00355288
0.0873441
-0.00185992
-5.56759e-05
0.128842
0.118276
0.108947
0.101096
0.0949059
0.0904841
0.0879172
)
;

boundaryField
{
    walls
    {
        type            calculated;
        value           uniform 0;
    }
    cylinder
    {
        type            calculated;
        value           nonuniform List<scalar> 
16
(
1.96678e-11
-2.41519e-11
-8.01355e-12
1.45739e-11
-4.10463e-11
2.97338e-11
4.60446e-11
-2.33103e-11
2.33085e-11
-4.60437e-11
-2.9734e-11
4.10452e-11
-1.45759e-11
8.01165e-12
2.41502e-11
-1.96695e-11
)
;
    }
    outlet
    {
        type            calculated;
        value           uniform 0;
    }
    inlet
    {
        type            calculated;
        value           nonuniform List<scalar> 0();
    }
    frontAndBack
    {
        type            empty;
    }
    procBoundary1to0
    {
        type            processor;
        value           nonuniform List<scalar> 
16
(
-0.00414781
-0.0121309
-0.019616
-0.0267186
-0.0334571
-0.0397881
-0.0458118
-0.0516568
-0.057297
-0.0627406
-0.0679952
-0.0730824
-0.0779115
-0.0824624
-0.086467
-0.0873346
)
;
    }
    procBoundary1to3
    {
        type            processor;
        value           nonuniform List<scalar> 
16
(
0.00373267
0.0110818
0.0182421
0.0252103
0.031904
0.0382382
0.0442986
0.0501991
0.0558992
0.0613787
0.0666598
0.071752
0.0767378
0.0816789
0.0861088
0.0872567
)
;
    }
}


// ************************************************************************* //
