/*--------------------------------*- C++ -*----------------------------------*\
| =========                 |                                                 |
| \\      /  F ield         | OpenFOAM: The Open Source CFD Toolbox           |
|  \\    /   O peration     | Version:  2412                                  |
|   \\  /    A nd           | Website:  www.openfoam.com                      |
|    \\/     M anipulation  |                                                 |
\*---------------------------------------------------------------------------*/
FoamFile
{
    version     2.0;
    format      ascii;
    arch        "LSB;label=32;scalar=64";
    class       pointVectorField;
    location    "0.3";
    object      pointDisplacement;
}
// * * * * * * * * * * * * * * * * * * * * * * * * * * * * * * * * * * * * * //

dimensions      [0 1 0 0 0 0 0];

internalField   nonuniform List<vector> 
578
(
(0 0 0)
(0 0 0)
(0 0 0)
(0 0 0)
(0 0 0)
(0 0 0)
(0 0 0)
(0 0 0)
(0 0 0)
(0.0200826 -0.000978141 0)
(0.0200657 0.00201602 0)
(0.018865 0.00467392 0)
(0.0167601 0.00661494 0)
(0.0140879 0.00759206 0)
(0.0111395 0.00753557 0)
(0.00816277 0.00653338 0)
(0.00527346 0.00474727 0)
(0.00377022 0.00358554 0)
(0.0394494 -0.00165736 0)
(0.0393385 0.00400615 0)
(0.037176 0.00905776 0)
(0.033389 0.0128464 0)
(0.0285407 0.0149459 0)
(0.0231491 0.0152145 0)
(0.0176507 0.0137676 0)
(0.0122609 0.0108302 0)
(0.00941328 0.00892366 0)
(0.0578578 -0.00205831 0)
(0.0575854 0.00596237 0)
(0.0546468 0.0131482 0)
(0.049549 0.0186714 0)
(0.042998 0.0219852 0)
(0.0356682 0.022888 0)
(0.0281244 0.0214781 0)
(0.0206693 0.0179898 0)
(0.0166182 0.0157391 0)
(0.0753957 -0.00219976 0)
(0.0749239 0.00791754 0)
(0.0713613 0.017026 0)
(0.0652559 0.0241877 0)
(0.0573963 0.0287818 0)
(0.0485617 0.0305585 0)
(0.0394038 0.029584 0)
(0.0302919 0.0260738 0)
(0.0251772 0.0238677 0)
(0.0921504 -0.00208724 0)
(0.0914612 0.00990993 0)
(0.0873927 0.0207647 0)
(0.0805271 0.0294852 0)
(0.0716891 0.0354063 0)
(0.0617161 0.0382438 0)
(0.0513184 0.0380275 0)
(0.0409212 0.0349502 0)
(0.0348657 0.0331392 0)
(0.108192 -0.00171294 0)
(0.107271 0.0119818 0)
(0.102802 0.0244354 0)
(0.0953767 0.0346436 0)
(0.0858295 0.0419245 0)
(0.0750279 0.0459687 0)
(0.0637135 0.046773 0)
(0.0523513 0.0445098 0)
(0.0454628 0.0434041 0)
(0.123596 -0.0010584 0)
(0.122428 0.0141776 0)
(0.117639 0.0281059 0)
(0.109817 0.0397419 0)
(0.0997853 0.0484041 0)
(0.0884088 0.0537695 0)
(0.0764446 0.0558053 0)
(0.0643868 0.0546679 0)
(0.056739 0.0545231 0)
(0.138395 -8.97662e-05 0)
(0.136976 0.0165488 0)
(0.131939 0.0318452 0)
(0.123854 0.0448533 0)
(0.113516 0.0549121 0)
(0.101773 0.0616883 0)
(0.0893731 0.0651233 0)
(0.076835 0.0653662 0)
(0.068491 0.0664052 0)
(0.152621 0.00124612 0)
(0.150952 0.0191573 0)
(0.145721 0.0357223 0)
(0.137481 0.0500546 0)
(0.126985 0.0615164 0)
(0.11503 0.0697742 0)
(0.10237 0.0747521 0)
(0.0895304 0.0765966 0)
(0.0805226 0.0790014 0)
(0.166281 0.00301351 0)
(0.164353 0.0220742 0)
(0.15898 0.0398154 0)
(0.150674 0.0554182 0)
(0.140124 0.0682856 0)
(0.1281 0.0780942 0)
(0.115317 0.0847524 0)
(0.102294 0.0883794 0)
(0.0926339 0.0923087 0)
(0.179356 0.00530878 0)
(0.177162 0.0253906 0)
(0.171676 0.0442085 0)
(0.163374 0.0610253 0)
(0.15288 0.0753046 0)
(0.140888 0.0867306 0)
(0.128069 0.0951855 0)
(0.11493 0.100769 0)
(0.104567 0.106349 0)
(0.19177 0.00826092 0)
(0.189291 0.0292166 0)
(0.183733 0.0489969 0)
(0.175504 0.0669722 0)
(0.165141 0.0826534 0)
(0.153243 0.0957522 0)
(0.140423 0.106123 0)
(0.127147 0.113812 0)
(0.115972 0.121164 0)
(0.203355 0.0120517 0)
(0.200587 0.0336855 0)
(0.194991 0.0542927 0)
(0.186882 0.073333 0)
(0.176691 0.0903984 0)
(0.164908 0.105206 0)
(0.152036 0.117593 0)
(0.138513 0.127547 0)
(0.126325 0.136791 0)
(0.213759 0.0168888 0)
(0.210673 0.038935 0)
(0.205032 0.0601427 0)
(0.19706 0.0800925 0)
(0.18705 0.0984563 0)
(0.17535 0.11498 0)
(0.162332 0.129484 0)
(0.148347 0.141896 0)
(0.134781 0.153194 0)
(0.221922 0.0226804 0)
(0.218486 0.0447466 0)
(0.212782 0.0662068 0)
(0.204916 0.0867953 0)
(0.195043 0.106266 0)
(0.183342 0.124404 0)
(0.170018 0.141029 0)
(0.155278 0.156001 0)
(0.139732 0.169529 0)
(0.225784 0.0258225 0)
(0.222165 0.0478289 0)
(0.216408 0.0693746 0)
(0.208566 0.0902522 0)
(0.198715 0.110261 0)
(0.186951 0.129207 0)
(0.173386 0.146909 0)
(0.158152 0.163197 0)
(0.141394 0.177912 0)
(0 0 0)
(0 0 0)
(0 0 0)
(0 0 0)
(0 0 0)
(0 0 0)
(0 0 0)
(0 0 0)
(0 0 0)
(0.0200826 -0.000978141 0)
(0.0200657 0.00201602 0)
(0.018865 0.00467392 0)
(0.0167601 0.00661494 0)
(0.0140879 0.00759206 0)
(0.0111395 0.00753557 0)
(0.00816277 0.00653338 0)
(0.00527346 0.00474727 0)
(0.00377022 0.00358554 0)
(0.0394494 -0.00165736 0)
(0.0393385 0.00400615 0)
(0.037176 0.00905776 0)
(0.033389 0.0128464 0)
(0.0285407 0.0149459 0)
(0.0231491 0.0152145 0)
(0.0176507 0.0137676 0)
(0.0122609 0.0108302 0)
(0.00941328 0.00892366 0)
(0.0578578 -0.00205831 0)
(0.0575854 0.00596237 0)
(0.0546468 0.0131482 0)
(0.049549 0.0186714 0)
(0.042998 0.0219852 0)
(0.0356682 0.022888 0)
(0.0281244 0.0214781 0)
(0.0206693 0.0179898 0)
(0.0166182 0.0157391 0)
(0.0753957 -0.00219976 0)
(0.0749239 0.00791754 0)
(0.0713613 0.017026 0)
(0.0652559 0.0241877 0)
(0.0573963 0.0287818 0)
(0.0485617 0.0305585 0)
(0.0394038 0.029584 0)
(0.0302919 0.0260738 0)
(0.0251772 0.0238677 0)
(0.0921504 -0.00208724 0)
(0.0914612 0.00990993 0)
(0.0873927 0.0207647 0)
(0.0805271 0.0294852 0)
(0.0716891 0.0354063 0)
(0.0617161 0.0382438 0)
(0.0513184 0.0380275 0)
(0.0409212 0.0349502 0)
(0.0348657 0.0331392 0)
(0.108192 -0.00171294 0)
(0.107271 0.0119818 0)
(0.102802 0.0244354 0)
(0.0953767 0.0346436 0)
(0.0858295 0.0419245 0)
(0.0750279 0.0459687 0)
(0.0637135 0.046773 0)
(0.0523513 0.0445098 0)
(0.0454628 0.0434041 0)
(0.123596 -0.0010584 0)
(0.122428 0.0141776 0)
(0.117639 0.0281059 0)
(0.109817 0.0397419 0)
(0.0997853 0.0484041 0)
(0.0884088 0.0537695 0)
(0.0764446 0.0558053 0)
(0.0643868 0.0546679 0)
(0.056739 0.0545231 0)
(0.138395 -8.97662e-05 0)
(0.136976 0.0165488 0)
(0.131939 0.0318452 0)
(0.123854 0.0448533 0)
(0.113516 0.0549121 0)
(0.101773 0.0616883 0)
(0.0893731 0.0651233 0)
(0.076835 0.0653662 0)
(0.068491 0.0664052 0)
(0.152621 0.00124612 0)
(0.150952 0.0191573 0)
(0.145721 0.0357223 0)
(0.137481 0.0500546 0)
(0.126985 0.0615164 0)
(0.11503 0.0697742 0)
(0.10237 0.0747521 0)
(0.0895304 0.0765966 0)
(0.0805226 0.0790014 0)
(0.166281 0.00301351 0)
(0.164353 0.0220742 0)
(0.15898 0.0398154 0)
(0.150674 0.0554182 0)
(0.140124 0.0682856 0)
(0.1281 0.0780942 0)
(0.115317 0.0847524 0)
(0.102294 0.0883794 0)
(0.0926339 0.0923087 0)
(0.179356 0.00530878 0)
(0.177162 0.0253906 0)
(0.171676 0.0442085 0)
(0.163374 0.0610253 0)
(0.15288 0.0753046 0)
(0.140888 0.0867306 0)
(0.128069 0.0951855 0)
(0.11493 0.100769 0)
(0.104567 0.106349 0)
(0.19177 0.00826092 0)
(0.189291 0.0292166 0)
(0.183733 0.0489969 0)
(0.175504 0.0669722 0)
(0.165141 0.0826534 0)
(0.153243 0.0957522 0)
(0.140423 0.106123 0)
(0.127147 0.113812 0)
(0.115972 0.121164 0)
(0.203355 0.0120517 0)
(0.200587 0.0336855 0)
(0.194991 0.0542927 0)
(0.186882 0.073333 0)
(0.176691 0.0903984 0)
(0.164908 0.105206 0)
(0.152036 0.117593 0)
(0.138513 0.127547 0)
(0.126325 0.136791 0)
(0.213759 0.0168888 0)
(0.210673 0.038935 0)
(0.205032 0.0601427 0)
(0.19706 0.0800925 0)
(0.18705 0.0984563 0)
(0.17535 0.11498 0)
(0.162332 0.129484 0)
(0.148347 0.141896 0)
(0.134781 0.153194 0)
(0.221922 0.0226804 0)
(0.218486 0.0447466 0)
(0.212782 0.0662068 0)
(0.204916 0.0867953 0)
(0.195043 0.106266 0)
(0.183342 0.124404 0)
(0.170018 0.141029 0)
(0.155278 0.156001 0)
(0.139732 0.169529 0)
(0.225784 0.0258225 0)
(0.222165 0.0478289 0)
(0.216408 0.0693746 0)
(0.208566 0.0902522 0)
(0.198715 0.110261 0)
(0.186951 0.129207 0)
(0.173386 0.146909 0)
(0.158152 0.163197 0)
(0.141394 0.177912 0)
(0 0 0)
(0 0 0)
(0 0 0)
(0 0 0)
(0 0 0)
(0 0 0)
(0 0 0)
(0 0 0)
(0.00490232 0.00485618 0)
(0.00666774 0.00731055 0)
(0.00772919 0.00986009 0)
(0.00799798 0.0124637 0)
(0.00740291 0.0150033 0)
(0.00593847 0.0173027 0)
(0.00368832 0.0190819 0)
(0.000884916 0.0200002 0)
(0.0112476 0.0113398 0)
(0.014174 0.0159948 0)
(0.015742 0.0208009 0)
(0.0158302 0.025679 0)
(0.0143382 0.0303917 0)
(0.0112811 0.0345795 0)
(0.00684542 0.0377382 0)
(0.0014739 0.0393187 0)
(0.018758 0.0192213 0)
(0.0222441 0.0257705 0)
(0.023818 0.032521 0)
(0.0233437 0.0393231 0)
(0.0207178 0.0458205 0)
(0.0159992 0.0514953 0)
(0.00948149 0.0556746 0)
(0.00178816 0.0577013 0)
(0.0272408 0.028345 0)
(0.0307468 0.0365119 0)
(0.0318822 0.0449021 0)
(0.0305198 0.0532982 0)
(0.0265735 0.0612294 0)
(0.0201537 0.0680368 0)
(0.0116567 0.0729381 0)
(0.00185228 0.0752291 0)
(0.0365138 0.0385676 0)
(0.0395495 0.0480883 0)
(0.0398644 0.0578454 0)
(0.0373432 0.0675291 0)
(0.0319262 0.0765626 0)
(0.0237839 0.0841885 0)
(0.0134057 0.0895592 0)
(0.00167454 0.0919755 0)
(0.0463852 0.0497428 0)
(0.04853 0.060393 0)
(0.0476937 0.0712575 0)
(0.0437845 0.0819419 0)
(0.0367822 0.0917846 0)
(0.0269156 0.0999575 0)
(0.0147512 0.105591 0)
(0.00125013 0.108012 0)
(0.0566697 0.0617484 0)
(0.0575586 0.0733222 0)
(0.0552923 0.0850647 0)
(0.0498099 0.0964888 0)
(0.0411327 0.106867 0)
(0.0295492 0.115345 0)
(0.0156901 0.121072 0)
(0.000563199 0.123406 0)
(0.0671869 0.0744901 0)
(0.066505 0.0868058 0)
(0.0625716 0.099203 0)
(0.0553605 0.111121 0)
(0.0449444 0.121795 0)
(0.0316642 0.130367 0)
(0.0162019 0.136034 0)
(-0.000418656 0.138194 0)
(0.077767 0.0879241 0)
(0.0752264 0.1008 0)
(0.0694195 0.113638 0)
(0.0603564 0.125824 0)
(0.0481603 0.136564 0)
(0.0332176 0.145031 0)
(0.0162442 0.150491 0)
(-0.0017425 0.152402 0)
(0.088214 0.102038 0)
(0.0835548 0.115304 0)
(0.0756903 0.128372 0)
(0.0646766 0.140585 0)
(0.050682 0.151174 0)
(0.034128 0.159361 0)
(0.0157508 0.164471 0)
(-0.00347406 0.166048 0)
(0.0982827 0.116852 0)
(0.0912687 0.130348 0)
(0.0811842 0.14343 0)
(0.0681396 0.155435 0)
(0.0523475 0.165637 0)
(0.0342684 0.17333 0)
(0.014617 0.177938 0)
(-0.00570449 0.179115 0)
(0.107602 0.132406 0)
(0.098023 0.145972 0)
(0.0855883 0.158832 0)
(0.0704597 0.170351 0)
(0.05292 0.179891 0)
(0.0334384 0.186868 0)
(0.0126788 0.190832 0)
(-0.00857386 0.19153 0)
(0.1156 0.148729 0)
(0.103257 0.162135 0)
(0.0883755 0.174473 0)
(0.0711994 0.185189 0)
(0.0520408 0.19378 0)
(0.031351 0.199821 0)
(0.0096956 0.202997 0)
(-0.0122705 0.203165 0)
(0.121367 0.165709 0)
(0.106105 0.178616 0)
(0.0888148 0.190033 0)
(0.0697637 0.199577 0)
(0.0492495 0.20693 0)
(0.0276489 0.211826 0)
(0.00538977 0.21409 0)
(-0.0170043 0.213648 0)
(0.123254 0.182412 0)
(0.10525 0.194256 0)
(0.0858907 0.20427 0)
(0.0653973 0.212281 0)
(0.0440147 0.218142 0)
(0.0220023 0.221737 0)
(-0.000347782 0.222995 0)
(-0.0227153 0.221888 0)
(0.123275 0.190915 0)
(0.103968 0.202079 0)
(0.0836602 0.211296 0)
(0.0625468 0.218479 0)
(0.0408309 0.223557 0)
(0.0187218 0.226483 0)
(-0.00356752 0.227228 0)
(-0.0258225 0.225784 0)
(0 0 0)
(0 0 0)
(0 0 0)
(0 0 0)
(0 0 0)
(0 0 0)
(0 0 0)
(0 0 0)
(0.00490232 0.00485618 0)
(0.00666774 0.00731055 0)
(0.00772919 0.00986009 0)
(0.00799798 0.0124637 0)
(0.00740291 0.0150033 0)
(0.00593847 0.0173027 0)
(0.00368832 0.0190819 0)
(0.000884916 0.0200002 0)
(0.0112476 0.0113398 0)
(0.014174 0.0159948 0)
(0.015742 0.0208009 0)
(0.0158302 0.025679 0)
(0.0143382 0.0303917 0)
(0.0112811 0.0345795 0)
(0.00684542 0.0377382 0)
(0.0014739 0.0393187 0)
(0.018758 0.0192213 0)
(0.0222441 0.0257705 0)
(0.023818 0.032521 0)
(0.0233437 0.0393231 0)
(0.0207178 0.0458205 0)
(0.0159992 0.0514953 0)
(0.00948149 0.0556746 0)
(0.00178816 0.0577013 0)
(0.0272408 0.028345 0)
(0.0307468 0.0365119 0)
(0.0318822 0.0449021 0)
(0.0305198 0.0532982 0)
(0.0265735 0.0612294 0)
(0.0201537 0.0680368 0)
(0.0116567 0.0729381 0)
(0.00185228 0.0752291 0)
(0.0365138 0.0385676 0)
(0.0395495 0.0480883 0)
(0.0398644 0.0578454 0)
(0.0373432 0.0675291 0)
(0.0319262 0.0765626 0)
(0.0237839 0.0841885 0)
(0.0134057 0.0895592 0)
(0.00167454 0.0919755 0)
(0.0463852 0.0497428 0)
(0.04853 0.060393 0)
(0.0476937 0.0712575 0)
(0.0437845 0.0819419 0)
(0.0367822 0.0917846 0)
(0.0269156 0.0999575 0)
(0.0147512 0.105591 0)
(0.00125013 0.108012 0)
(0.0566697 0.0617484 0)
(0.0575586 0.0733222 0)
(0.0552923 0.0850647 0)
(0.0498099 0.0964888 0)
(0.0411327 0.106867 0)
(0.0295492 0.115345 0)
(0.0156901 0.121072 0)
(0.000563199 0.123406 0)
(0.0671869 0.0744901 0)
(0.066505 0.0868058 0)
(0.0625716 0.099203 0)
(0.0553605 0.111121 0)
(0.0449444 0.121795 0)
(0.0316642 0.130367 0)
(0.0162019 0.136034 0)
(-0.000418656 0.138194 0)
(0.077767 0.0879241 0)
(0.0752264 0.1008 0)
(0.0694195 0.113638 0)
(0.0603564 0.125824 0)
(0.0481603 0.136564 0)
(0.0332176 0.145031 0)
(0.0162442 0.150491 0)
(-0.0017425 0.152402 0)
(0.088214 0.102038 0)
(0.0835548 0.115304 0)
(0.0756903 0.128372 0)
(0.0646766 0.140585 0)
(0.050682 0.151174 0)
(0.034128 0.159361 0)
(0.0157508 0.164471 0)
(-0.00347406 0.166048 0)
(0.0982827 0.116852 0)
(0.0912687 0.130348 0)
(0.0811842 0.14343 0)
(0.0681396 0.155435 0)
(0.0523475 0.165637 0)
(0.0342684 0.17333 0)
(0.014617 0.177938 0)
(-0.00570449 0.179115 0)
(0.107602 0.132406 0)
(0.098023 0.145972 0)
(0.0855883 0.158832 0)
(0.0704597 0.170351 0)
(0.05292 0.179891 0)
(0.0334384 0.186868 0)
(0.0126788 0.190832 0)
(-0.00857386 0.19153 0)
(0.1156 0.148729 0)
(0.103257 0.162135 0)
(0.0883755 0.174473 0)
(0.0711994 0.185189 0)
(0.0520408 0.19378 0)
(0.031351 0.199821 0)
(0.0096956 0.202997 0)
(-0.0122705 0.203165 0)
(0.121367 0.165709 0)
(0.106105 0.178616 0)
(0.0888148 0.190033 0)
(0.0697637 0.199577 0)
(0.0492495 0.20693 0)
(0.0276489 0.211826 0)
(0.00538977 0.21409 0)
(-0.0170043 0.213648 0)
(0.123254 0.182412 0)
(0.10525 0.194256 0)
(0.0858907 0.20427 0)
(0.0653973 0.212281 0)
(0.0440147 0.218142 0)
(0.0220023 0.221737 0)
(-0.000347782 0.222995 0)
(-0.0227153 0.221888 0)
(0.123275 0.190915 0)
(0.103968 0.202079 0)
(0.0836602 0.211296 0)
(0.0625468 0.218479 0)
(0.0408309 0.223557 0)
(0.0187218 0.226483 0)
(-0.00356752 0.227228 0)
(-0.0258225 0.225784 0)
)
;

boundaryField
{
    walls
    {
        type            fixedValue;
        value           uniform (0 0 0);
    }
    cylinder
    {
        type            solidBodyMotionDisplacement;
        value           nonuniform List<vector> 
34
(
(0.225784 0.0258225 0)
(0.225784 0.0258225 0)
(0.222165 0.0478289 0)
(0.222165 0.0478289 0)
(0.216408 0.0693746 0)
(0.216408 0.0693746 0)
(0.208566 0.0902522 0)
(0.208566 0.0902522 0)
(0.198715 0.110261 0)
(0.198715 0.110261 0)
(0.186951 0.129207 0)
(0.186951 0.129207 0)
(0.173386 0.146909 0)
(0.173386 0.146909 0)
(0.158152 0.163197 0)
(0.158152 0.163197 0)
(0.141394 0.177912 0)
(0.141394 0.177912 0)
(0.123275 0.190915 0)
(0.123275 0.190915 0)
(0.103968 0.202079 0)
(0.103968 0.202079 0)
(0.0836602 0.211296 0)
(0.0836602 0.211296 0)
(0.0625468 0.218479 0)
(0.0625468 0.218479 0)
(0.0408309 0.223557 0)
(0.0408309 0.223557 0)
(0.0187218 0.226483 0)
(0.0187218 0.226483 0)
(-0.00356752 0.227228 0)
(-0.00356752 0.227228 0)
(-0.0258225 0.225784 0)
(-0.0258225 0.225784 0)
)
;
        solidBodyMotionFunction oscillatingRotatingMotion;
        oscillatingRotatingMotionCoeffs
        {
            origin          ( 0 0 0 );
            axis            ( 0 0 1 );
            omega           1.5;
            amplitude       ( 0 0 30 );
        }
    }
    outlet
    {
        type            fixedValue;
        value           uniform (0 0 0);
    }
    inlet
    {
        type            fixedValue;
        value           nonuniform List<vector> 0();
    }
    frontAndBack
    {
        type            empty;
    }
    procBoundary1to0
    {
        type            processor;
    }
    procBoundary1to3
    {
        type            processor;
    }
}


// ************************************************************************* //
