/*--------------------------------*- C++ -*----------------------------------*\
| =========                 |                                                 |
| \\      /  F ield         | OpenFOAM: The Open Source CFD Toolbox           |
|  \\    /   O peration     | Version:  2412                                  |
|   \\  /    A nd           | Website:  www.openfoam.com                      |
|    \\/     M anipulation  |                                                 |
\*---------------------------------------------------------------------------*/
FoamFile
{
    version     2.0;
    format      ascii;
    arch        "LSB;label=32;scalar=64";
    class       volScalarField;
    location    "9";
    object      p;
}
// * * * * * * * * * * * * * * * * * * * * * * * * * * * * * * * * * * * * * //

dimensions      [0 2 -2 0 0 0 0];

internalField   nonuniform List<scalar> 
808
(
0.0908492
-0.00132103
0.0287086
0.0901877
-0.246954
0.00208909
-0.00925725
0.0217243
-0.152958
-0.0578718
0.0280703
-0.16703
0.0190422
-0.00869311
-0.295025
0.0159088
-0.299147
0.015045
0.0285854
-0.0170272
0.0298074
0.358738
0.0546661
-0.0295995
0.435584
-0.190467
-0.0860535
0.00939995
0.0126836
0.0121317
0.0106001
-0.00691006
0.0144478
0.01141
-0.118926
0.602938
-0.00276695
0.0144071
-0.00295229
0.0136767
-0.0858806
-0.0872123
0.0164252
0.00875735
-0.205453
0.069384
0.0146655
-0.0150567
-0.0137529
-0.194091
-0.00313392
-0.0138087
0.0258356
0.0109902
-0.107348
-0.0123726
0.0104882
0.0325477
-0.0531494
-0.0127804
-0.34343
-0.0241745
0.0260578
-0.22102
0.014862
0.0248231
-0.305952
0.0146292
0.0227908
-0.295761
-0.00100893
-0.326669
0.00123844
0.00225197
0.161185
0.00560316
-0.0330442
-0.0875203
-0.00555402
0.294233
-0.139761
0.00106768
0.0192575
0.246895
0.00769534
-0.0503155
-0.369982
-0.12661
0.00130608
-0.210684
0.00942853
-0.131648
0.233347
0.13715
0.0237203
-0.325588
0.0140623
-0.141067
-0.141242
-0.286246
-0.00160425
-0.0244626
0.0136846
-0.0423857
-0.137733
0.0414489
-0.231854
0.0104143
-0.00665708
0.00360293
-0.0958561
0.313636
0.000209317
0.0248344
0.0144526
0.429364
-0.0110442
-0.282212
0.00541101
0.0256297
-0.333811
0.0169437
-0.0049448
0.0305832
0.0923395
-0.0711676
0.0805971
0.0373351
-0.000728897
0.0501027
-0.339018
0.0141806
-0.0791971
0.106989
0.0137488
-0.0119575
0.0431354
0.00604739
-0.00226641
-0.016244
-0.308063
0.0177367
0.0388368
0.000269922
-0.0513678
0.0476306
0.0681378
0.130379
-0.110796
0.00890848
0.00579519
0.323614
0.00748677
0.514171
-0.298337
-0.117701
-0.000445726
-0.226865
0.0341151
-0.136854
-0.317414
-0.305564
-0.319594
-0.00179156
0.0430244
0.0132964
0.0018984
-0.329099
-0.00838435
0.0172022
0.0134418
0.141053
0.0518416
0.0978424
0.000736066
0.040466
0.0495648
-0.183765
0.00119481
-0.352102
0.0207351
-0.159606
-0.00826874
0.239082
-0.280506
0.0969396
0.00101946
-0.193003
0.0170404
-0.141181
-0.294075
-0.101791
0.00893235
0.0552646
-0.0061153
-0.291679
0.00263109
0.0204558
0.00654543
0.0593659
0.0358954
0.0166894
0.0165994
-0.32189
0.35343
-0.290104
-0.316642
0.00917978
0.0298363
-0.00092494
0.00999292
-0.399371
-0.358624
0.000146838
0.00923813
-0.00564908
-0.333681
-0.0564174
0.00436367
0.0261606
0.00773672
-0.106533
0.0200828
0.0189046
0.0073925
0.0133398
0.10527
-0.389104
0.0396433
0.0129568
0.0993341
0.0134822
0.0149782
0.0120964
-0.119194
0.0235238
0.0112026
0.00345617
0.00152025
0.0151677
0.00308006
0.00229697
0.00276618
0.0095211
0.000259016
0.00214227
0.00120514
0.000517479
0.00118554
0.0397462
-0.325347
0.00331659
0.00506219
-0.154391
0.00897494
-0.00828547
0.0215319
0.00191473
0.0169005
0.108162
0.0308459
0.0098995
0.0111673
0.0699407
0.0223476
0.015034
0.0139602
0.0276393
0.0168159
0.0444319
0.0259407
-0.395469
0.256579
0.0118068
-0.0871708
0.0155373
0.0106275
0.012482
-0.286366
0.252259
0.020393
0.0288944
0.0204197
0.0573609
-0.195466
0.0168048
0.0524875
0.0767602
0.026338
0.0434429
-7.15904e-05
0.0248073
0.0188413
0.0215441
0.036664
0.0184346
0.0369917
0.0361735
0.0304699
0.0280262
0.0111288
0.0167029
0.0206853
0.0129788
-0.510008
-0.117034
0.0377782
0.0810499
-0.208955
-0.277187
0.0232946
0.0179209
-0.323609
0.100416
0.129002
0.00202413
0.00174816
0.0387124
0.00949905
-0.234865
0.0233508
0.000659465
0.0168164
0.0198062
0.0165639
0.014903
0.0467234
-0.0206008
0.0197691
-0.299549
0.0614526
0.0202668
0.047131
0.0714959
-0.0084501
0.211376
0.0233258
-0.19593
0.524383
0.0543765
0.00760888
0.0108446
-0.0960293
-0.0699998
0.0330025
0.0205277
-0.0106517
0.0213251
-0.071103
-0.267362
0.0469261
0.0872665
-0.0668179
-0.289668
-0.322517
-0.379934
-0.32554
0.0606191
0.0062886
0.00838193
-0.0162792
-0.0496549
0.0106691
0.0141646
0.00201095
-0.503611
0.0598634
0.0145271
0.0173421
-0.281766
0.075652
0.00601968
0.084469
-0.346852
0.0436131
-0.0316963
0.0461722
0.072744
-0.305157
0.0199814
-0.319491
-9.0681e-05
0.0817526
0.0195167
-0.00774558
0.0148799
-0.0873028
-0.340429
-0.0156898
-0.00154479
-0.0176653
0.0132661
-0.0182119
0.0151716
-0.0199859
-0.0109845
-0.113879
0.0101755
0.00998417
0.0122077
-0.382378
-0.125114
0.0409868
-0.0279999
-0.131793
-0.043705
0.400484
-0.241293
0.00593123
-0.0650176
0.00863446
0.0285607
0.00554721
0.0540135
-0.0300606
0.0326205
-0.0854812
-0.0205812
0.000517278
-0.00417083
-0.00313572
1.95851e-05
0.0181839
0.0904379
0.0611162
0.0118738
0.0122297
-6.36623e-05
-0.0682573
0.00980248
-0.38318
-0.00335699
0.0358236
0.0110168
-0.181813
-0.367349
-0.0309148
-0.10491
-0.0314401
0.00958785
-0.247309
-0.26115
0.217927
-0.313769
-0.45513
-0.223798
0.016429
-0.0634988
-0.385946
0.328632
-0.0631968
-0.323331
-0.00869788
0.0453485
0.546266
0.0108549
-0.0167541
0.0272083
-0.0600215
-0.0269436
-0.339029
-0.294371
0.0343446
0.0356451
0.059792
-0.272855
-0.313365
-0.237877
0.002754
0.0242123
0.0722113
-0.0405584
-0.0542628
0.0589196
-0.00370728
0.00772058
-0.221511
-0.315524
0.00454418
-0.0810263
0.00857574
-0.0128699
0.0503872
-0.071449
0.0155232
-0.460966
0.428697
-0.316045
-0.30977
-0.0484843
0.0120219
-0.304265
-0.285582
0.0948193
-0.335209
-0.178822
0.840389
-0.00171371
-0.352616
-0.010604
-0.0664402
0.00519271
-0.461324
-0.308453
-0.313397
0.00556965
-0.24075
-0.357523
-0.0291363
-0.0362999
0.0853642
-0.313855
0.00973568
-0.498938
-0.335603
-0.396419
-0.068614
0.0104947
0.000575053
0.0870054
0.0990464
-0.0427366
-0.299785
0.279548
0.0667502
0.00840905
-0.434737
-0.495082
-0.330808
0.0232907
-0.347224
0.0611877
0.0437121
0.0142502
-0.253202
-0.243854
0.0132505
-0.314852
-0.299421
0.00956178
-0.0266887
-0.266374
-0.0245818
0.0159637
-0.38115
-0.343313
-0.130673
0.0812736
0.00824552
-0.331692
-0.300443
-0.382116
-0.192844
0.0202896
0.0814926
0.00501361
-0.393656
-0.309954
0.083279
0.0101751
-0.155109
0.0247925
0.0309217
-0.343176
0.0227925
-0.280916
0.0342609
-0.304162
0.0364532
0.00483492
-0.375548
-0.46433
0.00199884
-0.475443
-0.458428
0.0305964
-0.07839
-0.289433
0.00692151
-0.307259
0.0229581
0.0622174
0.0346683
-0.30937
0.0468349
0.0593188
-0.455957
0.0144362
-0.332719
-0.000230998
-0.326426
-0.516038
0.0750145
0.257154
0.422761
0.00744717
0.00572596
0.00265555
-0.338334
0.626307
0.00179583
-0.223604
0.0218959
-0.0887559
0.0569895
0.469691
-0.380565
-0.0626159
-0.0602538
0.0248164
0.00935871
-0.460916
-0.291674
-0.353213
-0.317538
-0.288094
-0.0140749
-0.368386
0.0510897
-0.277381
-0.316182
0.501474
0.575836
-0.317045
0.0902309
-0.294377
-0.0471162
0.0109016
0.396887
-0.00801872
-0.322302
0.0586508
-0.513598
-0.0415594
-0.208231
-0.031829
-0.325293
-0.286562
0.00534271
0.00532883
-0.321946
0.4224
0.659106
-0.338032
-0.310143
-0.33211
-0.0761972
-0.316395
-0.292784
-0.192727
-0.322071
0.741379
-0.350667
0.718889
-0.415617
0.306323
-0.316405
-0.0147678
0.160486
-0.507091
0.197662
-0.288178
-0.321312
-0.348428
0.853692
-0.29572
0.18545
0.124881
0.619581
0.0990574
-0.339463
-0.294251
-0.209175
0.0107478
0.0764218
0.494788
0.0100064
-0.0395537
-0.295909
0.110558
-0.140864
-0.347408
0.0221438
-0.303891
-0.177047
-0.161848
-0.367333
-0.0118552
0.0774468
-0.0127105
0.0578369
0.0857412
-0.343001
-0.361395
-0.00998409
-0.00637801
-0.469681
-0.517905
0.166751
0.177983
0.0622666
0.656212
-0.0994371
-0.304621
-0.389083
-0.3102
-0.0798267
0.0703773
0.746848
-0.456913
0.350859
-0.0213711
-0.434754
0.137398
-0.0835072
0.361241
-0.167293
-0.00162574
-0.32889
-0.09906
0.170111
0.790177
0.312111
0.74559
-0.375296
-0.310429
-0.418006
0.154983
0.252396
0.044426
0.368264
0.111424
0.477888
0.262744
0.00208879
-0.204879
0.00122776
-0.318011
0.864224
0.390454
0.638238
0.493031
-0.272852
-0.35269
-0.293957
-0.310579
0.0330472
-0.415126
0.0792756
0.582059
-0.364572
0.00915602
-0.30981
0.170824
-0.339325
-0.376879
-0.194227
-0.298339
-0.334935
-0.355559
-0.338234
-0.154351
-0.416991
-0.152264
-0.295106
0.131356
0.629758
-0.229638
-0.317035
0.812347
-0.317626
0.263675
-0.244876
0.362226
0.0635758
-0.363363
-0.404306
0.433012
-0.290521
-0.329035
0.165945
-0.28239
-0.0362956
-0.306353
-0.12677
0.0239875
0.547475
0.759707
-0.303473
0.204889
-0.337574
0.803158
-0.0263076
-0.321708
-0.0351976
0.740958
0.192297
-0.329108
-0.292342
0.431831
-0.221646
0.02342
0.340287
0.238317
0.274937
-0.261058
-0.331364
0.668929
)
;

boundaryField
{
    FrontBack
    {
        type            empty;
    }
    Top
    {
        type            zeroGradient;
    }
    In
    {
        type            zeroGradient;
    }
    Bottom
    {
        type            zeroGradient;
    }
    Out
    {
        type            fixedValue;
        value           uniform 0;
    }
    circle
    {
        type            zeroGradient;
    }
}


// ************************************************************************* //
