/*--------------------------------*- C++ -*----------------------------------*\
| =========                 |                                                 |
| \\      /  F ield         | OpenFOAM: The Open Source CFD Toolbox           |
|  \\    /   O peration     | Version:  2412                                  |
|   \\  /    A nd           | Website:  www.openfoam.com                      |
|    \\/     M anipulation  |                                                 |
\*---------------------------------------------------------------------------*/
FoamFile
{
    version     2.0;
    format      ascii;
    arch        "LSB;label=32;scalar=64";
    class       surfaceScalarField;
    location    "9";
    object      phi;
}
// * * * * * * * * * * * * * * * * * * * * * * * * * * * * * * * * * * * * * //

dimensions      [0 3 -1 0 0 0 0];

oriented        oriented;

internalField   nonuniform List<scalar> 
1171
(
-0.94464
0.94464
0.757588
-1.06842
0.310836
-0.230157
-0.716143
0.9463
0.0553603
-0.0681936
-0.278088
0.346281
-0.757588
0.0783882
0.6792
0.914405
-0.206767
-0.707637
0.821879
-0.990724
0.168845
-0.35789
-0.0407037
0.398594
-0.00819799
0.609845
-0.601647
-0.504021
0.892324
-0.388303
-0.426084
0.980556
-0.158676
0.250358
0.0917325
-0.342091
0.985674
-0.00511875
0.285279
-0.0349207
0.995504
-0.00983003
0.618515
-0.848672
-0.776998
0.596194
0.180804
0.276749
-0.78077
0.557409
-0.9136
0.356191
-1.07398
0.665968
0.40801
-0.644004
0.635806
0.0301503
-0.249457
0.219307
0.0267164
-0.637104
0.610387
0.467667
-0.508371
-0.867595
0.895761
-0.0281661
1.0162
-0.0206997
0.889658
-1.06884
0.179185
1.01848
-0.00227944
-0.696196
-0.0808021
1.24252
-0.828258
-0.414266
0.150888
-0.0852149
-0.411056
0.496271
-0.272773
0.186416
0.0863572
-0.599715
-0.468708
0.974912
-0.0852536
-0.0199183
0.858234
-0.838316
0.537888
0.704636
0.52463
0.0181003
0.449567
-0.78153
-0.104859
0.886389
0.55913
0.227685
-0.786815
0.038129
0.606521
-0.64465
-0.507419
-0.566558
-0.366493
-0.70235
0.0252397
0.248849
-0.274089
-0.945412
-0.0453899
0.990802
0.377009
0.0215847
0.816846
0.0975591
-0.601302
-0.0427023
0.0431466
-0.824677
0.0872286
0.889892
-0.97712
-0.402997
0.0253144
0.377682
-0.702419
-0.242993
-0.664196
0.751424
0.633018
0.259307
-0.583547
0.982343
-0.816683
-0.16566
-0.161876
0.0125964
0.14928
-0.460343
-0.0480278
-0.273422
0.90644
-0.00277524
0.435234
-0.432459
-0.482222
1.04135
0.714401
-0.81926
0.401635
-0.0757898
-0.325845
0.863148
-0.863148
-0.870526
0.0412735
-0.319361
-0.66529
0.645372
-0.0346796
-0.146382
0.181062
0.862176
-0.00394215
1.01217
-0.784489
0.224944
-0.321919
0.0969747
0.947808
-0.130963
-0.675547
-0.0388428
0.714389
0.147891
-0.230309
0.0824187
0.792868
-0.999636
-0.439119
0.309505
0.129614
0.663453
-0.636736
0.903802
-0.420781
-0.483022
0.53731
-0.695264
0.03463
0.660634
0.160993
0.652858
0.0568433
-0.709701
0.137545
-0.0962719
-0.510491
0.107494
0.030918
-0.901635
0.870717
-0.545371
-0.754817
0.0586219
0.503011
-0.0534441
0.276881
-0.834431
0.55755
0.425691
0.574309
0.598687
-0.555541
-0.39886
-0.0147931
0.413653
0.647561
0.215587
-0.668065
0.706194
0.0919546
0.871256
-0.00374951
-0.671797
-0.762204
0.793122
0.614015
0.08944
0.368104
-0.457544
-0.158709
0.546179
0.0603424
0.948194
-0.865293
-0.0829009
0.645295
0.337048
-0.435103
0.683596
-0.594156
0.408969
0.14844
-0.0571235
-0.6597
-0.209205
0.868905
-0.146654
-0.716494
-0.61184
0.3617
0.25014
0.654063
-0.657813
0.311602
0.970429
0.0417447
-0.762204
-0.158667
-0.00320925
0.714401
0.767803
-0.767803
0.843013
-0.828839
-0.0141738
-0.455473
0.881164
-0.191441
-0.31905
0.761979
-0.669539
-0.0924403
-0.846387
0.186687
0.113831
-0.715133
0.81926
-0.977969
-0.205159
0.206609
-0.00144992
0.15734
-0.967893
0.810553
0.550737
-0.0261063
-0.291276
0.594884
-0.303609
-0.676749
0.83409
-0.16262
0.682459
-0.854333
0.171874
0.992842
-0.574942
-0.4179
0.71068
-0.075603
-0.00485629
0.00650481
-0.00164852
-0.79752
-0.848092
0.131948
-0.66529
0.573413
-0.548099
0.129172
0.684965
-0.814137
0.776378
0.168262
0.49327
0.50673
-0.0880071
-0.686968
0.774975
0.957479
-0.00928553
-0.71068
0.793122
0.181832
-0.431289
-0.0430719
0.0221748
0.0208972
0.669665
-0.433968
-0.235697
0.6792
-0.0342633
-0.165633
0.552419
0.117246
-0.0204231
0.000332437
0.0200907
0.00563148
-0.0104878
0.141468
-0.217258
-0.930423
0.00253532
-0.137301
-0.0636911
0.152486
0.76793
0.739878
-0.165569
0.634995
-0.505823
-0.164696
0.38964
0.635005
0.0441948
0.231974
-1.06081
-0.977969
0.323565
0.645372
-0.163854
0.0174718
-0.770466
0.957671
-0.187206
0.479838
-0.102156
0.795114
0.304736
0.275535
0.00974417
-0.680145
0.680145
0.221213
0.665176
-0.0273915
0.462626
0.46888
0.0047805
-0.0478524
0.537312
0.0134244
-0.676749
0.565546
0.196433
0.00332541
0.00317941
-0.635005
0.180171
0.7775
-0.0129856
-0.748988
0.761974
0.758261
-0.822347
0.0640861
-0.776378
-0.0345126
0.0484225
-0.0139098
0.0864003
-0.124057
-0.104916
0.228973
-0.00696052
-0.0134626
0.717987
-0.730973
0.845516
0.100785
-0.320309
-0.509428
0.829736
-0.00152136
0.00152136
0.191816
0.471853
0.62688
-1.09873
-0.16235
-0.56527
0.72762
-0.0201544
0.201216
0.381132
-0.233241
1.01468
-0.542826
0.719234
1.05466
-0.427781
0.189691
0.83409
0.675413
0.217157
0.678604
-0.716494
0.319855
-0.0601696
0.0198154
0.0403541
0.870307
0.0118499
-0.882157
-0.665583
0.663304
0.544527
-0.665583
-0.675413
0.663304
-0.00461191
0.869895
-0.024379
-0.647561
0.579021
0.0685405
0.527968
0.57908
-1.10705
0.481785
0.532894
0.568009
0.470326
-1.03833
0.525416
0.529245
0.579021
-0.520451
-0.467968
-0.593686
-0.524399
-0.169368
-0.00700496
0.00700496
0.524874
0.525015
-1.04941
0.713849
-0.345745
-0.945238
0.370296
-0.675671
0.432678
0.00503137
-0.868061
0.863029
0.448602
-0.0251562
0.895463
-0.984504
-0.90296
0.0658146
0.837145
0.376633
-0.252077
-0.124556
0.684761
-0.770014
0.923141
-0.863575
-0.0595666
-0.0120646
-0.853228
-0.157249
0.842739
-0.68549
-0.893152
0.881087
-0.75354
0.684115
0.069425
-0.866266
0.0385567
0.827709
0.0035021
-0.00502346
0.425321
0.0613633
-0.887595
0.826232
-0.797632
0.709625
0.964363
0.0688037
-1.03317
0.0614025
-0.0189854
0.432638
-0.361402
0.0394836
0.882535
-0.877504
-0.765482
-0.873256
0.0200276
-0.140789
-0.894453
0.0308781
0.581666
0.0533284
-0.0382114
0.414844
-0.813872
0.852429
0.483022
-0.893217
-0.824348
0.0455465
-0.0505821
0.828004
-0.777422
-0.0314233
-0.816064
0.57972
0.17854
-0.0141319
0.909595
0.946902
0.908295
-0.877417
0.0468095
-0.0468095
-0.084317
-0.21493
-0.0371462
0.340505
-0.0169394
0.241272
0.878172
0.0162529
-0.0232134
0.658079
0.341921
0.798006
-0.599715
-0.740294
-0.765572
-0.635138
0.635138
-0.208803
-0.110558
0.643317
-0.885186
0.241869
-0.494597
-0.563221
0.295233
-0.997583
-0.894736
0.835169
-0.835865
0.855892
0.690743
0.141102
-0.831845
-0.696147
-0.192323
0.843393
-0.65107
0.0165641
0.0109687
0.00264868
-0.0136174
-0.0726662
-0.142264
0.93855
0.660735
-0.309139
-0.351596
0.536178
0.741205
-0.519992
0.0138287
-0.286602
0.0665208
0.753667
-0.820188
-0.30684
-0.0914389
0.139445
-0.987298
0.105142
-0.744084
0.116242
0.709855
-0.826097
-0.843149
0.0990648
0.692741
-0.78418
0.232505
-0.356562
-0.670472
-0.0256754
0.373745
0.722962
-0.0393665
-0.0031235
0.0031235
-0.00667252
-0.0180965
-0.0420731
-0.0179148
0.0341676
-0.617143
0.296906
0.709532
-0.807414
0.0978817
-0.680092
0.796334
0.78737
-0.0946298
-0.691011
-0.152138
-1.08828
0.0210167
0.0257928
-0.550622
-0.84826
-0.8081
0.393834
-0.226431
0.302026
-0.0755949
-0.549458
-0.00116438
0.529698
0.713439
-0.0474529
-0.0162382
1.01297
0.496306
0.196697
-0.693004
-0.468481
-0.080977
-0.00339424
0.0143629
0.680552
-0.889757
0.00578266
-0.00578266
-0.698697
0.716858
-0.0181618
-0.506692
-0.123339
-0.6888
0.138321
0.636654
-0.054667
-0.881123
-0.315426
0.291593
0.023833
0.761009
-0.663127
0.338623
0.255165
-0.593789
-0.167708
-0.690342
-0.135756
-0.20239
-0.177104
0.469716
-0.517744
0.172899
0.706241
-0.87914
0.53731
-0.230891
0.00446027
0.0156363
-0.192741
0.594971
-0.0924486
-0.502522
-0.287037
0.30764
-0.0206038
0.543438
0.170411
0.0970289
-0.312674
0.17096
0.141713
-0.106473
-0.0521935
-0.28691
0.0908371
0.0488331
-0.13967
0.824376
-0.379613
-0.12708
0.555004
0.293964
-0.603102
0.534323
-0.534323
-0.24345
-0.541362
-0.251929
-0.541362
-0.639332
-0.848651
0.179112
-0.416759
0.753475
0.0468719
0.165862
0.5571
0.114686
0.119853
0.0096265
-0.129479
-0.125166
0.673371
-0.932443
0.423016
-0.0210665
0.067314
-0.0462476
-0.7457
-0.177235
-0.535246
0.731943
-0.534939
-0.0264356
-0.166305
-0.342785
-0.0799241
0.0799241
0.0490461
-0.000623598
0.14087
0.249832
-0.7093
0.174053
-0.00125102
0.47456
0.52544
0.806654
0.0199014
0.0316176
-0.051519
-0.311153
-0.569969
-0.543439
0.115477
-0.120071
0.0045938
-0.108092
-0.411499
-0.126562
0.763216
-0.574464
-0.171236
-0.0138392
0.0081059
0.183415
-0.506987
-0.199177
-0.191618
-0.0256398
-0.476646
0.428125
0.0485208
-0.0197608
0.297824
-0.864383
-0.528897
0.63805
-0.858727
0.691019
0.44364
-0.0330948
0.0587941
-0.0256993
0.133207
-0.63767
-0.00242635
0.640096
-0.892552
0.644464
-0.728781
-0.0972741
0.00719574
-0.00719574
-0.298845
0.433917
-0.00127882
-0.00670618
0.0266076
0.574649
0.675717
-0.758618
0.0154686
0.0017454
-0.00486889
0.00487088
-0.00487088
-0.480978
0.651389
0.0155945
-0.0155945
-0.779861
-0.00840819
0.0119103
-0.486013
0.660067
0.552423
-0.570585
0.0699252
-0.0699252
0.0153947
-0.0632471
0.0095983
-0.937617
0.519716
-0.556573
-0.00502346
0.600611
0.0110915
-0.611703
-0.7077
0.133236
-0.315175
-0.0125519
0.327727
-0.0234063
-0.0240466
-0.606661
-0.0310093
0.0257928
0.00562803
0.000154632
-0.00282222
0.00282222
-0.415208
0.275538
-0.446461
0.135822
0.662184
-0.135903
0.00577217
-0.00577217
0.50919
-0.092143
0.0087171
0.0185971
-0.000152588
0.630722
-0.722865
-0.771257
0.644177
-0.122656
0.333186
0.766038
-0.00667252
-0.0932069
0.0963863
-0.680448
0.54873
-0.307094
-0.107089
-0.0269404
-0.0263084
0.0137028
0.482304
-0.0871403
-0.415382
0.687077
0.00213408
0.0048686
-0.0048686
-0.23217
-0.165376
-0.57183
0.618702
-0.138011
0.507744
-0.168535
0.78705
0.772436
0.00562803
-0.663711
0.606803
0.0193193
-0.00377954
-0.0155398
0.624416
0.0937756
-0.0122203
0.0675697
-0.0553494
0.00939807
-0.00939807
-0.806671
0.0231157
-0.0445976
0.0631947
-0.0858292
0.0858292
0.0017454
-0.000900346
0.708659
0.068841
-0.317014
-0.0944853
-0.518699
0.00548008
-0.0667589
0.0667589
-0.0361243
0.0819645
-0.0819645
0.0270253
-0.0270253
-0.357933
-0.0771701
0.238694
0.0708114
0.0446973
-0.77238
-0.0630752
0.159782
0.0220497
-0.244141
0.0817966
-0.0817966
-0.4667
-0.0510439
0.228714
-0.0094075
0.00280581
-0.650943
0.655555
0.0345849
-0.0707092
0.0208502
-0.0840973
-0.0120393
-0.158102
0.170141
-0.149055
-0.207506
-0.0810763
0.0810763
0.0541077
-0.0541077
-0.0276933
-0.0938614
0.121555
-0.0268148
-0.190062
-0.00185121
-0.00301768
-0.218323
0.49386
-0.0258164
0.441744
0.00923133
0.0108593
-0.0513097
0.0513097
-0.731207
0.316636
-0.126945
-0.207744
-0.0225652
-0.0180253
0.0208311
0.197184
0.031789
-0.00215214
0.00199955
0.0855115
0.0299653
0.0565129
0.103269
-0.02957
0.0133318
-0.000914067
0.00459765
0.00471363
0.00427231
-0.00898593
-0.0031232
0.0113654
0.0272355
-0.0272355
0.0495444
-0.0434146
0.0434146
-0.190442
0.015457
0.0283934
-0.0764812
0.0176273
0.0779737
-0.0779737
0.245705
-0.237522
0.0884662
-0.0667207
-0.170801
-0.0148099
0.0148099
0.408048
0.252586
-0.522629
-0.0803663
-0.0397043
0.54387
-0.00596463
-0.0614179
-0.468401
0.073027
-0.151709
0.169063
-0.0173541
-0.0480084
0.0480084
0.839065
-0.591762
-0.00739172
0.00426852
-0.00590505
-0.287793
-0.000167894
0.00475286
-0.0456034
-0.627081
0.569743
-0.648852
0.0143174
0.161359
0.0154491
0.0242844
-0.157614
-0.333684
0.257202
-0.0545654
0.0268722
0.172241
0.135399
0.246752
0.263436
-0.247987
0.00486826
-0.115552
-0.220296
0.066991
-0.0104782
0.160775
-0.136491
-0.0683989
0.15391
-0.393686
0.12207
-0.104443
0.0598114
-0.475193
0.173816
0.179364
-0.247763
0.00921327
-0.178873
0.178706
0.00382289
0.150087
-0.02782
0.0487046
0.460485
0.0124256
0.0164884
-0.00262379
0.0368863
-0.23765
-0.204069
0.58655
0.166839
0.0618756
0.0750982
-0.0637773
0.0874925
-0.103032
-0.0304044
0.165568
-0.151251
0.0301912
-0.0104094
-0.106364
-0.0287859
0.043523
0.253942
-0.0247602
0.0033952
-0.309662
-0.00858967
0.218848
0.140216
0.17642
0.0563324
0.0957383
0.045059
0.529589
-0.0099
0.10605
0.0408826
0.0675244
-0.108407
-0.270043
-0.196549
0.025748
-0.221252
0.283914
)
;

boundaryField
{
    FrontBack
    {
        type            empty;
    }
    Top
    {
        type            calculated;
        value           uniform 0;
    }
    In
    {
        type            calculated;
        value           uniform -1;
    }
    Bottom
    {
        type            calculated;
        value           uniform 0;
    }
    Out
    {
        type            calculated;
        value           nonuniform List<scalar> 10(1.04979 1.04842 1.06165 1.05831 1.04941 1.05364 1.04989 1.05782 0.777774 0.793291);
    }
    circle
    {
        type            calculated;
        value           uniform 0;
    }
}


// ************************************************************************* //
