/*--------------------------------*- C++ -*----------------------------------*\
| =========                 |                                                 |
| \\      /  F ield         | OpenFOAM: The Open Source CFD Toolbox           |
|  \\    /   O peration     | Version:  2412                                  |
|   \\  /    A nd           | Website:  www.openfoam.com                      |
|    \\/     M anipulation  |                                                 |
\*---------------------------------------------------------------------------*/
FoamFile
{
    version     2.0;
    format      ascii;
    arch        "LSB;label=32;scalar=64";
    class       volVectorField;
    location    "9";
    object      U;
}
// * * * * * * * * * * * * * * * * * * * * * * * * * * * * * * * * * * * * * //

dimensions      [0 1 -1 0 0 0 0];

internalField   nonuniform List<vector> 
808
(
(0.889689 -0.0159819 0)
(1.0048 -0.0374119 0)
(1.08848 0.0366416 0)
(1.07147 0.0150009 -1.88212e-21)
(1.47917 -0.28448 0)
(0.951059 -0.0225482 0)
(1.12004 -0.0537116 1.30121e-21)
(1.03788 0.00359466 0)
(1.36208 -0.224793 2.94313e-20)
(1.23503 -0.0844367 -1.56309e-20)
(1.1049 -0.0478496 5.5596e-21)
(1.39084 -0.25434 0)
(0.982353 -0.00220755 0)
(0.713393 -0.0213117 0)
(0.973765 0.0448221 2.04947e-20)
(1.04556 0.00236615 0)
(0.861797 0.0130919 -6.33445e-21)
(0.981264 0.0072465 -6.94382e-23)
(1.07371 0.0239453 0)
(1.10237 0.0106298 0)
(1.11014 -0.0700365 -7.75931e-21)
(0.929971 0.124471 1.0387e-19)
(1.07019 0.0146035 -9.60924e-21)
(1.17371 -0.0240744 0)
(0.950735 0.178471 0)
(1.34457 0.0322697 -3.32019e-20)
(1.2895 -0.169532 1.35957e-20)
(0.983942 -0.00224918 -4.41533e-21)
(1.05827 0.0108815 0)
(1.04846 0.00491305 -2.53051e-22)
(0.993912 -0.00033483 3.25837e-24)
(1.11239 0.000848149 0)
(1.02063 0.00218795 0)
(1.06827 0.0061234 3.38064e-21)
(1.31421 -0.0587521 1.14161e-20)
(0.740032 -0.119685 1.06404e-19)
(0.855977 -0.0453788 9.49983e-23)
(1.00926 0.00925946 7.88931e-22)
(1.15314 0.0548686 9.24877e-22)
(1.07836 -0.0045664 0)
(1.26604 -0.0511856 -2.25887e-20)
(1.28196 -0.123905 0)
(0.990826 0.00230664 -3.99604e-21)
(1.07032 -0.0510944 3.33143e-21)
(1.25448 -0.0525508 0)
(1.00573 0.017683 -1.55132e-20)
(0.98885 -0.00454725 1.24966e-21)
(1.26077 -0.247636 1.57214e-20)
(1.14868 0.0605925 3.65966e-21)
(1.41926 -0.175208 -4.25193e-20)
(1.10882 -0.0582491 -1.35832e-21)
(1.1493 -0.0692272 0)
(1.11746 -0.010658 3.51751e-21)
(1.05391 0.00305321 0)
(1.31304 0.223261 6.26516e-21)
(1.07126 0.029355 7.98481e-22)
(1.0414 0.000833313 0)
(1.07277 -0.0390519 3.6341e-21)
(1.24096 -0.0880064 1.67786e-20)
(1.11614 0.0423785 1.34874e-21)
(-0.393868 0.184041 0)
(1.22179 -0.212048 -1.11712e-20)
(1.07697 -0.0256118 0)
(1.44824 -0.058389 -3.37543e-20)
(1.077 -0.0322007 -4.28519e-21)
(1.04521 -0.0316943 -3.90337e-21)
(1.39196 -0.12968 3.52536e-20)
(0.701459 -0.00217286 0)
(1.07575 -0.0544353 0)
(1.45184 -0.354596 0)
(0.82783 0.0104195 1.88207e-23)
(1.26344 -0.142265 -4.35289e-20)
(0.987334 0.0497373 0)
(1.04437 -0.0327814 -3.24778e-22)
(1.12761 -0.337205 -5.09395e-20)
(1.08438 -0.0598404 -2.69243e-21)
(1.13282 0.0427545 8.83806e-22)
(1.31718 0.488324 2.50797e-20)
(1.10532 -0.0380804 0)
(1.01118 0.27628 -1.70395e-19)
(1.34236 0.0237739 1.94584e-20)
(0.736149 -0.00831993 0)
(0.902542 -0.00309499 -5.56769e-21)
(0.972439 -0.114797 3.79542e-21)
(1.06961 -0.0736697 2.51022e-21)
(1.17933 0.0326572 2.16002e-21)
(1.29457 -0.237981 0)
(1.34512 0.275469 0)
(1.09943 0.0125781 -8.04279e-22)
(1.38884 0.0701101 3.61518e-20)
(1.07018 -0.0120496 3.99917e-21)
(1.32936 -0.114896 -1.70884e-21)
(0.965306 0.0221744 1.5301e-20)
(1.00459 -0.0203731 0)
(1.10649 0.0100255 8.77571e-22)
(1.38989 -0.0404306 -9.50425e-20)
(0.891893 -0.00581071 -2.0626e-21)
(1.34924 -0.0418382 0)
(1.33538 -0.0756277 0)
(1.44132 -0.0987993 -5.34129e-20)
(1.07455 -0.0375446 -1.21875e-22)
(1.10995 0.0258438 1.66397e-22)
(0.945988 0.0248366 4.22644e-21)
(1.17039 0.0291127 -1.0391e-21)
(1.3217 0.0626533 -3.19705e-20)
(0.990765 -0.00295511 9.55269e-21)
(1.44398 -0.0536159 0)
(1.054 -0.0061039 0)
(1.08693 0.0381407 -1.01845e-21)
(1.21103 -0.21656 -4.35916e-21)
(1.26346 0.048607 1.52337e-20)
(1.04266 0.0454186 -1.14798e-19)
(1.11864 0.0416675 9.41892e-23)
(1.18924 0.0789104 3.71905e-21)
(0.90402 0.00985545 0)
(0.915846 -0.0475764 7.17595e-20)
(1.12761 0.0464099 2.78501e-21)
(1.44885 -0.26687 -2.01207e-20)
(1.04347 -0.0149561 -2.70626e-21)
(0.9236 0.0135106 2.05303e-21)
(-0.401925 0.0770128 0)
(0.860519 -0.0181608 1.5064e-21)
(0.783029 0.0313039 0)
(1.07109 -0.00346105 -4.95376e-23)
(1.01522 0.0275673 0)
(1.30671 0.313058 9.72848e-21)
(1.03377 -0.0549739 -2.45362e-20)
(1.22598 0.0878682 2.226e-21)
(1.15393 -0.0500157 0)
(1.09373 -0.0218994 0)
(0.646451 -0.0703702 0)
(1.04116 0.0128487 -2.01237e-21)
(1.24633 -0.0376381 1.32371e-20)
(1.0651 0.108165 -2.88589e-20)
(0.927927 0.011311 0)
(1.09878 0.038734 5.2786e-22)
(1.13954 0.0857656 2.36309e-21)
(1.05797 -0.0078326 -9.51093e-22)
(0.956978 0.0352873 -2.73097e-22)
(1.11486 0.0245753 -1.39497e-22)
(-0.00361314 0.0379875 0)
(1.08898 -0.019106 -4.49577e-21)
(1.10787 0.0710095 1.97627e-21)
(0.698078 0.0461731 -5.05809e-22)
(1.25547 0.161678 1.79303e-21)
(1.14263 0.0701252 3.1291e-21)
(1.04908 0.020851 1.17095e-20)
(0.993524 0.0298386 0)
(1.15196 -0.130886 -1.78894e-20)
(1.05214 0.000284394 0)
(0.897306 0.0401976 9.62413e-22)
(0.968499 0.2782 1.3642e-19)
(0.951238 0.0314103 0)
(0.819992 0.0941545 0)
(-0.168621 -0.0255344 -7.44674e-20)
(1.32622 0.119792 -1.44788e-20)
(0.651206 -0.0182611 0)
(1.42217 0.0258878 0)
(1.11609 0.0712565 0)
(1.34308 0.0834383 1.58438e-20)
(-0.041556 -0.149754 0)
(-0.0713803 0.0555843 3.58103e-20)
(1.02879 -0.0653199 9.17487e-20)
(0.979091 0.0343124 -4.97141e-22)
(0.857042 0.0037729 0)
(1.02307 -0.00300304 4.70436e-21)
(0.883461 0.0328009 0)
(0.791195 -0.0583028 -9.91353e-20)
(1.04194 0.0790181 -4.9781e-21)
(1.07321 -0.0220957 1.5943e-21)
(1.08573 0.00488934 1.28131e-21)
(1.01268 0.0669441 -1.01757e-20)
(0.870251 0.0323484 -3.11496e-21)
(1.14244 -0.348344 3.50535e-22)
(0.917325 -0.0184985 0)
(1.0631 0.0116445 -8.27156e-21)
(0.878127 0.00454891 -7.71711e-21)
(1.39309 -0.167813 2.59445e-21)
(0.693499 0.0221204 0)
(1.05594 -0.146348 0)
(1.0557 -0.0210477 1.75594e-21)
(1.38581 0.203659 1.1641e-20)
(1.1049 0.023728 -3.42254e-22)
(1.03471 0.0215177 1.69884e-20)
(0.709747 0.0318989 -7.21501e-20)
(0.814375 -4.41226e-05 1.52804e-20)
(1.13323 -0.0132368 3.17551e-22)
(1.39669 -0.0547223 -6.38244e-21)
(1.06663 -0.014559 -3.56779e-21)
(1.33301 -0.0215701 5.46935e-21)
(-0.179019 0.0043693 5.43408e-20)
(1.27584 0.00187853 0)
(0.616657 -0.00059416 0)
(1.06126 -0.013866 -3.99195e-21)
(1.10029 0.0203239 -2.77754e-21)
(0.0534253 0.0585506 0)
(0.910672 -0.000734554 7.67694e-23)
(1.05595 -0.0120337 -2.11328e-21)
(1.04875 -0.00762996 1.43558e-21)
(1.07629 0.0294895 -5.79895e-21)
(1.00228 0.0266262 2.87754e-21)
(1.00979 -0.0033893 1.86411e-21)
(1.06032 0.00647231 0)
(0.337717 -0.0455881 0)
(1.0458 -0.0640623 0)
(1.157 0.0951915 -3.1699e-20)
(-0.0371271 -0.168108 5.11186e-20)
(1.0773 -0.0102806 -1.21561e-23)
(1.08197 0.0337814 0)
(0.745571 0.030402 -1.4803e-22)
(1.05148 -0.00146257 1.72422e-21)
(-0.00880683 -0.0403284 -1.58226e-19)
(0.930612 -0.00511758 -6.85807e-20)
(0.606512 0.00115635 0)
(1.04598 -0.00118925 0)
(0.905845 0.000704253 -2.39304e-22)
(1.02765 -0.118018 6.13757e-21)
(1.27609 0.389774 3.76696e-21)
(1.05605 0.00126833 -3.35726e-23)
(1.06306 -0.0293352 -3.65085e-21)
(1.05209 0.00275069 0)
(1.35932 0.414042 -4.61247e-20)
(0.682181 -0.00433279 0)
(0.9101 -0.00973368 -2.67441e-21)
(1.07328 0.00502896 -3.20884e-22)
(0.645773 0.0120965 0)
(1.10052 -0.00518752 0)
(0.16958 -0.0251501 -6.19805e-20)
(1.11953 -0.0355994 -7.17319e-21)
(0.876072 -0.0024904 2.00566e-21)
(0.992746 -0.00121694 0)
(0.656126 -0.00556873 0)
(0.883588 -0.00804558 -2.56612e-21)
(0.666307 -0.0124376 -1.82007e-22)
(1.30794 0.0158317 3.58863e-22)
(1.07128 0.00794945 -3.34604e-21)
(0.856908 0.004976 -1.85581e-21)
(1.05439 0.00029612 3.99419e-22)
(1.06259 -0.00488135 3.1634e-23)
(0.653112 0.00574416 4.5351e-21)
(1.04332 -0.00205977 3.51791e-22)
(1.04962 0.000767433 0)
(1.05606 -0.00240407 0)
(0.644051 0.00941866 0)
(1.05002 0.000327524 0)
(1.06021 -0.00185703 -7.93603e-22)
(1.05774 -0.00273607 0)
(1.04987 0.00174095 0)
(1.05445 -0.000799375 0)
(1.12509 0.062717 0)
(-0.0225875 -0.05427 5.04999e-20)
(1.05101 -0.00165471 4.76671e-22)
(1.0483 -0.00318407 0)
(1.32832 0.0814295 2.04869e-20)
(1.04623 -0.00616003 9.52726e-22)
(1.08688 0.0326234 -6.31171e-22)
(1.05653 0.00405255 3.608e-21)
(1.04943 0.00134803 0)
(0.647062 -0.0021632 5.35238e-21)
(1.04321 0.0365255 9.89697e-21)
(1.11887 -0.0145662 0)
(1.06204 0.0119408 -1.91379e-21)
(1.05463 0.00375672 2.17378e-21)
(0.628711 0.0144815 -1.24366e-20)
(1.06473 0.00210543 3.54434e-21)
(1.05939 0.00737367 -3.9213e-21)
(1.05076 -0.00077185 0)
(1.19322 0.050054 -1.22336e-20)
(1.05297 0.000260044 -2.47061e-21)
(0.957841 0.0622168 8.38395e-21)
(1.03729 0.0147384 0)
(-0.022549 -0.0219938 0)
(0.975591 0.112207 -1.65138e-20)
(1.04843 0.00701083 0)
(1.31723 -0.0872626 2.95485e-20)
(1.05347 -0.00781715 6.58617e-22)
(1.05468 0.0101807 3.76931e-21)
(1.07266 -0.00329326 -1.91701e-21)
(1.39117 -0.0176338 1.37761e-19)
(1.02112 -0.326922 5.14286e-20)
(1.04842 0.00421285 -3.68512e-22)
(1.03198 0.0226713 0)
(1.045 -0.00192911 0)
(0.899261 0.00410912 -1.87887e-20)
(1.29962 -0.123382 -5.01732e-20)
(1.05895 0.013555 0)
(0.860294 0.0445628 1.08681e-20)
(0.552382 -0.0452801 0)
(1.03148 -0.00578753 4.99594e-21)
(0.950637 0.0665284 -1.24733e-20)
(0.767806 0.00665267 3.23104e-22)
(1.06391 0.00707326 0)
(1.05978 -0.00203392 -7.68213e-22)
(1.06426 0.00173385 3.62568e-21)
(1.0033 -0.00461676 -7.11223e-21)
(1.06532 0.0156499 -3.30577e-21)
(1.01226 0.0397574 0)
(1.09348 0.0653343 0)
(1.09905 -0.013833 4.92427e-21)
(1.02677 -0.00871427 -5.0467e-21)
(1.05498 0.00517602 3.52665e-21)
(1.05019 0.00981193 -2.93537e-21)
(1.04612 0.00960201 4.70108e-22)
(1.05055 0.0144581 0)
(0.417762 -0.139502 1.4402e-20)
(1.30956 0.0683919 -2.4874e-20)
(1.00176 0.0521541 -9.80785e-21)
(0.277681 -0.040847 1.31507e-20)
(1.44197 -0.12542 2.98189e-20)
(0.878963 -0.0314012 6.75064e-20)
(1.10263 0.000610773 -5.0564e-21)
(1.04921 0.00790489 -3.24057e-22)
(-0.0558794 -0.18323 -8.78233e-21)
(0.99484 -0.00748462 0)
(1.03377 -0.0869283 -1.46214e-20)
(0.840757 -0.0322621 -1.04985e-22)
(1.05436 -0.0457222 3.85768e-22)
(0.985957 -0.0118252 -9.85832e-22)
(0.672926 -0.00579549 1.11245e-21)
(1.41889 -0.383857 -1.54924e-20)
(1.05785 0.0114416 0)
(1.05833 -0.0029292 -6.20591e-22)
(1.09994 -0.0104588 -1.15801e-21)
(1.07494 0.00103502 0)
(1.0471 -0.00721171 -6.02506e-21)
(1.10359 -0.00797335 1.28662e-21)
(0.946026 0.00111055 1.79592e-20)
(1.13536 -0.0583757 1.11181e-20)
(1.03853 -0.0167 3.32601e-21)
(-0.0475099 -0.098511 0)
(0.409171 0.105408 -1.31097e-20)
(1.08108 0.00668339 0)
(0.967875 0.0802026 -9.88767e-21)
(0.98795 0.0836659 0)
(1.11885 -0.0045871 -2.84567e-21)
(1.01452 0.0266496 0)
(1.07747 -0.00699482 0)
(1.41027 -0.115863 2.56792e-20)
(0.796308 -0.089292 0)
(1.14374 -0.0800198 1.82434e-20)
(1.05344 0.00404512 1.43327e-22)
(1.04484 -0.0105645 1.39166e-21)
(1.27199 -0.0750913 -1.75724e-20)
(1.24038 0.11603 -9.02402e-21)
(1.13315 -0.0348518 1.28554e-20)
(1.0985 -0.00500485 0)
(1.14425 -0.0797957 0)
(1.08423 0.00501159 1.43819e-21)
(1.22507 -0.0567259 0)
(1.41284 0.198098 -2.85203e-20)
(0.920041 -0.0117102 1.33566e-21)
(1.02965 0.0108871 1.68974e-20)
(1.2257 0.067624 -3.9886e-22)
(-0.0138897 -0.0271685 0)
(-0.0328165 -0.0971947 0)
(0.179328 -0.0453051 -5.26135e-20)
(-0.0361825 -0.182989 0)
(0.864005 -0.0185113 -1.18501e-20)
(1.13517 0.00741042 8.28548e-22)
(1.09732 -0.0946671 -2.43807e-21)
(1.19813 -0.131059 -4.6828e-21)
(1.20712 -0.0650584 0)
(0.858996 -0.000837931 -1.88277e-21)
(1.11632 0.0179432 0)
(1.07657 0.00108884 5.18955e-22)
(0.50594 -0.110567 0)
(0.858951 -0.0512978 -4.272e-22)
(1.10875 0.0496147 0)
(1.07267 -0.000458749 0)
(0.823157 0.178644 6.3887e-20)
(0.77968 -0.0653676 -2.1511e-21)
(1.06013 0.0105618 1.24861e-21)
(1.0159 0.016222 -6.62689e-21)
(0.193731 -0.125723 0)
(1.13034 -0.0439233 -2.11572e-20)
(1.18828 0.081554 -4.7531e-21)
(1.1159 -0.0599508 1.03059e-21)
(0.820891 -0.0926969 1.02527e-20)
(-0.0607463 -0.136766 -1.06061e-19)
(1.11341 0.0737518 0)
(-0.0355443 0.0415501 0)
(1.13935 0.0564375 1.18087e-21)
(0.686572 -0.106642 -1.10342e-20)
(1.05321 0.00444678 -7.58016e-21)
(1.09662 -0.0516357 0)
(1.08761 -0.0787931 1.88991e-21)
(1.27753 -0.208928 1.70861e-20)
(0.545104 -0.0544596 -1.01617e-20)
(1.14633 -0.0569421 2.57242e-21)
(1.12617 -0.0984835 3.8722e-23)
(0.388448 -0.073163 1.01842e-20)
(1.13776 -0.130966 -5.72511e-21)
(1.10588 0.0408858 0)
(1.11691 0.0821278 0)
(1.16489 -0.0827628 4.4556e-21)
(1.14705 0.08011 4.29585e-21)
(0.670119 -0.129179 -3.36129e-20)
(1.19607 -0.114698 -5.24387e-21)
(1.07913 0.0465387 2.82648e-21)
(0.56173 0.00273449 6.94078e-21)
(0.57851 0.0868471 -1.19909e-19)
(0.0348253 0.0277132 2.20265e-20)
(1.17251 0.18143 -6.64702e-21)
(1.23979 -0.496722 7.15217e-21)
(1.36235 0.109654 -1.88414e-20)
(1.19143 -0.0769472 -5.28018e-21)
(0.937236 -0.236598 8.87468e-20)
(-0.172903 0.025789 0)
(1.05248 -0.0116669 -4.51645e-22)
(0.0884602 0.251314 -4.01741e-21)
(1.12984 0.0735267 -1.02182e-21)
(1.06663 -0.0164476 5.17144e-21)
(1.07085 -0.0216885 0)
(0.792963 -0.123323 0)
(1.16509 -0.0395723 0)
(1.23374 0.127914 2.10257e-21)
(1.24502 0.00789214 -3.20614e-20)
(1.14132 -0.0510893 -5.28409e-21)
(0.641324 0.0183079 0)
(0.783109 0.0066384 0)
(0.797703 -0.00573509 -5.84827e-24)
(0.656164 -0.0108988 0)
(1.06597 -0.00127746 0)
(1.01827 -0.00924883 1.92555e-20)
(0.552412 -0.121451 0)
(0.958897 0.00857739 0)
(1.04927 0.00255607 0)
(1.17451 0.181034 9.31031e-22)
(1.23039 0.0665302 1.13973e-20)
(0.964575 -0.0369751 3.02681e-21)
(1.3012 -0.40329 -1.15643e-19)
(0.744044 -0.151147 1.89884e-21)
(1.18609 0.0391297 4.16955e-21)
(1.06697 0.0031784 0)
(-0.336328 -0.0889393 0)
(-0.240236 0.0169657 0)
(1.14758 -0.050882 -8.67817e-21)
(1.33089 -0.288472 -3.59702e-20)
(1.22312 0.128433 0)
(1.07096 -0.00246342 -2.79657e-21)
(0.501805 -0.0773527 0)
(1.52095 -0.164759 8.37938e-20)
(0.410705 0.516058 1.07315e-19)
(0.280685 -0.0566266 0)
(1.1066 -0.279609 1.24141e-19)
(0.504913 0.209857 0)
(-0.0349637 -0.0193398 1.35114e-20)
(1.28084 0.120666 0)
(-0.0481538 0.0481813 2.98997e-21)
(0.983283 -0.0501376 0)
(1.25236 -0.109533 -1.28244e-20)
(-0.170975 -0.115593 -8.88335e-21)
(1.11025 -0.0474799 -1.5467e-21)
(1.1453 -0.079991 -7.69461e-21)
(0.575529 -0.52346 -8.74867e-20)
(1.06327 0.00202527 -1.47906e-21)
(1.19833 -0.123343 -3.61913e-22)
(1.17951 0.241255 -1.37044e-20)
(1.16854 -0.183392 -5.00508e-21)
(1.14988 -0.0385505 -1.64288e-21)
(-0.21135 0.000948535 -6.20268e-20)
(0.0303087 0.0547947 -8.10578e-21)
(1.21946 0.089719 1.58411e-21)
(1.05685 -0.0496838 0)
(0.725884 -0.0129574 -5.95849e-21)
(1.41088 -0.444234 9.08463e-20)
(0.95199 -0.0890944 -6.51493e-20)
(1.42405 0.135314 8.37167e-20)
(1.07701 -0.0500509 1.27749e-22)
(1.14768 -0.108248 5.84355e-21)
(1.06065 -0.00487627 0)
(1.17148 -0.00193503 0)
(1.27785 -0.110122 5.51835e-21)
(1.08704 -0.0128595 -4.51563e-21)
(1.23154 -0.203527 5.57361e-21)
(1.07815 0.0742995 -1.91069e-21)
(1.44978 0.0188981 -5.89247e-20)
(0.458401 0.0265553 0)
(1.19437 -0.138544 3.4318e-22)
(1.25336 0.129395 0)
(1.07782 0.0716705 -1.87295e-21)
(1.14633 0.0175638 0)
(1.04615 -0.0100903 8.01247e-21)
(1.23293 0.0340192 2.00604e-20)
(1.06174 -0.000545556 0)
(0.05273 -0.0303001 1.65693e-19)
(0.883364 -0.214914 -6.9608e-20)
(1.39096 0.0691506 -3.92498e-20)
(-0.131426 -0.115247 4.51215e-20)
(1.17282 0.0476445 4.42659e-22)
(1.03708 -0.00326887 -2.27892e-21)
(-0.130528 -0.0757876 -4.7045e-20)
(-0.0282061 -0.0148372 -2.87708e-20)
(1.01937 -0.0261729 0)
(-0.0283779 -0.0369133 0)
(1.22331 0.156294 0)
(0.112046 -0.110273 0)
(1.11473 -0.0478715 0)
(0.134646 0.0287474 0)
(1.09516 0.0522884 0)
(1.14164 0.195925 0)
(1.21073 0.0946002 -3.16857e-21)
(0.579347 -0.287217 -2.29972e-20)
(-0.267036 0.00712244 0)
(1.15986 -0.097105 6.78114e-20)
(1.05486 -0.00139427 1.18539e-21)
(1.39001 0.149176 0)
(-0.0384026 -0.0415859 0)
(1.15693 0.00751487 6.60393e-21)
(1.16436 -0.0261258 -2.9384e-21)
(1.1663 0.38359 0)
(0.263518 -0.101941 6.4909e-20)
(1.12338 0.0586801 6.13103e-22)
(0.235847 -0.0524234 -5.60207e-20)
(-0.0602712 0.0473899 -3.4581e-20)
(-0.0318083 0.0489413 8.8609e-20)
(0.610566 0.169625 5.29953e-21)
(1.05142 -0.00652477 2.14459e-21)
(1.09015 0.0421802 9.24489e-22)
(1.02186 -0.0116885 0)
(1.0726 -0.0637772 -1.71378e-20)
(1.19562 0.0881636 -1.22494e-20)
(-0.0120938 -0.0491903 1.0806e-19)
(0.985305 -0.0731785 -5.45552e-20)
(0.76145 -0.00219171 1.12439e-20)
(1.06288 0.00629423 -1.85995e-21)
(0.0721034 -0.0325775 3.6068e-20)
(0.246049 -0.03919 -5.07193e-20)
(0.405646 -0.0742088 -5.88522e-20)
(1.17436 0.0785651 4.53334e-21)
(-0.0559668 -0.0360947 0)
(1.08016 0.0790414 5.63998e-21)
(1.19625 -0.186392 9.43121e-21)
(1.14571 -0.185959 -9.09369e-21)
(1.30107 0.100237 0)
(1.52086 -0.222361 8.09608e-20)
(1.07888 -0.000558717 -2.35534e-21)
(-0.0161829 -0.0561911 -3.7118e-20)
(0.307094 0.0720192 0)
(0.945851 0.00156698 -2.13586e-21)
(1.11204 0.0385511 -1.96467e-21)
(0.800811 -0.0955877 2.01325e-20)
(1.16008 0.00741174 -2.54898e-21)
(1.11752 0.0461585 0)
(1.15352 -0.172618 -1.57795e-20)
(-0.0722489 -0.169747 -7.75857e-20)
(1.32249 0.00139346 2.9842e-20)
(1.10578 0.171237 -8.8753e-21)
(1.0736 0.0565065 2.18525e-21)
(-0.0401226 -0.0656312 1.69009e-20)
(-0.0265192 0.0342693 -6.78035e-20)
(0.880991 0.0750414 0)
(0.897741 0.245486 0)
(1.15141 0.0983911 -1.0006e-20)
(1.0526 0.0649182 9.47091e-21)
(1.06138 -0.00251489 0)
(0.63773 -0.0320732 6.60921e-20)
(0.746745 0.0819482 -1.23283e-20)
(1.09717 0.106886 0)
(1.07694 0.0237398 0)
(1.36479 0.194033 0)
(1.06024 0.0177268 0)
(1.15059 0.0282865 2.38726e-21)
(-0.0423487 0.0457246 3.77698e-20)
(1.0434 0.000412713 4.59495e-21)
(1.43245 -0.197059 -9.34337e-20)
(1.12723 0.0349082 -3.73447e-21)
(-0.110089 0.0554595 0)
(1.16868 -0.155391 0)
(0.810079 -0.00658573 -1.3415e-21)
(0.547952 0.00746476 -6.28737e-20)
(0.07728 0.0349062 5.07657e-20)
(1.03424 0.00517599 1.02058e-21)
(0.746535 -0.273882 0)
(0.682101 -0.0930009 0)
(1.08427 0.0270039 0)
(0.539178 0.511775 2.52329e-20)
(-0.0189468 0.00937642 -3.18042e-20)
(1.05102 -0.00189022 -1.43886e-21)
(-0.024316 -0.0990045 7.06663e-20)
(1.05011 -0.0035144 2.12741e-21)
(1.1729 0.30888 2.61387e-20)
(1.11421 -0.0873753 5.14332e-21)
(0.234736 0.0156887 8.11661e-20)
(1.09318 0.0492146 2.66367e-21)
(1.1861 -0.139157 0)
(0.561486 0.271314 0)
(1.04546 -0.00608094 3.4938e-21)
(-0.221412 -0.0696611 0)
(0.665934 0.0170117 -1.53079e-23)
(0.605991 -0.419222 -3.50565e-21)
(0.245246 0.0488914 -1.17532e-19)
(1.12975 -0.226931 2.41955e-20)
(1.03612 0.359603 9.32285e-21)
(0.976049 0.0161586 0)
(1.06029 -0.00570508 2.41826e-22)
(0.808461 0.00787367 0)
(1.03987 0.00557725 7.23968e-24)
(0.43991 -0.0221938 0)
(0.71239 0.124346 0)
(0.994444 -0.0300008 2.22857e-24)
(1.43896 0.161059 -1.60958e-20)
(1.04707 -0.00105083 2.32717e-21)
(0.523848 -0.494178 0)
(1.1363 -0.154212 3.0254e-22)
(0.802745 0.372223 6.69029e-20)
(-0.0354717 0.0207755 1.25042e-21)
(1.21712 -0.0234553 1.34684e-20)
(1.2142 0.0301117 -1.59315e-20)
(1.06387 -0.0147621 6.69974e-22)
(0.876918 0.00442228 -2.42283e-21)
(0.0682362 0.0179399 4.00176e-20)
(-0.0219335 -0.0695771 -6.03711e-20)
(-0.240057 -0.0524295 0)
(-0.321519 0.0947801 0)
(1.18972 -0.617502 3.42004e-20)
(1.13773 -0.0253646 1.6031e-21)
(0.891614 -0.466335 -4.73304e-20)
(1.03589 0.0541037 -1.27318e-20)
(1.37014 0.189605 3.74507e-20)
(0.60395 0.419727 0)
(0.245219 0.411708 -1.108e-19)
(0.593902 0.474135 0)
(-0.00664867 0.0277519 0)
(1.12701 -0.481627 0)
(-0.0595684 -0.0247032 -3.71451e-22)
(1.19474 0.00649838 0)
(0.862888 0.185138 -6.87528e-21)
(0.592625 0.68772 2.02868e-20)
(1.26134 0.178207 7.15789e-22)
(-0.027461 -0.141123 -1.1861e-19)
(0.757747 0.132808 1.69257e-20)
(0.456994 0.144655 -1.41067e-20)
(1.20438 0.0864486 0)
(1.35991 0.349362 4.09346e-20)
(1.2203 0.560683 1.15383e-20)
(0.170993 -0.0182227 -2.40822e-20)
(1.01908 0.120222 3.50899e-20)
(0.976399 0.00508152 1.25423e-21)
(0.966667 0.00484868 -4.19529e-22)
(-0.0121371 -0.0372755 0)
(0.648362 -0.658029 -2.82321e-20)
(0.613606 0.194392 0)
(0.124177 -0.16785 0)
(-0.04945 0.0595958 0)
(0.0246756 -0.175979 -4.53221e-20)
(1.23234 -0.00828221 -1.54408e-20)
(-0.0234848 0.0527045 0)
(-0.0387825 0.0370856 0)
(1.45495 0.102844 -8.07519e-20)
(-0.0360216 -0.0979842 5.34718e-20)
(0.114244 0.230585 -9.83156e-20)
(0.400542 0.0142647 0)
(0.169808 -0.282271 7.82791e-20)
(1.09456 -0.241849 0)
(0.998837 -0.286323 0)
(0.0246188 -0.138078 1.12542e-19)
(1.14962 0.0390701 6.52769e-23)
(1.12372 0.337179 2.46921e-20)
(0.270705 0.026964 4.87892e-20)
(0.404516 -0.520051 -3.27995e-20)
(1.30031 0.0664127 0)
(1.22803 0.18781 2.37257e-20)
(1.22495 0.204976 -2.91409e-20)
(0.102036 0.083524 -2.28007e-20)
(-0.0821938 -0.0684703 0)
(1.07496 -0.0524692 -1.89628e-20)
(1.10711 -0.223222 -1.19524e-20)
(0.583245 -0.40996 0)
(1.10073 -0.152753 -2.28548e-20)
(-0.167451 0.0630679 0)
(0.613475 0.0353482 0)
(1.44094 0.082782 4.73429e-20)
(1.02212 -0.00860017 3.29458e-22)
(1.07412 0.738588 -1.30275e-20)
(0.225932 -0.381555 1.24621e-19)
(1.08228 -0.00343049 1.44944e-22)
(1.20552 0.0741981 2.46649e-21)
(-0.0592905 0.043058 3.23754e-20)
(0.785692 0.729958 2.48951e-20)
(1.35651 -0.371371 -1.32134e-20)
(0.111572 0.082064 9.85097e-20)
(1.05854 0.00733199 0)
(0.125974 -0.0281956 -7.87734e-21)
(0.901066 -0.63716 3.16195e-21)
(0.90025 0.639909 -2.29051e-20)
(0.550579 -0.0380977 -6.68515e-20)
(1.14377 -0.00549165 4.32393e-21)
(1.07712 -0.081766 5.00472e-21)
(1.11424 0.0560965 -1.35692e-21)
(1.1075 0.121554 1.69029e-21)
(1.13579 -0.124104 0)
(0.919109 0.104054 1.55847e-20)
(0.889585 0.458289 0)
(1.21363 0.107489 3.84724e-22)
(1.17044 0.112483 -3.04294e-21)
(0.757671 0.263995 0)
(0.528328 0.109868 1.1211e-19)
(0.89112 0.707798 -1.01564e-21)
(1.07777 0.286129 -1.89633e-20)
(1.03951 -0.010152 8.96448e-21)
(0.414092 0.484844 0)
(1.30138 -0.475095 0)
(0.672086 -0.0231733 5.31536e-21)
(1.26434 0.500032 0)
(-0.0187386 0.0507425 -4.60278e-20)
(1.28871 -0.414941 -1.69108e-20)
(1.16252 0.504231 0)
(0.452668 0.209858 1.64409e-19)
(1.12744 0.313763 -1.26111e-19)
(0.816773 -0.644692 -2.34676e-20)
(1.13084 0.0629808 -3.82291e-21)
(0.923481 0.149702 8.59459e-20)
(1.09143 0.166851 4.36622e-20)
(1.06932 0.700143 -8.36291e-22)
(0.904377 -0.441773 6.04644e-20)
(1.41864 0.172094 4.44971e-20)
(1.12907 0.00351892 3.33659e-22)
(-0.00031597 -0.0672795 9.80943e-20)
(1.08492 -0.704814 3.29065e-20)
(0.872825 -0.723175 4.69031e-20)
(0.251919 -0.339963 0)
(0.972979 -0.149037 6.69558e-20)
(0.361497 0.300325 -4.26992e-19)
(-0.0951654 -0.0853321 3.22983e-20)
(0.2541 0.0343658 2.42918e-20)
(0.680133 -0.0609159 -7.8591e-20)
(1.07669 0.524342 0)
(0.992308 0.218971 7.36067e-20)
(1.07952 0.0286312 2.30409e-21)
(0.907769 0.43718 -8.62576e-20)
(0.783531 -0.727399 -7.18839e-21)
(0.923934 0.0217097 -4.67473e-20)
(0.975288 0.484542 0)
(1.1403 0.133228 -3.03675e-21)
(1.38493 -0.515605 1.47083e-20)
(1.23374 -0.341789 9.7041e-21)
(-0.388688 0.11897 3.74841e-20)
(0.194209 -0.00453156 -1.76568e-20)
(0.974034 -0.118964 -5.53836e-20)
(0.350997 0.519644 0)
(0.914728 0.0144865 3.72475e-20)
(1.15641 0.633179 8.52186e-20)
(-0.0296905 -0.151446 1.66531e-19)
(-0.0898159 0.00691272 -2.6768e-20)
(-0.096509 -0.150905 4.49909e-20)
(1.09208 0.0140024 -2.91075e-21)
(1.13488 -0.462856 0)
(1.06952 -0.737891 -3.49683e-20)
(0.697286 0.343759 0)
(0.0814912 -0.160333 -1.21343e-19)
(1.06977 -0.0133402 2.86704e-21)
(-0.0404681 -0.138539 -3.20409e-20)
(1.04923 0.0532102 -1.19048e-20)
(0.112829 0.0278928 5.96952e-20)
(0.856946 0.124408 0)
(1.38011 0.0181946 5.76004e-20)
(0.0547931 0.0359499 -2.75802e-20)
(-0.376761 0.0171869 -4.44953e-20)
(-0.266618 0.0112816 0)
(0.0760119 -0.018768 0)
(1.33873 0.0239361 -1.77466e-20)
(0.380113 -0.0127566 1.62461e-19)
(1.27041 -0.729061 -2.99392e-20)
(0.901217 -0.0360089 3.55727e-20)
(1.07277 0.247131 -2.58827e-20)
(0.368917 -0.562812 1.33923e-19)
(1.543 0.270031 -3.73512e-20)
(0.0756721 -0.100186 3.80685e-20)
(0.207543 0.297881 1.90679e-19)
(0.0941342 -0.059341 -1.42457e-19)
(0.94421 -0.496329 -4.10061e-20)
(1.4525 0.381844 3.83543e-20)
(0.568226 -0.679713 4.57521e-20)
(1.10719 -0.0756885 -5.21706e-21)
(0.28493 -0.0633743 6.61952e-20)
(1.18732 0.28752 -5.08008e-20)
(0.659917 0.634439 -3.89138e-20)
(1.34191 -0.625407 0)
(1.41791 0.514781 3.5474e-20)
(1.05537 -0.531332 -1.26083e-20)
(1.38677 0.601807 -1.08404e-19)
(1.16462 0.057938 0)
(-0.0527224 0.0690959 0)
(1.24824 0.724595 0)
(1.06043 0.00980047 -5.33324e-21)
(0.741527 -0.306466 -1.98351e-19)
(0.475457 -0.0901321 0)
(-0.0602356 0.0646714 -2.74416e-20)
(1.0227 -0.246022 8.91559e-20)
(-0.420156 0.125369 0)
(0.320876 0.017828 1.19285e-20)
(1.12469 0.0499275 0)
(1.41626 0.268154 0)
(1.16094 0.0640405 4.09339e-21)
(0.361342 -0.29924 0)
(1.01673 0.147412 3.36697e-20)
(1.31005 0.28089 0)
(-0.126134 0.0192785 -6.75686e-22)
(0.812279 -0.400981 0)
(1.51113 0.330602 -5.69422e-20)
(1.23867 0.3627 -3.28775e-21)
(0.837821 0.639837 -9.34772e-21)
(1.01357 0.157026 -8.12461e-20)
(0.970696 -0.207096 -4.39803e-20)
(1.45046 0.286937 3.34314e-20)
(1.01518 0.0852619 0)
(0.563512 -0.0774875 0)
)
;

boundaryField
{
    FrontBack
    {
        type            empty;
    }
    Top
    {
        type            noSlip;
    }
    In
    {
        type            fixedValue;
        value           uniform (1 0 0);
    }
    Bottom
    {
        type            noSlip;
    }
    Out
    {
        type            zeroGradient;
    }
    circle
    {
        type            noSlip;
    }
}


// ************************************************************************* //
