/*--------------------------------*- C++ -*----------------------------------*\
| =========                 |                                                 |
| \\      /  F ield         | OpenFOAM: The Open Source CFD Toolbox           |
|  \\    /   O peration     | Version:  2412                                  |
|   \\  /    A nd           | Website:  www.openfoam.com                      |
|    \\/     M anipulation  |                                                 |
\*---------------------------------------------------------------------------*/
FoamFile
{
    version     2.0;
    format      ascii;
    arch        "LSB;label=32;scalar=64";
    class       volScalarField;
    location    "1236.5";
    object      yPlus;
}
// * * * * * * * * * * * * * * * * * * * * * * * * * * * * * * * * * * * * * //

dimensions      [0 0 0 0 0 0 0];

internalField   uniform 0;

boundaryField
{
    FrontBack
    {
        type            empty;
    }
    Top
    {
        type            calculated;
        value           nonuniform List<scalar> 
15
(
142.289723181468
133.5803185915157
138.0634690218676
144.4004964527501
159.7641508337819
131.3670417444401
140.1304275170732
135.3506161867205
153.4555472920551
135.7247841970493
136.0869383258563
136.7735895804812
125.2651526386801
132.9132065841399
123.9565785673763
)
;
    }
    In
    {
        type            calculated;
        value           uniform 0;
    }
    Bottom
    {
        type            calculated;
        value           nonuniform List<scalar> 
15
(
155.5676730493057
158.1189064943398
141.0913558723389
142.0463130061907
141.1800341033907
148.4312417098226
142.7048112881347
143.1476617795605
143.4213882979656
134.0625862111975
125.7280811162173
141.5584751740177
122.4051101266177
123.4854398410591
124.1320201438427
)
;
    }
    Out
    {
        type            calculated;
        value           uniform 0;
    }
    circle
    {
        type            calculated;
        value           nonuniform List<scalar> 
32
(
56.01893628250225
21.97801628388808
65.23451222785479
25.50550275827562
20.11012253898479
56.21610085119187
56.61294889546249
23.75839826795768
22.20794690793724
65.4770904800682
39.79348304888855
62.92140646610855
50.62499449683258
17.37689870681731
22.84489348894571
18.0342094316428
39.32577044098652
59.80524632075882
61.05190466178508
24.99539725167281
65.78394812120366
63.77002080143512
63.08496593205962
59.87736875006973
64.15004111803839
45.99484788504101
66.44926117119172
32.11326632989972
37.94120389873302
55.70516774912866
21.15341405644322
43.10791399905045
)
;
    }
}


// ************************************************************************* //
