/*--------------------------------*- C++ -*----------------------------------*\
| =========                 |                                                 |
| \\      /  F ield         | OpenFOAM: The Open Source CFD Toolbox           |
|  \\    /   O peration     | Version:  2412                                  |
|   \\  /    A nd           | Website:  www.openfoam.com                      |
|    \\/     M anipulation  |                                                 |
\*---------------------------------------------------------------------------*/
FoamFile
{
    version     2.0;
    format      ascii;
    arch        "LSB;label=32;scalar=64";
    class       volScalarField;
    location    "18";
    object      p;
}
// * * * * * * * * * * * * * * * * * * * * * * * * * * * * * * * * * * * * * //

dimensions      [0 2 -2 0 0 0 0];

internalField   nonuniform List<scalar> 
808
(
0.111961
0.00552084
0.0252156
0.11206
-0.213532
0.00784869
-0.00231779
0.0167919
-0.115685
-0.0268075
0.0214179
-0.130957
0.0131467
0.00273735
-0.275933
0.0106015
-0.287484
0.00799118
0.0288455
0.00145239
0.0262527
0.379603
0.0635657
-0.00968878
0.458299
-0.19698
-0.0563298
-0.000424544
0.00868609
0.00820446
0.00471689
0.0122558
0.0144341
0.00432061
-0.0824339
0.628677
0.00323971
0.0160526
0.0104267
0.00880259
-0.0533
-0.0591176
0.0254155
0.0119955
-0.223745
0.0808629
0.0118187
0.0139969
0.00393007
-0.153638
0.00200251
0.011691
0.0351543
0.00543339
-0.087195
0.000762648
0.00661662
0.0235491
-0.0213609
-0.00308784
-0.292068
0.00428989
0.0237033
-0.167195
0.0157216
0.0358891
-0.240412
0.0118929
0.0187642
-0.263425
0.0122843
-0.29482
0.0105014
0.0116595
0.188489
0.00629407
-0.0154907
-0.0671726
-0.000420101
0.314456
-0.138645
0.00949304
0.0262112
0.273214
0.0116194
-0.037342
-0.336064
-0.10607
0.0184069
-0.208737
0.0326
-0.0989554
0.253618
0.153632
0.0310387
-0.212448
0.00787372
-0.14878
-0.105642
-0.198662
0.00387352
-0.00710616
0.0317883
-0.0311353
-0.0985026
0.0498501
-0.259191
0.0158443
1.45197e-05
0.0329919
-0.0816922
0.33313
0.00743723
0.0216235
0.0102664
0.45316
0.00459939
-0.248708
0.0108166
0.0495648
-0.250601
0.0252414
0.00377508
0.0507074
0.106812
-0.0509192
0.102444
0.0108808
0.0279178
0.0589861
-0.247086
0.0124734
-0.051789
0.122523
0.0134822
0.00106741
0.0684898
0.00453951
0.0105666
0.00105213
-0.273359
0.0409771
0.0382331
0.0103436
-0.0320475
0.0783896
0.0895516
0.152341
-0.0994744
0.0195345
0.00799189
0.345298
0.0220359
0.537974
-0.271534
-0.1054
0.00754154
-0.244442
0.0502706
-0.129352
-0.282608
-0.272923
-0.264924
0.00951669
0.0516579
0.0130348
0.0130615
-0.271206
0.00407807
0.0190109
0.0314155
0.155292
0.08284
0.125152
0.0106914
0.0643317
0.062279
-0.141595
0.0144142
-0.320348
0.018463
-0.140518
0.00784858
0.262551
-0.309244
0.109828
0.0097754
-0.144536
0.019416
-0.0988317
-0.264629
-0.0723348
0.0109226
0.0770528
0.0083784
-0.262082
0.0101439
0.0171931
-0.00223051
0.0746261
0.0588049
0.0156571
0.0158342
-0.295745
0.376676
-0.259317
-0.278897
0.0039047
0.0159369
0.00843417
0.00357577
-0.368399
-0.232191
0.0094499
0.00344545
0.0117005
-0.301652
-0.0345214
0.000554649
0.025897
0.0154632
-0.083834
0.0171337
0.0170326
0.00145722
0.0153944
0.118098
-0.236012
0.035916
0.00535045
0.111395
0.00735891
0.00963547
0.00309209
-0.120732
0.0140389
0.000448784
-0.00208208
-0.00138727
0.00352842
0.00396536
0.00117245
0.00388745
-0.00292904
-0.00117741
0.00180303
0.00195369
0.000199429
0.00244555
0.0688855
-0.288587
0.00411871
0.00983411
-0.116865
0.0037102
-0.00570932
0.0194735
0.000997562
0.0118831
0.122813
0.0392483
0.00618377
0.00567172
-0.00794047
0.0184308
0.0109712
0.0178027
0.035633
0.0155909
0.044238
0.00972196
-0.366026
0.276036
0.0118571
-0.0757312
0.013813
0.00928842
0.0112756
-0.184339
0.279303
0.0163078
0.010446
0.0137853
0.0791077
-0.210146
0.0149202
0.0743378
0.0508787
0.0312211
0.0670853
0.0151915
0.0264575
0.0121309
0.0146303
0.0408384
0.0187512
0.0181582
0.0515535
0.0442997
0.0404108
0.0113023
0.0160384
0.0110134
0.0102585
-0.472179
-0.111085
0.0317444
-0.00892431
-0.162269
-0.318228
0.0421989
0.013842
-0.280592
0.12404
0.155222
0.00797392
0.0100713
0.0465563
-0.000993163
-0.202213
0.0277317
-0.000807502
0.0188834
0.0252252
0.0206273
0.0224773
0.0415869
-0.0141368
0.0293664
-0.268761
-0.0773598
0.0186023
-0.060538
-0.00767832
-0.000813302
0.230728
0.0406414
-0.148388
0.549648
0.025704
0.00138285
0.0190724
-0.0900279
-0.0531976
0.0229203
0.0239188
-0.0089489
0.0285301
-0.0690536
-0.241237
0.0343145
0.100572
-0.0636028
-0.263604
-0.282943
-0.240927
-0.279728
0.030717
0.0168084
0.0111074
0.000292971
-0.0455633
4.25447e-05
0.0224719
-1.71521e-05
-0.467136
0.0134383
0.0208098
0.0158175
-0.184197
0.0278974
0.018996
0.107453
-0.311498
0.0258213
-0.0535857
0.0285236
0.0373635
-0.269963
0.00841769
-0.288665
-0.0124737
0.0571984
0.0176444
0.000688403
0.0137066
-0.102473
-0.312236
-0.00575982
0.0034223
-0.0193211
0.0201786
-0.0157913
0.013035
-0.0183952
-0.0221066
-0.14608
0.0363004
-0.00357661
0.0069594
-0.202768
-0.204397
0.0612922
0.00406144
-0.118838
-0.0414143
0.427203
-0.265684
0.00511573
-0.0961812
0.0012723
0.0284328
0.016395
0.0567616
-0.0124105
-0.0587461
-0.067163
-0.0135067
-0.00894834
-0.0115487
-0.0128905
-0.0121997
0.01632
0.110663
0.0735507
0.00492592
0.00623597
0.0192792
-0.0732664
0.0147766
-0.347292
0.0711354
0.0485864
0.00741418
-0.22027
-0.271306
-0.0278993
-0.0721768
-0.0758099
0.0186962
-0.274109
-0.210183
0.230382
-0.289179
-0.418838
-0.201455
-0.135047
-0.0972699
-0.228645
0.353033
-0.0508164
-0.27555
-0.00286786
0.0218194
0.579062
0.00402799
0.0119049
0.0463047
-0.0307361
-0.0231409
-0.354379
-0.261769
0.0386621
0.0580035
0.0739245
-0.23919
-0.276368
-0.221662
0.00653506
0.0272258
0.0858966
-0.0249692
-0.040144
0.0717837
0.0338807
0.0119104
-0.162635
-0.278652
0.024203
-0.0966007
0.00765477
-0.000237728
0.0741813
-0.0602415
0.0183755
-0.42808
0.454268
-0.199514
-0.269462
-0.0380117
0.00748636
-0.269287
-0.262965
0.116646
-0.302648
-0.181354
0.867359
0.00337363
-0.325526
-0.00704473
-0.128404
-0.0363857
-0.421427
-0.275882
-0.277027
0.00845335
-0.189206
-0.328713
-0.0238008
-0.0357361
0.105225
-0.283072
0.0237644
-0.463629
-0.302385
-0.360987
-0.163733
0.00226576
-0.00814427
0.0998361
0.125563
-0.0506961
-0.266407
0.308541
0.0695527
0.0111617
-0.402947
-0.460606
-0.301815
-0.0287283
-0.31789
0.0558674
0.0609053
0.0420284
-0.180045
-0.207467
0.00453955
-0.275958
-0.27001
-0.00216951
-0.014569
-0.281603
-0.0214522
0.0298914
-0.348274
-0.285257
-0.0866026
0.100013
0.0162003
-0.296905
-0.274966
-0.193527
-0.214059
0.0353564
0.0961536
0.00129263
-0.221525
-0.275242
0.100325
0.0187739
-0.197149
0.0239975
0.0384471
-0.308883
0.0163943
-0.239706
0.045606
-0.341776
0.0369831
-0.00531533
-0.339716
-0.429691
-0.00298529
-0.436816
-0.424185
0.0326272
-0.0645734
-0.266064
0.0110308
-0.269713
0.0169885
0.0815261
0.061399
-0.358366
0.0561198
0.0504043
-0.433436
0.0154069
-0.279773
0.0113349
-0.285762
-0.484824
0.102385
0.27687
0.445765
0.00186395
-0.00538202
-0.00301197
-0.310083
0.649641
0.00794256
-0.204903
0.0175834
-0.0487477
0.0808257
0.489844
-0.344739
-0.0594406
-0.0520532
0.0259865
0.00670075
-0.425824
-0.262555
-0.267005
-0.302363
-0.250619
-0.00941142
-0.328729
0.0131087
-0.251133
-0.298673
0.514725
0.593313
-0.288032
0.1206
-0.266895
-0.0282198
-0.153039
0.410133
-0.104175
-0.289329
-0.118482
-0.486215
-0.0307536
-0.184633
-0.0127612
-0.289665
-0.256024
-0.00326221
-0.0049498
-0.293462
0.456495
0.680219
-0.282673
-0.281448
-0.293252
-0.0694979
-0.282193
-0.269875
-0.184029
-0.290887
0.757416
-0.31679
0.750866
-0.380716
0.33283
-0.280858
-0.00650357
0.1805
-0.475296
0.236124
-0.263558
-0.291078
-0.318825
0.875169
-0.266796
0.212106
0.152173
0.649527
0.125514
-0.326159
-0.261347
-0.150489
0.000649576
0.0930647
0.53084
0.00441506
-0.0277741
-0.270694
0.123995
-0.108768
-0.217149
0.0205952
-0.33183
-0.137522
-0.146291
-0.337043
-0.00528892
0.103777
-0.0159273
0.0742895
0.110054
-0.3091
-0.34186
-0.0696236
0.00625854
-0.445255
-0.48938
0.182037
0.198233
0.0872172
0.673204
-0.0675367
-0.35065
-0.366277
-0.276922
-0.0486375
0.0895402
0.767585
-0.428829
0.383893
-0.0208366
-0.401262
0.156571
-0.0669195
0.391394
-0.151247
0.0065599
-0.304201
-0.062183
0.205574
0.819795
0.337712
0.764178
-0.281391
-0.274338
-0.385249
0.173391
0.273248
0.0577462
0.387044
0.149519
0.502468
0.281843
-0.0819451
-0.170916
0.0305473
-0.316894
0.888405
0.415315
0.653261
0.517418
-0.253946
-0.282919
-0.268913
-0.272843
0.0427971
-0.37762
0.113832
0.601738
-0.306747
0.00556389
-0.272514
0.188679
-0.303736
-0.343477
-0.139805
-0.265105
-0.296935
-0.276961
-0.312393
-0.103934
-0.385015
-0.116418
-0.331675
0.150904
0.662917
-0.206253
-0.292187
0.831125
-0.29187
0.293178
-0.220655
0.398933
0.0888869
-0.260827
-0.37413
0.448359
-0.25437
-0.304862
0.19722
-0.261652
-0.0287538
-0.276087
-0.108516
0.0172989
0.575955
0.785243
-0.274005
0.229683
-0.294663
0.826609
-0.0192143
-0.294543
-0.0325833
0.769529
0.211009
-0.302139
-0.267066
0.460804
-0.19887
0.0437954
0.356804
0.25828
0.299733
-0.237288
-0.307833
0.693767
)
;

boundaryField
{
    FrontBack
    {
        type            empty;
    }
    Top
    {
        type            zeroGradient;
    }
    In
    {
        type            zeroGradient;
    }
    Bottom
    {
        type            zeroGradient;
    }
    Out
    {
        type            fixedValue;
        value           uniform 0;
    }
    circle
    {
        type            zeroGradient;
    }
}


// ************************************************************************* //
