/*--------------------------------*- C++ -*----------------------------------*\
| =========                 |                                                 |
| \\      /  F ield         | OpenFOAM: The Open Source CFD Toolbox           |
|  \\    /   O peration     | Version:  2412                                  |
|   \\  /    A nd           | Website:  www.openfoam.com                      |
|    \\/     M anipulation  |                                                 |
\*---------------------------------------------------------------------------*/
FoamFile
{
    version     2.0;
    format      ascii;
    arch        "LSB;label=32;scalar=64";
    class       surfaceScalarField;
    location    "18";
    object      phi;
}
// * * * * * * * * * * * * * * * * * * * * * * * * * * * * * * * * * * * * * //

dimensions      [0 3 -1 0 0 0 0];

oriented        oriented;

internalField   nonuniform List<scalar> 
1171
(
-0.945615
0.945615
0.775877
-1.08471
0.308834
-0.238698
-0.798466
1.03716
0.0543851
-0.066281
-0.275729
0.34201
-0.775877
0.0857841
0.690093
0.925299
-0.205863
-0.719436
0.824628
-1.03702
0.212389
-0.354583
-0.0364678
0.391051
0.000210833
0.601585
-0.601796
-0.572291
1.00424
-0.431951
-0.420864
0.999345
-0.174717
0.239858
0.0974526
-0.337311
0.975749
0.0235961
0.29188
-0.0520216
1.0078
-0.0320529
0.704886
-0.943584
-0.788163
0.614756
0.173407
0.280765
-0.853056
0.559567
-0.914892
0.355326
-1.08082
0.670889
0.409932
-0.643702
0.643912
0.0336941
-0.253043
0.219349
0.0301503
-0.645163
0.615012
0.466821
-0.503289
-0.844316
0.881793
-0.0374763
0.997257
0.0105457
0.908031
-1.06501
0.15698
1.01695
-0.0196973
-0.697766
-0.0903967
1.25061
-0.850124
-0.400482
0.172637
-0.0714318
-0.412898
0.48433
-0.274048
0.18426
0.0897879
-0.603816
-0.480895
0.969223
-0.0611915
-0.0263281
0.876123
-0.849795
0.49942
0.751186
0.530153
0.0249511
0.44187
-0.788282
-0.107038
0.89532
0.599955
0.232889
-0.832844
0.0273384
0.626885
-0.654223
-0.510204
-0.570617
-0.384414
-0.680597
0.0275642
0.244877
-0.272442
-0.951013
-0.0375775
0.98859
0.372253
0.018798
0.852292
0.0730074
-0.604277
-0.0394248
0.0374325
-0.825715
0.116587
0.934493
-1.05108
-0.407809
0.0292511
0.378558
-0.718375
-0.232638
-0.74287
0.859457
0.663166
0.341076
-0.576845
1.00292
-0.823653
-0.179267
-0.0779872
-0.0151567
0.0931438
-0.458392
-0.0448976
-0.323308
0.986474
-0.0117043
0.433975
-0.42227
-0.505455
1.10541
0.713165
-0.820202
0.38459
-0.0692909
-0.315299
0.756419
-0.756419
-0.937406
0.0404362
-0.316165
-0.69291
0.666582
-0.0335793
-0.143569
0.177149
0.881042
-0.00491927
1.04662
-0.813733
0.223251
-0.319623
0.0963727
0.979682
-0.12739
-0.676442
-0.0565157
0.732958
0.150113
-0.23194
0.0818272
0.802799
-1.00866
-0.442861
0.310483
0.132378
0.677831
-0.647681
0.864754
-0.390579
-0.474176
0.48034
-0.694337
0.036618
0.657719
0.146838
0.673275
0.0405492
-0.713824
0.135347
-0.0949104
-0.513111
0.105302
0.0374671
-0.908839
0.871372
-0.54771
-0.760789
0.0630229
0.498274
-0.0564037
0.274764
-0.832611
0.557847
0.424494
0.575506
0.600607
-0.563175
-0.372886
-0.0180479
0.390933
0.529576
0.226844
-0.677828
0.705166
0.0853756
0.888583
0.00674292
-0.683185
-0.765428
0.802896
0.61676
0.123603
0.340669
-0.464272
-0.154826
0.547627
0.0792574
0.846303
-0.857042
0.0107389
0.659935
0.342986
-0.430827
0.715161
-0.591559
0.409167
0.1504
-0.05844
-0.646108
-0.238424
0.884533
-0.119099
-0.63732
-0.613183
0.363878
0.249305
0.664454
-0.657711
0.30843
1.03556
0.0110672
-0.765428
-0.151012
0.0730249
0.713165
0.788928
-0.788928
0.845816
-0.831983
-0.0138334
-0.454355
0.878849
-0.194356
-0.318755
0.762897
-0.669072
-0.0938246
-0.91447
0.268362
0.107056
-0.711332
0.820202
-0.975028
-0.185132
0.164188
0.0209439
0.110421
-0.991681
0.88126
0.543252
-0.0130984
-0.289214
0.595479
-0.306265
-0.648621
0.759042
-0.1592
0.722634
-0.789578
0.0669444
1.10158
-0.637823
-0.463758
0.730488
-0.0684293
-0.0117676
0.0101248
0.00164272
-0.800214
-0.82897
0.0305044
-0.69291
0.577723
-0.548472
0.140961
0.634759
-0.775719
0.779262
0.166353
0.491247
0.508753
-0.0881761
-0.675266
0.763442
0.891631
-0.045328
-0.730488
0.802896
0.180005
-0.433048
-0.0157568
-0.00212944
0.0178862
0.679287
-0.435512
-0.243775
0.690093
-0.0392108
-0.106336
0.566489
0.112798
-0.0116006
0.00196172
0.00963885
0.00354277
-0.0153103
0.137464
-0.206755
-0.948127
0.0438748
-0.145232
-0.0476678
0.138795
0.782101
0.742895
-0.167389
0.478911
-0.33795
-0.163218
0.386468
0.637553
0.0525399
0.228436
-1.06042
-0.975028
0.31585
0.666582
-0.161087
0.017518
-0.825976
0.998276
-0.1723
0.485163
-0.106605
0.802942
0.305663
0.293362
-0.0014825
-0.681021
0.681021
0.227046
0.668274
-0.0138069
0.447781
0.470523
0.0250573
-0.0408141
0.551009
-0.00775759
-0.648621
0.571777
0.19112
-0.000831523
0.0109564
-0.637553
0.155757
0.842519
0.0102108
-0.712074
0.701863
0.760663
-0.822326
0.061663
-0.779262
-0.0352404
0.0486567
-0.0134162
0.0851077
-0.119227
-0.104696
0.223923
-0.00769009
-0.00391047
0.734776
-0.724565
0.940876
0.0962879
-0.368957
-0.56768
0.936637
-0.000926422
0.000926422
0.14614
0.455022
0.586774
-1.0418
-0.192406
-0.550171
0.742577
-0.0183952
0.195544
0.383337
-0.233223
1.0878
-0.632779
0.814174
0.987361
-0.400587
0.18898
0.759042
0.584324
0.233599
0.648194
-0.63732
0.318979
0.00622161
-0.0122435
0.00602191
0.888297
0.0861918
-0.974488
-0.552271
0.532574
0.545645
-0.552271
-0.584324
0.532574
3.87848e-06
1.02633
-0.0854587
-0.529576
0.451191
0.0783853
0.524995
0.643097
-1.16809
0.485632
0.602169
0.67643
0.486885
-1.16331
0.468739
0.518622
0.451191
-0.509293
-0.512811
-0.641434
-0.512897
-0.15482
-0.00540708
0.00540708
0.588771
0.56275
-1.07565
0.713478
-0.372808
-1.0229
0.385081
-0.695397
0.462759
-0.0289956
-0.911052
0.940048
0.453681
-0.0680718
0.956368
-1.11183
-1.00461
0.114832
0.889781
0.398488
-0.162369
-0.236118
0.752985
-0.814177
1.02787
-0.948693
-0.0791787
-0.0861297
-0.770913
-0.173136
0.835687
-0.662551
-1.06499
0.978856
-0.554237
0.627173
-0.072936
-0.794546
0.0454626
0.749083
0.00383225
-0.00475867
0.425163
0.0839559
-0.962399
0.878443
-0.791865
0.703689
1.01854
0.154623
-1.17316
0.0139276
0.00126286
0.389671
-0.359678
0.0400549
0.913957
-0.942952
-0.698258
-0.865054
0.0941418
-0.127638
-0.962993
0.0143005
0.487292
-0.00838116
0.146293
0.252195
-0.632828
0.678291
0.474176
-0.979124
-0.910363
0.115971
0.0405805
0.604888
-0.645469
-0.0229456
-0.657677
0.579436
0.181227
0.0279401
0.928428
1.09369
0.951853
-0.937553
0.0462919
-0.0462919
-0.0811926
-0.204187
0.041818
0.336895
-0.0210451
0.254152
0.905483
-0.00145281
-0.00623728
0.658075
0.341925
0.79691
-0.603816
-0.761193
-0.559277
-0.495098
0.495098
-0.207125
-0.10904
0.674124
-0.934018
0.259894
-0.478423
-0.532574
0.341287
-1.02188
-0.947645
0.868467
-0.636128
0.73027
0.669885
0.182662
-0.852548
-0.632213
-0.178613
0.844195
-0.665582
0.0421627
-0.000665014
0.00281973
-0.00215472
-0.0691679
-0.13502
1.01541
0.710954
-0.375899
-0.335055
0.474836
0.7481
-0.521053
0.0121077
-0.286156
0.0698908
0.779725
-0.849616
-0.351999
-0.0866995
0.142211
-1.02748
0.0529937
-0.751356
0.0823421
0.745459
-0.827801
-0.860514
0.109159
0.698821
-0.785521
0.236437
-0.355664
-0.538894
-0.0933193
0.368645
0.733561
-0.0183997
0.00133504
-0.00133504
-0.00344536
0.0342842
-0.0280626
-0.0154304
0.0139776
-0.547275
0.330872
0.790568
-0.818466
0.0278981
-0.686091
0.768433
0.782994
-0.0841725
-0.685479
-0.175035
-1.11986
0.0206963
0.0255956
-0.477384
-0.858615
-0.867815
0.467332
-0.138214
0.134698
0.00351662
-0.37368
-0.103704
0.491045
0.71246
-0.0432161
-0.00445177
1.1208
0.524672
0.199101
-0.723773
-0.385642
0.011962
-0.00653615
0.00587114
0.691143
-0.929567
0.00563717
-0.00563717
-0.736287
0.733607
0.00268045
-0.239349
-0.114829
-0.699829
0.157922
0.605519
-0.0536356
-0.878442
-0.269901
0.108076
0.161825
0.75509
-0.727192
0.352411
0.261743
-0.614155
-0.167472
-0.703042
-0.124759
-0.211615
-0.111979
0.469789
-0.514687
0.19596
0.730308
-0.926268
0.48034
-0.122826
-0.0153888
0.137285
-0.249264
0.597162
-0.0958585
-0.501303
-0.284635
0.305053
-0.0204176
0.606291
0.107187
0.0799515
-0.311115
0.168978
0.142137
-0.201276
0.0502637
-0.303858
0.0639904
-0.0926576
0.0286672
0.867168
-0.221456
-0.0178931
0.553516
0.281217
-0.657116
0.406923
-0.406923
-0.213557
-0.406252
-0.227747
-0.406252
-0.705832
-0.850678
0.181605
-0.179638
0.726263
0.04869
0.134302
0.599258
0.109348
0.118374
0.0097599
-0.128134
-0.0715621
0.680867
-1.00009
0.432406
-0.0453925
0.0729742
-0.0275817
-0.749754
-0.175987
-0.607795
0.806896
-0.521676
-0.0509536
-0.19831
-0.336344
-0.0806622
0.0806622
0.0464161
0.00224061
0.139071
0.184962
-0.740593
0.132798
-0.057636
0.471924
0.528076
0.783641
0.0256952
0.00110997
-0.0268052
-0.296727
-0.581714
-0.568851
0.11355
-0.118529
0.0049788
-0.133123
-0.414613
-0.0975498
0.703069
-0.583369
-0.166385
-0.0661103
0.0242257
0.221982
-0.441655
-0.197365
-0.186428
-0.0203271
-0.477825
0.434912
0.0429133
-0.0979663
0.294007
-0.864624
-0.540417
0.631507
-0.869103
0.701631
0.449044
-0.0291526
0.0534634
-0.0243108
0.0412413
-0.63588
-0.00616948
0.642049
-0.894066
0.647283
-0.728475
-0.13162
0.00740206
-0.00740206
-0.299007
0.419007
-0.0293368
0.0129218
0.0127734
0.59836
0.609389
-0.598651
0.0107924
0.00392128
-0.00258624
0.00472004
-0.00472004
-0.497254
0.604441
0.0141861
-0.0141861
-0.777622
-0.00882385
0.0126561
-0.533331
0.666129
0.633253
-0.630573
0.0691698
-0.0691698
-0.0267515
-0.0140625
0.00911553
-1.04836
0.584602
-0.493737
-0.00475867
0.603759
0.00990619
-0.613665
-0.711697
0.128328
-0.316046
-0.0140401
0.330086
-0.026089
-0.0171271
-0.607895
-0.0279844
0.0255956
0.00568839
-5.12223e-05
-0.00336304
0.00336304
-0.256071
0.284739
-0.463509
0.134893
0.662017
-0.124515
0.0014847
-0.0014847
0.508542
-0.18946
0.00832848
0.0181936
-3.86333e-05
0.553737
-0.743198
-0.672748
0.654855
-0.0747296
0.327228
0.765114
-0.00344536
-0.086872
0.0978284
-0.633689
0.55369
-0.325949
-0.107938
-0.0284595
-0.0257408
-0.0143204
0.462766
-0.0849386
-0.416365
0.696712
0.000687043
0.00515784
-0.00515784
-0.152162
-0.07111
-0.572203
0.620893
-0.133849
0.51054
-0.201234
0.90612
0.790026
0.00568839
-0.791291
0.68369
0.0586502
-0.0304009
-0.0282494
0.556889
0.0888461
-0.0117239
0.0647591
-0.0530352
0.00836087
-0.00836087
-0.746131
0.0228779
-0.0441602
0.0623538
-0.0862291
0.0862291
0.00392128
-0.00196067
0.730563
0.111955
-0.317751
-0.0968622
-0.520213
-0.00746009
-0.0662606
0.0662606
-0.0535567
0.0811341
-0.0811341
0.0259147
-0.0259147
-0.355889
-0.0749379
0.241038
0.0694452
0.0442678
-0.73704
-0.0624595
0.160967
0.0190385
-0.241388
0.0809336
-0.0809336
-0.466707
-0.0479795
0.230925
-0.0115764
0.00232535
-0.657193
0.657189
-0.0170115
-0.0365452
0.0596793
-0.0737418
-0.0119642
-0.156605
0.168569
-0.150493
-0.205172
-0.0810559
0.0810559
0.0549931
-0.0549931
-0.029234
-0.0940229
0.123257
-0.0277959
-0.188262
-0.00863765
0.00605141
-0.185336
0.470074
-0.0256691
0.480793
0.00737026
0.00226859
-0.0503614
0.0503614
-0.734645
0.317666
-0.128686
-0.208432
-0.023508
-0.0159945
0.0183198
0.196569
0.0273539
-0.000798762
0.000760129
0.0837615
0.0297883
0.0553675
0.105599
-0.00861825
0.00416648
-0.000479332
0.00535936
0.0060422
0.004412
-0.0104542
-0.00123656
0.00805731
0.0280429
-0.0280429
0.0487646
-0.0422031
0.0422031
-0.1907
0.00762795
0.0283837
-0.0750076
0.0175538
0.0769701
-0.0769701
0.239482
-0.235577
0.0850841
-0.0669865
-0.16859
-0.0161042
0.0161042
0.406752
0.250967
-0.519107
-0.0807648
-0.0377638
0.541645
0.0318834
-0.0595181
-0.447538
0.0925744
-0.153373
0.169919
-0.016546
-0.0471819
0.0471819
0.857688
-0.592434
-0.00862732
0.00739076
-0.0055669
-0.285027
-0.000200454
0.00517315
-0.0449415
-0.628991
0.568192
-0.675124
0.0147953
0.176323
0.0158992
0.0244467
-0.15894
-0.334749
0.259742
-0.0561841
0.0269501
0.171
0.134053
0.246691
0.264105
-0.248206
0.00599098
-0.114027
-0.222472
0.0681229
-0.0127554
0.159867
-0.13542
-0.0685267
0.152288
-0.413381
0.120022
-0.102468
0.0580094
-0.474374
0.175092
0.177106
-0.245632
0.00725854
-0.177223
0.177022
0.00396347
0.148325
-0.028017
0.049702
0.45884
0.0119388
0.0172727
-0.00605472
0.036613
-0.239019
-0.202371
0.591159
0.169573
0.0613518
0.0777222
-0.0633126
0.0373127
-0.0655621
-0.0302902
0.166379
-0.151584
0.00295221
-0.00257591
-0.105256
-0.0288981
0.00711869
0.251582
0.00150615
-0.036429
-0.311776
-0.00949916
0.217161
0.13898
0.178686
0.0573988
0.0975877
0.0604644
0.537895
-0.0109335
0.103495
0.0430456
0.0657808
-0.108826
-0.26814
-0.196379
0.0277883
-0.222792
0.283988
)
;

boundaryField
{
    FrontBack
    {
        type            empty;
    }
    Top
    {
        type            calculated;
        value           uniform 0;
    }
    In
    {
        type            calculated;
        value           uniform -1;
    }
    Bottom
    {
        type            calculated;
        value           uniform 0;
    }
    Out
    {
        type            calculated;
        value           nonuniform List<scalar> 10(1.16206 1.03429 1.15424 1.07091 1.12998 1.03152 1.15152 1.011 0.62048 0.633999);
    }
    circle
    {
        type            calculated;
        value           uniform 0;
    }
}


// ************************************************************************* //
