/*--------------------------------*- C++ -*----------------------------------*\
| =========                 |                                                 |
| \\      /  F ield         | OpenFOAM: The Open Source CFD Toolbox           |
|  \\    /   O peration     | Version:  2412                                  |
|   \\  /    A nd           | Website:  www.openfoam.com                      |
|    \\/     M anipulation  |                                                 |
\*---------------------------------------------------------------------------*/
FoamFile
{
    version     2.0;
    format      ascii;
    arch        "LSB;label=32;scalar=64";
    class       volVectorField;
    location    "18";
    object      U;
}
// * * * * * * * * * * * * * * * * * * * * * * * * * * * * * * * * * * * * * //

dimensions      [0 1 -1 0 0 0 0];

internalField   nonuniform List<vector> 
808
(
(0.891884 -0.0115637 0)
(1.02248 -0.0353955 0)
(1.19637 -1.85522e-05 0)
(1.07038 0.0102077 -2.37073e-21)
(1.46952 -0.289287 0)
(0.959751 -0.0299519 0)
(1.13778 -0.0492411 1.31027e-23)
(1.11097 -0.0349957 0)
(1.34187 -0.227975 2.29285e-20)
(1.2289 -0.0950588 -6.76421e-21)
(1.23118 -0.0710834 4.6325e-21)
(1.37187 -0.256571 0)
(0.991437 -0.0396199 0)
(0.73876 -0.0224001 0)
(0.962301 0.0542115 1.9588e-20)
(1.07201 -0.027581 0)
(0.856296 0.0499667 -6.48476e-21)
(0.988183 -0.0322065 -4.09907e-23)
(1.24003 0.0260519 0)
(1.12103 -0.000698352 0)
(1.25313 -0.0602521 -6.46508e-21)
(0.928356 0.12483 1.10125e-19)
(1.07505 0.0119915 -1.13483e-20)
(1.17917 -0.0456079 0)
(0.953695 0.187678 0)
(1.33687 0.05009 -3.34142e-20)
(1.27566 -0.179953 6.77718e-21)
(0.961756 -0.021624 -7.17138e-22)
(1.07328 -0.0251894 0)
(1.04204 0.0375876 -2.38759e-22)
(0.98565 -0.0272396 1.38913e-24)
(1.12646 -0.0195665 0)
(1.03525 0.0374212 0)
(1.07007 -0.0188411 6.4921e-22)
(1.29947 -0.0870177 7.61778e-21)
(0.742109 -0.110868 1.11571e-19)
(0.872352 -0.0284433 -2.15387e-21)
(1.01686 0.0400117 7.2532e-22)
(1.18981 0.0502977 -1.04233e-21)
(1.08251 0.0393319 0)
(1.25947 -0.0806413 -1.46434e-20)
(1.27235 -0.139368 0)
(1.00596 -0.0023255 -5.72208e-21)
(1.12878 -0.0457704 4.1277e-21)
(1.23625 -0.0694428 0)
(1.01131 0.0176128 -1.79677e-20)
(0.992499 0.0376408 9.35787e-22)
(1.24866 -0.251575 2.52368e-21)
(1.1752 0.0560805 -1.33645e-21)
(1.39567 -0.185917 -3.31229e-20)
(1.13541 -0.0442385 4.90222e-22)
(1.14915 -0.0740969 0)
(1.12 -0.00278663 5.09712e-21)
(1.1387 -0.0144035 0)
(1.32504 0.233114 4.81741e-21)
(1.07145 0.0475167 -5.01791e-22)
(1.18105 -0.0177523 0)
(1.20592 -0.0963531 2.35866e-21)
(1.23212 -0.101086 7.2609e-21)
(1.15052 0.0346771 6.34558e-22)
(-0.193228 0.0584963 0)
(1.2129 -0.214173 -5.56876e-21)
(1.18262 -0.0744339 0)
(1.41587 -0.108452 -2.55532e-20)
(1.14478 -0.0588403 -4.86482e-21)
(1.04005 -0.0301428 -5.71223e-21)
(1.31822 -0.126228 2.4773e-20)
(0.62997 0.0159621 0)
(1.15617 -0.0632976 0)
(1.43186 -0.351617 0)
(0.884969 0.0291516 -1.05137e-22)
(1.2336 -0.142105 -3.89587e-20)
(1.00081 0.0466129 0)
(1.05759 -0.0499529 -1.77237e-21)
(1.11923 -0.333673 -5.76366e-20)
(1.13469 -0.0475443 -3.91783e-21)
(1.15325 0.0202099 5.55476e-22)
(1.32211 0.499351 2.49156e-20)
(1.11088 -0.041646 0)
(1.01456 0.285114 -1.82019e-19)
(1.35985 0.0206705 1.89376e-20)
(0.732268 0.0215254 0)
(0.841826 0.035695 -5.80322e-21)
(0.968121 -0.108432 4.27667e-21)
(1.13035 -0.0500859 3.1866e-21)
(1.19886 0.00620875 1.66804e-21)
(1.27533 -0.234849 0)
(1.3498 0.288871 0)
(1.09336 -0.00184228 -8.70894e-21)
(1.41677 0.092277 3.72309e-20)
(1.08037 -0.0218173 1.06888e-20)
(1.31495 -0.12985 -1.30625e-21)
(0.96499 0.0263569 1.67773e-20)
(1.00415 -0.0239889 0)
(1.11627 0.0160321 1.16776e-21)
(1.24667 -0.0838694 -6.16362e-20)
(0.754748 0.0228486 -7.79485e-22)
(1.35853 -0.0586057 0)
(1.31951 -0.102011 0)
(1.40596 -0.0944179 -3.98842e-20)
(1.10735 -0.0444545 -1.01857e-21)
(1.12986 0.00513458 2.72316e-23)
(0.953894 0.0225586 9.07572e-21)
(1.19236 -0.00733655 -6.53064e-22)
(1.32942 0.00499734 -2.26224e-20)
(1.0005 0.00672729 1.1256e-20)
(1.46932 -0.0650459 0)
(0.912569 0.0832296 0)
(1.09959 0.0339802 9.60474e-22)
(1.19847 -0.221189 -7.74798e-21)
(1.28547 -0.01048 1.2906e-20)
(1.04811 0.0478204 -1.21566e-19)
(1.1608 0.041477 -3.21965e-22)
(1.17506 0.142691 3.80048e-21)
(0.794031 0.0187107 0)
(0.917285 -0.0457333 7.60671e-20)
(1.15084 0.0207924 -1.70721e-21)
(1.42395 -0.262334 -1.67268e-20)
(1.12069 -0.0535275 -3.52877e-21)
(0.92537 0.014759 2.51613e-21)
(-0.333879 -0.0190757 0)
(0.862458 -0.0175757 2.12443e-21)
(0.804737 0.0233924 0)
(1.06376 0.00144613 -8.16128e-23)
(1.01248 0.0288598 0)
(1.31367 0.322879 7.46146e-21)
(1.03385 -0.054788 -3.05685e-20)
(1.3303 0.167567 1.34947e-21)
(1.1484 -0.0687978 0)
(1.09155 -0.0237522 0)
(0.574302 -0.00139478 0)
(1.12115 -0.0399315 -1.86764e-21)
(1.2503 -0.058022 8.42191e-21)
(1.06759 0.11329 -3.22628e-20)
(0.846858 -0.0224838 0)
(1.10739 0.0225731 -3.51089e-22)
(1.06623 -0.00381463 3.70137e-21)
(1.14424 -0.00234501 -1.10375e-21)
(0.989593 0.0352736 1.61723e-21)
(1.13334 0.00380417 -2.28292e-23)
(-5.86652e-05 0.0728853 0)
(1.0964 -0.0256157 -1.19364e-20)
(1.13368 -0.0175238 1.80969e-21)
(0.717695 0.0265806 -1.49038e-21)
(1.26339 0.17301 2.9072e-21)
(1.03849 0.0988674 5.07201e-21)
(1.04957 0.0172783 1.5722e-20)
(0.990355 0.0260478 0)
(1.14973 -0.13755 -1.81775e-20)
(1.04566 0.0647187 0)
(0.936143 0.0320194 2.975e-21)
(0.968591 0.284081 1.45623e-19)
(0.967771 0.0367302 0)
(0.818239 0.102556 0)
(-0.0975138 0.0670047 -6.73941e-20)
(1.34688 0.137626 -1.30533e-20)
(0.67714 -0.0239155 0)
(1.46925 0.0296119 0)
(1.11418 -0.0419016 0)
(1.36265 0.0916964 1.50765e-20)
(-0.0411281 -0.0737172 0)
(-0.0539441 0.0898127 3.23191e-20)
(0.978625 -0.0425245 7.5836e-20)
(1.00563 0.0401469 2.61132e-22)
(0.861595 0.000298978 0)
(1.03486 -0.047615 5.29228e-21)
(0.894867 0.0222374 0)
(0.711154 -0.020195 -8.19669e-20)
(1.02615 0.0508328 2.71189e-21)
(1.13048 -0.0538011 1.72547e-21)
(1.09805 0.00791283 4.50394e-21)
(1.01483 0.0707547 -1.13531e-20)
(0.707041 0.0636311 -5.0495e-21)
(1.13457 -0.349005 6.20419e-22)
(0.916231 -0.0250368 0)
(1.07062 -0.000435721 -1.2618e-20)
(0.87509 0.0103134 -9.51194e-21)
(1.37027 -0.172841 1.98326e-21)
(0.68978 0.02736 0)
(1.03831 -0.141951 0)
(1.11426 -0.0509962 1.85325e-21)
(1.39311 0.218252 1.03634e-20)
(1.11961 0.0156143 2.7408e-21)
(1.03678 0.016506 1.93731e-20)
(0.735921 0.0554929 -8.16707e-20)
(0.814735 0.00382848 1.78081e-20)
(1.13642 -0.0185701 1.92632e-21)
(1.37861 -0.0892079 -4.65959e-21)
(1.1118 -0.0535063 -3.52571e-21)
(1.31603 -0.0593592 3.99274e-21)
(-0.100947 0.0915096 4.90933e-20)
(1.2767 -0.0478639 0)
(0.603502 -0.0195605 0)
(1.06147 -0.0293053 -6.23814e-21)
(1.10323 0.0100924 2.41527e-21)
(0.0558763 0.097154 0)
(0.876908 -0.0230376 2.03423e-22)
(1.11342 -0.0545982 -1.86262e-21)
(0.972358 0.0151727 -3.8275e-22)
(1.07936 0.0380932 -6.78678e-21)
(1.0092 0.0204295 2.71337e-21)
(1.04052 -0.0478965 1.64306e-21)
(1.04628 0.0331694 0)
(0.335851 -0.0350185 0)
(1.04835 -0.0630011 0)
(1.14213 0.111588 -2.83239e-20)
(-0.0455068 -0.0669632 4.49926e-20)
(1.06351 0.0109529 -1.55292e-24)
(1.19399 0.0474738 0)
(0.755788 0.0212687 -2.9069e-21)
(1.14227 -0.00162964 8.82816e-22)
(-0.00389154 -0.0385943 -1.46137e-19)
(0.742497 0.0133825 -4.14324e-20)
(0.62269 -0.0212568 0)
(0.976788 -0.000781231 0)
(0.922691 0.0364749 4.63212e-21)
(1.00654 -0.108973 5.60055e-21)
(1.27972 0.399203 -3.51051e-22)
(1.11087 -0.0333808 4.35753e-24)
(1.15115 -0.0832031 -3.75257e-21)
(1.01392 0.0125918 0)
(1.36306 0.425402 -3.81053e-20)
(0.646046 -0.0193967 0)
(0.799831 -0.020578 -2.15216e-21)
(1.05413 -0.010344 2.1721e-22)
(0.570799 0.0156832 0)
(1.09971 -0.00617188 0)
(0.00745877 0.0351326 -3.72008e-20)
(1.13889 -0.110894 -5.86654e-21)
(0.725871 -0.0112352 6.75602e-22)
(0.990981 -0.00274028 0)
(0.532329 -0.0178375 0)
(0.758 -0.0170269 -1.73687e-21)
(0.522442 -0.0156665 -4.22542e-22)
(1.34267 0.0286141 3.50012e-22)
(1.25922 0.0679426 -2.13206e-21)
(0.696624 0.0127257 -3.81647e-22)
(1.11889 -0.0237897 -2.15297e-23)
(1.15662 -0.0560696 -4.10615e-24)
(0.529655 0.0187657 1.21983e-21)
(1.1867 -0.0445334 3.46434e-22)
(1.16187 -0.048762 0)
(0.951087 -0.0328243 0)
(0.484829 0.0197075 0)
(1.03549 -0.00751446 0)
(1.15237 0.0106172 -6.4496e-22)
(1.07128 -0.0476234 0)
(1.13025 -0.0251608 0)
(1.03101 -0.0268233 0)
(1.05933 0.0221979 0)
(-0.0234994 -0.0387288 4.47238e-20)
(1.1981 0.00493027 5.19279e-22)
(1.07513 -0.0068327 0)
(1.34457 -0.0160461 1.72806e-20)
(1.15241 0.00731661 3.71431e-22)
(1.11714 0.0523696 -1.09412e-21)
(1.12528 -0.0261617 3.4487e-21)
(1.15234 -0.004265 0)
(0.558334 -0.0177299 3.97835e-21)
(1.05232 0.0437904 1.1042e-20)
(1.22627 -0.0655748 0)
(1.20982 -0.0123127 -9.37633e-22)
(1.17018 0.0352049 1.56414e-21)
(0.701556 0.173268 1.38856e-21)
(1.13598 0.0290868 3.01852e-21)
(1.19234 0.0130514 -3.09017e-21)
(1.06844 0.0813731 0)
(1.14464 0.0769959 -1.51926e-20)
(1.15852 0.0761982 -2.37216e-21)
(0.704804 -0.108707 7.7661e-21)
(0.910214 0.0388999 0)
(-0.0157065 -0.0214679 0)
(0.975161 0.114102 -1.74895e-20)
(1.14321 -0.0188838 0)
(1.2807 -0.0851197 2.59235e-20)
(1.18057 0.0507703 4.90919e-22)
(1.16068 0.00780238 2.97075e-21)
(1.14833 0.0569931 -1.37108e-21)
(1.3374 -0.0433729 8.8852e-20)
(1.01581 -0.32233 5.81876e-20)
(1.11022 -0.0372662 -3.45213e-22)
(0.981682 -0.00278876 0)
(0.937976 0.0943798 0)
(0.901945 0.00181322 -2.63457e-20)
(1.28639 -0.137385 -5.34268e-20)
(1.13821 0.00820595 0)
(0.587475 -0.0314111 1.60012e-20)
(0.37054 0.174316 0)
(0.761231 0.00181285 6.5861e-21)
(0.779787 -0.051823 -1.85796e-20)
(0.80814 0.028052 -2.79658e-21)
(1.1448 -0.0360282 0)
(1.27008 0.0885769 -5.72655e-22)
(1.19025 0.0883233 2.33177e-21)
(0.74306 -0.0827457 -8.25097e-21)
(1.15985 0.0077877 -3.04274e-21)
(0.81642 -0.0595597 0)
(1.09291 0.071608 0)
(1.07587 -0.0537267 7.91315e-21)
(0.806642 -0.0534149 -6.65309e-21)
(1.27094 0.0551816 3.74302e-21)
(1.12171 -0.022237 -2.5266e-21)
(1.04312 0.065311 2.85925e-22)
(1.10935 -0.0145144 0)
(0.412746 -0.137478 1.33337e-20)
(1.3442 0.0875289 -2.38091e-20)
(0.876874 -0.069933 -9.0655e-21)
(0.0671286 0.0411055 -1.46825e-21)
(1.41365 -0.149291 2.29032e-20)
(0.929804 -0.0184253 7.57871e-20)
(1.20766 -0.0155273 -8.09196e-21)
(1.09591 -0.0229262 -2.73119e-23)
(-0.0638658 -0.0579264 -7.68619e-21)
(1.00058 -0.00681008 0)
(1.03331 -0.0856362 -1.60334e-20)
(0.855054 -0.0333523 2.38035e-21)
(1.10239 -0.0539533 2.10524e-21)
(0.796958 -0.103137 -5.69738e-23)
(0.51194 -0.0164033 -5.93293e-22)
(1.40861 -0.384703 -1.52897e-20)
(1.1181 0.0373914 0)
(1.01263 0.00571517 6.72029e-22)
(1.13239 0.0366457 -1.62197e-21)
(1.22691 0.0168899 0)
(0.781486 0.0629962 -7.67495e-21)
(1.12402 0.0376672 2.19852e-21)
(0.738921 -0.12103 1.64158e-20)
(1.14852 -0.0409779 8.6835e-21)
(0.864056 0.0266808 4.58043e-21)
(-0.0371465 -0.00190849 0)
(0.526117 0.110453 3.02583e-20)
(1.1548 0.029153 0)
(1.02648 0.177945 1.68896e-20)
(0.975322 0.227618 0)
(1.12966 -0.00919605 -9.69228e-22)
(1.016 0.0269053 0)
(1.03969 0.0120665 0)
(1.38741 -0.127123 1.91625e-20)
(0.794839 -0.0838341 0)
(1.19499 -0.107248 9.13901e-21)
(1.10006 -0.0103912 1.30339e-22)
(1.04969 0.0377204 1.94914e-21)
(1.28345 -0.0835954 -1.59237e-20)
(1.24695 0.120882 -6.28057e-21)
(1.25642 -0.114619 9.38265e-21)
(1.14361 0.0299812 0)
(1.17089 -0.042957 0)
(1.09663 0.0388223 1.83955e-21)
(1.22812 -0.0333277 0)
(1.40947 0.217302 -2.59123e-20)
(0.815676 -0.0951801 -1.23322e-21)
(1.02749 0.0164172 1.95611e-20)
(1.27806 -0.000593008 -3.49829e-22)
(-0.0120134 0.00894343 0)
(-0.0301954 -0.0564458 0)
(0.00245712 0.100282 -3.67084e-20)
(-0.065176 -0.058898 0)
(0.714836 -0.0656364 -7.13374e-21)
(1.17034 0.0425785 -1.20727e-21)
(1.16198 -0.0354349 -2.58463e-21)
(1.21225 -0.0776512 -5.11799e-21)
(1.20238 -0.0487635 0)
(0.694974 -0.00419576 -2.46409e-22)
(1.12818 0.0520632 0)
(1.10483 0.0211283 7.9854e-23)
(0.501082 -0.108644 0)
(0.787485 -0.030056 -1.46461e-22)
(1.11065 0.0679922 0)
(1.14826 0.0333872 0)
(0.598569 0.0169416 3.68679e-20)
(0.581478 0.0723058 -1.62071e-21)
(0.891152 0.0369859 2.82835e-21)
(1.01122 0.0175882 -8.96408e-21)
(0.168744 -0.0586519 0)
(1.23637 -0.117992 -1.21542e-20)
(1.25475 0.0774786 -8.40059e-21)
(1.17768 -0.132689 3.24895e-22)
(0.658816 0.0598751 6.31131e-21)
(-0.0518701 -0.0248254 -9.35144e-20)
(1.1427 0.0887737 0)
(-0.0339379 0.0401075 0)
(1.19259 0.105398 -1.82157e-21)
(0.364283 0.179787 -6.79167e-21)
(1.13776 0.0426591 -6.47021e-21)
(1.11064 -0.043428 0)
(1.18246 -0.0532115 1.98305e-21)
(1.22041 -0.19356 1.73602e-20)
(0.538712 -0.0444568 -9.27223e-21)
(1.14322 -0.0366724 1.1312e-21)
(1.16946 -0.046957 -4.69155e-23)
(0.0829212 -0.204823 2.18515e-20)
(1.24123 -0.0430166 -8.56858e-21)
(1.14609 0.0374484 0)
(1.13942 0.0861185 0)
(1.17732 -0.0569536 4.18831e-21)
(1.20454 0.0791735 7.59196e-21)
(0.697981 -0.201799 -4.68318e-20)
(1.19064 -0.122656 -1.4514e-20)
(1.12924 0.0601213 -3.70693e-22)
(0.49553 -0.00209115 6.82756e-21)
(0.164811 -0.0204539 -6.92917e-20)
(0.0708582 -0.322882 3.23274e-20)
(1.17452 0.187428 -6.59122e-21)
(1.22948 -0.492888 4.89096e-21)
(1.4043 0.0375681 -1.52486e-20)
(1.19653 -0.0486059 -4.96341e-21)
(0.934482 -0.231047 9.43834e-20)
(-0.388927 -0.161164 0)
(1.17645 -0.0344244 -4.4474e-22)
(0.00868028 0.036509 -2.25511e-20)
(1.17134 0.114793 1.57626e-21)
(1.1588 -0.0698982 5.13256e-21)
(1.08299 0.0387969 0)
(0.531162 0.0393083 0)
(1.17335 -0.0566783 0)
(1.32923 0.19759 -8.9311e-21)
(1.26729 -0.0335168 -2.60625e-20)
(1.15008 -0.0446943 -3.54779e-21)
(0.463261 0.00937642 0)
(0.62739 -0.00173792 0)
(0.640944 0.00642751 7.01327e-22)
(0.455085 -0.0073728 0)
(1.18221 0.0566893 0)
(1.02071 -0.0141101 2.40607e-20)
(0.112748 0.0744534 0)
(0.91246 0.0373572 0)
(1.11578 -0.010044 0)
(1.17528 0.185013 -4.81729e-21)
(1.28169 0.0299254 1.27512e-20)
(0.964673 -0.0306021 4.35445e-21)
(1.2862 -0.399627 -1.05717e-19)
(0.46967 -0.106195 -4.36551e-21)
(1.20239 0.0514319 5.53376e-21)
(1.2103 0.0073554 0)
(-0.309831 -0.129654 0)
(-0.226437 0.116406 0)
(1.16156 -0.0362498 -7.18101e-21)
(1.31551 -0.291287 -2.27671e-20)
(1.36908 0.0989173 0)
(1.07667 0.0413404 -5.33563e-21)
(0.482418 -0.103869 0)
(1.49961 -0.171758 6.81794e-20)
(0.413225 0.522159 1.12538e-19)
(0.278181 -0.0400319 0)
(1.09311 -0.27641 1.13475e-19)
(0.0985907 -0.0854748 0)
(-0.297787 -0.247784 -5.84164e-22)
(1.38633 0.0824238 0)
(-0.165852 0.0344476 1.392e-21)
(0.983509 -0.050052 0)
(1.24215 -0.0937644 -1.08007e-20)
(-0.135379 0.0324876 -7.45974e-21)
(1.12288 -0.0309521 -5.46464e-22)
(1.19263 -0.0452164 -3.6709e-21)
(0.570547 -0.509976 -9.23096e-20)
(1.12676 0.0156286 -6.25996e-22)
(1.19183 -0.130781 3.841e-21)
(1.18322 0.251004 -1.89513e-20)
(1.13728 -0.15223 6.365e-22)
(1.16136 -0.0191401 -1.30554e-21)
(-0.0418331 -0.0755439 -6.87371e-20)
(0.056248 0.108377 -7.2563e-21)
(1.24589 0.115646 2.6709e-21)
(1.05807 -0.0514346 0)
(0.487155 0.116915 -7.54155e-21)
(1.39518 -0.441477 7.9375e-20)
(0.921047 -0.070293 -5.75494e-20)
(1.43793 0.158619 7.86909e-20)
(1.09057 -0.0448549 1.06766e-21)
(1.20399 -0.0298593 7.27503e-21)
(1.06158 -0.00747986 0)
(1.18601 -0.0308314 0)
(1.23721 -0.0717094 3.15104e-21)
(1.08696 -0.020945 -4.53029e-21)
(1.11254 -0.111296 -2.44856e-22)
(1.0914 0.0597148 -3.39113e-21)
(1.42034 -0.058243 -4.28707e-20)
(0.426856 0.0345093 0)
(1.1893 -0.0427437 5.10118e-21)
(1.346 0.0441834 0)
(1.10932 0.066556 -3.04187e-22)
(1.14484 0.0241434 0)
(1.04144 -0.00996427 1.22228e-20)
(1.23735 0.0337821 1.74454e-20)
(1.06365 0.0388734 0)
(0.0546532 -0.0285297 1.53926e-19)
(0.882319 -0.209536 -7.40271e-20)
(1.21542 -0.0590545 -2.50308e-20)
(-0.111963 0.016797 3.95796e-20)
(1.20377 0.0319552 3.88271e-22)
(0.768919 0.0671874 -1.00109e-21)
(-0.0920665 0.0416412 -4.12601e-20)
(-0.0243666 0.0331412 -2.63054e-20)
(1.0185 -0.0299893 0)
(-0.029629 -0.0349236 0)
(1.20916 -0.010347 0)
(0.111623 -0.0993665 0)
(1.11509 -0.0279568 0)
(0.1393 0.0310877 0)
(1.1286 0.0507945 0)
(1.18924 0.0611577 0)
(1.3771 0.124381 1.00279e-21)
(0.57284 -0.283815 -2.0803e-20)
(-0.118891 0.143103 0)
(1.12117 -0.0933653 5.98824e-20)
(1.24566 0.0189296 1.37572e-21)
(1.26049 -0.0288436 0)
(-0.0361826 -0.0405276 0)
(1.16377 0.0103236 5.55102e-21)
(1.17078 -0.0123094 -2.7527e-21)
(1.17031 0.39206 0)
(0.243909 -0.0560576 5.88979e-20)
(1.12218 0.0587357 9.49616e-22)
(0.23353 -0.0510011 -5.20871e-20)
(-0.061242 0.0464318 -3.11414e-20)
(-0.0366648 0.0494191 8.06922e-20)
(0.348339 -0.132098 3.43967e-20)
(1.01726 0.030139 9.41981e-22)
(1.14371 0.0703399 3.83759e-21)
(1.02302 -0.00790217 0)
(1.06975 -0.0708356 -2.1436e-20)
(1.26495 0.0395458 -1.3705e-20)
(-0.00951792 -0.0125992 9.61899e-20)
(0.978843 -0.071781 -5.94304e-20)
(0.684558 0.153377 1.23584e-20)
(1.13713 0.0326899 -2.16778e-21)
(0.0757323 -0.0296475 3.32171e-20)
(0.24602 -0.0370009 -4.71287e-20)
(0.401049 -0.0446338 -5.34015e-20)
(1.25526 0.162517 -7.38855e-21)
(-0.0530861 -0.0351314 0)
(1.03042 0.197442 2.45404e-21)
(1.10115 -0.0594456 1.66534e-20)
(1.11667 -0.0406155 -1.60563e-20)
(1.2503 -0.0189901 0)
(1.51027 -0.229258 6.96532e-20)
(1.1261 0.0460029 -9.18185e-22)
(-0.0136959 -0.0281148 -3.2585e-20)
(0.279177 0.0937609 0)
(0.892981 0.0273116 4.84109e-22)
(1.13863 0.0213964 -9.24351e-22)
(0.807174 -0.17197 2.04991e-20)
(1.16578 0.0088861 -1.83229e-21)
(1.1187 0.050612 0)
(1.13395 -0.170047 -1.44983e-20)
(-0.0954355 -0.0158469 -6.31147e-20)
(1.31039 -0.0400071 1.9962e-20)
(1.10351 0.175983 -8.78563e-21)
(1.08626 0.0585197 3.8784e-21)
(-0.0405401 -0.0524939 1.50609e-20)
(-0.0237504 0.0380073 -6.20538e-20)
(0.611187 0.0453688 0)
(0.743184 0.0717548 0)
(1.15421 0.101052 -1.42461e-20)
(1.05208 0.0703472 1.14909e-20)
(1.09589 0.00617273 0)
(0.434036 0.0210958 3.99323e-20)
(0.716023 0.0927348 -1.10427e-20)
(1.09963 0.110938 0)
(1.0781 0.0435951 0)
(1.34616 0.0557389 0)
(1.21766 0.0327542 0)
(1.14697 0.0141861 3.08891e-21)
(-0.0429305 0.0444656 3.40123e-20)
(1.23014 0.0478114 3.32602e-21)
(1.39562 -0.190912 -7.86477e-20)
(1.2199 0.00820642 -4.80959e-21)
(0.0434079 0.0870288 0)
(1.14652 -0.00784203 0)
(0.633861 -0.00292379 6.19337e-22)
(0.52723 0.00964687 -5.76467e-20)
(0.0674353 0.0370406 4.69412e-20)
(0.946441 0.00800153 -1.32805e-21)
(0.73855 -0.271055 0)
(0.673958 -0.0896009 0)
(1.18478 -0.00429069 0)
(0.541148 0.515626 2.20954e-20)
(-0.0164001 0.0285615 -2.92374e-20)
(1.08424 0.00845877 -3.25918e-21)
(-0.0202579 -0.0362545 6.18237e-20)
(1.11303 -0.0536493 1.54416e-21)
(1.17642 0.317791 3.61456e-20)
(1.11178 -0.090194 8.03746e-21)
(0.31784 -0.0245265 8.96946e-20)
(1.05628 0.127046 3.10994e-21)
(1.12262 -0.0474203 0)
(0.557145 0.271223 0)
(0.919607 0.0556815 4.02427e-21)
(-0.191951 0.10205 0)
(0.60806 0.0288675 1.35411e-21)
(0.599978 -0.414353 -2.95685e-21)
(0.234471 0.0494686 -1.10721e-19)
(1.12293 -0.226371 3.27241e-20)
(1.04011 0.368334 1.00113e-20)
(0.979349 0.0208835 0)
(1.23487 -0.0428712 7.45076e-23)
(0.63607 0.00414215 0)
(0.988864 -0.000678832 -8.67275e-22)
(0.43459 -0.0176612 0)
(0.712098 0.135047 0)
(0.99948 -0.0223312 -1.58302e-21)
(1.43831 0.177136 -1.47971e-20)
(1.09643 -0.0444407 1.95029e-21)
(0.518954 -0.487971 0)
(1.13258 -0.15615 2.27895e-21)
(0.805416 0.383406 7.00456e-20)
(-0.0419972 0.0205923 1.13599e-21)
(1.22413 -0.023983 1.24961e-20)
(1.21955 0.0318773 -1.35908e-20)
(1.12883 -0.0719393 5.95619e-22)
(0.789094 0.00826336 -1.61857e-21)
(0.0584279 0.0190475 3.6316e-20)
(-0.0175091 -0.00244436 -5.39514e-20)
(-0.188569 0.104285 0)
(-0.175364 0.213761 0)
(1.17882 -0.611991 3.10352e-20)
(1.15261 -0.02743 1.27394e-21)
(0.88247 -0.461991 -4.14075e-20)
(1.05878 0.194247 -6.36422e-21)
(1.36558 0.203757 3.37652e-20)
(0.603696 0.421273 0)
(0.247318 0.419228 -1.13719e-19)
(0.597143 0.487547 0)
(0.0327089 0.0975777 0)
(1.11742 -0.476308 0)
(-0.0461288 0.0488465 -2.59849e-22)
(1.2009 -0.0239233 0)
(0.879828 0.0688092 -2.85231e-20)
(0.596997 0.697365 2.05191e-20)
(1.34322 0.150826 1.48093e-20)
(-0.0380681 -0.0707169 -1.06322e-19)
(0.737898 0.11069 -2.85044e-20)
(0.448367 0.144253 -1.33545e-20)
(1.20807 0.0938528 0)
(1.36174 0.360068 3.51899e-20)
(1.2247 0.570397 7.67863e-21)
(0.151208 -0.0128741 -2.14977e-20)
(0.995705 0.139214 3.13558e-20)
(0.936171 -0.0156879 -4.14742e-23)
(0.906619 0.020932 4.51821e-22)
(-0.00282082 -0.0283287 0)
(0.642491 -0.645663 -3.08546e-20)
(0.613651 0.207487 0)
(0.0453495 -0.0666251 0)
(-0.0481602 0.0611438 0)
(-0.0178328 -0.064719 -4.01427e-20)
(1.24101 -0.00638481 -1.43418e-20)
(-0.0298804 0.0640205 0)
(-0.0336152 0.057108 0)
(1.45375 0.121124 -7.61697e-20)
(-0.0371686 -0.067048 4.81706e-20)
(0.115385 0.238399 -1.00443e-19)
(0.377802 0.0187433 0)
(0.168235 -0.27237 8.17698e-20)
(1.08004 -0.238132 0)
(0.993172 -0.281896 0)
(-0.00665839 -0.065117 1.00117e-19)
(1.15162 0.036063 5.98483e-25)
(1.12714 0.347041 2.76472e-20)
(0.256081 0.0286309 4.54713e-20)
(0.400668 -0.51231 -3.87928e-20)
(1.28844 0.0836228 0)
(1.21297 0.200688 2.16156e-20)
(1.21575 0.215356 -2.65531e-20)
(0.102722 0.0941441 -2.33772e-20)
(-0.0616578 0.0301081 0)
(1.06912 -0.0589306 -1.95083e-20)
(1.09969 -0.221949 -1.61039e-20)
(0.580147 -0.397305 0)
(1.09582 -0.148538 -2.62056e-20)
(-0.0651174 0.192617 0)
(0.587625 0.0515251 0)
(1.42674 -0.0128633 3.4701e-20)
(0.977997 0.0230759 7.98754e-23)
(1.08013 0.749647 -1.56698e-20)
(0.223472 -0.373762 1.33701e-19)
(1.07839 0.0246557 -2.04486e-22)
(1.2107 0.0746938 1.04361e-21)
(-0.0493473 0.0758655 2.94363e-20)
(0.788718 0.736342 2.75428e-20)
(1.34128 -0.369235 -1.32067e-20)
(-0.222945 -0.0592875 5.84563e-20)
(1.13211 0.0408451 0)
(0.243944 0.0247998 -8.62983e-21)
(0.891983 -0.630858 2.667e-21)
(0.900258 0.643326 -2.0056e-20)
(0.543057 -0.033974 -6.15634e-20)
(1.14789 -0.00777219 1.64575e-21)
(1.07541 -0.0854125 6.97743e-21)
(1.16993 0.0616132 -2.45279e-21)
(1.10659 0.122096 3.3591e-21)
(1.13107 -0.130795 0)
(0.899848 0.113451 1.39592e-20)
(0.884847 0.45959 0)
(1.33588 0.122763 6.62669e-21)
(1.17072 0.114886 -1.28753e-21)
(0.747653 0.264281 0)
(0.514235 0.110212 1.05614e-19)
(0.895618 0.717091 -7.93118e-22)
(1.07968 0.293732 -2.12327e-20)
(1.04387 -0.0116037 1.18802e-20)
(0.41682 0.498905 0)
(1.28875 -0.471365 0)
(0.700979 -0.0500679 6.13785e-21)
(1.26335 0.506631 0)
(-0.0273674 0.0557521 -4.11439e-20)
(1.27714 -0.414734 -5.84568e-21)
(1.16776 0.514677 0)
(0.452909 0.225082 1.68677e-19)
(1.12015 0.318032 -1.17797e-19)
(0.809766 -0.633373 -2.67271e-20)
(1.17515 0.0579888 -3.60686e-21)
(0.909449 0.152822 7.91464e-20)
(1.09014 0.170954 5.05669e-20)
(1.07235 0.707716 2.89981e-22)
(0.898976 -0.432821 6.62398e-20)
(1.43712 0.188385 4.0595e-20)
(1.13122 0.00818588 -5.60259e-23)
(0.006063 -0.0453536 9.04479e-20)
(1.07535 -0.697355 2.33031e-20)
(0.865098 -0.713354 5.5518e-20)
(0.249363 -0.322821 0)
(0.971476 -0.145631 7.34947e-20)
(0.363348 0.315971 -4.37816e-19)
(-0.115638 0.113983 2.00017e-20)
(0.229091 0.0462358 2.15297e-20)
(0.671117 -0.0576426 -7.25864e-20)
(1.08167 0.534261 0)
(0.992042 0.224686 7.97229e-20)
(1.08843 0.0307317 2.99026e-21)
(0.912821 0.447653 -9.03097e-20)
(0.775261 -0.718748 -8.93099e-21)
(0.928448 0.026073 -4.91098e-20)
(0.979795 0.494906 0)
(1.23169 0.148065 -1.57246e-20)
(1.37316 -0.512893 1.25924e-20)
(1.22276 -0.339455 8.93233e-21)
(-0.209051 0.116457 3.50379e-20)
(0.194174 0.0135853 -1.81591e-20)
(0.972342 -0.116315 -5.82723e-20)
(0.35494 0.531888 0)
(0.91681 0.0200617 3.91301e-20)
(1.1567 0.639201 7.91557e-20)
(-0.0924146 -0.00480348 1.34695e-19)
(-0.061277 0.0692706 -2.45534e-20)
(-0.0812412 -0.0275409 3.96123e-20)
(1.09828 0.024583 -3.93665e-21)
(1.1234 -0.458247 0)
(1.05986 -0.728914 -4.47984e-20)
(0.699915 0.35515 0)
(0.00164201 0.000784708 -9.68742e-20)
(1.093 0.0203491 1.47019e-21)
(-0.0335742 -0.0460578 -2.80555e-20)
(1.04805 0.0567438 -1.23502e-20)
(0.0980387 0.0318811 5.33408e-20)
(0.836242 0.128931 0)
(1.36512 -0.058244 4.19069e-20)
(0.0419949 0.0564011 -2.4445e-20)
(-0.204661 0.144695 -4.16141e-20)
(-0.214987 0.155524 0)
(0.0826229 -0.0137019 0)
(1.32345 -0.0359487 -1.14669e-20)
(0.377029 -0.00976951 1.49737e-19)
(1.25843 -0.72202 -1.90469e-20)
(0.948839 -0.106235 3.89284e-20)
(1.07405 0.253832 -2.96392e-20)
(0.364558 -0.549092 1.41351e-19)
(1.54933 0.287599 -3.37797e-20)
(0.0635288 -0.0508795 3.50205e-20)
(0.209046 0.313974 1.95235e-19)
(0.0952513 -0.0295839 -1.31272e-19)
(0.938469 -0.488492 -4.38609e-20)
(1.45309 0.392844 3.44992e-20)
(0.561571 -0.668887 4.99976e-20)
(1.10663 -0.0857123 -6.99676e-21)
(0.158836 0.0696086 5.20928e-20)
(1.17511 0.293976 -4.64678e-20)
(0.663964 0.645964 -4.01702e-20)
(1.32838 -0.620072 0)
(1.41511 0.523305 3.31612e-20)
(1.04752 -0.52455 -1.22412e-20)
(1.38854 0.610484 -9.91779e-20)
(1.19422 0.0244286 0)
(-0.0535382 0.0797378 0)
(1.25297 0.73393 0)
(1.22116 0.0417382 -3.70988e-21)
(0.738071 -0.296666 -2.07977e-19)
(0.476277 -0.0763937 0)
(-0.0542442 0.0885116 -2.49438e-20)
(1.02058 -0.245293 9.95374e-20)
(-0.278456 0.0532728 0)
(0.321583 0.0335409 1.22689e-20)
(1.15634 0.0346506 0)
(1.41053 0.28064 0)
(1.20274 0.0547516 3.86246e-21)
(0.359856 -0.284156 0)
(1.01413 0.152688 3.70384e-20)
(1.30462 0.290637 0)
(-0.0788366 0.0794926 -2.16801e-22)
(0.809583 -0.391102 0)
(1.51756 0.345104 -5.13439e-20)
(1.2424 0.37355 3.0641e-22)
(0.843393 0.652434 -9.72415e-21)
(1.01251 0.159632 -8.79427e-20)
(0.968279 -0.202073 -4.84635e-20)
(1.45194 0.300334 3.02194e-20)
(0.998488 0.112975 0)
(0.563851 -0.0654681 0)
)
;

boundaryField
{
    FrontBack
    {
        type            empty;
    }
    Top
    {
        type            noSlip;
    }
    In
    {
        type            fixedValue;
        value           uniform (1 0 0);
    }
    Bottom
    {
        type            noSlip;
    }
    Out
    {
        type            zeroGradient;
    }
    circle
    {
        type            noSlip;
    }
}


// ************************************************************************* //
