/*--------------------------------*- C++ -*----------------------------------*\
| =========                 |                                                 |
| \\      /  F ield         | OpenFOAM: The Open Source CFD Toolbox           |
|  \\    /   O peration     | Version:  2412                                  |
|   \\  /    A nd           | Website:  www.openfoam.com                      |
|    \\/     M anipulation  |                                                 |
\*---------------------------------------------------------------------------*/
FoamFile
{
    version     2.0;
    format      ascii;
    arch        "LSB;label=32;scalar=64";
    class       volScalarField;
    location    "539";
    object      yPlus;
}
// * * * * * * * * * * * * * * * * * * * * * * * * * * * * * * * * * * * * * //

dimensions      [0 0 0 0 0 0 0];

internalField   uniform 0;

boundaryField
{
    FrontBack
    {
        type            empty;
    }
    Top
    {
        type            calculated;
        value           nonuniform List<scalar> 
15
(
142.2736869454587
133.5680329810676
138.0694619233914
144.4014267132201
159.7701165861722
131.368507909347
140.1226721440044
135.3565859388652
153.4342639374513
135.7447746326738
136.0929748064288
136.7729975527641
125.2442113734438
132.9026775400778
123.9471131876002
)
;
    }
    In
    {
        type            calculated;
        value           uniform 0;
    }
    Bottom
    {
        type            calculated;
        value           nonuniform List<scalar> 
15
(
155.5653193378643
158.1127741960721
141.0923886863309
142.0693700729828
141.1836524121436
148.4447372976188
142.7055522589836
143.1664089031221
143.4237600693506
134.057026057143
125.7335431482164
141.553790188045
122.4119069173897
123.4917287920854
124.1405028336277
)
;
    }
    Out
    {
        type            calculated;
        value           uniform 0;
    }
    circle
    {
        type            calculated;
        value           nonuniform List<scalar> 
32
(
56.36762133910431
22.09004782561756
65.3183307683791
23.82831529585325
19.16115182116391
56.18472152923865
56.81380368194039
24.17739929559097
22.32405153546275
65.53672982117267
40.19441834724657
63.04951135062466
50.30837939813461
13.6331964182553
23.66715783617137
19.05715637604126
38.8831813221721
59.59624424036046
61.01486907058728
25.180658953417
65.72353131512644
63.81661699131611
62.95486866887881
59.91688764857158
64.10368290394776
45.96997023074614
66.36426163633509
32.09559829537054
37.99414084245874
55.74441421455688
21.12668879366028
43.14469616088617
)
;
    }
}


// ************************************************************************* //
