/*--------------------------------*- C++ -*----------------------------------*\
| =========                 |                                                 |
| \\      /  F ield         | OpenFOAM: The Open Source CFD Toolbox           |
|  \\    /   O peration     | Version:  2412                                  |
|   \\  /    A nd           | Website:  www.openfoam.com                      |
|    \\/     M anipulation  |                                                 |
\*---------------------------------------------------------------------------*/
FoamFile
{
    version     2.0;
    format      ascii;
    arch        "LSB;label=32;scalar=64";
    class       surfaceScalarField;
    location    "43.8";
    object      phi;
}
// * * * * * * * * * * * * * * * * * * * * * * * * * * * * * * * * * * * * * //

dimensions      [0 3 -1 0 0 0 0];

oriented        oriented;

internalField   nonuniform List<scalar> 
1171
(
-0.944828
0.944828
0.759066
-1.067
0.30793
-0.0804636
-0.673555
0.754019
0.055172
-0.0800054
-0.280584
0.360589
-0.759066
0.0805697
0.678497
0.901675
-0.210111
-0.691564
0.839087
-1.07997
0.240885
-0.354029
-0.0539705
0.407999
-0.0204202
0.607585
-0.587165
-0.625854
0.885267
-0.259413
-0.434034
1.02206
-0.182978
0.209888
0.103474
-0.313362
0.969317
0.0527479
0.248411
-0.038523
1.00316
-0.0338427
0.718115
-0.798578
-0.771553
0.593966
0.177587
0.122668
-0.748522
0.548946
-0.91002
0.361073
-1.07801
0.668184
0.409824
-0.643588
0.623167
0.0232841
-0.24279
0.219506
0.0475485
-0.633008
0.585459
0.459688
-0.513658
-0.854041
0.895187
-0.0411456
0.982944
0.0202154
0.899918
-1.06865
0.168736
0.988536
-0.00559203
-0.695016
-0.0765369
1.31411
-0.868792
-0.445321
0.134495
-0.102699
-0.389526
0.492226
-0.27458
0.193058
0.0815215
-0.59555
-0.471447
1.00262
-0.102706
-0.0316289
0.890943
-0.859314
0.526511
0.787602
0.504886
0.00217784
0.45751
-0.787651
-0.110275
0.897926
0.544226
0.260897
-0.805124
0.0686563
0.591358
-0.660015
-0.506719
-0.571289
-0.380426
-0.688228
0.0145921
0.25819
-0.272782
-0.954635
-0.0327851
0.98742
0.369901
0.0380983
0.804432
0.0972429
-0.59155
-0.0520372
0.0370585
-0.82471
0.0125472
0.989195
-1.00174
-0.398822
0.0271218
0.3717
-0.705813
-0.248822
-0.747226
0.759773
0.820005
0.065262
-0.584987
0.984611
-0.805569
-0.179042
-0.278323
0.208352
0.0699711
-0.456347
-0.0573114
-0.263622
1.08363
0.0321341
0.401995
-0.434129
-0.551158
1.09538
0.707805
-0.81808
0.396675
-0.0480926
-0.348583
0.80071
-0.80071
-0.81057
0.0505713
-0.331155
-0.695725
0.664096
-0.0477586
-0.154995
0.202754
0.888283
0.00266023
1.05313
-0.792231
0.226633
-0.327159
0.100527
0.907627
-0.103195
-0.658529
-0.0504737
0.709002
0.146137
-0.227807
0.0816704
0.78
-0.990111
-0.431222
0.306804
0.124417
0.680927
-0.633378
0.878568
-0.403434
-0.475134
0.498143
-0.6953
0.0343846
0.660915
0.102503
0.638669
0.0526444
-0.691314
0.15108
-0.100509
-0.504055
0.105233
0.0334597
-0.889808
0.856348
-0.529534
-0.747779
0.0527624
0.496712
-0.0392022
0.278715
-0.835498
0.556783
0.423481
0.576519
0.597958
-0.5609
-0.42881
0.0448227
0.383987
0.558298
0.242412
-0.678609
0.747266
0.107186
0.86057
0.00542561
-0.663954
-0.758316
0.791776
0.588196
0.090558
0.329725
-0.420283
-0.156526
0.583853
0.0075057
0.900392
-0.887395
-0.0129972
0.65633
0.32828
-0.441755
0.654333
-0.563775
0.407937
0.141009
-0.0494829
-0.763279
-0.234831
0.99811
-0.133832
-0.666879
-0.616009
0.360475
0.255534
0.651584
-0.646159
0.312831
1.02937
0.0237534
-0.758316
-0.117436
-0.160887
0.707805
0.777993
-0.777993
0.837045
-0.819351
-0.0176943
-0.454105
0.877586
-0.189219
-0.314837
0.763978
-0.676172
-0.0878063
-0.956869
0.19359
0.12291
-0.71446
0.81808
-0.974606
-0.270399
0.228881
0.0415175
0.111081
-1.02153
0.910446
0.537789
-0.0329034
-0.290788
0.593738
-0.30295
-0.667395
0.778476
-0.153984
0.571558
-0.914909
0.343351
1.06666
-0.726579
-0.34008
0.72851
-0.0699881
0.0133455
-0.0115696
-0.00177589
-0.799816
-0.786204
0.112649
-0.695725
0.569083
-0.541962
0.334461
0.601576
-0.936037
0.776011
0.168817
0.492158
0.507842
-0.133498
-0.7345
0.867997
1.08949
-0.189097
-0.72851
0.791776
0.185812
-0.428602
-0.0397441
0.031182
0.00856205
0.666374
-0.428155
-0.238219
0.678497
-0.0745552
-0.214647
0.559406
0.106968
-0.0288454
-0.000549622
0.029395
0.00811425
0.00523125
0.198225
-0.246318
-0.931977
0.00784727
-0.140201
-0.0721732
0.128106
0.831762
0.741021
-0.164502
0.747722
-0.413261
-0.167472
0.394105
0.643641
0.0348556
0.236309
-1.05566
-0.974606
0.330699
0.664096
-0.178139
0.0231438
-0.83961
1.07729
-0.237683
0.474153
-0.102453
0.78636
0.3047
0.290933
-0.0425213
-0.680296
0.680296
0.234105
0.663822
-0.05168
0.453675
0.440546
-0.0071887
-0.0325554
0.51113
0.0266592
-0.667395
0.563507
0.200471
-0.0104117
-0.00115788
-0.643641
0.169525
0.907768
0.0347647
-0.742077
0.707312
0.756729
-0.8211
0.064371
-0.776011
-0.0484316
0.0664573
-0.0180257
0.0899802
-0.121406
-0.100292
0.221698
-0.00663611
-0.0222093
0.782411
-0.747646
0.928903
-0.174884
-0.178262
-0.614707
0.79297
-0.000265267
0.000265267
0.273704
0.617057
0.272777
-0.889834
-0.188962
-0.548793
0.737755
-0.0165589
0.219313
0.376645
-0.230508
0.958182
-0.341125
0.845943
0.943431
-0.670653
0.187426
0.778476
0.595498
0.234767
0.660419
-0.666879
0.319704
-0.0850004
0.132528
-0.0475279
0.92865
0.0502558
-0.978906
-0.561655
0.556063
0.545895
-0.561655
-0.595498
0.556063
0.00231721
0.803046
0.125857
-0.558298
0.467089
0.091209
0.573879
0.650084
-1.22396
0.614735
0.343447
0.594135
0.617482
-1.21162
0.67856
0.264871
0.467089
-0.543084
-0.467092
-0.643391
-0.675311
-0.313333
-0.0107733
0.0107733
0.599567
0.452497
-1.12781
0.628175
-0.298449
-1.06277
0.336191
-0.690355
0.441533
-0.114316
-0.887022
1.00134
0.450233
-0.209543
1.13819
-0.925488
-1.11152
0.228506
0.883019
0.347253
-0.395072
0.0478197
0.706342
-0.809048
0.898487
-0.931908
0.0334205
-0.0530489
-0.834346
-0.238764
0.897897
-0.659133
-1.06269
1.00964
-0.702909
0.46609
0.236819
-0.50188
-0.29987
0.80175
0.0053743
-0.00563956
0.419724
0.0270006
-0.894248
0.867247
-0.845689
0.712192
1.13326
0.107847
-1.24111
0.0217394
-0.0609865
0.444973
-0.366537
0.0393779
0.908655
-1.02297
-0.676764
-0.649949
-0.184397
-0.150647
-0.844537
-0.0873706
0.359558
0.388164
-0.0926651
0.439918
-0.87352
0.57365
0.475134
-1.09656
-0.954847
-0.151801
0.0980244
0.673392
-0.771417
0.1568
-0.578739
0.577453
0.179275
0.200127
0.938065
1.23815
0.874033
-0.961403
0.0512817
-0.0512817
-0.0739721
-0.0731612
-0.321911
0.326943
0.00375561
0.216377
1.09487
0.0257736
-0.0324097
0.655648
0.344352
0.796858
-0.59555
-0.757375
-0.721161
-0.514918
0.514918
-0.21232
-0.118835
0.64591
-0.880644
0.234734
-0.475211
-0.540827
0.299256
-0.987485
-0.856983
0.890403
-0.811532
0.627136
0.653164
0.195835
-0.848999
-0.484342
-0.197118
0.852556
-0.655438
-0.237883
0.0224439
0.000789923
-0.0232339
-0.307566
0.234404
0.945166
0.550665
-0.141266
-0.409399
0.598485
0.75192
-0.517816
0.0183668
-0.292946
-0.22458
0.820569
-0.595989
-0.334321
-0.0984239
0.140929
-1.10385
0.124939
-0.684809
0.133016
0.692804
-0.82582
-0.878736
0.193927
0.691156
-0.78958
0.22883
-0.350236
-0.702357
0.218015
0.370867
0.670546
-0.0162136
-0.0108051
0.0108051
-0.0113229
0.0135427
-0.0985431
-0.0122821
0.0380557
-0.314192
0.33949
0.708067
-0.790047
0.0819799
-0.620668
0.753684
0.793224
-0.102068
-0.677109
-0.201627
-1.1186
0.0215331
0.0297486
-0.538772
-0.915873
-0.889431
0.444109
-0.113696
0.204502
-0.0908057
-0.317101
-0.221671
0.418835
0.71082
-0.0766737
0.00450056
0.885831
0.553583
0.10055
-0.654133
-0.274967
-0.0421339
0.000506738
0.0219372
0.738992
-0.973823
0.00301269
-0.00301269
-0.719243
0.804436
-0.0851923
-0.367632
-0.183088
-0.682181
0.246819
0.621178
-0.0649905
-0.8793
-0.555162
0.276759
0.278403
0.696415
-0.614435
0.362075
0.235316
-0.597391
-0.17688
-0.664828
-0.160992
-0.16566
-0.308342
0.462078
-0.519389
0.169388
0.75725
-0.926638
0.498143
-0.296596
0.1829
0.0412704
-0.349613
0.587441
-0.0895596
-0.497882
-0.295032
0.31497
-0.0199374
0.516134
0.112041
0.128396
-0.318896
0.175815
0.143081
0.0516574
-0.169093
-0.451844
-0.0929278
0.0291627
0.0637652
0.970883
-0.176745
-0.190887
0.54663
0.395676
-0.536941
0.422058
-0.422058
-0.211516
-0.409315
-0.222938
-0.409315
-0.797001
-0.852194
0.176022
-0.498656
0.768923
0.0454797
0.105516
0.56503
0.112256
0.129066
0.0064917
-0.135558
-0.221898
0.584563
-0.907338
0.29263
-0.154541
0.0988063
0.055735
-0.757506
-0.175844
-0.568725
0.669275
-0.509509
-0.169111
-0.180502
-0.344827
-0.0785204
0.0785204
0.0639447
0.00251256
0.150599
0.0354083
-0.62165
0.0529251
-0.022013
0.473971
0.526029
0.840588
0.014035
0.0298005
-0.0438355
-0.304631
-0.574669
-0.473321
0.120605
-0.124716
0.00411135
-0.179751
-0.404396
-0.219919
0.841098
-0.580254
-0.177252
0.0392412
-0.0176004
0.338977
-0.634932
-0.205828
-0.225414
-0.0209037
-0.464764
0.422566
0.0421983
-0.0521076
0.29431
-0.865599
-0.513727
0.6192
-0.885357
0.708476
0.392688
-0.0345934
0.0564046
-0.0218112
0.139249
-0.632657
-0.00546341
0.638121
-0.886842
0.649254
-0.723226
-0.0169347
0.00951601
-0.00951601
-0.300529
0.374553
0.0704201
-0.017868
0.031903
0.571982
0.597204
-0.610201
0.013314
-0.0055777
-0.00522736
0.00642905
-0.00642905
-0.424908
0.536949
0.0184018
-0.0184018
-0.776077
-0.0111986
0.0165729
-0.471932
0.524857
0.561193
-0.646386
0.0746299
-0.0746299
-0.00326783
-0.0292875
-0.00610165
-1.04905
0.708973
-0.515714
-0.00563956
0.600613
0.00946626
-0.61008
-0.708797
0.128543
-0.31128
-0.0114966
0.322776
-0.043041
-0.0336327
-0.604457
-0.0281998
0.0297486
0.00500393
-0.00199124
-0.00248057
0.00248057
-0.100425
0.16419
-0.485105
0.138081
0.658777
-0.0891025
0.011595
-0.011595
0.508356
-0.195014
0.00978128
0.0202326
0.000789489
0.59706
-0.792074
-0.758449
0.567562
-0.14116
0.350929
0.809342
-0.0113229
-0.0830145
0.0818567
-0.650868
0.52996
-0.331149
-0.108183
-0.0270044
-0.0270587
0.0175184
0.467205
-0.0888236
-0.409058
0.711137
0.00434424
-0.000893319
0.000893319
-0.226176
-0.0650165
-0.569286
0.614765
-0.134885
0.504915
-0.136118
0.854233
0.778491
0.00500393
-0.671145
0.563844
0.0680244
0.0277687
-0.0957931
0.515455
0.105603
-0.0118253
0.066585
-0.0547597
0.00934472
-0.00934472
-0.752343
0.0233483
-0.05009
0.0703226
-0.0846797
0.0846797
-0.0055777
0.000272073
0.782086
0.125681
-0.312128
-0.092268
-0.513989
0.107266
-0.0659559
0.0659559
-0.0471033
0.0863611
-0.0863611
0.0265923
-0.0265923
-0.358886
-0.0828681
0.234492
0.0723123
0.045031
-0.766022
-0.0761891
0.158073
0.027739
-0.235934
0.0857259
-0.0857259
-0.462407
-0.0569821
0.225368
-0.00586181
0.00252336
-0.661038
0.65872
-0.0185476
-0.0285557
0.0708761
-0.100164
-0.0117312
-0.164693
0.176425
-0.146555
-0.203681
-0.0801322
0.0801322
0.0526282
-0.0526282
-0.0252871
-0.0935765
0.118864
-0.0561234
-0.194505
0.00991984
-0.0151472
-0.0108048
0.174995
-0.0258921
0.514052
0.0112926
0.0181024
-0.0505725
0.0505725
-0.72869
0.313479
-0.126052
-0.205787
-0.0220197
-0.019104
0.0216274
0.189307
0.0323909
-0.000663304
0.00145279
0.0895294
0.0310754
0.0586347
0.0994383
-0.0400115
0.0445121
-0.00390601
-0.00195578
0.00217506
-0.00400511
0.00183005
-0.00468438
0.0156369
0.0259094
-0.0259094
0.0474809
-0.0464531
0.0464531
-0.190723
0.0161466
0.0280409
-0.076788
0.0172476
0.0816398
-0.0816398
0.231506
-0.23396
0.0874044
-0.0655306
-0.168429
-0.0126504
0.0126504
0.407194
0.253721
-0.526359
-0.0811893
-0.0435268
0.545275
0.0147527
-0.0506236
-0.43961
0.118055
-0.14927
0.167208
-0.0179379
-0.0505645
0.0505645
0.927397
-0.587761
0.0013539
-0.00603828
-0.00615932
-0.294679
-0.000635175
0.00454745
-0.0530453
-0.625999
0.570971
-0.650765
0.0141763
0.0228889
0.0153834
0.0239802
-0.15543
-0.328253
0.251465
-0.0520059
0.0267188
0.173357
0.141613
0.323643
0.260966
-0.245583
0.00018382
-0.121323
-0.217284
0.065265
-0.00663029
0.158894
-0.134914
-0.0698054
0.159335
-0.415449
0.12029
-0.103043
0.0606633
-0.469721
0.171756
0.185145
-0.25495
0.0149736
-0.185266
0.184631
0.00408612
0.155249
-0.0280513
0.0449952
0.463361
0.013259
-0.00500487
0.00578099
0.043264
-0.235222
-0.203835
0.589099
0.16291
0.0624582
0.0675286
-0.0642151
0.0299131
-0.125706
-0.0310522
0.163912
-0.149736
0.0125135
-0.0137933
-0.11221
-0.0300173
0.0570256
0.253833
-0.0469214
-0.0702506
-0.306134
-0.0174861
0.224523
0.138365
0.175114
0.0558512
0.0929714
0.0674307
0.504551
-0.00207597
0.111869
0.0376825
0.071578
-0.109261
-0.272638
-0.194216
0.0257869
-0.215889
0.280347
)
;

boundaryField
{
    FrontBack
    {
        type            empty;
    }
    Top
    {
        type            calculated;
        value           uniform 0;
    }
    In
    {
        type            calculated;
        value           uniform -1;
    }
    Bottom
    {
        type            calculated;
        value           uniform 0;
    }
    Out
    {
        type            calculated;
        value           nonuniform List<scalar> 10(1.20887 1.11696 1.11048 1.02201 1.26757 0.940183 1.05206 1.01604 0.633575 0.632253);
    }
    circle
    {
        type            calculated;
        value           uniform 0;
    }
}


// ************************************************************************* //
