/*--------------------------------*- C++ -*----------------------------------*\
| =========                 |                                                 |
| \\      /  F ield         | OpenFOAM: The Open Source CFD Toolbox           |
|  \\    /   O peration     | Version:  2412                                  |
|   \\  /    A nd           | Website:  www.openfoam.com                      |
|    \\/     M anipulation  |                                                 |
\*---------------------------------------------------------------------------*/
FoamFile
{
    version     2.0;
    format      ascii;
    arch        "LSB;label=32;scalar=64";
    class       volScalarField;
    location    "35";
    object      p;
}
// * * * * * * * * * * * * * * * * * * * * * * * * * * * * * * * * * * * * * //

dimensions      [0 2 -2 0 0 0 0];

internalField   nonuniform List<scalar> 
808
(
0.136379
0.0253059
-0.0118861
0.136296
-0.170052
0.0281787
0.0181609
0.0317109
-0.0773211
0.00236009
0.0300884
-0.0911819
0.028089
0.0221435
-0.375875
0.0283326
-0.405228
0.0273637
0.0107879
0.0244645
-0.000236411
0.374769
0.0654926
0.0208232
0.451179
-0.162288
-0.0212989
0.00785979
0.0251469
0.0176111
0.0211778
0.0361234
0.0250125
0.0162549
-0.0514519
0.637216
0.0204545
0.021704
0.0328149
0.0201492
-0.0244672
-0.0238629
0.0356876
0.0277272
-0.136071
0.0817841
0.0235435
0.0458177
0.0260911
-0.113019
0.0187852
0.0408938
0.0418788
0.0119377
-0.111917
0.0232716
0.00996446
0.0255812
0.0084407
0.0192976
-0.289439
0.0365865
0.0329409
-0.132982
0.0268836
0.0452034
-0.183487
0.0237559
0.0145028
-0.220184
0.0321327
-0.248012
0.0343511
0.0269457
0.216284
0.00994536
0.00361399
-0.106645
0.0173207
0.301199
-0.118449
0.0227528
0.0379601
0.293441
0.010997
-0.0152004
-0.290001
-0.136333
0.0426038
-0.224823
0.0570755
-0.0633992
0.247074
0.150641
0.0381486
-0.167522
0.0202672
-0.0981845
-0.07161
-0.151453
0.020722
0.0140127
0.0559225
-0.0114249
-0.0883275
0.0535881
-0.149941
0.021456
0.0224646
0.0650382
-0.067531
0.324517
0.0293409
0.058844
0.0245994
0.461554
0.0271431
-0.201987
0.0209644
0.0738201
-0.210397
0.0380749
0.027072
0.0759246
0.103776
-0.0782268
0.129162
0.0583745
0.0560722
0.0635817
-0.169048
0.0275772
-0.0250281
0.112108
0.0249381
0.0226192
0.0132489
0.00465465
0.0325259
0.0238617
-0.361101
0.0667518
-0.024563
0.0299473
-0.05473
0.0925666
0.113892
0.174949
0.0578198
0.0322774
0.0281303
0.334951
0.0455739
0.535007
-0.327769
-0.119159
0.0235686
-0.194452
-0.00174163
-0.131136
-0.250553
-0.347252
-0.195178
0.0330903
0.0584635
0.0204698
0.0366644
-0.193499
0.0284848
0.0279165
0.0560044
0.149847
0.0694013
0.154238
0.0216062
0.0886467
0.0654137
-0.102861
0.0333673
-0.274011
0.0290655
-0.176279
0.031287
0.283342
-0.381761
0.111483
0.0232023
-0.116252
0.0256072
-0.0676189
-0.342119
-0.0481632
0.0210266
0.103398
0.0311807
-0.358353
0.0206573
0.0377995
0.0104653
0.0703975
0.0838716
0.0317297
0.0264431
-0.247269
0.375257
-0.329117
-0.25572
0.0162947
-0.00652386
0.0294559
0.0030055
-0.322749
-0.16907
0.0203883
-0.0316699
0.0288639
-0.252156
-0.0695672
-0.00178398
0.0445803
-0.00637875
-0.120871
0.0329679
0.0333357
0.0054467
0.0274022
0.119143
-0.19216
0.0877049
0.0220824
0.110501
0.0268899
0.030576
0.0174451
-0.0959693
0.00177819
0.0150851
0.000447992
-0.00897419
0.0164174
-0.00524085
-0.00904422
0.010772
0.0109506
-0.0040235
0.0116115
-0.0155952
-0.00874955
0.0162811
0.0576446
-0.252224
0.00157659
0.00617468
-0.114606
0.0167933
0.0210662
0.0348821
0.00370142
0.0297995
0.116545
0.0923575
-0.000961003
0.0109916
0.0643928
0.014532
0.0217698
0.0446167
0.0684328
0.0473107
-0.0286709
-0.00125995
-0.321728
0.267091
0.00245602
0.0314381
0.0247905
-0.000149537
0.0152197
-0.156166
0.304041
0.0452191
-0.0199307
0.028449
0.103441
-0.0488618
0.021402
0.00335291
0.0659364
0.0183654
0.0106676
0.0335272
0.0289419
0.0442902
0.0290534
0.0368149
0.0298936
-0.0438698
0.0488106
0.078728
0.04935
0.0378004
0.0321944
0.0330336
0.0070178
-0.422121
-0.100979
-0.0471692
0.00433169
-0.122191
-0.302662
0.050231
0.030118
-0.259695
0.147879
0.177479
0.0254055
0.0234753
0.0623565
0.00631133
-0.161178
0.0359831
0.00767529
0.0261666
-0.0134411
-0.00690309
0.0351712
0.044603
0.0171251
0.0166073
-0.285441
-0.0758622
0.0251869
-0.00381066
0.0540076
0.0155388
0.224287
0.0149192
-0.112788
0.558502
-0.00183776
0.00534312
0.0311009
0.00238593
-0.0666252
0.063661
0.0343458
0.0262503
0.0546295
-0.023697
-0.305037
0.0575983
0.0975896
-0.0523854
-0.293975
-0.25162
-0.210025
-0.247311
0.0179298
0.036771
0.0282452
0.0206089
-0.00328692
0.0126843
0.0449893
0.0115275
-0.41784
0.0043263
0.0546725
0.0131165
-0.290358
-0.050543
-0.00257423
0.131395
-0.242766
0.00694296
-0.0379169
0.0264272
-0.0890935
-0.27348
0.0425511
-0.359952
0.0267196
-0.0604814
0.0115438
0.0195869
0.0244629
0.0737857
-0.264066
0.0182151
0.0225716
0.0178542
0.00784272
0.00921712
0.0479578
0.0175714
0.00764493
0.039586
0.065791
0.0279343
0.0191245
-0.223522
-0.0785873
0.0436276
0.0405057
-0.124709
0.00416976
0.446007
-0.260998
-0.00691274
-0.244221
0.032877
0.0383945
0.0292331
-0.0301957
0.0164357
0.00148511
-0.0468349
0.0184061
-0.000511277
-0.00509461
-0.00952077
-0.00950383
0.0206907
0.13632
-0.0176579
0.0179138
0.017847
0.00077686
-0.0688708
0.0295068
-0.300905
0.0538373
0.0709317
-0.0195891
-0.228478
-0.260816
0.00958301
-0.0354967
-0.0646593
0.0368255
-0.0307038
-0.159584
0.193193
-0.239273
-0.370253
-0.322527
-0.131757
-0.101548
-0.211431
0.363418
0.0100334
-0.27846
0.0192382
-0.023365
0.603851
0.0170396
0.0411471
0.0254441
0.078071
0.00576513
-0.272598
-0.372768
0.0781654
0.0838212
0.0454064
-0.196758
-0.21583
-0.282793
0.0198379
-0.00473796
0.0875246
-0.000149683
0.0163903
0.0740414
0.0820893
0.0413401
-0.137774
-0.352815
0.0157851
-0.097285
0.0354343
0.000877403
0.098088
-0.0568529
-0.0281896
-0.380604
0.468582
-0.187743
-0.283779
-0.0196747
-0.0462376
-0.306226
-0.306472
0.14083
-0.259945
-0.228884
0.875559
0.0211478
-0.283033
0.0197449
-0.154717
0.00425139
-0.370966
-0.344116
-0.223502
0.0149125
-0.248724
-0.285037
-0.0101648
-0.0119679
0.078175
-0.217776
0.0223533
-0.414676
-0.374194
-0.437803
-0.282977
-0.0722968
0.021765
0.100552
0.148674
-0.0346933
-0.270239
0.325659
0.0739674
0.0305124
-0.356678
-0.412097
-0.243024
0.0180462
-0.273932
0.12389
-0.0126269
-0.00148506
-0.198573
-0.160001
0.0153257
-0.255575
-0.369487
0.0122955
0.00707218
-0.0343903
-0.00451173
0.026512
-0.301626
-0.260908
-0.0599286
0.0863763
0.0403739
-0.256306
-0.342469
-0.163265
-0.334021
0.0263675
0.0919056
0.0173138
-0.168065
-0.348318
0.0896663
0.0453868
-0.239661
0.0261373
0.0289385
-0.381247
0.0147142
-0.188393
0.0196584
-0.398198
-0.0477489
-0.000934898
-0.416454
-0.509929
0.00755654
-0.387082
-0.376009
0.0180537
-0.113684
-0.320028
0.00518496
-0.260143
0.0402716
0.0608036
0.0877527
-0.330991
0.110708
-0.0613968
-0.502352
-0.0238611
-0.29995
0.0276225
-0.236696
-0.563363
0.131129
0.257049
0.453203
0.00134133
0.00809568
-0.00057012
-0.265503
0.647956
0.023493
-0.261595
0.0416695
-0.00381933
0.109668
0.475898
-0.42027
-0.0261011
-0.0386583
0.0431744
0.0197793
-0.506439
-0.281026
-0.269735
-0.391096
-0.205196
0.0139025
-0.280004
0.0960408
-0.312128
-0.358889
0.488592
0.576153
-0.417467
0.152777
-0.311786
-0.00149271
-0.17578
0.380578
-0.119571
-0.25459
-0.0985446
-0.561167
-0.0312535
-0.232032
-0.0503416
-0.358749
-0.330868
0.00188717
0.00882331
-0.252729
0.485762
0.673665
-0.217693
-0.352628
-0.251639
-0.048152
-0.35144
-0.3321
-0.220875
-0.24898
0.741943
-0.38594
0.770849
-0.333202
0.354506
-0.232015
0.00147022
0.158846
-0.55351
0.274731
-0.331976
-0.357309
-0.384545
0.871477
-0.299369
0.235198
0.180131
0.66838
0.151005
-0.456935
-0.356236
-0.140259
0.0152797
0.0558879
0.56123
0.0245392
-0.0310585
-0.333116
0.0835587
-0.0705663
-0.238271
0.0200077
-0.452548
-0.0918658
-0.197985
-0.291418
0.0091105
0.128373
0.00786027
0.066117
0.137779
-0.381405
-0.403304
-0.0548764
0.00206418
-0.514859
-0.564743
0.147201
0.181675
0.110964
0.657445
-0.0296075
-0.279612
-0.426848
-0.344375
-0.012136
0.0584084
0.761659
-0.501176
0.413597
0.000861361
-0.480797
0.143203
-0.111981
0.416946
-0.185948
0.0165941
-0.264248
-0.0203732
0.241308
0.834166
0.355134
0.753554
-0.251639
-0.351005
-0.338409
0.144197
0.261524
0.0573008
0.366075
0.189343
0.50857
0.258046
-0.0439064
-0.129499
0.0627126
-0.384514
0.890501
0.428675
0.633579
0.518559
-0.307079
-0.243166
-0.323617
-0.269442
0.0447935
-0.32988
0.150288
0.590133
-0.243359
0.0310066
-0.262731
0.178476
-0.371045
-0.417735
-0.121351
-0.342317
-0.379588
-0.293756
-0.270418
-0.0826526
-0.338403
-0.074535
-0.171706
0.133331
0.68696
-0.258533
-0.244328
0.821915
-0.244741
0.320323
-0.271166
0.432534
0.114484
-0.199639
-0.446897
0.423598
-0.209755
-0.362639
0.228578
-0.314701
-0.010181
-0.343556
-0.154526
0.024739
0.593242
0.791329
-0.340794
0.253943
-0.299536
0.827274
0.00242122
-0.355296
-0.0146634
0.783094
0.20014
-0.363308
-0.332011
0.482808
-0.245032
0.015146
0.330318
0.248707
0.320912
-0.289947
-0.395144
0.698321
)
;

boundaryField
{
    FrontBack
    {
        type            empty;
    }
    Top
    {
        type            zeroGradient;
    }
    In
    {
        type            zeroGradient;
    }
    Bottom
    {
        type            zeroGradient;
    }
    Out
    {
        type            fixedValue;
        value           uniform 0;
    }
    circle
    {
        type            zeroGradient;
    }
}


// ************************************************************************* //
