/*--------------------------------*- C++ -*----------------------------------*\
| =========                 |                                                 |
| \\      /  F ield         | OpenFOAM: The Open Source CFD Toolbox           |
|  \\    /   O peration     | Version:  2412                                  |
|   \\  /    A nd           | Website:  www.openfoam.com                      |
|    \\/     M anipulation  |                                                 |
\*---------------------------------------------------------------------------*/
FoamFile
{
    version     2.0;
    format      ascii;
    arch        "LSB;label=32;scalar=64";
    class       surfaceScalarField;
    location    "35";
    object      phi;
}
// * * * * * * * * * * * * * * * * * * * * * * * * * * * * * * * * * * * * * //

dimensions      [0 3 -1 0 0 0 0];

oriented        oriented;

internalField   nonuniform List<scalar> 
1171
(
-0.94558
0.94558
0.778056
-1.08179
0.303739
-0.371766
-0.771369
1.14314
0.0544204
-0.0643882
-0.273052
0.33744
-0.778056
0.0818146
0.696241
0.930336
-0.195544
-0.734792
0.844112
-1.02871
0.184602
-0.352184
-0.0352202
0.387404
0.00118843
0.600722
-0.601911
-0.519813
1.00021
-0.480399
-0.416572
1.00934
-0.165227
0.309882
0.0707039
-0.380585
1.00894
0.000398813
0.353187
-0.0433057
1.03774
-0.0287948
0.678604
-1.05037
-0.790379
0.613877
0.176502
0.389366
-0.909179
0.563615
-0.917138
0.353524
-1.0788
0.667047
0.411752
-0.641238
0.642426
0.03811
-0.259073
0.220963
0.000761368
-0.630528
0.629766
0.464169
-0.499389
-0.856766
0.903174
-0.0464082
1.01861
0.0191224
0.927772
-1.08335
0.155575
1.05579
-0.0371762
-0.701203
-0.0891756
1.24817
-0.858731
-0.389436
0.199023
-0.0686592
-0.414381
0.48304
-0.274957
0.180127
0.0948298
-0.599436
-0.482359
0.97747
-0.0496986
-0.0104278
0.858797
-0.848369
0.507825
0.740342
0.532063
0.0258871
0.438282
-0.782174
-0.107483
0.889656
0.601697
0.233462
-0.835159
-0.0138803
0.628452
-0.614571
-0.507415
-0.571385
-0.393948
-0.689398
0.0275172
0.242361
-0.269878
-0.938982
-0.0312415
0.970224
0.37103
0.0163737
0.872707
0.0576296
-0.602845
-0.0383923
0.042399
-0.824573
0.193741
0.912977
-1.10672
-0.405869
0.0179613
0.387908
-0.711211
-0.227771
-0.732105
0.925846
0.58226
0.417951
-0.576023
0.993983
-0.821085
-0.172898
0.118535
-0.219461
0.100925
-0.45494
-0.0444494
-0.331975
0.914236
-0.0202335
0.440091
-0.419858
-0.493598
1.0953
0.708047
-0.81553
0.381627
-0.0737273
-0.3079
0.768876
-0.768876
-0.973997
0.0393674
-0.312419
-0.69249
0.682062
-0.0319836
-0.141211
0.173195
0.885676
-0.0268795
1.04931
-0.815844
0.219582
-0.315758
0.0961762
1.00801
-0.135307
-0.680584
-0.0483411
0.728925
0.150808
-0.235638
0.0848292
0.812832
-1.00838
-0.44818
0.313463
0.134716
0.64465
-0.643889
0.88851
-0.401956
-0.486554
0.494562
-0.69517
0.0384717
0.656699
0.172854
0.670786
0.0453186
-0.716104
0.132953
-0.0935852
-0.519064
0.113195
0.0358085
-0.904557
0.868749
-0.559824
-0.762403
0.0611996
0.496519
-0.0582371
0.273427
-0.832292
0.558865
0.424206
0.575794
0.597602
-0.555203
-0.361393
-0.0350925
0.396486
0.548248
0.220628
-0.662661
0.648781
0.0821377
0.894646
0.00385826
-0.684442
-0.766187
0.801996
0.622445
0.118869
0.35483
-0.473699
-0.157526
0.500823
0.127629
0.735811
-0.708588
-0.0272235
0.65199
0.341993
-0.427422
0.718081
-0.599212
0.41007
0.153545
-0.0592214
-0.607505
-0.181737
0.789242
-0.11874
-0.650136
-0.612961
0.36641
0.246551
0.659899
-0.656041
0.305456
1.03561
0.0136962
-0.766187
0.00296004
0.115575
0.708047
0.782953
-0.782953
0.843358
-0.829859
-0.0134993
-0.45556
0.879766
-0.193779
-0.325285
0.761793
-0.66782
-0.0939727
-0.82529
0.217785
0.10715
-0.709995
0.81553
-0.973056
-0.16476
0.156456
0.00830474
0.117978
-0.986549
0.868571
0.545711
-0.0136479
-0.292062
0.597466
-0.305404
-0.653433
0.77141
-0.161186
0.784964
-0.693701
-0.0912636
1.15453
-0.603741
-0.550792
0.723731
-0.070565
-0.0273105
0.0304876
-0.00317717
-0.800795
-0.868038
0.0966685
-0.69249
0.575218
-0.557256
-0.0751439
0.689592
-0.614448
0.779687
0.165893
0.492858
0.507142
-0.0350786
-0.610655
0.645734
0.677456
0.0583554
-0.723731
0.801996
0.177684
-0.436757
-0.00969845
-0.0147735
0.024472
0.673988
-0.445185
-0.228803
0.696241
0.0151948
-0.0830733
0.543639
0.130349
-0.00286415
0.00277635
8.78004e-05
0.000149175
-0.0274596
0.123708
-0.197436
-0.944139
0.0490615
-0.142143
-0.041052
0.121855
0.76332
0.743502
-0.167708
0.342369
-0.417513
-0.163593
0.383174
0.639737
0.0565048
0.229777
-1.05964
-0.973056
0.312793
0.682062
-0.1583
0.0170884
-0.812381
0.966345
-0.153963
0.487212
-0.0993043
0.798184
0.30483
0.290654
0.0625335
-0.680632
0.680632
0.225105
0.664551
-0.00764864
0.44774
0.475392
0.0344943
-0.0441927
0.553894
-0.00818311
-0.653433
0.571018
0.190775
0.033107
-0.00261937
-0.639737
0.160143
0.806202
0.006037
-0.724759
0.718722
0.757433
-0.823791
0.0663582
-0.779687
-0.0340833
0.0455247
-0.0114414
0.0828615
-0.133771
-0.110304
0.244074
-0.00749104
0.00462689
0.757996
-0.751959
0.872261
0.270874
-0.496739
-0.475873
0.972612
-0.000692169
0.000692169
0.121363
0.355864
0.788938
-1.1448
-0.195508
-0.563325
0.758833
-0.017553
0.190748
0.388638
-0.23783
1.10511
-0.749242
0.760272
0.945091
-0.156153
0.19486
0.77141
0.606183
0.260988
0.642187
-0.650136
0.319368
-0.0177303
-0.0290542
0.0467845
0.806588
0.0869506
-0.893539
-0.577388
0.540212
0.54444
-0.577388
-0.606183
0.540212
-0.0180111
1.05357
-0.181306
-0.548248
0.471176
0.0770723
0.505199
0.668765
-1.17396
0.419205
0.685902
0.699366
0.44985
-1.14922
0.298334
0.646757
0.471176
-0.52148
-0.570363
-0.685329
-0.355214
-0.00410875
-0.00167625
0.00167625
0.58417
0.60628
-0.961493
0.737873
-0.383044
-1.03045
0.426711
-0.679805
0.452034
0.046193
-0.936204
0.890011
0.45144
0.0267086
0.77988
-1.22884
-0.951654
0.0185069
0.933147
0.379771
-0.0847839
-0.294987
0.778447
-0.828146
1.09173
-0.975405
-0.116323
-0.0592443
-0.649343
-0.0877859
0.787297
-0.699511
-0.973364
0.91412
-0.497833
0.666417
-0.168584
-0.943316
0.275583
0.667734
0.00348494
-0.00417711
0.426972
0.137116
-1.04481
0.907695
-0.724572
0.689494
0.97981
0.135575
-1.11538
0.028156
0.0133919
0.383094
-0.357171
0.041413
0.955917
-0.909724
-0.672442
-0.883511
0.234168
-0.109832
-1.04478
0.0693729
0.589096
-0.246727
0.170306
0.209465
-0.480959
0.756542
0.486554
-0.909495
-0.83779
0.215778
-0.090643
0.629359
-0.538716
-0.154767
-0.763085
0.579904
0.177529
-0.1484
0.92828
0.932627
1.02569
-0.956315
0.0455354
-0.0455354
-0.10025
-0.39974
0.314956
0.33772
-0.0249265
0.305849
0.773513
-0.0108602
0.00336914
0.658227
0.341773
0.797688
-0.599436
-0.759339
-0.451766
-0.493804
0.493804
-0.20476
-0.10766
0.693401
-0.990028
0.296628
-0.499378
-0.566835
0.363821
-1.05322
-1.00883
0.892503
-0.521228
0.755396
0.696342
0.176729
-0.873071
-0.62035
-0.163241
0.824527
-0.661286
0.235314
-0.0127362
0.00437253
0.0083637
-0.073814
-0.325926
1.05722
0.722931
-0.414993
-0.307938
0.427945
0.735898
-0.510793
0.00821935
-0.283176
0.200148
0.734973
-0.93512
-0.356877
-0.0757917
0.130032
-0.961681
0.0681424
-0.8133
0.0223831
0.780367
-0.802751
-0.866926
0.053627
0.683656
-0.759448
0.235304
-0.369075
-0.429107
-0.191243
0.372352
0.750077
-0.0319956
0.00849043
-0.00849043
0.0011001
0.00195633
-0.0196867
-0.0186908
0.00783065
-0.675834
0.322351
0.801143
-0.837997
0.0368541
-0.731589
0.753973
0.750437
-0.0667815
-0.73035
-0.136577
-1.18471
0.0204039
0.0251315
-0.475686
-0.818136
-0.86345
0.474014
-0.228402
0.215728
0.012674
-0.562723
0.0870367
0.521303
0.712647
-0.0323258
-0.00872612
1.15292
0.486632
0.234433
-0.721065
-0.47662
-0.0861033
-0.0111271
-0.00160909
0.691064
-0.872801
0.00698824
-0.00698824
-0.706165
0.692674
0.013491
-0.306314
-0.0850023
-0.704637
0.0471014
0.598632
-0.0516363
-0.867879
-0.0220193
0.147609
-0.12559
0.825847
-0.788993
0.337812
0.266882
-0.604694
-0.127072
-0.713015
-0.0897353
-0.219533
0.0250821
0.468874
-0.513323
0.180126
0.719393
-0.899519
0.494562
-0.109024
-0.119377
0.171919
-0.146837
0.598681
-0.0922927
-0.506389
-0.281369
0.301151
-0.0197814
0.60101
0.136864
0.0374222
-0.307812
0.164985
0.142827
-0.100821
0.103781
-0.22337
-0.0710983
0.199404
-0.128306
0.828415
-0.381077
0.0747637
0.553251
0.226579
-0.641572
0.420081
-0.420081
-0.202981
-0.40004
-0.214471
-0.40004
-0.641371
-0.848915
0.181095
-0.0661216
0.728453
0.0414251
0.170658
0.579419
0.108611
0.116569
0.00978689
-0.126356
0.0814875
0.783188
-1.0389
0.563031
0.0328565
0.0699186
-0.102775
-0.728067
-0.174211
-0.572525
0.806958
-0.55072
0.063231
-0.210068
-0.332826
-0.0828615
0.0828615
0.040518
0.00500674
0.136973
0.319509
-0.771667
0.199142
0.00380228
0.4699
0.5301
0.726916
0.0335034
0.00176006
-0.0352635
-0.290803
-0.577075
-0.545755
0.1103
-0.115845
0.00554463
-0.0973049
-0.417578
0.00467343
0.593959
-0.569245
-0.158823
-0.15623
0.0676013
0.0897306
-0.330477
-0.194973
-0.179752
-0.0176838
-0.493713
0.429474
0.0642388
-0.0833314
0.292424
-0.863808
-0.539603
0.675446
-0.841248
0.714176
0.461132
-0.0364845
0.0659342
-0.0294497
-0.0350206
-0.635896
0.0057959
0.6301
-0.893742
0.629794
-0.730044
-0.146401
0.00730196
-0.00730196
-0.299593
0.442217
-0.0591235
0.0257454
0.007758
0.590449
0.581772
-0.608995
0.0109719
0.00977382
-0.00128339
0.00312415
-0.00312415
-0.526489
0.663353
0.0119759
-0.0119759
-0.773162
-0.00931632
0.0128013
-0.533614
0.732756
0.598711
-0.58522
0.0680606
-0.0680606
-0.0158715
-0.0283213
0.010996
-0.990982
0.44019
-0.513815
-0.0041771
0.589
0.0182604
-0.60726
-0.698649
0.129404
-0.320491
-0.013559
0.33405
-0.0228342
-0.0094916
-0.601817
-0.0340789
0.0251315
0.00582211
0.00116614
-0.00290927
0.00290927
-0.449247
0.320942
-0.447485
0.135564
0.662123
-0.141646
-0.0041179
0.0041179
0.508372
-0.121012
0.00799413
0.0178296
-0.00105296
0.524718
-0.64573
-0.640426
0.715189
-0.071598
0.32183
0.768498
0.0011001
-0.111749
0.10913
-0.647687
0.556026
-0.3199
-0.109649
-0.021913
-0.0253472
-0.0169308
0.467209
-0.0891203
-0.417268
0.687297
-0.0014479
0.00890522
-0.00890522
-0.168148
-0.129739
-0.574704
0.616129
-0.146788
0.508345
-0.229076
0.90768
0.836815
0.00582211
-0.822678
0.753742
0.0426519
-0.104483
0.0618309
0.631858
0.093764
-0.0130455
0.071967
-0.0589214
0.0101363
-0.0101363
-0.769817
0.0225252
-0.0433877
0.0612173
-0.0885937
0.0885937
0.00977382
-0.0030178
0.725122
0.0810805
-0.321358
-0.0962198
-0.519221
-0.113578
-0.0690745
0.0690745
-0.0511349
0.0797862
-0.0797862
0.0285332
-0.0285332
-0.351808
-0.0756148
0.243968
0.0694956
0.0510947
-0.735951
-0.0609526
0.163364
0.0143206
-0.258409
0.0794209
-0.0794209
-0.464393
-0.04893
0.235283
-0.0143197
0.00291283
-0.630043
0.648055
0.0327899
-0.0839248
0.0176537
-0.045975
-0.0117255
-0.154502
0.166228
-0.152145
-0.21693
-0.0836264
0.0836264
0.0568146
-0.0568146
-0.0314071
-0.0950768
0.126484
0.0242955
-0.185193
-0.0193356
0.0180522
-0.312922
0.633864
-0.0260469
0.419834
0.00427212
-0.00418432
-0.0535164
0.0535164
-0.724248
0.323841
-0.128981
-0.212343
-0.0232945
-0.0195059
0.0224188
0.207217
0.0368574
0.000306889
-0.00135984
0.0808555
0.0294445
0.0539671
0.109397
-0.00229258
-0.00643355
0.00191697
0.00553807
0.00586476
0.0121346
-0.0179993
0.000868602
0.00282422
0.0294418
-0.0294418
0.0524611
-0.0401659
0.0401659
-0.192186
0.00135375
0.0228395
-0.0765232
0.0183969
0.0751551
-0.0751551
0.271456
-0.246472
0.0943272
-0.0687083
-0.177764
-0.0181108
0.0181108
0.404444
0.252255
-0.5154
-0.0811148
-0.0347299
0.540008
0.0419493
-0.0748916
-0.454642
0.0807658
-0.156595
0.173581
-0.0169862
-0.0457105
0.0457105
0.849264
-0.594216
-0.0150646
0.0159332
-0.00573221
-0.281871
-0.00036524
0.0049673
-0.0438642
-0.620441
0.568151
-0.667018
0.0145519
0.221738
0.0155581
0.0249832
-0.162327
-0.338071
0.261548
-0.0587799
0.0273728
0.168575
0.132576
0.192271
0.270193
-0.254635
0.00703089
-0.113296
-0.225902
0.0701109
-0.0161438
0.166195
-0.141212
-0.0687408
0.149596
-0.400136
0.12763
-0.109233
0.0598105
-0.477079
0.178548
0.173098
-0.241839
0.00313111
-0.174649
0.174284
0.00426586
0.145331
-0.02819
0.0530412
0.455331
0.011331
0.0347462
-0.00895738
0.0358701
-0.242888
-0.203354
0.589282
0.173393
0.06189
0.0832337
-0.062397
0.0599812
0.0018497
-0.0300867
0.169806
-0.155254
0.0178155
0.00298767
-0.103831
-0.0293183
0.0113819
0.253461
0.00649004
0.0140062
-0.316234
-0.00813785
0.214511
0.14514
0.178701
0.0569625
0.100437
0.0486675
0.541782
-0.0160823
0.0990124
0.0462305
0.0629198
-0.10915
-0.263145
-0.202102
0.0243382
-0.223618
0.291896
)
;

boundaryField
{
    FrontBack
    {
        type            empty;
    }
    Top
    {
        type            calculated;
        value           uniform 0;
    }
    In
    {
        type            calculated;
        value           uniform -1;
    }
    Bottom
    {
        type            calculated;
        value           uniform 0;
    }
    Out
    {
        type            calculated;
        value           nonuniform List<scalar> 10(1.11857 1.02668 1.25569 0.984236 1.11862 1.00197 1.19045 1.06621 0.623063 0.61451);
    }
    circle
    {
        type            calculated;
        value           uniform 0;
    }
}


// ************************************************************************* //
