/*--------------------------------*- C++ -*----------------------------------*\
| =========                 |                                                 |
| \\      /  F ield         | OpenFOAM: The Open Source CFD Toolbox           |
|  \\    /   O peration     | Version:  2412                                  |
|   \\  /    A nd           | Website:  www.openfoam.com                      |
|    \\/     M anipulation  |                                                 |
\*---------------------------------------------------------------------------*/
FoamFile
{
    version     2.0;
    format      ascii;
    arch        "LSB;label=32;scalar=64";
    class       volVectorField;
    location    "35";
    object      U;
}
// * * * * * * * * * * * * * * * * * * * * * * * * * * * * * * * * * * * * * //

dimensions      [0 1 -1 0 0 0 0];

internalField   nonuniform List<vector> 
808
(
(0.897466 -0.00893297 0)
(1.01576 -0.0347085 0)
(1.27986 0.152114 0)
(1.06669 0.00922346 -2.89252e-21)
(1.45503 -0.291503 0)
(0.960542 -0.029945 0)
(1.15355 -0.0311836 -3.97038e-21)
(1.11018 -0.0117406 0)
(1.33047 -0.226738 1.63368e-20)
(1.2282 -0.100248 1.55396e-21)
(1.2452 -0.171413 2.37373e-21)
(1.35736 -0.259197 0)
(0.991927 -0.0155615 0)
(0.746075 -0.0189515 0)
(1.12075 -0.0478657 2.454e-20)
(1.0965 -0.00996593 0)
(1.01284 -0.0145184 -8.59696e-21)
(1.00814 -0.0233592 -1.34447e-22)
(1.3324 0.11192 0)
(1.12682 7.39489e-05 0)
(1.32148 -0.15144 -3.31308e-21)
(0.928425 0.131165 1.07976e-19)
(1.07201 0.00528645 -1.195e-20)
(1.17513 -0.0437697 0)
(0.963673 0.198272 0)
(1.26901 -0.0342985 -3.2854e-20)
(1.26339 -0.183563 -1.12625e-21)
(0.987942 -0.0255246 -4.67415e-21)
(1.11285 -0.035085 0)
(1.05731 0.04108 -1.60837e-22)
(1.01845 -0.0498839 5.95289e-24)
(1.12679 -0.0150823 0)
(1.03629 0.0469544 0)
(1.10257 -0.0342926 3.94021e-21)
(1.29215 -0.0953991 4.33852e-21)
(0.742581 -0.0970017 1.14242e-19)
(0.876176 -0.0233262 -8.67401e-21)
(1.03776 0.0443062 7.33831e-22)
(1.18303 0.0290886 -4.64934e-21)
(1.07969 0.0304283 0)
(1.26223 -0.0828074 -7.47039e-21)
(1.269 -0.139731 0)
(0.999871 -0.00496868 -7.31903e-21)
(1.134 -0.0509869 7.71292e-21)
(1.12949 -0.172914 0)
(1.01044 0.0158044 -1.77857e-20)
(1.0121 0.038365 1.92161e-21)
(1.23853 -0.251047 -1.20381e-20)
(1.16239 0.0485623 -9.11641e-21)
(1.38342 -0.19515 -2.35994e-20)
(1.15007 -0.0371754 6.3809e-21)
(1.14758 -0.0775182 0)
(1.11473 -0.00776067 6.57243e-21)
(1.15258 -0.0741545 0)
(1.33592 0.201484 6.56565e-21)
(1.05659 0.0471276 -3.30823e-21)
(1.21433 -0.100238 0)
(1.14333 -0.178388 1.56566e-21)
(1.23038 -0.103743 -1.66806e-21)
(1.13865 0.0458756 -7.73421e-22)
(-0.216316 -0.464953 0)
(1.20763 -0.210733 9.25442e-22)
(1.10218 -0.0951944 0)
(1.41867 -0.124361 -1.98083e-20)
(1.12698 -0.0743288 -8.8459e-21)
(1.03679 -0.0288746 -7.77512e-21)
(1.28521 -0.14906 1.89452e-20)
(0.647766 0.00975566 0)
(1.17995 -0.0763311 0)
(1.41279 -0.34906 0)
(0.900915 0.0215699 -3.01942e-22)
(1.20859 -0.145143 -3.23766e-20)
(1.00604 0.0301944 0)
(1.05473 -0.0468701 -4.11386e-21)
(1.10865 -0.326056 -6.4113e-20)
(1.17382 -0.0425913 -5.54133e-21)
(1.152 0.0299655 1.04597e-22)
(1.34762 0.49732 2.64761e-20)
(1.11401 -0.0326083 0)
(1.02129 0.293418 -1.7517e-19)
(1.31896 -0.0185063 1.66229e-20)
(0.760415 0.019081 0)
(0.856384 0.0443577 -1.00671e-20)
(0.967146 -0.106646 4.67556e-21)
(1.14806 -0.0572992 3.27045e-21)
(1.19999 0.0115997 1.01981e-21)
(1.25573 -0.234006 0)
(1.36691 0.274118 0)
(1.09113 -0.00190508 -1.98671e-20)
(1.44994 -0.0109768 3.22844e-20)
(1.08556 -0.0213504 1.80133e-20)
(1.30494 -0.137503 -9.13671e-22)
(0.966505 0.0275009 1.60841e-20)
(1.00421 -0.0259115 0)
(1.10632 0.00953146 1.4161e-21)
(1.22455 -0.126887 -5.02546e-20)
(0.765088 0.0230312 -2.56102e-21)
(1.28131 -0.0643758 0)
(1.32017 -0.106551 0)
(1.38691 -0.124886 -3.04281e-20)
(1.1192 -0.035443 -3.94323e-21)
(1.13307 0.00867902 -1.48555e-22)
(0.948348 0.0265166 1.48315e-20)
(1.19417 0.0122683 -1.22975e-22)
(1.35344 0.0167561 -2.08888e-20)
(0.99944 0.00322903 1.17969e-20)
(1.38689 -0.0901169 0)
(0.748558 0.0214958 0)
(1.08907 0.0370552 7.30807e-21)
(1.1873 -0.218469 -1.13828e-20)
(1.29561 0.000183764 9.15897e-21)
(1.05103 0.050504 -1.1932e-19)
(1.15199 0.0441758 -2.92294e-21)
(1.09015 0.0556065 8.60601e-21)
(0.795239 0.022607 0)
(0.916976 -0.0396916 7.80561e-20)
(1.14214 0.0301736 -8.41879e-21)
(1.40252 -0.26288 -1.23999e-20)
(1.13009 -0.0543791 -6.16687e-21)
(0.932249 0.0133354 2.60012e-21)
(-0.176788 -0.271692 0)
(0.85156 -0.0176451 1.59251e-21)
(0.790603 0.0260802 0)
(1.06145 -0.000156856 -1.19133e-22)
(1.0145 0.0281751 0)
(1.33043 0.309035 1.09422e-20)
(1.03162 -0.0549533 -3.81491e-20)
(1.17271 0.115162 4.50701e-21)
(1.14601 -0.0644589 0)
(1.09071 -0.025316 0)
(0.496911 -0.0225255 0)
(1.1227 -0.0391798 -3.52176e-21)
(1.25629 -0.0576662 3.9644e-21)
(1.07213 0.113636 -3.01809e-20)
(0.843318 -0.0117383 0)
(1.10083 0.0284497 -2.03772e-21)
(1.02053 -0.16482 6.5399e-22)
(1.16626 -0.0768185 -1.70148e-21)
(0.988077 0.0336695 5.26974e-21)
(1.13268 0.00726196 1.24541e-22)
(0.0561357 0.136314 0)
(1.09479 -0.0242981 -2.00131e-20)
(1.1882 0.0695523 -1.83023e-21)
(0.710354 0.0233116 -4.73222e-21)
(1.27255 0.155159 1.39111e-21)
(0.854697 -0.162236 5.09732e-21)
(1.0449 0.0165081 2.02486e-20)
(0.990083 0.0277307 0)
(1.08155 -0.0371137 1.18189e-20)
(0.853633 -0.0526976 0)
(0.937426 0.0266008 9.912e-21)
(0.972922 0.294664 1.40483e-19)
(0.972982 0.0331707 0)
(0.819831 0.117699 0)
(-0.0888268 0.130192 -8.34324e-20)
(1.34245 0.105263 -1.56794e-20)
(0.68929 -0.020539 0)
(1.46542 -0.0750408 0)
(1.15231 -0.0854481 0)
(1.34859 0.0345001 1.71688e-20)
(-0.029014 -0.00275631 0)
(-0.0460197 0.185378 4.05985e-20)
(0.91677 -0.0597038 5.4948e-20)
(1.00459 0.0404952 1.62844e-21)
(0.853577 -0.000708155 0)
(1.02624 -0.0401549 9.45774e-21)
(0.887654 0.0244859 0)
(0.647211 -0.0291243 -5.9404e-20)
(1.01153 0.0377874 1.52894e-20)
(1.11765 -0.0829299 2.7306e-21)
(1.09374 0.0122796 9.10598e-21)
(1.01643 0.0729727 -1.08761e-20)
(0.582683 -0.17787 -5.07483e-21)
(1.12525 -0.341975 9.13445e-22)
(0.915658 -0.026436 0)
(1.06773 -8.85547e-05 -1.70161e-20)
(0.870796 0.00974845 -9.87941e-21)
(1.3627 -0.180496 1.38723e-21)
(0.701184 0.0214233 0)
(1.01859 -0.140438 0)
(1.09112 -0.0597773 2.17364e-21)
(1.41019 0.197053 1.28313e-20)
(1.11334 0.0219771 6.98538e-21)
(1.03717 0.018985 2.14344e-20)
(0.920487 -0.110628 -8.78583e-20)
(0.81255 0.00367089 1.81925e-20)
(1.12854 -0.016282 5.13178e-21)
(1.38896 -0.118038 -3.54107e-21)
(1.09421 -0.066015 -5.14293e-21)
(1.32603 -0.0640553 3.03426e-21)
(-0.111375 0.117808 6.18359e-20)
(1.28484 -0.0470884 0)
(0.617609 -0.0219216 0)
(1.06047 -0.0272033 -8.647e-21)
(1.09845 0.0132077 1.02056e-20)
(0.191337 0.0877619 0)
(0.873726 -0.0177802 4.04464e-22)
(1.068 -0.0458714 -3.95229e-21)
(0.991045 0.0133622 2.01785e-21)
(1.07885 0.030648 -6.65516e-21)
(1.00337 0.0214152 2.7568e-21)
(1.0205 -0.0313675 3.48641e-21)
(1.05314 0.0309582 0)
(0.313397 -0.0237061 0)
(1.04918 -0.0620865 0)
(1.22243 0.0847266 -3.63032e-20)
(-0.0398305 0.0129441 4.23888e-20)
(1.10735 0.00396714 -2.07457e-23)
(1.21441 0.218062 0)
(0.740735 0.0195281 -9.80534e-21)
(1.20811 -0.181793 1.4954e-22)
(-0.00239111 -0.0365636 -1.28376e-19)
(0.698118 -0.0323356 -3.07748e-20)
(0.631622 -0.0221392 0)
(1.04878 -0.167023 0)
(0.943365 0.0320833 1.06913e-20)
(0.98404 -0.105123 4.71707e-21)
(1.3023 0.394273 5.88229e-21)
(1.14214 -0.170064 5.92956e-23)
(1.06954 -0.102061 -5.51195e-21)
(1.02056 -0.210936 0)
(1.38651 0.419283 -5.17314e-20)
(0.664718 -0.00735042 0)
(0.808372 -0.0231886 -4.71564e-21)
(1.06269 -0.0301459 7.80455e-23)
(0.596716 0.0147935 0)
(1.10084 -0.00620496 0)
(0.0445413 -0.0758567 -3.22469e-20)
(0.989663 -0.0978832 -1.50221e-20)
(0.734126 -0.0239513 3.16356e-21)
(0.990503 -0.00396294 0)
(0.576123 -0.016016 0)
(0.773564 -0.0179477 -4.86539e-21)
(0.54056 -0.0249981 -7.48757e-22)
(1.29943 -0.018146 2.6582e-22)
(1.2966 0.187029 -2.51344e-21)
(0.715903 0.0168613 -2.17277e-21)
(1.11045 -0.0569124 2.11748e-22)
(1.16087 -0.198796 -5.58811e-23)
(0.55768 0.0140384 5.54072e-21)
(1.18462 -0.108563 -4.64277e-22)
(1.12513 -0.057452 0)
(0.897987 -0.301031 0)
(0.514237 0.0171647 0)
(1.03106 -0.0229271 0)
(1.24852 0.024733 -2.96558e-21)
(0.996307 -0.115448 0)
(1.1256 -0.0367872 0)
(0.991243 -0.13634 0)
(0.977805 -0.215037 0)
(-0.0134277 -0.00716283 3.91676e-20)
(1.29074 -0.0548003 1.12453e-21)
(0.946656 -0.165312 0)
(1.38478 0.0046388 1.75664e-20)
(1.2159 -0.051845 1.62308e-21)
(1.09408 0.0538683 3.39765e-21)
(1.14199 0.0848294 5.84756e-21)
(1.18529 -0.016652 0)
(0.596073 -0.012014 9.77526e-21)
(1.05364 0.037936 1.05782e-20)
(1.09205 0.0401977 0)
(1.26056 -0.0859871 -1.98862e-22)
(1.16567 -0.0608841 2.64964e-21)
(0.555287 0.321033 -5.51179e-21)
(1.1607 0.0513018 1.86767e-21)
(1.24448 0.0174513 -3.35973e-21)
(0.908 0.0976785 0)
(1.1121 -0.0710155 -2.82253e-20)
(1.00426 0.0050431 -7.48903e-21)
(0.695945 -0.210256 -7.66913e-21)
(0.965976 0.248378 0)
(-0.0126433 -0.0177179 0)
(0.978144 0.118693 -1.7072e-20)
(1.21984 -0.0289942 0)
(1.17357 -0.0270992 -6.5876e-21)
(1.11684 0.0185743 1.34213e-21)
(1.28057 -0.0804313 3.23016e-21)
(1.0795 0.0251353 -2.12307e-21)
(1.32874 -0.0953749 7.46783e-20)
(1.00747 -0.312448 6.47205e-20)
(1.116 0.0131497 -9.78259e-22)
(1.07834 0.16437 0)
(0.865835 0.208296 0)
(0.90852 0.00378337 -3.4785e-20)
(1.14652 -0.101172 -9.02621e-21)
(1.2321 0.0915616 0)
(0.534214 -0.347416 1.5568e-21)
(0.372453 0.213682 0)
(0.693449 0.278998 6.23646e-21)
(0.74099 -0.231783 -2.09238e-21)
(0.833838 0.0292263 -6.47034e-21)
(1.08585 0.0632352 0)
(1.22668 0.092385 -1.56555e-21)
(1.11812 0.161116 2.2832e-21)
(0.682748 0.0586463 -9.38842e-21)
(1.15229 0.0942621 -5.28824e-21)
(0.911745 0.0898236 0)
(1.09197 0.0617163 0)
(0.939659 0.143937 1.18224e-20)
(0.762924 0.132153 -6.2998e-21)
(1.19105 -0.0330042 1.16052e-20)
(1.17673 0.008921 -5.274e-21)
(1.01642 0.216191 6.90401e-22)
(1.20211 -0.0217129 0)
(0.405393 -0.134949 1.19201e-20)
(1.32151 0.0225894 -2.11586e-20)
(0.958138 -0.0286885 8.99243e-21)
(0.289741 0.382702 5.82666e-21)
(1.40633 -0.165231 1.73163e-20)
(0.997207 -0.165806 8.38302e-20)
(1.12494 0.174998 -1.20273e-20)
(1.13059 0.00797945 -1.15398e-21)
(-0.0756951 0.00907936 -7.22623e-21)
(1.00112 -0.00752454 0)
(1.03551 -0.0847055 -1.72576e-20)
(0.844547 -0.0318424 9.58612e-21)
(1.10866 -0.0608057 4.88651e-21)
(0.670986 -0.107667 -6.92759e-22)
(0.513107 -0.0139766 3.2769e-22)
(1.39376 -0.382779 -1.47884e-20)
(1.17785 0.0415591 0)
(1.06347 0.0296796 -3.62218e-21)
(1.15409 0.0417246 -2.4655e-21)
(1.24335 0.0875221 0)
(0.684039 0.235375 2.04885e-21)
(1.1546 0.0164041 3.90127e-21)
(0.636156 -0.217577 2.096e-20)
(1.13284 -0.0227777 -6.89346e-21)
(0.885349 0.228524 9.08366e-22)
(-0.041451 0.103538 0)
(0.683878 0.368942 2.8724e-20)
(1.19871 0.0613801 0)
(1.01668 0.284027 9.91097e-21)
(0.94018 0.290288 0)
(1.11555 -0.0109499 3.10568e-21)
(1.01492 0.0248193 0)
(1.02313 0.213891 0)
(1.38719 -0.144733 1.52204e-20)
(0.790649 -0.0722654 0)
(1.26011 -0.269727 -1.19121e-21)
(1.11901 -0.047862 1.84072e-22)
(1.08581 0.0351883 2.96274e-21)
(1.18184 -0.0818141 3.12663e-21)
(1.24621 0.096344 -9.07167e-21)
(1.19932 -0.128299 2.04179e-20)
(1.22597 0.0208151 0)
(1.18582 -0.0189742 0)
(1.14863 0.00686009 2.2293e-21)
(1.18628 -0.0146115 0)
(1.47508 0.184207 -3.30478e-20)
(0.723244 -0.251304 -3.06244e-21)
(1.02726 0.0126969 1.93041e-20)
(1.29421 0.0376864 -2.45492e-22)
(-0.0163435 0.0700555 0)
(-0.0183107 0.00183623 0)
(0.0280749 -0.036278 -3.24577e-20)
(-0.0832557 -0.0231986 0)
(0.718159 -0.281507 -8.18871e-21)
(1.17228 0.0297197 -3.25989e-21)
(1.21293 -0.0548871 -5.54022e-21)
(1.2312 0.0637383 2.40354e-23)
(1.15948 -0.00832641 0)
(0.689529 -0.0158285 -2.46496e-21)
(1.16116 -0.0204341 0)
(1.17672 0.00664091 3.21201e-21)
(0.493074 -0.107082 0)
(0.87026 -0.195716 -9.27084e-24)
(1.10017 0.00140416 0)
(1.13367 0.0378973 0)
(0.756879 -0.0605117 4.80773e-20)
(0.722696 -0.146797 7.57977e-23)
(0.69307 -0.175935 3.03737e-22)
(1.01139 0.0184519 -1.12399e-20)
(0.114359 -0.0515852 0)
(1.25535 -0.202289 -4.95702e-21)
(1.20778 0.117629 -3.53912e-21)
(1.16188 -0.201145 -4.85318e-21)
(0.866884 -0.0632987 -9.83526e-21)
(-0.0586821 0.0724744 -9.29626e-20)
(1.09284 0.054265 0)
(-0.0363023 0.0541555 0)
(1.12356 0.113705 8.83153e-21)
(0.528745 0.182779 1.05854e-20)
(1.14483 0.0669547 -5.03416e-21)
(1.11812 -0.0326724 0)
(1.20701 -0.107722 4.69572e-21)
(1.03454 -0.0711249 -1.12832e-20)
(0.518265 -0.0404534 -7.80924e-21)
(1.13029 -0.0200048 -3.34113e-21)
(1.20692 -0.0119812 -3.53294e-22)
(-0.0550781 0.253414 2.71223e-21)
(1.30089 -0.0421136 -1.74386e-21)
(1.12724 0.0538981 0)
(1.10638 0.0212782 0)
(1.16655 0.00788186 -1.39702e-21)
(1.13993 0.112683 3.19864e-21)
(0.274578 -0.0412625 1.5814e-21)
(1.18616 -0.125651 -2.48818e-20)
(1.0932 0.0606318 1.05068e-20)
(0.529369 -0.000447776 1.25706e-20)
(0.249824 -0.238848 -8.53624e-20)
(-0.1361 -0.280895 3.66342e-21)
(1.18347 0.177812 -6.99705e-21)
(1.21461 -0.483855 2.27207e-21)
(1.45415 0.0744894 -1.53768e-20)
(1.17387 -0.023427 1.65556e-21)
(0.928593 -0.219106 9.80048e-20)
(0.0531167 -0.148243 0)
(1.18444 -0.106202 5.96038e-22)
(0.520168 0.198447 -3.59849e-20)
(1.11181 0.0837193 -7.64182e-21)
(1.07683 -0.0222323 7.94104e-21)
(1.1044 0.0373364 0)
(0.649103 0.187769 0)
(1.17223 -0.0546002 0)
(1.17587 0.269887 -2.80011e-21)
(1.28011 -0.0211509 -1.94943e-20)
(1.1418 -0.0188462 4.55703e-21)
(0.47725 0.0170769 0)
(0.628944 0.0138622 0)
(0.620284 -0.00537818 4.31889e-22)
(0.442459 -0.0145804 0)
(1.11453 0.106231 0)
(1.01922 -0.0124486 3.00264e-20)
(0.246244 0.456139 0)
(0.91619 0.024477 0)
(1.17334 -0.045343 0)
(1.18507 0.173354 8.83318e-22)
(1.27832 0.06101 1.05956e-20)
(0.9607 -0.0284065 7.09592e-21)
(1.26819 -0.395072 -9.26478e-20)
(0.339349 0.157213 -6.2641e-21)
(1.20056 -0.0868825 9.15294e-21)
(1.27126 -0.0856955 0)
(-0.255219 -0.271449 0)
(-0.341017 -0.122041 0)
(1.1354 -0.0274874 4.25835e-21)
(1.30235 -0.287874 -7.87317e-21)
(1.33086 0.195038 0)
(1.11053 0.0177352 -1.01829e-20)
(0.253772 -0.269505 0)
(1.48341 -0.181681 5.23513e-20)
(0.422747 0.538283 9.79058e-20)
(0.251988 -0.0189287 0)
(1.07679 -0.273398 9.94347e-20)
(0.496496 -0.168655 0)
(0.0491537 0.153093 1.63799e-20)
(1.39599 0.146132 0)
(-0.0784971 -0.122503 -3.40923e-21)
(0.98397 -0.0507299 0)
(1.19728 0.00519093 3.5615e-21)
(-0.159858 0.0313481 -7.145e-21)
(1.11539 -0.0250846 2.39532e-21)
(1.22538 -0.224808 2.1887e-21)
(0.560799 -0.488226 -9.58526e-20)
(1.10879 -0.0684603 -2.90399e-21)
(1.18812 -0.132077 8.36279e-21)
(1.19466 0.24299 -1.32856e-20)
(1.08382 0.0447654 1.35681e-20)
(1.13085 -0.012856 7.80556e-22)
(-0.108026 -0.38657 -5.90901e-20)
(0.160078 0.144011 -9.78357e-21)
(1.13142 -0.00832899 4.04567e-21)
(1.06028 -0.0485024 0)
(0.478982 -0.144257 -7.81317e-21)
(1.3773 -0.436719 6.48917e-20)
(0.888857 -0.0644347 -4.57164e-20)
(1.4965 0.0940069 9.8254e-20)
(1.08972 -0.0621597 4.13324e-21)
(1.32183 -0.0947082 2.55833e-22)
(1.06068 -0.00970088 0)
(1.18724 -0.0202606 0)
(1.21544 0.0300701 -2.62155e-21)
(1.08721 -0.0223879 -4.39895e-21)
(1.04619 0.0881242 -1.39416e-20)
(1.07384 0.0322172 -9.74948e-21)
(1.43974 -0.0663147 -3.6725e-20)
(0.517357 0.0327022 0)
(1.27567 0.0138858 4.52902e-21)
(1.36655 0.127984 0)
(1.08768 0.0460039 -6.28006e-21)
(1.13734 0.0127852 0)
(1.04231 -0.00966165 1.64831e-20)
(1.21876 0.0203712 1.51261e-20)
(1.12891 0.01399 0)
(0.0538867 -0.0278105 1.37066e-19)
(0.880603 -0.196885 -7.68636e-20)
(1.23409 -0.104009 -2.234e-20)
(-0.136851 0.0649157 4.3382e-20)
(1.20205 0.0432695 2.72472e-22)
(0.735982 0.0309454 1.18944e-20)
(-0.102666 0.124136 -4.52153e-20)
(-0.0337375 0.11968 -3.06885e-20)
(1.01676 -0.0289726 0)
(-0.0237148 -0.0201097 0)
(1.29993 0.037032 0)
(0.11053 -0.0817094 0)
(1.10837 -0.022991 0)
(0.137645 0.0373812 0)
(1.1043 0.0641011 0)
(1.28216 0.221342 0)
(1.27169 0.130552 -5.02731e-21)
(0.563105 -0.278391 -1.80655e-20)
(-0.155339 0.104562 0)
(1.08524 -0.100251 4.75583e-20)
(1.15506 -0.133115 2.12055e-21)
(1.36187 0.00502643 0)
(-0.0337589 -0.035357 0)
(1.14585 -0.00249504 1.84048e-21)
(1.14663 -0.0172773 -7.85715e-22)
(1.1879 0.394466 0)
(0.184103 -0.0305019 4.63837e-20)
(1.11809 0.046758 9.58772e-22)
(0.22876 -0.0500907 -4.65938e-20)
(-0.0615574 0.0568741 -3.84781e-20)
(-0.033306 0.0511071 9.78592e-20)
(0.793511 0.16747 4.79434e-20)
(1.13659 -0.120409 -1.11916e-20)
(1.11354 0.0679389 -8.98395e-21)
(1.02218 -0.00900638 0)
(1.06898 -0.0695931 -2.52821e-20)
(1.25051 0.0932468 -1.13877e-20)
(-0.00648125 0.0398708 9.8382e-20)
(0.974745 -0.0680622 -6.25756e-20)
(0.507682 0.0856989 1.20525e-20)
(0.994046 -0.102917 -6.52479e-21)
(0.0749461 -0.0279174 2.8993e-20)
(0.24205 -0.036146 -4.18963e-20)
(0.359556 -0.0320771 -4.20356e-20)
(1.15226 0.183006 4.1743e-21)
(-0.0466356 -0.0216522 0)
(0.832091 0.106961 1.19424e-20)
(1.19643 0.0509702 -2.30784e-21)
(1.11552 0.106874 2.22477e-21)
(1.28558 -0.0778987 0)
(1.49589 -0.233994 5.48528e-20)
(1.11957 0.0406857 -4.18596e-21)
(-0.00552532 0.0139665 -3.13783e-20)
(0.435722 0.0658452 0)
(0.914377 0.0181927 -2.95298e-21)
(1.13651 0.0290481 1.12664e-21)
(0.661123 -0.187443 -2.697e-21)
(1.14272 -0.00078137 -7.46816e-22)
(1.1159 0.040881 0)
(1.11428 -0.170086 -1.26713e-20)
(-0.129504 -0.0151085 -5.54468e-20)
(1.3133 -0.042213 1.50373e-20)
(1.11049 0.171374 -9.15137e-21)
(1.08804 0.02083 1.11503e-20)
(-0.0310255 -0.0169997 1.30833e-20)
(-0.0319979 0.0709774 -7.72852e-20)
(0.644549 -0.0433404 0)
(0.927532 0.120376 0)
(1.15438 0.0845386 -1.19143e-20)
(1.05305 0.064456 1.09189e-20)
(1.14209 0.0008412 0)
(0.370109 -0.0999148 2.9661e-20)
(0.804535 0.0841539 -1.37654e-20)
(1.1018 0.100841 0)
(1.09865 0.00850793 0)
(1.44185 0.184061 0)
(1.24184 0.1002 0)
(1.23308 -0.0924885 4.92559e-22)
(-0.0429728 0.0496361 4.20315e-20)
(1.17318 0.112112 4.17117e-21)
(1.37036 -0.198553 -6.11045e-20)
(1.34157 -0.0153205 -2.80908e-21)
(0.0903715 -0.18415 0)
(1.21104 -0.015841 0)
(0.631546 -0.0119724 -4.57246e-22)
(0.584908 0.00791864 -6.93105e-20)
(0.0848712 0.0357004 5.57648e-20)
(0.961657 0.0273958 4.13763e-21)
(0.727332 -0.267244 0)
(0.662084 -0.0877313 0)
(1.32258 0.0265302 0)
(0.555264 0.531216 3.28849e-20)
(-0.0261139 0.0793518 -3.5171e-20)
(0.958536 -0.142847 -3.49973e-22)
(-0.0129721 0.0408668 5.76e-20)
(1.08262 -0.035082 3.93649e-21)
(1.18965 0.312839 2.53377e-20)
(1.11046 -0.094273 1.11411e-20)
(0.425807 -0.32717 7.70472e-20)
(0.924272 -0.0515254 6.19765e-21)
(1.26633 -0.174045 0)
(0.581813 0.281295 0)
(0.967278 0.0948989 -3.72135e-21)
(-0.223527 0.0573432 0)
(0.618882 0.0288124 3.11951e-21)
(0.589898 -0.405914 -2.30774e-21)
(0.260498 0.0507385 -1.2824e-19)
(1.11637 -0.221125 4.16751e-20)
(1.05239 0.377312 9.40063e-21)
(0.979661 0.0279243 0)
(1.22983 -0.183963 5.92402e-23)
(0.657018 0.013523 0)
(0.984707 -0.0161003 -5.34003e-22)
(0.422458 -0.0132747 0)
(0.714141 0.152725 0)
(0.994435 -0.0235386 -4.4702e-21)
(1.46184 0.141576 -1.84089e-20)
(1.07473 -0.006266 5.27795e-21)
(0.509931 -0.476815 0)
(1.12775 -0.154293 4.67427e-21)
(0.814097 0.397592 6.71413e-20)
(-0.0362119 0.0190623 1.38091e-21)
(1.17825 -0.03782 7.28679e-21)
(1.19365 0.0123912 -1.15015e-20)
(1.0865 -0.0121192 1.17053e-21)
(0.795154 0.0122754 -4.37503e-21)
(0.0728863 0.018832 4.4306e-20)
(-0.0198356 0.0871858 -5.60753e-20)
(-0.282532 -0.0435325 0)
(-0.168335 0.0802247 0)
(1.16292 -0.602326 2.70868e-20)
(1.13321 -0.0215063 -7.61646e-22)
(0.869046 -0.45474 -3.42235e-20)
(0.976708 0.157387 -2.41483e-20)
(1.41166 0.176155 4.20542e-20)
(0.622848 0.435171 0)
(0.252875 0.434696 -1.0793e-19)
(0.606651 0.507329 0)
(0.225509 -0.00321082 0)
(1.10534 -0.466559 0)
(-0.0571706 0.150709 -7.38956e-22)
(1.19944 -0.0223352 0)
(1.00662 0.329611 -4.38199e-20)
(0.612937 0.718046 2.16247e-20)
(1.35167 0.29636 1.04859e-20)
(-0.0412466 -0.00738285 -9.15433e-20)
(0.941267 0.372533 -1.97491e-20)
(0.478233 0.150093 -1.54133e-20)
(1.20047 0.0619499 0)
(1.39346 0.346524 4.58477e-20)
(1.24887 0.576743 1.52276e-20)
(0.186572 -0.0213019 -2.64536e-20)
(1.09247 0.11318 4.01748e-20)
(0.934925 -0.0211869 8.34489e-22)
(0.938023 0.0266287 -9.28492e-22)
(0.00253203 -0.00736409 0)
(0.631765 -0.624979 -3.32043e-20)
(0.616586 0.227273 0)
(-0.00137124 -0.0747523 0)
(-0.0552652 0.0985299 0)
(-0.037904 -0.0243976 -3.37473e-20)
(1.20827 -0.0164368 -8.42042e-21)
(-0.0101466 0.111474 0)
(-0.0459884 0.123608 0)
(1.43331 0.0874946 -9.27409e-20)
(-0.0296521 -0.0225837 4.17199e-20)
(0.117958 0.252084 -9.8392e-20)
(0.428673 0.0168348 0)
(0.164551 -0.255906 8.39528e-20)
(1.06262 -0.235082 0)
(0.986277 -0.272577 0)
(-0.0223081 -0.0169169 8.50367e-20)
(1.13705 0.0219286 -7.00706e-23)
(1.14124 0.349345 2.47922e-20)
(0.285938 0.0281206 5.35103e-20)
(0.393026 -0.49821 -4.47739e-20)
(1.3945 0.0197175 0)
(1.28315 0.183772 2.62672e-20)
(1.26697 0.199912 -3.22545e-20)
(0.104179 0.110963 -2.3283e-20)
(-0.0651797 0.130197 0)
(1.06757 -0.0550664 -2.00048e-20)
(1.09075 -0.214626 -2.04526e-20)
(0.573587 -0.376716 0)
(1.09334 -0.146207 -2.9243e-20)
(0.00797107 0.0373737 0)
(0.704713 0.0486451 0)
(1.46836 0.00176232 3.29674e-20)
(0.985814 0.0116007 6.30686e-22)
(1.10187 0.763555 -9.48282e-21)
(0.218592 -0.359988 1.41353e-19)
(1.07258 0.00494407 -2.4461e-21)
(1.20286 0.0577745 1.4834e-21)
(-0.0618064 0.161322 3.63994e-20)
(0.810292 0.755151 2.04185e-20)
(1.32635 -0.365956 -1.27718e-20)
(-0.0846663 -0.280572 6.13838e-20)
(1.15984 0.0464281 0)
(0.432599 -0.16197 -1.13321e-20)
(0.877755 -0.619589 2.08159e-21)
(0.927777 0.659299 -2.98501e-20)
(0.529654 -0.0330338 -5.37397e-20)
(1.13142 -0.0139684 -4.39083e-21)
(1.07533 -0.0860995 8.86294e-21)
(1.14467 0.0721545 2.71717e-21)
(1.10852 0.11539 2.20575e-21)
(1.12678 -0.130758 0)
(0.968651 0.10179 1.74041e-20)
(0.918312 0.470836 0)
(1.28715 0.157225 3.43458e-21)
(1.16821 0.0958766 -1.83004e-21)
(0.78594 0.270531 0)
(0.552362 0.112966 1.22328e-19)
(0.914729 0.733971 -5.00554e-22)
(1.09096 0.29344 -1.904e-20)
(1.04319 -0.0118234 1.4784e-20)
(0.423862 0.521213 0)
(1.27333 -0.464134 0)
(0.774479 -0.293765 5.2806e-21)
(1.29792 0.51038 0)
(-0.0150862 0.0725641 -5.07231e-20)
(1.2628 -0.408348 6.78188e-21)
(1.18747 0.518802 0)
(0.455444 0.247796 1.66719e-19)
(1.1647 0.321101 -1.38664e-19)
(0.798373 -0.614184 -2.98667e-20)
(1.15438 0.0752039 -9.60003e-22)
(0.96372 0.153879 9.53219e-20)
(1.09724 0.166703 4.54046e-20)
(1.09751 0.721241 -2.5276e-21)
(0.889046 -0.41742 7.13404e-20)
(1.45498 0.130547 5.00351e-20)
(1.1194 0.000408437 -7.26924e-22)
(0.00370907 -0.00819259 7.72612e-20)
(1.06027 -0.684378 1.22584e-20)
(0.852296 -0.696678 6.40968e-20)
(0.244519 -0.295945 0)
(0.968937 -0.138126 7.78144e-20)
(0.368514 0.339674 -4.32715e-19)
(-0.190527 -0.0406399 1.79647e-20)
(0.301632 0.064436 2.76707e-20)
(0.65795 -0.0564672 -6.38899e-20)
(1.10105 0.543975 0)
(0.998427 0.228508 7.64965e-20)
(1.08566 0.027202 3.03613e-21)
(0.928904 0.460991 -8.6564e-20)
(0.761508 -0.70314 -1.07135e-20)
(0.928598 0.0366304 -4.94849e-20)
(0.993809 0.505651 0)
(1.21109 0.30117 -1.8871e-20)
(1.35679 -0.506169 9.97447e-21)
(1.21145 -0.332484 7.74027e-21)
(-0.14122 -0.155963 4.37381e-20)
(0.193876 0.0409074 -1.81911e-20)
(0.969407 -0.108594 -5.91996e-20)
(0.364715 0.553632 0)
(0.920868 0.0318554 3.94299e-20)
(1.18729 0.649546 9.54864e-20)
(-0.147626 -0.0706928 1.17045e-19)
(-0.0679185 0.170734 -3.0711e-20)
(-0.0876809 0.048895 3.95008e-20)
(1.09306 0.0139351 -3.99153e-21)
(1.10794 -0.451294 0)
(1.04514 -0.713148 -5.49463e-20)
(0.708211 0.372661 0)
(-0.034033 -0.0612957 -7.71955e-20)
(1.10605 0.00586048 8.03919e-21)
(-0.0272909 0.0452129 -2.47389e-20)
(1.05089 0.0508047 -1.25024e-20)
(0.120937 0.0376554 6.56995e-20)
(0.901981 0.128511 0)
(1.38763 -0.0850586 3.58992e-20)
(0.102021 0.0908655 -3.14133e-20)
(-0.260755 -0.0579577 -5.19171e-20)
(-0.294673 -0.00683394 0)
(0.0812431 0.00336634 0)
(1.3477 -0.0359022 -7.53876e-21)
(0.368713 -0.00856558 1.31156e-19)
(1.24122 -0.709409 -6.58246e-21)
(0.950093 -0.33291 1.35623e-20)
(1.08422 0.253377 -2.65499e-20)
(0.356432 -0.5258 1.46833e-19)
(1.58759 0.251879 -4.20919e-20)
(0.0373022 -0.00496414 2.93279e-20)
(0.212761 0.339317 1.92858e-19)
(0.0758566 0.00833109 -1.11427e-19)
(0.930012 -0.47443 -4.61251e-20)
(1.49044 0.38243 4.24565e-20)
(0.54976 -0.649875 5.37977e-20)
(1.10463 -0.0814595 -8.51238e-21)
(0.152747 0.00507178 4.07257e-20)
(1.23355 0.292099 -5.64416e-20)
(0.676733 0.665951 -3.75259e-20)
(1.31042 -0.610974 0)
(1.45999 0.523709 3.89688e-20)
(1.03514 -0.511866 -1.15875e-20)
(1.42414 0.614997 -1.221e-19)
(1.18716 0.0516845 0)
(-0.0560514 0.138368 0)
(1.28074 0.744235 0)
(1.22015 0.116511 -4.73856e-21)
(0.729914 -0.279425 -2.12944e-19)
(0.475853 -0.0562443 0)
(-0.0513684 0.17193 -3.08226e-20)
(1.01511 -0.237534 1.09029e-19)
(-0.31414 -0.185621 0)
(0.322703 0.0574337 1.22922e-20)
(1.14688 0.0465889 0)
(1.46284 0.263217 0)
(1.19101 0.071124 1.02796e-21)
(0.355779 -0.260758 0)
(1.01879 0.153392 3.50946e-20)
(1.35002 0.278666 0)
(-0.0868379 0.163705 -1.52502e-21)
(0.804016 -0.373323 0)
(1.54843 0.318653 -6.30901e-20)
(1.2608 0.371654 -5.13456e-21)
(0.858822 0.669239 -9.11841e-21)
(1.01816 0.157857 -8.45272e-20)
(0.961648 -0.193921 -5.25456e-20)
(1.48879 0.279817 3.70561e-20)
(1.11283 0.0762908 0)
(0.564832 -0.0469496 0)
)
;

boundaryField
{
    FrontBack
    {
        type            empty;
    }
    Top
    {
        type            noSlip;
    }
    In
    {
        type            fixedValue;
        value           uniform (1 0 0);
    }
    Bottom
    {
        type            noSlip;
    }
    Out
    {
        type            zeroGradient;
    }
    circle
    {
        type            noSlip;
    }
}


// ************************************************************************* //
