/*--------------------------------*- C++ -*----------------------------------*\
| =========                 |                                                 |
| \\      /  F ield         | OpenFOAM: The Open Source CFD Toolbox           |
|  \\    /   O peration     | Version:  2412                                  |
|   \\  /    A nd           | Website:  www.openfoam.com                      |
|    \\/     M anipulation  |                                                 |
\*---------------------------------------------------------------------------*/
FoamFile
{
    version     2.0;
    format      ascii;
    arch        "LSB;label=32;scalar=64";
    class       surfaceScalarField;
    location    "481.5";
    object      phi;
}
// * * * * * * * * * * * * * * * * * * * * * * * * * * * * * * * * * * * * * //

dimensions      [0 3 -1 0 0 0 0];

oriented        oriented;

internalField   nonuniform List<scalar> 
1171
(
-0.9279156943175224
0.9279156942686927
0.7874404289966535
-1.099258719295634
0.3118182904267259
-0.1896918021165573
-0.7654269790202753
0.9551187811704001
0.0720842981053154
-0.1171442780207908
-0.2124100530944185
0.3295543307354418
-0.7874404227056384
0.06945124012669966
0.7179891825921345
0.8115553546018617
-0.1780000146171701
-0.6335553400211607
0.8741353477395131
-1.04422738545219
0.1700920377566666
-0.2854743231306596
-0.09771756980796596
0.3831918933105463
-0.0363785418739932
0.5489997653248618
-0.5126212235351435
-0.5054221626541913
0.8255157089798419
-0.3200935463672628
-0.4026185965570089
1.045882150228535
-0.171746803216111
0.392128343015692
0.04962738816893828
-0.441755732098794
1.045928987253197
-4.68371175547763e-05
0.4435526399560114
-0.05142429943288509
1.056507954681226
-0.01057897307249397
0.5799589959043756
-0.7696507911388096
-0.7241671076557499
0.5566236977812961
0.1675434098044292
0.2154000232574411
-0.7208221927026324
0.5501783384016717
-0.9226895304355507
0.3725111912626694
-1.094203890880427
0.6865776180443582
0.4076262729576255
-0.5955965507833888
0.5592180148812288
0.01749071833666493
-0.2561228836294551
0.2386321641738206
-0.02269851823452256
-0.5227209854238385
0.5454195038463486
0.400431249773139
-0.4981488129057686
-0.9189573971003515
0.9416269712083549
-0.02266957410399821
1.067642324538326
-0.01113437265915292
0.9348468754550541
-1.116653102553131
0.1818062270391277
1.06708766609153
0.0005546523115787363
-0.6644370697924162
-0.05973003999283274
1.262289476262906
-0.8642737870888489
-0.3980156891712309
0.1481302627189982
-0.1098103306184778
-0.3259606861093236
0.435771017031343
-0.2855399079551184
0.1916978070681187
0.09384210138908242
-0.5836891663895371
-0.5155695551941223
1.014050225307807
-0.07920335140200464
0.009893164688949624
0.8254913557436631
-0.8353845204024817
0.5717763612590608
0.6905131165553029
0.4391894379151029
-0.03069682611887839
0.4311280756781165
-0.8080234210459316
-0.1025124447532101
0.9105358657339623
0.5020671480262955
0.2539043430430379
-0.7559714910955007
0.006991942315427475
0.5282355288807555
-0.5352274715429026
-0.4899751280797324
-0.6042287678288097
-0.4227545446292774
-0.6938985583305308
-0.02712315040775676
0.270492993963668
-0.2433698427683753
-0.9247222749502561
-0.005076039950630068
0.9297983149429558
0.3087096333514501
0.07448226879736893
0.7616713158366313
0.04988403613944992
-0.5330479724642573
-0.06254857572300551
0.04601120117256616
-0.8540346246649255
0.07550419388504172
0.8634099558954506
-0.9389141497776677
-0.3468280417953554
-0.04112607603646811
0.3879541178349613
-0.6820320568718181
-0.2426902167091145
-0.6341612697023257
0.7096654610466286
0.6141150173715717
0.2114006854124905
-0.5433180430353812
0.9456325904095878
-0.7789741981233734
-0.166658392268248
0.01194383411832704
-0.01063139665361344
-0.001312438062253149
-0.4034499928404268
-0.09469881997884866
-0.2408822233479496
0.8549972341804248
0.0477703346101661
0.3348398951141049
-0.3826102293194633
-0.4611269640405246
0.9631941096865029
0.6804412074782593
-0.7829536563912471
0.3201725214877736
-0.01659321722106578
-0.3035793048546209
0.9307349016894541
-0.9307349016760542
-0.78122052081755
0.1108064181619706
-0.3232164666745249
-0.749933891610008
0.7598270559904957
-0.09031807200341307
-0.1434191707147093
0.2337372432201546
0.864932647474
-0.03944129134174237
1.054354928510559
-0.8004505903191359
0.1865842934224737
-0.3161176297874308
0.1295333362749366
0.8586843168483002
-0.0970130006449951
-0.6114791699116192
-0.03901455131321584
0.6504937212429356
0.1234839716939439
-0.2306184391939323
0.1071344664103027
0.8056160454771998
-0.9836160613272192
-0.4346336329719741
0.3292988273186037
0.1053348052667109
0.5327795605722385
-0.5554780826422266
1.021906778871067
-0.4561914772306802
-0.5657153016450446
0.5991522303548776
-0.719354337524866
0.06668091417307753
0.6526734237199217
0.1027128229305287
0.5696315177857754
0.05537764900946584
-0.625009166920224
0.1944775286875746
-0.0836711073306078
-0.4924130655973862
0.1455850215769567
0.05023648942253515
-0.8864796388145313
0.836243149337171
-0.4730935928884661
-0.7132663173428943
0.04882924939665756
0.4372689738966628
-0.006140894627640003
0.2999556280940074
-0.8552597275941186
0.555304099296374
0.4157494363217364
0.5842505636297145
0.5604844479818254
-0.5144732538758847
-0.36794285892757
0.03839102879598372
0.3295518324450284
0.6812987032941328
0.2494361983330092
-0.5663554056842001
0.5733473481732362
0.1113082846308703
0.8750672815633835
0.01017346234900277
-0.6216526334274096
-0.7490971181912887
0.7993336055394625
0.5306169665317593
0.06985300611461806
0.3017580834387603
-0.3716110897085382
-0.1674570126756537
0.4442067742939988
0.08402876124561844
0.8752562052482752
-0.8044374465644308
-0.07081875877117008
0.6352949182128077
0.3103376707520633
-0.4305731447034219
0.573763521151584
-0.5039105169111637
0.4171429220559119
0.133035408053333
-0.04673713990338376
-0.5939101312366998
-0.1381918636253578
0.732101994887477
-0.1497764416402695
-0.7809584572556842
-0.6109922726229091
0.360400637236574
0.2505916364056219
0.6219419287591147
-0.6117684682027255
0.239236257276181
1.011367177105032
0.04298775161945959
-0.7490971201758231
0.2337769000537327
-0.2218330590932332
0.6804412075091471
0.8017470734985006
-0.8017470734508972
0.8376503959363245
-0.833123511215878
-0.004526884796620496
-0.4453605350547102
0.8611099707445794
-0.1472940879721983
-0.3451189752497806
0.7347354335429378
-0.6685261088896907
-0.06620932458634025
-0.7352471437354368
0.1413370127100757
0.1389712043784683
-0.6720191768900494
0.7829536700957169
-0.950410682715346
-0.3687190749599162
0.2902739406954872
0.07844513520020405
0.1458162360824399
-1.0100420713251
0.8642258352155773
0.4812116589824543
-0.04202222099365525
-0.3081078007132256
0.586351561157412
-0.2782437605523861
-0.7385806249475996
0.8843968637273822
-0.1570322722423301
0.731168433227501
-0.8426828725364028
0.1115144392084675
0.9761167363052494
-0.5394905891156441
-0.4366261471462518
0.7550099307366875
-0.06502893496022888
-0.03242452776312042
0.1848760209304477
-0.1524514925282394
-0.7758148956002047
-0.8410246647078183
0.07559769292842247
-0.7499338924719775
0.5136509169784245
-0.5547769911676823
0.09940880617112585
0.7181458165274737
-0.817554622831322
0.753624018590478
0.1742916585915025
0.5029231653019315
0.4970768347194032
-0.0514779438715461
-0.6125013958711837
0.6639793395202294
0.8835511160839817
-0.008294914471800332
-0.7550099307505119
0.7993336041455785
0.191469802883138
-0.4475926908769711
0.0149609286955829
0.003693468703264501
-0.01865440082291855
0.5885526569150765
-0.4375850244325188
-0.1509676328438855
0.7179891785070612
0.01019202593512754
-0.1098562315793566
0.4378238756972453
0.1507287781574706
-0.01650504799824983
-0.006314775382225603
0.02281982349140271
-0.0309445864556918
-0.00147993630761822
0.2452121216344115
-0.2618053537714686
-0.9587793473178393
0.001325111200873121
-0.1594457431615437
-0.1235069563827962
0.09441379496760083
0.7223118809080799
0.7289908384270483
-0.1447402748455911
0.674121299032246
-0.5747124908728192
-0.2117859870044296
0.3983702799669004
0.6955928693906872
0.02239630913254172
0.2418031416592653
-1.074926657126462
-0.9504106826314029
0.3025687316646315
0.7598270562172774
-0.2091226224160768
0.06570344694046948
-0.7236369914266201
0.9111315003151637
-0.1874945089188195
0.4155297402711156
-0.02757561709052786
0.7712142114172775
0.2806456566008146
0.3753602558846302
0.06819239604112749
-0.6587039093858339
0.6587039094063438
0.2146471290544584
0.6958887321631178
-0.0562445954376738
0.3910844893913482
0.3795264167769162
-0.01527085163834869
0.03023178797632036
0.4485328642508256
0.03267879691841735
-0.7385806238187501
0.5340117605762285
0.2007236688562341
0.3015320546013034
-0.1166560408779954
-0.6955928696606474
0.1800015501376503
0.7311299507656287
-0.0101621374898086
-0.8136728854525354
0.8238350229615959
0.6963763768758192
-0.7920178922466383
0.09564151534063715
-0.7536240111255591
-0.1500344957878439
0.211512291339186
-0.06147779472863769
0.07731046652300044
-0.1790248499583956
-0.1120798890288709
0.2911047383004537
-0.009158068147508447
-0.007346975809165701
0.7062815475871493
-0.7164436771677128
0.8864997696076498
0.0686190178762415
-0.3100424281388932
-0.5233143793597484
0.8333568076923941
0.1029329271655996
-0.1029329291808932
0.3286649603539514
0.4783622336876147
0.6084453083286808
-1.086807542121032
-0.1941117476504466
-0.5855366759575513
0.7796484235967369
0.01240070379692132
0.2213365305504396
0.3765015255666354
-0.253017568612361
1.015213666330326
-0.536851436249701
0.6675027259181174
0.9923065996771306
-0.3838612947235486
0.2292074422547476
0.8843968665664825
0.7126500609938065
0.2138366932232847
0.7277902736278489
-0.7809584571320125
0.3412960780898089
-0.2844555366628172
0.2590236199855003
0.02543191761028724
0.85179126906544
-0.00882355995903117
-0.8429677093076844
-0.7020710818833821
0.702625731252576
0.5546394627927805
-0.7020710843805849
-0.7126500609931599
0.7026257282530924
-0.0335758528329741
0.9063974800780086
-0.01989770656256497
-0.681298713492557
0.6122425949735131
0.06905611851984399
0.5386962073002931
0.5385504375953412
-1.077246644899051
0.4882898266691246
0.5269238386810259
0.5480867554869989
0.4580840713842948
-1.006170826924486
0.4944054876370059
0.4979011108885192
0.6122426021944918
-0.5257027295340791
-0.4666076305528587
-0.5558463569917591
-0.5148540532792785
-0.1245370513162521
-0.01278778078924353
0.01278778166637659
0.5095091075484277
0.5244129863727519
-1.039267039772806
0.5727605124013043
-0.2710024280819006
-0.8830627868750049
0.3435721983534273
-0.632698785108084
0.3900085685052002
-0.0002117437232164545
-0.827497849846353
0.8277095935966463
0.4208830433821674
-0.02450114037097509
0.8762924116146008
-0.944203702618795
-0.8344957525416734
0.05718418731240378
0.7773115652935592
0.5516677925523483
-0.4368854356976525
-0.1147823567896775
0.6501216125586493
-0.7293249638127965
0.8852279537190588
-0.8274092743989576
-0.05781867912393601
-0.01389959269682254
-0.7905378570427091
-0.1111877218834642
0.714972271993273
-0.6037845501126262
-0.9412136846440715
0.9273140915165078
-0.7349537362979053
0.6883558996120305
0.04659783670826605
-0.8006046800362979
0.02770714780037453
0.7728975323297038
0.06183824235095357
0.04109468746969164
0.4329910351083331
0.05897576522722062
-0.8497596626120637
0.7907838972673401
-0.6452384114152265
0.5937604618073781
0.8895817173671875
0.07318036439576527
-0.9627620818420738
0.05508596664690295
-0.05026135073006296
0.3798131740493072
-0.3817057111005159
0.06558807710756007
0.8406145946061988
-0.840826342713638
-0.7319856558815317
-0.8112616983073538
0.02072384064113289
-0.1682946234770218
-0.8477355918191546
0.0203263099747957
0.6234392960729551
0.05068200481854172
0.0174630265279882
0.5342047544869967
-0.81527154478349
0.8429786964983199
0.5657153046705663
-0.8519989965360908
-0.8680333192623343
0.03836416397983488
-0.03196794070575056
0.8340619922265952
-0.8020940514918796
-0.02002600851779331
-0.7639535928691077
0.5442896782598705
0.1520867012590086
-0.01879045040263274
0.8950828610760279
0.9844982796159059
0.8608940515915313
-0.8405677456225988
0.1476495591058897
-0.147649560741365
-0.1176542079218642
-0.4652678773311364
0.02838243599406784
0.271301951959183
0.0312667800220811
0.3855522718897032
0.8750568550594762
0.006837909247715425
-0.01599596561223839
0.6585988396571593
0.3414011603622155
0.7835688269017963
-0.5836891678256613
-0.778054277821086
-0.8109176050396235
-0.6799561486249762
0.6799561486257109
-0.1681792963629372
-0.1550371645796668
0.6018794018014124
-0.8112967574821653
0.2094173557033311
-0.4940073929964259
-0.5688482855998589
0.2780404062053786
-0.9719389655770815
-0.898699896227502
0.8408812071571813
-0.8193356521806623
0.8400594935109046
0.6484820245142126
0.1344628345201624
-0.7829448590487091
-0.7643197687290164
-0.146358652505477
0.7253729553785135
-0.5790143028829537
0.02364304435571565
-0.01258840295662707
0.01584598862956975
-0.003257584670859809
-0.3526131263001384
-0.1126547485567394
0.8799198094110748
0.7392707360854963
-0.2388288206765033
-0.5004419157725116
0.6244883808598052
0.6856868841441716
-0.4710397565508098
-0.0002207920809559121
-0.2853191199392724
0.01337934902319388
0.7475641366866244
-0.7609434855544729
-0.3234569402424759
-0.07189106335099189
0.07606588928989649
-0.9670683393914217
0.1241006334390546
-0.6768339207393733
0.0543148096048145
0.6400884342268018
-0.6944032438219359
-0.7564883665617238
0.07965444581474235
0.5894745907618454
-0.6613656540292818
0.1563832177947386
-0.3354080707539722
-0.7724232964549885
0.008103527700499788
0.371134842694194
0.5999988334036345
-0.02623530960932069
0.02128713051228037
-0.02128713177312259
-0.01910254570255515
-0.05219967320663035
-0.2322558494213222
0.02194900516310837
-0.01511112465076949
-0.721741294955161
0.2793959661730526
0.6785076997191971
-0.6899724642609363
0.011464764721202
-0.5963767654069502
0.6506915719107512
0.6545210501354882
-0.06504645935547651
-0.63095985553193
-0.1255285140285425
-1.049853748424688
0.01122339365768406
0.1364261707158127
-0.7083619473619024
-0.7421475823139235
-0.7639750292645798
0.3659593412771762
-0.4063270828535737
0.4665396052072052
-0.06021252218223253
-0.672281472310492
-0.0360804749642497
0.4996898203986876
0.7306831413761677
-0.2350351767943731
0.1115282217166168
0.9589648149423808
0.4462799800423327
0.1322947683094015
-0.5785747484113613
-0.6772907040748795
0.005009233977001034
-0.04447909708915304
0.03189067236509325
0.6374934193234666
-0.7756852845140447
-0.002699603625737706
0.0026996032750486
-0.600089828445919
0.6496541255150399
-0.04956429708214732
-0.6598276789561978
-0.1138534118768003
-0.6717977769574262
0.05485935903943859
0.609119975065638
-0.1376338055285879
-0.8181564288304185
-0.5667852332281822
0.5722062510500363
-0.005421017352744942
0.6306689363234556
-0.6192041737911476
0.3223611135763678
0.2136407105228578
-0.5360018241060754
-0.1046541632104766
-0.6025856303919755
-0.09181761334480451
-0.1538098467856835
-0.5119258830014969
0.4043468368548553
-0.4990456593114914
0.1260311543231915
0.6787590719694209
-0.8047902262748398
0.599152230350018
-0.3742441179520294
-0.03208297347868669
0.06084260830663066
-0.5727684929565143
0.5514161599465498
-0.04035719095028515
-0.5110589691656908
-0.3128411676182722
0.3054886339732891
0.007352534702099045
0.4508563843660923
0.1219041253537265
0.05193542073019688
-0.3162987405883522
0.1573019228164505
0.1589968179747844
0.25203096558546
-0.01825407445237974
-0.2965053674275327
-0.3128735787013998
0.3580341395925783
-0.0451605581869088
0.7916033574523494
-0.628935578418176
-0.03089210072022563
0.4994879762513118
0.2853336516119665
-0.5241624749621548
0.5774428340268686
-0.5774428340251575
-0.2897865151717279
-0.5865145694753092
-0.2955291201370192
-0.5865145696756832
-0.5968027371127722
-0.838477970427538
0.1699518576710783
-0.6005531363991211
0.8212125645507985
-0.00336083443291835
0.1186884412828383
0.4813103929548758
0.09675203985057321
0.1856654404440322
-0.03621619342049744
-0.1494492460444108
-0.02834689477210601
0.5904352186232221
-0.9425095940789474
0.4191952105726859
-0.005107569581560723
0.0002738602632034913
0.004833709680890083
-0.6440607621664937
-0.1321256050980867
-0.466241809550313
0.5985365790480265
-0.5035488938576578
-0.3159303231691921
-0.2568381545581101
-0.2723125284121087
-0.1115867006198777
0.1115867012008384
0.1535908178901043
0.05792147521978902
0.1968888377816113
0.4482855263752413
-0.5695448231966378
0.1033030087437042
0.2539160434883449
0.4663181867560203
0.5336818139003554
0.6456958787802477
0.08191095678110802
0.002569621232102521
-0.08448057768143513
-0.2770712154362127
-0.5410852134247944
-0.545543470466041
0.1146825996737571
-0.1265405680826429
0.01185796886499785
-0.105751220318701
-0.3854761686493095
-0.0493191077384762
0.6584391004836695
-0.4994590898272376
-0.1446016723083533
-0.326561712176465
0.2862612062984209
0.1283174382519865
-0.6107929636635878
-0.2043955019601385
-0.2627425373902157
0.000937202444515802
-0.4209453267416293
0.3223648161037311
0.09858051087707638
-0.09015326355294644
0.2917067613741807
-0.8959355311333056
-0.4574657570190851
0.6300922015268235
-0.7731728665425927
0.6685187033762847
0.3408231331615131
-0.125576691334659
0.2246003777089989
-0.09902368709018231
0.03148739313208393
-0.5861803000675303
0.02881437273466901
0.5573659270939636
-0.9006350022156911
0.547589952150155
-0.665244160075715
-0.1016283914185015
0.1092396166290025
-0.1092396192197908
-0.3165195375509617
0.3596659545117659
0.02014721371794444
0.02143587285189913
0.06047506017968388
0.504381657540532
0.6676123381762756
-0.7384310994681696
0.02512933484193328
0.02001090949070012
0.001276209684929364
-0.006365115952995346
0.006365116747610892
-0.4098682653024623
0.5317723870244553
0.0156496523334867
-0.01564965221840186
-0.7926407725873518
-0.06013550118072933
0.1219737348597006
-0.4513805193440956
0.5546835241537315
0.449913500815898
-0.4994777965431438
0.150100491302192
-0.1501004925827072
0.04326651105679436
-0.01303471364422389
-0.04140599272088855
-0.976203364603966
0.5395772189025889
-0.470080795104902
0.04109468557207922
0.5151035651433233
0.0304953799335509
-0.5455989452716872
-0.6163152525930173
0.1168561630784274
-0.3293064234865606
0.01359709469811389
0.3157093279664937
-0.1545280197554026
-0.08050717297424149
-0.5409405788567768
-0.04523971667253021
0.1364261716465706
-0.0411674749771281
0.03846786809130346
0.0814870052266842
-0.08148700233958792
-0.5286773977137511
0.4835168299129968
-0.4147816591637887
0.1613003174866318
0.6222685094577179
-0.09726435822986232
-0.005441136038756077
0.005441135998301023
0.5329990865831178
-0.07658820503364858
0.006306684457359876
0.0271865546990787
0.03472958409826565
0.6892371914191303
-0.76582539656565
-0.6615795935535215
0.6306874936642493
-0.1104148201262297
0.3137185209340579
0.7455990848294565
-0.01910254453243763
-0.26546403561205
0.1488080070096858
-0.7446167535222009
0.4838353253997207
-0.4251327816476268
-0.1012116829830504
0.003349100271371913
-0.01464508966968343
0.02451865067389429
0.4122052160471797
-0.1216174655360873
-0.3894415044491364
0.6290774108544476
0.01915286694949149
0.009073900005760704
-0.009073900079936166
-0.3540968893061488
-0.08039187010053117
-0.5603756247784043
0.557014790191578
-0.2376565803136479
0.4647341028165323
-0.1505948518611158
0.7305538510169286
0.6700896608578237
-0.04116747566982494
-0.6167004418809281
0.5602334294886406
0.2821134657145187
-0.2778838265687895
-0.004229637905671574
0.5405342321865827
0.09344157666515571
-0.03876621730555861
0.1965420810020665
-0.15777586324665
0.1202532249415341
-0.1202532223368712
-0.8586347994151698
0.002450925547411198
-0.1132177264400239
0.1404042799761549
-0.1316277466252022
0.1316277474795433
0.02001091494547171
-0.02454369201908147
0.6707343107471305
0.06039564060072549
-0.3227844041377593
-0.06269176421874662
-0.4712955058123339
-0.04444824714373015
-0.1514302248530713
0.1514302261467081
-0.04121406561435107
0.1435604589979173
-0.1435604600889805
0.1365289085586302
-0.1365289066294118
-0.3160722785166414
-0.1145008661361727
0.2261461249945007
0.1031527011000701
0.03479976974178404
-0.8212318495478657
-0.1977693142583187
0.1700049429204582
0.02146485271198678
-0.2645620988091648
0.1261052556653139
-0.1261052566226033
-0.4142819798012499
-0.08476367719209643
0.2359295423585608
0.002702616351050836
0.04031953345033881
-0.5445094870760909
0.578085339915797
-0.02953783309481792
-0.01167623126976164
-0.02514547194372943
0.01211074480208652
0.006540011030380458
-0.1846075309842429
0.1780675199621888
-0.1077887742204311
-0.2276192972688049
-0.1444986514923204
0.1444986526207201
0.07251300895313972
-0.07251300841896516
-0.01906036080013681
-0.1086005267507115
0.1276608868578372
0.2348369171547178
-0.183307831993219
-0.02187173392286605
0.02314793556326287
-0.129579837692254
0.6130966695081501
-0.03907369429676578
0.4251036915159918
-0.0413784238644479
0.06419823033516972
-0.1532376427402995
0.1532376443525243
-0.6364297812523123
0.308316280498689
-0.07910883884957193
-0.2342779663706195
0.003659522392786273
-0.1220343775861405
0.1623539118938516
0.1943672170083556
0.09673751557798989
0.09522551929845438
-0.06049593525117192
0.0730529711910184
0.04162962780093883
0.06410703241356494
0.1058979139031297
-0.09950137347801669
0.2110296169752575
0.01177350659848194
-0.1146124932357614
-0.1017980858043819
0.09657763654457968
0.005220448098734844
0.01093701248888245
-0.02222556170837957
0.03742990688059669
-0.03742990679425154
0.07450770271821164
-0.05523605651537888
0.05523605680775558
-0.224403788277108
-0.05041426252402528
0.01176699093591711
-0.1031602964666478
0.0162756848879449
0.1087236443993225
-0.1087236450229525
0.2929477257709387
-0.2709376535777431
0.1631488744739367
-0.05050602001710675
-0.2204316340915632
-0.01696281330316762
0.01696281295279134
0.3674825355383399
0.2851908785697957
-0.5278582671465489
-0.09393600782978946
-0.03260455964398799
0.528782846517391
0.2096914301031129
-0.1687265179574748
-0.3814172590200022
0.07659581103763417
-0.1473311734682881
0.186947515094021
-0.039616341312546
-0.06709403603814489
0.06709403562859037
0.8221948958676656
-0.5603638925221877
-0.003013604620204305
0.0139506175237221
-0.02004104697883478
-0.2871627731307644
-0.01745521026731197
-0.01287090209345806
-0.1320658687110798
-0.5722514394248193
0.5560591846329156
-0.5685915059544501
-0.006931575478807562
0.09905878281265973
-0.001807419595838661
0.01670873587147879
-0.1673722212120041
-0.3362833151232272
0.2331230185223825
-0.05414347520814731
0.03508311197687023
0.1321623350426111
0.1733262989335702
0.3411040251620473
0.27613157492521
-0.2779389950803035
-0.06333021889346906
-0.1550004362328775
-0.2206808782658295
0.07461056492491906
-0.01050353086349357
0.2137314579633965
-0.1970227225577729
-0.08623166130897468
0.1592846380348734
-0.3549507980601325
0.2082818813687069
-0.1920061965185548
0.08966137664787698
-0.4791028778194717
0.1740766151937078
0.170526939494714
-0.2567586097103438
0.07299994977630013
-0.1947102035823492
0.1772549937228753
0.01738160480273783
0.1419030316409297
-0.03958639439108976
0.06592790733336198
0.467071179710414
0.02046709085194227
-0.08173755017895906
0.05587385391106504
0.1257591854072477
-0.2602972206412409
-0.2309485034709589
0.5597129682426416
0.1571445109826106
0.07878503245356619
0.07508150781280787
-0.03106920215397507
-0.0007083847616459846
-0.003521248003634981
-0.03261246549912995
0.1708045456426706
-0.1777361215771192
-0.05721890235078609
0.0201343345530456
-0.1469983216390539
-0.05280718312782378
0.1538107003595172
0.2770603432815654
-0.04059412588768455
0.0114023630396712
-0.2551949241449069
-0.1309214300898892
0.2361150142803549
0.178790706050871
0.1295255704408753
0.02172525325084338
0.08858718879230479
0.05216650036260962
0.452215157201054
0.01699396209430252
0.09776179179428585
0.04311600059112999
0.07219095594097211
-0.1153069553067687
-0.2426673862864118
-0.2005159650109517
-0.01991567276854799
-0.2020425317367476
0.2751105914543585
)
;

boundaryField
{
    FrontBack
    {
        type            empty;
    }
    Top
    {
        type            calculated;
        value           uniform 0;
    }
    In
    {
        type            calculated;
        value           uniform -1;
    }
    Bottom
    {
        type            calculated;
        value           uniform 0;
    }
    Out
    {
        type            calculated;
        value           nonuniform List<scalar> 10(1.036376582700037 1.064398936697418 1.02245398754034 1.021329327533793 0.9966345081923748 1.012755164255647 1.033922094237338 1.062855678585243 0.8672293536843115 0.8820436896303867);
    }
    circle
    {
        type            calculated;
        value           uniform 0;
    }
}


// ************************************************************************* //
