/*--------------------------------*- C++ -*----------------------------------*\
| =========                 |                                                 |
| \\      /  F ield         | OpenFOAM: The Open Source CFD Toolbox           |
|  \\    /   O peration     | Version:  2412                                  |
|   \\  /    A nd           | Website:  www.openfoam.com                      |
|    \\/     M anipulation  |                                                 |
\*---------------------------------------------------------------------------*/
FoamFile
{
    version     2.0;
    format      ascii;
    arch        "LSB;label=32;scalar=64";
    class       surfaceScalarField;
    location    "1874.5";
    object      phi;
}
// * * * * * * * * * * * * * * * * * * * * * * * * * * * * * * * * * * * * * //

dimensions      [0 3 -1 0 0 0 0];

oriented        oriented;

internalField   nonuniform List<scalar> 
1171
(
-0.9279323588936221
0.9279323589441457
0.7872912903039366
-1.098773370858232
0.3114820803080743
-0.1948341530906526
-0.7664402418155377
0.9612743949714175
0.07206764427171912
-0.1171099500878592
-0.2117899693225763
0.3288999202463236
-0.7872913025907612
0.06934712857325334
0.7179441740009517
0.8110385710270861
-0.1774204400926251
-0.6336181308228984
0.8743561858330891
-1.043552086959021
0.1691959010756749
-0.2847974459220641
-0.09760822450973804
0.3824056699858591
-0.03589661193925781
0.5484142570700214
-0.5125176450357714
-0.5046623373617632
0.8272971882018902
-0.3226348509349483
-0.4019074010707422
1.045829749761565
-0.1714735642037246
0.3957986067731669
0.04793405557843929
-0.4437326607915486
1.046391354475734
-0.0005616052111169393
0.4455607928928369
-0.04976218337098264
1.057004698848387
-0.0106133419823165
0.5775942968584304
-0.7724284552472618
-0.7244399095511133
0.5571846094157707
0.167255300241295
0.221682591692723
-0.7263449215137181
0.5504139618169632
-0.9227446543242193
0.3723306934940496
-1.09416947082019
0.6863814790908895
0.4077879916047396
-0.5953564851120261
0.5594598659072876
0.01818364291091662
-0.2569379871218397
0.2387543453117548
-0.02460103857842366
-0.5222910700887695
0.5468921093202709
0.3999551326488651
-0.4975633629581231
-0.9187443808994399
0.9414136619241408
-0.02266928106263909
1.067644254688133
-0.01063955440047186
0.9351850623365163
-1.116949828010286
0.1817647657781938
1.067274514730767
0.0003697433044690691
-0.6643355829846379
-0.06010432864404464
1.26215500994136
-0.8643772402495836
-0.3977777696831662
0.1485301380506373
-0.108898956201415
-0.3260262085103756
0.4349251643127962
-0.2857563656093846
0.1910330224528618
0.09472334262485906
-0.5833939222008954
-0.5153794427608207
1.014073420904827
-0.07888835796733938
0.00994263935724132
0.8254326028627904
-0.8353752422876646
0.5718493607402502
0.6903056467160368
0.4395152970551728
-0.03034230545062499
0.4302974384602284
-0.8076635596005101
-0.1025991765036587
0.9102627362101786
0.5026887422074009
0.2537594090690639
-0.7564481512790041
0.003976980641617387
0.5288318764724244
-0.5328088563738115
-0.489860655269462
-0.6043088145137365
-0.422905415895973
-0.6940444124390572
-0.02730889026942621
0.2701818297463041
-0.2428729405588566
-0.924849027330727
-0.005170592879230679
0.9300196201336924
0.308014739960097
0.0743909245467245
0.7624123707871561
0.04862620512551847
-0.5330926257251444
-0.06226386076536812
0.04633805487705887
-0.8540016142509689
0.07591978274526294
0.8621427890699257
-0.9380625718503491
-0.3473928202023569
-0.04130929978548618
0.3887021197139665
-0.6823943768132084
-0.2424546551139174
-0.6313332556844509
0.7072530401620305
0.6091009350848418
0.218196259980345
-0.5428599572979947
0.9461926392499532
-0.7794277982085779
-0.1667648411045859
0.02257452862046569
-0.01584069592776251
-0.006733831947140289
-0.4029269031756735
-0.09463645940526197
-0.2417191595061001
0.8508200993044092
0.04642192117594012
0.3349032287745921
-0.3813251505183887
-0.4603684853287873
0.9630572324978526
0.6800905994641328
-0.7826897746566458
0.3189995486172784
-0.01673044787525264
-0.3022691013034961
0.9306754764052518
-0.930675476427631
-0.783003325500026
0.1108749954016077
-0.3226649683970308
-0.7500518170085788
0.7599944538776634
-0.09044771453350892
-0.1427968675116155
0.2332445811798189
0.8649809237624076
-0.03954832481785484
1.054337870010863
-0.8005784539919806
0.1859811355427382
-0.3155036952292963
0.1295225599713186
0.8593562955955455
-0.09694392343181714
-0.611806487768108
-0.03933332274579016
0.6511398104729199
0.1238639367967062
-0.2311445835635184
0.1072806480626386
0.8056640199722387
-0.9830844560438723
-0.4353572968700609
0.3296129646544658
0.1057443329356888
0.531541116097905
-0.5561421530627002
1.022119954283504
-0.4562602059643937
-0.5658597483466018
0.5992145389837215
-0.7193390987610423
0.06674486945475136
0.6525942289204623
0.1029081508494373
0.5705299712174677
0.05476552746072939
-0.625295498494155
0.1942337443370825
-0.08335874567413699
-0.4932054348652207
0.1458126152709443
0.05036433381041288
-0.8868510349107017
0.8364867011877072
-0.474357021178546
-0.7134713272901487
0.04913574331845809
0.4366254907292417
-0.006328055376431181
0.2998900708740781
-0.8552511064875234
0.5553610358061853
0.4157148320965459
0.5842851680021662
0.5605604057455171
-0.5142223467006365
-0.3654214652000735
0.03497449553330846
0.3304469664041119
0.6813692796825565
0.2493061962501601
-0.5662982894982364
0.5702752714468784
0.1105992796658522
0.8750111576523514
0.01025720159018622
-0.6220636916581697
-0.7493327042597434
0.7996970393119029
0.5311966429123458
0.07132021602411161
0.301448957444764
-0.3727691732059373
-0.167620134305804
0.4417784479421564
0.0870534183155674
0.8759645412090242
-0.7973798019805972
-0.07858473914835487
0.6354827342360674
0.3107099035238557
-0.4302357928245548
0.5755182887549741
-0.5041980725840975
0.4171736488463316
0.1332403167668506
-0.0469116456103264
-0.58979273716994
-0.1380411382951551
0.7278338754807555
-0.1496961755321292
-0.7809793038255548
-0.6110377080681213
0.3607084427193224
0.250329264033092
0.6222925063469088
-0.6120353045894598
0.2384522103222167
1.01146413009272
0.04287374121800776
-0.7493327015050503
0.2226867778422938
-0.2001122523227991
0.680090597925604
0.802134058696309
-0.8021340587872881
0.8377152879910974
-0.8333337254378947
-0.004381562468361549
-0.4453813025789452
0.8610961338952293
-0.1476373154140792
-0.3455681222162041
0.7347152446020891
-0.6684678726752757
-0.0662473720007221
-0.7314698112980423
0.1416770744139514
0.1387237815491108
-0.6718164070813391
0.7826897633982787
-0.9503098977703004
-0.3650539586382192
0.2892333558586354
0.07582060084218757
0.1459255083936623
-1.009532646814274
0.8636071384564378
0.4808306284221312
-0.04131533146298549
-0.3081829541401369
0.5864572307954615
-0.2782742764896181
-0.7383067070844852
0.8842322140522278
-0.1571352936690438
0.7346622202516737
-0.8391828533068143
0.1045206330139942
0.9778674407316166
-0.541938564172401
-0.4359288766567497
0.7552224155652809
-0.06487908455131501
-0.03449022022201201
0.1879147636502857
-0.1534245438580081
-0.7757351851375817
-0.845830016322621
0.07938976872220926
-0.750051817894733
0.5140683911337197
-0.5553776944204917
0.08982831461025603
0.7191644998990381
-0.8089928143524736
0.7537142522432952
0.1742181241394782
0.5028768427514432
0.4971231572209938
-0.05186009714437235
-0.605886635411849
0.6577467332635473
0.8807277285352122
-0.004763183922917955
-0.7552224155451781
0.7996970395468815
0.1910435030128226
-0.447981487090749
0.02019736082240762
0.001209927720813815
-0.02140728405982731
0.5892675170069087
-0.4384441980098169
-0.1508233183998485
0.717944181397274
0.01408326081486208
-0.1111677946149652
0.4374391531702923
0.151828364872186
-0.01365671853055019
-0.006078128867647731
0.01973484671773966
-0.03371393578300985
-0.0007762904600121735
0.2432952711980699
-0.2600257107081433
-0.9592693529361108
0.0019314804927186
-0.1595723133988201
-0.1217586925727141
0.0946443708724814
0.7213380797026245
0.7290340576109519
-0.1447488898449744
0.6610197910449238
-0.5711914775464036
-0.211833833778228
0.3978149692010262
0.6954329655866575
0.02251121578034877
0.2416073438995121
-1.074941067301787
-0.9503098995824832
0.3016866856945158
0.7599944513523761
-0.2086739930627785
0.06587712715693124
-0.723269561413298
0.9096075103041354
-0.1863379488981069
0.4162785164408614
-0.02757640327644349
0.7716076190959601
0.28066090169386
0.3721025108116478
0.07345827485441675
-0.6586918637209097
0.6586918636987276
0.2147326653297888
0.6955300720808733
-0.05487725425103938
0.3897804894691166
0.3800479128106826
-0.01405941502268177
0.03425676308194309
0.4494325510483583
0.03139807419770396
-0.7383067075278029
0.5341278343480854
0.2005874122928704
0.3059657090695916
-0.1180509469079064
-0.6954329671329467
0.1799449489360894
0.7296625624031781
-0.01022371299060843
-0.8136778448398309
0.8239015578195776
0.6962801271078695
-0.792086566590513
0.09580643955868465
-0.7537142587884375
-0.1501813851987079
0.2112037752320661
-0.06102239100082733
0.07725534923464603
-0.1796678154128804
-0.1126175877012917
0.2922854044712932
-0.007322690953466868
-0.006334036088688621
0.7065789955374804
-0.7168027159521064
0.8846614219571465
0.07661296838280167
-0.3155658606085198
-0.5173578066708688
0.8329236671371431
0.1032944593926952
-0.1032944562593607
0.324207855092479
0.4751909788862531
0.6152656792044183
-1.090456658045271
-0.1941347059314107
-0.5856708288829074
0.7798055348358155
0.01305571229639361
0.2201888753424611
0.3772248174135694
-0.2533608694484619
1.012963806350555
-0.5377728240066436
0.6644821518978913
0.9945539156427633
-0.3792882329024391
0.2295874991406948
0.8842322126870358
0.7127586491919615
0.2136896170531598
0.7277240479690265
-0.780979304392672
0.3413081485474484
-0.2762080603782721
0.2445473300453491
0.03166072848508276
0.8476626354949173
-0.01168312277185991
-0.835979512436082
-0.702145310311031
0.7025150556339173
0.5546186992135156
-0.7021453091486531
-0.712758649204513
0.7025150568341815
-0.03475716400502848
0.9052428050623901
-0.02058138619565099
-0.6813692697269916
0.6123605412816693
0.06900872843439264
0.5388109031987134
0.5370215062564281
-1.075832409433854
0.4919448188907627
0.5210189886362399
0.5427715934901983
0.4596322948218957
-1.002403888253998
0.4981467349154187
0.496407182109998
0.6123605344058325
-0.5255521389726676
-0.4651095202351546
-0.5564185875282509
-0.5194469809884932
-0.1200183564470035
-0.01220570467228436
0.01220570351811469
0.5127579186564982
0.5229677256244127
-1.042414706492586
0.5753551444878148
-0.2739061877599905
-0.8854915931008013
0.3435530284598997
-0.6330103048069579
0.3905556481405124
0.00233961748456337
-0.8301159486941861
0.8277763311171651
0.4208510952732489
-0.01728383858114475
0.8649464740874446
-0.9468991116149945
-0.8344616259425888
0.05483753168869703
0.7796240941199725
0.5622899983715942
-0.4383773225664131
-0.1239126756990081
0.6500033643645906
-0.7288917228789737
0.8851547347435944
-0.8326070274983371
-0.0525477075139329
-0.009168529616925334
-0.7882112691622335
-0.109650465265472
0.7142354199359539
-0.6045849546628523
-0.9359982707859786
0.926829741438839
-0.7290864858556407
0.691797905072449
0.03728858072460556
-0.8098909035847881
0.038621456062039
0.7712694474260702
0.06166901985401409
0.04162543649348423
0.433130385546483
0.06174436629435941
-0.8512767931212777
0.7895324269392148
-0.6426167922526326
0.5907566967610579
0.89033977969287
0.06996786463709037
-0.9603076443053282
0.05587815079980046
-0.04741813578374703
0.3778651045811181
-0.3813026536772194
0.06579896078777737
0.8423374024355194
-0.8399977827732307
-0.7332779405819968
-0.8104818387044996
0.02227056970374052
-0.1641081896730129
-0.8527475561160927
0.0201405338459478
0.6245658516255055
0.03645393828237383
0.03137570223988697
0.5309142992961742
-0.8063974198582616
0.84501887255217
0.5658597472780241
-0.847399784475149
-0.8660304081272105
0.03921239297966257
-0.03790973358802881
0.838079609335635
-0.8001698758091754
-0.02497121979989926
-0.7711876753746619
0.5443527333955116
0.1519273890420335
-0.0316821884804174
0.8966286630856843
0.9816672715666126
0.8619163385968122
-0.8417758027412974
0.1474486102955441
-0.1474486086459026
-0.1187030028607225
-0.4825634985936915
0.04418617811454655
0.2707258637897106
0.03096082152840177
0.3861857742094488
0.8716574420130512
0.003706835500183363
-0.01102953502750514
0.6586120752907872
0.3413879246909924
0.7835377349016927
-0.5833939198262219
-0.778067238577465
-0.8118530011096726
-0.6798457798559245
0.6798457798448145
-0.1677317213502058
-0.1549332494887429
0.6017399952195179
-0.8122196052766892
0.2104796100239785
-0.4937134322766314
-0.5690133126052335
0.2782208969414494
-0.9722653090456621
-0.9018737516013067
0.8493260508587841
-0.8148025661891874
0.8370731351550119
0.6487199801066289
0.1343565923579854
-0.7830765724379353
-0.7745644188983777
-0.1459138130372985
0.7242746782311478
-0.5783608651415061
0.03021630687667825
-0.01506200160532686
0.01856766300955664
-0.003505662570590558
-0.3553157637297741
-0.1272477399898655
0.8799608896634261
0.7431712585112925
-0.2449240094312701
-0.4982472484150889
0.6192585765516594
0.6852627105596237
-0.4705300439207936
-0.0006987102218202592
-0.2850576550184772
0.0259083997547501
0.745654069567856
-0.7715624695530893
-0.3235453312520337
-0.07234151854229973
0.07562419375770106
-0.9600364618886802
0.124056948455289
-0.6778630167404053
0.05171670410623076
0.6411903396256236
-0.6929070437255239
-0.7567625922066168
0.0788995754599231
0.5881188263514121
-0.6604603449858691
0.1566738896111687
-0.3363417041309257
-0.7707505422282599
-0.003813876605644198
0.3712354789450842
0.6015132201479777
-0.02599493449332058
0.02341160932995145
-0.02341160890190613
-0.01828384389992706
-0.05084334534867637
-0.2253647185573974
0.02236320362197659
-0.01865634174225499
-0.7342966012753058
0.2793100968022433
0.680095170500118
-0.6898165540663714
0.00972138336847443
-0.5970295788267488
0.6487462879350518
0.6530253277181299
-0.0649065036307193
-0.6316609260360425
-0.1251016627341859
-1.050132021234316
0.01110517948087164
0.1363434291244256
-0.70838820002494
-0.7413113851729441
-0.7631650596650007
0.3653872880498603
-0.4129564074566626
0.4674635955821098
-0.05450718876400096
-0.6734736186634069
-0.03491458145944077
0.5014394966758237
0.7306797125173882
-0.2332655277625435
0.1115068346201327
0.9638503355495454
0.4459366318047732
0.1343287735497785
-0.5802654052647226
-0.6782158722407912
0.004742252069542542
-0.04452380996526541
0.02946181698050787
0.63679113674493
-0.7748322747372618
-0.002224598184270979
0.002224598260622046
-0.6008433657730732
0.6481610469463258
-0.04731768102383801
-0.6468401664957035
-0.1131617011138007
-0.6716023649075912
0.05242425129914455
0.6053224868967313
-0.137125673294019
-0.8175161778311373
-0.5573114988711358
0.5658444178017272
-0.008532918649742698
0.6336217885991157
-0.6239003998182677
0.3223004081527155
0.2142118897276856
-0.5365122978869444
-0.1045202503073294
-0.602250490751399
-0.09065655117010302
-0.154906737734321
-0.5048872444320793
0.4041361742981224
-0.4987726318285048
0.1266712373678435
0.6782923447920359
-0.8049635822401168
0.5992145389880796
-0.3698505401274893
-0.04310586433361888
0.07750258469615041
-0.5823898250120871
0.5518613467338391
-0.0404778947175447
-0.5113834518709208
-0.3122934563970365
0.3048298445522984
0.007463610917665859
0.4539859809775179
0.1213691631127544
0.05077483663257229
-0.3158413777186884
0.1567376106685755
0.1591037668586572
0.2348786848493048
-0.01219190097322535
-0.2951508467917519
-0.3123812638056022
0.3638486846100702
-0.05146742274034166
0.7885391015861991
-0.6274734783815514
-0.01936668772768668
0.4993555370282619
0.2805943174833951
-0.5255183298584137
0.5774978273821654
-0.5774978273839042
-0.2897509428988962
-0.5864626359417381
-0.2955550554575552
-0.5864626357590493
-0.594920361131491
-0.838511106102734
0.1700432367262805
-0.583287310361466
0.8211555518542351
-0.003516345233311958
0.1192093992546011
0.4823038196595044
0.09669667779844893
0.1854168442242406
-0.03629639392807393
-0.1491204519411931
-0.01744288182850362
0.5942170672254603
-0.9462090607320249
0.4288512575506658
-0.001329216200152198
0.002338921148670518
-0.001009706423487077
-0.6432673680444493
-0.1317255699145393
-0.4667779565836166
0.6011067285910103
-0.5037664758414026
-0.3230379082890561
-0.259351933470214
-0.271308275224785
-0.1120206895530304
0.1120206892596379
0.1525511543838231
0.05865261574251752
0.1965220213657655
0.4552717027678489
-0.5731953785576256
0.1064174252666126
0.2432181088437252
0.466217639420659
0.5337823597362918
0.6415315395289433
0.08455360035696101
-0.00326168587378515
-0.08129191822713713
-0.27684730904632
-0.5406688686763327
-0.549879870603471
0.1141141086070335
-0.1260859982123548
0.01197188909292399
-0.1058675007555941
-0.3860460162839593
-0.04450196443522271
0.6498244318160459
-0.4986735300096123
-0.1445938380919125
-0.3388786034918564
0.2919062976907264
0.1232489264863909
-0.6061060593882049
-0.2040281078003986
-0.2617237279664684
0.001698001009725384
-0.422129077332217
0.3225286559482661
0.09960042090786773
-0.09272312570839823
0.291618044396427
-0.8959268573086342
-0.4580402023711403
0.632381551516393
-0.7729367113703604
0.6684164610173765
0.3423623534026505
-0.1257163242202128
0.2254827753727837
-0.09976645019454343
0.0248458910774245
-0.5862679009615178
0.02930231266830221
0.5569655886162511
-0.9007229432333979
0.5468951277488885
-0.6655981306965736
-0.09688300619384208
0.1093212617241114
-0.1093212583835483
-0.316540087050996
0.3638831332821949
0.01398197755086822
0.02900026276356015
0.0555533449592787
0.5052017075305592
0.6616053943663011
-0.7401901311761131
0.03021020337114461
0.0236648732981725
-0.0002532563616059642
-0.006997008860892687
0.006997008211279007
-0.4165089096380058
0.5378780735741777
0.01522800184869314
-0.01522800200422206
-0.7922267484859752
-0.06052346178601237
0.1221924875432859
-0.4549869840951778
0.5614044104399989
0.450875491198781
-0.4981931762469901
0.149822733583498
-0.1498227324818084
0.0361225741108723
-0.001865812546965209
-0.04153486104501371
-0.9769040882713406
0.5409752102083093
-0.4710160911419355
0.04162543939801723
0.5144480355786946
0.03106608381667904
-0.5455141191158994
-0.6159298435092502
0.1172563127124452
-0.3297068098706091
0.01343432960520305
0.3162724810288514
-0.1542491573340325
-0.07901636147933938
-0.5407748766850309
-0.04549303056178592
0.1363434276969637
-0.04081969074900446
0.03859509896630645
0.08138803547950575
-0.08138803963865883
-0.5381627795201499
0.4866953678277487
-0.4144079384666129
0.1613392762533022
0.6221984585902333
-0.09796158591965008
-0.004843954350997475
0.004843954511413219
0.5329625158009068
-0.07519176191908744
0.006026803757044556
0.02702216593014836
0.03462842147720996
0.6857438853302786
-0.7609356470630749
-0.6572274410333916
0.6378607499202917
-0.107132986017604
0.3128431368512535
0.7461837958281246
-0.01828384597228595
-0.2672308244349064
0.1491798709120613
-0.7446691292021346
0.4843749672723731
-0.4234601097019379
-0.101481816696372
0.003577853484800096
-0.01444025222540887
0.01910150160809884
0.4114459842514736
-0.1216535270260716
-0.3897299236352026
0.6288681350549289
0.01920272802888813
0.01068275747654255
-0.01068275748240952
-0.3558685758527923
-0.08289108253841587
-0.5606101277969114
0.5570937828079517
-0.2383339170982049
0.4648036957895587
-0.1510691597614598
0.728663453577612
0.6731166464279323
-0.0408196901831994
-0.6155017494826033
0.5619488515528994
0.2890995154214868
-0.2869200587189354
-0.002179458048497538
0.5451376204625477
0.09338314580225161
-0.03894193412547456
0.1969099867296783
-0.1579680532760601
0.1203299641529444
-0.1203299674135885
-0.8587642568663817
0.002374127186579983
-0.1131632787193062
0.1401854461459449
-0.1320060084138402
0.1320060078658942
0.02366486713611579
-0.02312779193779511
0.6708018795882265
0.05886068221000359
-0.3231344105635979
-0.06291160640143433
-0.4712289974687562
-0.04977908742042227
-0.1517303326263283
0.1517303315942477
-0.04516935235805287
0.1432306715277347
-0.1432306707831523
0.1367067065312573
-0.136706708687244
-0.3156200817287348
-0.1146157111889075
0.2266096907041533
0.1030032744504186
0.03486270552128377
-0.8211071945637469
-0.1976491304507577
0.1703348659263713
0.02070864211662269
-0.2654552016708668
0.1257393656545284
-0.1257393650075049
-0.4140505431680928
-0.08472209070912498
0.2365546598231935
0.002199688788731574
0.04056834329554987
-0.5432040378493729
0.577961201853896
-0.02593690938625511
-0.01923244557864548
-0.02868232543592615
0.0268165176656968
0.006592073072728121
-0.1842534585862466
0.1776613853741663
-0.10816572945803
-0.2281759759661979
-0.1448337882985542
0.1448337874974786
0.07296779549567961
-0.0729677957902935
-0.01946077683746272
-0.1086822829943653
0.1281430605028545
0.2421441013491712
-0.1827708972780733
-0.02670454036916482
0.02645129355342664
-0.1387996198099794
0.625494989604693
-0.03905288033118043
0.4226047827832279
-0.04244238118178376
0.06217723376097161
-0.1534963651594113
0.1534963636757697
-0.636295827443901
0.3089442513452055
-0.07935675212270552
-0.2347126288729179
0.00356804844695066
-0.1219993058372877
0.1625676478993369
0.1949523735852958
0.09733303443753392
0.09579852307256907
-0.06117010121242501
0.07255325822933802
0.0415608515767151
0.0638522688198202
0.1064825924873976
-0.09571601293482047
0.207222833046371
0.01290735028589281
-0.1143723665562572
-0.1013963082544985
0.09783955237504191
0.003556756874597489
0.01298211572484936
-0.02323964564985617
0.03786457646384055
-0.03786457649475003
0.07491067994346984
-0.05476831087185775
0.05476831055986264
-0.2245650433292156
-0.0521951338485117
0.0114514575359298
-0.1030971180239538
0.01637674005518688
0.1083010592569451
-0.1083010588043197
0.2945527929324075
-0.2715889654619583
0.1634232393209681
-0.05073459205741793
-0.2208543733160951
-0.01756748841414454
0.0175674886752556
0.367326969684743
0.2852672645011458
-0.5274539140436184
-0.09399865489753415
-0.03208734259951343
0.528666251764347
0.2134617925401299
-0.1698977899854465
-0.3810391642478096
0.07648642265273112
-0.1478356104769315
0.187384495330768
-0.03954888504853075
-0.06674020589539653
0.06674020613344057
0.8226702184749269
-0.5606716329051403
-0.004267715320902038
0.0172498294005525
-0.01998532849695156
-0.2866588181536429
-0.01749130922262611
-0.01282777065787686
-0.1317720039947875
-0.572011861086847
0.5559510856351164
-0.5693146762084662
-0.006896549292436791
0.1029135489944889
-0.001766026819266013
0.01678965525774807
-0.1678209393321497
-0.3366239822359203
0.2335268642760816
-0.05456399845719023
0.03510322286160219
0.1317167914633863
0.1731130533427347
0.3364066865009303
0.2767428673817142
-0.2785088937574561
-0.06280120356186836
-0.1549420294943429
-0.2212782947157205
0.07486108610881875
-0.01100881801545
0.2141757843861396
-0.1973861286155974
-0.08628100860628286
0.1588342671017581
-0.3551027881839521
0.2087026433215057
-0.1923259030669971
0.08960755265393407
-0.479337480166834
0.1745567281413109
0.1698571311048178
-0.2561381366952413
0.07255888021772146
-0.1942811605906671
0.1767898508744494
0.01743830193360679
0.1413959657416835
-0.03954032269065711
0.06621082263113193
0.4667516926020018
0.02029708821122122
-0.07678022111114489
0.05558498984912998
0.1257451985697145
-0.2608271770753047
-0.2308796547000687
0.5597153825892327
0.1578239052937494
0.0787307543343829
0.07565078890358241
-0.03091505553269316
-0.009922982711246925
0.007743518491056712
-0.03279549057631728
0.1712282403958884
-0.1781247892071397
-0.05767871669279937
0.02218356958895317
-0.146746325304763
-0.0528851942924606
0.1495441257115356
0.2770867524508801
-0.03867681059227678
0.01689353657682761
-0.2557523692543431
-0.1312114948870559
0.2356560922624206
0.179111577142354
0.1298326732353691
0.02184988480568215
0.08909018400240221
0.05213733223285768
0.4530643752461126
0.01646410228217444
0.0970343707547982
0.04380431062634634
0.07162766808395703
-0.1154319798872062
-0.2421866511919341
-0.2009614562630683
-0.01989291470529977
-0.2022507306099388
0.275645288253526
)
;

boundaryField
{
    FrontBack
    {
        type            empty;
    }
    Top
    {
        type            calculated;
        value           uniform 0;
    }
    In
    {
        type            calculated;
        value           uniform -1;
    }
    Bottom
    {
        type            calculated;
        value           uniform 0;
    }
    Out
    {
        type            calculated;
        value           nonuniform List<scalar> 10(1.034716412099929 1.064363042528605 1.02152810776702 1.019165722561268 0.9966538021663248 1.015854162972534 1.035725643890767 1.062726744869365 0.8672487660881081 0.8820176913946006);
    }
    circle
    {
        type            calculated;
        value           uniform 0;
    }
}


// ************************************************************************* //
