/*--------------------------------*- C++ -*----------------------------------*\
| =========                 |                                                 |
| \\      /  F ield         | OpenFOAM: The Open Source CFD Toolbox           |
|  \\    /   O peration     | Version:  2412                                  |
|   \\  /    A nd           | Website:  www.openfoam.com                      |
|    \\/     M anipulation  |                                                 |
\*---------------------------------------------------------------------------*/
FoamFile
{
    version     2.0;
    format      ascii;
    arch        "LSB;label=32;scalar=64";
    class       volScalarField;
    location    "949";
    object      yPlus;
}
// * * * * * * * * * * * * * * * * * * * * * * * * * * * * * * * * * * * * * //

dimensions      [0 0 0 0 0 0 0];

internalField   uniform 0;

boundaryField
{
    FrontBack
    {
        type            empty;
    }
    Top
    {
        type            calculated;
        value           nonuniform List<scalar> 
15
(
142.2835823724921
133.5861851190974
138.0700499797948
144.4120883209603
159.7727541238979
131.3687250752715
140.1367365164922
135.3633660265912
153.4459677664889
135.7378975351664
136.0976154783797
136.768685418294
125.2605319809728
132.9097840812947
123.9503246148013
)
;
    }
    In
    {
        type            calculated;
        value           uniform 0;
    }
    Bottom
    {
        type            calculated;
        value           nonuniform List<scalar> 
15
(
155.5656645753661
158.1171692239271
141.0819989447041
142.0475916888659
141.1773172549932
148.426647569614
142.6979490837825
143.153168243202
143.4230328321417
134.0545892329712
125.7264297252301
141.5516162121637
122.4073258869715
123.4890613970645
124.1317788988194
)
;
    }
    Out
    {
        type            calculated;
        value           uniform 0;
    }
    circle
    {
        type            calculated;
        value           nonuniform List<scalar> 
32
(
56.27658066980344
22.26564216969944
65.32674484786699
23.55734275301423
19.21101842729938
56.13772872162185
56.7748467861941
23.9865760084733
22.40028573531154
65.55641613712142
40.0738432198328
63.03996979261105
50.3673023951098
14.44304632767654
23.6775469246613
18.21048729201854
38.98977235051812
59.62002098325353
60.97889700109218
24.24556089348058
65.70251080566467
63.84444648092716
62.95652982971421
59.95245119678932
64.07580120930685
45.90633706092144
66.3514480557813
32.00242267596924
38.06066393859481
55.78872467377739
20.93479313543155
43.19468098966122
)
;
    }
}


// ************************************************************************* //
