/*--------------------------------*- C++ -*----------------------------------*\
| =========                 |                                                 |
| \\      /  F ield         | OpenFOAM: The Open Source CFD Toolbox           |
|  \\    /   O peration     | Version:  2412                                  |
|   \\  /    A nd           | Website:  www.openfoam.com                      |
|    \\/     M anipulation  |                                                 |
\*---------------------------------------------------------------------------*/
FoamFile
{
    version     2.0;
    format      ascii;
    arch        "LSB;label=32;scalar=64";
    class       volVectorField;
    location    "1853";
    object      U;
}
// * * * * * * * * * * * * * * * * * * * * * * * * * * * * * * * * * * * * * //

dimensions      [0 1 -1 0 0 0 0];

internalField   nonuniform List<vector> 
808
(
(0.7562471077315046 -0.0175006461572138 0)
(1.03129322787798 -0.01255301224973341 0)
(1.115211289633649 -0.003482554466858808 -1.804311986658692e-20)
(1.085119554350599 0.01260574914937051 0)
(1.364248587457218 0.01664332451673441 -3.921044292913834e-19)
(1.03867211178532 -0.009316329845624917 -7.152683130511622e-20)
(1.013474249854948 -0.02071068820683769 -2.320646880270777e-20)
(1.078615567952324 -0.005125134779679688 8.967658060086815e-21)
(1.25401005853973 -0.01885987989867203 6.378815225637387e-20)
(1.084437717597788 0.01020864061304654 0)
(1.013776049065186 -0.008988093851655032 0)
(1.306049627767123 -0.05181914584838077 -3.571212655138057e-19)
(1.085930629808414 -0.001712928002351089 2.032149663095701e-20)
(0.6750711219778802 0.006411955153152236 0)
(1.285826729085005 -0.114909491149134 0)
(1.081446693021227 0.0001461165258209522 -3.812786476470293e-20)
(1.232998735067318 -0.1468167232871747 -9.921357204942837e-20)
(1.074012771918546 6.950451141060153e-05 3.161504187702565e-20)
(0.993229994096997 0.005487201179129292 0)
(1.026403712305517 0.009298489740739381 0)
(1.039620655197457 -0.01068059657480819 0)
(0.9874482191991188 0.0443710062473624 0)
(1.051129495547291 -0.005999824119187745 5.498878486511332e-20)
(1.053331011031684 0.009007399675768628 0)
(0.9326459729254621 0.1972946267582065 4.614869982670397e-19)
(1.167535685907968 -0.08686231641622295 0)
(1.185568847868998 -0.01786739455342309 1.594692168198587e-19)
(1.077417928375237 0.009381065297044227 5.190643649446135e-20)
(1.08406703279857 0.002194922297610543 5.046948663078169e-21)
(1.071998783454037 0.03092130491770321 0)
(1.075596819041452 0.002621203985529303 -1.171950987040366e-20)
(1.032998336480122 0.00657253831220217 -1.97149480302631e-19)
(1.059835888910312 0.01489329167783517 -2.396341392955808e-20)
(1.089155240461662 0.00527861195978022 -2.927162420401164e-20)
(1.119451280287691 0.03889647272030382 0)
(0.7552046480313612 -0.1236066079999148 -4.534193096186064e-19)
(0.954518397265146 -0.005841977059130526 0)
(1.068967849993677 0.02242838886694226 0)
(1.068838651425927 0.007355229673363565 0)
(1.073598580625978 0.008978898723945701 -2.836580497090677e-20)
(1.091847073125253 0.02416328671316669 1.120048628692424e-19)
(1.150238336904809 0.004120152433527138 2.195616372340302e-19)
(1.095892375221597 -0.002411088387419836 0)
(1.015929844732293 -0.008981448021987847 0)
(1.133406229163516 -0.0975289317466954 -1.650542816135744e-19)
(1.044099056198577 -0.0116304667259772 -7.893106016150693e-20)
(1.058331948215818 0.02664038276646697 -2.837654988994351e-20)
(1.231384285293595 -0.1114200635966082 -5.637512854996828e-20)
(1.067757966161724 0.01224567466748614 -4.271581255076749e-20)
(1.257026377784303 0.01903701451620498 0)
(0.9962964177740499 -0.01833733489566115 2.078520596894744e-21)
(1.044552754901573 -0.001957992626648078 0)
(1.087575061330591 -0.002226824250312493 0)
(0.9986240163772294 0.006558374272392899 -1.845960866972663e-20)
(1.25100523614206 0.03504137328806886 -2.311209416849118e-19)
(1.063815116835743 0.01830495661907973 6.162114946720587e-20)
(0.99092990330042 0.00833662557835475 0)
(1.020699327518479 -0.009910443027318624 2.354345399426045e-20)
(1.106993185379767 -8.633580841236254e-05 -1.206310969316041e-19)
(1.061482513164132 0.03100602337743175 0)
(-0.07400982071436947 0.0004933930765681719 6.96158467132464e-20)
(1.154942897373133 -0.05122237133865378 -1.928531797109475e-19)
(1.005683188850017 -0.008286288647283528 -2.587331055445735e-20)
(1.183315316914614 0.06957294115029326 -1.236495737564343e-19)
(0.9984044591543402 -0.009808829842015754 2.987561176895158e-20)
(1.084106540655346 -0.005545491608206012 0)
(1.24431004432416 0.09982680290258156 0)
(0.6960369280130693 0.003206404856057101 -7.497365686208536e-20)
(0.9900598491063186 -0.01383487279006162 -3.112552513066091e-20)
(1.461287825166208 -0.01651411334036197 4.515327309724148e-19)
(1.060552022093256 0.007571784951772013 -6.81910481711356e-20)
(1.368320444287099 0.09962325548364727 2.936346393900814e-19)
(1.054716525015333 0.006859555563013274 -1.872287831466706e-22)
(1.081277826633463 -0.01393222367867698 -5.198699137237625e-22)
(1.165211655732474 -0.2360768075426441 0)
(1.021984243715565 -0.01434536319520121 0)
(1.017368715973413 0.01751635366021475 -3.153470574479023e-20)
(1.385274290662288 0.3493276430318411 4.141084589071827e-19)
(1.09697414314777 -0.04215459832055912 9.293152347421176e-20)
(1.045266947368788 0.2093757884771174 2.55785666153016e-19)
(1.126133003731923 -0.06166997421724722 1.147182030518306e-19)
(0.9220692645234378 0.005134404350627232 0)
(0.9754811526679766 0.01854786236807674 0)
(1.004141525839326 -0.04901782786231982 2.616523543550831e-21)
(1.010563895551226 -0.01290153617437783 7.423315802848698e-21)
(1.030078956592125 0.0259085124660753 1.408038972793219e-20)
(1.530724155721417 0.03784104155517037 3.289831078579772e-19)
(1.289062490836058 0.07230731865667402 5.457736509801286e-19)
(1.072419179477804 0.002968514908578724 -9.298803536656425e-20)
(1.200757404789764 -0.09355523323219284 0)
(1.033703580815028 0.001740034444905396 1.355314946193272e-19)
(1.163979671196209 0.02295675719806621 -3.24680281498478e-19)
(1.001430475212331 0.03227938259586089 0)
(0.9996271403231523 0.002028875638189175 0)
(1.044471165199891 -0.0001132596453668358 7.670423460920223e-20)
(1.208128723319765 0.1095305433481852 4.113071146029713e-19)
(1.011056335244707 0.006979793362781281 0)
(1.091742941037063 -0.07112445866332663 -1.050717937998294e-19)
(1.149324336387258 0.03806235534742843 0)
(1.209892580603314 0.0969755822286763 -1.944846272956157e-19)
(1.108018836307677 -0.02855735237783603 -7.616464679804604e-20)
(1.027464700548831 0.01157003824237229 0)
(1.085195971342345 -0.004668806227426573 0)
(1.0192780153363 0.02555007143883334 8.185341460023021e-20)
(1.072186893924839 0.05362923756036186 -9.367822783644274e-21)
(1.103801403412317 -0.004232980020943615 6.19570852678088e-20)
(1.110849441285223 -0.09692034423151843 1.531774036100268e-19)
(0.9606037580829127 0.001413976929291884 0)
(1.066352162090228 0.03119629571448263 3.877744550850326e-20)
(1.169010561043276 -0.07579237136438242 2.356859500336056e-19)
(1.051977991921541 0.04479297983629286 -2.927815829373646e-20)
(1.02248768077326 0.06718371515042805 3.763257236607339e-20)
(1.09056125504602 0.02611384524899074 0)
(1.013663565708693 0.01809016765559573 0)
(1.028997557568117 0.009440806705851497 7.917463777185907e-20)
(0.9487332775013374 -0.03369054816895556 0)
(1.053002097417904 -0.005709786932754471 -7.969960949599333e-21)
(1.342348641090684 0.06103323153937798 -1.600623318958907e-19)
(1.08003792347702 -0.01324459707884795 2.580608483909416e-20)
(0.7440178572016344 -0.001763761940625173 0)
(0.5472508443424127 0.1643931609239258 -8.2872362281355e-20)
(0.7060343721760272 -0.002544145442663874 0)
(0.6989901159421247 0.01465009072060015 0)
(1.077672458310902 0.003583657226067051 -6.846227722845425e-22)
(0.990636325838042 0.0145173305387793 0)
(1.278328671596391 0.1233360219564211 2.466421501265654e-19)
(1.012355259188092 -0.02783597247409937 -7.978708839176927e-21)
(1.042854647273024 0.02244851381449029 1.614078905829284e-21)
(1.058543538221186 -0.01172313074071452 0)
(1.12657251585029 -0.009178319647968768 -4.93845604931395e-20)
(1.259193415307663 0.1404831446479328 -2.23745413660208e-19)
(1.08919400697299 -0.01124697674677954 -8.504378957781936e-20)
(1.069672456706237 0.02611657049869807 -1.110375110064168e-19)
(1.040719022521376 0.04671665648741276 6.79692132646702e-20)
(1.022420726825929 -0.003718440205509431 -3.445320909082424e-20)
(1.061152612451476 0.02349664228898696 6.138880503466894e-21)
(1.129589082107759 -0.005399383036142624 1.073745851760277e-20)
(1.040519885213411 -0.01506611588087034 -4.756960301577867e-22)
(1.087679058707609 0.03479051497283561 0)
(1.028222593453227 0.01337007689847959 0)
(0.76844507709795 -0.05677984171093608 -1.828599242399119e-19)
(1.030143589313043 -0.00175587461527244 -6.981591736938195e-20)
(1.132670082809626 -0.005191724681994904 -1.302883100066667e-20)
(0.7034741025107154 0.006576028553871958 7.43625343417523e-20)
(1.175175275704517 0.02067812684712882 -1.902710514306305e-19)
(1.128548394206305 0.002084384012353913 5.441510372006626e-21)
(1.128977543913032 -0.01003304755941892 3.494830290001592e-20)
(1.000941299031629 -0.002940163360926903 -7.740637247930113e-20)
(1.098112416404975 -0.06902502990650325 0)
(0.9848204602203021 0.0004700716963237941 0)
(1.057964032651968 0.007087975333186307 0)
(1.005288352907744 0.187903705560252 -2.490098468774071e-19)
(0.7793424099708812 0.01240503586424253 0)
(0.8568413285813068 0.1005936703020367 -8.485769973715523e-20)
(0.07612980117654411 0.04103689931642428 -3.050554255109383e-19)
(1.173205461528068 -0.02960458619427518 -2.216148261248508e-20)
(0.6713295148929184 -0.007310420584766338 2.433391649712442e-20)
(1.170625522672038 -0.1036862457307294 6.946453845607334e-20)
(1.123601969343939 -0.006753055887529814 -5.96503330228169e-21)
(1.156047295238437 -0.04819973927349551 2.153560957284572e-20)
(0.1067446978174919 -0.2166494104030992 0)
(0.2564753563661247 0.09040138999947102 0)
(1.254162372278058 0.1141931811162913 1.944541071994465e-19)
(1.021398626691573 0.01980666844293997 0)
(0.7377717297588887 -0.006312113646639901 0)
(1.0753653491616 -0.01189188199957111 2.697650117452104e-20)
(0.9750014387223089 0.002778306485660479 0)
(1.289749264406537 0.1330147805132815 -1.577782162286142e-19)
(1.057486299293198 0.01125546864335378 0)
(0.9936223560145037 -0.007750659447436251 0)
(1.065067903555224 0.008175749056333097 0)
(1.006160112012691 0.0208081409231123 1.727417377573729e-20)
(0.9306518872300212 0.01328440241061514 1.060587246721875e-20)
(1.177368107261966 -0.1996692423821627 0)
(1.005176261171259 -0.005200305029500767 7.771186132851674e-20)
(1.059140078034784 0.006341101462225595 0)
(0.7746670111851478 -0.003304957833869186 0)
(1.216425829426933 0.02970832641399672 1.678974897537505e-20)
(0.7050007498280833 0.001323279327125947 0)
(1.436213454504251 0.09034012857944444 -5.356637437383023e-20)
(0.9943281774664414 -0.006944870187651239 1.702532839232146e-20)
(1.274174280693857 -0.0005123126387069701 -2.914456125372688e-19)
(1.059683778776999 0.008804159175415178 1.399236532027565e-19)
(1.000905444060779 -0.01360605331876914 0)
(1.218348590851662 -0.1480010061122219 2.034759505492339e-19)
(0.7331939039436733 0.01379208434837411 0)
(1.098344159517136 -0.005143146196734578 0)
(1.151158969144478 0.06827365340087273 2.045261165842489e-20)
(1.007097250107573 -0.007059252602357684 -3.022937770111906e-20)
(1.119623733970053 0.05200749556995415 -1.765608189908103e-19)
(0.1081056715743728 -0.08243961653803872 0)
(1.071928911462649 0.03780509652075387 0)
(0.6616634969901511 -0.002930229605299007 -6.886788255672249e-22)
(1.012144419575172 -0.01944643031223279 9.795591908255367e-20)
(1.06152815211766 0.0006786017197918366 0)
(1.079699210259673 -0.1247570955314741 3.727261794481269e-19)
(1.00273175873023 -0.006220780497402599 -3.48497948566126e-21)
(1.002284688160053 -0.005323929981910455 8.319777796503099e-22)
(1.093927765600351 -0.009331547182719854 0)
(1.020676356147713 0.02053349228249701 -6.232586214326416e-20)
(1.106618821024624 -0.001621728122285584 6.71669592022773e-22)
(1.074108265465091 -0.01132246822778051 6.566793472271369e-20)
(1.085829935994677 0.02237456943335853 0)
(1.331413578191316 0.1664410056979352 0)
(1.001998688657023 0.0001044237078730481 4.41659653681865e-20)
(1.322217130398378 -0.123838005619557 1.535747483133796e-19)
(0.05309968044961662 -0.1855290821741515 -2.568505841077129e-19)
(1.071342561702895 -0.005550541216607625 0)
(1.117743004182115 0.000198643299958517 1.218886047220952e-20)
(0.7269114605840524 0.01786069435140066 0)
(1.063079953585839 0.003772097898400644 0)
(0.871943785686719 0.1673431935398195 4.790941183875695e-19)
(1.268508634996073 0.1317229626308429 1.8856825871246e-19)
(0.6543115705188741 -0.003104620105913636 -6.294575291484043e-20)
(1.042002950035047 -0.004213019566395643 -6.736394167223161e-21)
(1.054814884497669 -0.0002919229973758869 6.641789725338754e-20)
(1.362779743803123 0.1260243614743167 6.831989225171361e-19)
(1.334302179789061 0.2526695088323276 0)
(1.060153381564986 0.0001338404551818541 0)
(0.9982708365443308 -0.00744734232983365 1.540615876994945e-20)
(0.9938010977150082 -0.01152929952776274 5.016704722014643e-21)
(1.382164438276203 0.2005158944221506 4.2321098809027e-19)
(0.6816841618236719 0.0005691938903647571 9.843308079027073e-20)
(1.005570280352803 -0.002067305073852769 -5.969231804458452e-20)
(1.098117072611401 0.01300991951261597 2.542255523526373e-20)
(0.6694751900761272 0.005009433021064495 0)
(1.066089612400987 -0.0120136224477988 0)
(1.001025075135225 0.1457070365691508 -1.208259732359783e-19)
(1.088115260831598 -0.007824720583465866 -2.436443912147206e-20)
(0.9821231225178613 -8.300640618908071e-06 3.278675418317081e-20)
(0.9912103505938197 0.006037907264606602 0)
(0.6383123447467445 -0.001110220278486818 0)
(0.9768503352097896 -0.001189523246174416 0)
(0.6421162620690002 -0.001501288491199843 2.696996073903133e-21)
(1.090348570298018 -0.0569150292291211 1.195571896913341e-19)
(1.113458643434787 -0.0003393616515160481 1.232214831318891e-21)
(0.9579566199132502 -0.0009190476599161032 3.912624589483064e-20)
(1.015744584239652 0.01024766735521303 1.677378528466418e-20)
(1.066093214510028 0.001993507129902887 -2.388544995954948e-21)
(0.6347128758303701 0.008862542219670665 -3.64595491460682e-20)
(1.002525771705274 0.009250091875574034 -9.296994358389771e-22)
(1.035272694034245 0.009587118365298958 5.180001901285573e-21)
(0.9877712761903266 -0.01250769525788464 0)
(0.6100154835497542 -0.0004954045187334308 0)
(1.068622294069388 0.02269380205643613 0)
(1.016821560920872 -0.01565787194789268 1.053512271796995e-20)
(1.023048432010544 -0.007547685882832159 0)
(0.9912248092708725 0.01452402623717214 -9.526413520480815e-21)
(1.011570012984779 0.002456744610331831 0)
(1.127060873010891 -0.003594894488543594 -1.159619551211578e-20)
(0.03975873274735903 -0.1419820054930694 -4.285991214540229e-20)
(1.036542285808882 -0.01692254220117748 -7.03140459980591e-22)
(1.042610451678694 0.004999586848213599 0)
(1.082625002057473 0.06511412234611856 8.421466027910882e-20)
(0.9690863280735369 -0.002220420439453814 3.113216478356654e-20)
(1.02063955240379 0.01693727522976817 -2.374815495447122e-20)
(1.001816878364664 0.0005901295728116231 2.501299342509062e-20)
(1.040653613047181 -0.005620054009219165 0)
(0.6409053462441197 -0.003998321035711791 0)
(1.025811040797543 0.02453600994527351 -7.219680684995772e-20)
(1.081414934187632 -0.002290390965179399 4.790007383161662e-20)
(1.016895978660904 0.003154368088309589 0)
(0.979408500567246 -0.003081180445567444 -1.937996348559944e-21)
(0.8738175078875601 0.02165895662523038 -1.154722957024791e-20)
(1.014022861484566 0.002765502032351248 -1.017026169798709e-20)
(1.026447581500623 0.004314326963638529 1.814954209895481e-20)
(0.9819443011169942 0.00385797819537951 0)
(1.002273163469551 0.01047130124443394 3.509387938108359e-20)
(1.107578376424364 -0.002011469873256998 0)
(0.9245390665218873 -0.0006315000635771454 -3.260256912487694e-20)
(0.9603033372995353 0.006059389167846799 0)
(0.9168693183931261 0.2116637346680747 5.20596451364333e-20)
(1.010745979025553 0.06678597894455718 0)
(0.9930081974403548 0.004051664968025271 -2.285251096384313e-20)
(1.055985684060982 -0.05428440801025632 -2.877931138686721e-20)
(0.9911655378862638 -4.775922923654172e-05 3.40561586955135e-20)
(1.012178617521117 0.004334922317879207 0)
(0.9779446410117137 -0.0002630465644324396 -3.175823600532351e-20)
(1.168410385210337 0.1013164158914744 -3.385330089752778e-19)
(1.069805976374192 -0.2650219955112921 0)
(0.9931996977398925 0.001613463213109043 -2.214926691436439e-20)
(0.9799667371335414 0.005132297309961768 5.058615643597189e-21)
(0.9632142331315655 0.005770425816906609 1.016037677119295e-21)
(0.7459274418025533 -0.001067583043972104 0)
(1.120362651435183 -0.08237038071119349 0)
(1.005660492857551 0.004190045424400474 -2.191401461901982e-20)
(0.9012785560610959 0.006114237749046355 -9.67967472733669e-21)
(0.8556885850799956 0.01682086105385034 3.999622807333937e-21)
(1.013260840854459 0.0003686956910442668 0)
(0.9493867729569561 0.00510581295862547 1.467595908841182e-20)
(1.005671771856405 -0.0002648344126779607 -2.310303258598782e-20)
(1.020371788486304 -0.0005039383079495214 -2.586499453418462e-20)
(1.113181403825364 -0.002194213721713784 -4.929496441760399e-21)
(1.118745794905053 0.0006606906486045833 0)
(1.014519779890543 -0.009297836516116898 0)
(1.020801488673097 0.003284581061045128 0)
(0.9448327797997904 0.0007913519117156091 -2.12806382292326e-20)
(1.017867654315941 0.01354655014926922 5.313935750337842e-20)
(1.080298035690599 0.001696135599149037 -2.211617186202197e-20)
(1.039628663826703 -0.002946439882374508 0)
(1.105938177763406 -0.005955323481876079 1.837309336779879e-21)
(0.9956897079089931 0.002688278022169374 -2.210348793846069e-20)
(0.9867677044672817 0.006636393597754877 0)
(1.011881777352957 0.003043643503197668 4.657695626270279e-20)
(1.367597654449128 -0.3145131979979625 -1.134360405825932e-18)
(1.122954144122217 -0.04381658819511861 -1.08032745074166e-19)
(0.9663780570411123 0.002679831631964269 4.736841093123199e-20)
(0.7761577851859194 0.01151499115562525 -3.130898620113094e-20)
(1.221183170776548 0.05390627438027953 0)
(1.224980734389762 -0.1335956857100612 -1.462122695707419e-19)
(1.078047596868508 0.005169011920088429 0)
(1.008561194094262 0.001667651370439382 2.239004938697951e-20)
(-0.1639731404884758 -0.1216653353219459 0)
(0.9939672353869913 -0.004647390542066174 0)
(1.012453818020272 -0.02317556965547133 4.627705832607341e-20)
(0.7062105637212983 -0.01945117013821248 0)
(1.096792812052643 -0.01484938394585704 2.121483528748652e-21)
(1.043971176298375 -0.01211070295918947 1.780440621981316e-20)
(0.6331378542630103 0.004143358980730386 0)
(1.449442147335541 -0.1222366327085875 0)
(0.9868420459074697 0.001322079481312524 -1.083253852331721e-20)
(1.06980062695899 -0.0149860425312841 0)
(1.037991907874605 0.0004005307177815108 2.155940436841635e-20)
(1.082924914921145 0.005887041856357606 0)
(1.009419164418401 0.005676019033141039 -1.038092877930364e-21)
(1.00590979124695 0.002950907379525473 0)
(1.013377401141252 -0.01340298013781548 4.778715514420608e-22)
(1.003533465617519 -0.02080652491224433 0)
(1.034298026970953 0.004783770163198153 1.714405685395655e-20)
(-0.1895604114067384 0.03287911008888616 2.632484705150266e-19)
(0.809015289416064 0.02595768678270051 5.276323014057285e-20)
(1.005751194079758 0.001914412810888464 0)
(1.132898389422331 0.02123892712801815 -1.193770442742193e-20)
(1.122604670834515 0.01863527802348579 8.449552973644615e-21)
(1.054369297999901 -0.01307238954450364 -1.274444025269015e-19)
(0.9987856591831126 0.01034851900476581 1.349953735413159e-21)
(1.077531957142152 0.006921025088721132 0)
(1.18566723488766 0.05395263848277796 0)
(0.8354598094843169 -0.07646916425157257 4.588641316002787e-19)
(1.099877812185372 -0.005893996252605864 0)
(1.032785028812101 0.007387807134850019 -7.381345927651858e-21)
(1.042567863581575 0.005160887869032936 6.123658934215656e-21)
(1.054427283566786 -0.06168401899646613 -7.518756262947681e-21)
(1.139912479839297 -0.0007464616168985413 1.661525406063091e-19)
(1.084747408685716 -0.008809196297760002 0)
(0.9948279818503295 0.001223587068137309 0)
(0.9959014015468743 -0.02503927891915431 -2.285462650690314e-21)
(0.9906228435700579 0.002685137085264138 0)
(1.03046063646738 -0.03883597704293015 6.35670770733327e-20)
(1.292952273682909 -0.09190901768478643 0)
(1.046075718309923 -0.01137483069399518 -1.854067321606946e-21)
(0.9861561412448226 0.01699377670850507 -8.445002307497066e-20)
(1.033921472763686 0.04077398256950578 -2.425877191745888e-21)
(-0.08682366849515187 0.148250743949838 -1.633504591537097e-19)
(-0.06552187480730129 -0.3024527967583001 -1.387692106683983e-19)
(0.8847591764104876 0.1401535606115925 0)
(0.2960068729115728 -0.01946271235046156 -3.289390814634865e-19)
(1.008525050951263 -0.007331696471467882 -1.619287525644786e-20)
(1.063841103469401 0.00264869229882595 -2.119161425682951e-20)
(0.9920196116190575 -0.0183969933576242 2.915863425089632e-20)
(1.020962380405271 -0.02975120115020139 2.524990474249733e-21)
(1.00909626513718 -0.03237155860199708 -6.525550295166112e-20)
(0.9887852224219355 0.004814898810337259 -3.465791117351148e-20)
(0.992905936744126 0.00471450023301748 0)
(1.025338227487285 -0.002116679551864686 -3.561710585024269e-21)
(1.939090337616457 -0.1553325510129429 1.079770511212463e-18)
(1.046195061560374 -0.004151250121861738 0)
(0.9952142672469546 0.008233342847161464 1.553466041088211e-20)
(1.002941041159643 -0.0001359642352690712 4.0761151261681e-20)
(1.163943527278264 0.1351298492937806 0)
(0.9975883335901626 -0.0002661395972696925 4.605771472690006e-21)
(0.9485195834916881 -0.002708407903435902 0)
(1.037837029519419 0.04177023384799558 0)
(1.307269411376704 0.167028631434559 2.353795200166866e-19)
(1.086649054827864 -0.00761903136125309 2.266308813337751e-20)
(1.018510631529381 0.03065095597717384 4.702322415740155e-20)
(1.087796626275475 -0.009757345289487594 -2.187489858240536e-20)
(1.046275221840206 -0.003142551763747958 -4.796227723085283e-21)
(-0.3841080418901565 -0.04752487031777929 0)
(0.9986630196450856 0.01456197581138903 0)
(0.1065258982417185 0.05772329438524113 -8.564546562151948e-20)
(1.007059925428207 0.02228835830782997 -4.167435907400704e-20)
(0.9933003268351461 -0.006139883121942583 0)
(1.00101056336346 0.005813937016440698 -5.05463265108307e-21)
(1.081607759769614 -0.04232235394753175 0)
(0.9953405052565435 -0.0166410109327462 -7.719830924296607e-21)
(1.094317785610795 -0.05835497570277111 0)
(1.444529823610127 0.1797052869558441 0)
(1.054362797663355 -0.01209406724518526 0)
(0.9902519027475958 -0.02304702541154379 -3.916500595776677e-20)
(0.9931560445321185 -0.04803375862768093 -2.455727548905768e-21)
(1.015855517042642 -0.01721218156709608 -1.690758756031787e-20)
(0.9973544598536573 0.01670181019940019 -5.69510930149109e-20)
(0.9952073881536123 0.0106278757926754 -1.513958473793529e-20)
(0.9937369191487264 -0.0279629584649784 0)
(1.003292551218527 0.02469936483539468 1.97217231983316e-20)
(1.053582978862267 -0.0446919345218609 0)
(1.11122147945045 -0.03550395793634127 2.649582030569038e-19)
(0.9957071367174458 0.0172287702633577 4.689167151897682e-20)
(0.6150996090207055 -0.008671208699847027 0)
(1.13370419622295 0.1396117268201786 -5.385333848490085e-21)
(0.8608608303704847 -0.1015824335944402 0)
(1.137952097790167 0.07335463419036543 -2.669752972312053e-19)
(1.317081496228117 -0.3889738478284585 1.304691583275068e-19)
(1.072318719772243 0.06051943703796668 -1.295283924869555e-20)
(1.009840145265154 -0.03180869872614724 0)
(0.9561612959970449 -0.216328198377109 0)
(0.4999020284012375 0.1424014060367227 0)
(1.014441967332834 0.00888971783660147 1.299420167423429e-21)
(0.686770623331098 -0.03006486279665349 0)
(0.9992121431231646 0.01812333134669559 3.58771292340126e-20)
(1.023477197842263 -0.005178668147121887 -2.808859389922731e-20)
(1.079068811203113 -0.00810728855845246 2.812360164707098e-21)
(1.040366629042969 -0.01336650817588184 3.351779960829494e-20)
(1.042356376746329 0.0114495161464313 0)
(1.064245956080471 0.02807439727341002 -9.622924549543922e-21)
(1.049796405921075 0.03486843580664365 -1.83908555586867e-20)
(0.9826640476921549 -0.02250065630861724 0)
(0.6249422608145251 0.005112930970671049 9.178735827878831e-20)
(0.8941587112136001 -0.005872737329315873 -8.853975313502149e-20)
(0.909378539854402 0.005334766076156174 1.444557036949254e-20)
(0.6295514969557554 -0.006393149429159143 1.404301094026189e-20)
(0.9787950566915137 0.001378625418106592 2.600507079118655e-20)
(1.004458511010418 -0.01748662327763197 -3.64008497754351e-20)
(0.973108293182145 -0.02856457133037274 -3.603803355545241e-20)
(1.085501193992158 0.001583790178786304 0)
(1.020060727060314 0.004436595230331522 1.02744226305268e-20)
(1.132390839963963 0.04907837302510226 1.29267482260091e-19)
(1.033059041239862 0.04023684693418719 0)
(1.022347553117834 0.002540237618343935 0)
(1.586090001931729 -0.1667930466494942 4.430777068580138e-19)
(1.04878356486976 -0.04365322315597377 0)
(1.016875637263767 0.007140439082769216 -3.824312893617877e-20)
(1.086811568636541 0.0003955581518838265 0)
(0.4802179406206715 -0.03299055928351621 0)
(-0.01160837172031004 0.02480947556803411 0)
(0.9905896279019056 -0.02444368236829401 1.211526805987739e-20)
(1.302081750698805 -0.09498349652708406 3.781350869672128e-19)
(1.035624510707884 0.03623843728942464 0)
(1.022245741662516 0.003354811624953759 -2.260018410957398e-20)
(0.9636539854967295 -0.1623074403611608 2.760312598522132e-21)
(1.254157359392843 0.07945792599483693 0)
(0.5969831213541652 0.7289729525184089 0)
(1.314101077545422 0.1521622802951808 1.122873890307386e-19)
(1.67978325682027 -0.02435319630596763 0)
(1.052040916287204 0.1064926674111692 0)
(0.7084302030599009 -0.02261162304524397 2.88617665547266e-21)
(1.05200504900275 0.04423470429830063 0)
(0.7367833779020677 0.1174537638245185 1.175862379546734e-19)
(0.9967616118777787 -0.01656187952632772 3.566121919886013e-19)
(1.034698240701043 -0.04246541586577107 2.784337192192233e-20)
(-0.3811035184857123 -0.001499348823735604 0)
(1.071923775523434 -0.01647973992245603 0)
(1.092297957370803 -0.005309353825489013 0)
(0.6491327707191636 -0.5047695619654502 -2.46199765228597e-19)
(0.9907454349833018 -0.001687620805907622 0)
(1.092199136921728 -0.02125011416003854 3.671549996558751e-22)
(1.187160004739133 0.1215168619105473 -1.978658550105979e-19)
(1.089867579852924 -0.04640206977564848 0)
(1.005766894682496 -0.02143498180257213 0)
(0.8015545922685442 -0.1785188017815794 -1.669095156621868e-19)
(0.8875277791721859 -0.1262732369047821 1.55831684604411e-19)
(1.02793195775789 0.01352343778844624 -2.272603238821358e-20)
(1.023105956721226 -0.009019985599959562 -4.663930512181458e-20)
(0.878901529871407 0.01507168943047287 -6.175897194275627e-24)
(1.507157617405788 -0.1931821072048276 0)
(1.304545773406733 0.1221228483113665 3.122666881897413e-20)
(1.245158051960789 -0.07345670461676142 -3.104925024827372e-21)
(1.09572747857112 -0.01842270790058754 -3.837029032644328e-20)
(1.039021156989873 -0.01100189708424513 2.406829544371804e-20)
(1.092837343573126 -0.03907634610232501 9.013287214577542e-20)
(1.031792383428809 0.01996906839641437 0)
(1.044646900527303 -0.03676474177874218 0)
(1.115944117114879 -0.008958661441994864 0)
(1.088337683117917 -0.03336631665762317 0)
(0.9979766165164483 0.01123597618943449 0)
(1.147351420692837 0.0790431286155442 9.570146935314362e-20)
(1.338653013343138 -0.1475639727398058 0)
(1.035503613769245 -0.02304558496033788 -1.936304445809072e-22)
(1.051497762507917 0.05012298702598262 0)
(1.010208106734939 0.0147012587172225 -3.992197157760321e-20)
(1.033935273342882 -0.007614917099853188 9.023073965548639e-21)
(1.088930250986297 0.01344136912652904 -3.287571660161272e-20)
(1.085547913499605 -0.02857023484194368 0)
(1.072834805878914 0.003784763824601407 0)
(1.109406498776954 0.09503743119973275 -1.430619094010821e-18)
(0.9356471428032298 -0.1504621293346124 -7.053750323086072e-20)
(1.167356171548081 0.1093533475397344 1.115999305439042e-19)
(-0.4860063619547121 0.009623246462472064 -2.913312022167827e-19)
(1.01863039571473 0.02849240106313426 -8.932744542520243e-20)
(1.003910201933323 0.001764878750923038 0)
(-0.2921300300765578 0.02760252957529968 3.554376930423122e-19)
(-0.04823237415543956 0.2950409799702742 7.963098959015268e-21)
(0.9952254622116253 -0.006263661544963749 9.995041086837602e-20)
(0.1904910304043021 -0.04070337843961126 1.422383176567732e-19)
(1.090689870544292 0.08013930672393972 1.473795850779347e-20)
(0.0942128428432901 -0.1110931106557323 -5.546859767060053e-20)
(1.108108571567664 0.002986721129027147 0)
(1.105382612874414 0.2594623083580687 0)
(1.02166554230706 0.02162907201101946 -1.748774138063321e-20)
(1.072641830524182 0.05199842077084042 0)
(1.027001786716836 0.02599449095722154 -9.435899818660664e-21)
(1.26458685309694 -0.5494323726473841 8.075048549571654e-19)
(-0.1137944467926371 -0.2039226871633007 2.222324597695789e-19)
(1.298216419945621 0.1190633313771907 -6.384321826954583e-19)
(1.121702796249906 -0.003613560538447514 0)
(1.124500945394973 0.09515014964570362 0)
(0.5299224511490485 0.0833584205422883 2.564977378992395e-19)
(1.023736386031948 -0.02073313883549281 9.254749529476347e-20)
(1.006279263275906 -0.02393334602104231 0)
(1.210338914471522 0.2706523100756425 -9.466654935948012e-20)
(1.263136332492195 0.1397983530212435 -1.619581691848176e-19)
(1.02666544854198 0.003185780118847951 1.519690839359213e-20)
(1.302436988594079 -0.08457953170119573 -5.037468467190214e-19)
(0.2912862692405724 -0.01310413438084586 2.617094480372191e-19)
(0.824247924197035 -0.1443411103475814 6.623662496883213e-19)
(1.046890181966562 0.0510543556360912 1.05762571691137e-19)
(1.039931831200884 -0.00341926297609919 1.857776229553655e-21)
(1.001546531257523 0.01973653551161277 3.013941083085018e-20)