/*--------------------------------*- C++ -*----------------------------------*\
| =========                 |                                                 |
| \\      /  F ield         | OpenFOAM: The Open Source CFD Toolbox           |
|  \\    /   O peration     | Version:  2412                                  |
|   \\  /    A nd           | Website:  www.openfoam.com                      |
|    \\/     M anipulation  |                                                 |
\*---------------------------------------------------------------------------*/
FoamFile
{
    version     2.0;
    format      ascii;
    arch        "LSB;label=32;scalar=64";
    class       volVectorField;
    location    "0.3";
    object      cellDisplacement;
}
// * * * * * * * * * * * * * * * * * * * * * * * * * * * * * * * * * * * * * //

dimensions      [0 1 0 0 0 0 0];

internalField   nonuniform List<vector> 
256
(
(-0.0103143 -0.000250818 0)
(-0.00997898 -0.00179247 0)
(-0.00894818 -0.00299821 0)
(-0.00764713 -0.0037467 0)
(-0.0060996 -0.00390425 0)
(-0.00445593 -0.00346994 0)
(-0.00293429 -0.00262722 0)
(-0.00143537 -0.00140463 0)
(-0.0304452 -0.00089628 0)
(-0.0294579 -0.00520026 0)
(-0.0269825 -0.00872854 0)
(-0.0233823 -0.0109787 0)
(-0.0191724 -0.0117205 0)
(-0.0148137 -0.0110354 0)
(-0.0104688 -0.00901304 0)
(-0.00630563 -0.00598435 0)
(-0.0494381 -0.00166306 0)
(-0.0479877 -0.00841207 0)
(-0.0442028 -0.0139735 0)
(-0.0389109 -0.0177482 0)
(-0.032639 -0.0193587 0)
(-0.0259429 -0.018761 0)
(-0.019373 -0.0162785 0)
(-0.0129166 -0.0120727 0)
(-0.0674295 -0.00254186 0)
(-0.065478 -0.0114312 0)
(-0.0608512 -0.0189039 0)
(-0.0541539 -0.0241451 0)
(-0.0462245 -0.0267488 0)
(-0.0378224 -0.0267269 0)
(-0.0293408 -0.0241829 0)
(-0.0210408 -0.0194513 0)
(-0.0845315 -0.00354832 0)
(-0.0822386 -0.0143769 0)
(-0.0768024 -0.0235479 0)
(-0.0691308 -0.0302672 0)
(-0.0600026 -0.0340544 0)
(-0.0501454 -0.0347761 0)
(-0.040272 -0.0327045 0)
(-0.0304905 -0.0279922 0)
(-0.100855 -0.00470061 0)
(-0.0981653 -0.017246 0)
(-0.0922666 -0.0280527 0)
(-0.0838092 -0.0362013 0)
(-0.0737305 -0.0412107 0)
(-0.0629216 -0.0430254 0)
(-0.0518927 -0.0416811 0)
(-0.0409935 -0.0374755 0)
(-0.116438 -0.00602728 0)
(-0.113511 -0.0201625 0)
(-0.107133 -0.0324355 0)
(-0.0981772 -0.0420131 0)
(-0.0875019 -0.0483884 0)
(-0.075885 -0.0513579 0)
(-0.0641026 -0.0511215 0)
(-0.0523738 -0.0478343 0)
(-0.1314 -0.00756214 0)
(-0.128167 -0.0231189 0)
(-0.121568 -0.0368333 0)
(-0.112242 -0.0477996 0)
(-0.101105 -0.0555284 0)
(-0.0890572 -0.059915 0)
(-0.0766758 -0.0609352 0)
(-0.0643492 -0.0588758 0)
(-0.145726 -0.00935118 0)
(-0.142328 -0.0262517 0)
(-0.135471 -0.0412587 0)
(-0.125961 -0.0536086 0)
(-0.114623 -0.0628099 0)
(-0.102209 -0.0686093 0)
(-0.0894848 -0.0711471 0)
(-0.0767826 -0.0706184 0)
(-0.15952 -0.0114735 0)
(-0.155871 -0.0295513 0)
(-0.148948 -0.0458516 0)
(-0.139347 -0.0595487 0)
(-0.127861 -0.0701735 0)
(-0.115319 -0.0775994 0)
(-0.102395 -0.0817644 0)
(-0.0894123 -0.082979 0)
(-0.172689 -0.0139843 0)
(-0.168912 -0.033189 0)
(-0.161894 -0.0506283 0)
(-0.152296 -0.0656499 0)
(-0.140837 -0.0778147 0)
(-0.12827 -0.0868658 0)
(-0.115209 -0.0928811 0)
(-0.102114 -0.0960177 0)
(-0.1853 -0.017034 0)
(-0.181307 -0.0371708 0)
(-0.174294 -0.0557453 0)
(-0.1648 -0.0720424 0)
(-0.153434 -0.085726 0)
(-0.140897 -0.0965691 0)
(-0.127823 -0.104512 0)
(-0.114528 -0.109784 0)
(-0.197139 -0.0207166 0)
(-0.193008 -0.0417138 0)
(-0.186054 -0.061224 0)
(-0.176682 -0.0788166 0)
(-0.16551 -0.0940219 0)
(-0.15303 -0.106726 0)
(-0.139873 -0.116751 0)
(-0.126319 -0.124306 0)
(-0.208085 -0.0252472 0)
(-0.203803 -0.0468494 0)
(-0.196895 -0.06726 0)
(-0.187759 -0.0859728 0)
(-0.176709 -0.10277 0)
(-0.164304 -0.117328 0)
(-0.150879 -0.129621 0)
(-0.13694 -0.139597 0)
(-0.217555 -0.0307979 0)
(-0.213071 -0.0527056 0)
(-0.206244 -0.073679 0)
(-0.197262 -0.0934247 0)
(-0.186408 -0.111655 0)
(-0.173927 -0.128188 0)
(-0.160171 -0.142842 0)
(-0.145356 -0.155591 0)
(-0.223975 -0.0368257 0)
(-0.219287 -0.0586017 0)
(-0.212487 -0.0798134 0)
(-0.20364 -0.100256 0)
(-0.192833 -0.119734 0)
(-0.180168 -0.138058 0)
(-0.165769 -0.155053 0)
(-0.149773 -0.170555 0)
(-0.00144984 -0.0013554 0)
(-0.00266431 -0.00264468 0)
(-0.0034971 -0.00390734 0)
(-0.00398599 -0.00529635 0)
(-0.00402105 -0.00669675 0)
(-0.00355766 -0.00798579 0)
(-0.00264388 -0.00915577 0)
(-0.0013259 -0.00997299 0)
(-0.00628483 -0.00598069 0)
(-0.00925108 -0.00951335 0)
(-0.0112749 -0.0132435 0)
(-0.0121584 -0.0170508 0)
(-0.0118286 -0.0208688 0)
(-0.0102293 -0.0245316 0)
(-0.0073999 -0.0276368 0)
(-0.00356004 -0.0297407 0)
(-0.0126496 -0.0121562 0)
(-0.0168255 -0.0177845 0)
(-0.019352 -0.0235122 0)
(-0.020203 -0.0294888 0)
(-0.0191825 -0.0354241 0)
(-0.0162259 -0.0409032 0)
(-0.0114922 -0.0454997 0)
(-0.00533154 -0.0485292 0)
(-0.020452 -0.0198756 0)
(-0.0251064 -0.0271492 0)
(-0.0277057 -0.0347373 0)
(-0.0280551 -0.0424731 0)
(-0.0260389 -0.0500834 0)
(-0.0216286 -0.0571319 0)
(-0.015013 -0.0628515 0)
(-0.00670314 -0.0665132 0)
(-0.0293628 -0.0288262 0)
(-0.0340408 -0.037633 0)
(-0.0361546 -0.0466518 0)
(-0.0356885 -0.0559186 0)
(-0.0324562 -0.0649597 0)
(-0.0264606 -0.0730936 0)
(-0.0180054 -0.0796118 0)
(-0.00770831 -0.0836639 0)
(-0.0392797 -0.0389951 0)
(-0.0433675 -0.0489377 0)
(-0.0446735 -0.0592895 0)
(-0.0430475 -0.0697352 0)
(-0.0383929 -0.0798033 0)
(-0.030764 -0.0888303 0)
(-0.0205103 -0.095875 0)
(-0.00836208 -0.100123 0)
(-0.0498676 -0.050078 0)
(-0.053031 -0.0611121 0)
(-0.0531035 -0.0724178 0)
(-0.0500903 -0.0838423 0)
(-0.0438671 -0.0947406 0)
(-0.0345384 -0.104267 0)
(-0.0225441 -0.111602 0)
(-0.00867276 -0.115909 0)
(-0.0610078 -0.0620878 0)
(-0.062785 -0.0738863 0)
(-0.0613926 -0.0860884 0)
(-0.0567516 -0.0981963 0)
(-0.0488285 -0.109568 0)
(-0.0377784 -0.119445 0)
(-0.0240912 -0.126872 0)
(-0.0086158 -0.131126 0)
(-0.0724259 -0.0748172 0)
(-0.0725551 -0.0873608 0)
(-0.0693826 -0.100119 0)
(-0.0629524 -0.112717 0)
(-0.0532329 -0.124419 0)
(-0.0404455 -0.134328 0)
(-0.0251265 -0.141664 0)
(-0.00816216 -0.145737 0)
(-0.084015 -0.0883461 0)
(-0.0821078 -0.101369 0)
(-0.0769716 -0.114594 0)
(-0.0685777 -0.127436 0)
(-0.0569952 -0.139144 0)
(-0.0424772 -0.148948 0)
(-0.0255965 -0.15604 0)
(-0.00725007 -0.159802 0)
(-0.0954688 -0.102602 0)
(-0.0913111 -0.116029 0)
(-0.0839476 -0.129456 0)
(-0.0734732 -0.142306 0)
(-0.0599842 -0.153861 0)
(-0.0437558 -0.163312 0)
(-0.0254089 -0.169984 0)
(-0.00581002 -0.173312 0)
(-0.106549 -0.117636 0)
(-0.0998541 -0.131314 0)
(-0.0900813 -0.144803 0)
(-0.0774328 -0.157427 0)
(-0.0619631 -0.168517 0)
(-0.0441188 -0.17739 0)
(-0.0244215 -0.183431 0)
(-0.00372814 -0.186222 0)
(-0.116786 -0.13348 0)
(-0.10727 -0.147336 0)
(-0.0949974 -0.160601 0)
(-0.0800136 -0.17272 0)
(-0.0626783 -0.183055 0)
(-0.0432704 -0.19107 0)
(-0.0224406 -0.196293 0)
(-0.000800577 -0.19845 0)
(-0.125446 -0.150219 0)
(-0.112945 -0.163968 0)
(-0.0979075 -0.176748 0)
(-0.080722 -0.187979 0)
(-0.0615713 -0.197237 0)
(-0.0408947 -0.204125 0)
(-0.0191254 -0.208361 0)
(0.00316385 -0.209748 0)
(-0.13147 -0.167665 0)
(-0.115648 -0.181006 0)
(-0.0979932 -0.192778 0)
(-0.0787376 -0.202698 0)
(-0.0581496 -0.210522 0)
(-0.0365311 -0.216049 0)
(-0.0142131 -0.219116 0)
(0.00841195 -0.219649 0)
(-0.132334 -0.184414 0)
(-0.113621 -0.196497 0)
(-0.0938141 -0.206687 0)
(-0.0731035 -0.214887 0)
(-0.0516888 -0.221018 0)
(-0.0297764 -0.22502 0)
(-0.00757716 -0.226855 0)
(0.014695 -0.226506 0)
)
;

boundaryField
{
    walls
    {
        type            cellMotion;
        value           uniform (0 0 0);
    }
    cylinder
    {
        type            cellMotion;
        value           nonuniform List<vector> 
16
(
(-0.223975 -0.0368257 0)
(-0.219287 -0.0586017 0)
(-0.212487 -0.0798134 0)
(-0.20364 -0.100256 0)
(-0.192833 -0.119734 0)
(-0.180168 -0.138058 0)
(-0.165769 -0.155053 0)
(-0.149773 -0.170555 0)
(-0.132334 -0.184414 0)
(-0.113621 -0.196497 0)
(-0.0938141 -0.206687 0)
(-0.0731035 -0.214887 0)
(-0.0516888 -0.221018 0)
(-0.0297764 -0.22502 0)
(-0.00757716 -0.226855 0)
(0.014695 -0.226506 0)
)
;
    }
    outlet
    {
        type            cellMotion;
        value           nonuniform List<vector> 0();
    }
    inlet
    {
        type            cellMotion;
        value           uniform (0 0 0);
    }
    frontAndBack
    {
        type            empty;
    }
    procBoundary2to0
    {
        type            processor;
        value           nonuniform List<vector> 
16
(
(0.000216326 -0.0102592 0)
(0.000808945 -0.0304128 0)
(0.00153314 -0.0494368 0)
(0.00239351 -0.0675044 0)
(0.00339116 -0.0846703 0)
(0.00455374 -0.10105 0)
(0.00590247 -0.116703 0)
(0.00747373 -0.131697 0)
(0.00931248 -0.146078 0)
(0.0114776 -0.159856 0)
(0.0140511 -0.173044 0)
(0.0171293 -0.185597 0)
(0.0208366 -0.197391 0)
(0.0253887 -0.208267 0)
(0.0308626 -0.217631 0)
(0.0368257 -0.223975 0)
)
;
    }
    procBoundary2to3
    {
        type            processor;
        value           nonuniform List<vector> 
16
(
(-0.00997444 0.00134023 0)
(-0.0295957 0.00358498 0)
(-0.0483912 0.0053821 0)
(-0.0662777 0.00677355 0)
(-0.0834328 0.00780379 0)
(-0.0998094 0.00848749 0)
(-0.115586 0.00882877 0)
(-0.13074 0.00880964 0)
(-0.14534 0.00838713 0)
(-0.159379 0.00750587 0)
(-0.172912 0.00608138 0)
(-0.185856 0.00399523 0)
(-0.198156 0.00106227 0)
(-0.20955 -0.00298223 0)
(-0.219564 -0.00831457 0)
(-0.226506 -0.014695 0)
)
;
    }
}


// ************************************************************************* //
