/*--------------------------------*- C++ -*----------------------------------*\
| =========                 |                                                 |
| \\      /  F ield         | OpenFOAM: The Open Source CFD Toolbox           |
|  \\    /   O peration     | Version:  2412                                  |
|   \\  /    A nd           | Website:  www.openfoam.com                      |
|    \\/     M anipulation  |                                                 |
\*---------------------------------------------------------------------------*/
FoamFile
{
    version     2.0;
    format      ascii;
    arch        "LSB;label=32;scalar=64";
    class       surfaceScalarField;
    location    "0.3";
    object      meshPhi;
}
// * * * * * * * * * * * * * * * * * * * * * * * * * * * * * * * * * * * * * //

dimensions      [0 3 -1 0 0 0 0];

internalField   nonuniform List<scalar> 
480
(
0.00470418
-0.000779831
0.00473941
0.00291435
0.0047445
0.00637631
0.00467312
0.00900192
0.00415406
0.00996384
0.00324095
0.00915387
0.00222819
0.00739777
0.00600985
0.0017812
0.0135535
-0.00154547
0.0137821
0.00501123
0.013852
0.0111165
0.0136174
0.0157554
0.0122197
0.0176809
0.00983387
0.0168135
0.00712518
0.0142978
0.012019
0.00589083
0.0214693
-0.00231896
0.0219998
0.0063823
0.0221996
0.0143924
0.021824
0.0205304
0.0199118
0.0234704
0.0166944
0.0231317
0.0129101
0.0205575
0.017872
0.0111509
0.0286888
-0.00300803
0.0294768
0.00720313
0.0298094
0.0165026
0.0293694
0.023706
0.0273064
0.0276006
0.0238184
0.028095
0.0195225
0.0259806
0.0234341
0.0176398
0.035419
-0.00360746
0.0363695
0.00757039
0.0368348
0.0176799
0.0364326
0.025626
0.0344941
0.0303677
0.0311769
0.031792
0.02691
0.0304443
0.0284104
0.0253242
0.0417474
-0.00401919
0.0427837
0.00762756
0.0433825
0.0180827
0.0431302
0.0264464
0.0415563
0.031877
0.0387689
0.0342153
0.0349699
0.0337761
0.0324082
0.0339526
0.0477221
-0.00428912
0.0488109
0.0074341
0.0495567
0.0178896
0.0495883
0.0264166
0.0486019
0.0323521
0.0465838
0.0354597
0.0434138
0.0357741
0.0349205
0.0429761
0.0534118
-0.0044621
0.0545471
0.0070178
0.0554878
0.0171823
0.0559595
0.0256262
0.0556902
0.0318218
0.0544092
0.03539
0.0518686
0.0362626
0.0359625
0.0520333
0.0588751
-0.00443798
0.0600711
0.00645608
0.0612969
0.016084
0.0622948
0.0241927
0.062617
0.030331
0.0619916
0.0341183
0.0602871
0.0355231
0.0358556
0.0612683
0.0641445
-0.00424132
0.0654574
0.00577345
0.0670218
0.0145864
0.0684303
0.0221021
0.0692943
0.0280067
0.0695049
0.0319902
0.0690254
0.0339509
0.0349703
0.0713367
0.0692321
-0.00377774
0.0706874
0.00508094
0.072511
0.0128549
0.0743383
0.0196096
0.0759843
0.0251672
0.0774051
0.0292138
0.0787444
0.0316354
0.0332058
0.0828507
0.0741633
-0.00291506
0.0757278
0.00453529
0.0778481
0.0110835
0.0803331
0.0168923
0.0831012
0.0218611
0.0862298
0.0257197
0.0897501
0.0282264
0.030012
0.0956141
0.0788585
-0.00178453
0.0806495
0.00398677
0.083272
0.00916682
0.0866754
0.0139056
0.0909181
0.0180362
0.0959821
0.021231
0.101564
0.0234482
0.0251976
0.109046
0.0833529
-0.000304266
0.0855018
0.00358842
0.0888687
0.00718429
0.0934259
0.0104812
0.0991759
0.013369
0.105947
0.0156726
0.113436
0.017404
0.0189014
0.122468
0.0873942
0.00129199
0.0899849
0.00313719
0.094201
0.00483752
0.0998968
0.00641261
0.10694
0.00783111
0.115154
0.00907151
0.124296
0.010105
0.0110247
0.134722
0.0886934
0.0919022
0.0968348
0.10331
0.11112
0.120034
0.129777
0.140274
0.00214315
-0.00391437
0.00289756
-0.00590621
0.00360794
-0.0081756
0.00390815
-0.00947355
0.00382788
-0.00940487
0.00373592
-0.00824133
0.00380179
-0.00636199
-0.00387275
0.00679701
-0.0088364
0.00896332
-0.0120919
0.0108031
-0.0156917
0.0116153
-0.0174866
0.0114871
-0.0171364
0.0112498
-0.0149771
0.0113781
-0.0114681
-0.00689757
0.0123777
-0.0145916
0.0154928
-0.0183977
0.0179738
-0.0224088
0.0191056
-0.0241896
0.0190215
-0.023373
0.018703
-0.0202788
0.0187963
-0.0154088
-0.0092052
0.0189341
-0.0206673
0.0224523
-0.0244534
0.0251308
-0.028243
0.0263657
-0.0295194
0.0263282
-0.0280938
0.0259579
-0.0242165
0.0259781
-0.0183044
-0.0109004
0.0264085
-0.0267507
0.0298511
-0.0301065
0.0323479
-0.0331719
0.0334872
-0.0337236
0.0334287
-0.031609
0.0329652
-0.0269887
0.0328551
-0.0202566
-0.012029
0.0345811
-0.0321379
0.0376099
-0.0348447
0.0396599
-0.0370156
0.0405205
-0.0366596
0.0403309
-0.0338255
0.039713
-0.0286384
0.0393661
-0.0213611
-0.0126079
0.0430062
-0.0361721
0.0455388
-0.0382629
0.0470391
-0.0395732
0.0475051
-0.0384097
0.04707
-0.0349376
0.0462424
-0.0292893
0.0456441
-0.0217112
-0.0127337
0.0514027
-0.0386264
0.0534381
-0.0400895
0.0544135
-0.0406864
0.0544269
-0.0388364
0.0536626
-0.0348391
0.0525874
-0.0289275
0.0518179
-0.0213076
-0.012423
0.0599184
-0.0396511
0.0613386
-0.0404927
0.0617234
-0.0403621
0.0612618
-0.0379652
0.0601242
-0.0336093
0.058766
-0.0276319
0.05784
-0.0202127
-0.0116827
0.06916
-0.0395924
0.0695466
-0.0397
0.0691326
-0.0387623
0.0680325
-0.0358573
0.0664382
-0.0313111
0.0647939
-0.0254688
0.063678
-0.0184663
-0.0105394
0.0794948
-0.0382738
0.0783517
-0.0376962
0.0767272
-0.0359406
0.0747333
-0.0326062
0.0725843
-0.0280421
0.0706346
-0.0225074
0.0693103
-0.0161206
-0.00902531
0.0907764
-0.0351707
0.0877664
-0.0340795
0.0846061
-0.0317459
0.0814931
-0.0282455
0.0786186
-0.0238644
0.0762567
-0.0188548
0.0746973
-0.0132761
-0.00714352
0.102591
-0.0297324
0.0976052
-0.0284096
0.0927663
-0.0259112
0.0883241
-0.022599
0.0845446
-0.0187547
0.081633
-0.0145373
0.0797511
-0.00994649
-0.00496707
0.114385
-0.0215162
0.107411
-0.0203304
0.100819
-0.018112
0.0949856
-0.0154595
0.0901773
-0.0125476
0.0865915
-0.00946401
0.0842904
-0.00618672
-0.00266642
0.125081
-0.0105232
0.116095
-0.00960354
0.107854
-0.00823928
0.100715
-0.00674597
0.0949236
-0.00517381
0.0906575
-0.00356304
0.0879696
-0.00190372
-0.0001504
0.128852
0.118285
0.108958
0.101116
0.094949
0.090575
0.088064
)
;

boundaryField
{
    walls
    {
        type            calculated;
        value           uniform 0;
    }
    cylinder
    {
        type            calculated;
        value           nonuniform List<scalar> 
16
(
1.96678e-11
-2.41519e-11
-8.01355e-12
1.45739e-11
-4.10463e-11
2.97338e-11
4.60446e-11
-2.33103e-11
2.33085e-11
-4.60437e-11
-2.9734e-11
4.10452e-11
-1.45759e-11
8.01165e-12
2.41502e-11
-1.96695e-11
)
;
    }
    outlet
    {
        type            calculated;
        value           nonuniform List<scalar> 0();
    }
    inlet
    {
        type            calculated;
        value           uniform 0;
    }
    frontAndBack
    {
        type            empty;
    }
    procBoundary2to0
    {
        type            processor;
        value           nonuniform List<scalar> 
16
(
0.00394221
0.0117211
0.0192165
0.0263897
0.0332133
0.0396488
0.0458232
0.0518681
0.0577468
0.0634198
0.0688941
0.0741349
0.0790374
0.08345
0.0870284
0.0874784
)
;
    }
    procBoundary2to3
    {
        type            processor;
        value           nonuniform List<scalar> 
16
(
-0.00422995
-0.0123676
-0.019989
-0.0272088
-0.0340433
-0.0404473
-0.0465162
-0.0523739
-0.057987
-0.0633591
-0.0685027
-0.0734654
-0.0781847
-0.0826347
-0.0865488
-0.0873561
)
;
    }
}


// ************************************************************************* //
