/*--------------------------------*- C++ -*----------------------------------*\
| =========                 |                                                 |
| \\      /  F ield         | OpenFOAM: The Open Source CFD Toolbox           |
|  \\    /   O peration     | Version:  2412                                  |
|   \\  /    A nd           | Website:  www.openfoam.com                      |
|    \\/     M anipulation  |                                                 |
\*---------------------------------------------------------------------------*/
FoamFile
{
    version     2.0;
    format      ascii;
    arch        "LSB;label=32;scalar=64";
    class       pointVectorField;
    location    "0.3";
    object      pointDisplacement;
}
// * * * * * * * * * * * * * * * * * * * * * * * * * * * * * * * * * * * * * //

dimensions      [0 1 0 0 0 0 0];

internalField   nonuniform List<vector> 
578
(
(0 0 0)
(0 0 0)
(0 0 0)
(0 0 0)
(0 0 0)
(0 0 0)
(0 0 0)
(0 0 0)
(0 0 0)
(-0.0201085 0.000950331 0)
(-0.020078 -0.0020368 0)
(-0.0188695 -0.00468906 0)
(-0.016762 -0.00662697 0)
(-0.0140895 -0.00760232 0)
(-0.0111413 -0.00754443 0)
(-0.00816462 -0.00654059 0)
(-0.00527511 -0.00475222 0)
(-0.00377171 -0.00358904 0)
(-0.0394919 0.00160631 0)
(-0.0393583 -0.00404471 0)
(-0.0371829 -0.00908611 0)
(-0.0333917 -0.0128692 0)
(-0.0285432 -0.0149657 0)
(-0.0231523 -0.015232 0)
(-0.0176543 -0.0137825 0)
(-0.0122644 -0.0108415 0)
(-0.00941672 -0.00893253 0)
(-0.0579064 0.0019906 0)
(-0.0576067 -0.00601394 0)
(-0.054653 -0.0131865 0)
(-0.0495509 -0.0187028 0)
(-0.0430003 -0.022013 0)
(-0.0356721 -0.0229134 0)
(-0.0281295 -0.0215007 0)
(-0.0206747 -0.0180083 0)
(-0.0166239 -0.0157547 0)
(-0.0754383 0.00212338 0)
(-0.0749403 -0.00797668 0)
(-0.0713633 -0.0170704 0)
(-0.0652549 -0.0242247 0)
(-0.0573971 -0.0288156 0)
(-0.0485654 -0.0305904 0)
(-0.0394099 -0.0296137 0)
(-0.0302993 -0.0260997 0)
(-0.0251856 -0.023891 0)
(-0.0921756 0.00201103 0)
(-0.0914661 -0.00997026 0)
(-0.0873871 -0.0208106 0)
(-0.0805213 -0.0295245 0)
(-0.0716872 -0.0354436 0)
(-0.0617189 -0.0382804 0)
(-0.0513249 -0.0380631 0)
(-0.0409302 -0.0349832 0)
(-0.0348767 -0.0331706 0)
(-0.108189 0.00164654 0)
(-0.107259 -0.0120366 0)
(-0.102786 -0.0244782 0)
(-0.0953642 -0.0346817 0)
(-0.0858234 -0.0419624 0)
(-0.0750286 -0.0460078 0)
(-0.0637197 -0.046813 0)
(-0.0523617 -0.044549 0)
(-0.0454765 -0.0434432 0)
(-0.123556 0.00101089 0)
(-0.122394 -0.0142202 0)
(-0.11761 -0.028141 0)
(-0.109796 -0.0397753 0)
(-0.0997742 -0.0484398 0)
(-0.0884065 -0.0538087 0)
(-0.0764497 -0.0558476 0)
(-0.0643978 -0.054712 0)
(-0.0567549 -0.054569 0)
(-0.138315 6.88294e-05 0)
(-0.136918 -0.0165735 0)
(-0.131897 -0.0318685 0)
(-0.123825 -0.044879 0)
(-0.1135 -0.0549428 0)
(-0.101767 -0.0617249 0)
(-0.0893764 -0.0651654 0)
(-0.0768461 -0.0654129 0)
(-0.0685086 -0.0664561 0)
(-0.152503 -0.00123546 0)
(-0.150873 -0.0191593 0)
(-0.145666 -0.0357306 0)
(-0.137445 -0.0500698 0)
(-0.126964 -0.0615397 0)
(-0.115021 -0.0698058 0)
(-0.102371 -0.0747916 0)
(-0.0895407 -0.0766434 0)
(-0.0805411 -0.0790548 0)
(-0.166136 -0.00297064 0)
(-0.164258 -0.0220518 0)
(-0.158917 -0.0398067 0)
(-0.150633 -0.0554214 0)
(-0.140099 -0.0682999 0)
(-0.128088 -0.0781189 0)
(-0.115316 -0.084787 0)
(-0.102304 -0.0884236 0)
(-0.0926523 -0.0923616 0)
(-0.179198 -0.0052388 0)
(-0.17706 -0.0253467 0)
(-0.171611 -0.0441845 0)
(-0.163331 -0.0610173 0)
(-0.152855 -0.0753099 0)
(-0.140874 -0.0867475 0)
(-0.128066 -0.0952134 0)
(-0.114938 -0.100808 0)
(-0.104585 -0.106398 0)
(-0.19162 -0.0081771 0)
(-0.189195 -0.0291608 0)
(-0.183673 -0.0489641 0)
(-0.175467 -0.0669569 0)
(-0.165118 -0.0826517 0)
(-0.153231 -0.095762 0)
(-0.14042 -0.106143 0)
(-0.127153 -0.113844 0)
(-0.115987 -0.121205 0)
(-0.203239 -0.0119754 0)
(-0.200514 -0.0336339 0)
(-0.194946 -0.054262 0)
(-0.186855 -0.0733173 0)
(-0.176674 -0.0903938 0)
(-0.164899 -0.10521 0)
(-0.152034 -0.117606 0)
(-0.138518 -0.12757 0)
(-0.126336 -0.136822 0)
(-0.213693 -0.016841 0)
(-0.210633 -0.0389028 0)
(-0.205008 -0.0601239 0)
(-0.197046 -0.0800825 0)
(-0.187042 -0.0984527 0)
(-0.175346 -0.114982 0)
(-0.162331 -0.129491 0)
(-0.14835 -0.141909 0)
(-0.134788 -0.153212 0)
(-0.221903 -0.0226658 0)
(-0.218475 -0.044737 0)
(-0.212775 -0.0662013 0)
(-0.204912 -0.0867924 0)
(-0.195041 -0.106265 0)
(-0.183341 -0.124405 0)
(-0.170018 -0.141031 0)
(-0.155279 -0.156005 0)
(-0.139734 -0.169535 0)
(-0.225784 -0.0258225 0)
(-0.222165 -0.0478289 0)
(-0.216408 -0.0693746 0)
(-0.208566 -0.0902522 0)
(-0.198715 -0.110261 0)
(-0.186951 -0.129207 0)
(-0.173386 -0.146909 0)
(-0.158152 -0.163197 0)
(-0.141394 -0.177912 0)
(0 0 0)
(0 0 0)
(0 0 0)
(0 0 0)
(0 0 0)
(0 0 0)
(0 0 0)
(0 0 0)
(0 0 0)
(-0.0201085 0.000950331 0)
(-0.020078 -0.0020368 0)
(-0.0188695 -0.00468906 0)
(-0.016762 -0.00662697 0)
(-0.0140895 -0.00760232 0)
(-0.0111413 -0.00754443 0)
(-0.00816462 -0.00654059 0)
(-0.00527511 -0.00475222 0)
(-0.00377171 -0.00358904 0)
(-0.0394919 0.00160631 0)
(-0.0393583 -0.00404471 0)
(-0.0371829 -0.00908611 0)
(-0.0333917 -0.0128692 0)
(-0.0285432 -0.0149657 0)
(-0.0231523 -0.015232 0)
(-0.0176543 -0.0137825 0)
(-0.0122644 -0.0108415 0)
(-0.00941672 -0.00893253 0)
(-0.0579064 0.0019906 0)
(-0.0576067 -0.00601394 0)
(-0.054653 -0.0131865 0)
(-0.0495509 -0.0187028 0)
(-0.0430003 -0.022013 0)
(-0.0356721 -0.0229134 0)
(-0.0281295 -0.0215007 0)
(-0.0206747 -0.0180083 0)
(-0.0166239 -0.0157547 0)
(-0.0754383 0.00212338 0)
(-0.0749403 -0.00797668 0)
(-0.0713633 -0.0170704 0)
(-0.0652549 -0.0242247 0)
(-0.0573971 -0.0288156 0)
(-0.0485654 -0.0305904 0)
(-0.0394099 -0.0296137 0)
(-0.0302993 -0.0260997 0)
(-0.0251856 -0.023891 0)
(-0.0921756 0.00201103 0)
(-0.0914661 -0.00997026 0)
(-0.0873871 -0.0208106 0)
(-0.0805213 -0.0295245 0)
(-0.0716872 -0.0354436 0)
(-0.0617189 -0.0382804 0)
(-0.0513249 -0.0380631 0)
(-0.0409302 -0.0349832 0)
(-0.0348767 -0.0331706 0)
(-0.108189 0.00164654 0)
(-0.107259 -0.0120366 0)
(-0.102786 -0.0244782 0)
(-0.0953642 -0.0346817 0)
(-0.0858234 -0.0419624 0)
(-0.0750286 -0.0460078 0)
(-0.0637197 -0.046813 0)
(-0.0523617 -0.044549 0)
(-0.0454765 -0.0434432 0)
(-0.123556 0.00101089 0)
(-0.122394 -0.0142202 0)
(-0.11761 -0.028141 0)
(-0.109796 -0.0397753 0)
(-0.0997742 -0.0484398 0)
(-0.0884065 -0.0538087 0)
(-0.0764497 -0.0558476 0)
(-0.0643978 -0.054712 0)
(-0.0567549 -0.054569 0)
(-0.138315 6.88294e-05 0)
(-0.136918 -0.0165735 0)
(-0.131897 -0.0318685 0)
(-0.123825 -0.044879 0)
(-0.1135 -0.0549428 0)
(-0.101767 -0.0617249 0)
(-0.0893764 -0.0651654 0)
(-0.0768461 -0.0654129 0)
(-0.0685086 -0.0664561 0)
(-0.152503 -0.00123546 0)
(-0.150873 -0.0191593 0)
(-0.145666 -0.0357306 0)
(-0.137445 -0.0500698 0)
(-0.126964 -0.0615397 0)
(-0.115021 -0.0698058 0)
(-0.102371 -0.0747916 0)
(-0.0895407 -0.0766434 0)
(-0.0805411 -0.0790548 0)
(-0.166136 -0.00297064 0)
(-0.164258 -0.0220518 0)
(-0.158917 -0.0398067 0)
(-0.150633 -0.0554214 0)
(-0.140099 -0.0682999 0)
(-0.128088 -0.0781189 0)
(-0.115316 -0.084787 0)
(-0.102304 -0.0884236 0)
(-0.0926523 -0.0923616 0)
(-0.179198 -0.0052388 0)
(-0.17706 -0.0253467 0)
(-0.171611 -0.0441845 0)
(-0.163331 -0.0610173 0)
(-0.152855 -0.0753099 0)
(-0.140874 -0.0867475 0)
(-0.128066 -0.0952134 0)
(-0.114938 -0.100808 0)
(-0.104585 -0.106398 0)
(-0.19162 -0.0081771 0)
(-0.189195 -0.0291608 0)
(-0.183673 -0.0489641 0)
(-0.175467 -0.0669569 0)
(-0.165118 -0.0826517 0)
(-0.153231 -0.095762 0)
(-0.14042 -0.106143 0)
(-0.127153 -0.113844 0)
(-0.115987 -0.121205 0)
(-0.203239 -0.0119754 0)
(-0.200514 -0.0336339 0)
(-0.194946 -0.054262 0)
(-0.186855 -0.0733173 0)
(-0.176674 -0.0903938 0)
(-0.164899 -0.10521 0)
(-0.152034 -0.117606 0)
(-0.138518 -0.12757 0)
(-0.126336 -0.136822 0)
(-0.213693 -0.016841 0)
(-0.210633 -0.0389028 0)
(-0.205008 -0.0601239 0)
(-0.197046 -0.0800825 0)
(-0.187042 -0.0984527 0)
(-0.175346 -0.114982 0)
(-0.162331 -0.129491 0)
(-0.14835 -0.141909 0)
(-0.134788 -0.153212 0)
(-0.221903 -0.0226658 0)
(-0.218475 -0.044737 0)
(-0.212775 -0.0662013 0)
(-0.204912 -0.0867924 0)
(-0.195041 -0.106265 0)
(-0.183341 -0.124405 0)
(-0.170018 -0.141031 0)
(-0.155279 -0.156005 0)
(-0.139734 -0.169535 0)
(-0.225784 -0.0258225 0)
(-0.222165 -0.0478289 0)
(-0.216408 -0.0693746 0)
(-0.208566 -0.0902522 0)
(-0.198715 -0.110261 0)
(-0.186951 -0.129207 0)
(-0.173386 -0.146909 0)
(-0.158152 -0.163197 0)
(-0.141394 -0.177912 0)
(0 0 0)
(0 0 0)
(0 0 0)
(0 0 0)
(0 0 0)
(0 0 0)
(0 0 0)
(0 0 0)
(-0.00490447 -0.00486089 0)
(-0.00667168 -0.00731785 0)
(-0.00773641 -0.0098708 0)
(-0.00801048 -0.0124796 0)
(-0.00742353 -0.0150275 0)
(-0.00597216 -0.0173414 0)
(-0.00374394 -0.0191473 0)
(-0.000970893 -0.0201228 0)
(-0.0112525 -0.0113509 0)
(-0.0141827 -0.016011 0)
(-0.0157573 -0.0208241 0)
(-0.0158561 -0.0257128 0)
(-0.0143805 -0.0304422 0)
(-0.0113495 -0.0346581 0)
(-0.00695528 -0.037872 0)
(-0.00164166 -0.0395541 0)
(-0.0187662 -0.0192403 0)
(-0.022258 -0.0257969 0)
(-0.0238419 -0.0325577 0)
(-0.0233834 -0.0393756 0)
(-0.0207817 -0.0458974 0)
(-0.0161007 -0.0516129 0)
(-0.00964229 -0.0558683 0)
(-0.00202989 -0.0580183 0)
(-0.0272527 -0.0283726 0)
(-0.0307665 -0.0365491 0)
(-0.031915 -0.0449528 0)
(-0.030573 -0.0533691 0)
(-0.0266578 -0.0613313 0)
(-0.0202858 -0.068189 0)
(-0.0118628 -0.0731792 0)
(-0.00215826 -0.0756083 0)
(-0.0365296 -0.0386042 0)
(-0.039575 -0.0481363 0)
(-0.0399059 -0.0579096 0)
(-0.0374091 -0.0676172 0)
(-0.0320286 -0.0766865 0)
(-0.0239421 -0.0843697 0)
(-0.0136502 -0.0898367 0)
(-0.0020318 -0.0923956 0)
(-0.0464049 -0.0497882 0)
(-0.0485613 -0.0604511 0)
(-0.0477432 -0.0713338 0)
(-0.0438612 -0.0820445 0)
(-0.0368992 -0.0919264 0)
(-0.0270944 -0.10016 0)
(-0.0150243 -0.105894 0)
(-0.00164412 -0.108463 0)
(-0.056693 -0.0618015 0)
(-0.0575949 -0.0733889 0)
(-0.0553484 -0.0851508 0)
(-0.0498947 -0.0966026 0)
(-0.0412599 -0.107021 0)
(-0.0297415 -0.115563 0)
(-0.0159816 -0.121393 0)
(-0.000976744 -0.123874 0)
(-0.0672131 -0.0745491 0)
(-0.0665452 -0.0868788 0)
(-0.0626322 -0.0992956 0)
(-0.05545 -0.111241 0)
(-0.0450763 -0.121956 0)
(-0.0318621 -0.130593 0)
(-0.0164982 -0.136364 0)
(4.05567e-06 -0.138673 0)
(-0.0777952 -0.0879864 0)
(-0.0752688 -0.100876 0)
(-0.0694817 -0.113733 0)
(-0.0604461 -0.125946 0)
(-0.0482907 -0.136726 0)
(-0.0334115 -0.14526 0)
(-0.016532 -0.150824 0)
(0.00134697 -0.15288 0)
(-0.0882427 -0.1021 0)
(-0.0835972 -0.115379 0)
(-0.0757508 -0.128465 0)
(-0.0647619 -0.140703 0)
(-0.050804 -0.151332 0)
(-0.034308 -0.159585 0)
(-0.0160135 -0.164797 0)
(0.00312007 -0.166514 0)
(-0.0983102 -0.11691 0)
(-0.0913083 -0.130418 0)
(-0.0812392 -0.143516 0)
(-0.0682152 -0.155544 0)
(-0.052454 -0.165785 0)
(-0.034423 -0.173542 0)
(-0.0148382 -0.178248 0)
(0.00541388 -0.179553 0)
(-0.107626 -0.132457 0)
(-0.0980568 -0.146032 0)
(-0.0856337 -0.158905 0)
(-0.0705205 -0.170446 0)
(-0.0530039 -0.180023 0)
(-0.0335576 -0.187058 0)
(-0.0128428 -0.191108 0)
(0.00836308 -0.191923 0)
(-0.115618 -0.148767 0)
(-0.103282 -0.162181 0)
(-0.088408 -0.17453 0)
(-0.0712415 -0.185264 0)
(-0.0520968 -0.193885 0)
(-0.0314257 -0.199973 0)
(-0.00979454 -0.203221 0)
(0.0121514 -0.20347 0)
(-0.121377 -0.165732 0)
(-0.106119 -0.178644 0)
(-0.0888326 -0.190068 0)
(-0.0697855 -0.199624 0)
(-0.0492764 -0.206995 0)
(-0.0276815 -0.211922 0)
(-0.00543286 -0.214225 0)
(0.0169622 -0.213828 0)
(-0.123257 -0.18242 0)
(-0.105255 -0.194265 0)
(-0.0858959 -0.204282 0)
(-0.0654033 -0.212296 0)
(-0.0440208 -0.218163 0)
(-0.0220108 -0.221768 0)
(0.000339954 -0.223036 0)
(0.0227063 -0.221943 0)
(-0.123275 -0.190915 0)
(-0.103968 -0.202079 0)
(-0.0836602 -0.211296 0)
(-0.0625468 -0.218479 0)
(-0.0408309 -0.223557 0)
(-0.0187218 -0.226483 0)
(0.00356752 -0.227228 0)
(0.0258225 -0.225784 0)
(0 0 0)
(0 0 0)
(0 0 0)
(0 0 0)
(0 0 0)
(0 0 0)
(0 0 0)
(0 0 0)
(-0.00490447 -0.00486089 0)
(-0.00667168 -0.00731785 0)
(-0.00773641 -0.0098708 0)
(-0.00801048 -0.0124796 0)
(-0.00742353 -0.0150275 0)
(-0.00597216 -0.0173414 0)
(-0.00374394 -0.0191473 0)
(-0.000970893 -0.0201228 0)
(-0.0112525 -0.0113509 0)
(-0.0141827 -0.016011 0)
(-0.0157573 -0.0208241 0)
(-0.0158561 -0.0257128 0)
(-0.0143805 -0.0304422 0)
(-0.0113495 -0.0346581 0)
(-0.00695528 -0.037872 0)
(-0.00164166 -0.0395541 0)
(-0.0187662 -0.0192403 0)
(-0.022258 -0.0257969 0)
(-0.0238419 -0.0325577 0)
(-0.0233834 -0.0393756 0)
(-0.0207817 -0.0458974 0)
(-0.0161007 -0.0516129 0)
(-0.00964229 -0.0558683 0)
(-0.00202989 -0.0580183 0)
(-0.0272527 -0.0283726 0)
(-0.0307665 -0.0365491 0)
(-0.031915 -0.0449528 0)
(-0.030573 -0.0533691 0)
(-0.0266578 -0.0613313 0)
(-0.0202858 -0.068189 0)
(-0.0118628 -0.0731792 0)
(-0.00215826 -0.0756083 0)
(-0.0365296 -0.0386042 0)
(-0.039575 -0.0481363 0)
(-0.0399059 -0.0579096 0)
(-0.0374091 -0.0676172 0)
(-0.0320286 -0.0766865 0)
(-0.0239421 -0.0843697 0)
(-0.0136502 -0.0898367 0)
(-0.0020318 -0.0923956 0)
(-0.0464049 -0.0497882 0)
(-0.0485613 -0.0604511 0)
(-0.0477432 -0.0713338 0)
(-0.0438612 -0.0820445 0)
(-0.0368992 -0.0919264 0)
(-0.0270944 -0.10016 0)
(-0.0150243 -0.105894 0)
(-0.00164412 -0.108463 0)
(-0.056693 -0.0618015 0)
(-0.0575949 -0.0733889 0)
(-0.0553484 -0.0851508 0)
(-0.0498947 -0.0966026 0)
(-0.0412599 -0.107021 0)
(-0.0297415 -0.115563 0)
(-0.0159816 -0.121393 0)
(-0.000976744 -0.123874 0)
(-0.0672131 -0.0745491 0)
(-0.0665452 -0.0868788 0)
(-0.0626322 -0.0992956 0)
(-0.05545 -0.111241 0)
(-0.0450763 -0.121956 0)
(-0.0318621 -0.130593 0)
(-0.0164982 -0.136364 0)
(4.05567e-06 -0.138673 0)
(-0.0777952 -0.0879864 0)
(-0.0752688 -0.100876 0)
(-0.0694817 -0.113733 0)
(-0.0604461 -0.125946 0)
(-0.0482907 -0.136726 0)
(-0.0334115 -0.14526 0)
(-0.016532 -0.150824 0)
(0.00134697 -0.15288 0)
(-0.0882427 -0.1021 0)
(-0.0835972 -0.115379 0)
(-0.0757508 -0.128465 0)
(-0.0647619 -0.140703 0)
(-0.050804 -0.151332 0)
(-0.034308 -0.159585 0)
(-0.0160135 -0.164797 0)
(0.00312007 -0.166514 0)
(-0.0983102 -0.11691 0)
(-0.0913083 -0.130418 0)
(-0.0812392 -0.143516 0)
(-0.0682152 -0.155544 0)
(-0.052454 -0.165785 0)
(-0.034423 -0.173542 0)
(-0.0148382 -0.178248 0)
(0.00541388 -0.179553 0)
(-0.107626 -0.132457 0)
(-0.0980568 -0.146032 0)
(-0.0856337 -0.158905 0)
(-0.0705205 -0.170446 0)
(-0.0530039 -0.180023 0)
(-0.0335576 -0.187058 0)
(-0.0128428 -0.191108 0)
(0.00836308 -0.191923 0)
(-0.115618 -0.148767 0)
(-0.103282 -0.162181 0)
(-0.088408 -0.17453 0)
(-0.0712415 -0.185264 0)
(-0.0520968 -0.193885 0)
(-0.0314257 -0.199973 0)
(-0.00979454 -0.203221 0)
(0.0121514 -0.20347 0)
(-0.121377 -0.165732 0)
(-0.106119 -0.178644 0)
(-0.0888326 -0.190068 0)
(-0.0697855 -0.199624 0)
(-0.0492764 -0.206995 0)
(-0.0276815 -0.211922 0)
(-0.00543286 -0.214225 0)
(0.0169622 -0.213828 0)
(-0.123257 -0.18242 0)
(-0.105255 -0.194265 0)
(-0.0858959 -0.204282 0)
(-0.0654033 -0.212296 0)
(-0.0440208 -0.218163 0)
(-0.0220108 -0.221768 0)
(0.000339954 -0.223036 0)
(0.0227063 -0.221943 0)
(-0.123275 -0.190915 0)
(-0.103968 -0.202079 0)
(-0.0836602 -0.211296 0)
(-0.0625468 -0.218479 0)
(-0.0408309 -0.223557 0)
(-0.0187218 -0.226483 0)
(0.00356752 -0.227228 0)
(0.0258225 -0.225784 0)
)
;

boundaryField
{
    walls
    {
        type            fixedValue;
        value           uniform (0 0 0);
    }
    cylinder
    {
        type            solidBodyMotionDisplacement;
        value           nonuniform List<vector> 
34
(
(-0.225784 -0.0258225 0)
(-0.225784 -0.0258225 0)
(-0.222165 -0.0478289 0)
(-0.222165 -0.0478289 0)
(-0.216408 -0.0693746 0)
(-0.216408 -0.0693746 0)
(-0.208566 -0.0902522 0)
(-0.208566 -0.0902522 0)
(-0.198715 -0.110261 0)
(-0.198715 -0.110261 0)
(-0.186951 -0.129207 0)
(-0.186951 -0.129207 0)
(-0.173386 -0.146909 0)
(-0.173386 -0.146909 0)
(-0.158152 -0.163197 0)
(-0.158152 -0.163197 0)
(-0.141394 -0.177912 0)
(-0.141394 -0.177912 0)
(-0.123275 -0.190915 0)
(-0.123275 -0.190915 0)
(-0.103968 -0.202079 0)
(-0.103968 -0.202079 0)
(-0.0836602 -0.211296 0)
(-0.0836602 -0.211296 0)
(-0.0625468 -0.218479 0)
(-0.0625468 -0.218479 0)
(-0.0408309 -0.223557 0)
(-0.0408309 -0.223557 0)
(-0.0187218 -0.226483 0)
(-0.0187218 -0.226483 0)
(0.00356752 -0.227228 0)
(0.00356752 -0.227228 0)
(0.0258225 -0.225784 0)
(0.0258225 -0.225784 0)
)
;
        solidBodyMotionFunction oscillatingRotatingMotion;
        oscillatingRotatingMotionCoeffs
        {
            origin          ( 0 0 0 );
            axis            ( 0 0 1 );
            omega           1.5;
            amplitude       ( 0 0 30 );
        }
    }
    outlet
    {
        type            fixedValue;
        value           nonuniform List<vector> 0();
    }
    inlet
    {
        type            fixedValue;
        value           uniform (0 0 0);
    }
    frontAndBack
    {
        type            empty;
    }
    procBoundary2to0
    {
        type            processor;
    }
    procBoundary2to3
    {
        type            processor;
    }
}


// ************************************************************************* //
