/*--------------------------------*- C++ -*----------------------------------*\
| =========                 |                                                 |
| \\      /  F ield         | OpenFOAM: The Open Source CFD Toolbox           |
|  \\    /   O peration     | Version:  2412                                  |
|   \\  /    A nd           | Website:  www.openfoam.com                      |
|    \\/     M anipulation  |                                                 |
\*---------------------------------------------------------------------------*/
FoamFile
{
    version     2.0;
    format      ascii;
    arch        "LSB;label=32;scalar=64";
    class       surfaceScalarField;
    location    "359";
    object      phi;
}
// * * * * * * * * * * * * * * * * * * * * * * * * * * * * * * * * * * * * * //

dimensions      [0 3 -1 0 0 0 0];

oriented        oriented;

internalField   nonuniform List<scalar> 
1171
(
-0.9279227477172217
0.9279227475890246
0.7874454973364436
-1.099238736786351
0.3117932396501409
-0.1900324470684527
-0.7650789622867606
0.9551114095918061
0.07207725694880553
-0.116982157469519
-0.2123688772084851
0.3293510341479132
-0.7874454899366051
0.06947262026341225
0.717972869699308
0.811660944504202
-0.1779723532521799
-0.633688591261985
0.8742182500239627
-1.044217863426179
0.1699996135094929
-0.2854722292659962
-0.09754378979355592
0.3830160199960074
-0.03627271696267646
0.5489847021379266
-0.5127119853838258
-0.504413198557168
0.8248998890070527
-0.3204866907457671
-0.4024543916661109
1.045958765274074
-0.1717405240188418
0.3923808362086527
0.04909216774075149
-0.4414730055589214
1.045954338727968
4.422968804025575e-06
0.4433350838862313
-0.05095425820833827
1.056573264548666
-0.01061892577523572
0.5794983472387218
-0.7695307985749639
-0.7242392689136553
0.5566897385337254
0.1675495302380221
0.2166101075580265
-0.7210233072642636
0.5503382428663424
-0.9227640545855084
0.3724258098991314
-1.0941927784803
0.6865383803540268
0.4076543984665508
-0.5955808104383535
0.559308087594665
0.01769699127574811
-0.2563780933862525
0.2386810990520463
-0.02297886081670321
-0.5221083844804897
0.54508724675594
0.4004471058767593
-0.4979908923478472
-0.9189372784359147
0.9415770033773693
-0.02263972496617321
1.067581668204256
-0.01100840489524082
0.934856207598419
-1.116657727591909
0.1818015198891673
1.067034698659421
0.0005469710849649866
-0.6644557155031373
-0.05978356010674686
1.262326828100093
-0.8642482789705095
-0.3980785490973244
0.1480974201308868
-0.1096416134320381
-0.3261640703089171
0.4358056844604179
-0.2855804445895512
0.1915128207775491
0.09406762513423242
-0.5836704737394227
-0.5155682676416354
1.014031800833687
-0.07917558702099399
0.00990703893326274
0.8254810637769662
-0.8353881026805118
0.571811735480191
0.6905150970179778
0.4393430830388251
-0.03052791241192254
0.4309750171205243
-0.8079677247209203
-0.1025063854699967
0.910474110054729
0.5021010357324963
0.2538230698926326
-0.7559241057284859
0.006955892424215053
0.5275582732200055
-0.5345141660626466
-0.4899476725084768
-0.6042450989765031
-0.422765569834621
-0.6938921521624587
-0.02706458337169204
0.2703499557716522
-0.2432853705787216
-0.9247021791129553
-0.005066191595651782
0.9297683707622764
0.3087453744761028
0.07427064884602833
0.7617870336925366
0.04987390494753344
-0.5330907068530276
-0.06249010612339351
0.04604530676270793
-0.8540130299911116
0.07515144135081181
0.8634752869193937
-0.9386267283027185
-0.346865102984401
-0.04129189945662998
0.3881570021019337
-0.6820399080699194
-0.2426622681363575
-0.6338038454542655
0.7089552866670903
0.6135574059734676
0.2113424803816355
-0.5432399048511343
0.9456611539535779
-0.7790321252827083
-0.1666290286909125
0.01358155229126217
-0.01296363288384655
-0.0006179232280519563
-0.4033881671857698
-0.09460272835280326
-0.2408049296653795
0.854362335859165
0.04734449784164514
0.3351942158812084
-0.3825387128233543
-0.4608625142359278
0.9629635431071952
0.6804037447977992
-0.7829101271404219
0.3204672862209655
-0.01710912303964068
-0.3033581658280608
0.9307358411640756
-0.9307358411388413
-0.7813492104329152
0.1106465348683677
-0.3230154146776953
-0.7499464504695458
0.7598534941802894
-0.09011327181170989
-0.1434308191316132
0.2335440918859041
0.8649584428205993
-0.03947737423641413
1.054283228389091
-0.8004601637716148
0.1864543483363654
-0.3159493548433783
0.1294950064891087
0.8588642991427281
-0.09707726708700373
-0.6115617698420548
-0.03898663879556895
0.6505484086577652
0.123545574657861
-0.2307598974401043
0.1072143200819957
0.8056470037823389
-0.9836193616151291
-0.434871150091333
0.3294145812024455
0.1054565682233535
0.5323756756254698
-0.5553545411195587
1.021916344045347
-0.4561871065254897
-0.5657292375683066
0.5991507835006223
-0.7193745179769699
0.06675256934925615
0.6526219496222804
0.1029401841356743
0.5697428483592061
0.05538541295495177
-0.6251282615652485
0.1943069668544479
-0.08366042620178629
-0.4926174597189772
0.1457523579251628
0.05024145014058179
-0.8865376491688389
0.836296198940996
-0.4730162246637151
-0.713319305911305
0.04886358858741872
0.4372872143154195
-0.006312204768470185
0.2999049261836815
-0.8552463129679404
0.5553413861454747
0.4157417241314864
0.5842582758151083
0.5604644861060647
-0.514419175736455
-0.3678118014241322
0.03753832160803071
0.3302734843391097
0.6813205099202355
0.2494153353212661
-0.5659928153966323
0.5729487053217216
0.1111231434369358
0.8751196171086346
0.01016135707769918
-0.6217231211323745
-0.7491350719771314
0.7993765212518825
0.5307562129717766
0.06982731889668597
0.3020562246818881
-0.3718835438302764
-0.1674746429530501
0.4435343503535781
0.08402392056642519
0.8757465230928586
-0.8035439376987985
-0.07220258563039408
0.63528396440784
0.3103771927201039
-0.4304527522078462
0.5739315967782858
-0.5041042788332516
0.4171741528878615
0.1331640884171465
-0.04675594359021332
-0.594121745583727
-0.137826866219194
0.7319486118924412
-0.1497835291001603
-0.7809523100166668
-0.6109837877178147
0.3605119714398771
0.2504718186545595
0.6219784360712065
-0.6118170825687417
0.239237754281741
1.01129408845429
0.04298913604512761
-0.7491350666934027
0.2344448488367965
-0.2208633079884938
0.6804037413033052
0.8017685730517538
-0.8017685729938835
0.8376740593357093
-0.833163535417055
-0.00451052410227875
-0.4453701422446622
0.8611118691698418
-0.1473228307351683
-0.3452946300152758
0.7347225531946785
-0.668504661874619
-0.06621789114932265
-0.7344576851460924
0.1403359455599189
0.1388865986038085
-0.6719773075655787
0.7829101175756374
-0.9503847603862764
-0.368539114530242
0.2911022954174649
0.07743681932466018
0.1458639810598541
-1.009965537719018
0.86410155659189
0.4812888764822848
-0.04194579327376877
-0.3081290682192591
0.5864003851365364
-0.2782713171633984
-0.7385441550127406
0.8844081256046197
-0.1570536864070256
0.7314190119944245
-0.8435224616923817
0.1121034492608592
0.9760641399522474
-0.5398802273487397
-0.4361839125507791
0.7550126359912352
-0.06503338837510045
-0.03201632049095055
0.1852621406645467
-0.1532458183577842
-0.7758094150607016
-0.8422204732227122
0.07714150837751252
-0.7499464467196707
0.5136509379329199
-0.5549428327166184
0.09803297365897815
0.7188666326156777
-0.8168996065815101
0.7536455859184554
0.1742771764072702
0.5029157231695756
0.4970842768808817
-0.05063552468100709
-0.6120642368260667
0.6626997613738101
0.8841755292405173
-0.008429003831248026
-0.7550126360179797
0.7993765240114791
0.1913570908831522
-0.4477351782525037
0.01624071592066731
0.003509543914929632
-0.01975026802172553
0.5885090125318871
-0.4377582826530447
-0.1507507305890746
0.717972864680791
0.01057307366647354
-0.1108014617199862
0.4375352832339871
0.1509737316977706
-0.01637614870750702
-0.005958570869554612
0.02233471997675975
-0.03109462188631539
-0.0009217017328579092
0.2447520406903079
-0.261861166226875
-0.9588222549639286
0.001328533549315325
-0.1594457309313423
-0.1237870876822992
0.09438027488487373
0.7221586088817707
0.729011962502877
-0.1447536878533982
0.6728062662930835
-0.5747732880945944
-0.2117512704236388
0.3982056139310927
0.6955550366112877
0.02241782809350986
0.2417705131882882
-1.074934048399535
-0.9503847642271424
0.3024331668273653
0.7598534967737913
-0.2089974008004826
0.06556657738354373
-0.723487135249102
0.9111154178328885
-0.1876282827121799
0.4155624205643899
-0.02740541254928517
0.7712628121516685
0.2806254829305602
0.3744840019419833
0.06885108168075266
-0.6586992528135598
0.6586992528676892
0.2146171203742747
0.6958569919684737
-0.05601341982976698
0.391207642063777
0.3797922681837927
-0.01567895558601954
0.03191968766389776
0.4487188577169795
0.03257001978004709
-0.7385441619147453
0.5340388979477186
0.2006836523745456
0.3025406892378217
-0.1172785744731456
-0.6955550320252398
0.180116328123995
0.7309990824208783
-0.0101448863015286
-0.8136973097015712
0.8238421960735265
0.6963510387742469
-0.7920470813920023
0.09569604258508151
-0.7536455895571097
-0.1497847987494922
0.2112485557805663
-0.06146375489956363
0.07723594608083599
-0.1793379536588539
-0.1118571712965133
0.2911951238682253
-0.009721558800872197
-0.006654577795496866
0.7062840186718777
-0.7164289065536085
0.8860710268290303
0.06904037981771109
-0.309727728110916
-0.5229375782521243
0.8326653069486688
0.1027231944038762
-0.1027231985301344
0.3286406088888437
0.4790569199445991
0.6078754074705996
-1.086932327751831
-0.1941242718551598
-0.5855485198146662
0.7796727916505742
0.01219798417324172
0.2213460954428833
0.3766953405870346
-0.2531497572268572
1.014643816490975
-0.5355868973577977
0.666734043929041
0.9924426573862775
-0.3845672489718864
0.2293725072489231
0.8844081178124956
0.7126675927527044
0.2137930463157564
0.7277839575436665
-0.7809523074446225
0.34130075641486
-0.2836713825005071
0.257021319917955
0.02665006212597643
0.8520679787120288
-0.01122211412476759
-0.8408458650281384
-0.7020486680429302
0.7025956393876662
0.5546298604992391
-0.7020486675646881
-0.7126675927664499
0.7025956395037026
-0.03361714618022689
0.9054086635605175
-0.01933764049729345
-0.6813205093806651
0.6122549455526244
0.06906556382532503
0.5387652330352057
0.5385030994125736
-1.077268332436046
0.4891440888562807
0.5254997278380978
0.5475242246845518
0.4585094726656258
-1.006033697494247
0.4955255180452599
0.4969171388962217
0.6122549447313583
-0.52570020728774
-0.4664489959564134
-0.5557606036504618
-0.5157967514767784
-0.1246558231830632
-0.01272214713909221
0.01272214937117549
0.5096151443369442
0.5242081919243439
-1.04000494371321
0.5733549625244536
-0.2712987385097188
-0.8833013820857267
0.3434211545453588
-0.6326783510189344
0.3900160841106301
-0.0001577865194829699
-0.8284270948629363
0.8285848813710448
0.4208828912789439
-0.02358480890350576
0.8756527798144602
-0.9435315732854371
-0.8348865523698509
0.05743508115047573
0.7774514713100347
0.5505729548363638
-0.4364407825973208
-0.114132171924802
0.6500638167828154
-0.7292394014168765
0.8844059718532997
-0.8281571449750231
-0.05624882645432569
-0.01308210131335534
-0.7904618345913503
-0.1110106456098326
0.7155496774513475
-0.6045390318313806
-0.9406565992009448
0.9275744981539843
-0.7361957023857847
0.6886769534312546
0.0475187489677898
-0.8006667064617947
0.02827450431104025
0.7723922023723246
0.06177940955802376
0.04094379304259912
0.4330690188499878
0.05912559896034088
-0.8496549059782632
0.7905293066975126
-0.6446013956300142
0.5939658555285294
0.8900549432650383
0.07266953524781816
-0.962724478796413
0.05516839385144272
-0.04988471281758039
0.38015818473992
-0.3815746224489402
0.06562525900758658
0.8408076493106756
-0.8409654368503687
-0.7316263292582353
-0.8098137997851699
0.01935196577778881
-0.1685298984903966
-0.8480083821236096
0.01985123864662259
0.6240922540300782
0.04871401385754335
0.01712514088238721
0.5334478074819591
-0.8142509018697678
0.8425254026897743
0.565729231038677
-0.8520119072925512
-0.8679870608354681
0.03742160245746235
-0.03419212221771398
0.834465587334364
-0.8002734650701515
-0.01942350309434254
-0.7658184589789087
0.5442992213151803
0.1520518141660036
-0.02021467559454105
0.8958674542462983
0.9850095809731162
0.8606633088837141
-0.8408120701256288
0.1475389735009557
-0.1475389779318964
-0.1178192525517835
-0.4671373536825884
0.03069657179893722
0.2714155564684291
0.03101761114842275
0.385057073852372
0.8764439473316281
0.005781343509853462
-0.01550289392957072
0.6586047604652656
0.3413952395859135
0.7835411988604218
-0.5836704742025773
-0.7780423468524001
-0.811495592220955
-0.6799559146056917
0.6799559145965504
-0.1681051373366087
-0.1549102778745433
0.6017333253058256
-0.8113675394989909
0.2096342142306206
-0.4939445700938106
-0.5688650148827726
0.2780845692159856
-0.971976718644864
-0.8989882722170163
0.8427394467711418
-0.8199810769414082
0.839333041682529
0.6484910165889473
0.1345166397796645
-0.7830076563910884
-0.7639768467054533
-0.1462676227014856
0.7253169959317914
-0.5790493732100185
0.02254432318830693
-0.01323077194983869
0.01631351398581932
-0.003082739509165915
-0.352979172656615
-0.114158185627195
0.879817897674987
0.738060304470626
-0.2384269462876494
-0.4996333587355914
0.6239281364816714
0.6856014190170107
-0.4709842978255441
-0.0003778386131565196
-0.285202606215127
0.01541764471095303
0.7462831148512863
-0.7617007592708419
-0.3234856969180934
-0.07165269374065154
0.07589265642179138
-0.9660904939071334
0.1252446221740483
-0.6768508944431784
0.0540849742068105
0.6403599411341412
-0.6944449152649818
-0.7566550689157147
0.07980417442902481
0.5894701009688991
-0.6611227945162204
0.1561681039075987
-0.3355060525623912
-0.7724417512044203
0.008464904491236746
0.3711641916916324
0.6002865423195658
-0.02635494279287878
0.02225717468497927
-0.02225717858829461
-0.01868073148502276
-0.05275490040239048
-0.2309164822669631
0.02059301541386076
-0.0148116746944034
-0.7237277391921613
0.2794099325203894
0.6784090277843251
-0.6902338334445124
0.01182480608682724
-0.5971368522278567
0.6512218182087086
0.6543502381067581
-0.06488013903507522
-0.6311588663212484
-0.1254961973734871
-1.049705174006693
0.01124010932673125
0.1362988504585974
-0.7083100927072553
-0.7421694982867199
-0.7639139328464725
0.3658353877448865
-0.4074571541835805
0.4682650117606563
-0.06080785732570352
-0.6748614958022719
-0.03344859663516952
0.4996082790662208
0.7306820115060652
-0.2345367211837487
0.1107496374612153
0.9576255943929098
0.446086387116869
0.1325537277601294
-0.5786401149889173
-0.6776403268502921
0.002778833243735233
-0.04450972070357621
0.03127894484073338
0.6376291757365736
-0.7754560390855565
-0.002832306501663003
0.002832305264695978
-0.5999869471249394
0.6494870959461743
-0.04950014870702278
-0.6605151906421221
-0.1138501150152171
-0.6718261268513802
0.05286185400497291
0.6098379003226412
-0.1375868149430238
-0.8180937549691747
-0.56372776656917
0.5719065568117772
-0.008178788075932628
0.6317074482206505
-0.6198826452256854
0.3223011524672736
0.2137101484846892
-0.5360113009850246
-0.1045403207305031
-0.6028165302622071
-0.0916283900632154
-0.1539005480000708
-0.5108659273885547
0.4043533077238999
-0.4989560363461971
0.1259689315978373
0.6787313234031459
-0.8047002550327828
0.5991507834881378
-0.374907793018925
-0.03254936581569275
0.05939824730906241
-0.5702641774365422
0.55149304013072
-0.04031820292555592
-0.5111748377343245
-0.3126658658595108
0.3053078312338693
0.007358037664662899
0.450767163669913
0.1225878028781481
0.05153370267016569
-0.3161484497632258
0.1571328240801396
0.1590156262487308
0.2539881298670046
-0.01954328131416029
-0.2970784104729371
-0.3133863642515723
0.3611579645787342
-0.04777159209350656
0.7919786641764966
-0.6293422306094095
-0.0311729602299935
0.499524522041952
0.2849082441313452
-0.5233351921165845
0.5774420549965971
-0.5774420549964606
-0.2897900693986172
-0.5865197822544708
-0.2955198822950849
-0.5865197825437851
-0.5968890886356156
-0.8384795302136443
0.1699748653600697
-0.5986456567383885
0.8212270717257198
-0.003449800146627235
0.1190812344062464
0.4812053113173261
0.09673326740084209
0.1855160722101917
-0.0361626402419043
-0.149353430059985
-0.02673910888169895
0.5908938626195591
-0.9427980246286395
0.4198604469555594
-0.003608638515339473
-3.590684581535541e-05
0.003644545570088156
-0.6439295213281927
-0.1321044377842944
-0.4657973779438459
0.5983511114683746
-0.5035977204791606
-0.3147183191223184
-0.2555458518182016
-0.2723405429482815
-0.111688553333981
0.1116885552437592
0.1535261630427618
0.05772240695408155
0.1967561839472848
0.4487217346468826
-0.5698484061875251
0.1040510325144293
0.2534126658838754
0.4662521584550482
0.533747843076278
0.6454995553903509
0.08093039535891283
0.003219726462852137
-0.08415012295583417
-0.27702199071994
-0.5410717642457552
-0.5450906543583669
0.1145445437990008
-0.1264283993659971
0.01188385673144209
-0.1058499087403784
-0.3856128373888752
-0.04836269613849835
0.6582006021898131
-0.4993998693896965
-0.1445296518937058
-0.3276819495575861
0.2868617208495636
0.1274095911849092
-0.6082218820524348
-0.204267787230363
-0.2625139574339869
0.0006528083890079558
-0.4209797955791221
0.3220424945089542
0.09893730148395077
-0.08931585948936399
0.2916855277994071
-0.8959306242475098
-0.4575787317489358
0.6314614885519138
-0.7731116028015331
0.6685712821830613
0.3413229370531797
-0.125958591566558
0.2249595619032286
-0.09900097201681581
0.03133916422931742
-0.5861747349886414
0.02890699539694205
0.5572677390126453
-0.9006568723818617
0.5473919058768295
-0.6652111585432376
-0.1000585777722369
0.1090965933199402
-0.1090965994462507
-0.3165262831091795
0.3605410863348321
0.01961710307053991
0.02091775780250352
0.06001262301316912
0.5044012734397717
0.6670718799733254
-0.7392744639004702
0.02442729271980099
0.02041622124289512
0.001840962636697465
-0.006304549672341095
0.006304551841333072
-0.4102361928085739
0.5328239977812748
0.01554542065085919
-0.01554542039031276
-0.7925902594263962
-0.05996074621118826
0.1217401570396754
-0.4507565093646627
0.5548075431215836
0.4495494311673656
-0.4990495761761957
0.1499980085432485
-0.1499980122335889
0.04424047755762028
-0.01232078370122754
-0.04116785656040017
-0.9765805767859856
0.5403966639662077
-0.4710440483418727
0.04094379377523878
0.5149916431331394
0.03054732566083549
-0.54553896926118
-0.6162005896932801
0.1168007189871517
-0.3294490285201132
0.01358313058876393
0.3158658956075681
-0.1541789727172811
-0.08035775760158739
-0.5408876922012817
-0.04528704631784099
0.1362988528944086
-0.04139174250590495
0.03855943801679863
0.08170343388780743
-0.08170342755364618
-0.5307892301152387
0.4830176365193107
-0.4146841685020919
0.16130562484379
0.6222355741170501
-0.09743479707840602
-0.005943637697727018
0.005943638040861423
0.5330047345659215
-0.07477407477337586
0.006373403932926586
0.02720225936152535
0.03463924074739438
0.6894900136418946
-0.7642640885702986
-0.6628006494694489
0.631627680501896
-0.1105029481020808
0.3135083993808352
0.7456834918516905
-0.01868072853868708
-0.2656975778560189
0.1484190127078062
-0.7446317481467927
0.4839193838424337
-0.4240757511938635
-0.1012089524784386
0.003411533045701877
-0.01469043204586809
0.02381275707407798
0.412362290544471
-0.1216466417475125
-0.3895282005167627
0.6290939115535548
0.0190267109221839
0.00919742159133375
-0.009197422267351934
-0.3552906692769272
-0.0820674982030529
-0.5604497839523337
0.5569999834734206
-0.237815751052279
0.4647537405524083
-0.1505784969149147
0.730076844014114
0.670698044055606
-0.04139174267942357
-0.6162267288969251
0.5598965828358274
0.2826767114575521
-0.279117059853846
-0.003559649959650536
0.5423118220513512
0.09343613261532181
-0.03873961762495685
0.1967682255326506
-0.1580286069398515
0.1204430502510491
-0.1204430440117687
-0.8586550841030827
0.002459033634864832
-0.1130957549396815
0.1402980115154161
-0.131726097270867
0.13172609995844
0.02041621708022157
-0.02462436023857291
0.6709658327691227
0.06003324527273227
-0.3228967096285038
-0.06271612745275122
-0.4712936607136249
-0.04500523706813257
-0.1515368695376235
0.1515368733380729
-0.0399096373637684
0.1434614347580853
-0.1434614381085536
0.1366742047830866
-0.1366741998509496
-0.3159674936570757
-0.1144852584569521
0.2262783041074134
0.1031362811458575
0.03481288927555021
-0.8212200895336123
-0.1975475652927018
0.1700941510001228
0.02126294231678418
-0.2648116867237542
0.1260080249000176
-0.1260080278336412
-0.4142320234710887
-0.08472401690158063
0.2361012314084298
0.002579877379265386
0.04031168074649432
-0.5443220796374987
0.577939225897272
-0.02715785029470394
-0.01275178562566335
-0.02564149304555092
0.01332070319908776
0.006536601799640319
-0.1844854185415624
0.1779488165874083
-0.1076567816634138
-0.2278492725639428
-0.1445982069971319
0.1445982104159756
0.07261096555536439
-0.07261096382037061
-0.01915565403961692
-0.1086320223703253
0.1277876745185953
0.2359074770192205
-0.1831708661475576
-0.02134455537186037
0.02318549799589475
-0.1307738922325041
0.6137915266505147
-0.03907759849106721
0.4240336488353798
-0.04112960061517913
0.06346431918585484
-0.1533611119549604
0.1533611164415919
-0.6363041680821125
0.3084894144432923
-0.0791169094532161
-0.2344154368729669
0.003655551815391261
-0.122367840020528
0.1626795227293291
0.1941166934919306
0.0970784345791864
0.09491563555311779
-0.06027639453149773
0.07293438350016727
0.04161015467486
0.06404200612193862
0.1060521469916613
-0.0988300035379979
0.2095796571160475
0.01202973100120575
-0.1136416805648839
-0.1022379888468814
0.09690542270955839
0.005332562754723805
0.0112188003282152
-0.02210289853673549
0.0375181780427403
-0.03751817775038518
0.07440037696408416
-0.0551249121467037
0.05512491293540787
-0.2244417924957876
-0.0501773784448807
0.01172876324749902
-0.1031707378838743
0.01623113998638205
0.1086189240487556
-0.1086189259219746
0.2930539951958541
-0.2710721602920386
0.1634153742082491
-0.0504205645136244
-0.2206515965279357
-0.01709109704597218
0.0170910959869672
0.367411663135976
0.2852102909527146
-0.5277187693957247
-0.09394735402546309
-0.03248105028336571
0.5287172847624821
0.210265979609713
-0.1686191495229421
-0.3818016829100631
0.07659532361740135
-0.1474606952342674
0.1870777085927662
-0.03961701234780652
-0.06700874722906809
0.06700874591152409
0.8222788154610815
-0.5604115129532135
-0.002513534409361752
0.01373233452785794
-0.02003754015348317
-0.2870147130222602
-0.01745338393923913
-0.01287211425873443
-0.1319809860529528
-0.5721932518954815
0.5560176811912461
-0.5685847165316849
-0.006938666471109252
0.09930154084022338
-0.001824253865381128
0.01668691321368924
-0.1674982427648064
-0.3363979918866338
0.2332272535355347
-0.05424842209403909
0.03509276895691767
0.1320944745486885
0.1732133520638261
0.3400518381603883
0.2763125465816331
-0.2781368020738983
-0.06367855456381866
-0.154920243246515
-0.2208323152687485
0.07467551894399442
-0.01063350913937667
0.2138825573000786
-0.1971956452817235
-0.08622896202002252
0.1591633382830576
-0.3548745667056196
0.2084491770830422
-0.1922180369964226
0.08966945811583177
-0.4791976611178276
0.1742055840911304
0.1703521343506199
-0.2565810956468929
0.07281273835054197
-0.1945807656311523
0.1771273827130383
0.0173891235352913
0.1417742183444591
-0.03957949557953919
0.06605446321993233
0.4669502724707276
0.02042709219877397
-0.07991276472325907
0.05634041549702604
0.1256075846518145
-0.2604493302872875
-0.2309414243605614
0.5597062196232746
0.1573130597901408
0.0787881735711228
0.07530936664763636
-0.0310544305271079
-0.0005330487223364211
-0.003026613795703407
-0.03263651811386069
0.1709224677919032
-0.1778611354562819
-0.0561000145257207
0.02067196857440821
-0.1468943921362901
-0.05280653258974583
0.1534796541603923
0.2770700690668202
-0.04047874568110742
0.01278767405775655
-0.2552546902560129
-0.1305351395631158
0.2359773962684691
0.1789538060656528
0.1295356166175194
0.02166451724351144
0.0887100740600141
0.05209191118935577
0.4523093622637674
0.0173622858543189
0.09756546301247597
0.0432700215736582
0.07206054551469956
-0.1153305637150452
-0.242508478854394
-0.2006183234455194
-0.02003327873979997
-0.2021275945637927
0.2752879730115463
)
;

boundaryField
{
    FrontBack
    {
        type            empty;
    }
    Top
    {
        type            calculated;
        value           uniform 0;
    }
    In
    {
        type            calculated;
        value           uniform -1;
    }
    Bottom
    {
        type            calculated;
        value           uniform 0;
    }
    Out
    {
        type            calculated;
        value           nonuniform List<scalar> 10(1.036668313119493 1.064465439591097 1.022209599594925 1.021025246177243 0.9970125706416565 1.012713890481127 1.033823335832447 1.062809584923331 0.8672321229148023 0.8820396646140064);
    }
    circle
    {
        type            calculated;
        value           uniform 0;
    }
}


// ************************************************************************* //
