/*--------------------------------*- C++ -*----------------------------------*\
| =========                 |                                                 |
| \\      /  F ield         | OpenFOAM: The Open Source CFD Toolbox           |
|  \\    /   O peration     | Version:  2412                                  |
|   \\  /    A nd           | Website:  www.openfoam.com                      |
|    \\/     M anipulation  |                                                 |
\*---------------------------------------------------------------------------*/
FoamFile
{
    version     2.0;
    format      ascii;
    arch        "LSB;label=32;scalar=64";
    class       volVectorField;
    location    "358";
    object      U;
}
// * * * * * * * * * * * * * * * * * * * * * * * * * * * * * * * * * * * * * //

dimensions      [0 1 -1 0 0 0 0];

internalField   nonuniform List<vector> 
808
(
(0.756251823193909 -0.01749726385816266 0)
(1.031454825316534 -0.01261113671209379 0)
(1.112682290871213 -0.006097546837059495 -1.767412986436708e-20)
(1.085118044104447 0.01260928872282179 0)
(1.364940063690932 0.01559670381406031 -3.895537499859713e-19)
(1.03872317990095 -0.009337367946871443 -7.20203998516191e-20)
(1.013781460309868 -0.02105955113914605 -2.351725510072974e-20)
(1.078934446850203 -0.005383558049087067 9.010445456760175e-21)
(1.25486490063325 -0.01947307179666181 6.348381910567145e-20)
(1.084824070288534 0.01047346885558284 0)
(1.011609531026657 -0.007602815415558549 0)
(1.306776240860838 -0.05261043450242808 -3.546208809448777e-19)
(1.086109268908193 -0.001928016371410111 2.036284827228834e-20)
(0.6751519085715428 0.006383282577121405 0)
(1.281902864206249 -0.1132209955421453 0)
(1.081411854226286 -9.919462303580569e-05 -3.83257439535209e-20)
(1.228704345926486 -0.1433508492655376 -9.641546274418566e-20)
(1.073911199607695 -1.661299112620854e-05 3.178956031147477e-20)
(0.9920607061311646 0.004026916387896302 0)
(1.026274093588103 0.009579216802240356 0)
(1.03569050831152 -0.009760848386989693 0)
(0.987477472871335 0.04440624450504441 0)
(1.051139195949798 -0.005916091239202003 5.571373182765367e-20)
(1.053465927746347 0.00930288814853172 0)
(0.9325444935737209 0.1968600078998215 4.60657203528135e-19)
(1.166587611554464 -0.08459917703350774 0)
(1.186167886948762 -0.01821486864981933 1.582684599523522e-19)
(1.077432348886382 0.009464757823381327 5.197546298549412e-20)
(1.083784918346426 0.002332056715543642 5.062728167661904e-21)
(1.071847423530913 0.03088480579746201 0)
(1.07542191599397 0.0027664761636626 -1.174160995639932e-20)
(1.032964102722631 0.006823117205923108 -1.952575496225594e-19)
(1.059923700636595 0.01478210884347573 -2.378644752001182e-20)
(1.089083929936915 0.005495030328439727 -2.93068462474946e-20)
(1.120288974437236 0.03949563486363265 0)
(0.7551645023961272 -0.1242547755183056 -4.536591149808819e-19)
(0.9547248749994326 -0.005878262583097774 0)
(1.068856177056483 0.02230223466216908 0)
(1.068815771672388 0.007335326370178836 0)
(1.073669324797017 0.008980200416495419 -2.835366175228718e-20)
(1.092265232431022 0.02473703108021027 1.113077478698245e-19)
(1.150890631850417 0.004058462322396857 2.180251794434624e-19)
(1.096021324363375 -0.002303911710694841 0)
(1.015655997466467 -0.009001091623842015 0)
(1.134312089242605 -0.09477895508940871 -1.630720393084557e-19)
(1.044101002137503 -0.01158239677339903 -8.005104555819991e-20)
(1.058180820533481 0.02662076634173785 -2.791855732358297e-20)
(1.231861774131316 -0.1119353121280814 -5.613467831514292e-20)
(1.06763645169657 0.01212840876568772 -4.234704834564511e-20)
(1.258251375491424 0.01834779914827173 0)
(0.9962664143550581 -0.01892748833184554 2.121976877028442e-21)
(1.044651856130838 -0.001809515609036409 0)
(1.0876420237719 -0.002096679583841931 0)
(0.9993568057874792 0.006753801318714158 -1.832428899423348e-20)
(1.250331008738574 0.03472858269590638 -2.330278364278446e-19)
(1.063618943870418 0.01813780004429705 6.108904056519161e-20)
(0.9921365695384882 0.009376787166710933 0)
(1.020378812032325 -0.007643056299648037 2.369450600515006e-20)
(1.107417178005699 -1.170636722315401e-05 -1.196071083826023e-19)
(1.061174197418687 0.03100164243599909 0)
(-0.0851552277083495 0.01051514839091633 7.264266740888805e-20)
(1.155287821624652 -0.05150011389283893 -1.911128276401075e-19)
(1.007147099917374 -0.006886763866857203 -2.602849681916411e-20)
(1.185359214800617 0.07048942075402619 -1.235254997657584e-19)
(0.9981103477695006 -0.009323814068049868 3.015947177293213e-20)
(1.084302283102541 -0.005504217222893237 0)
(1.247423659934838 0.09945399421465764 0)
(0.6960684833691548 0.003197549887989501 -7.473544831530876e-20)
(0.9893269972885151 -0.01330542280869712 -3.142443019409284e-20)
(1.461712926548821 -0.01763932689146303 4.486139920857665e-19)
(1.060479210030266 0.007598964329946285 -6.758606633056779e-20)
(1.369279636533827 0.09777773592065209 2.908524833472335e-19)
(1.054749765576131 0.006892259106698841 -1.90423784959328e-22)
(1.081200218361657 -0.01384496714148687 -4.259310510869489e-22)
(1.165581844790626 -0.2365189872486518 0)
(1.021699760987138 -0.01465153113517522 0)
(1.0169883855839 0.01772210041725793 -3.12057353787662e-20)
(1.384745562225227 0.3486276589376344 4.15659873654092e-19)
(1.097148860279603 -0.04238046974348116 9.373262496514309e-20)
(1.045180574153969 0.2090797371705932 2.530480695694617e-19)
(1.125735614941618 -0.06040842660966032 1.153110792159942e-19)
(0.9219727538573024 0.005126703443276863 0)
(0.9753854809820088 0.01851417149826581 0)
(1.004131017810922 -0.0489827333056202 2.72060619639999e-21)
(1.010050046206242 -0.01305488307721927 7.542827657688664e-21)
(1.029746955401025 0.02645053221855738 1.396531775963222e-20)
(1.531131391462106 0.03654558940343793 3.269876697960658e-19)
(1.288482025582798 0.07180298077874434 5.50125772007288e-19)
(1.072292351887493 0.00307759483375066 -9.201983300900889e-20)
(1.198988192406551 -0.09176722739214134 0)
(1.033673677112715 0.001911894107848142 1.34229750142165e-19)
(1.164914127386195 0.02291858735185531 -3.223783602046601e-19)
(1.001429278741594 0.03230843264320123 0)
(0.9996260491501789 0.002037479286445624 0)
(1.044508514242038 5.173070040062452e-05 7.752321139525219e-20)
(1.211808966235964 0.1122315754671663 4.153560949433456e-19)
(1.011069209687699 0.006993501325674065 0)
(1.092628971113126 -0.0693927658906401 -1.050300202452605e-19)
(1.150374968777247 0.03841532068729522 0)
(1.213229504693664 0.09736349062877142 -1.955931966225736e-19)
(1.108110513085085 -0.02871032163257816 -7.672215546461443e-20)
(1.027207534560862 0.01173838980317261 0)
(1.085020329887664 -0.004626874351955949 0)
(1.018850496205698 0.0259474474294148 8.120365799854735e-20)
(1.071341197500054 0.05513155925236931 -9.552380324120206e-21)
(1.103843401634343 -0.004138624320265778 6.253848544591356e-20)
(1.111961538818525 -0.09451958954172057 1.505579116384743e-19)
(0.9628575924589347 0.004464634121183976 0)
(1.066065849352865 0.03111529286186637 3.840577780919731e-20)
(1.169346752817163 -0.0761955883413985 2.33567325183004e-19)
(1.051108142551813 0.04592909679646668 -2.914752916650955e-20)
(1.022530002042963 0.06721802013842518 3.738922234508862e-20)
(1.090309153886714 0.026026467298626 0)
(1.016496950371302 0.01762270869864943 0)
(1.029006295890752 0.009409589587073441 7.892306971441742e-20)
(0.9486763005290724 -0.03369975411034162 0)
(1.05275579298274 -0.005623536034681936 -7.856387842972145e-21)
(1.343307066585976 0.05962475702790165 -1.584620275721212e-19)
(1.079981296033407 -0.01314599324216531 2.610909395965315e-20)
(0.743937363253918 -0.001733291158938477 0)
(0.5767135577775437 0.1843275511491252 -9.489311334056383e-20)
(0.7061841147065815 -0.002527226454931696 0)
(0.6988159893074306 0.01462799486332554 0)
(1.077623662044972 0.003665545659411007 -6.769523592037197e-22)
(0.9906443148014038 0.01452752540307584 0)
(1.277844912550697 0.1229098010892751 2.485710757017116e-19)
(1.012346414173776 -0.02779825374211629 -7.860665424058542e-21)
(1.045712890219565 0.02086720851203136 1.801992586811685e-21)
(1.058674029363317 -0.01164374245829666 0)
(1.126659516759577 -0.009119116187514129 -4.984781658698854e-20)
(1.267149682250449 0.1409440759859569 -2.288691924446993e-19)
(1.089361266051343 -0.01119088240865125 -8.555603595388423e-20)
(1.069856770683071 0.02677484056159519 -1.103472568610857e-19)
(1.040721675893837 0.04673641690850235 6.938637499132485e-20)
(1.022571436188108 -0.003773242574067809 -3.456382442172914e-20)
(1.060903289252465 0.02351729258852358 6.05138433725471e-21)
(1.1311979423286 -0.001500128596942587 1.059264249974001e-20)
(1.039481762459691 -0.01576291047368547 -4.812522468053702e-22)
(1.087474046693961 0.03473565175461814 0)
(1.028006439076755 0.01358980073403725 0)
(0.7649873304612281 -0.06257073963481576 -1.811136367835612e-19)
(1.030168782456084 -0.001605534975651409 -6.893679706060312e-20)
(1.129732035117227 -0.006378969324794827 -1.273449091449202e-20)
(0.7034236744558509 0.006578864488240619 7.370274285156782e-20)
(1.174694749626389 0.02054001009515401 -1.919699215097348e-19)
(1.133738297084103 0.006741173500092115 5.124801270149931e-21)
(1.128962755373704 -0.01000700738210674 3.469397746568577e-20)
(1.000938323513541 -0.002932557231673708 -7.540439644490681e-20)
(1.102221278838219 -0.06685715850710888 0)
(0.9867585270191446 0.003556923652368265 0)
(1.057868691907275 0.007069611131725505 0)
(1.005234589369738 0.1876871162067804 -2.466245559674065e-19)
(0.7791926607528261 0.01241412093710525 0)
(0.8568751111193271 0.1002085233976814 -8.434481838964627e-20)
(0.07413377421732857 0.03761956546088596 -3.003056277104112e-19)
(1.172382227591534 -0.0294638789030837 -2.234701019261979e-20)
(0.6713302886001539 -0.007296529689188491 2.439499944723329e-20)
(1.170474023699193 -0.1007140970615912 6.887426149689578e-20)
(1.122578711576284 -0.005528458104087736 -5.785894677596502e-21)
(1.155181392897606 -0.04765199279234814 2.171578643991679e-20)
(0.106104624812598 -0.2234755234975147 0)
(0.2427374813360303 0.08344772130924126 0)
(1.258733489620401 0.1129188121415017 1.931808830768591e-19)
(1.021156747293811 0.01978360397564538 0)
(0.7378503109934498 -0.006270603220028174 0)
(1.075399806414016 -0.01169020166227612 2.713026892111452e-20)
(0.9747931070111843 0.002800530116586145 0)
(1.295514176707728 0.1308239992097154 -1.582148696946243e-19)
(1.057452309854671 0.01114097746661566 0)
(0.9938404938047714 -0.007143476682930849 0)
(1.064994286355407 0.008310297862889402 0)
(1.006167439598592 0.02082048036685179 1.832953162101702e-20)
(0.937106422117724 0.01659524141931632 1.102679645326189e-20)
(1.177705380019267 -0.2000487294906302 0)
(1.005215088734094 -0.005181812030490454 7.851603030177955e-20)
(1.059122461121472 0.006424048203616427 0)
(0.7746806134013865 -0.00327889081147462 0)
(1.217786554286425 0.02931857149546493 1.667562391950327e-20)
(0.7049433598629913 0.001344599654004055 0)
(1.436789584874129 0.08836930803914989 -5.290442842711152e-20)
(0.9950722566588677 -0.006476860791661839 1.704377577756758e-20)
(1.273199859110772 -0.0009790919838046355 -2.937173580167956e-19)
(1.059504422671118 0.008940598767945245 1.384662984300399e-19)
(1.000910917245361 -0.01357818987692869 0)
(1.21464214829184 -0.1418564091140673 2.042849644655985e-19)
(0.7331942319905032 0.01378851654150786 0)
(1.098524460953329 -0.005047880218861685 0)
(1.152742673424747 0.06967405303259443 2.004657911031337e-20)
(1.007022777972897 -0.006622353232386178 -3.026718126733354e-20)
(1.120493591829999 0.0531993025291606 -1.76174678440514e-19)
(0.09494395211619469 -0.08650185954840002 0)
(1.071896740922673 0.03889708629568978 0)
(0.661768128238765 -0.002919007123554682 -6.412192063838278e-22)
(1.012163549822504 -0.01937969305638606 9.643467077427197e-20)
(1.061326363473221 0.0007672218728512817 0)
(1.075170649873215 -0.1263266001671659 3.716615141942343e-19)
(1.00283612580698 -0.0061974713934765 -3.434945585529769e-21)
(1.002969116209593 -0.005210451810287366 6.94246494515926e-22)
(1.093920369578133 -0.009321466276753461 0)
(1.020661153299051 0.02058814285925976 -6.332556233645466e-20)
(1.106533867918572 -0.00157491677999682 6.641455356047135e-22)
(1.074497733532349 -0.01132518101941472 6.608684882800153e-20)
(1.085788568210991 0.02228821678988016 0)
(1.331518147940703 0.1629632028061164 0)
(1.002004826591773 0.0001688374256793952 4.414307935993889e-20)
(1.319792250511568 -0.1253608033821252 1.554903605898585e-19)
(0.04307579879562149 -0.1912943159956555 -2.488518724175544e-19)
(1.07126056546011 -0.005452618673782036 0)
(1.115241497527543 -0.003261006953956392 1.191141463820062e-20)
(0.7267985465608631 0.01782287523915613 0)
(1.061716476164162 0.007808332924718219 0)
(0.8693135696654999 0.165479344069914 4.72359889785519e-19)
(1.274030583443315 0.1343898527451177 1.928488540483477e-19)
(0.6543568071495715 -0.003097117440409105 -6.363878912776073e-20)
(1.040720940990326 0.0005080190462825266 -7.153643872133845e-21)
(1.054736316678234 -0.0002634976014382606 6.600329931563704e-20)
(1.364448785042912 0.1231755299471738 6.759580219748303e-19)
(1.333841943055026 0.252126300467269 0)
(1.060315935487375 0.002295219999642145 0)
(1.000366545103426 -0.006291951793100806 1.500418830427531e-20)
(0.9929473082611777 -0.008040298577371784 5.421710932638546e-21)
(1.381665401614842 0.1999598066218142 4.251476007001901e-19)
(0.681776287421633 0.0004885429178561527 9.883933249334134e-20)
(1.005591707130724 -0.002152347256425751 -5.987231239765521e-20)
(1.098217811429316 0.01305472089402761 2.551072163957616e-20)
(0.6694675081622286 0.004983568703664031 0)
(1.066091016937815 -0.01201173992708662 0)
(1.013929707532601 0.1533462889543795 -1.307014762435986e-19)
(1.091797667839449 -0.008611780772163584 -2.484722197035029e-20)
(0.9821026082249692 5.128899994977665e-05 3.286178611423147e-20)
(0.9912109877584775 0.00603546893142671 0)
(0.6382516353456883 -0.001076397573651494 0)
(0.976762109229716 -0.001171784479786005 0)
(0.6421450813501655 -0.001472769390009312 2.663510980021261e-21)
(1.090314349110252 -0.05577248582082763 1.195675832257061e-19)
(1.113079217606887 -0.00219039440440772 1.190307360119385e-21)
(0.9579057194733575 -0.0008888031248756633 3.900144615522628e-20)
(1.016391726679638 0.01001473347267102 1.712272902424441e-20)
(1.067090649415865 0.001101654579045713 -2.530374999826499e-21)
(0.634698850198658 0.008874928745526204 -3.63432504814291e-20)
(1.004521859848732 0.008207509743094392 -8.610300984591425e-22)
(1.036311100103519 0.007039641093416802 5.365816026833831e-21)
(0.9866066330595237 -0.01175803764597609 0)
(0.6099599947328715 -0.0004796096608219023 0)
(1.068720350240545 0.0225666053269972 0)
(1.017004448756202 -0.01627380424519212 1.040535062781467e-20)
(1.023766593865292 -0.01006271346984906 0)
(0.9916104264703297 0.01372510733862402 -9.795192794088203e-21)
(1.010080126956381 0.0008251034097801125 0)
(1.129698678602789 0.0008458971362809724 -1.148423238946612e-20)
(0.03845169186609281 -0.1439817857351156 -3.935786418877509e-20)
(1.035695314779461 -0.0182264776150265 -6.195070795455341e-22)
(1.041115719829969 0.004277396947777721 0)
(1.080917619196937 0.06766318675469904 8.466224164990351e-20)
(0.9678363623968519 -0.002412657247916126 3.109834995718756e-20)
(1.020389941624883 0.0167223279417473 -2.348205445173933e-20)
(1.0017352708262 -0.001590211960390543 2.472682027587773e-20)
(1.039715638333397 -0.007202815236944081 0)
(0.640876658265518 -0.004032437112914099 0)
(1.025802998049036 0.02454351155858368 -7.384358400024059e-20)
(1.085661779906135 -0.005939208894985914 4.884517931270001e-20)
(1.016607161296546 0.005690750864850398 0)
(0.978993158425431 -0.002162710473602597 -1.955053353196549e-21)
(0.8655436205895899 0.01373829219836474 -9.354893197066881e-21)
(1.014031949005811 0.002587710235848967 -9.92180308237738e-21)
(1.023929169698302 0.006004610796499939 1.863487873744837e-20)
(0.9843377372599411 0.005069753116716784 0)
(1.003552240661042 0.01184690227034697 3.454683536119417e-20)
(1.109854485413 0.0002272074873197088 0)
(0.9265909611372897 0.004384410525177939 -3.113966657761164e-20)
(0.9573885470061594 0.001407745642338374 0)
(0.9126350158217085 0.2084206502472552 5.11382890345143e-20)
(1.01078222394124 0.06680943834257724 0)
(0.9926323004141803 0.004684970453512256 -2.266207682289157e-20)
(1.058655027987323 -0.05318118288829578 -2.875580521453049e-20)
(0.992252147538825 0.0008050983912654914 3.332941634771397e-20)
(1.010520578767287 0.006593543871397729 0)
(0.9782128227382738 0.0005368445257676679 -3.097691197495914e-20)
(1.171030490184425 0.1048197028233055 -3.431206359073556e-19)
(1.070059644179101 -0.2654764020727072 0)
(0.9930260010253208 0.0007865900130749345 -2.245908705359236e-20)
(0.9757438204693095 0.001621732221746617 4.985451484896391e-21)
(0.9638802569246566 0.004655652900523679 9.935033473469374e-22)
(0.7459150504289193 -0.001047235330149807 0)
(1.124109375010376 -0.07920090920972629 0)
(1.003304826387051 0.003554635909661676 -2.248187977589599e-20)
(0.9070501501563116 0.01217525178110971 -9.74717187537115e-21)
(0.8506745782978753 0.007946707752446406 2.650538195722561e-21)
(1.014391020457089 -0.006215536445467365 0)
(0.954304528806726 0.0103495471386688 1.408182711782036e-20)
(1.005567393559378 -0.0002514913407430047 -2.295483238893039e-20)
(1.022163530833837 -0.002998402043928518 -2.556005379084751e-20)
(1.114759590850178 -0.001076248718809279 -4.939409398329029e-21)
(1.11969612912151 3.90977574301092e-05 0)
(1.013624614132126 -0.0105491878356902 0)
(1.019544716050723 0.001185050900166857 0)
(0.9417780844986346 -0.0008045659611045552 -2.028742185920039e-20)
(1.017852546040281 0.01364215621390074 5.388055820082818e-20)
(1.084187423509186 -0.004387050483743011 -2.257449476951076e-20)
(1.040567366960768 -0.008352556760401173 0)
(1.107088414849854 -0.003916685607438696 1.853183270964831e-21)
(0.9946579268742396 0.002444088489491146 -2.225002317821937e-20)
(0.985758137738916 0.004028216339301674 0)
(1.011044513521182 0.003301743568386969 4.65400086653812e-20)
(1.367544324168207 -0.3147235016981832 -1.131593831013963e-18)
(1.12235344816409 -0.04306843376727436 -1.085899938470685e-19)
(0.9648134889444642 0.003611497200525154 4.521085818506977e-20)
(0.7679090344964437 0.002548202342123116 -3.095827191507987e-20)
(1.22297837370824 0.05365417997825193 0)
(1.22491493508347 -0.1282607100716906 -1.4651236835289e-19)
(1.079881119375939 0.0001987562158958537 0)
(1.008098147998874 0.001097942869614718 2.270325797780328e-20)
(-0.1806735132261753 -0.1406428865636356 0)
(0.9939661631682978 -0.004649376148131251 0)
(1.012429441830694 -0.02313713798854415 4.486745248490415e-20)
(0.70636275029815 -0.01945957524014866 0)
(1.096787689299786 -0.01477823072955754 2.123721173924826e-21)
(1.042865962361791 -0.009577051505184921 1.809589227478211e-20)
(0.6331958396267128 0.004120826153664179 0)
(1.449830833605525 -0.1229877041610262 0)
(0.9863984420416052 0.001323159071377763 -1.080206536877643e-20)
(1.069816740439075 -0.01505818564054253 0)
(1.037840827598091 0.0003855279342477692 2.122097206883644e-20)
(1.081036814529448 0.006212845168059658 0)
(1.01116941108006 0.002810279763459562 -1.063909588735797e-21)
(1.005779292211305 0.003055012430735684 0)
(1.010280415363756 -0.006045466353065182 -3.554516951879244e-22)
(1.004149236128977 -0.02087343191499865 0)
(1.035683866821674 -0.0008267440632663916 1.691233857446418e-20)
(-0.1767002642596686 0.02750224378141054 2.667937074013011e-19)
(0.7993757045146086 0.02061555840766468 5.228482467142451e-20)
(1.005591399311875 0.001795788232385267 0)
(1.12986759503492 0.01418589113943301 -1.11489136081391e-20)
(1.120615269760517 0.01203211877257101 8.296681171571927e-21)
(1.054574937224615 -0.01289869689823629 -1.287583892034162e-19)
(0.998782251492739 0.01035809639529659 9.683749948963277e-22)
(1.078043970951786 0.002983250048174841 0)
(1.187375009670905 0.05412553969254481 0)
(0.8354095701119888 -0.07681595279527446 4.591167408743757e-19)
(1.094065965923763 0.0002680720641040732 0)
(1.03348735867549 0.007357375870803372 -7.459294580490255e-21)
(1.042439023294358 0.005177514427885829 6.013534160554235e-21)
(1.05592309495172 -0.060431615985765 -7.544450725781304e-21)
(1.139440571017348 -0.0006524624796828003 1.676389591663627e-19)
(1.086965862028915 -0.006444565288262866 0)
(0.9943481787507761 0.001434069051103057 0)
(0.9963129915417396 -0.02635185909251504 -2.33650311061572e-21)
(0.990094889863689 0.003144125064924073 0)
(1.031397219392303 -0.03826483045475625 6.385460991297655e-20)
(1.291146649876377 -0.09274039469134499 0)
(1.042709205561426 -0.002865012160396127 -3.728662156748242e-21)
(0.9861671692246337 0.017030083274154 -8.593561933997119e-20)
(1.032853467522116 0.0415264451239382 -2.404111854561249e-21)
(-0.08002163566525923 0.1505889120459179 -1.677066745910112e-19)
(-0.06963648876026679 -0.303425111365431 -1.340962042197429e-19)
(0.8968949623397722 0.1408123302985515 0)
(0.290773235628042 -0.03378100961173637 -3.314068647295609e-19)
(1.005485654838489 0.0001740100935315853 -1.387314098678778e-20)
(1.063819333482367 0.002700311396438605 -2.107203474672099e-20)
(0.9913073138684345 -0.01940025975252246 2.994588239005562e-20)
(1.022325507211514 -0.03160543973157718 2.580967060875037e-21)
(1.009939915526555 -0.0321533828684021 -6.558723375045372e-20)
(0.9888610371475717 0.004806448772042914 -3.469835716210217e-20)
(0.992920110441646 0.00512644888604365 0)
(1.025219814322113 -0.002340643720725791 -3.505312899287074e-21)
(1.938531768581049 -0.1558885943723484 1.077136558016324e-18)
(1.043143726249039 0.0001226339611036899 0)
(0.9955365872818468 0.008604968224986881 1.5491836229183e-20)
(1.003318670648644 -0.0002904204155110364 4.043050313447439e-20)
(1.159749756917217 0.1466382071578172 0)
(0.9979830503836692 -0.002597610208706135 7.940388623965737e-21)
(0.9495080236808601 0.0002107762904598849 0)
(1.037835596042327 0.04176902448535061 0)
(1.311238060719722 0.1624652342690218 2.365150880757104e-19)
(1.083884312464079 -0.002010571701224705 2.294779865176833e-20)
(1.017453312429424 0.02974773451492521 4.637917196342131e-20)
(1.086857267717081 -0.003653445385361131 -2.213335574962224e-20)
(1.047752000848867 -0.008929953779939928 -8.549155617798124e-21)
(-0.3849754127271134 -0.05266604743788912 0)
(0.9994637875853293 0.01402329524501973 0)
(0.1095266350268052 0.0549785745882549 -8.955262079500101e-20)
(1.007145899554059 0.02102764120632493 -4.153992612898947e-20)
(0.9984916700208811 -0.01753580615293578 0)
(1.00145586533933 0.005571923794456174 -4.978772591274874e-21)
(1.081855277802786 -0.04247480249707873 0)
(0.9943745827149874 -0.01681915993543134 -7.84483331865303e-21)
(1.099805177542744 -0.06014279337721309 0)
(1.445783108646025 0.1764860695281789 0)
(1.054724586052733 -0.01221342371253712 0)
(0.9902990691833805 -0.02424450905644386 -4.021490431794026e-20)
(1.000121348920442 -0.04586058931470507 -3.103164282964595e-21)
(1.014058059296927 -0.01931488137178288 -1.823675229211045e-20)
(0.996900785220584 0.01654547820161468 -5.636768083330192e-20)
(0.9957075614284998 0.0105481727466935 -1.509787742655395e-20)
(0.9944762955107974 -0.02866391114510623 0)
(1.002813632275132 0.02383867639610971 1.952825118506025e-20)
(1.057402936530467 -0.04014665120056416 0)
(1.111456751762692 -0.03563614178915817 2.623645197919753e-19)
(0.9957534222065095 0.01685847879135109 4.643309397983683e-20)
(0.6150592638155365 -0.008683097631466628 0)
(1.138866267912305 0.153850060799422 -3.234538721432819e-21)
(0.8540612570655119 -0.0906300387530266 0)
(1.137678783242001 0.07316868359570163 -2.700291897828116e-19)
(1.317522762958379 -0.3896021561488631 1.30097267794064e-19)
(1.069240684772393 0.0623730172378514 -1.262246530679523e-20)
(1.010931243773127 -0.03225986650796285 0)
(0.9563222435583481 -0.2167141422865861 0)
(0.5170653414833034 0.1562864415137727 0)
(1.016214064366674 0.009351689502597748 1.296511321945005e-21)
(0.6886690909176146 -0.02955067577218783 0)
(0.9996103523503441 0.01726431059527332 3.576430972931246e-20)
(1.026365850060785 -0.005032477700321183 -2.783388685118954e-20)
(1.078981048934114 -0.008096546942635396 2.77280220065068e-21)
(1.047095824583345 -0.023374750837459 3.103679377784627e-20)
(1.04242264632201 0.01178804619031875 0)
(1.064796459821785 0.023601374265891 -9.138008443849415e-21)
(1.049406307350035 0.03580923713707519 -1.824011615883264e-20)
(0.9832143405357724 -0.02282054184878626 0)
(0.6249171192777351 0.005099014272280285 9.172556984875511e-20)
(0.8941502292117385 -0.005902064713482753 -8.847989991713145e-20)
(0.9093820398219739 0.005293738463237511 1.448994458500045e-20)
(0.6295829004365724 -0.006422057624055374 1.405578623558139e-20)
(0.9800928863332531 0.001291607521762981 2.524879928152482e-20)
(1.004439132935149 -0.01744837884424295 -3.573067678719904e-20)
(0.9811545123031589 -0.03733711208289548 -3.341158876723449e-20)
(1.085560712786676 0.001653359893860584 0)
(1.020225838853491 0.004863669142974125 1.009842857392127e-20)
(1.132138975207114 0.04899126560836017 1.306404638864284e-19)
(1.03158302608092 0.04046795215992373 0)
(1.022588410864964 0.002537851628091616 0)
(1.586493786489686 -0.1675007904141667 4.416731076875725e-19)
(1.057217947814179 -0.04785797581605436 0)
(1.016788456188181 0.009052016288741721 -3.814758802439354e-20)
(1.083710556742163 0.005158726553210325 0)
(0.4853556432887319 -0.01816886125196945 0)
(0.00970931464906632 0.02544283287735474 0)
(0.9911996648218138 -0.02432488770915611 1.220478727710355e-20)
(1.302657903372725 -0.09563834729386873 3.756022305817127e-19)
(1.033691009775121 0.03480518922761119 0)
(1.022236205946881 0.003484398669163446 -2.242743984909845e-20)
(0.9537356102880917 -0.1602322398441199 -5.307142237647554e-22)
(1.256285939863007 0.07869185740246334 0)
(0.5965372409931645 0.7279421037767597 0)
(1.314140385087123 0.1480724010065548 1.093257848331078e-19)
(1.679929877709187 -0.02517469757670246 0)
(1.049231426243045 0.1139294812033492 0)
(0.7088851869651738 -0.02256388768177067 3.650207366100806e-21)
(1.048998914948276 0.04338404906374204 0)
(0.7555563998522745 0.1266426388669977 1.270054158437296e-19)
(0.9967658624624737 -0.01653088722710987 3.569582007607703e-19)
(1.037384871520524 -0.04243790380679892 2.781377247005769e-20)
(-0.3829284690080496 -0.01736507839388754 0)
(1.072240697244633 -0.01645731835451382 0)
(1.086660973587154 -0.003320819643004548 0)
(0.6495422460677783 -0.5059416916200733 -2.458625614695648e-19)
(0.9896198896503852 -0.001447111373099898 0)
(1.092458175840866 -0.02126493205102318 4.610140052071908e-22)
(1.186803536124473 0.1212132286340157 -1.994008427866898e-19)
(1.094181251821445 -0.04957972406712265 0)
(1.006198243909444 -0.02122962609443999 0)
(0.7815159846027308 -0.1782663279660747 -1.628498889544184e-19)
(0.8797934770666747 -0.1283698466130371 1.513773398699136e-19)
(1.030656440282781 0.01484169544771774 -2.222333231612986e-20)
(1.02311237274797 -0.008927282571875913 -4.586248115581698e-20)
(0.8810586287228924 0.01394552038821696 2.638253483302403e-22)
(1.507534887529414 -0.194007315588498 0)
(1.307944116321926 0.1188690752544692 3.020800231359442e-20)
(1.243110603130321 -0.07315275301801059 -3.242034557005136e-21)
(1.095683157847269 -0.01845108519088088 -3.892060679011819e-20)
(1.035416201000098 -0.01267610546980223 2.58330317043899e-20)
(1.092840097596932 -0.0390510308632518 9.141187482393079e-20)
(1.031653341485906 0.02044817350253794 0)
(1.047308233800338 -0.03798267165826547 0)
(1.115958760561563 -0.008935878564283533 0)
(1.093046200363757 -0.04002475844990418 0)
(0.9981652502714501 0.01119571977126232 0)
(1.148675423076611 0.08168814158286924 9.586606126606009e-20)
(1.33726928443001 -0.1507608093297086 0)
(1.035255207293344 -0.02605735416634554 -2.199096838094987e-22)
(1.048760207625308 0.05067043772940397 0)
(1.010288004331637 0.01449695031827148 -3.953014394166993e-20)
(1.033906012187903 -0.007343018346628418 9.10916762995294e-21)
(1.088920552216668 0.01348327248366926 -3.263646785316561e-20)
(1.085397199886768 -0.02796589475403242 0)
(1.070710660631718 0.006423415507898091 0)
(1.107749015977631 0.09428868113736752 -1.421262458543709e-18)
(0.9356815569111926 -0.1507253252041645 -7.061313568749951e-20)
(1.168533977056975 0.1153640858995314 1.139109091542034e-19)
(-0.4777177504950841 -0.006509237887795951 -2.900731324819639e-19)
(1.017942152342392 0.02876925868561609 -8.861709375053959e-20)
(1.004747906494859 0.004853597868657812 0)
(-0.2700796166663875 0.006311277018284695 3.552649023771522e-19)
(-0.03990186629659598 0.2858120598930053 7.791607426623584e-21)
(0.9952168192723403 -0.006250260441784185 9.786108013701512e-20)
(0.1870312709139084 -0.04346281773595638 1.35491784951236e-19)
(1.085412612836731 0.08312483918572698 1.436997393819829e-20)
(0.09403545493102397 -0.1120547452626021 -5.539541554378544e-20)
(1.1083527904371 0.002968778328324119 0)
(1.103100194633026 0.2561414887533154 0)
(1.021320099770358 0.02144068896033795 -1.733728481671065e-20)
(1.067155773461408 0.05042831229801459 0)
(1.026938094154844 0.02427186223117882 -9.03737271237489e-21)
(1.264913501704645 -0.549737799821424 8.06543585257495e-19)
(-0.1195580309234409 -0.2266378155438443 2.175195848600386e-19)
(1.300569114837324 0.1169151132483953 -6.321487303517773e-19)
(1.121429290529923 -0.003377527992702234 0)
(1.120729134938708 0.1001971034195403 0)
(0.5271481060416211 0.08058051463107696 2.501128000060895e-19)
(1.023840615901773 -0.02035106976479188 9.335178835127637e-20)
(1.006618803632215 -0.02357208844683015 0)
(1.210001054893696 0.2702172635866092 -9.520712412009595e-20)
(1.264638942008133 0.1344694692784351 -1.581796775762384e-19)
(1.026627969465369 0.00335637090666897 1.537363880702344e-20)
(1.301726135237582 -0.08488132807115351 -5.015464504734698e-19)
(0.2959275153318683 -0.01646856242424364 2.748552473454938e-19)
(0.826263663219113 -0.1458724841494342 6.717755629366327e-19)
(1.039976958744119 0.04822767642203103 1.066520899435051e-19)
(1.038580689802288 0.001791407772258408 1.85995721602787e-21)
(1.001316932492271 0.01931094997536795 2.980247795935794e-20)