/*--------------------------------*- C++ -*----------------------------------*\
| =========                 |                                                 |
| \\      /  F ield         | OpenFOAM: The Open Source CFD Toolbox           |
|  \\    /   O peration     | Version:  2412                                  |
|   \\  /    A nd           | Website:  www.openfoam.com                      |
|    \\/     M anipulation  |                                                 |
\*---------------------------------------------------------------------------*/
FoamFile
{
    version     2.0;
    format      ascii;
    arch        "LSB;label=32;scalar=64";
    class       volVectorField;
    location    "1069.5";
    object      U;
}
// * * * * * * * * * * * * * * * * * * * * * * * * * * * * * * * * * * * * * //

dimensions      [0 1 -1 0 0 0 0];

internalField   nonuniform List<vector> 
808
(
(0.7562716309918655 -0.01752456775910436 0)
(1.031316186007008 -0.01250435893737847 0)
(1.114964721022295 -2.065924833416697e-05 -1.766182487145072e-20)
(1.08513088133164 0.01257073444942229 0)
(1.360463205925605 0.01371906430900802 -3.835663440459503e-19)
(1.038670325011051 -0.009412178055355757 -7.257602714105867e-20)
(1.014240509545937 -0.02032116615519894 -2.395773000405309e-20)
(1.078827639636804 -0.00473758630589638 8.970272111681425e-21)
(1.252139908587653 -0.02131615815053016 6.27962204952234e-20)
(1.084859524449651 0.008774611174377457 0)
(1.009841553350616 -0.01246324459994687 0)
(1.303296888845102 -0.05390172750783474 -3.479386673587378e-19)
(1.0862274356812 -0.00164364459799722 2.036860377556456e-20)
(0.6750894127587614 0.006393482665940657 0)
(1.279196540804076 -0.1231168720137586 0)
(1.081925001930164 -0.0001481422963323004 -3.839966792643037e-20)
(1.228856997701851 -0.1532729081624808 -9.863982325955207e-20)
(1.07442093185887 -0.0003038396297568394 3.181905292977781e-20)
(0.9899396612035148 0.006260776653833759 0)
(1.026979299348254 0.009217090997323757 0)
(1.038058417341711 -0.01593471620412339 0)
(0.9875674512318658 0.04536044776075519 0)
(1.051035230979546 -0.006220552381979202 5.741188632456496e-20)
(1.05370226835615 0.008217571563940774 0)
(0.9338430623335914 0.1999123849598788 4.571407663179897e-19)
(1.161766424079929 -0.09089045266817034 0)
(1.184292847531974 -0.01977671177007609 1.548477972363052e-19)
(1.077175193281126 0.009589694458561053 5.229179212352366e-20)
(1.084062960833211 0.001820265740167779 5.103500315042787e-21)
(1.07196924237591 0.03098309385380345 0)
(1.075480518492101 0.002546633432207129 -1.181269227566658e-20)
(1.033442541004183 0.00627489703378866 -1.890388752876644e-19)
(1.059973487190366 0.01461869589131313 -2.376556967845776e-20)
(1.088791734884069 0.005336421453964483 -2.933486946545906e-20)
(1.12078146077673 0.0363228979215524 0)
(0.7548928387790961 -0.1199906789069487 -4.54917678489005e-19)
(0.9544584396595571 -0.005732702605550717 0)
(1.068910871434394 0.02240666772107185 0)
(1.068829024663156 0.007225175264739025 0)
(1.07371412585807 0.00864081944481212 -2.821102616245504e-20)
(1.092887442922972 0.02256777993394848 1.083499237283665e-19)
(1.14972490310954 0.002015089315911218 2.124647761194244e-19)
(1.095557704542691 -0.002434336709397541 0)
(1.015484098674293 -0.009393956437502148 0)
(1.127251827925119 -0.09687705588760781 -1.657657734202635e-19)
(1.044057053693567 -0.01180439354546365 -8.273300085584836e-20)
(1.058374696489089 0.02669219619892998 -2.74510313666483e-20)
(1.229058656743567 -0.1120579740305119 -5.582978977514522e-20)
(1.067632465139184 0.0121776342118478 -4.116871307105956e-20)
(1.255529135725046 0.01532754835880755 0)
(0.9972957581862311 -0.01834608524749702 2.145822085318353e-21)
(1.044626216844946 -0.002579934999656404 0)
(1.087291618083866 -0.002348248638121824 0)
(0.9976680071281522 0.007780968243746285 -1.916487380407692e-20)
(1.25276285982303 0.03277070959880241 -2.375785871946827e-19)
(1.063677384334321 0.01835903344675747 5.938928924148357e-20)
(0.9882686864588647 0.01035909208210184 0)
(1.014858418964341 -0.009972435417928078 2.537466277344852e-20)
(1.106911846262375 -0.001689238297390672 -1.162496456561766e-19)
(1.061681423777738 0.03130467948038547 0)
(-0.06932412022869364 -0.02823115464547574 7.460860842299269e-20)
(1.153587131596022 -0.05221455948576744 -1.859612243559824e-19)
(1.001769455891787 -0.007610041179724547 -2.78844291731056e-20)
(1.185802875843769 0.06422648127133998 -1.20104122953583e-19)
(0.9973436788970127 -0.01065534405386171 3.060880640385734e-20)
(1.083836706235953 -0.005507931689317851 0)
(1.244733475866488 0.09161200703551539 0)
(0.6960349073622317 0.003168096955759082 -7.459536853814062e-20)
(0.9891494584374786 -0.01601794871565194 -3.188212701815248e-20)
(1.456465884619999 -0.01895846117905504 4.417798765364311e-19)
(1.060672203892581 0.007566098348082672 -6.610019450331909e-20)
(1.364187859750781 0.09455615927424037 2.86355195496531e-19)
(1.054844507168547 0.006729469941941584 -1.886974786795551e-22)
(1.081008406018297 -0.01415855105198061 -3.607561351710848e-22)
(1.162567123255158 -0.2348653744858744 0)
(1.022688928963469 -0.01475353862442196 0)
(1.017965078362865 0.01786173260928861 -3.02783975314019e-20)
(1.389725108310284 0.3499051942698825 4.223596639909313e-19)
(1.09724009682115 -0.04210902350202833 9.483471248394576e-20)
(1.04685471124004 0.2112683804764979 2.426553287113657e-19)
(1.122883638455012 -0.06320233348553966 1.174544105919746e-19)
(0.9221168486242819 0.005200621423746343 0)
(0.9754792254795466 0.01858708399586834 0)
(1.003985333358467 -0.04847380981223879 3.089187636860444e-21)
(1.010719470318319 -0.01362061841035179 7.639859324814194e-21)
(1.031271924661123 0.02609735458231519 1.363121338198583e-20)
(1.525284000530127 0.03485366182003904 3.229240962476893e-19)
(1.291887029601768 0.070368094026317 5.600053413180664e-19)
(1.072722325003614 0.002924443733276336 -8.904495976730714e-20)
(1.19578706265831 -0.09948169203830268 0)
(1.033977173156314 0.001499303647985254 1.299614817484795e-19)
(1.163799672025234 0.0201499310311729 -3.140456552206123e-19)
(1.001524999988404 0.03252313782858567 0)
(0.9996300453946713 0.001975417673855949 0)
(1.044152996225141 -0.0003562345676166458 7.927413055762869e-20)
(1.214367147814708 0.1012059107166748 3.991923276067569e-19)
(1.011143193736832 0.006940505471235908 0)
(1.087493574661635 -0.0704897922267409 -1.067579357953085e-19)
(1.150096539432109 0.0349269602758901 0)
(1.212014606795289 0.08888806974322273 -1.878958988587912e-19)
(1.108214392093366 -0.02871442065649704 -7.747012130643316e-20)
(1.028018273111594 0.01171238199886366 0)
(1.08546865707914 -0.004646825564976505 0)
(1.020258612382189 0.02598809087782711 7.904962870021003e-20)
(1.075580684871416 0.05465535675065647 -9.21776450707007e-21)
(1.103621325385727 -0.004380145954612774 6.384354983392399e-20)
(1.103889124560112 -0.09505008861477017 1.539989342750649e-19)
(0.9603997738128359 -0.00326590430230972 0)
(1.066460517511194 0.03146422405757883 3.729732944621079e-20)
(1.167317026707704 -0.07645787105277485 2.27259529756762e-19)
(1.054064130979703 0.04587692650550695 -2.863360315368522e-20)
(1.023006509518728 0.06810651949704533 3.661668645560149e-20)
(1.090591110187975 0.02625294668508427 0)
(1.013275181577163 0.01421908193118421 0)
(1.028963057207514 0.009398520035461034 7.877514934755527e-20)
(0.9485933592821805 -0.03211112626541444 0)
(1.053327316772798 -0.005522871787804254 -7.513115153304184e-21)
(1.338729906974329 0.05690219324506261 -1.554744640493949e-19)
(1.07969809149385 -0.01332225397060797 2.620798072547484e-20)
(0.7442096427085481 -0.001781560633400206 0)
(0.5436152427691353 0.1613117391751047 -9.815217209298523e-20)
(0.7058378706869336 -0.002495973425443649 0)
(0.699093986640572 0.01467351523228461 0)
(1.077840159480399 0.003468834174049307 -6.516793127840261e-22)
(0.9906405685610382 0.01443409926744241 0)
(1.281230468698581 0.1223961994100703 2.537356973042002e-19)
(1.012222963324794 -0.02797369389503502 -7.470521662277583e-21)
(1.03903517415439 0.01797623882251744 1.255503350717583e-21)
(1.058392643262483 -0.01239611835843625 0)
(1.126356502327476 -0.009252532764848043 -5.088815128376766e-20)
(1.26033093793416 0.1232014086755902 -2.165063621904294e-19)
(1.088783516006603 -0.01092069700186268 -8.52917426585606e-20)
(1.070958193743148 0.02509274907071715 -1.073945351941579e-19)
(1.04109466190651 0.04677357261112602 7.314213887142587e-20)
(1.022342906126398 -0.00353224714906145 -3.460052845247072e-20)
(1.061369720147388 0.02368818274364162 5.786913715397571e-21)
(1.137618972707954 -0.0005629995767779644 1.059432160669164e-20)
(1.040904113574312 -0.01248504902379803 -4.675312603112903e-22)
(1.087695257950242 0.03482075371956241 0)
(1.028771561953786 0.01339479110601786 0)
(0.7915358621176671 -0.07566185847419848 -1.846363665023378e-19)
(1.030288081204249 -0.002136242529767543 -6.606852773645571e-20)
(1.137487195162409 0.002452376435509319 -1.297900421859306e-20)
(0.7035442180527934 0.006545165186939834 7.208290882855376e-20)
(1.176201997793003 0.01882697091981403 -1.957772615917603e-19)
(1.129380870797392 -0.00367106950432063 5.763812907468298e-21)
(1.129054092240655 -0.01010825467272176 3.384878575189907e-20)
(1.000936654112122 -0.002989430553886736 -6.854241248247633e-20)
(1.094685282390357 -0.05888909691019861 0)
(0.9876260339936203 0.0003220019327269114 0)
(1.057971610636774 0.007040183408879049 0)
(1.006247423274909 0.1898033730256851 -2.37849799143684e-19)
(0.7795135553264578 0.01242929582981681 0)
(0.8570320161582492 0.1036194444068228 -8.239300071105064e-20)
(0.1048331643850146 0.0341296698207447 -3.035999504166335e-19)
(1.172936346457985 -0.0325257059882686 -2.275675887235108e-20)
(0.6712415874162867 -0.007371386223280181 2.446420158023992e-20)
(1.162899256444381 -0.1057845281342027 7.011693158807041e-20)
(1.129144984569077 -6.105628396697228e-05 -6.115700170458122e-21)
(1.154527898837219 -0.05107146288271012 2.211398510793811e-20)
(0.07405217793682434 -0.189062012472222 0)
(0.2630310513930095 0.06700316276576949 0)
(1.255163244859872 0.1047257377532324 1.853368676485076e-19)
(1.021550071500644 0.01988590686830917 0)
(0.7375496453550278 -0.006314846512717153 0)
(1.074821996578962 -0.01167602372258858 2.715107767972718e-20)
(0.975220881098973 0.002866769234568695 0)
(1.288401085205786 0.1197168439356952 -1.442958753666369e-19)
(1.05738242342887 0.01108668567871628 0)
(0.9923600751330396 -0.008103207187960986 0)
(1.065334882225406 0.008046520845946448 0)
(1.006250935294727 0.02090164263017695 2.104989371556105e-20)
(0.9235904177760944 0.003296169530706771 1.260841859053235e-20)
(1.17503325754388 -0.1988575024710249 0)
(1.004978589683659 -0.005229570836249295 7.937532278507337e-20)
(1.059237597244755 0.00615028709929683 0)
(0.7745389699963867 -0.003351997577463623 0)
(1.215884995415568 0.02595454230633618 1.62534718602736e-20)
(0.7051312982511897 0.001340917351584216 0)
(1.431204686491356 0.08573992576599293 -5.158874247365756e-20)
(0.9936449101234575 -0.005737098966791423 1.658022839926474e-20)
(1.27586880573058 -0.00404629533445946 -2.987514107707308e-19)
(1.060049373635971 0.008840661550243316 1.339881083406897e-19)
(1.000898123184667 -0.01356870828259454 0)
(1.213160515234977 -0.154140451502389 2.039277610130264e-19)
(0.7331667102353273 0.01378907256018122 0)
(1.097978590802216 -0.005031353528429366 0)
(1.154909298695475 0.06403364517503606 1.918085685721488e-20)
(1.006361729777906 -0.007141394467160981 -3.034826226773758e-20)
(1.122256750221557 0.04945007447482928 -1.716150203108424e-19)
(0.1582146690816032 -0.09013889295367254 0)
(1.073944403488915 0.0372182941147061 0)
(0.6615113377530955 -0.002880988806699472 -5.495318876852858e-22)
(1.012062896787977 -0.01973352297483547 9.147878803126028e-20)
(1.061816992700674 0.0007671372556421645 0)
(1.087464335351808 -0.1394467667248053 3.796756429514515e-19)
(1.002479102241979 -0.006151523725020249 -3.351182209826742e-21)
(1.002139262334465 -0.004010014716701264 1.315342949315484e-21)
(1.094033655629204 -0.009187069321493452 0)
(1.020803572335127 0.02014635423175404 -6.564723425469323e-20)
(1.106824220422944 -0.001673658475294134 6.393507366894306e-22)
(1.073871138208014 -0.01065702547869593 6.575580194894219e-20)
(1.085662701085383 0.02227326351274722 0)
(1.324421580865253 0.1591292041732928 0)
(1.002086554186523 0.0005160511280094407 4.409434121052829e-20)
(1.322750406331629 -0.1328190219589343 1.58770002064458e-19)
(0.01409124496135977 -0.1370579060259434 -2.374658170874807e-19)
(1.07119376427955 -0.005485883121580604 0)
(1.114148081015539 -7.839931272483013e-05 1.205069638962536e-20)
(0.7269135385237628 0.01784847150477985 0)
(1.059422476301376 0.005630056206289424 0)
(0.8634971961443829 0.1631389990971376 4.662562808823281e-19)
(1.279054763223656 0.1175004173964354 1.823155292247597e-19)
(0.6541123082184873 -0.003115725967830462 -6.433146565652343e-20)
(1.041398651653848 -0.0006556491145782827 -2.537562559655608e-21)
(1.054955983813632 -0.0002359724823245047 6.50404177280494e-20)
(1.359189757562251 0.1194213443761229 6.614589725446246e-19)
(1.338104812756934 0.252739346112501 0)
(1.057218300737606 0.007958690763248942 0)
(0.9955071755569607 -0.005404884983627603 1.402957929230903e-20)
(0.9946026631064682 -0.006044872682323433 1.386310767980864e-21)
(1.386118052649174 0.1999002208683117 4.314268662219241e-19)
(0.6817392745441788 0.0006301546775676666 9.900442115506119e-20)
(1.00569980545873 -0.002078473437810235 -5.990931922993861e-20)
(1.097990132380145 0.01310871882349581 2.54894259997309e-20)
(0.6694580581854018 0.00498322490802014 0)
(1.066081328730862 -0.01203403618459916 0)
(0.9915344352525579 0.1243109213606424 -1.306916913276014e-19)
(1.082153176067567 0.005131280446258415 -2.530537971423625e-20)
(0.9819089450421742 6.435017546279081e-06 3.301025097110504e-20)
(0.9912110403664068 0.005992034214109827 0)
(0.6381898704182787 -0.001153325713083125 0)
(0.9768356700190849 -0.001305765495599716 0)
(0.6419569193314481 -0.001448244716506471 2.700009454629892e-21)
(1.087094842589161 -0.05724160263023699 1.214936461243923e-19)
(1.109570354710852 -0.003778030851940657 1.19825407472585e-21)
(0.958080511711477 -0.0008933140040983702 3.8966826797279e-20)
(1.016419207477087 0.01081335656856132 1.690409308622196e-20)
(1.0637980640668 0.01041984547313822 -2.170543247005357e-21)
(0.6348254396775549 0.008848207184752077 -3.631102695735236e-20)
(1.003021129191851 0.01284165471377358 -6.772351535105134e-22)
(1.036606261384038 0.01223248707196689 5.034529924030359e-21)
(0.9872403953280505 -0.00435861649389898 0)
(0.6100765070436782 -0.0004574153647601098 0)
(1.068925253760736 0.02268796021269216 0)
(1.015687665115842 -0.01606131773950096 1.051255055537915e-20)
(1.021736218529322 -0.001864971310783388 0)
(0.9929202268733454 0.01483086080144079 -9.408994702449532e-21)
(1.011296108266325 0.006949693725650519 0)
(1.131734461136745 -0.00371268846737554 -1.270285141604017e-20)
(0.0316950400106987 -0.1376562556618953 -4.421485526326716e-20)
(1.03529239976673 -0.0159129830172554 -7.275290143356949e-22)
(1.045835410761392 0.009341512273289509 0)
(1.08782998250913 0.06718611894807608 8.385055795040581e-20)
(0.9691593500738066 -0.0007681789149320708 3.116963942456281e-20)
(1.020378253921384 0.01711905814065919 -2.273416972080193e-20)
(1.006775198894213 0.0006393682598341133 2.419591958564108e-20)
(1.040178863383237 -0.005521478905226491 0)
(0.6409873589625559 -0.004048885458703476 0)
(1.026015849973092 0.02447518573333572 -7.818528166877238e-20)
(1.08118080389344 0.005633673031112885 4.984161696280716e-20)
(1.012027683672241 0.004158209058909223 0)
(0.9817988098966507 -0.001414841143244788 -1.908559371942552e-21)
(0.8651646440728071 0.01970722057491264 -1.442860777506368e-20)
(1.013944560560975 0.003043168064292969 -9.85516893536254e-21)
(1.025935114452399 -0.001286864286667689 1.788341832206882e-20)
(0.9783373026257578 -0.001570734623641433 0)
(1.006652971779096 0.008608261348615994 3.285879290531887e-20)
(1.107451151908671 -0.004934707622700239 0)
(0.9328773644042497 0.00608164899161781 -3.438396857389339e-20)
(0.9569509745832101 0.006325766445012234 0)
(0.9047300288135267 0.2054469782347844 5.046894243561738e-20)
(1.011183710954902 0.06756273163657305 0)
(0.9909730826795679 0.0039376431716499 -2.313611802551623e-20)
(1.05353263474644 -0.05000320710916436 -2.735339782603194e-20)
(0.9927555103974632 -0.00135817541154114 3.345497868686747e-20)
(1.008460794897831 0.002473415480102192 0)
(0.9803640199097773 -0.0005565582967290535 -3.114128674288798e-20)
(1.176321453828097 0.09509065458522438 -3.307220280717683e-19)
(1.067642557142093 -0.2630735154982576 0)
(0.9949549130907045 0.001686225163420392 -2.215537398950877e-20)
(0.980020909640036 0.009058828424272709 4.82575330043543e-21)
(0.9578686303064399 -0.001368910063449372 1.06616164880266e-21)
(0.7460358312049943 -0.001097251011857173 0)
(1.11296398704283 -0.07232214185342024 0)
(1.0076161933454 -0.000223078095240215 -2.159653351844795e-20)
(0.9000705229664794 -0.001802257176477226 -1.083698719595877e-20)
(0.8458322296925703 0.01003379669412923 5.760627413073954e-21)
(1.010045414498913 0.003143945111109686 0)
(0.9565054955340435 0.006345085796191492 1.60363868112595e-20)
(1.005805499100503 -0.0002040423833114039 -2.262546599046345e-20)
(1.024669095371964 0.001987604783884788 -2.503234516219143e-20)
(1.111556966446835 -0.006200109264811941 -4.895995176608133e-21)
(1.114127323296799 -0.004970267255623476 0)
(1.010350810114911 0.00513924793794037 0)
(1.025551219632738 -0.0007151062222162453 0)
(0.9504879357969809 0.01073008625090544 -2.133325839508386e-20)
(1.017884458689967 0.01314662867276158 5.559372149339859e-20)
(1.082980116164165 0.005918931180069436 -2.302595881696133e-20)
(1.03674486370157 0.006210741087891423 0)
(1.107728612186303 -0.005289797405623462 1.809250111412359e-21)
(0.9958094810856222 0.001124614309462438 -2.222116031124482e-20)
(0.9803559737329355 0.002054409376446581 0)
(1.010954717348022 0.001866434063186571 4.698048912836848e-20)
(1.362240212198096 -0.3135013312550916 -1.121233976634996e-18)
(1.121177971957751 -0.04594861669101318 -1.106077329309761e-19)
(0.9759599768119696 0.01138084503410774 4.808613059655176e-20)
(0.7802880140810582 0.02390384503151793 -3.572299056235552e-20)
(1.221316741803879 0.04887374381069667 0)
(1.214111553789684 -0.1362985399376974 -1.476336460275731e-19)
(1.084037584188933 0.001938211528254712 0)
(1.009568579252238 0.001151008307814791 2.239619829432815e-20)
(-0.1837969240302787 -0.06849145053006724 0)
(0.9939717315257053 -0.004674290883619666 0)
(1.012344194663856 -0.02307393945809566 3.99830112257488e-20)
(0.7061699534642994 -0.0194109929141757 0)
(1.096802686493393 -0.01504514087645121 2.349098873253835e-21)
(1.039932880926424 0.001982818981476401 1.428237468187966e-20)
(0.6331396075437586 0.004180691935524566 0)
(1.444838376767031 -0.1233131922056135 0)
(0.9863037004238117 0.002158736204052815 -1.075338374257362e-20)
(1.069606016366123 -0.01497480535767838 0)
(1.038051023305544 0.0005776701802749603 2.095770629169676e-20)
(1.0878027986237 -0.00353684901052124 0)
(1.009642454441785 -0.003598465262322379 -1.242965915557642e-21)
(1.006244781374821 0.003203052323694689 0)
(1.012192184660689 -0.005487716186700007 -3.160117063141707e-22)
(1.003443551301757 -0.0200481602036026 0)
(1.034213000466697 -0.0008676004336000203 1.86224471984841e-20)
(-0.213784436859469 0.05326876669741447 2.771032412378203e-19)
(0.8211878768551593 0.04035038338229488 5.893952028009746e-20)
(1.005190213756596 0.002384251521294083 0)
(1.124144706374509 0.02116371120349887 -1.31545170316902e-20)
(1.110353159074838 0.01178736940116935 9.692332379009111e-21)
(1.053824988067311 -0.01299238952369137 -1.314466392032959e-19)
(0.9987756820009921 0.01039284438541018 -5.193190835382372e-24)
(1.084494251060386 -0.001877661262468028 0)
(1.186726517643961 0.04946885253738945 0)
(0.8350671330359231 -0.07365763369843091 4.606643838642083e-19)
(1.09722245843822 -0.01437578496601572 0)
(1.032836792786321 0.00802559024159385 -7.643088468519164e-21)
(1.042773201155475 0.00537579158601248 5.803865405592241e-21)
(1.050456938670873 -0.05987900150753871 -7.531350088327479e-21)
(1.140088917054294 -0.002564151630259609 1.710229057419468e-19)
(1.076658736262527 0.0007253652417348987 0)
(0.9950435448068125 0.001752175476904763 0)
(0.9978843618359192 -0.0243074147688954 -2.341292613550791e-21)
(0.9915971890990387 0.003026389246529124 0)
(1.028947914198018 -0.03705841611240229 6.476105836991856e-20)
(1.294149122906892 -0.0983119857307074 0)
(1.045431976451027 -0.01056337770514846 -1.563487313838602e-21)
(0.98617302654009 0.01679879417862566 -8.947612128327549e-20)
(1.035430325617424 0.04239099635647431 -2.346759593302102e-21)
(-0.09069300114058391 0.1918862274818164 -1.69500872833156e-19)
(-0.06434835183104365 -0.2797188512113588 -1.358927433566226e-19)
(0.8574898156075651 0.1118763526436928 0)
(0.2790574865508458 -0.006361694119336811 -2.90190820758046e-19)
(1.013324884892035 -0.01839626256168377 -1.187739108174032e-20)
(1.064017896616975 0.002640356904681522 -2.079779865918501e-20)
(0.9934551911917221 -0.02079021429574494 2.969531818858583e-20)
(1.025915906005545 -0.02678201765275727 2.585281005768434e-21)
(1.008518003742405 -0.03049353560367704 -6.666500124345987e-20)
(0.9887012654904833 0.004916813139007977 -3.487905244841989e-20)
(0.9938524179330835 0.004346973038375015 0)
(1.024457491016851 -0.001824919516216064 -3.558780116915893e-21)
(1.930381937127409 -0.1557858494816091 1.067148045942617e-18)
(1.053086892046416 -0.01927769984396674 0)
(0.9964495056072823 0.007182691022294276 1.497466393707902e-20)
(1.003119946404518 -0.0003780255838754087 4.039928388455102e-20)
(1.178079660784343 0.1443315912731887 0)
(1.007525751651969 -0.01991102526947891 -9.220517587938565e-22)
(0.9526363327803677 0.0001178340793994164 0)
(1.037850161464502 0.04171395575713802 0)
(1.292159261233072 0.1532960011711484 2.161276862867096e-19)
(1.079027893822987 -0.008721144386589044 2.298631660942915e-20)
(1.017303238140421 0.03225561936826639 4.566254330051148e-20)
(1.078444544090519 -0.003211031823486892 -2.215933956353445e-20)
(1.05735382213138 -0.01836766960624243 1.297665652530441e-21)
(-0.385343389559769 -0.03480323379755938 0)
(0.9983512050967847 0.01299846554838673 0)
(0.1237662742156384 0.05776535310845178 -9.008068722484054e-20)
(1.00552835421178 0.02213548845836626 -4.038555854645178e-20)
(1.000719015845766 -0.01141098456234466 0)
(1.000290305441872 0.005619102488100287 -4.97584579587374e-21)
(1.081687451387652 -0.04210813044332338 0)
(0.9954074419877215 -0.01898123202923111 -7.945444329471943e-21)
(1.091623238670523 -0.04590359870742454 0)
(1.440271479361637 0.1725665527408212 0)
(1.054294319513938 -0.01166414970802167 0)
(0.9918434988028909 -0.02321170751719638 -3.993519089360157e-20)
(0.9808368393143988 -0.0225335545933615 -2.615673785097492e-21)
(1.020180939748911 -0.01937081469552484 -2.000799746915663e-20)
(0.9972626567398506 0.01728400661276149 -5.461305973087487e-20)
(0.9954062967200775 0.009431873498159837 -1.45938409405545e-20)
(0.9945114970122805 -0.02623740529881636 0)
(1.002059724499545 0.02557656041403737 1.905303735594441e-20)
(1.035220433015332 -0.02773542530829265 0)
(1.110387926298162 -0.03637768703859417 2.542623365668524e-19)
(0.9951257455190835 0.01706333451754782 4.527418981014063e-20)
(0.6150959512881514 -0.008679455970660324 0)
(1.151330476132073 0.1411893796743967 -1.87344988880207e-21)
(0.8298848232089321 -0.09516916111040423 0)
(1.139274719969265 0.07268810520369991 -2.774216721274275e-19)
(1.313115005248935 -0.3874185607466855 1.277515075783834e-19)
(1.076080254948329 0.06516013725621214 -1.318314022049001e-20)
(1.010241921305236 -0.02932750883349154 0)
(0.9547189166858359 -0.2137383263296935 0)
(0.5303235201463689 0.1617691564102386 0)
(1.012284613125704 0.01343300326945749 1.026345464293536e-21)
(0.7114608614642686 -0.01270005393116588 0)
(0.9980021452661074 0.01731139611274128 3.47691737078127e-20)
(1.022111349606293 -0.0002075683454719338 -2.672107701550147e-20)
(1.079165358254694 -0.008017268347318973 2.689465629381137e-21)
(1.045791754472563 -0.01073246292141588 2.881425797433627e-20)
(1.042922954477635 0.01086421520119036 0)
(1.053498416961836 0.02701457777026978 -9.772011407854358e-21)
(1.051660524301276 0.03489672066932385 -1.780042924575383e-20)
(0.9831840529507209 -0.0216450616215736 0)
(0.6249099043685329 0.005138704376414721 9.181325790236785e-20)
(0.8941769503484538 -0.005916503203710019 -8.856448730738613e-20)
(0.9093500524469709 0.005271831051986191 1.444408813678281e-20)
(0.6296157281317063 -0.006400000528539642 1.409574377230733e-20)
(0.9790985222038843 -0.0003212657811934519 2.580135093745243e-20)
(1.004430662177075 -0.017627661647302 -3.350061963022453e-20)
(0.9687047046109082 -0.01187277834124785 -3.103147065941897e-20)
(1.085569773200401 0.00145094164794027 0)
(1.018667025625962 0.00477670432599544 1.087260433646559e-20)
(1.133353805866684 0.04818047746721386 1.338467549239897e-19)
(1.033766682033074 0.04270020077381001 0)
(1.022179500678045 0.002632460903371625 0)
(1.58029961505494 -0.1672722354862415 4.36508537429373e-19)
(1.040853986843306 -0.02637969969029577 0)
(1.022328726364583 0.007971073954081954 -3.610548831003292e-20)
(1.087546615462042 -0.003267982750713909 0)
(0.4863688530372475 -0.01552614826991447 0)
(-0.04063956499346827 0.00491542567986555 0)
(0.9901075867786704 -0.02353932374775218 1.241502610902335e-20)
(1.299188444417372 -0.09609541577536228 3.68165266167872e-19)
(1.033150703137067 0.03948398655814191 0)
(1.022635706060136 0.003390591236614178 -2.203108304802224e-20)
(0.9406858299851341 -0.1657511669024129 -2.349821297396425e-21)
(1.252997477417959 0.07363471285310061 0)
(0.5992726770516814 0.7327922040627157 0)
(1.305294946833087 0.1450251772624085 1.068563120350497e-19)
(1.673163108980947 -0.02577788597693997 0)
(1.071890550613616 0.1255127527858581 0)
(0.7308466466647063 0.001970328025058775 3.060276541219635e-21)
(1.05035371013372 0.04946868496730995 0)
(0.7173923959315227 0.09902629097582734 1.277076971852949e-19)
(0.9968211150566011 -0.01628322474797989 3.583893312418425e-19)
(1.034888634396112 -0.03845543037175006 2.644926326340445e-20)
(-0.3697948042232008 -0.03830543005690337 0)
(1.071628237679956 -0.01615112007412151 0)
(1.0937020345911 -0.01714442003445321 0)
(0.647041718767011 -0.5000694545189523 -2.507552026437898e-19)
(0.9922120808462105 -0.0001361654778237961 0)
(1.09175878659781 -0.02215724981301022 6.058464813237946e-22)
(1.189336499658811 0.1210354163964303 -2.036313602688586e-19)
(1.093409117221392 -0.03718458732481091 0)
(1.004957342985102 -0.02093083386754012 0)
(0.8073202788067075 -0.1961475251849877 -1.733108732256632e-19)
(0.9006855170271256 -0.1425198364153506 1.503208086685833e-19)
(1.030604516401902 0.009986820494297336 -2.113914964951535e-20)
(1.023128471153242 -0.009273753608478283 -4.3348133255655e-20)
(0.866864096552633 -0.0004397058845279467 -3.307046555629317e-22)
(1.50205656713319 -0.193743450446399 0)
(1.302105820128599 0.1127558917558686 3.134739896238444e-20)
(1.243554712009363 -0.07962821976558093 -3.068930016971247e-21)
(1.095919431041576 -0.01878167381216892 -3.937246961556902e-20)
(1.043546658920381 -0.01719226642397734 2.861712233364889e-20)
(1.092800382409488 -0.03919345725336158 9.447406678719479e-20)
(1.032744416444465 0.01979459733455463 0)
(1.048185491870536 -0.03151588138486642 0)
(1.115851161205284 -0.009050761526230985 0)
(1.094463801767856 -0.02695680074675603 0)
(0.9980003311963144 0.01075603276478929 0)
(1.153217299578449 0.07535626480617209 9.332537582879775e-20)
(1.345696629530672 -0.157627874174605 0)
(1.042713353996296 -0.02251343280040676 -2.181556264006794e-22)
(1.052698437714675 0.05458237397986759 0)
(1.009913658303517 0.0143939179763055 -3.854349565233267e-20)
(1.033522310564941 -0.008199695521296013 9.296267292208079e-21)
(1.088997232742823 0.01330363128613092 -3.184140169419786e-20)
(1.084303576236537 -0.02979481010191858 0)
(1.076626761327334 -0.005893802240774009 0)
(1.102022027990206 0.09314260129542765 -1.405603661530441e-18)
(0.9348742496179828 -0.1480230655489371 -7.106345549860373e-20)
(1.179058793373041 0.1069404069404712 1.111775807560475e-19)
(-0.4596859075203906 -0.01020221727335167 -2.92738780234559e-19)
(1.01946654094953 0.02945841779959649 -8.625629172758192e-20)
(1.006499833808432 -0.006211320399982989 0)
(-0.2687859065633091 0.02586109076737605 3.561937594202231e-19)
(-0.04946178829092711 0.3411437610833182 7.48220496742107e-21)
(0.9952202143926036 -0.006331118414119561 9.082229813904459e-20)
(0.1869328241570876 -0.04082074661158228 1.369578701850256e-19)
(1.096901326004609 0.08877187874375715 1.498791944234723e-20)
(0.09347769648397815 -0.1066294565923136 -5.369126419630423e-20)
(1.107920665348484 0.003162334828973265 0)
(1.095494829947983 0.2523072637463213 0)
(1.021545100496895 0.02200812915846196 -1.690233498782935e-20)
(1.069946441225462 0.06118642289492814 0)
(1.02425521277682 0.02638666541106697 -9.026597939863763e-21)
(1.260127584665512 -0.5474348174820518 7.988431061491011e-19)
(-0.08259867490755256 -0.2128806812498732 2.117443417042776e-19)
(1.295748409859414 0.1124555834170708 -6.155921038928781e-19)
(1.124856868018227 0.0004118575284474594 0)
(1.135325430331558 0.1023374345080372 0)
(0.5224450970662806 0.07898964207985754 2.474137614929284e-19)
(1.022898834894024 -0.0210302417549342 9.520889791461993e-20)
(1.005269877450481 -0.02359201736092755 0)
(1.213356588571839 0.2716916905002048 -9.788899636844576e-20)
(1.250075631715682 0.1309492205356603 -1.524966792366513e-19)
(1.026513549192132 0.002658818909834314 1.577399647239018e-20)
(1.296143592575068 -0.08478176738336815 -4.965166629881499e-19)
(0.3061369597855406 -0.02089807489050691 2.761967808883458e-19)
(0.8339315773336943 -0.1494259070069359 6.845421418677653e-19)
(1.058267415975122 0.0711035680464684 1.078783571784555e-19)
(1.040944915956422 -0.006498252452766677 1.30017812466322e-21)