/*--------------------------------*- C++ -*----------------------------------*\
| =========                 |                                                 |
| \\      /  F ield         | OpenFOAM: The Open Source CFD Toolbox           |
|  \\    /   O peration     | Version:  2412                                  |
|   \\  /    A nd           | Website:  www.openfoam.com                      |
|    \\/     M anipulation  |                                                 |
\*---------------------------------------------------------------------------*/
FoamFile
{
    version     2.0;
    format      ascii;
    arch        "LSB;label=32;scalar=64";
    class       volScalarField;
    location    "623";
    object      yPlus;
}
// * * * * * * * * * * * * * * * * * * * * * * * * * * * * * * * * * * * * * //

dimensions      [0 0 0 0 0 0 0];

internalField   uniform 0;

boundaryField
{
    FrontBack
    {
        type            empty;
    }
    Top
    {
        type            calculated;
        value           nonuniform List<scalar> 
15
(
142.2883903582191
133.574805187692
138.062055478357
144.3957252175705
159.7618642447967
131.366656434538
140.1259262067036
135.3465543239662
153.4546481133459
135.7240609544734
136.083774131068
136.7755194706521
125.2620685895355
132.9121567888548
123.956996506366
)
;
    }
    In
    {
        type            calculated;
        value           uniform 0;
    }
    Bottom
    {
        type            calculated;
        value           nonuniform List<scalar> 
15
(
155.5680005614476
158.1181945142896
141.0955771979765
142.0512625509238
141.1820883956489
148.4364064139612
142.7079419474814
143.149805618831
143.4212462171245
134.0646726402278
125.7301001072925
141.5602777244872
122.4057960737701
123.4854037572574
124.1341737468774
)
;
    }
    Out
    {
        type            calculated;
        value           uniform 0;
    }
    circle
    {
        type            calculated;
        value           nonuniform List<scalar> 
32
(
55.9919885794142
21.89202808661878
65.21512101242415
25.93380767021016
20.27124758019589
56.24213309246751
56.59166510716258
23.756983101337
22.15316192007595
65.45746280916357
39.76904297184546
62.9013065287692
50.66016119743056
17.68873387624083
22.69247854914641
18.18828707883127
39.36471657656354
59.83477856465716
61.07427622782796
25.37289906856981
65.80433195118138
63.74938782757241
63.10889631688781
59.85477127315404
64.17070204328847
46.02678320197827
66.47080260479561
32.15640111967951
37.90267826001121
55.67886540190803
21.23992046785854
43.07959036482571
)
;
    }
}


// ************************************************************************* //
