/*--------------------------------*- C++ -*----------------------------------*\
| =========                 |                                                 |
| \\      /  F ield         | OpenFOAM: The Open Source CFD Toolbox           |
|  \\    /   O peration     | Version:  2412                                  |
|   \\  /    A nd           | Website:  www.openfoam.com                      |
|    \\/     M anipulation  |                                                 |
\*---------------------------------------------------------------------------*/
FoamFile
{
    version     2.0;
    format      ascii;
    arch        "LSB;label=32;scalar=64";
    class       surfaceScalarField;
    location    "621.5";
    object      phi;
}
// * * * * * * * * * * * * * * * * * * * * * * * * * * * * * * * * * * * * * //

dimensions      [0 3 -1 0 0 0 0];

oriented        oriented;

internalField   nonuniform List<scalar> 
1171
(
-0.9278966960649609
0.9278966960767883
0.7873477902871399
-1.099090694545719
0.3117429038702147
-0.1910335169214412
-0.7672019006774953
0.9582354179100541
0.07210328937630132
-0.117735427792885
-0.2122524700065297
0.3299878991738245
-0.7873477814335929
0.06932145105169642
0.7180263303693172
0.8109050065857073
-0.1778114324410602
-0.6330935739110835
0.873949049935296
-1.043925667992784
0.169976618032283
-0.2851347407145541
-0.09831198855735879
0.383446728976794
-0.03653023840636714
0.5487527000900284
-0.5122224616283542
-0.5087774261520737
0.8287299491376493
-0.3199525234030243
-0.4028701640772215
1.045581869592865
-0.1716328158244543
0.3930691342168944
0.05077844470653773
-0.4438475770343584
1.046054933003123
-0.0004730616695386526
0.445439615333809
-0.05237049049842315
1.056508383728174
-0.01045345096215817
0.5804548498224114
-0.7714883638649219
-0.7240323713635792
0.5566590498008276
0.1673733216783155
0.2139947913168229
-0.7227722198299428
0.5497059816865096
-0.9224414668098166
0.3727354859203961
-1.094228996331163
0.6866244715043219
0.4076045247803505
-0.5955300803583775
0.558999842544273
0.01708100241389727
-0.2555917456210258
0.2385107433483087
-0.0226860769195189
-0.5248368565068312
0.5475229356669645
0.400127594683854
-0.4984395808475935
-0.9189239836895814
0.9417002113880741
-0.02277622779078882
1.067865244276559
-0.01135685981662667
0.9349847859469465
-1.116787987235023
0.181803201434523
1.067375622751996
0.0004896203816464552
-0.6643129471717572
-0.05971942152840902
1.262087513128447
-0.8644223601405346
-0.3976651529517714
0.1484516362206914
-0.1099754378155513
-0.3252275850781786
0.4352030225584881
-0.2855016233472389
0.1920480766818713
0.09345354648370556
-0.5836109643604777
-0.5154797369119037
1.014131985301608
-0.07914719970207225
0.009868432292754406
0.8255008943029992
-0.835369326715253
0.5716840507491144
0.6904034677223884
0.438777271997763
-0.03115187711204562
0.4312794725127757
-0.8080483293257416
-0.1025783400908818
0.9106266695596452
0.5022528394207521
0.2541289464598375
-0.7563817859550437
0.005634169608056273
0.5308395551614288
-0.5364737232638807
-0.4900211633419054
-0.6042078291798056
-0.4227918743168032
-0.6939961114497055
-0.02743851184955203
0.2708691828326736
-0.2434306719872237
-0.9248620254046479
-0.00515776999887139
0.9300197952947221
0.3082166769888768
0.07523005626200174
0.7616201006322192
0.04928489637762083
-0.5329063757613767
-0.06262370569120303
0.04605057878083783
-0.8540989052266333
0.0770084210455213
0.8625316655550165
-0.9395400866917005
-0.3469807700167196
-0.04060087998344616
0.3875816492048801
-0.6821837769228978
-0.242678244654916
-0.6340463281638048
0.7110547478386856
0.6136252332592417
0.2151047143070051
-0.5433743349840168
0.94580553247222
-0.7789839380988476
-0.1668215945160466
0.01175209758998702
-0.004960200898565165
-0.006791896156516847
-0.4034113645861972
-0.09502821452699213
-0.2415796564508713
0.8552048875069952
0.04867953495330946
0.3335445168022536
-0.3822240523247572
-0.4617023185439195
0.963955157523198
0.6804038648691829
-0.7829822013037651
0.3184654779651911
-0.01474681446020997
-0.3037186661885437
0.9307039044211333
-0.9307039044496204
-0.7816548481477177
0.1114343507842974
-0.3236868227238338
-0.7499486457534512
0.7598170802124327
-0.0911497225201473
-0.1430632664225216
0.2342129878031767
0.8648649814897056
-0.03936408258170102
1.054607676197616
-0.8004787296069887
0.186759119323755
-0.3164307462385431
0.1296716275212165
0.8583678069929949
-0.09674770677498896
-0.6113352252133423
-0.03927911844831336
0.650614343588258
0.1234492079988128
-0.2303603051348649
0.1069110979014054
0.8055278874167525
-0.9833393283048385
-0.4341228575915421
0.3290289315415802
0.1050939271126184
0.5336045152448805
-0.5562906004975606
1.02198293915394
-0.4562437145535318
-0.5657392246956768
0.5991910608228602
-0.7192742826372759
0.0664498508796048
0.652824431632715
0.1019860195232767
0.5696701033244572
0.05503630018338886
-0.6247064033180149
0.1949874402613467
-0.08355308814244296
-0.4920574282149965
0.1450766581520123
0.05028143557910975
-0.8864478460752034
0.8361664105985444
-0.4740584258695102
-0.7131681616253311
0.04885521364985961
0.4368681596282567
-0.005588691004033544
0.3001091506345058
-0.855304721168954
0.555195570539616
0.4157606325468853
0.5842393676048314
0.5605974275075337
-0.5145468468324016
-0.3671450138551658
0.03983418790937989
0.3273108220171567
0.6812560607719469
0.2494478478636793
-0.5676381511367946
0.5732723246747864
0.1116405849837071
0.8748493313515741
0.01026067772422678
-0.6215958963635019
-0.7490726972339357
0.7993541337320526
0.5303909903643717
0.07070028824225348
0.3004830206771396
-0.3711833085400072
-0.1674744292730222
0.4453137829494213
0.08552576168782035
0.8737996364651912
-0.8041579071398729
-0.06964172933252441
0.6354297342465343
0.3103758016751442
-0.4308498719802536
0.5740305212043951
-0.5033302262485488
0.4170418529993429
0.1326641276397372
-0.04675403708378408
-0.5910713729956205
-0.139441523850415
0.7305128969327079
-0.1497096341698571
-0.7809942656450861
-0.6110467924043432
0.3601461077420731
0.2509006835763131
0.621980820196011
-0.6117201417840248
0.2388381797773479
1.011681552933985
0.04292612262259434
-0.7490726966420689
0.2259631434456434
-0.2142110516868974
0.6804038679475175
0.8018604441329105
-0.801860444273772
0.8375926371997909
-0.8330781193001265
-0.004514517859461818
-0.445335532689668
0.8610961647067773
-0.1473636280637269
-0.3446937962745287
0.7347710824582171
-0.6685784556770368
-0.06619262681327012
-0.7362859552325017
0.1452145813996666
0.1391624852400526
-0.6720688607716637
0.7829822013495311
-0.9504566306729689
-0.3674807519663167
0.2865798883830365
0.08090085877355987
0.1456979989314073
-1.010065204639114
0.864367205747203
0.4807246168839893
-0.04194734496432995
-0.3080644962591302
0.5862245098699254
-0.2781600134253951
-0.7385753435130952
0.8842733454449619
-0.1570031109489951
0.7320105006341449
-0.8378719447989886
0.1058614437868453
0.9771909840367918
-0.5392966647762933
-0.4378943194274265
0.7551064096913936
-0.06493684332657965
-0.03506032144780401
0.1849499847605839
-0.1498896629389725
-0.7757918650797345
-0.8390779162998462
0.07187602244127224
-0.7499486429434987
0.5138685389972216
-0.5544694224916683
0.09950263605547779
0.71606634880541
-0.815568984763924
0.7535872113535881
0.1743094862796172
0.5029306582330806
0.4970693417451361
-0.05469891203995546
-0.6107863310688544
0.6654852446858878
0.8798329481144733
-0.00603331536899231
-0.7551064096701445
0.7993541284351878
0.1916713997344457
-0.4472631479493209
0.01252891682547841
0.003462084288090206
-0.01599099736502341
0.5890899251757682
-0.4373844553384951
-0.1517054690848398
0.7180263249388876
0.01104920970196814
-0.1070674150747935
0.4387035542721078
0.1503863814492444
-0.01552331082250074
-0.007614795240187903
0.02313810549313349
-0.03165956578749336
-0.003400745637027738
0.2459361543054719
-0.2606829732111804
-0.958863553735632
0.001616351088316989
-0.1595094252978396
-0.1215445923929024
0.09465047634583784
0.7223755008014195
0.7289346507401536
-0.1446952832567459
0.6722442604491882
-0.5727416228384806
-0.211942505208761
0.3987016263639895
0.6956492181333666
0.02237710676313952
0.2418255232496724
-1.07490364750925
-0.9504566272846269
0.3026279902767121
0.7598170834633561
-0.209360894103776
0.06629762202173697
-0.7239918536519419
0.9104260825009463
-0.1864342289634652
0.4157952829257723
-0.0282136391787946
0.7712295665313914
0.2807257155098613
0.3767817115537404
0.06865790237052827
-0.6587150990822219
0.6587150990716842
0.2148001413552016
0.6958265335684595
-0.05640854029373209
0.3899530665379227
0.3787944953674209
-0.01287638384839501
0.0254053064088522
0.4482939165808991
0.03243070161089712
-0.738575341201461
0.5339663374637732
0.2008047465333516
0.2999415438063281
-0.114991571594077
-0.6956492173980054
0.1795584544144574
0.7308676284117593
-0.010256430495068
-0.8135869395185845
0.8238433700409851
0.6964237239133919
-0.7919451686705418
0.09552144489318765
-0.7535872127960986
-0.1510122235949024
0.2123065403044625
-0.06129431714309075
0.07755853417368833
-0.1781742803134601
-0.1131849557611545
0.2913592381306677
-0.006058091601831597
-0.009465206873395471
0.706423714775143
-0.7166801438256925
0.8871562855103146
0.07107913757101167
-0.3139879207648409
-0.5216913480716857
0.8356792689698742
0.1038946981076286
-0.1038946945293183
0.3264140886479615
0.4742020581270066
0.6139889005135262
-1.088190958783896
-0.1940778532918374
-0.5855634974046292
0.7796413507296011
0.0134627277871817
0.2207502538541051
0.3761495326766864
-0.2527003242203441
1.016166071748069
-0.5419640148694861
0.6687706590820987
0.992950378671045
-0.3789614788422443
0.2287859111874419
0.8842733462591457
0.7126405315188917
0.2139200373499043
0.7277801717788012
-0.7809942629262103
0.3412848963627039
-0.2830644811947584
0.258929869596379
0.02413460726513498
0.8487047100293746
-0.001521655893543824
-0.8471830538780402
-0.7021870792126779
0.7026766983860063
0.5546644672871393
-0.7021870802277586
-0.7126405315522879
0.7026766979900694
-0.03403362121762048
0.9094534514165176
-0.02229716576162219
-0.6812560653200879
0.6122581904395537
0.06899787485364754
0.5384993392692332
0.5379523614281129
-1.076451700644735
0.4870043950199643
0.5291616767917444
0.5474643805817255
0.4573056191048638
-1.004769999669095
0.4921871397062796
0.5007632394408293
0.6122581933619116
-0.5256368443672127
-0.4664331658539425
-0.5564514349041211
-0.5137073492649307
-0.1218055940709913
-0.01273347910174598
0.01273347841513851
0.5107578198064237
0.5244407101505988
-1.038148059378403
0.571870126559457
-0.2713870970210335
-0.8834140399706539
0.3441173772021149
-0.632929963165666
0.390251719590748
0.0008615505874050957
-0.8254121959145715
0.824550645124883
0.4208701610269306
-0.02420537319807034
0.8729100835151776
-0.9480342502134133
-0.8330436112384118
0.05507735401609184
0.7779662570020245
0.561081016110487
-0.439390987768704
-0.1216900280657897
0.6502745505402334
-0.7294217478276231
0.8882134516216905
-0.8272794297313604
-0.06093402217350305
-0.01449631948302363
-0.7896615891801229
-0.1110680271755111
0.71247529527009
-0.601407268067076
-0.9406231900753835
0.9261268682011803
-0.7274333001864718
0.688924637553027
0.03850866254936985
-0.8050384060940601
0.03112865003581193
0.7739097559872855
0.06197133269174004
0.04192336574214897
0.4327732756527286
0.05982080404835086
-0.8509092582589817
0.7910884542244716
-0.6462378309509784
0.5915389203370953
0.888225225726671
0.07344152365308994
-0.9616667495381876
0.05518161509590199
-0.05021775809282554
0.3775285748024355
-0.3819884300297003
0.06555768707838942
0.8407581168937225
-0.8398965682896318
-0.7339592702911096
-0.8161815384255171
0.0265199472818382
-0.1654725446090121
-0.8492604988760799
0.0219810650650946
0.621571855487013
0.05067240657693318
0.025795331722122
0.5352856810742477
-0.8145385973017704
0.8456672451524909
0.5657392287568098
-0.8496175703889886
-0.8671816659710075
0.04227178655025268
-0.02684138668741215
0.8346092642252563
-0.807767877624148
-0.0247098536796647
-0.7608006576301882
0.5442881211216719
0.152135610089894
-0.02007066362107131
0.892980746774065
0.9812042218994337
0.8622661213165133
-0.8402850579231103
0.1479585397352952
-0.1479585394743466
-0.1175870573026307
-0.4670600196563862
0.02766903311184448
0.2705834647063289
0.03204452528117221
0.387830925049313
0.8682708920025821
0.009508002792379651
-0.01556609776952073
0.6585829021320451
0.3414170978687219
0.7836563571486395
-0.5836109663929194
-0.7781016233083169
-0.8092895345117286
-0.6799004662290451
0.679900466200357
-0.1682285766711373
-0.1554582384217471
0.6023465992470378
-0.8115002649292811
0.2091536656477314
-0.4940896593448447
-0.5688711256857009
0.2779747819524632
-0.9719708953734526
-0.899239779482951
0.8383057551362088
-0.8146983512025886
0.8412182961373925
0.6485732547250688
0.1342096324531294
-0.7827828871377185
-0.7707808721285015
-0.1464710717312854
0.7250351205298757
-0.5785640486705929
0.03096889026274106
-0.01163648521684625
0.01576385477717366
-0.004127370009411416
-0.3529046333142091
-0.1141553919616311
0.8803213899560811
0.7457041634179971
-0.2432555812690394
-0.5024485811573188
0.6240141379551154
0.6857880742504658
-0.4709879338498895
0.0001168291128482886
-0.2856184504733998
0.01210038487979792
0.7512852488555173
-0.7633856340818218
-0.3233976312415987
-0.07296550151181953
0.07648408795366232
-0.9670822809636519
0.1198992268077926
-0.6772906222687729
0.05390285209236506
0.6396351306122218
-0.6935379826424617
-0.7560230310639438
0.07873240875334227
0.5888159300924796
-0.6617814316640735
0.1573435696034677
-0.3355178494767456
-0.7714731959154936
0.000692323882638717
0.3710749990564821
0.5997010927247123
-0.02567056992841482
0.0189013711528455
-0.01890137238902708
-0.02034825731878304
-0.04922560424396296
-0.2338388546440572
0.02766787451339237
-0.01815987327385287
-0.7208007920829986
0.2793014806352669
0.6796688336607248
-0.6889200202542806
0.009251186424110876
-0.5939427991857846
0.6478456496063987
0.6543980814342659
-0.06558214415211537
-0.6305911829986922
-0.1254318489880124
-1.050541093493551
0.01110148466882671
0.1368570463917385
-0.7087004105177659
-0.7416592165354986
-0.7637925243434687
0.3661273763752134
-0.4056644076709958
0.4606184299522109
-0.05495402360609837
-0.6633909787881093
-0.04530943176348288
0.5008714694981276
0.7306861790065214
-0.2360137064554876
0.1144691155903748
0.9663899592858073
0.4468182926922997
0.1323585653175536
-0.5791768579012309
-0.6765241020174315
0.01313312474172518
-0.04458747127010036
0.03295099705927972
0.6366538824859636
-0.7760954070680333
-0.001990340766898164
0.001990340151736639
-0.6008401878543946
0.6495207084558697
-0.04868052021086004
-0.6507287699482327
-0.113517968201122
-0.6715964323629228
0.06087395905162708
0.6046112838293088
-0.1375494975413014
-0.8180675073575085
-0.573466045358847
0.5699838476851989
0.003482199950769062
0.6282588453777231
-0.6190076600853516
0.3225541525215196
0.2136671975294723
-0.5362213500863399
-0.1050053317066735
-0.6015964502153421
-0.09194153307129832
-0.1540218830620305
-0.5125920704116956
0.4042118453996238
-0.4992400604074567
0.1265746937867112
0.678632195339464
-0.8052068893154062
0.5991910608199179
-0.3695239940873085
-0.03614039091464776
0.07394250818006531
-0.5865345703363183
0.5513613283376233
-0.04056690257245781
-0.5107944257875666
-0.3132160295690554
0.3058272137630831
0.007388816041915663
0.4527702291225844
0.1190998960948242
0.0528016276194784
-0.3166223818417983
0.1576400666742848
0.1589823151674466
0.2363807101811744
-0.01041755473754826
-0.2937152527219873
-0.3103232046649508
0.3494224367411375
-0.03909923042476398
0.7886698848444392
-0.6262828743543912
-0.02444589480431683
0.4992804205119812
0.284551696239335
-0.527807273175077
0.577474532051599
-0.5774745320543575
-0.2897559076485915
-0.586468222237121
-0.2955755678921259
-0.5864682227141774
-0.595539371274829
-0.8384864518761538
0.1699080020588763
-0.5986138417904212
0.8211319025456064
-0.003108079021109469
0.1175062360615548
0.4821948571597301
0.09679290111364777
0.1860943523889257
-0.03645599813391372
-0.1496383563312568
-0.02862999506519425
0.5906696953085195
-0.9433117218024729
0.4216203723212557
-0.008578422997973614
0.003313725457153023
0.005264695222227844
-0.6441462015038423
-0.1320009804874542
-0.46814372629575
0.6005022973044961
-0.5034814017573223
-0.3240424747769753
-0.2624920913705286
-0.2716741351980997
-0.1114281991311266
0.1114281999067666
0.15326024609193
0.05904629977960283
0.1971958263094042
0.4502008774821629
-0.5702764687474249
0.1021327498858085
0.2503514585878699
0.4665117415651387
0.5334882577627622
0.6443405502879936
0.08695317486173031
-0.002969112069796067
-0.08398407105040252
-0.2771396947814994
-0.5409278123287812
-0.5493908493728467
0.1149059788781923
-0.1267262165206673
0.011820237384979
-0.1054477831467063
-0.3852606925451962
-0.05039774974805808
0.6550090361774177
-0.4992859422272973
-0.1448602593583037
-0.3290027004559756
0.2870651542681182
0.1291056267498162
-0.6180510500022377
-0.2046845815174121
-0.2631443695223726
0.002461393816815867
-0.4214333868756906
0.3236720312532423
0.09776135493587747
-0.09451338086179091
0.2917415308620495
-0.8959493600775824
-0.4573330763795119
0.6263790383574139
-0.773282670637835
0.6682773389155305
0.339735310828825
-0.1242176469524007
0.2236847922767368
-0.09946714453736197
0.0288379840675376
-0.5862467869278064
0.0287204178439061
0.5575263693929389
-0.9005941706713614
0.5479650999730272
-0.665552157480206
-0.1050059698847681
0.1098119485166197
-0.109811945935373
-0.3165055493664008
0.3585532956039376
0.0189752805578199
0.02679960124287599
0.06015357916771692
0.5047204207117763
0.6665705903687672
-0.7362123214942654
0.03026171917356813
0.02016562132399334
-0.001264238259665372
-0.006911036549379333
0.006911036682544867
-0.4119893906258091
0.5310892852050898
0.01582089706803423
-0.01582089721739865
-0.7926194345310229
-0.06097975428181798
0.1229510727323709
-0.4554552753793095
0.5575880238902455
0.451734246070869
-0.5004147602729265
0.1503402705914787
-0.1503402709304177
0.03541472144420775
-0.01000939784156106
-0.0423941002400828
-0.9751709074525637
0.5372765901386166
-0.4669434127317678
0.04192336853608209
0.5151831592444417
0.03059529382961993
-0.5457784527680666
-0.6165405938476112
0.1172546503742028
-0.3289803922811813
0.0135649327848449
0.3154154594624508
-0.1557216322116486
-0.08029207692601451
-0.541053485901054
-0.04519329545099023
0.1368570457651149
-0.04016608272896364
0.0381757371916475
0.08063259810931386
-0.08063260225954319
-0.5258349012662297
0.4867356700313377
-0.4149551652821367
0.1613059621613026
0.6223503949306934
-0.09698199363377585
-0.003137547926231176
0.003137548403805745
0.5329615981073509
-0.08276537048552754
0.005917250780810117
0.02704509760533289
0.03501233260814376
0.6864633502233257
-0.7692287204175923
-0.6552170132132292
0.6307711137522934
-0.1083901051790741
0.3140682366170531
0.7455850847677249
-0.02034825912276085
-0.265466125268262
0.1504745640681523
-0.7445890609632211
0.4837927517563976
-0.4279646437702741
-0.101357421700868
0.003234639502079305
-0.01437345283383028
0.02469875262436174
0.4112251982894861
-0.1215248968420134
-0.3892695290089279
0.6289132542418998
0.019644511528137
0.009293992112297571
-0.009293992839205944
-0.3505487166183187
-0.07563402409110588
-0.560221075196111
0.5571129964773057
-0.2374026055113189
0.4646996208655947
-0.1508996475034876
0.7313545027194753
0.6694021007566526
-0.0401660887311077
-0.6178365380945852
0.5623346855152488
0.2836106469050504
-0.2785029989204256
-0.005107649593789972
0.5362577269434352
0.09343224157775119
-0.03895212808152801
0.1958828771295207
-0.1569307497353289
0.1195847222504732
-0.1195847246236381
-0.8586270327928657
0.002381735307527437
-0.1136427369181277
0.1406878356564261
-0.1314536408479835
0.1314536416483156
0.02016563691644671
-0.02348579749750329
0.6699199457642891
0.06094768459580055
-0.3225455531681199
-0.06271514057400927
-0.4712641133596839
-0.04539204466170921
-0.1511851846131988
0.1511851851829686
-0.04856935671662933
0.1437610716308788
-0.1437610724755774
0.136077355413722
-0.1360773564068122
-0.3162285330500089
-0.1146213390683072
0.2258926840693526
0.1031362458513031
0.03478366126362985
-0.8212124124852801
-0.1985292510068488
0.1698414600383081
0.02182993894939568
-0.2640898244708139
0.126280798372744
-0.1262807991293538
-0.4143464059968497
-0.08489365312267463
0.2356100955445384
0.002900643777383268
0.04046650844842349
-0.5445267794469529
0.5785604006644605
-0.03705034100054072
-0.01151902092658073
-0.02484955952317463
0.01484015678064432
0.006579214177472177
-0.1848814641126897
0.1783022495571038
-0.1084740237947937
-0.2270438213850457
-0.1442979324235644
0.1442979332121877
0.07238009666461589
-0.07238009603626828
-0.01891098855066093
-0.1085245039743142
0.1274354925839326
0.2346946624837113
-0.1835443970803177
-0.02613434149258583
0.02487010507483569
-0.1298682926396737
0.6166039638089454
-0.03904810168465682
0.4277197351905156
-0.0428365971374739
0.0659747044513684
-0.1529086274924284
0.1529086275968456
-0.6368317299074083
0.3079917385765724
-0.0792058288314447
-0.233987498658343
0.003627192828382574
-0.1207735461314583
0.1612400534736098
0.1956116562255905
0.09574758726662821
0.09666909969437669
-0.06165676607995382
0.07323890679959887
0.04166707106459679
0.06421760900115225
0.1056238526215038
-0.1000460827427489
0.2145151903757933
0.01128431888460643
-0.118205962269051
-0.09994865946426987
0.09592340083314237
0.004025258267026995
0.01087164102972937
-0.02319208789638257
0.03732365570380938
-0.03732365555487034
0.07510932808452131
-0.05541109330626467
0.05541109320003733
-0.2243483606158703
-0.05223124848448082
0.01174792708812038
-0.1030877006080571
0.01649263425709174
0.1088983967105929
-0.1088983971125414
0.2933730099337068
-0.2707672927742515
0.1622932725041877
-0.05094082339626058
-0.2198264681822352
-0.01679573471327166
0.01679573450624046
0.3676617722933712
0.2851626623454103
-0.5281710380763268
-0.09392727431501793
-0.03279894420833428
0.5289677412423991
0.2098450879181511
-0.1697185436648565
-0.3797772045062403
0.07654284161002727
-0.1471068310105471
0.1866857148090856
-0.03957888349201285
-0.06723132021643823
0.06723131975664079
0.8221279263610587
-0.5603476411852899
-0.005478348438740534
0.01634998596522963
-0.02002545375028712
-0.2874592209826796
-0.01748026116333555
-0.01284428955249851
-0.1322316321143985
-0.5723453564443938
0.5561577669543726
-0.5689770483878865
-0.006887259561139046
0.1000875372844457
-0.001723436395349043
0.01683127305898165
-0.1671322920549035
-0.3360318793484542
0.2329441785527055
-0.05396741849841213
0.03505643212249417
0.1321882664442622
0.1736389500005046
0.342438880804242
0.2757690157655856
-0.2774924524172129
-0.06177291484151106
-0.1552709554731347
-0.2204225649705378
0.07449533632094486
-0.0102777258189767
0.2133944642495427
-0.1965631909727996
-0.08626707438189406
0.1595059763093891
-0.3553098430353899
0.2078715648839335
-0.1913789301415134
0.08960136685989034
-0.4788708909358831
0.1738414239538285
0.170836048011625
-0.2571031238473563
0.07347701020425632
-0.1949729071586862
0.1774926456957146
0.01738242021584591
0.1421235565794648
-0.03959020169932433
0.06560486315719617
0.4673567345358111
0.02052791895205582
-0.08627593549327373
0.05396624844259924
0.1263143796726073
-0.2600014516825356
-0.2309379515336294
0.5597401378799407
0.1568652025872869
0.07874489435825394
0.07452766161080902
-0.03104563119385158
-0.006634847213453044
0.00152719252973546
-0.03261662433980004
0.1705813606528667
-0.1774686200712066
-0.0615771810777553
0.01939175869867852
-0.1472566226835365
-0.05284934271343456
0.1529380147908793
0.2770355639091918
-0.0400418930389119
0.008205296835530659
-0.2552574542199227
-0.1325233152783619
0.2363937394804914
0.1783460849138107
0.1296456512623692
0.02201553016229255
0.08838739563613246
0.05242858817415499
0.4522918324499315
0.01530955334844433
0.09812080348736385
0.0428943427286255
0.07238914574945469
-0.1152834885607507
-0.2430083745625171
-0.2003616207088679
-0.01946485072244485
-0.2018353236951985
0.2747223030855021
)
;

boundaryField
{
    FrontBack
    {
        type            empty;
    }
    Top
    {
        type            calculated;
        value           uniform 0;
    }
    In
    {
        type            calculated;
        value           uniform -1;
    }
    Bottom
    {
        type            calculated;
        value           uniform 0;
    }
    Out
    {
        type            calculated;
        value           nonuniform List<scalar> 10(1.034468775659183 1.064136183082132 1.022884600756073 1.021348816783603 0.9952579794788531 1.014470588490981 1.035198530817115 1.062960784965013 0.8672304405005324 0.8820437901730166);
    }
    circle
    {
        type            calculated;
        value           uniform 0;
    }
}


// ************************************************************************* //
