/*--------------------------------*- C++ -*----------------------------------*\
| =========                 |                                                 |
| \\      /  F ield         | OpenFOAM: The Open Source CFD Toolbox           |
|  \\    /   O peration     | Version:  2412                                  |
|   \\  /    A nd           | Website:  www.openfoam.com                      |
|    \\/     M anipulation  |                                                 |
\*---------------------------------------------------------------------------*/
FoamFile
{
    version     2.0;
    format      ascii;
    arch        "LSB;label=32;scalar=64";
    class       volScalarField;
    location    "1751";
    object      yPlus;
}
// * * * * * * * * * * * * * * * * * * * * * * * * * * * * * * * * * * * * * //

dimensions      [0 0 0 0 0 0 0];

internalField   uniform 0;

boundaryField
{
    FrontBack
    {
        type            empty;
    }
    Top
    {
        type            calculated;
        value           nonuniform List<scalar> 
15
(
142.2825358387361
133.5610872632031
138.0604195216288
144.3860844962576
159.7582590222208
131.3661390330331
140.1153438953537
135.3395426412591
153.4488110268518
135.7265294247628
136.0785400048101
136.7795475181511
125.2516238062013
132.9079557550187
123.9560560017075
)
;
    }
    In
    {
        type            calculated;
        value           uniform 0;
    }
    Bottom
    {
        type            calculated;
        value           nonuniform List<scalar> 
15
(
155.5682292159827
158.115449187403
141.10445155733
142.0657938822089
141.186840458261
148.4496298982148
142.7143472575318
143.1577233781505
143.4212973438028
134.0677795022594
125.7352489751723
141.5631043095874
122.4084139513682
123.4865206497107
124.1401226759551
)
;
    }
    Out
    {
        type            calculated;
        value           uniform 0;
    }
    circle
    {
        type            calculated;
        value           nonuniform List<scalar> 
32
(
56.00323138699005
21.73176913141914
65.191429253926
26.44812119111948
20.42328303478648
56.28950568657151
56.58640489268102
23.83007034315917
22.06396188262679
65.42867413086032
39.79537181082026
62.88461184527824
50.67261315547282
17.67125188854238
22.52309474954276
18.73625255660067
39.36022019058675
59.85599362200099
61.11310874521392
26.22885034480224
65.83470703916041
63.71605974574529
63.133470442656
59.81606893559027
64.20427939103116
46.08743741647607
66.4989394100046
32.24109444431882
37.83403775465224
55.63255350933219
21.40970524390186
43.02863855648187
)
;
    }
}


// ************************************************************************* //
