/*--------------------------------*- C++ -*----------------------------------*\
| =========                 |                                                 |
| \\      /  F ield         | OpenFOAM: The Open Source CFD Toolbox           |
|  \\    /   O peration     | Version:  2412                                  |
|   \\  /    A nd           | Website:  www.openfoam.com                      |
|    \\/     M anipulation  |                                                 |
\*---------------------------------------------------------------------------*/
FoamFile
{
    version     2.0;
    format      ascii;
    arch        "LSB;label=32;scalar=64";
    class       volScalarField;
    location    "1974";
    object      p;
}
// * * * * * * * * * * * * * * * * * * * * * * * * * * * * * * * * * * * * * //

dimensions      [0 2 -2 0 0 0 0];

internalField   nonuniform List<scalar> 
808
(
-0.03301489995288318
0.04390396250568124
-0.0114385917723064
0.03796158904297319
-0.2952105515634938
-0.05557079643639933
-0.01554124653694302
-0.02399762570039131
-0.1939930762946258
-0.08238099684691362
-0.01018104377363173
-0.2507177564299712
-0.03069150268535014
-0.01399251917378452
-0.1249647576340918
-0.01418359409664788
-0.1422770984039287
-0.01373390933732908
-0.01300317195627097
-0.05455379797257051
-0.007760224126478057
0.1164690011913792
-0.06352290769802539
-0.07024709277435023
0.1740208969626068
-0.1003497570570695
-0.1500356591887912
-0.02047613635658255
-0.01764560351346058
-0.02570791096366267
-0.02037585007246988
-0.0572548134524634
-0.02284761908554905
-0.01697872104907074
-0.09783427359084267
0.3451859807438517
-0.03990918374090472
-0.01659179337598086
-0.02246857737819045
-0.02651555696017207
-0.088723036997711
-0.1244714126408961
-0.05282134593224187
-0.02129301371765583
-0.05553392957400637
-0.04262443755998562
-0.01199110883694455
-0.1816063246450768
-0.02647546045939187
-0.2010726788281397
-0.01701653507345618
-0.0657911161477322
-0.06180815430542446
-0.01519040078095785
-0.1960113353009566
-0.02773924101889088
-0.01095293723075042
-0.01548272234224107
-0.09853900079990052
-0.0389828499097083
-0.105573450825264
-0.1237884672447178
-0.01441966755173829
-0.126218031965901
-0.0174136463487711
-0.05260759711167021
-0.1602921303413532
-0.03543658523124949
-0.0154335271956251
-0.4358565516811743
-0.0261492013528294
-0.2977164764982038
-0.02130902630632672
-0.02092391066979108
-0.06222659271058205
-0.01818014870316687
-0.04169050704327273
-0.3679327531557554
-0.03643865362955628
0.03816819316222391
-0.0926844755597251
-0.01679285944106198
0.05722069041746198
0.04633610357330166
-0.01749757042825336
-0.05126966457423552
-0.5365119603344645
-0.2293876035450076
-0.05108365488735749
-0.1139444595743188
-0.05533687117446537
-0.1303209522135726
0.03804934362454897
-0.02677391199052649
-0.06292338202123494
-0.1163068732410813
-0.03825473762404118
-0.05251101406458035
-0.1140696495810871
-0.1358712126610838
-0.05302175134211357
-0.04644810555323604
-0.05331058361330716
-0.04394828275666072
-0.05676823893839479
-0.07569177277515064
-0.04084418422243605
-0.01097479878393555
-0.03957380895252617
-0.1216551503151681
-0.04963020452502621
0.08095857859195961
-0.04174006928838898
-0.008045094004615918
-0.02759875503147874
0.1810876872591858
-0.03790231217873551
-0.2647426419613443
-0.02070877252039258
-0.05239569967667015
-0.03672558773023202
-0.04959975436389606
0.0142658999377025
-0.04740499414470589
-0.03691296159008189
-0.2206525413647365
-0.03968630202640926
-0.004561616086502649
-0.07425267157931284
-0.06993170780648078
-0.1432248561595671
-0.0211018582734622
-0.07388574354177543
-0.04453518672444194
-0.02301790016057571
-0.01478388314768249
-0.006182210377962506
-0.00735106619810214
-0.05172880032071121
-0.04870245082268638
-0.2197426259140351
-0.05515239214268906
-0.008206108365176174
-0.02180961163274101
-0.1495095661915565
-0.00266556637552995
-0.07494318913332956
-0.02058555075340695
-0.0004466641876220537
-0.01104263890762221
-0.03279821171097615
0.09275610182684167
-0.03769943910274531
0.2512964824090079
-0.2672671000652184
-0.1342406418199396
-0.03795506051130217
-0.09098100482458063
-0.009339047204638948
-0.1150573792725939
-0.1712075685878011
-0.2201659396054013
-0.1743138133420811
0.05721109182155609
-0.06401127819161122
-0.02061878461485735
-0.06595607266966122
-0.1646775586906288
-0.02297454344325233
-0.01852872374687577
-0.05076190077631434
-0.02107038022267697
-0.007429547247774706
-0.1052468983396161
-0.02350017483327198
-0.04379322390663233
-0.07125126166903471
-0.1584860991484842
-0.03303630531789864
-0.3841402683054932
-0.01796825617204931
-0.2283371978512907
-0.04324754627843674
0.03343124306703035
-0.1070009876564468
-0.01679782547598206
-0.04342154062921707
-0.1031353514015115
-0.01782647948493822
-0.09418354079973477
-0.207248719105137
-0.07065476645738437
-0.02410187099515225
-0.04668977078732521
-0.04178216531111743
-0.2039148515262714
-0.02236405219663373
-0.01930522321918396
-0.01123959026041284
-0.05766653690738344
-0.04941619273294896
-0.022542180953451
-0.02067974226731589
-0.2351074836414143
0.1266622318731773
-0.2080945209500928
-0.1883839123464056
-0.0117555718219253
-0.01123320565912567
-0.06641177772738621
-0.01050551747469547
-0.4947708154702734
-0.1214492985212495
-0.0195567310135716
0.0001375503390906426
-0.02366529933431038
-0.2766498500837317
-0.281211335768345
-0.00726316692854818
-0.01725873680551837
-0.001101002775584222
-0.3523812915717501
-0.02853157890589483
-0.02933081062080856
-0.01260787627899857
-0.01947547677874721
0.0483369412519855
-0.1165529962894435
-0.01444011848564392
-0.02093676027023709
-0.04574461498932039
-0.01836898475910813
-0.01633920397336462
-0.02354898089663178
-0.06828004389379137
-0.01109212034590632
-0.01894976553868006
-0.008799085009754327
-0.0009100222401843913
-0.02938133022247914
-0.001995519426026626
-0.002013816959914535
-0.005670573401706928
-0.02553693204135469
-0.00799709086892887
0.001485332567177677
-0.004274003953952703
0.001431501947816503
0.002459681186715672
-0.009013459906000689
-0.1343042549406089
-0.002922446100050426
-0.001006672055399198
-0.04771299320890605
-0.02153588934601635
-0.02365657364947489
-0.01420794349035211
-0.006235420146944159
-0.02106994072418022
-0.04052940131491493
-0.01469694279420851
-0.01286835972216891
-0.01124835908888204
0.008760236470206337
-0.009862649961193992
-0.01231480450584307
-0.01157555550329188
-0.01024782131241321
-0.01039765851333237
-0.01200536173417585
-0.0136627024770608
-0.2951356187990331
0.05849111455932869
-0.01583551141596409
-0.01476953253459513
-0.01261827018313781
-0.01181500297302036
-0.008508733264381773
-0.09687461667503673
0.01367248102222342
-0.01391575523206393
-0.01371023599077122
-0.01052112762931097
-0.05056936136566171
-0.009650429707372444
-0.01354313080559483
-0.01038059812628757
-0.000822106398106876
-0.01158239170399233
-0.01216991949911192
-0.02426197371972962
-0.015399925982004
-0.01209197156749946
-0.01358982987851858
-0.008102164032927583
-0.01214356534663787
-0.01143759425391567
-0.06011517444383354
-0.0136495082056813
-0.01164564520832346
-0.009111719121525346
-0.0152529718499114
-0.01366175032398395
-0.0156217435895781
-1.36140361569042
-0.1008649261248929
-0.01278495055961818
0.02680926324200623
-0.1601149920955248
-0.09190718834595688
-0.01234658728264843
-0.01415253521710056
-0.2300283783687568
-0.02783288984234937
-0.01727726269052385
-0.01230915334501496
-0.02033007514239948
-0.01001387027213519
-0.03082844541811434
-0.4066294154323241
-0.0122841420332556
-0.01409426479604442
-0.004459928343100545
-0.01139331385093858
-0.01072372766049822
-0.01386280964352245
-0.006166503521696215
-0.02718437261776967
-0.01188418923197088
-0.1746193515062469
0.02017578317832132
-0.007270649563995591
0.004458546013618733
0.01305921127590086
-0.04905777517198899
0.02724659080082483
-0.01340668891061036
-0.1314281679653787
0.283058096316275
-0.007855575802293959
-0.01377105932148575
-0.007947860019857918
-0.03271946475222245
-0.1262433775166947
-0.012346306882173
-0.01191696076018943
-0.01721492051263408
-0.01346185294784295
-0.04174008634968276
-0.2210838698917603
-0.009187957928171843
-0.043994775997234
-0.0384380553343525
-0.1795273816553682
-0.1539847891954864
-0.1399258576864536
-0.2204058046251916
-0.003866759366116705
-0.02068233776001922
-0.01481083246338583
-0.01356930768821922
-0.03383556379185552
-0.02456594313290908
-0.01399679167116728
-0.01484477003151943
-1.065750129272662
-0.00507004041763161
-0.01308789726823141
-0.01811012719532313
-0.02471923919707871
0.001211876739119579
-0.01494918857873657
-0.02492996035805342
-0.1468571377157792
-0.01370035309668532
-0.02133719047680683
-0.01441555107155472
-0.001688879739506435
-0.1778428907015088
-0.01244880101874687
-0.1525145862414885
-0.01551580673865302
0.001875714154981531
-0.01420057761356389
-0.02422682910567327
-0.01603734283986684
0.005967695328327987
-0.2667733360083124
-0.02665504129916152
-0.01659539074522097
-0.008993530784746019
-0.01076720509321941
-0.02924580564959051
-0.01377462039707283
-0.02100953042087978
-0.02052194564748094
0.01321893446242508
-0.09696918401905701
-0.02114259769353061
0.009555374136182373
-0.0591137029137114
0.1831191346480082
-0.1070675957132966
-0.3140833243203817
-0.03042760250095309
-0.02595702623975081
0.1520104791411437
0.08103988490949465
-0.003885366289436418
0.05196048955792133
-0.01498330714006353
-0.01351572683714493
0.002703818433248864
0.007499756606076502
-0.06440285249271323
-0.005181128201777941
-0.05578143495252422
-0.02294736187437774
-0.01571175319077021
-0.03652716658220338
-0.03292384069647285
-0.006682161278638084
-0.01484733349122905
-0.03624450612192312
0.03314068281852853
-0.0386848115879818
-0.01405937751275826
-0.1201927911253366
-0.03108837793109626
-0.04006623952015402
-0.6660030932068198
0.01788613062271184
-0.0101605742220899
-0.005959819985952085
0.1751411224259128
-0.09770847643472563
-0.03590661872736616
-0.2408054691115241
-0.01557061955432138
-0.01605815634727316
0.08211633058060214
-0.1785940134833456
-0.2363764434104648
-0.1867258758083564
-0.6740429289550464
0.004250929223392983
-0.01778218293810188
-0.01613296282151117
-0.09141471348330292
0.1189422480896929
-0.02130968003091825
-0.2292459287531765
-0.03629847914384882
-0.007025708134269462
0.2815406011391151
-0.010929588930718
-0.09021693050850166
-0.1539350381306544
-0.003521995669436062
-0.04169366352599025
-0.05221393222276
-0.1974126172580357
-0.007716941191162306
-0.03934974135456738
-0.00302299456982072
-0.5415476287357747
-0.1912366247188514
-0.1798378919966804
-0.02349758536284709
-0.008867100293108802
-0.06247159335383271
-0.05610772140344592
-0.01431411049682126
-0.06994560423608162
0.005244949203787771
-0.01759834454198506
-0.09329031634534039
-0.2780431255746084
-0.008659952235458292
-0.02521684491451952
-0.02129959883729788
-0.07673013279560759
-0.08844237777110416
-0.09014593473327732
-0.01190764437887641
-0.9067288270523274
0.1627782753914558
-0.08052522280330018
-0.2479003623147306
-0.04112655940183385
-0.009524038019134101
-0.2542879108451436
-0.2005457926305887
-0.03031781794870477
-0.1192402233884159
-0.01922362276901203
0.5638148980341636
-0.02524022152542149
-0.2160270818456769
-0.02490214008117888
-0.00472100108558688
-0.01117018248290632
-1.239328125405603
-0.179369562470678
-0.2250793967487874
0.005188043325197051
-0.03957564275899097
-0.2391585974697263
-0.06741179878790467
-0.05235258410339252
-0.1475882290098668
-0.1774435590057589
-0.07036227581823574
-1.211003135490419
-0.1557666423897024
-0.5422399084426179
0.08037411786948109
-0.005775341560310254
-0.02090754257327651
-0.04509816750906779
-0.03749759439228383
-0.02774566465665726
-0.1280782075706591
0.08199981513512232
-0.002626030551970899
-0.01001756568968725
-0.5627560987683718
-0.8470960806804519
-0.1737912037132829
-0.007900325850173449
-0.1279686815915055
0.0005346332352543454
-0.0001446210813559347
-0.002681455741905796
-0.06124980023537899
-0.2319095240149166
-0.01323125370343558
-0.1147035779459649
-0.1585424920076394
-0.01310392814892615
-0.03427964129804251
0.02960719841673248
-0.05903527804825769
-0.07248144846919435
-0.4914785317937784
-0.2076536164444905
-0.07894045009016348
-0.07624919295834585
-0.01930683919025639
-0.1163758211520692
-0.1618623859206328
-0.07987988356042806
0.02416905170435215
-0.08774048175921491
-0.05085759370924021
-0.01488513593726314
-0.1109316429965672
-0.2820147590946785
-0.0600640406377031
-0.01794229405097643
-0.0001782074750386264
-0.01007095368706413
-0.01053081780475519
-0.2341775059534089
-0.0146615134457614
-0.2150405689600322
-0.01040617422653221
-0.07533872480950128
-0.004483947375953271
-0.0232891802384311
-0.3934538250099314
-0.9322766521240748
-0.01127050250995332
-1.035720699303484
-0.59999013779258
-0.01039891696553544
-0.6665518534463947
-0.1892871035310685
-0.005628195053601891
-0.124142885557022
-0.01676564863566881
-0.126467714635218
-0.06425895715184216
-0.08263298103516985
-0.00518505273790808
-0.002540531880958004
-1.35240830241915
-0.01157006215546961
-0.1799494811398174
0.001040557126705504
-1.000199452197513
-1.254218580335006
-0.07749141476315473
0.01522927292531731
0.1646784691135816
-0.004563476856663249
-0.02299594590028699
-0.004250376988875932
-0.2402719099454916
0.3653291425398963
-0.04240875045631425
-0.2153421409371143
-0.01513696586573613
-0.6457988845142824
-0.07146558380048994
0.1875969641658501
-0.3021777222435793
-0.05096541586918549
-0.07059740162065489
-0.01588091672699076
-0.02144372334150083
-0.5956245782715018
-0.1528746649339154
-0.09307313828299346
-0.1198107491719142
-0.5470328023824832
-0.04551205482660916
-0.896949762444644
0.0004850407967200792
-0.245182843545094
-1.061093044008827
0.1619670664145397
0.2880035514887493
-0.1769209515891553
-0.1870485265310104
-0.2186914713935013
-0.06564557646495431
0.02409030031458828
0.04206906539399376
0.003663706886149423
-0.1580861831462825
0.02660995773059104
-1.37349561864779
-0.08758756301616269
-0.4818394942278398
-0.3375401459000117
-0.2184121177113101
-0.181945905496221
-0.01695177192908581
-0.01540085112569415
-0.09737918504470777
0.1759458939601928
0.3837800480492929
-0.1972701409791568
-0.1499118447120407
-0.2154462393450578
-0.06388330631722725
-0.1591139716846633
-0.1722973890016226
-0.1283498058554416
-0.1159021527853896
0.4623557166435947
-0.2831275125350285
0.4347594005320649
-0.5875532154777302
0.07398137218866173
-0.1887764572749483
-0.06822762709906555
-0.07890271603864556
-0.8978288447255803
-0.2126340555166552
-0.1946294931901531
-0.3561430366318078
-0.4681633888926817
0.5694990862521901
-0.2178239144782747
0.003330537425218748
-0.06649348990599431
0.346763847489571
-0.0342311156839722
-0.1269837732543856
-0.1834137563619714
-0.06385967685102731
-0.01639683399876438
-0.2017115594352087
0.1994892592786528
-0.01280307138963413
-0.09920614488895949
-0.178123393638796
-0.3231821110030357
-0.3064229396644335
-0.07800374168689678
-0.009773954003897259
-0.08322722436821547
-0.645234236118727
-0.679639261454661
-0.3256729227986649
-0.05947630414381929
-0.04887242174777146
-0.02441660362412734
-0.07068922238903093
-0.05425389842942369
-0.3693286970893779
-0.9690649250534819
-0.009436994150999268
-0.08582546110792327
-1.151971231166989
-1.04825307410596
-0.1114860364253643
-0.04251118761758847
-0.06729120265789143
0.387125952319551
-0.3372416116943767
-0.04940472654583854
-0.6088951419339855
-0.1328572885765723
-0.2468234788226388
-0.2163633792821112
0.4727078104017544
-0.6401330835972908
0.07853427891576778
-0.02834554709983329
-0.572320958125864
-0.05516847646507163
-0.3692352680992618
0.1112733050589632
-0.1945361614067962
-0.06177804807087762
-0.1292294762013819
-0.354520212188867
-0.08170609339485985
0.5165230315631021
0.08765723308070397
0.4684800587357454
-0.1093997377894394
-0.2084530005066219
-0.5086684214102777
-0.1367357658155983
0.02356674016050198
-0.05601237232111246
0.09823442099788909
-0.2992859532472562
0.2365281566737706
0.00356424719658834
-0.002570536922566668
-0.5049904552652623
-0.1802823987574276
-0.09013247140226396
0.5814607723873368
0.1401230306043633
0.3411372332545312
0.2250278667897872
-0.5706559921367597
-0.1928093929642972
-0.2256708221757925
-0.2197158701647986
-0.06266328360760141
-0.6841358357402171
-0.1872179143158701
0.303400671182134
-0.1887639834904464
-0.01146293206215475
-0.1597141337944681
-0.01236769495905418
-0.1686244314616209
-0.4486582094492055
-0.07577057746118389
-0.2097979198718649
-0.07399725467004302
-0.09905955292123801
-0.1351829752079001
-0.07182040138884688
-0.4407191660000421
-0.4073017393155905
-0.0223314675146308
-0.07848203508531293
0.3317032857845976
-0.2533725041679561
-0.1726388902437059
0.5230176931370067
-0.1956041157529702
0.02250930335513606
-0.4577458410854776
0.0531379065739102
-0.05887373359992745
-0.1411554358309578
-0.5951039090658531
0.1564398117342718
-0.5717392888375868
-0.5439711830032772
-0.09996770270694143
-0.5162318687037769
-0.03594257527657821
-0.1506752692969563
-0.4180349135366143
-0.01598997464594087
0.2892229664509703
0.4901157091589379
-0.1672132871173168
-0.004759335428442127
-0.09127638773316882
0.5248716894906247
-0.03198509773267136
-0.4479290553615066
-0.03168161423678136
0.4626039267746314
-0.01800406661840357
-0.5532608124313512
-0.2462148329486636
0.1791964097405564
-0.3171251125620193
-0.1838717648897455
0.04593868272012853
0.03072687172234003
0.05726611737733185
-0.3060661083354198
-0.1611980378945611
0.4128257129614493
)
;

boundaryField
{
    FrontBack
    {
        type            empty;
    }
    Top
    {
        type            zeroGradient;
    }
    In
    {
        type            zeroGradient;
    }
    Bottom
    {
        type            zeroGradient;
    }
    Out
    {
        type            fixedValue;
        value           uniform 0;
    }
    circle
    {
        type            zeroGradient;
    }
}


// ************************************************************************* //
