/*--------------------------------*- C++ -*----------------------------------*\
| =========                 |                                                 |
| \\      /  F ield         | OpenFOAM: The Open Source CFD Toolbox           |
|  \\    /   O peration     | Version:  2412                                  |
|   \\  /    A nd           | Website:  www.openfoam.com                      |
|    \\/     M anipulation  |                                                 |
\*---------------------------------------------------------------------------*/
FoamFile
{
    version     2.0;
    format      ascii;
    arch        "LSB;label=32;scalar=64";
    class       volScalarField;
    location    "1457.5";
    object      yPlus;
}
// * * * * * * * * * * * * * * * * * * * * * * * * * * * * * * * * * * * * * //

dimensions      [0 0 0 0 0 0 0];

internalField   uniform 0;

boundaryField
{
    FrontBack
    {
        type            empty;
    }
    Top
    {
        type            calculated;
        value           nonuniform List<scalar> 
15
(
142.275324530648
133.5725263945262
138.0700230434977
144.4047658883948
159.7714757278256
131.3687164327872
140.1260428047382
135.3589112432568
153.4358564446873
135.7442295498311
136.0947250363804
136.7715821990673
125.2474296148522
132.9038712229585
123.9472503884369
)
;
    }
    In
    {
        type            calculated;
        value           uniform 0;
    }
    Bottom
    {
        type            calculated;
        value           nonuniform List<scalar> 
15
(
155.5651856415257
158.1137031016632
141.089323670167
142.0647691574594
141.1822032207002
148.4404003414759
142.7035322192603
143.1640564759295
143.4238727189264
134.0559601604447
125.7319650899108
141.5527047490924
122.411221337064
123.4915093952987
124.1387320394511
)
;
    }
    Out
    {
        type            calculated;
        value           uniform 0;
    }
    circle
    {
        type            calculated;
        value           nonuniform List<scalar> 
32
(
56.36856982300745
22.15293912569691
65.32748396883214
23.63042854881392
19.09894689780812
56.16836337653049
56.81834075387256
24.15549360553456
22.35553302270461
65.54726312145615
40.19079495240306
63.05691736972321
50.30005928522421
13.54717674894677
23.73934309425439
18.87804251866056
38.87900661313747
59.58625461661499
61.00129407130039
24.9134827849613
65.71244679943933
63.82849915397779
62.94477900697132
59.93047575917656
64.0917244082532
45.9492477429688
66.35358133286938
32.0668103305367
38.01791482223097
55.76055460931239
21.06857824582645
43.16233155390812
)
;
    }
}


// ************************************************************************* //
