/*--------------------------------*- C++ -*----------------------------------*\
| =========                 |                                                 |
| \\      /  F ield         | OpenFOAM: The Open Source CFD Toolbox           |
|  \\    /   O peration     | Version:  2412                                  |
|   \\  /    A nd           | Website:  www.openfoam.com                      |
|    \\/     M anipulation  |                                                 |
\*---------------------------------------------------------------------------*/
FoamFile
{
    version     2.0;
    format      ascii;
    arch        "LSB;label=32;scalar=64";
    class       surfaceScalarField;
    location    "15.5";
    object      phi;
}
// * * * * * * * * * * * * * * * * * * * * * * * * * * * * * * * * * * * * * //

dimensions      [0 3 -1 0 0 0 0];

oriented        oriented;

internalField   nonuniform List<scalar> 
1171
(
-0.945112
0.945112
0.77559
-1.08864
0.313054
-0.299402
-0.744892
1.04429
0.0548882
-0.0643574
-0.278127
0.342484
-0.77559
0.0912605
0.68433
0.941688
-0.218639
-0.723049
0.833182
-1.04023
0.207049
-0.358769
-0.0351556
0.393925
-0.00248563
0.608022
-0.605536
-0.501558
0.929468
-0.42791
-0.423127
1.00635
-0.173164
0.238382
0.0930075
-0.33139
0.987452
0.0188942
0.27054
-0.0321582
1.01322
-0.0257679
0.643417
-0.942819
-0.788179
0.610204
0.177974
0.311292
-0.81285
0.558783
-0.91445
0.355667
-1.08087
0.671756
0.409112
-0.645778
0.643292
0.0313397
-0.250246
0.218906
0.0343235
-0.633875
0.599551
0.469066
-0.504222
-0.837597
0.863664
-0.026067
1.00112
0.0120979
0.896634
-1.05399
0.157352
1.01271
-0.0115918
-0.70022
-0.0879585
1.24083
-0.829765
-0.411064
0.175117
-0.0757421
-0.416402
0.492144
-0.273148
0.185654
0.0874941
-0.606389
-0.482256
0.955468
-0.0588334
-0.0265305
0.876864
-0.850334
0.517714
0.723116
0.53228
0.0248977
0.444168
-0.791082
-0.105307
0.896389
0.58876
0.22491
-0.81367
0.0547042
0.585477
-0.640181
-0.509837
-0.571031
-0.383232
-0.670753
0.0297038
0.244913
-0.274616
-0.945783
-0.0340345
0.979817
0.377412
0.0165124
0.842674
0.0990132
-0.605759
-0.040019
0.0353048
-0.826387
0.113822
0.905245
-1.01907
-0.404808
0.0280406
0.376768
-0.711333
-0.23445
-0.69122
0.805042
0.662209
0.267259
-0.580639
0.994251
-0.820485
-0.173766
-0.0759536
-0.050596
0.12655
-0.460785
-0.0434366
-0.299369
0.961579
-0.0130129
0.441596
-0.428583
-0.482271
1.07103
0.715249
-0.820556
0.396282
-0.0790038
-0.317278
0.757863
-0.757863
-0.910181
0.0386588
-0.316786
-0.692366
0.665835
-0.0312233
-0.143774
0.174997
0.884018
-0.00715367
1.03063
-0.805722
0.225581
-0.321457
0.0958756
0.977468
-0.134794
-0.676743
-0.0474108
0.724154
0.148504
-0.230492
0.081988
0.795435
-1.01407
-0.440694
0.309858
0.130836
0.671833
-0.637509
0.858042
-0.388402
-0.469639
0.474809
-0.694165
0.0356821
0.658483
0.163798
0.666776
0.0483198
-0.715096
0.133907
-0.0952484
-0.51081
0.106002
0.0358988
-0.906282
0.870383
-0.540867
-0.760693
0.0604725
0.502425
-0.0582565
0.275707
-0.833296
0.557589
0.424698
0.575302
0.599131
-0.563826
-0.383269
-0.0282782
0.411547
0.5376
0.220263
-0.661718
0.716422
0.0860228
0.886696
0.00414523
-0.680889
-0.764446
0.800345
0.619365
0.104239
0.364542
-0.468782
-0.154631
0.526477
0.0590001
0.896986
-0.79006
-0.106926
0.654029
0.340222
-0.431081
0.700496
-0.596257
0.409355
0.149429
-0.0573041
-0.696313
-0.184115
0.880429
-0.125702
-0.632161
-0.612623
0.362192
0.250431
0.660952
-0.656807
0.311261
1.01487
0.0157669
-0.764446
-0.13803
0.0620769
0.715249
0.783704
-0.783704
0.84581
-0.831421
-0.0143884
-0.453782
0.87848
-0.192456
-0.318354
0.763958
-0.669491
-0.0944663
-0.85877
0.162456
0.108517
-0.714276
0.820556
-0.975187
-0.184472
0.185
-0.000527994
0.113065
-0.982781
0.869717
0.550492
-0.0182123
-0.288848
0.594466
-0.305618
-0.646276
0.759341
-0.159532
0.704025
-0.873775
0.16975
1.11413
-0.646717
-0.467412
0.7264
-0.0706844
-0.00101033
0.00126484
-0.000254509
-0.800712
-0.915569
0.170677
-0.692366
0.574667
-0.546626
0.086932
0.688925
-0.775857
0.778834
0.166278
0.491213
0.508787
-0.0398046
-0.687244
0.727049
0.895504
0.00148204
-0.7264
0.800345
0.180871
-0.431117
-0.0320724
0.0169217
0.0151506
0.672173
-0.432044
-0.240129
0.68433
-0.0406298
-0.211544
0.560214
0.111959
-0.0167277
0.000807023
0.0159206
0.00574768
-0.00675801
0.128302
-0.207306
-0.943236
0.0320841
-0.142892
-0.0561706
0.129483
0.771661
0.742005
-0.166704
0.536079
-0.449147
-0.162407
0.387988
0.630509
0.0538209
0.22904
-1.06046
-0.975187
0.319156
0.665835
-0.159936
0.016162
-0.803745
0.999948
-0.196203
0.480893
-0.104125
0.799699
0.305835
0.252699
0.0178411
-0.680824
0.680824
0.225368
0.671021
-0.0164632
0.458059
0.475681
0.00282578
-0.0348981
0.547937
0.00255532
-0.646276
0.571672
0.192286
-0.000565518
0.00183036
-0.630509
0.170514
0.829434
-0.00688077
-0.70923
0.716111
0.760126
-0.8218
0.0616739
-0.778834
-0.0315718
0.0444879
-0.0129161
0.0855501
-0.121403
-0.103858
0.225261
-0.00628642
-0.0104412
0.717864
-0.724745
0.9012
0.143093
-0.389145
-0.525703
0.914848
-0.00175447
0.00175447
0.156722
0.448619
0.638522
-1.08714
-0.196196
-0.548081
0.744276
-0.0204338
0.195431
0.381399
-0.232895
1.06264
-0.61402
0.765376
1.01442
-0.375897
0.188943
0.759341
0.586177
0.218393
0.645271
-0.632161
0.319176
-0.0316527
-0.016025
0.0476777
0.904447
-0.0324475
-0.871999
-0.560409
0.548817
0.546218
-0.560409
-0.586177
0.548817
0.0101152
0.956549
-0.0553484
-0.5376
0.47516
0.06244
0.523975
0.599663
-1.12364
0.499343
0.563295
0.617079
0.48879
-1.10587
0.504961
0.509458
0.47516
-0.493766
-0.519236
-0.606264
-0.562954
-0.18485
-0.00591215
0.00591215
0.594894
0.547476
-1.11043
0.730921
-0.366378
-1.03844
0.391719
-0.683853
0.449403
-0.0202761
-0.950765
0.971041
0.453157
-0.0303579
0.934805
-1.08037
-0.985374
0.0790132
0.906361
0.249427
-0.140779
-0.108648
0.73008
-0.788913
0.968557
-0.977203
0.00864609
-0.00636322
-0.783696
-0.161823
0.893113
-0.731289
-0.984103
0.977739
-0.6922
0.596438
0.0957624
-0.79824
0.0682617
0.729979
0.00313458
-0.00488905
0.425136
0.111808
-0.955759
0.84395
-0.777665
0.73786
1.02789
0.0856348
-1.11353
0.0425176
-0.00239293
0.41394
-0.360766
0.0393089
0.934509
-0.954785
-0.655147
-0.788059
0.00436284
-0.160768
-0.96746
-0.00974257
0.52245
0.0136289
-0.0933402
0.342767
-0.662414
0.730675
0.469639
-0.981123
-0.898468
0.0580808
-0.111968
0.700114
-0.588146
0.00358079
-0.767114
0.578554
0.181572
-0.0377003
0.972505
1.05675
0.943661
-0.953403
0.0456739
-0.0456739
-0.0772953
-0.128953
-0.0118263
0.34256
-0.0234045
0.212069
0.976086
0.0117788
-0.0180652
0.658343
0.341657
0.797048
-0.606389
-0.751902
-0.620594
-0.52275
0.52275
-0.208748
-0.108038
0.647714
-0.948838
0.301124
-0.50332
-0.519695
0.347641
-1.01839
-0.97034
0.978986
-0.736421
0.740784
0.662521
0.198219
-0.86074
-0.524831
-0.183108
0.858881
-0.675773
-0.0057461
0.0086873
0.00205565
-0.010743
0.0533508
-0.182304
0.995355
0.603264
-0.302269
-0.300995
0.494617
0.750547
-0.525178
0.0135939
-0.286742
0.083599
0.748479
-0.832078
-0.355874
-0.0612433
0.142623
-1.00605
0.13405
-0.75062
0.117044
0.74245
-0.859493
-0.895596
0.144976
0.721
-0.782243
0.233044
-0.354447
-0.515142
-0.00968893
0.368643
0.732505
-0.032009
-0.00223415
0.00223415
-0.00510513
-0.00483001
-0.0268227
-0.0153073
0.0270861
-0.501514
0.335937
0.746382
-0.841463
0.0950803
-0.725411
0.842455
0.800653
-0.0796533
-0.713124
-0.182471
-1.10958
0.0209333
0.0247406
-0.417914
-0.874948
-0.840287
0.429222
-0.225093
0.271736
-0.0466427
-0.493938
0.076024
0.519607
0.713231
-0.0405727
-0.0155979
1.01574
0.507457
0.194882
-0.702339
-0.385538
-0.1084
-0.00256927
0.0112566
0.724274
-0.908389
0.00570849
-0.00570849
-0.712456
0.737185
-0.0247288
-0.478879
-0.110207
-0.70102
0.0764127
0.650636
-0.0520055
-0.884128
-0.210072
0.255128
-0.0450568
0.811095
-0.716015
0.343631
0.259044
-0.602675
-0.150673
-0.723661
-0.135832
-0.205
-0.133659
0.472122
-0.515559
0.171205
0.735617
-0.906822
0.474809
-0.176722
-0.0483708
-0.0543142
-0.0793447
0.59512
-0.0937746
-0.501345
-0.285635
0.306748
-0.021113
0.574156
0.156765
0.0769916
-0.312718
0.170821
0.141897
-0.105502
-0.0325281
-0.300828
0.159817
-0.00829395
-0.151523
0.899426
-0.331002
-0.147876
0.555334
0.29074
-0.593009
0.443037
-0.443037
-0.22854
-0.44068
-0.233575
-0.44068
-0.684304
-0.850444
0.180953
-0.342829
0.737977
0.0484933
0.161861
0.570644
0.108861
0.117477
0.0107613
-0.128238
-0.0877004
0.708262
-1.03134
0.505634
0.00231896
0.0561806
-0.0584996
-0.755426
-0.178214
-0.561189
0.756072
-0.524802
0.0167414
-0.0960861
-0.340682
-0.0800257
0.0800257
0.0451724
-0.000684549
0.13841
0.239208
-0.736017
0.174827
-0.013706
0.472927
0.527073
0.814852
0.0157156
0.021317
-0.0370326
-0.297626
-0.586502
-0.520786
0.114787
-0.119472
0.00468501
-0.132075
-0.412128
-0.0894407
0.740077
-0.591382
-0.164044
-0.0338547
0.00226026
0.149139
-0.373123
-0.197986
-0.182522
-0.0247836
-0.473808
0.428908
0.0448997
-0.00175495
0.294363
-0.865394
-0.537122
0.652377
-0.865101
0.714427
0.455666
-0.0320911
0.0572388
-0.0251477
0.12644
-0.634169
-0.0078316
0.642
-0.894184
0.647557
-0.724852
-0.0523516
0.00661893
-0.00661893
-0.299124
0.441617
-0.0276773
-0.00491887
0.0206345
0.587356
0.581506
-0.688433
0.0120029
0.00161702
-0.00385116
0.00455747
-0.00455747
-0.493717
0.650482
0.0151509
-0.0151509
-0.779881
-0.00778482
0.0109194
-0.496674
0.671501
0.56803
-0.592758
0.0688853
-0.0688853
0.00357731
-0.0384754
0.012909
-1.05823
0.590823
-0.54036
-0.00488905
0.606435
0.00493568
-0.611371
-0.711017
0.119635
-0.315199
-0.0130914
0.32829
-0.0203888
-0.0201839
-0.607311
-0.0268582
0.0247406
0.00572306
-1.45717e-05
-0.00291136
0.00291136
-0.393017
0.241494
-0.457419
0.133235
0.663813
-0.131695
0.00428979
-0.00428979
0.508609
-0.0303558
0.0083734
0.0181217
-0.00033159
0.626718
-0.657073
-0.778817
0.630941
-0.0987425
0.327773
0.765633
-0.00510513
-0.090375
0.0922054
-0.64679
0.550388
-0.256854
-0.104581
-0.0287566
-0.0260287
0.00600968
0.478236
-0.085816
-0.415529
0.707274
0.00135469
0.00437508
-0.00437508
-0.2044
-0.153809
-0.570324
0.618817
-0.135949
0.50865
-0.206443
0.84986
0.853238
0.00572306
-0.739652
0.641694
0.0196389
-0.0166745
-0.00296443
0.629186
0.0820709
-0.011979
0.0663297
-0.0543507
0.00906761
-0.00906761
-0.748234
0.0232114
-0.043162
0.0612837
-0.0858072
0.0858072
0.00161702
-0.000815333
0.747737
0.0816972
-0.316733
-0.0953952
-0.52199
-0.0142157
-0.0664433
0.0664433
-0.0334553
0.0811643
-0.0811643
0.0265805
-0.0265805
-0.357803
-0.0732781
0.239517
0.0703406
0.0321235
-0.727342
-0.0597904
0.159934
0.0209371
-0.240764
0.0811947
-0.0811947
-0.468202
-0.0473568
0.229037
-0.0101304
0.0028117
-0.662608
0.652492
0.0206042
-0.0540595
0.0287313
-0.0672067
-0.012279
-0.156866
0.169145
-0.148985
-0.205463
-0.0809131
0.0809131
0.0542945
-0.0542945
-0.0281237
-0.0937728
0.121896
-0.0298979
-0.189759
-0.00125993
-0.00259123
-0.241805
0.483299
-0.0257312
0.429696
0.00858563
0.00733501
-0.0508492
0.0508492
-0.732684
0.316324
-0.127381
-0.207624
-0.022868
-0.0173074
0.0201191
0.194285
0.0309764
-0.00232829
0.0019967
0.0849766
0.0298105
0.0560305
0.103903
-0.0211646
0.00556677
-0.00133341
0.00592143
0.00504322
0.00241435
-0.00745757
-0.00275806
0.00994031
0.0274406
-0.0274406
0.0490223
-0.0429825
0.0429825
-0.189945
0.0132564
0.0306293
-0.0756818
0.0175129
0.0774781
-0.0774781
0.239184
-0.235911
0.0869266
-0.0665568
-0.169355
-0.0151891
0.0151891
0.408244
0.250239
-0.52021
-0.0804112
-0.039061
0.54148
-0.00116663
-0.0593986
-0.465121
0.0911875
-0.151986
0.169046
-0.0170598
-0.0476675
0.0476675
0.856821
-0.59006
-0.00580136
0.0030433
-0.00578152
-0.286252
3.03811e-05
0.0048941
-0.0436283
-0.62976
0.569347
-0.662418
0.0144698
0.163313
0.0155941
0.0242688
-0.157767
-0.333888
0.258206
-0.0549775
0.0268539
0.17288
0.133868
0.197854
0.263124
-0.24753
0.00502865
-0.113372
-0.220715
0.067229
-0.0111985
0.160011
-0.135742
-0.068269
0.153246
-0.403374
0.120907
-0.103395
0.0585264
-0.474056
0.17394
0.178871
-0.24714
0.00761202
-0.177949
0.17798
0.00371664
0.149529
-0.0278316
0.0486931
0.459916
0.0122515
0.0157742
-0.00215984
0.0352549
-0.237775
-0.203052
0.590684
0.167435
0.061602
0.0754499
-0.0641185
0.0650856
-0.06805
-0.03034
0.165542
-0.151072
0.0217839
-0.00839259
-0.105027
-0.0284202
0.0273507
0.251972
-0.00945447
-0.00212113
-0.309588
-0.00692748
0.21818
0.139306
0.177019
0.0566163
0.0961653
0.0522876
0.535069
-0.00879098
0.105243
0.0415385
0.0668926
-0.108431
-0.269972
-0.195922
0.0265673
-0.222084
0.28302
)
;

boundaryField
{
    FrontBack
    {
        type            empty;
    }
    Top
    {
        type            calculated;
        value           uniform 0;
    }
    In
    {
        type            calculated;
        value           uniform -1;
    }
    Bottom
    {
        type            calculated;
        value           uniform 0;
    }
    Out
    {
        type            calculated;
        value           nonuniform List<scalar> 10(1.11642 1.01774 1.1255 1.06826 1.08845 1.07241 1.14237 1.02301 0.671576 0.674255);
    }
    circle
    {
        type            calculated;
        value           uniform 0;
    }
}


// ************************************************************************* //
