/*--------------------------------*- C++ -*----------------------------------*\
| =========                 |                                                 |
| \\      /  F ield         | OpenFOAM: The Open Source CFD Toolbox           |
|  \\    /   O peration     | Version:  2412                                  |
|   \\  /    A nd           | Website:  www.openfoam.com                      |
|    \\/     M anipulation  |                                                 |
\*---------------------------------------------------------------------------*/
FoamFile
{
    version     2.0;
    format      ascii;
    arch        "LSB;label=32;scalar=64";
    class       volVectorField;
    location    "15.5";
    object      U;
}
// * * * * * * * * * * * * * * * * * * * * * * * * * * * * * * * * * * * * * //

dimensions      [0 1 -1 0 0 0 0];

internalField   nonuniform List<vector> 
808
(
(0.890763 -0.0112876 0)
(1.02703 -0.0363257 0)
(1.17462 0.0928398 0)
(1.07086 0.0107798 -2.18454e-21)
(1.4743 -0.298185 0)
(0.959309 -0.0271853 0)
(1.14864 -0.061825 2.61036e-21)
(1.11654 -0.0324014 0)
(1.35184 -0.234706 2.44434e-20)
(1.23701 -0.0966679 -1.06639e-20)
(1.13237 -0.0901628 5.02454e-21)
(1.37924 -0.268198 0)
(1.00118 -0.0331021 0)
(0.736929 -0.0276029 0)
(0.93005 0.0445949 1.85147e-20)
(1.07684 -0.0240346 0)
(0.816823 0.0218573 -5.75667e-21)
(1.00054 -0.0273378 -1.54534e-23)
(1.17816 0.0714576 0)
(1.12049 0.00320404 0)
(1.17816 -0.105353 -7.01274e-21)
(0.930508 0.123544 1.08724e-19)
(1.07592 0.0136603 -1.06005e-20)
(1.18106 -0.0336559 0)
(0.949627 0.181463 0)
(1.31809 0.0546685 -3.09411e-20)
(1.28142 -0.184484 8.34884e-21)
(0.950058 -0.00707245 -2.67219e-22)
(1.07344 -0.0190361 0)
(1.03381 0.044331 -3.56777e-22)
(0.987982 -0.0226036 3.00999e-25)
(1.12644 -0.0125304 0)
(1.01216 0.0119831 0)
(1.05789 -0.0136585 2.58379e-22)
(1.31151 -0.0807094 9.63208e-21)
(0.740526 -0.116801 1.10345e-19)
(0.874566 -0.0304996 -3.21077e-22)
(0.999363 0.0267216 3.61885e-22)
(1.19414 0.0480152 -4.27549e-22)
(1.08281 0.0112945 0)
(1.27096 -0.0710311 -1.93022e-20)
(1.27912 -0.138908 0)
(1.00713 0.00207652 -5.01024e-21)
(1.10595 -0.0558075 3.44279e-21)
(1.18767 0.00101751 0)
(1.01018 0.0164192 -1.72058e-20)
(0.981781 0.0412305 -4.68594e-23)
(1.25343 -0.258592 4.72199e-21)
(1.16925 0.0471179 -1.52606e-22)
(1.40851 -0.197034 -3.5313e-20)
(1.14115 -0.0654861 -3.65133e-21)
(1.15303 -0.0766343 0)
(1.12231 -0.00147197 4.43977e-21)
(1.09577 -0.0192675 0)
(1.31425 0.232102 5.28377e-21)
(1.06137 0.0413062 6.70224e-23)
(1.10175 -0.0188182 0)
(1.13324 -0.0455793 3.67838e-21)
(1.24042 -0.100937 1.14467e-20)
(1.13949 0.0392928 1.14667e-21)
(-0.293282 -0.0165089 0)
(1.21608 -0.218986 -6.86019e-21)
(1.13199 -0.0322807 0)
(1.44529 -0.0955134 -2.98898e-20)
(1.10628 -0.0602915 -4.78609e-21)
(1.04137 -0.0300117 -5.10223e-21)
(1.34398 -0.155097 3.01219e-20)
(0.621544 0.0144224 0)
(1.11387 -0.0760623 0)
(1.43452 -0.361986 0)
(0.884221 0.0313595 -6.36323e-23)
(1.22958 -0.151731 -3.83842e-20)
(0.999636 0.0506128 0)
(1.046 -0.0483933 -6.54031e-22)
(1.12349 -0.339614 -5.64115e-20)
(1.12516 -0.0603779 -3.25665e-22)
(1.1445 0.0287979 8.60023e-22)
(1.31634 0.491709 2.49698e-20)
(1.11315 -0.0507527 0)
(1.01339 0.279443 -1.78886e-19)
(1.34154 0.035407 1.81144e-20)
(0.722097 0.0226155 0)
(0.840445 0.0351507 -2.11734e-21)
(0.967921 -0.110604 4.15211e-21)
(1.10883 -0.0636997 4.4295e-22)
(1.19507 0.017724 2.12454e-21)
(1.26963 -0.243637 0)
(1.34555 0.280922 0)
(1.08942 0.000783114 -4.68891e-21)
(1.38518 0.0857937 3.41702e-20)
(1.08063 -0.0181673 7.94696e-21)
(1.32422 -0.133034 -1.44111e-21)
(0.965203 0.0263772 1.63432e-20)
(1.00427 -0.0227229 0)
(1.11651 0.0189325 1.0567e-21)
(1.32272 -0.0940552 -8.32659e-20)
(0.763614 0.0100516 -3.48531e-22)
(1.34443 -0.0342625 0)
(1.33472 -0.0969939 0)
(1.42718 -0.118164 -4.57159e-20)
(1.09744 -0.0590739 1.83973e-22)
(1.12624 0.0115474 1.22265e-22)
(0.953781 0.0239268 6.9916e-21)
(1.18797 0.0148552 -1.01113e-21)
(1.34207 0.0369399 -3.30503e-20)
(1.00038 0.00687528 1.05404e-20)
(1.45369 -0.00526806 0)
(0.928469 -0.0208243 0)
(1.09106 0.0346893 -6.24026e-22)
(1.20224 -0.225221 -7.08543e-21)
(1.28021 0.0250032 1.52217e-20)
(1.04692 0.0469838 -1.20041e-19)
(1.15162 0.041773 4.49527e-22)
(1.17595 0.0335388 3.26467e-21)
(0.803583 0.0113295 0)
(0.916721 -0.0483314 7.51403e-20)
(1.14554 0.0257901 1.17453e-21)
(1.42768 -0.276865 -1.70342e-20)
(1.10188 -0.0459317 -2.07988e-21)
(0.921648 0.0143553 2.48471e-21)
(-0.350058 -0.00319721 0)
(0.865417 -0.0158835 2.16806e-21)
(0.803784 0.0249613 0)
(1.06436 0.00264931 -6.82252e-23)
(1.01157 0.029058 0)
(1.30657 0.319028 8.24673e-21)
(1.0345 -0.0562723 -2.83473e-20)
(1.28258 0.0657314 2.76205e-21)
(1.15267 -0.0633799 0)
(1.09004 -0.0236156 0)
(0.566429 -0.0693816 0)
(1.10292 -0.0385817 -1.53974e-21)
(1.2572 -0.0541649 1.14016e-20)
(1.06509 0.112996 -3.12909e-20)
(0.85246 -0.0182852 0)
(1.10117 0.0256908 2.06067e-22)
(1.19072 0.0936156 1.12657e-21)
(1.17194 0.00395543 -2.18725e-23)
(0.977934 0.0330372 5.6878e-22)
(1.12768 0.0087392 -1.02499e-22)
(-0.0184941 0.0173311 0)
(1.09733 -0.020889 -8.94008e-21)
(1.20396 0.113949 1.37603e-21)
(0.718512 0.0248584 -8.74186e-22)
(1.2561 0.164922 2.39775e-21)
(1.1121 0.0347158 1.90427e-21)
(1.05003 0.0164955 1.41171e-20)
(0.991013 0.0269697 0)
(1.17032 0.00321478 -2.64381e-20)
(1.03304 -0.0186085 0)
(0.929835 0.0330471 1.53908e-21)
(0.968618 0.280074 1.43182e-19)
(0.960248 0.0328147 0)
(0.817938 0.0963575 0)
(-0.123614 -0.0264541 -6.85935e-20)
(1.33381 0.131301 -1.32659e-20)
(0.664094 -0.0229024 0)
(1.42925 0.0463831 0)
(1.16978 0.0992363 0)
(1.34427 0.095506 1.4645e-20)
(-0.0383626 -0.119072 0)
(-0.0635639 0.0303092 3.34327e-20)
(0.965817 -0.0781065 7.71939e-20)
(0.99637 0.0395067 -2.16568e-22)
(0.864171 0.00172178 0)
(1.02392 -0.0352986 3.58325e-21)
(0.894337 0.0248549 0)
(0.71872 -0.0599125 -8.34281e-20)
(1.02029 0.0475731 7.11494e-22)
(1.0991 -0.055188 1.80375e-21)
(1.09799 0.010285 2.90219e-21)
(1.01384 0.0692292 -1.10538e-20)
(0.795926 -0.0271825 -1.89575e-21)
(1.1385 -0.353219 5.71986e-22)
(0.91378 -0.0259618 0)
(1.0689 0.000459145 -1.10422e-20)
(0.876643 0.00908988 -9.02327e-21)
(1.3863 -0.183967 2.188e-21)
(0.690332 0.0304705 0)
(1.02612 -0.150448 0)
(1.09701 -0.0255235 1.40682e-21)
(1.38672 0.210438 1.06515e-20)
(1.1162 0.0202454 1.34691e-21)
(1.0372 0.0185503 1.87017e-20)
(0.664776 -0.00413258 -6.42399e-20)
(0.814678 0.00261264 1.7133e-20)
(1.13954 -0.0195579 1.19347e-21)
(1.40517 -0.0894239 -5.72167e-21)
(1.09897 -0.0401289 -3.18929e-21)
(1.33831 -0.0480987 4.90297e-21)
(-0.126787 0.000501999 5.00315e-20)
(1.28634 -0.0225235 0)
(0.594875 -0.0203401 0)
(1.06421 -0.0265417 -5.36544e-21)
(1.09933 0.0128072 -8.63247e-22)
(0.0254473 0.0467796 0)
(0.878425 -0.0209496 8.64691e-23)
(1.11065 -0.024421 -1.86985e-21)
(0.976163 -0.00516242 -9.756e-22)
(1.07847 0.0387586 -6.48242e-21)
(1.00973 0.0203113 2.73207e-21)
(1.03899 -0.0390534 1.64943e-21)
(1.03563 0.0287004 0)
(0.311025 -0.0470092 0)
(1.04613 -0.0626414 0)
(1.13923 0.101827 -2.97999e-20)
(-0.0353403 -0.132785 4.54858e-20)
(1.06144 -0.00330838 8.26888e-24)
(1.17531 0.075157 0)
(0.756222 0.018854 -1.14157e-21)
(1.13987 -0.0413478 3.00144e-22)
(-0.0112764 -0.0391683 -1.42224e-19)
(0.830987 -0.0227335 -5.4511e-20)
(0.608307 -0.0193861 0)
(1.00882 -0.0490643 0)
(0.926141 0.045548 2.02522e-21)
(0.994586 -0.122067 5.4332e-21)
(1.27539 0.393516 9.26571e-22)
(1.098 -0.0221359 -6.38131e-23)
(1.13283 -0.0253276 -3.72856e-21)
(1.02417 -0.0285158 0)
(1.35869 0.417818 -4.08676e-20)
(0.640766 -0.0224876 0)
(0.804362 -0.0214408 -1.34139e-21)
(1.02999 0.00481747 2.14216e-22)
(0.553324 0.0137158 0)
(1.1001 -0.00620979 0)
(0.0559251 -0.061006 -4.81443e-20)
(1.10365 0.00385418 -8.03768e-21)
(0.746367 -0.000957927 1.85805e-22)
(0.991147 -0.00199065 0)
(0.535823 -0.0112976 0)
(0.768549 -0.0088368 -7.3607e-22)
(0.533043 -0.00776402 -3.12344e-22)
(1.32587 0.052258 3.23835e-22)
(1.17846 0.0381562 -3.49851e-21)
(0.721147 0.000369012 3.5702e-22)
(1.07522 -0.00618222 -1.23935e-22)
(1.12383 -0.0239165 6.01315e-23)
(0.529634 0.0106803 -1.90055e-22)
(1.11972 -0.0141427 2.57409e-22)
(1.11701 -0.00985635 0)
(0.990671 -0.012354 0)
(0.511229 0.0060751 0)
(1.02009 0.00357545 0)
(1.12582 -0.00730727 -4.98294e-23)
(1.07024 -0.00588193 0)
(1.08813 -0.00117495 0)
(1.06949 0.0186024 0)
(1.12879 0.0535601 0)
(-0.0208892 -0.0443006 4.46161e-20)
(1.19926 -0.000667006 2.91011e-23)
(1.11995 0.0252711 0)
(1.37063 0.0523702 2.53832e-20)
(1.16266 0.00106604 -2.27491e-22)
(1.103 0.0456399 -7.21188e-22)
(1.17087 -0.0217856 2.88076e-21)
(1.14317 0.0182386 0)
(0.555395 -0.0147793 2.13844e-21)
(1.05065 0.0428375 1.07509e-20)
(1.19329 0.00355441 0)
(1.14249 -0.0360004 -4.01661e-22)
(1.16581 0.0157685 7.86688e-22)
(0.478904 0.0292355 -1.02308e-20)
(1.11101 0.0423464 2.23601e-21)
(1.1669 -0.0546379 -2.1933e-21)
(1.00085 -0.0158273 0)
(1.21693 0.0427703 -9.81348e-21)
(1.13342 0.004041 -2.5244e-21)
(0.828627 0.0880847 5.54189e-21)
(0.899083 0.0514162 0)
(-0.0243588 -0.0215736 0)
(0.977115 0.112608 -1.73242e-20)
(1.11146 -0.0316741 0)
(1.314 -0.0650406 2.73555e-20)
(1.14055 0.00552686 6.02925e-22)
(1.12772 -0.0406871 2.10848e-21)
(1.1433 0.0169643 -6.25479e-22)
(1.37652 -0.0646159 1.2259e-19)
(1.01905 -0.327075 5.6954e-20)
(1.13077 -0.0242506 -6.455e-22)
(0.963694 0.0679863 0)
(0.912462 -0.00285192 0)
(0.899853 0.00257758 -2.33423e-20)
(1.23427 -0.00122864 -3.69285e-20)
(1.15908 -0.0412066 0)
(0.689782 -0.00594682 4.96574e-21)
(0.321997 -0.124643 0)
(0.840762 0.0290012 3.43947e-21)
(0.913996 0.0523695 -5.74447e-21)
(0.802717 0.0282729 -1.06891e-21)
(1.17684 -0.0192323 0)
(1.18587 0.00391416 -7.03279e-22)
(1.14548 0.0230866 3.69111e-21)
(0.791101 0.0745063 -6.36161e-21)
(1.18164 -0.0311716 -2.67036e-21)
(0.885104 0.104514 0)
(1.09182 0.0720388 0)
(1.13421 -0.00886346 2.87259e-21)
(0.870155 0.0389229 -3.47442e-21)
(1.22655 0.00652536 3.57746e-21)
(1.12809 -0.0230154 -1.32063e-21)
(0.96803 0.0161934 5.56631e-22)
(1.10433 -0.0241645 0)
(0.40703 -0.1374 1.32473e-20)
(1.32571 0.0914712 -2.29142e-20)
(0.958389 0.0931894 -6.54834e-21)
(0.0593446 -0.000995689 1.08178e-20)
(1.43427 -0.155538 2.59265e-20)
(0.829252 -0.0239349 6.03327e-20)
(1.23508 -0.0304827 -2.9687e-21)
(1.12053 -0.0160845 -3.022e-22)
(-0.0487565 -0.142855 -7.76173e-21)
(0.999164 -0.00666785 0)
(1.03391 -0.0871574 -1.56758e-20)
(0.860626 -0.031734 3.5484e-22)
(1.08862 -0.0553761 7.76858e-22)
(0.78896 0.0486456 -1.25011e-21)
(0.538649 -0.0083249 -4.18884e-22)
(1.41217 -0.392628 -1.51021e-20)
(1.10855 0.0589497 0)
(1.02263 -0.0110825 8.84667e-23)
(1.12405 0.043692 -8.82879e-22)
(1.26794 -0.0753751 0)
(0.871718 -0.0309592 -3.14587e-21)
(1.12999 0.0465721 1.2031e-21)
(0.721904 0.0536671 1.75057e-20)
(1.16293 -0.0429923 1.25439e-20)
(0.933284 -0.0184206 1.72427e-21)
(-0.0367718 -0.0779384 0)
(0.258321 0.227188 2.19883e-21)
(1.12743 0.0476679 0)
(0.915436 0.105315 -6.42479e-21)
(0.848629 0.0691834 0)
(1.13293 -0.00323959 -1.84595e-21)
(1.01648 0.0266098 0)
(1.14452 -0.0538546 0)
(1.41036 -0.138497 2.31377e-20)
(0.796622 -0.0884849 0)
(1.13197 -0.102266 1.7897e-20)
(1.06705 -0.00566982 6.09822e-23)
(1.0469 0.0545295 1.06096e-21)
(1.28284 -0.0194375 -1.54554e-20)
(1.23994 0.124174 -7.0082e-21)
(1.16324 -0.00151587 1.49315e-20)
(1.15302 0.0563988 0)
(1.19794 -0.0853945 0)
(1.12842 0.0557759 8.92896e-22)
(1.23617 -0.0155675 0)
(1.40314 0.202485 -2.65553e-20)
(0.720552 -0.00149185 1.94757e-21)
(1.02741 0.0172421 1.87479e-20)
(1.25664 0.0487781 -4.27412e-22)
(-0.0111143 -0.0189267 0)
(-0.0294948 -0.0767489 0)
(0.0962362 -0.0153666 -4.11259e-20)
(-0.0382609 -0.141299 0)
(0.654626 -0.0369716 -1.25886e-20)
(1.17807 0.0460033 -3.36676e-22)
(1.15489 -0.0917095 -2.53031e-22)
(1.28785 -0.116253 -2.18868e-21)
(1.23208 -0.0333448 0)
(0.727299 0.0015569 1.39407e-22)
(1.17064 0.0622497 0)
(1.08508 -0.020341 -4.11953e-24)
(0.49091 -0.109491 0)
(0.703393 -0.0782821 -4.46497e-22)
(1.14969 0.0548791 0)
(1.11895 0.0148237 0)
(0.825615 0.0828226 6.88647e-20)
(0.610633 -0.130311 -1.64685e-21)
(0.944924 -4.5502e-05 3.96693e-22)
(1.01387 0.0180637 -8.12015e-21)
(0.15861 -0.109267 0)
(1.1576 -0.0434613 -2.23205e-20)
(1.20463 0.0650781 -6.91201e-21)
(1.10091 -0.0325018 5.43368e-22)
(0.745582 -0.127877 7.00844e-21)
(-0.0476271 -0.107474 -9.50852e-20)
(1.15111 0.0511307 0)
(-0.0361588 0.0401874 0)
(1.16903 0.0577101 5.06822e-23)
(0.56988 -0.16142 -7.54295e-21)
(1.0946 0.0277548 -4.72966e-21)
(1.11459 -0.0492834 0)
(1.13728 -0.0854726 -7.82399e-24)
(1.27434 -0.101256 2.52506e-20)
(0.514914 -0.0577947 -8.99463e-21)
(1.153 -0.0415548 2.1377e-21)
(1.1754 -0.0925862 1.92714e-22)
(0.185591 0.138905 1.24077e-20)
(1.23965 -0.130095 1.94458e-21)
(1.12604 0.0456618 0)
(1.16461 0.0544268 0)
(1.215 -0.0659326 6.56562e-21)
(1.16314 0.0752217 6.24691e-21)
(0.668193 -0.062724 -5.46369e-20)
(1.19458 -0.125678 -1.16455e-20)
(1.11054 0.0511894 1.27041e-21)
(0.481335 -0.00200798 1.74248e-21)
(0.399028 -0.0485846 -1.24463e-19)
(-0.16709 0.0289774 3.18543e-20)
(1.17157 0.181947 -6.60715e-21)
(1.23316 -0.499147 5.17925e-21)
(1.40299 0.0801606 -2.14932e-20)
(1.23302 -0.0445131 -7.78054e-21)
(0.937905 -0.235717 9.31391e-20)
(-0.173685 0.0645709 0)
(1.1188 -0.0155048 -3.30462e-22)
(0.0776634 0.25246 -1.90163e-20)
(1.16296 0.0570175 -4.3857e-23)
(1.15893 -0.00864841 5.12826e-21)
(1.0821 0.0374022 0)
(0.760081 -0.166809 0)
(1.17535 -0.0525002 0)
(1.19503 0.116632 1.1427e-21)
(1.26548 -0.0140662 -3.23361e-20)
(1.16689 -0.0592076 -5.77073e-21)
(0.515244 0.00822 0)
(0.676702 -0.000360372 0)
(0.679712 0.00232596 3.90197e-22)
(0.507023 -0.00893766 0)
(1.138 0.0148622 0)
(1.02144 -0.012508 2.23017e-20)
(0.460131 -0.0743687 0)
(0.931436 0.0294428 0)
(1.08388 -0.0283017 0)
(1.17324 0.186973 -2.87926e-21)
(1.25178 0.0556584 1.39072e-20)
(0.967298 -0.0317896 3.65125e-21)
(1.28357 -0.405279 -1.05025e-19)
(0.643221 -0.0636773 1.21449e-20)
(1.29562 0.0707751 2.83351e-21)
(1.24728 -0.0711464 0)
(-0.4953 0.0720025 0)
(-0.246163 -0.0173099 0)
(1.17677 -0.0319705 -9.74542e-21)
(1.32126 -0.297186 -2.4589e-20)
(1.29866 0.125983 0)
(1.08502 0.046457 -3.0006e-21)
(0.286799 -0.09129 0)
(1.51353 -0.18303 7.20806e-20)
(0.410987 0.517091 1.12948e-19)
(0.255582 -0.0548834 0)
(1.08763 -0.280984 1.12736e-19)
(0.465236 0.108843 0)
(-0.280638 0.0146274 1.58132e-20)
(1.31926 0.114088 0)
(-0.0680172 -0.0551386 -2.73671e-21)
(0.983444 -0.0492662 0)
(1.28873 -0.0818206 -1.25944e-20)
(-0.127027 -0.072349 -7.64412e-21)
(1.12836 -0.0266399 -1.16457e-21)
(1.1589 -0.118928 -6.926e-21)
(0.573173 -0.519049 -9.09223e-20)
(1.15167 0.0170432 3.77412e-22)
(1.1972 -0.131535 2.46003e-21)
(1.17957 0.245797 -1.74508e-20)
(1.16722 -0.106706 -9.12865e-21)
(1.16973 -0.0108799 -1.59322e-21)
(-0.172089 -0.102762 -5.40935e-20)
(0.0202163 0.0403046 -7.43487e-21)
(1.29545 0.0486981 1.38621e-21)
(1.05738 -0.0503621 0)
(0.512486 -0.11221 -5.06799e-21)
(1.39776 -0.449572 7.95629e-20)
(0.910529 -0.0902962 -5.66274e-20)
(1.41645 0.146193 7.74152e-20)
(1.0814 -0.0524664 -1.92838e-22)
(1.18875 -0.132331 9.91616e-22)
(1.06377 -0.00735435 0)
(1.18517 -0.0152434 0)
(1.31113 -0.0883213 8.87717e-21)
(1.08614 -0.0203194 -4.53954e-21)
(1.21096 -0.180023 9.79526e-21)
(1.09618 0.0458884 -2.41972e-21)
(1.45446 -0.0205868 -5.5152e-20)
(0.446976 0.0267668 0)
(1.27217 -0.128013 -9.68818e-21)
(1.32827 0.113337 0)
(1.11157 0.0496766 -1.04317e-21)
(1.14246 0.0269034 0)
(1.04385 -0.010182 1.06963e-20)
(1.23221 0.0395216 1.71388e-20)
(1.13364 -0.0712438 0)
(0.0472712 -0.0305401 1.50671e-19)
(0.883558 -0.214379 -7.3053e-20)
(1.33616 -0.00680712 -3.60277e-20)
(-0.102126 -0.0842507 4.04735e-20)
(1.19347 0.0379531 4.74368e-22)
(0.859547 -0.0587559 -1.65153e-21)
(-0.098768 -0.058893 -4.22046e-20)
(-0.022734 -0.00969356 -2.6692e-20)
(1.01819 -0.0302785 0)
(-0.0274558 -0.0333387 0)
(1.23435 0.131904 0)
(0.111758 -0.106712 0)
(1.12033 -0.0296389 0)
(0.124232 0.026905 0)
(1.10871 0.0533113 0)
(1.16385 0.195681 0)
(1.29685 0.0903456 -3.62951e-21)
(0.570398 -0.284005 -2.09246e-20)
(-0.176703 0.0331616 0)
(1.11495 -0.108634 5.89297e-20)
(1.25201 0.0180052 2.72622e-23)
(1.38809 0.104742 0)
(-0.0376554 -0.0397693 0)
(1.16117 0.0171512 5.58739e-21)
(1.17287 -0.00138149 -2.80706e-21)
(1.16634 0.386935 0)
(0.226125 -0.0919621 5.65143e-20)
(1.12072 0.0612969 8.60132e-22)
(0.225301 -0.051842 -5.12825e-20)
(-0.0611321 0.0476421 -3.27187e-20)
(-0.0324263 0.0488653 8.43951e-20)
(0.5158 0.2147 2.35646e-20)
(1.05375 -0.0586015 1.55415e-21)
(1.12294 0.0562289 2.23945e-21)
(1.02317 -0.00784233 0)
(1.07064 -0.0729705 -2.01234e-20)
(1.22009 0.0828836 -1.49472e-20)
(-0.00919163 -0.0360011 9.79536e-20)
(0.981446 -0.0727522 -5.83002e-20)
(0.639917 -0.0727185 9.75512e-21)
(1.14275 -0.00249697 -1.77229e-21)
(0.0659479 -0.0317647 3.22499e-20)
(0.234745 -0.0391769 -4.59725e-20)
(0.371453 -0.0721808 -5.12246e-20)
(1.16775 0.0756253 4.04503e-21)
(-0.0540898 -0.034556 0)
(0.980908 0.0038496 6.96995e-21)
(1.19936 -0.198387 -6.20889e-21)
(1.17952 -0.173211 5.98675e-21)
(1.30414 0.0108378 0)
(1.51771 -0.238936 7.00195e-20)
(1.09777 0.0214522 -3.77727e-23)
(-0.0131268 -0.0423337 -3.32595e-20)
(0.290709 0.0604679 0)
(0.905319 0.00682124 1.4237e-21)
(1.12696 0.0284914 -1.67033e-21)
(0.550577 0.0140525 1.6943e-20)
(1.16634 0.0163368 -1.80442e-21)
(1.1166 0.0519802 0)
(1.12601 -0.17751 -1.41914e-20)
(-0.0659012 -0.11631 -6.51545e-20)
(1.32626 -0.0222303 2.75746e-20)
(1.10371 0.17555 -8.89603e-21)
(1.10634 0.0509495 2.76742e-21)
(-0.0387207 -0.0561951 1.49286e-20)
(-0.0250589 0.0309608 -6.36271e-20)
(0.797178 0.0192639 0)
(0.865548 0.229801 0)
(1.1505 0.0989014 -1.31016e-20)
(1.05163 0.0697819 1.08823e-20)
(1.08557 -0.00809337 0)
(0.494447 -0.0899366 5.25369e-20)
(0.733884 0.0818241 -1.16982e-20)
(1.09754 0.107262 0)
(1.09317 0.0456174 0)
(1.37097 0.177326 0)
(1.15081 0.055199 0)
(1.23002 0.07118 1.49274e-21)
(-0.0430146 0.0457712 3.57352e-20)
(1.14695 0.0243634 3.82734e-21)
(1.40443 -0.211699 -8.0603e-20)
(1.25631 0.0822831 -2.32827e-21)
(-0.0559038 0.0321529 0)
(1.16247 -0.190788 0)
(0.676392 0.000839954 4.73067e-22)
(0.538092 0.00758784 -6.00245e-20)
(0.0739535 0.0351911 4.86306e-20)
(0.958162 -0.012686 -2.50822e-22)
(0.732074 -0.271574 0)
(0.662521 -0.0925204 0)
(1.18986 0.07704 0)
(0.538973 0.512056 2.21247e-20)
(-0.0163195 0.00990688 -2.96655e-20)
(1.10955 0.00285907 -4.57095e-22)
(-0.0195523 -0.0749235 6.28992e-20)
(1.11894 -0.0263139 1.49081e-21)
(1.17168 0.313273 3.32842e-20)
(1.11631 -0.0923734 6.91302e-21)
(0.205137 -0.0434699 7.08024e-20)
(1.0552 -0.0084743 2.2375e-21)
(1.14787 -0.171622 0)
(0.558786 0.270678 0)
(0.976073 -0.0502964 1.83979e-21)
(-0.178263 -0.0211902 0)
(0.603148 0.0293673 5.28776e-22)
(0.599991 -0.415604 -3.04002e-21)
(0.240871 0.0487725 -1.13309e-19)
(1.12231 -0.231099 3.09741e-20)
(1.03736 0.362252 9.83865e-21)
(0.977936 0.0186147 0)
(1.19018 -0.0372798 1.219e-22)
(0.680043 -0.00197482 0)
(0.97803 0.0103702 -4.8267e-22)
(0.416583 -0.0236438 0)
(0.710603 0.127966 0)
(1.00229 -0.0193495 -9.31447e-22)
(1.43367 0.170281 -1.4712e-20)
(1.11666 -0.0303757 1.13146e-21)
(0.520088 -0.490372 0)
(1.13396 -0.158957 1.75525e-21)
(0.802275 0.375438 6.93852e-20)
(-0.0366574 0.0221345 1.18994e-21)
(1.22767 -0.00431056 1.16302e-20)
(1.21612 0.0428669 -1.33702e-20)
(1.15683 -0.0116255 5.66855e-22)
(0.789616 0.00214418 1.13504e-21)
(0.0656306 0.0178838 3.80475e-20)
(-0.0169731 -0.0520232 -5.49022e-20)
(-0.189401 -0.0230314 0)
(-0.226768 0.117323 0)
(1.18012 -0.616892 3.12711e-20)
(1.15875 -0.0258294 1.55466e-21)
(0.879955 -0.463064 -4.20216e-20)
(0.976355 0.00889616 -1.48701e-20)
(1.36292 0.197006 3.50122e-20)
(0.602757 0.419371 0)
(0.245615 0.413391 -1.13833e-19)
(0.593974 0.477602 0)
(-0.0276427 0.0233561 0)
(1.12163 -0.483442 0)
(-0.0467115 -0.0200965 -3.82106e-22)
(1.20091 -0.0090143 0)
(0.895463 0.254005 -2.24935e-20)
(0.592947 0.689571 2.03303e-20)
(1.27735 0.176607 4.79985e-21)
(-0.0320639 -0.113631 -1.04441e-19)
(0.648103 0.169815 8.80014e-21)
(0.452755 0.144103 -1.36078e-20)
(1.20331 0.0968365 0)
(1.35744 0.353779 3.71568e-20)
(1.21977 0.563135 8.66053e-21)
(0.165258 -0.0153975 -2.28345e-20)
(1.00371 0.118945 3.29909e-20)
(0.924238 0.00283837 -4.02553e-24)
(0.908387 -0.00657899 1.64445e-22)
(-0.0139706 -0.034656 0)
(0.645444 -0.653702 -3.01123e-20)
(0.612666 0.198616 0)
(0.0732481 -0.141187 0)
(-0.048565 0.0544686 0)
(0.00721022 -0.138363 -3.95239e-20)
(1.23806 0.00537292 -1.33462e-20)
(-0.0300418 0.0430663 0)
(-0.034031 0.0322827 0)
(1.44592 0.11464 -7.46659e-20)
(-0.037875 -0.0832468 4.72009e-20)
(0.114478 0.232677 -1.0026e-19)
(0.391758 0.0152832 0)
(0.168905 -0.278816 8.07172e-20)
(1.07129 -0.242592 0)
(0.996837 -0.287055 0)
(0.00641545 -0.11382 9.85476e-20)
(1.14949 0.0403272 1.54086e-23)
(1.12459 0.340696 2.67881e-20)
(0.265374 0.0270743 4.68519e-20)
(0.402306 -0.516355 -3.71177e-20)
(1.27245 0.0763267 0)
(1.21732 0.190049 2.25232e-20)
(1.21754 0.209357 -2.76657e-20)
(0.102215 0.0867838 -2.3252e-20)
(-0.0639889 -0.0558956 0)
(1.07117 -0.0581269 -1.9606e-20)
(1.10193 -0.226673 -1.52413e-20)
(0.581619 -0.405749 0)
(1.09714 -0.152601 -2.53398e-20)
(-0.152721 0.0882625 0)
(0.595973 0.0351474 0)
(1.46072 0.0458867 4.84014e-20)
(0.992728 0.0211666 -7.74176e-23)
(1.07418 0.740955 -1.53849e-20)
(0.224734 -0.378407 1.30928e-19)
(1.08456 0.0203135 7.53886e-22)
(1.20543 0.0757173 1.3418e-21)
(-0.050195 0.0334372 3.03266e-20)
(0.78522 0.730793 2.75086e-20)
(1.3467 -0.379495 -1.28201e-20)
(-0.0979099 -0.103541 9.02033e-20)
(1.10173 0.050079 0)
(0.14157 -0.0470185 -7.29607e-21)
(0.892421 -0.633418 2.74193e-21)
(0.898489 0.639951 -2.00833e-20)
(0.525209 -0.040625 -5.98146e-20)
(1.15038 -0.00284388 2.93446e-21)
(1.07752 -0.0860282 6.30081e-21)
(1.14552 0.0575204 -2.05235e-21)
(1.10478 0.12139 2.95262e-21)
(1.13169 -0.133025 0)
(0.907077 0.106764 1.47875e-20)
(0.886092 0.457943 0)
(1.22635 0.101442 1.45125e-21)
(1.16676 0.114574 -1.65541e-21)
(0.75242 0.263597 0)
(0.522145 0.109552 1.08076e-19)
(0.891124 0.709559 -9.75994e-22)
(1.07711 0.290065 -2.0573e-20)
(1.04245 -0.0113246 1.08137e-20)
(0.41425 0.488386 0)
(1.29316 -0.479376 0)
(0.523927 -0.0555252 4.59775e-21)
(1.26148 0.501722 0)
(-0.0224662 0.0497949 -4.36368e-20)
(1.28099 -0.420308 -7.3189e-21)
(1.16249 0.507173 0)
(0.451934 0.214549 1.67902e-19)
(1.12213 0.314645 -1.20789e-19)
(0.813882 -0.641906 -2.59583e-20)
(1.15149 0.0583974 -4.51373e-21)
(0.915525 0.150097 8.19245e-20)
(1.08828 0.168795 4.83015e-20)
(1.06849 0.701418 1.5227e-22)
(0.902414 -0.439504 6.50203e-20)
(1.4192 0.184755 4.10587e-20)
(1.131 0.0110835 9.97431e-23)
(-0.00492269 -0.0582272 8.67777e-20)
(1.07816 -0.70303 2.47839e-20)
(0.868547 -0.71992 5.35567e-20)
(0.250694 -0.334511 0)
(0.972113 -0.148003 7.19488e-20)
(0.361461 0.304702 -4.35881e-19)
(-0.0877523 -0.0343133 2.40918e-20)
(0.244771 0.03335 2.29161e-20)
(0.656149 -0.0617301 -7.0805e-20)
(1.07684 0.526716 0)
(0.992439 0.222065 7.78033e-20)
(1.08813 0.0320445 2.79517e-21)
(0.9076 0.439946 -8.94594e-20)
(0.777611 -0.723241 -8.47355e-21)
(0.925378 0.0220884 -4.85355e-20)
(0.975333 0.487185 0)
(1.12326 0.15747 -1.1294e-20)
(1.37712 -0.520258 1.26785e-20)
(1.2271 -0.346144 8.72134e-21)
(-0.298867 0.0509184 3.3347e-20)
(0.193985 0.000804241 -1.80354e-20)
(0.97509 -0.118996 -5.76561e-20)
(0.351607 0.5225 0)
(0.91334 0.0156679 3.86721e-20)
(1.15435 0.634179 8.04484e-20)
(-0.0480855 -0.103616 1.38963e-19)
(-0.0694579 0.00197438 -2.51346e-20)
(-0.0742084 -0.118295 4.02628e-20)
(1.09743 0.0258907 -3.65134e-21)
(1.12122 -0.461729 0)
(1.06455 -0.736708 -4.27888e-20)
(0.697099 0.347117 0)
(0.0411789 -0.10959 -9.99608e-20)
(1.08665 0.0165947 -7.70332e-22)
(-0.0325697 -0.108139 -2.82998e-20)
(1.04705 0.056612 -1.21333e-20)
(0.109108 0.0292923 5.65988e-20)
(0.846103 0.124576 0)
(1.39646 -0.0286072 5.39121e-20)
(0.0391084 0.0284461 -2.60202e-20)
(-0.274074 0.038227 -3.95906e-20)
(-0.210396 0.0145216 0)
(0.0686782 -0.0177322 0)
(1.35467 -0.00917171 -1.53703e-20)
(0.362401 -0.0137218 1.4586e-19)
(1.2621 -0.728987 -2.07117e-20)
(0.853838 -0.0933149 2.37883e-20)
(1.07181 0.251151 -2.84842e-20)
(0.366823 -0.55782 1.39212e-19)
(1.5389 0.277848 -3.50388e-20)
(0.0577955 -0.0827481 3.35473e-20)
(0.207608 0.302323 1.94476e-19)
(0.0789911 -0.0512572 -1.25866e-19)
(0.941623 -0.495104 -4.32047e-20)
(1.44912 0.385769 3.58222e-20)
(0.564565 -0.675274 4.8798e-20)
(1.10875 -0.085325 -6.34196e-21)
(0.191213 -0.0367368 5.41787e-20)
(1.17912 0.288818 -4.83778e-20)
(0.660254 0.637038 -4.01955e-20)
(1.3298 -0.625938 0)
(1.41325 0.516928 3.39581e-20)
(1.05157 -0.530887 -1.23239e-20)
(1.38434 0.60393 -1.01354e-19)
(1.17913 0.0405691 0)
(-0.0525538 0.0582088 0)
(1.24743 0.726626 0)
(1.14399 0.0502795 -4.61756e-21)
(0.740068 -0.303229 -2.05694e-19)
(0.475183 -0.0853952 0)
(-0.0576444 0.0475587 -2.57077e-20)
(1.01995 -0.248486 9.70969e-20)
(-0.360512 0.0180602 0)
(0.320878 0.0228042 1.21846e-20)
(1.13738 0.0437626 0)
(1.40947 0.272135 0)
(1.18474 0.0532908 4.83332e-21)
(0.360372 -0.294188 0)
(1.01485 0.151044 3.59779e-20)
(1.30445 0.284718 0)
(-0.0964824 0.00612997 -5.95744e-22)
(0.811511 -0.398129 0)
(1.5091 0.33748 -5.32427e-20)
(1.2389 0.36628 -8.08707e-22)
(0.838175 0.642737 -9.68695e-21)
(1.01143 0.159107 -8.58903e-20)
(0.969554 -0.205983 -4.74885e-20)
(1.4468 0.292966 3.12969e-20)
(0.989981 0.08425 0)
(0.563166 -0.0730815 0)
)
;

boundaryField
{
    FrontBack
    {
        type            empty;
    }
    Top
    {
        type            noSlip;
    }
    In
    {
        type            fixedValue;
        value           uniform (1 0 0);
    }
    Bottom
    {
        type            noSlip;
    }
    Out
    {
        type            zeroGradient;
    }
    circle
    {
        type            noSlip;
    }
}


// ************************************************************************* //
