/*--------------------------------*- C++ -*----------------------------------*\
| =========                 |                                                 |
| \\      /  F ield         | OpenFOAM: The Open Source CFD Toolbox           |
|  \\    /   O peration     | Version:  2412                                  |
|   \\  /    A nd           | Website:  www.openfoam.com                      |
|    \\/     M anipulation  |                                                 |
\*---------------------------------------------------------------------------*/
FoamFile
{
    version     2.0;
    format      ascii;
    arch        "LSB;label=32;scalar=64";
    class       volVectorField;
    location    "1.1";
    object      U;
}
// * * * * * * * * * * * * * * * * * * * * * * * * * * * * * * * * * * * * * //

dimensions      [0 1 -1 0 0 0 0];

internalField   nonuniform List<vector> 
808
(
(0.861295 -0.100574 0)
(1.05592 -0.0406754 0)
(0.977238 0.0301638 0)
(0.978316 0.0850112 -4.79569e-21)
(1.46445 -0.0285085 0)
(1.02283 0.0313935 0)
(0.969046 -0.0113758 -2.66537e-20)
(1.01558 -0.00594724 0)
(1.3165 0.0189728 8.47956e-21)
(1.09243 0.0460895 2.79965e-20)
(0.994429 0.00256918 1.96281e-20)
(1.36322 -0.0194149 0)
(1.00641 0.0202375 0)
(0.946656 -0.011464 0)
(1.07076 -0.349907 -4.40041e-21)
(0.999835 0.0404663 0)
(1.04097 -0.322765 2.22333e-21)
(0.973019 0.0292809 -3.24261e-22)
(1.06771 0.0460961 0)
(1.06178 0.0482651 0)
(1.01406 -0.0167615 -2.73928e-20)
(1.03582 0.0951109 1.24998e-19)
(1.10092 0.0473588 -3.4069e-20)
(1.10278 -0.0377759 0)
(0.976059 0.173381 0)
(1.09292 -0.162649 9.89923e-21)
(1.24486 -0.0419356 -1.11e-20)
(1.00081 0.0550929 -1.15453e-20)
(1.01321 0.0326927 0)
(1.07463 -0.00100532 5.36812e-22)
(0.980353 0.0443351 1.84502e-23)
(1.03852 -0.0498635 0)
(0.897098 0.0451945 0)
(1.02 0.00789874 8.89535e-21)
(1.10939 0.0571849 -1.09501e-20)
(0.704297 -0.141592 1.0896e-19)
(0.954687 -0.0327872 -5.26624e-20)
(0.981599 -0.000542326 3.19591e-21)
(0.996928 -0.0291373 -1.84238e-20)
(1.03991 -0.0230078 0)
(1.09931 0.0278886 2.64919e-20)
(1.22596 0.0148419 0)
(1.09003 0.0123566 -2.24168e-20)
(1.00377 -0.0455986 3.79024e-20)
(1.07445 -0.0661486 0)
(0.940974 -0.0338198 -3.69822e-20)
(1.04978 -0.0533713 5.49024e-21)
(1.24886 -0.150746 -1.86794e-20)
(0.994781 -0.0370698 -3.98969e-20)
(1.29887 0.077859 -1.22424e-20)
(1.04941 -0.0241345 4.51531e-20)
(1.11303 -0.043428 0)
(1.01531 -0.0968209 1.96325e-20)
(0.988423 -0.0239878 0)
(1.31733 0.11284 4.62791e-22)
(1.04518 -0.00136634 -1.58535e-20)
(0.958171 -0.0293443 0)
(1.00204 -0.0293087 1.00959e-20)
(1.13756 -0.028267 -3.00589e-20)
(0.98883 -0.0013714 -8.89237e-21)
(0.830541 -0.00328836 0)
(1.27195 -0.129518 9.11663e-21)
(0.943477 0.0500969 0)
(1.14469 0.11642 6.19029e-21)
(0.949589 0.022108 -3.78645e-20)
(1.13001 -0.0499127 -2.38714e-20)
(1.25282 0.229816 -4.25087e-21)
(0.93137 -0.0210079 0)
(1.02813 0.00787461 0)
(1.52584 -0.114023 0)
(1.03573 0.0550831 -1.1564e-21)
(1.51882 0.124859 -4.34184e-20)
(1.02887 0.0567189 0)
(1.04317 0.0184348 -1.57244e-20)
(1.09795 -0.2802 -6.36978e-20)
(0.987797 0.0015454 -5.74342e-20)
(1.08379 0.0261269 -3.12155e-21)
(1.3641 0.417054 2.97617e-20)
(1.0433 -0.0232828 0)
(1.06982 0.221194 -1.75665e-19)
(1.05878 -0.115602 -1.49202e-20)
(0.914153 0.00530601 0)
(1.05822 0.0470268 -1.83575e-20)
(0.80413 -0.098256 5.34909e-21)
(1.01533 -0.0419939 4.18808e-20)
(1.06008 0.0348248 -3.62565e-21)
(1.5918 -0.0101782 0)
(1.34555 0.100616 0)
(1.06778 -0.0966458 -6.44287e-20)
(1.14275 -0.197167 -1.2185e-20)
(1.03723 -0.0175219 5.18476e-20)
(1.19926 0.0290044 -8.20403e-24)
(0.930468 0.0157657 2.12096e-20)
(0.995182 0.028064 0)
(1.02878 0.0724448 5.06963e-21)
(1.10346 0.208609 2.51954e-20)
(1.0402 -0.0211471 -6.3252e-21)
(1.00139 -0.0604153 0)
(1.18101 0.0246886 0)
(1.16076 0.258548 -8.03153e-22)
(1.00917 -0.0288859 -2.19524e-20)
(0.999815 0.00717256 -1.17038e-21)
(1.04047 0.0254086 3.19913e-20)
(1.10524 0.0233575 3.6696e-21)
(1.01854 0.0737177 2.50032e-20)
(1.00691 0.0683595 3.24593e-20)
(0.992169 -0.0466117 0)
(0.976634 0.0466658 0)
(1.08373 0.0458904 3.54462e-20)
(1.24945 -0.109017 -1.5368e-20)
(1.0334 0.0518471 -2.37786e-20)
(1.00895 0.0690541 -1.34578e-19)
(0.987168 0.037603 -1.43558e-20)
(1.00109 0.0268333 1.36138e-20)
(1.0364 -0.00128525 0)
(0.892479 0.0412358 7.69086e-20)
(0.95928 0.0768323 -4.0644e-20)
(1.48861 0.0670484 -7.2253e-21)
(0.980203 0.0146078 -2.4008e-20)
(0.915465 -0.0193731 5.65761e-21)
(0.842578 0.0302154 0)
(0.882239 0.00181489 1.35604e-21)
(0.92721 0.00765585 0)
(1.0265 -0.0678264 -2.54965e-22)
(0.969977 0.0252492 0)
(1.3179 0.220812 7.55951e-21)
(0.991228 -0.0223438 -5.32074e-20)
(1.03533 0.0227134 3.82989e-21)
(1.0822 -0.0199335 0)
(1.08438 -0.00197483 0)
(1.09495 0.411637 0)
(0.961837 0.0390182 -1.19606e-20)
(1.11579 0.0412807 -1.7319e-20)
(1.03838 0.122897 -4.57153e-20)
(1.00131 -0.0454372 0)
(1.09169 -0.00849141 -9.86929e-21)
(1.00053 0.000585302 5.75977e-21)
(0.988287 0.0129281 -6.26813e-22)
(1.01915 -0.00906689 2.00785e-20)
(1.05998 0.0956405 9.80998e-22)
(0.464819 -0.26404 0)
(0.999436 0.0488089 -5.79799e-20)
(0.999786 -0.00737559 4.37559e-21)
(0.913869 -0.0193813 -2.03188e-20)
(1.22085 0.00261823 3.44583e-21)
(0.997266 -0.0082504 7.10456e-21)
(1.01077 -0.116775 4.16332e-20)
(0.972975 0.0064734 0)
(0.996595 -0.0798138 2.74958e-20)
(1.01958 -0.061949 0)
(0.995803 0.00282525 4.36255e-20)
(1.06031 0.292383 1.42303e-19)
(1.04289 -0.0795133 0)
(0.896316 0.0473002 0)
(0.00373196 -0.153893 -2.13474e-20)
(1.18945 -0.0422725 -4.76372e-22)
(0.930311 -0.0141829 0)
(1.00172 -0.231901 0)
(0.968551 -0.0217556 0)
(1.17336 -0.0931576 -3.43065e-21)
(-0.0715213 -0.157844 0)
(0.195915 -0.116573 2.53505e-20)
(1.33653 0.34845 2.72109e-20)
(1.04154 0.0802479 7.99699e-21)
(0.940328 0.0478773 0)
(1.06978 -0.0131271 3.49719e-20)
(0.985016 0.08346 0)
(1.16503 0.426601 -2.93723e-20)
(1.0573 0.0277576 6.45941e-20)
(1.05855 -0.0588481 1.06485e-20)
(1.08908 0.117838 2.49921e-20)
(1.01295 0.0491554 -1.76323e-20)
(0.998767 0.0134142 -7.07194e-21)
(1.14784 -0.288475 9.58477e-22)
(1.00163 0.0080254 0)
(1.11207 -0.0236405 -2.48522e-20)
(0.89155 0.0155556 -2.99453e-20)
(1.27495 0.0717041 1.24573e-23)
(0.873549 -0.0486115 0)
(1.52341 0.0880076 0)
(0.992956 -0.0340024 1.22426e-20)
(1.34565 -0.0355425 1.85628e-21)
(1.00588 -0.0752217 2.45718e-20)
(1.06757 -0.0659408 2.99276e-20)
(0.977983 -0.311486 3.54024e-20)
(0.902527 0.0356877 4.11341e-20)
(1.05426 -0.0422462 2.71585e-20)
(1.1027 0.157028 3.43994e-21)
(1.00473 0.0105443 -1.87087e-20)
(1.11965 0.0965896 -2.94747e-21)
(0.229435 -0.345543 1.32339e-20)
(1.07549 0.0502713 0)
(0.93906 0.0217826 0)
(1.05031 0.0809931 -1.55939e-20)
(1.00257 0.0284031 4.82533e-20)
(0.707424 -0.390192 0)
(0.993888 -0.0228072 1.70383e-21)
(1.02059 0.00015172 -7.91942e-21)
(0.975363 0.0510917 2.39928e-21)
(1.02071 -0.021773 -1.05669e-20)
(1.09864 0.0428261 9.31119e-21)
(1.03924 -0.0572572 6.98582e-21)
(1.03272 0.0272009 0)
(1.01249 0.200035 0)
(0.964989 -0.0570339 0)
(1.33858 -0.246215 -2.46668e-20)
(-0.112485 -0.091125 3.35822e-20)
(0.947646 -0.00601571 -5.22187e-23)
(1.05081 0.00702531 0)
(0.908718 0.0341617 -4.06607e-20)
(1.01728 0.0289683 1.17757e-21)
(0.127106 -0.0247408 -2.19663e-19)
(1.03478 0.344907 1.98366e-20)
(0.935993 0.00500812 0)
(1.06447 0.0214363 0)
(1.00138 -0.00999418 2.6398e-20)
(1.50244 0.205664 7.1467e-21)
(1.32597 0.333034 5.02721e-22)
(1.01108 -0.000936402 -4.649e-23)
(1.02079 0.0150033 -7.097e-21)
(0.997859 -0.0155245 0)
(1.40355 0.332313 -4.54582e-20)
(0.922675 0.0544493 0)
(1.02186 -0.013476 -9.63902e-21)
(1.0077 -0.0670428 3.70053e-21)
(0.920365 -0.0196246 0)
(1.02749 -0.0703 0)
(0.772438 0.28238 2.92208e-20)
(1.00594 0.0175604 -1.4726e-20)
(1.01327 -0.0423605 9.5752e-21)
(0.92792 0.000554155 0)
(0.915189 0.01438 0)
(1.01034 -0.0277375 -1.11842e-20)
(0.89453 0.0282165 -1.22359e-23)
(1.02057 -0.0947059 -4.26999e-22)
(1.0079 -0.0142081 -6.69708e-21)
(1.0555 0.0333826 -6.92504e-21)
(1.01132 0.0256394 1.07633e-21)
(1.01382 -0.00310226 4.38043e-23)
(0.89657 -0.0192127 1.48263e-20)
(1.02959 0.00090434 3.18452e-22)
(1.01223 0.00122616 0)
(0.977184 -0.0129839 0)
(0.830548 -0.0242762 0)
(1.00522 0.000836316 0)
(0.999806 0.00538357 1.12195e-21)
(0.995728 -0.00269258 0)
(0.999326 0.00251736 0)
(1.01564 0.00435205 0)
(1.00148 -0.00306297 0)
(-0.0821353 -0.15704 4.7235e-20)
(0.953452 0.0252302 2.96583e-22)
(1.04239 -0.0107424 0)
(0.985363 0.0717571 -2.51841e-20)
(1.02335 -0.0421189 1.25062e-21)
(1.04627 0.00164237 2.16313e-20)
(0.979809 0.00013081 1.17766e-20)
(1.0087 -0.00816806 0)
(0.916095 0.0287692 2.12158e-20)
(1.05196 -0.0499527 1.71492e-20)
(0.992498 -0.00705486 0)
(1.0724 0.0165602 -1.69459e-21)
(0.968797 0.0294062 9.22477e-21)
(1.00065 0.00488053 -2.15803e-20)
(0.955097 0.026074 1.46589e-20)
(1.03391 -0.0183184 -1.80965e-20)
(1.06069 -0.0142887 0)
(1.01339 0.000765143 -4.15062e-20)
(1.05271 0.0463523 -6.84574e-21)
(1.01714 -0.0207428 1.60279e-20)
(1.00061 0.0177441 0)
(0.0888015 -0.0366138 0)
(0.776435 0.0651988 -2.16736e-20)
(0.967876 -0.0302555 0)
(1.03484 -0.0560413 -4.38609e-20)
(1.01571 0.0515801 1.93862e-21)
(0.930468 0.0489644 1.73941e-20)
(1.05101 -0.0162038 -8.10107e-21)
(1.05308 0.2073 -4.16006e-20)
(1.01774 -0.305412 6.42783e-20)
(1.01325 -0.0102762 -3.09382e-21)
(0.992323 -0.0173348 0)
(0.961435 0.00412273 0)
(0.831774 -0.0791492 -7.56852e-20)
(0.942642 -0.0759545 3.57508e-20)
(0.978521 -0.00481673 0)
(0.995941 -0.0238421 2.38125e-20)
(0.988607 -0.0129693 0)
(0.975599 -0.0125244 1.11126e-20)
(0.993284 0.00947967 -2.78943e-20)
(1.0431 -0.0143857 -1.69929e-20)
(0.982967 0.0162702 0)
(0.968416 -0.0065857 -2.26121e-21)
(1.00399 -0.0289692 6.84099e-21)
(1.00087 0.0176333 -1.33433e-20)
(1.00825 -0.0115882 -1.08327e-20)
(1.02526 -0.00448799 0)
(1.0908 0.0165178 0)
(1.02623 -0.00212577 1.29407e-20)
(1.01999 0.00472835 -1.12255e-20)
(0.960618 -0.0478737 1.0005e-20)
(0.997074 0.00189366 -9.53309e-21)
(1.01529 0.0030113 1.23162e-21)
(1.04462 -0.0108967 0)
(0.567691 -0.15613 1.85694e-20)
(1.13619 -0.100106 1.96169e-20)
(0.997994 0.01626 -1.93097e-20)
(0.973305 -0.016829 2.28177e-20)
(1.23228 0.0955009 -1.17728e-21)
(0.992835 -0.196632 -3.25746e-20)
(0.965507 0.006126 -1.33932e-20)
(1.04341 -0.0483252 -1.48747e-21)
(-0.0448013 0.0864705 -5.0273e-21)
(1.0016 0.0162882 0)
(1.03432 -0.185047 -2.41687e-20)
(0.911947 -0.0484199 5.82025e-20)
(0.998385 -0.0105602 1.86772e-20)
(1.01254 -0.00362629 -6.84751e-22)
(0.855989 0.0473958 1.39748e-21)
(1.45358 -0.204333 -2.20605e-20)
(1.06445 0.061555 0)
(1.00119 0.00267191 -2.82386e-22)
(0.999627 0.0460062 -7.63122e-21)
(0.967565 0.0288231 0)
(0.937496 -0.0558521 -2.05525e-20)
(1.033 0.0378124 1.08963e-20)
(1.01213 0.0121703 3.1634e-20)
(0.998497 -0.0135729 -6.01075e-20)
(1.05461 0.0329484 1.09558e-20)
(-0.120529 -0.011009 0)
(0.983244 0.0217244 -4.22625e-20)
(0.909197 -0.0676779 0)
(1.00033 0.0311491 -2.54786e-20)
(0.981725 -0.00034989 0)
(1.00393 -0.0499011 3.99851e-20)
(1.01797 0.112835 0)
(1.05463 -0.0206479 0)
(1.19162 0.103192 -8.3055e-21)
(0.817661 -0.092726 0)
(1.0322 0.000323185 3.85577e-20)
(0.992756 0.0409194 4.98631e-23)
(1.04854 -0.0277336 9.17148e-21)
(1.0247 -0.0608843 2.19803e-20)
(1.23294 0.0112036 7.36793e-21)
(1.00681 0.00996057 2.57447e-20)
(0.959922 -0.0291317 0)
(0.983187 -0.044157 0)
(1.01338 -0.00125667 5.97947e-21)
(1.05505 -0.0389694 0)
(1.48491 -0.145959 -1.24446e-20)
(1.00498 -0.0129399 1.95343e-21)
(1.052 0.0389146 3.99216e-20)
(1.03028 0.0763039 9.1797e-22)
(-0.0463141 0.0511888 0)
(-0.0957233 -0.206025 0)
(0.742163 0.351898 2.00608e-20)
(0.150084 0.231768 0)
(1.00148 0.0111669 -2.07128e-20)
(1.02137 0.0673678 -7.32158e-21)
(0.964674 -0.054761 -2.63874e-20)
(0.952758 -0.026616 1.58504e-21)
(1.0293 -0.0550192 0)
(1.04362 -0.0567594 -9.9237e-21)
(1.00872 0.0185378 0)
(1.05016 -0.00682307 -3.12061e-21)
(0.771307 -0.0940928 0)
(0.995063 -0.00978379 -7.83789e-22)
(1.02521 -0.00328453 0)
(1.03989 0.00211658 0)
(0.925545 0.083483 -3.25418e-20)
(0.986 0.0271201 -3.77438e-21)
(0.984971 -0.0236845 2.99782e-21)
(1.00938 0.0720145 -1.78495e-20)
(0.972038 0.464987 0)
(0.999538 -0.00394135 -4.65946e-20)
(1.00417 0.0232984 2.93634e-20)
(1.02445 -0.0180916 3.25261e-21)
(1.00968 -0.0261691 1.50704e-20)
(-0.171119 -0.0412666 -5.24978e-20)
(1.02529 0.0241436 0)
(-0.0850731 0.131084 0)
(0.984233 0.0286005 4.05841e-20)
(1.01121 0.021256 -1.62163e-20)
(0.998247 0.0528498 -3.07822e-20)
(0.989805 -0.020609 0)
(1.00896 0.0157213 2.11367e-20)
(0.96858 -0.0342793 -2.62369e-20)
(1.23719 0.235906 -1.18536e-20)
(1.01861 -0.00833545 -2.40304e-20)
(1.03145 0.0138839 -2.13278e-21)
(0.955453 -0.0166125 -4.08656e-21)
(0.973582 0.0311617 -4.13508e-20)
(0.989206 0.0282637 0)
(0.986709 0.0186707 0)
(1.02791 -0.0195668 -1.71051e-20)
(1.02226 0.0214491 -2.65427e-20)
(0.944094 -0.0196493 5.73456e-20)
(1.14841 -0.0415774 -4.53184e-20)
(1.03249 0.0697097 4.25803e-20)
(0.864955 0.0369217 2.46692e-20)
(0.89714 0.128145 6.02381e-20)
(0.943781 -0.0339197 -2.91424e-20)
(1.19793 0.104705 -3.47598e-21)
(1.24755 -0.429049 7.63073e-21)
(1.03539 0.0697673 1.71312e-20)
(1.01681 -0.0389734 2.02718e-20)
(0.812221 -0.260725 9.78007e-20)
(0.909053 0.011217 0)
(1.02643 -0.0503241 -4.0885e-22)
(0.944242 0.0206934 3.16331e-20)
(1.00605 -0.0187027 -3.51154e-20)
(0.986237 0.00322407 1.49707e-20)
(0.970203 -0.0383744 0)
(0.969413 -0.0293229 0)
(1.09588 0.0535674 0)
(0.999997 -0.0243236 1.78368e-20)
(1.05861 0.042677 4.50166e-20)
(1.05184 -0.0280008 3.37188e-20)
(0.914209 0.0633119 0)
(0.97853 0.0234309 0)
(0.982443 -0.0269671 -2.77183e-21)
(0.906533 -0.0565041 0)
(1.03662 0.0229566 0)
(1.12375 -0.171213 4.17987e-20)
(0.976844 0.00972535 0)
(0.950421 0.0269903 0)
(1.06096 0.0077846 0)
(1.20705 0.118412 -2.38849e-20)
(1.04738 0.0358515 -2.59232e-20)
(1.06508 0.0147479 2.45784e-20)
(1.48393 -0.309592 -1.42188e-19)
(0.975218 0.0059892 -2.73505e-20)
(0.986624 -0.0145356 1.39584e-20)
(1.01068 -0.0775494 0)
(0.926169 -0.000121822 0)
(0.679109 0.1041 0)
(1.0528 -0.00741869 4.33244e-20)
(1.34649 -0.124097 -5.52456e-21)
(0.942456 0.0257515 0)
(1.02901 -0.000739399 -2.86168e-20)
(0.925393 -0.0667131 0)
(1.30879 0.165504 2.26314e-20)
(0.427163 0.537872 1.13739e-19)
(0.978102 0.256675 0)
(1.32417 -0.195568 1.52678e-19)
(0.924722 0.0570731 0)
(0.959164 -0.00344713 2.13156e-21)
(1.02524 0.0332646 0)
(0.765308 0.161655 1.76317e-21)
(1.00835 0.0033248 0)
(0.979456 -0.0504622 2.26793e-20)
(-0.0212966 0.134607 -2.2743e-22)
(1.01571 -0.0243585 1.6693e-20)
(0.992271 0.00535331 -1.7219e-20)
(0.56695 -0.530804 -8.77663e-20)
(1.03715 -0.0276764 -2.32995e-21)
(1.11 -0.0570175 1.85718e-20)
(1.13846 0.132751 -3.85041e-20)
(0.996428 -0.0371366 2.27341e-20)
(1.04632 -0.0215717 1.00745e-20)
(0.883494 -0.0676195 3.2991e-20)
(0.665934 -0.390306 -5.31515e-22)
(1.0026 0.00568963 6.37669e-21)
(0.985052 -0.01632 0)
(0.991299 -0.0101062 -1.15529e-20)
(1.47435 -0.29293 9.3528e-20)
(1.39522 0.322726 -5.05702e-20)
(1.26357 -0.180169 5.62873e-22)
(1.03251 0.0101829 2.3011e-20)
(1.0247 -0.064322 3.22869e-20)
(1.09885 -0.0322725 0)
(1.07029 0.000757922 0)
(1.03128 -0.0202543 -2.29234e-20)
(1.05483 0.0397922 8.04911e-22)
(0.978985 -0.037743 -2.40613e-20)
(0.95359 0.0460313 -2.79779e-20)
(1.08326 0.130867 3.06188e-20)
(1.02051 -0.204107 0)
(1.05131 -0.0236394 3.84563e-20)
(0.980963 0.0595868 0)
(1.04316 -0.0469916 -2.32579e-20)
(1.09099 0.0701122 0)
(1.10375 -0.0324423 2.40714e-20)
(1.11565 0.0182079 -2.54834e-20)
(1.02795 -0.0377264 0)
(0.215837 0.00110168 2.2727e-19)
(0.793932 -0.302249 -7.66958e-20)
(1.00265 0.165571 1.48163e-20)
(-0.139939 0.0442053 9.50459e-21)
(1.02277 0.0339475 -1.01843e-21)
(0.964612 0.0245523 -1.00276e-20)
(-0.0978816 -0.0292944 -9.91642e-21)
(-0.0942463 0.125067 -1.70475e-20)
(1.07085 -0.0579546 0)
(-0.0783357 -0.123516 0)
(1.01058 0.0670975 0)
(0.105801 -0.128007 0)
(1.04777 0.0494227 0)
(0.52872 0.110154 0)
(1.08102 0.0303555 0)
(1.03348 0.033836 0)
(0.963847 0.0223193 -1.40918e-20)
(0.675204 -0.315359 -2.78665e-20)
(0.204048 -0.167469 0)
(1.44836 0.230196 5.25781e-20)
(1.00354 0.0235628 7.81222e-22)
(0.966083 0.106092 0)
(-0.0403074 -0.0811813 0)
(1.08148 0.02878 -3.21141e-20)
(1.09782 -0.00351106 1.19613e-20)
(1.19515 0.379125 0)
(0.976101 0.381537 5.76915e-20)
(1.07988 0.113496 4.46774e-21)
(0.438555 -0.0447772 -7.50482e-20)
(-0.0588679 0.099441 -4.77691e-20)
(0.0493952 0.0331263 1.30747e-19)
(0.952608 0.014557 -3.28342e-20)
(1.00536 0.0248863 9.43615e-21)
(1.02223 0.0137676 -5.72611e-20)
(1.04471 0.045111 0)
(1.10217 0.0175511 -3.22741e-20)
(1.0202 0.0564309 2.78632e-20)
(-0.0406153 -0.051333 5.50041e-20)
(0.967467 -0.145678 -6.66531e-20)
(1.00104 0.014723 2.11381e-20)
(1.01866 0.057224 -5.87613e-21)
(0.306848 0.017804 4.98137e-20)
(0.515687 -0.00276296 -7.07498e-20)
(1.19421 0.367553 -5.28447e-20)
(0.975293 0.025159 3.61091e-20)
(-0.0566699 -0.0964055 0)
(1.00741 0.0102922 1.23732e-20)
(0.942821 -0.0331949 4.4653e-20)
(1.03604 0.0204335 -4.30574e-20)
(1.01226 0.138499 0)
(1.41031 0.0834228 5.1439e-20)
(1.04177 -0.00511341 -7.86825e-21)
(-0.0578645 -0.13159 -2.16306e-20)
(1.09217 -0.436439 0)
(1.06695 0.00170522 -3.98039e-21)
(0.989911 -0.0346925 1.29501e-20)
(0.911356 -0.0557396 -1.87492e-20)
(1.01716 0.0142851 1.49499e-20)
(1.08558 -0.0466405 0)
(1.47578 0.0242496 -2.08044e-20)
(0.158718 0.280731 -3.35596e-21)
(1.04759 0.0967725 -2.41641e-20)
(1.15082 0.143952 -1.01173e-20)
(1.02658 0.0108127 3.19992e-20)
(-0.0963566 -0.168393 1.70934e-20)
(-0.0758092 0.147392 -6.67979e-20)
(0.929414 0.204446 0)
(0.959556 0.0322422 0)
(1.07908 0.0095662 -4.74109e-20)
(1.14009 0.135793 2.29775e-20)
(1.03712 0.0259662 0)
(0.935 0.258641 -1.9099e-20)
(1.30973 -0.237869 -1.5095e-20)
(1.05105 0.0488452 0)
(0.978251 -0.034079 0)
(0.953059 0.0598116 0)
(0.888793 -0.0563714 0)
(1.01742 -0.00923257 6.43707e-21)
(-0.0485619 0.0872604 5.22206e-20)
(0.956075 -0.0534732 1.24936e-20)
(1.39414 0.163701 -4.267e-20)
(0.97979 0.0171561 -1.22869e-20)
(0.775189 -0.153926 0)
(1.0018 -0.0165078 0)
(1.0522 0.0512727 -2.67046e-21)
(0.929201 -0.0472988 -9.085e-20)
(0.24266 0.00744847 7.14375e-20)
(0.985097 -0.0508518 3.67551e-21)
(0.948513 -0.279587 0)
(1.00677 -0.0308062 0)
(1.01171 -0.049914 0)
(0.565167 0.540034 3.1471e-20)
(-0.0622231 0.126599 -2.30069e-20)
(1.03529 -0.00255663 -3.4545e-21)
(-0.0938006 -0.141225 4.65317e-20)
(1.02366 0.0627533 8.26076e-21)
(1.13535 0.24468 7.34217e-20)
(1.05944 -0.0822899 2.00911e-20)
(0.851885 -0.14356 -4.31176e-20)
(1.01605 0.0185197 7.18405e-21)
(0.984619 0.0461392 0)
(0.655609 0.300988 0)
(1.01411 0.0198303 1.24029e-20)
(0.115371 -0.0270188 0)
(0.921559 0.0577755 9.37283e-21)
(0.654706 -0.443078 -4.05702e-21)
(0.423571 0.0416128 -1.57102e-19)
(1.17071 -0.153459 5.24012e-20)
(1.07829 0.339458 1.08485e-20)
(0.898938 0.0912873 0)
(0.952767 0.0212677 6.16815e-22)
(1.04037 -0.0258343 0)
(0.969231 0.0424018 3.43611e-21)
(0.983398 0.115067 0)
(0.767316 0.0981668 0)
(1.03975 -0.0311717 -2.5204e-20)
(1.3222 -0.148808 4.22933e-21)
(1.01632 -0.00608063 9.74826e-21)
(0.54059 -0.504205 0)
(1.1251 -0.0807774 8.60204e-21)
(0.788776 0.402653 7.25404e-20)
(0.053464 0.0281101 1.83325e-21)
(1.05207 -0.0378004 -2.01931e-20)
(1.11727 -0.0764546 2.27297e-20)
(1.00912 -0.0381067 1.85689e-21)
(0.989265 -0.0685453 -1.35817e-20)
(0.246441 -0.0115927 5.97086e-20)
(-0.0913394 -0.00115777 -2.97594e-20)
(0.393891 0.16513 0)
(0.46597 -0.211193 0)
(1.26823 -0.589305 4.05239e-20)
(1.02025 -0.00446357 -9.8301e-21)
(1.02269 -0.483364 -5.44391e-20)
(1.00595 0.0185314 -2.83317e-20)
(1.44123 -0.0863558 3.04141e-20)
(0.654989 0.45172 0)
(0.253438 0.421137 -1.19129e-19)
(0.619711 0.475216 0)
(0.682501 -0.414327 0)
(1.11605 -0.4052 0)
(-0.111842 0.0934621 -1.62674e-21)
(1.06782 0.0195288 0)
(0.976156 0.0414152 2.65989e-20)
(0.620538 0.708233 2.19046e-20)
(0.970171 0.0313282 -2.63857e-20)
(0.0752584 -0.0476597 -1.20469e-19)
(0.975616 0.00201016 4.215e-20)
(0.605849 0.159715 -1.85178e-20)
(1.11719 -0.0496289 0)
(1.43567 0.234431 4.51701e-20)
(1.26965 0.534103 1.21725e-20)
(0.597646 -0.116036 -3.358e-20)
(1.36312 -0.318772 2.72903e-20)
(1.03214 0.0171249 -3.85432e-22)
(1.0265 -0.0495188 -7.11139e-22)
(0.235271 0.0502481 0)
(0.651315 -0.658155 -2.86183e-20)
(0.675163 0.192194 0)
(0.716983 0.449718 0)
(-0.10785 0.164443 0)
(0.330019 0.262166 -3.76272e-20)
(1.06516 -0.034141 2.30474e-20)
(0.19347 -0.0184192 0)
(-0.0961365 0.18972 0)
(1.18277 -0.187863 4.48686e-21)
(0.0606449 -0.0721862 5.55082e-20)
(0.119183 0.222918 -1.05307e-19)
(0.896094 -0.107369 0)
(0.161559 -0.282626 7.81762e-20)
(1.40671 -0.145064 0)
(0.980167 -0.241596 0)
(0.396772 0.194887 1.02832e-19)
(1.05958 -0.00800304 -1.13019e-21)
(1.15103 0.319432 2.96787e-20)
(0.517221 -0.00310182 6.71975e-20)
(0.405826 -0.514737 -3.35666e-20)
(1.30317 -0.279287 0)
(1.52673 -0.0823271 2.73201e-20)
(1.42591 0.0119625 -3.34606e-20)
(0.0987848 0.056886 -2.37099e-20)
(-0.174278 0.0137833 0)
(1.07032 0.0467304 -2.79282e-20)
(1.13235 -0.110092 -2.52445e-20)
(0.570525 -0.435937 0)
(1.11289 -0.00923436 -3.06686e-20)
(0.639921 -0.332409 0)
(1.07597 -0.348425 0)
(1.05641 0.0961021 -3.28356e-20)
(0.96599 -0.00648147 1.15316e-21)
(1.09574 0.725001 -1.29424e-20)
(0.222088 -0.370554 1.25012e-19)
(0.969117 -0.0580588 2.12505e-22)
(1.1571 0.0283163 -1.30757e-20)
(-0.0774733 0.143761 2.96036e-20)
(0.831255 0.757923 2.53686e-20)
(1.37038 -0.191037 -1.99958e-20)
(0.853977 0.116228 -5.0125e-20)
(1.02755 0.0429863 0)
(0.767571 -0.282038 3.95668e-21)
(0.976383 -0.647476 3.66083e-21)
(0.978729 0.666272 -2.8576e-20)
(1.07462 0.124023 -9.29651e-20)
(1.01709 -0.0611692 -5.73693e-20)
(1.05866 0.018959 1.32271e-20)
(1.0282 0.00820162 2.41953e-20)
(1.03301 0.0585771 1.73034e-20)
(1.13361 0.045944 0)
(1.25453 -0.114956 1.90824e-20)
(1.01856 0.477293 0)
(1.00726 0.0172719 -1.71355e-20)
(1.13022 0.0218734 1.61285e-20)
(0.947461 0.267321 0)
(0.769676 0.0957752 1.49686e-19)
(0.916426 0.718656 -7.7236e-22)
(1.04781 0.257729 -2.2791e-20)
(1.1491 0.0149411 2.37567e-20)
(0.435755 0.481624 0)
(1.29977 -0.360005 0)
(0.938325 -0.137557 -2.89423e-21)
(1.36942 0.462546 0)
(0.268794 -0.0718203 -5.8671e-20)
(1.32384 -0.333143 -4.78143e-22)
(1.19974 0.46917 0)
(0.483352 0.189549 1.74685e-19)
(1.30255 0.277491 -1.6151e-19)
(0.806134 -0.618384 -2.40987e-20)
(0.998779 0.0298538 1.86846e-20)
(1.18707 0.0991892 1.17885e-19)
(1.09886 0.16605 6.63914e-20)
(1.1231 0.702884 -1.54392e-21)
(0.874894 -0.419618 6.43442e-20)
(1.28964 -0.0341756 4.24873e-21)
(0.973179 0.0152673 -8.22402e-21)
(0.213711 0.0131325 1.20125e-19)
(1.12822 -0.681925 3.68075e-20)
(0.884385 -0.710776 4.88312e-20)
(0.23518 -0.349452 0)
(0.890769 -0.197553 8.58375e-20)
(0.389287 0.281204 -4.53737e-19)
(0.474476 0.290921 -1.79806e-20)
(0.964298 -0.296651 2.6893e-20)
(1.12384 0.0364536 -1.08364e-19)
(1.11888 0.510459 0)
(1.03146 0.280608 8.05785e-20)
(0.934314 -0.0182471 1.00532e-20)
(0.889088 0.445485 -9.35377e-20)
(0.818136 -0.725222 -7.28776e-21)
(0.886425 0.0385503 -5.34149e-20)
(0.972031 0.463328 0)
(1.02047 0.0384101 2.06492e-20)
(1.4012 -0.413002 1.56447e-20)
(1.286 -0.268528 1.6295e-20)
(0.691983 -0.103641 -2.36492e-20)
(0.182504 -0.0378115 -1.8206e-20)
(0.916057 -0.131101 -5.89722e-20)
(0.36631 0.524574 0)
(0.90763 -0.0618347 4.25692e-20)
(1.2429 0.625253 9.96446e-20)
(0.4268 0.421433 -3.19713e-21)
(-0.090169 0.0590452 -1.82856e-20)
(-0.159827 -0.0266226 2.01174e-20)
(0.989534 -0.091948 -1.45597e-20)
(1.28215 -0.436564 0)
(1.07753 -0.685221 -3.9106e-20)
(0.73962 0.351691 0)
(0.647505 0.458715 -2.40013e-21)
(1.04128 0.00634657 9.05703e-21)
(-0.114714 -0.130573 -2.53769e-20)
(1.15775 -0.0495923 -9.85996e-21)
(0.520197 -0.120636 7.8412e-20)
(1.25598 0.00555146 0)
(1.05134 0.149253 -2.9932e-20)
(0.65932 -0.222231 -3.04449e-20)
(0.531632 -0.0919503 2.81236e-20)
(0.521417 0.0817367 0)
(0.453574 0.105833 0)
(1.03741 0.0925951 1.439e-20)
(0.791303 0.062899 2.23067e-19)
(1.31495 -0.675288 -3.25097e-20)
(0.916809 -0.113098 -2.02524e-20)
(1.04845 0.23669 -3.8996e-20)
(0.362233 -0.549521 1.34366e-19)
(1.48897 0.0198241 -3.13214e-20)
(0.644968 0.282572 4.38937e-20)
(0.223754 0.26749 2.02654e-19)
(0.634225 0.188275 -1.71395e-19)
(0.934755 -0.452335 -4.24143e-20)
(1.53953 0.246817 3.85448e-20)
(0.576886 -0.668809 4.6377e-20)
(1.03258 -0.00591231 -1.26197e-20)
(0.844287 0.469955 6.96858e-22)
(1.44652 0.183623 -7.39364e-20)
(0.685553 0.643541 -4.16605e-20)
(1.43323 -0.566335 0)
(1.55822 0.433364 4.47033e-20)
(1.05601 -0.476775 -1.38593e-20)
(1.47001 0.553709 -1.257e-19)
(1.03838 0.0345453 0)
(0.0198021 0.0739742 0)
(1.29307 0.703573 0)
(1.02603 -0.0738077 -1.21866e-20)
(0.735842 -0.345873 -2.03114e-19)
(0.456916 -0.120472 0)
(-0.000462188 0.0586175 -2.50628e-20)
(0.947929 -0.159852 1.28028e-19)
(0.717637 -0.00285522 0)
(0.309324 -0.00893722 1.22981e-20)
(1.06192 -0.00356591 0)
(1.58754 0.0633428 0)
(1.01098 -0.02746 -2.00056e-20)
(0.340714 -0.320585 0)
(0.982392 0.0730883 4.75618e-20)
(1.47693 0.130404 0)
(0.0231382 -0.0644981 -1.87375e-21)
(0.768534 -0.402695 0)
(1.49272 0.160497 -5.44131e-20)
(1.25597 0.323987 -4.38686e-22)
(0.850919 0.636259 -9.919e-21)
(0.911999 0.135351 -9.26876e-20)
(0.964454 -0.218609 -6.05787e-20)
(1.4992 0.0767235 3.03115e-20)
(1.15481 -0.369731 0)
(0.558578 -0.100575 0)
)
;

boundaryField
{
    FrontBack
    {
        type            empty;
    }
    Top
    {
        type            noSlip;
    }
    In
    {
        type            fixedValue;
        value           uniform (1 0 0);
    }
    Bottom
    {
        type            noSlip;
    }
    Out
    {
        type            zeroGradient;
    }
    circle
    {
        type            noSlip;
    }
}


// ************************************************************************* //
