/*--------------------------------*- C++ -*----------------------------------*\
| =========                 |                                                 |
| \\      /  F ield         | OpenFOAM: The Open Source CFD Toolbox           |
|  \\    /   O peration     | Version:  2412                                  |
|   \\  /    A nd           | Website:  www.openfoam.com                      |
|    \\/     M anipulation  |                                                 |
\*---------------------------------------------------------------------------*/
FoamFile
{
    version     2.0;
    format      ascii;
    arch        "LSB;label=32;scalar=64";
    class       volScalarField;
    location    "327";
    object      p;
}
// * * * * * * * * * * * * * * * * * * * * * * * * * * * * * * * * * * * * * //

dimensions      [0 2 -2 0 0 0 0];

internalField   nonuniform List<scalar> 
808
(
-0.03350735602764602
0.04385099697915141
-0.01103936087142743
0.03745659408605902
-0.2964942786402079
-0.05573131374181155
-0.0156615575980123
-0.02414316358675563
-0.1950553578098778
-0.08303186099216393
-0.01077194210868608
-0.2519099633097088
-0.03071003375997434
-0.01408784868340699
-0.1217995108790651
-0.01424950788834268
-0.1380981574178748
-0.01376631409892618
-0.01263460690878185
-0.05490654212447615
-0.007881548326782499
0.1168005047159355
-0.06324404755451113
-0.07079955553959226
0.174626900789098
-0.1004684040521115
-0.150944877082101
-0.02046250436512742
-0.01757629275621538
-0.02554308363399082
-0.02038169651730186
-0.05767210829183959
-0.02270632425888009
-0.01691724294737351
-0.09873846480795929
0.3447761117665046
-0.03992367570150455
-0.01635428847164519
-0.02249779853841274
-0.0264656767502724
-0.08949452749695769
-0.1254174698515006
-0.05270650990970534
-0.0214663240921675
-0.05434082401774769
-0.04231383810361128
-0.01187687137737304
-0.1827724986428304
-0.02657719449885888
-0.2023091190558561
-0.01725054377010098
-0.06634213166765493
-0.06163296131717229
-0.01453493911192251
-0.1953263299150874
-0.02781663060828045
-0.01063570776677454
-0.01444897874491687
-0.09927636992177387
-0.03913390596404594
-0.1113851652319418
-0.1246262028822273
-0.01448937766082685
-0.1282143114739127
-0.0176329083128074
-0.05248450363686894
-0.1631391606369869
-0.03537281162754946
-0.01533103748324736
-0.4374203658498463
-0.02613447444712982
-0.2984272276958992
-0.02133302177107907
-0.02119735333759613
-0.06356074596171526
-0.01813290167201622
-0.04187360320460715
-0.3652913072837555
-0.03655570927932674
0.03914000554756676
-0.09205933545530873
-0.01676239787026067
0.05727605844220841
0.04571175524990215
-0.01747541195773212
-0.0515383570222761
-0.5380220600220682
-0.2284428727975887
-0.05139906045261777
-0.1134103505052957
-0.05577688933347787
-0.1314084500911158
0.03844409903699066
-0.02638369984811522
-0.06273780035911761
-0.1204483713172599
-0.03821069672324538
-0.05198447861605991
-0.1151068897127015
-0.1389211291195507
-0.05314097291693395
-0.04663171287742746
-0.05365610913824807
-0.04413932785210319
-0.05692434991823197
-0.07546874844669334
-0.03961987144276909
-0.0106377228962078
-0.0396662168703544
-0.1225689979008909
-0.0497258693763398
0.08141369122442489
-0.04182282127726689
-0.007592159207830687
-0.0275172925528232
0.1808526182374156
-0.03812393945172825
-0.2658305823738333
-0.02081222790031095
-0.05278719025858441
-0.04247058717101469
-0.04954085285264456
0.0140731467708803
-0.0478529511114456
-0.03656238132126
-0.2194990845608775
-0.04026250766448198
-0.004231296226629874
-0.07486958591488883
-0.06972453747930439
-0.1509737873270068
-0.02130998814330485
-0.07445564736690928
-0.04401115102139431
-0.02310117565519213
-0.01497729828163902
-0.005970433584417957
-0.007614784850065534
-0.05182992481583514
-0.04899547158753027
-0.2141784669539245
-0.05565348699084492
-0.008158757930510702
-0.02183392655699849
-0.1489763333969203
-0.002135586908717548
-0.07543774781233691
-0.021199567500207
-4.033815181281551e-05
-0.01027136251171042
-0.03283483364819676
0.09333731639223007
-0.03799605341208366
0.2515990316427924
-0.2598822815982275
-0.1338287449943544
-0.03807388357065401
-0.09077046901518461
-0.009036019182412914
-0.114697000678866
-0.1680799063772053
-0.2148695244650108
-0.1786866418863364
0.05694100409379827
-0.06385035527142348
-0.02062384838950833
-0.06620382424789915
-0.1718303140980137
-0.02299592108544924
-0.01875784751693758
-0.0511546790935582
-0.02063164094807157
-0.007480155903179775
-0.1064662805687487
-0.02362890526767315
-0.04428964508713458
-0.0710321617197997
-0.159794479586638
-0.03301381701911054
-0.3845812163387644
-0.01791077544895853
-0.2275827953988985
-0.04354093913480647
0.03285061582794746
-0.1059852084824072
-0.01653110848955143
-0.04333780003152998
-0.1045830152819259
-0.01789262341959616
-0.09532710072321066
-0.2034792917631432
-0.07120632920804097
-0.02420717229518917
-0.04724498296000073
-0.04203607252843154
-0.2011707075052383
-0.02245196931115826
-0.01935403745025858
-0.01126660171074745
-0.0573455678484251
-0.04985420514409353
-0.02270105823683323
-0.02057195097165672
-0.2337999898451296
0.1269235323043366
-0.2071053271365639
-0.1901300805004209
-0.01170860275509241
-0.01127294564442038
-0.0664870722308617
-0.01022580030796973
-0.4926472649252288
-0.1271043313296268
-0.01967575548257718
-0.0008328433745522775
-0.02364992849675465
-0.2774751739609657
-0.279433642040979
-0.007557274325152383
-0.01780153036105189
-0.001877375418651823
-0.3504825818720068
-0.02861243033518343
-0.02942018944623708
-0.01268651557611615
-0.01941455400228181
0.04862717797924673
-0.1255139420578016
-0.01420721598098628
-0.02094311171782119
-0.04541284877756117
-0.01841305639836594
-0.01643014447630676
-0.02353358937473878
-0.0679781047978003
-0.01104351040865621
-0.01889784593784931
-0.008973704175055244
-0.001357568406774846
-0.02930733346609402
-0.002098651814045318
-0.001964815125725227
-0.005732995243586757
-0.0254901289874968
-0.008110939813850679
0.001632026179153546
-0.004127232854853737
0.001270289534270271
0.002317240918372558
-0.008811895471479498
-0.1293553290575603
-0.002919930037455931
-0.0001442780049289622
-0.047263459992955
-0.02138461747412785
-0.02368129822675116
-0.01403276454931169
-0.006208519083506529
-0.02115976802689701
-0.04007050400065666
-0.01514287624747532
-0.0126338177447259
-0.01157252179699163
0.006396309437853158
-0.009616328575328776
-0.01317462374634119
-0.01139629558391708
-0.01004971373676053
-0.01015754952790019
-0.01108212756872015
-0.01355849115732836
-0.2916950945700202
0.05894541509335799
-0.01522814196611528
-0.01548298498106995
-0.01238440475515725
-0.01235406558554758
-0.008236686782598739
-0.09928440813101744
0.01236223461652066
-0.01436613840669542
-0.01381524337680263
-0.01059247084807322
-0.05103703682288977
-0.008086392464301935
-0.01386406406516821
-0.00985001771612814
-0.002360333073208997
-0.01132836885206431
-0.0108624760351236
-0.0242444378225221
-0.01558514084038629
-0.01243421372347488
-0.01343715454108657
-0.009828562292071812
-0.01303845353107404
-0.01086714335015307
-0.05981804600402296
-0.01339365315458232
-0.01226837094683157
-0.009178488306463771
-0.01539510516194434
-0.01404786964757364
-0.01568163243997529
-1.367423752552436
-0.1005231055161884
-0.01180412600327394
0.02423403696061793
-0.1617394565109928
-0.09343414545963064
-0.01213320545609486
-0.01422527514106308
-0.2398309208542212
-0.02839169668397902
-0.01792086255059858
-0.01231265282672823
-0.02053458535032287
-0.01074210726855389
-0.0307957006442766
-0.4084062738341458
-0.01200599150219013
-0.01407806457948763
-0.004418440611538853
-0.01076899804222862
-0.009506360826244306
-0.01385796253842735
-0.008056513708397458
-0.0273725600464846
-0.01173462887412352
-0.1707848779926515
0.02022889251194519
-0.007353077957593024
0.003880701017054054
0.01184286345284002
-0.04900952978997044
0.02761989842547503
-0.01289787814249148
-0.1330635960254955
0.2827779537533172
-0.008201481239134546
-0.01351529305270644
-0.007937045486781855
-0.03329462788344131
-0.1257772917944027
-0.01319079382887956
-0.01194079898098771
-0.01766665431165132
-0.01350285485415411
-0.04168441017599567
-0.2200524439211586
-0.009346544670196761
-0.04366049840332454
-0.03834360278417241
-0.1793614248993012
-0.1515038879317983
-0.1553048065450009
-0.2373432889445038
-0.002958208635349784
-0.02067567383635446
-0.01556001771764457
-0.01399236121055924
-0.03374406771404772
-0.02450494440232137
-0.01395511664551539
-0.01492503079145944
-1.069912027015463
-0.002904099231403892
-0.01338947584444482
-0.01798860608454734
-0.0196089283274843
0.005532969654969988
-0.01425322481494786
-0.02546499945520656
-0.1564903298966571
-0.01358914416048083
-0.02089054553842369
-0.01464212702224959
0.001085409878101097
-0.1779687116351754
-0.01259101492466761
-0.1573155672468624
-0.01540316376405125
0.006292606942740997
-0.01393093862687819
-0.02426533577434397
-0.01642680007548506
0.007336832787033984
-0.2661155244489434
-0.02674139954454539
-0.01694451967727751
-0.0167894488108834
-0.01098570215227625
-0.02930183910277439
-0.01370326507321016
-0.0211878604699749
-0.02045453646485345
0.00833940654922395
-0.09771971119451098
-0.02114156751145145
0.009636374302941923
-0.05729545816672777
0.1791889181512126
-0.1064756825013154
-0.3167793098504249
-0.02931485698524862
-0.02592680021760043
0.1510230025329614
0.09477402358085013
-0.003776486540373048
0.05370982970804048
-0.01514773397543154
-0.01325741966120859
0.002732305611168222
0.007968624547358786
-0.06486527568989657
-0.004351604317741319
-0.05591846575836178
-0.02332264691360695
-0.01567626005207873
-0.03650429246906385
-0.03293606156432963
-0.006696956031199362
-0.01451833995379253
-0.03681315890771825
0.03060641273563115
-0.0386191718396357
-0.01384253007828627
-0.1197151801908575
-0.03080724649896137
-0.04002162287399663
-0.6689780587126923
0.01342105470038154
-0.01067875084343983
-0.005625355028218113
0.1870857431031978
-0.1015533431358757
-0.03599948173462447
-0.2421236384807287
-0.01514457656362266
-0.01603366619535053
0.07713551434655096
-0.1807233609661336
-0.230230610163713
-0.185850008325334
-0.6765724143573765
0.01132837712818086
-0.01790084649182576
-0.01510416326984565
-0.09675603505088078
0.1186484601299243
-0.021971701283627
-0.2419911088979046
-0.03633403906074906
-0.006993309250334904
0.2789492562746526
-0.01078144995024566
-0.0909416183869467
-0.1530125746706669
-0.004600832108256683
-0.04172668691350466
-0.04622765194588678
-0.1952989535252898
-0.007893603484663966
-0.03987296297519433
-0.003757476569099748
-0.5441993578881457
-0.1940831805259609
-0.178843419802911
-0.0236614091558172
-0.009102564623296091
-0.06217005953650473
-0.05640609938687655
-0.01601469788338116
-0.06968908852259804
0.004571861519632252
-0.01754087752662092
-0.09506305890962241
-0.2771035009916767
-0.009899158614808164
-0.02474405170622893
-0.02125063538584114
-0.07648818507937874
-0.08895299693571898
-0.08987453319362028
-0.0112169576656744
-0.9080802358629227
0.1620704714193993
-0.08301894409615668
-0.2512128448913862
-0.0412864650147438
-0.009111830375637345
-0.2475532783037646
-0.1958496551646145
-0.03089026331818362
-0.1138645945610999
-0.01772582129805321
0.5627629278741538
-0.02523741727637735
-0.2130913880356811
-0.02499925085213522
-0.003717540680377874
-0.01084204475398333
-1.246067780422439
-0.1816263675490772
-0.2271120010618589
0.005256792352857822
-0.03946443129988047
-0.2343335706368371
-0.06720880607490978
-0.05224958141554845
-0.1460609738702915
-0.1822584814645862
-0.0700932416221321
-1.215080071430666
-0.1605195569148732
-0.5416352454433943
0.07992916857693118
-0.006278823541913949
-0.02094903559027904
-0.04479499319499256
-0.03814463593492592
-0.02759504142537049
-0.1299227084976886
0.08144304151202127
-0.004383309584909002
-0.009860238006902911
-0.5621171069168983
-0.8491404894702798
-0.1755091139477652
-0.007513607823221344
-0.1225246362926142
0.0005972098528199645
-0.0005744882145456057
-0.002888617681387015
-0.06181667213642614
-0.2333712272037964
-0.01332933078188037
-0.1100834890917086
-0.1563497192050113
-0.01308999866490389
-0.03438070123224574
0.02876223631435688
-0.05891943628613291
-0.07218832966263627
-0.4925324714287137
-0.229607213054897
-0.07974461099052205
-0.07564426029579338
-0.01925858765481296
-0.1104268370007244
-0.1663543828784987
-0.08238312428149056
0.02733383218742376
-0.08736411099865522
-0.05049911867025977
-0.01494446868004321
-0.1160619208262563
-0.2815091087733254
-0.05960328980800211
-0.01797463334504061
0.001802250740609212
-0.01022767671325114
-0.01049957107202333
-0.2373522077177496
-0.01395034512290686
-0.2168039717823006
-0.01080342375206353
-0.07158781889351279
-0.004018714707102205
-0.02325866704101693
-0.3926067139953027
-0.9283202833629646
-0.01122795816131364
-1.040828186006316
-0.6012550927250123
-0.01061272118351144
-0.6595132956006902
-0.1869182867996414
-0.004869670786003417
-0.1233147654764668
-0.01712540875729068
-0.125489357212978
-0.06486845644837293
-0.07772536248848602
-0.005598821114373455
-0.003628897207216247
-1.344579195890769
-0.0113685265759067
-0.1884152846358431
0.001057657280846281
-1.007240665881215
-1.248099212788917
-0.07835763175120401
0.01658468586257206
0.1646033465960266
-0.0049238502188643
-0.02294413327373893
-0.004369661544808516
-0.2385713779416432
0.365512927123781
-0.04235613407584153
-0.2144145779882456
-0.01528628932020473
-0.6526374399120876
-0.0721915236537469
0.1890315015206413
-0.3038362489441474
-0.0509708319176544
-0.07049370824413251
-0.01578917484165399
-0.02136871857682717
-0.5939290283817008
-0.1539428131431258
-0.09566240754581122
-0.1180984788180442
-0.55073832854025
-0.04553787666521914
-0.9025872311536456
-0.0007510867540217349
-0.2442685947971668
-1.053509241407502
0.1668029932178341
0.2901533635866062
-0.1702761407221055
-0.1892691465127042
-0.2134113106921517
-0.06615103812146564
0.02572096282916765
0.04669535969222274
0.005108217870778438
-0.1523982520273842
0.02607839976378159
-1.366320410091711
-0.08737259447533068
-0.4794298855480622
-0.3345307725581527
-0.2198524060922448
-0.1805441173022452
-0.01698124096673391
-0.01535249994575249
-0.09266165234771537
0.1731577695984977
0.3846053514140415
-0.2104496397819167
-0.1564086873595125
-0.2248747085133383
-0.06377089919930314
-0.1634584412202018
-0.172880294565852
-0.1278695056375727
-0.1096539774110893
0.4651648423713077
-0.2832355871475283
0.4320136362666122
-0.5892628095978309
0.07297403790259943
-0.1889167541749764
-0.06805115022586247
-0.07762332848564894
-0.8937382948442855
-0.2183836392590185
-0.1927831648229358
-0.3551913321065849
-0.466601318109575
0.5697302423282663
-0.2125367422810698
0.002639640862270122
-0.06755536179504439
0.344805446339549
-0.03492474306058808
-0.118928656436001
-0.1818820954773362
-0.06471477138462087
-0.01631950534733434
-0.1984328241390973
0.1952647848946086
-0.01257225311299607
-0.09891342240234639
-0.1761717824232531
-0.317777964425545
-0.307978144848276
-0.08334979268234662
-0.009629224297803727
-0.07855088029994738
-0.6509789895964719
-0.6736161769419063
-0.3248748387684188
-0.05936151805799305
-0.04951010438220942
-0.0243434789608498
-0.0702859858028437
-0.054959860543764
-0.3685908062258031
-0.9627783094655021
-0.00859672376960088
-0.08550372323423978
-1.145640440956352
-1.042969450580823
-0.1080794217271657
-0.04163800062823372
-0.0678306990329182
0.3891578991195866
-0.3395359683490151
-0.05148342129516478
-0.6053849865302277
-0.1377425079071485
-0.2483964068702523
-0.2139741903647071
0.4734429773802646
-0.6369531039097175
0.07577871421059348
-0.02836419972302995
-0.5699303338654235
-0.05447990322189054
-0.3653487074841482
0.1092322046079181
-0.1938572110484964
-0.06162700345639684
-0.1249963711202491
-0.3582192904480225
-0.08511395206714875
0.5148962962767005
0.08699209831788492
0.4698945640331404
-0.1249769351939237
-0.2069469004946567
-0.5091823643587984
-0.1341678557626408
0.02426754329486185
-0.05571304940019559
0.1001503835285368
-0.3045898239105268
0.2364078550010779
0.00541668890060131
-0.002612408647554602
-0.5079766694180218
-0.1816074537362617
-0.1000471448896763
0.5810983509676255
0.1396168825260025
0.344415851985532
0.225138767596844
-0.5665739685693599
-0.2095964954823059
-0.2197035153103292
-0.2291690102288194
-0.06240628509107017
-0.6876614399729056
-0.1904528459540614
0.3046364610991383
-0.2039043173458655
-0.01118069868418859
-0.1626395268159571
-0.01187810611978862
-0.1706922117880007
-0.4471758732379261
-0.07661996584535145
-0.2062170074993801
-0.0774142584232924
-0.110293483687232
-0.1316987436116732
-0.07263861199787951
-0.4402853692490293
-0.410652452004652
-0.02411526989289346
-0.07763083287974501
0.3284795161956939
-0.2524788054422245
-0.1716073730688921
0.5245353477897799
-0.1935925955599642
0.02064917422853512
-0.4556888375120788
0.0488287048527093
-0.05952056768607167
-0.1554845839268374
-0.5924154615429075
0.1593820453117508
-0.5751675113688642
-0.5411476880176921
-0.1024569769881381
-0.5128442113138281
-0.03601239706078919
-0.1562265438208095
-0.4143853511189024
-0.0160757537673838
0.2878145962652308
0.4897300609000775
-0.1675648282076637
-0.00564239499495113
-0.08090241589600972
0.525050990478066
-0.03205983670130905
-0.4462365332588928
-0.03159063172062969
0.461248878443158
-0.01741678370890959
-0.5508958898972185
-0.2397727133652868
0.1777174165960456
-0.3157950350103039
-0.1825162809765722
0.0487195226290632
0.03124499475708446
0.05645455444957322
-0.3049244587425688
-0.1590240113495327
0.4127900719349846
)
;

boundaryField
{
    FrontBack
    {
        type            empty;
    }
    Top
    {
        type            zeroGradient;
    }
    In
    {
        type            zeroGradient;
    }
    Bottom
    {
        type            zeroGradient;
    }
    Out
    {
        type            fixedValue;
        value           uniform 0;
    }
    circle
    {
        type            zeroGradient;
    }
}


// ************************************************************************* //
