/*--------------------------------*- C++ -*----------------------------------*\
| =========                 |                                                 |
| \\      /  F ield         | OpenFOAM: The Open Source CFD Toolbox           |
|  \\    /   O peration     | Version:  2412                                  |
|   \\  /    A nd           | Website:  www.openfoam.com                      |
|    \\/     M anipulation  |                                                 |
\*---------------------------------------------------------------------------*/
FoamFile
{
    version     2.0;
    format      ascii;
    arch        "LSB;label=32;scalar=64";
    class       volVectorField;
    location    "0.5";
    object      cellDisplacement;
}
// * * * * * * * * * * * * * * * * * * * * * * * * * * * * * * * * * * * * * //

dimensions      [0 1 0 0 0 0 0];

internalField   nonuniform List<vector> 
1024
(
(0.00190425 -0.00232939 0)
(0.00362812 -0.00422074 0)
(0.00542469 -0.00561657 0)
(0.00741011 -0.00647565 0)
(0.0095144 -0.00667564 0)
(0.0116015 -0.00613835 0)
(0.0135677 -0.00488514 0)
(0.015081 -0.00296729 0)
(0.0158164 -0.000614381 0)
(0.0155564 0.00179308 0)
(0.0143347 0.0038158 0)
(0.012297 0.00506797 0)
(0.00985473 0.00541561 0)
(0.00725982 0.00487937 0)
(0.00473549 0.00364315 0)
(0.00227654 0.00188758 0)
(0.00833773 -0.0100536 0)
(0.0133368 -0.014898 0)
(0.0185802 -0.0182281 0)
(0.0241853 -0.019907 0)
(0.0300596 -0.0197713 0)
(0.0359211 -0.0176909 0)
(0.0411746 -0.0136704 0)
(0.0450829 -0.00798315 0)
(0.0468735 -0.00128221 0)
(0.0461313 0.00546819 0)
(0.042744 0.0111338 0)
(0.03751 0.0149139 0)
(0.0310091 0.0163451 0)
(0.0240093 0.015476 0)
(0.0169447 0.0125871 0)
(0.01008 0.00817113 0)
(0.0171305 -0.0203819 0)
(0.025047 -0.0271463 0)
(0.0333559 -0.0314579 0)
(0.042262 -0.0332214 0)
(0.0514684 -0.0321529 0)
(0.0603767 -0.0281015 0)
(0.0682053 -0.0212086 0)
(0.0738371 -0.0119587 0)
(0.0762525 -0.0013701 0)
(0.0749296 0.00914025 0)
(0.0699717 0.018065 0)
(0.0621421 0.0242024 0)
(0.0524994 0.0269908 0)
(0.0419629 0.0263822 0)
(0.0313088 0.022777 0)
(0.0207195 0.016631 0)
(0.0280821 -0.0329428 0)
(0.0386224 -0.0406886 0)
(0.0497359 -0.0451703 0)
(0.0614772 -0.0462631 0)
(0.0734518 -0.0437169 0)
(0.0849226 -0.0374205 0)
(0.0946955 -0.0275982 0)
(0.101497 -0.0149886 0)
(0.104179 -0.000903299 0)
(0.102333 0.0129376 0)
(0.0959643 0.0247183 0)
(0.0862255 0.0331408 0)
(0.0741673 0.0374709 0)
(0.0609574 0.0376552 0)
(0.0473774 0.0339943 0)
(0.0338212 0.0270237 0)
(0.0410765 -0.0474167 0)
(0.0539302 -0.0552175 0)
(0.0674681 -0.0590667 0)
(0.0817087 -0.0589075 0)
(0.0960289 -0.0544474 0)
(0.109394 -0.0456391 0)
(0.120548 -0.0328825 0)
(0.128067 -0.0171193 0)
(0.130799 0.000121952 0)
(0.12834 0.0168998 0)
(0.120974 0.0313101 0)
(0.109709 0.0418874 0)
(0.0958678 0.0479156 0)
(0.0806004 0.0492384 0)
(0.0648943 0.0461898 0)
(0.0490423 0.0391912 0)
(0.0559217 -0.0633904 0)
(0.0708262 -0.0704315 0)
(0.086541 -0.0729863 0)
(0.102824 -0.070995 0)
(0.11894 -0.0642373 0)
(0.133774 -0.0527562 0)
(0.145818 -0.0370844 0)
(0.153674 -0.0183549 0)
(0.156281 0.00174293 0)
(0.153247 0.0211759 0)
(0.144955 0.0379332 0)
(0.132621 0.0506295 0)
(0.117471 0.0584517 0)
(0.100783 0.0612634 0)
(0.0834553 0.0592652 0)
(0.0659377 0.0529345 0)
(0.0725209 -0.0805004 0)
(0.0892236 -0.0860188 0)
(0.106732 -0.0866422 0)
(0.124717 -0.0823762 0)
(0.142238 -0.0730182 0)
(0.157965 -0.0587296 0)
(0.170463 -0.0401936 0)
(0.178333 -0.0186841 0)
(0.180647 0.00401182 0)
(0.177013 0.025809 0)
(0.168088 0.0448001 0)
(0.154923 0.0595149 0)
(0.13889 0.0692346 0)
(0.121174 0.0737331 0)
(0.102811 0.0732528 0)
(0.0841601 0.0681924 0)
(0.0907539 -0.09832 0)
(0.109004 -0.101656 0)
(0.128069 -0.0998295 0)
(0.147317 -0.092864 0)
(0.165724 -0.0806617 0)
(0.181982 -0.0634843 0)
(0.194551 -0.0421531 0)
(0.202186 -0.0180403 0)
(0.204011 0.00701927 0)
(0.199855 0.0310005 0)
(0.190322 0.0520002 0)
(0.176621 0.0687296 0)
(0.159991 0.0803966 0)
(0.141679 0.0868343 0)
(0.122611 0.0881541 0)
(0.10324 0.0848403 0)
(0.110593 -0.116456 0)
(0.130185 -0.117015 0)
(0.150406 -0.112244 0)
(0.170552 -0.102247 0)
(0.189492 -0.0869988 0)
(0.20579 -0.0669021 0)
(0.218115 -0.0428715 0)
(0.225243 -0.0163383 0)
(0.226445 0.0108732 0)
(0.221707 0.0368053 0)
(0.211769 0.0597762 0)
(0.197669 0.0784336 0)
(0.180704 0.0921358 0)
(0.162004 0.100621 0)
(0.142577 0.104074 0)
(0.122835 0.102942 0)
(0.132058 -0.134476 0)
(0.152708 -0.131688 0)
(0.173819 -0.12357 0)
(0.194446 -0.110238 0)
(0.213425 -0.0918213 0)
(0.229448 -0.0687961 0)
(0.241162 -0.0421841 0)
(0.247499 -0.0134277 0)
(0.247966 0.0157183 0)
(0.242701 0.0434982 0)
(0.232349 0.0682354 0)
(0.218018 0.0888394 0)
(0.200858 0.104598 0)
(0.182 0.115351 0)
(0.162406 0.121145 0)
(0.142476 0.122532 0)
(0.155237 -0.151853 0)
(0.176727 -0.145239 0)
(0.198321 -0.133369 0)
(0.219014 -0.116489 0)
(0.23764 -0.0947793 0)
(0.252894 -0.0688953 0)
(0.263601 -0.0398659 0)
(0.268935 -0.00910422 0)
(0.268586 0.0217968 0)
(0.262715 0.0511786 0)
(0.25206 0.0776806 0)
(0.237575 0.100153 0)
(0.220317 0.118089 0)
(0.201411 0.131197 0)
(0.181713 0.139623 0)
(0.161746 0.143812 0)
(0.1803 -0.167855 0)
(0.202338 -0.156987 0)
(0.224044 -0.14103 0)
(0.24432 -0.120417 0)
(0.262001 -0.0954273 0)
(0.276 -0.0667987 0)
(0.285358 -0.0355914 0)
(0.289478 -0.00305651 0)
(0.288202 0.0293259 0)
(0.281749 0.0602355 0)
(0.270791 0.0883004 0)
(0.256156 0.112713 0)
(0.238897 0.132836 0)
(0.21988 0.148537 0)
(0.200116 0.159733 0)
(0.179947 0.167049 0)
(0.207533 -0.18153 0)
(0.22976 -0.165935 0)
(0.251019 -0.145663 0)
(0.270204 -0.121208 0)
(0.286372 -0.0930374 0)
(0.298627 -0.0619508 0)
(0.306291 -0.0288483 0)
(0.308975 0.00510718 0)
(0.306612 0.0387705 0)
(0.299517 0.0708491 0)
(0.288187 0.10045 0)
(0.273477 0.126686 0)
(0.256098 0.149178 0)
(0.237018 0.167543 0)
(0.216883 0.18189 0)
(0.196344 0.192487 0)
(0.2373 -0.191479 0)
(0.259128 -0.170709 0)
(0.279167 -0.145962 0)
(0.2965 -0.117764 0)
(0.310422 -0.0867194 0)
(0.320356 -0.0535314 0)
(0.325907 -0.0190484 0)
(0.326872 0.0158879 0)
(0.323283 0.0503106 0)
(0.315398 0.0833807 0)
(0.30371 0.114255 0)
(0.288738 0.142378 0)
(0.271215 0.167217 0)
(0.251739 0.188563 0)
(0.231114 0.206216 0)
(0.20961 0.220539 0)
(0.269538 -0.195108 0)
(0.28994 -0.168911 0)
(0.307579 -0.139888 0)
(0.322003 -0.108578 0)
(0.332874 -0.0754072 0)
(0.339937 -0.0409411 0)
(0.343025 -0.00575955 0)
(0.342083 0.0295166 0)
(0.337171 0.0642782 0)
(0.328478 0.0979141 0)
(0.316275 0.129887 0)
(0.300947 0.159696 0)
(0.282913 0.186966 0)
(0.262703 0.211365 0)
(0.240787 0.232739 0)
(0.217593 0.251103 0)
(0.300828 -0.187707 0)
(0.317778 -0.157317 0)
(0.331667 -0.125412 0)
(0.342363 -0.0922991 0)
(0.349761 -0.0582973 0)
(0.353791 -0.023734 0)
(0.354414 0.0110579 0)
(0.351623 0.0457433 0)
(0.345447 0.0799882 0)
(0.335943 0.113463 0)
(0.323204 0.145844 0)
(0.307352 0.176822 0)
(0.288541 0.206096 0)
(0.266951 0.233386 0)
(0.242789 0.258428 0)
(0.21629 0.280981 0)
(0.00230448 0.00181712 0)
(0.00422944 0.00355603 0)
(0.00560451 0.00533355 0)
(0.00644787 0.00731062 0)
(0.00665029 0.00944615 0)
(0.00613524 0.0116218 0)
(0.00485728 0.013553 0)
(0.0029366 0.0150607 0)
(0.000577747 0.015791 0)
(-0.00184584 0.0156162 0)
(-0.00386122 0.0143717 0)
(-0.00509121 0.0122738 0)
(-0.00544692 0.00983415 0)
(-0.00490604 0.00723042 0)
(-0.00365667 0.00469956 0)
(-0.00189692 0.00226705 0)
(0.0100436 0.00811913 0)
(0.0148478 0.0130503 0)
(0.0181828 0.0182986 0)
(0.0198236 0.0239034 0)
(0.0197132 0.0299134 0)
(0.0176272 0.0358301 0)
(0.0135889 0.0411264 0)
(0.00789435 0.0450233 0)
(0.00116944 0.0468512 0)
(-0.00558797 0.0461441 0)
(-0.0112486 0.0428126 0)
(-0.0150012 0.0374734 0)
(-0.0163895 0.0308594 0)
(-0.0155356 0.0238908 0)
(-0.0126708 0.0168979 0)
(-0.00821858 0.0100424 0)
(0.0203136 0.0167166 0)
(0.0271029 0.0246159 0)
(0.031375 0.0329055 0)
(0.0331098 0.0418563 0)
(0.0320478 0.051201 0)
(0.0280079 0.0602843 0)
(0.0210776 0.0681188 0)
(0.0118176 0.0737452 0)
(0.00120653 0.0761774 0)
(-0.00933278 0.0749884 0)
(-0.0182335 0.0700162 0)
(-0.0243173 0.062036 0)
(-0.0270976 0.0523322 0)
(-0.0265009 0.0418158 0)
(-0.0228862 0.0311848 0)
(-0.0167271 0.0206493 0)
(0.0328964 0.0275529 0)
(0.0405925 0.0380076 0)
(0.0450658 0.0491492 0)
(0.0461264 0.0609667 0)
(0.0435845 0.0731352 0)
(0.0372729 0.084713 0)
(0.027425 0.0945711 0)
(0.0148037 0.101374 0)
(0.000687348 0.104106 0)
(-0.0131566 0.102303 0)
(-0.0249201 0.0959624 0)
(-0.0333111 0.0861083 0)
(-0.0376053 0.0739366 0)
(-0.0377995 0.0607424 0)
(-0.0341626 0.04724 0)
(-0.0271744 0.0337195 0)
(0.0473178 0.040372 0)
(0.0551289 0.0532067 0)
(0.0589402 0.0667689 0)
(0.0587557 0.0811303 0)
(0.0542819 0.0956165 0)
(0.0454635 0.109182 0)
(0.032676 0.120387 0)
(0.0168989 0.127925 0)
(-0.000362343 0.130679 0)
(-0.0171637 0.128321 0)
(-0.0315422 0.120927 0)
(-0.0420781 0.109539 0)
(-0.048108 0.0956436 0)
(-0.0494382 0.0803882 0)
(-0.0463828 0.0647044 0)
(-0.0394008 0.0489163 0)
(0.0633061 0.055123 0)
(0.0703031 0.0699641 0)
(0.0728472 0.0857576 0)
(0.07083 0.102181 0)
(0.064056 0.118512 0)
(0.0525558 0.133466 0)
(0.0368585 0.145626 0)
(0.0181117 0.153513 0)
(-0.00201478 0.156174 0)
(-0.0214403 0.153157 0)
(-0.0381809 0.144867 0)
(-0.0508685 0.132459 0)
(-0.0586692 0.117225 0)
(-0.0614811 0.100534 0)
(-0.059512 0.0832725 0)
(-0.0532001 0.0657976 0)
(0.0803703 0.0715803 0)
(0.0858988 0.0882988 0)
(0.086495 0.105887 0)
(0.0822083 0.124046 0)
(0.0728279 0.141739 0)
(0.058519 0.157669 0)
(0.0399599 0.170247 0)
(0.0184285 0.178169 0)
(-0.00428233 0.180511 0)
(-0.026101 0.176942 0)
(-0.0450651 0.167986 0)
(-0.059761 0.154734 0)
(-0.0694946 0.138659 0)
(-0.0740009 0.120955 0)
(-0.073526 0.102614 0)
(-0.0685187 0.0840176 0)
(0.0981935 0.089752 0)
(0.101514 0.107994 0)
(0.0996864 0.12719 0)
(0.0927021 0.146618 0)
(0.0804757 0.165246 0)
(0.0632893 0.181629 0)
(0.0419256 0.194328 0)
(0.0177898 0.20202 0)
(-0.00730337 0.203908 0)
(-0.0312688 0.199751 0)
(-0.0522671 0.190211 0)
(-0.0690129 0.176461 0)
(-0.0806722 0.159768 0)
(-0.0871079 0.141448 0)
(-0.088474 0.122439 0)
(-0.0852157 0.103107 0)
(0.116283 0.109499 0)
(0.116872 0.129151 0)
(0.112108 0.149509 0)
(0.102102 0.169868 0)
(0.0868406 0.188982 0)
(0.0667198 0.205474 0)
(0.0426666 0.217894 0)
(0.0160989 0.225098 0)
(-0.0111239 0.226332 0)
(-0.0370846 0.221639 0)
(-0.060042 0.211676 0)
(-0.0787033 0.197505 0)
(-0.0924256 0.180491 0)
(-0.100938 0.161825 0)
(-0.104425 0.142422 0)
(-0.103371 0.122724 0)
(0.134288 0.130964 0)
(0.131533 0.15168 0)
(0.12345 0.172959 0)
(0.110122 0.193783 0)
(0.0916854 0.212983 0)
(0.0686611 0.229126 0)
(0.0420144 0.240963 0)
(0.0132262 0.247369 0)
(-0.0159646 0.247897 0)
(-0.0437249 0.242635 0)
(-0.0684802 0.23227 0)
(-0.0891237 0.217882 0)
(-0.10491 0.200706 0)
(-0.115694 0.181845 0)
(-0.12155 0.162303 0)
(-0.123005 0.142394 0)
(0.151642 0.154218 0)
(0.145101 0.175796 0)
(0.133266 0.197558 0)
(0.116406 0.218448 0)
(0.0946889 0.237224 0)
(0.0688028 0.252626 0)
(0.0397501 0.263427 0)
(0.0089406 0.268838 0)
(-0.0219688 0.268522 0)
(-0.0513884 0.262684 0)
(-0.0778976 0.252016 0)
(-0.100428 0.237489 0)
(-0.118413 0.220208 0)
(-0.131583 0.201329 0)
(-0.140061 0.181652 0)
(-0.144313 0.161694 0)
(0.167682 0.179462 0)
(0.156847 0.201609 0)
(0.140971 0.223437 0)
(0.120341 0.243869 0)
(0.0953862 0.261685 0)
(0.0667505 0.275782 0)
(0.0355251 0.285226 0)
(0.00296043 0.289402 0)
(-0.0294761 0.288173 0)
(-0.0603666 0.281754 0)
(-0.0885018 0.270771 0)
(-0.112952 0.256132 0)
(-0.133164 0.238844 0)
(-0.148901 0.219854 0)
(-0.160163 0.200076 0)
(-0.167505 0.179921 0)
(0.181355 0.206979 0)
(0.165859 0.229254 0)
(0.145574 0.250625 0)
(0.121185 0.269909 0)
(0.0930177 0.286153 0)
(0.0619407 0.29848 0)
(0.0288228 0.306205 0)
(-0.00517564 0.308934 0)
(-0.0388386 0.306616 0)
(-0.070967 0.299529 0)
(-0.100576 0.288223 0)
(-0.1269 0.273463 0)
(-0.149414 0.25611 0)
(-0.167856 0.236984 0)
(-0.182207 0.216886 0)
(-0.192871 0.196294 0)
(0.191378 0.236997 0)
(0.170616 0.258873 0)
(0.145899 0.278956 0)
(0.117735 0.296341 0)
(0.0867338 0.310304 0)
(0.0535378 0.320278 0)
(0.0190371 0.325864 0)
(-0.0159133 0.326861 0)
(-0.05036 0.323292 0)
(-0.0834308 0.315433 0)
(-0.114348 0.303728 0)
(-0.14249 0.288762 0)
(-0.16738 0.271206 0)
(-0.188732 0.251752 0)
(-0.206431 0.231088 0)
(-0.220756 0.209616 0)
(0.195052 0.269443 0)
(0.168878 0.289851 0)
(0.139861 0.307506 0)
(0.108562 0.321941 0)
(0.0754077 0.332832 0)
(0.0409431 0.339911 0)
(0.00575529 0.343012 0)
(-0.0295279 0.342082 0)
(-0.0642923 0.337181 0)
(-0.0979348 0.328493 0)
(-0.129919 0.316287 0)
(-0.159741 0.300956 0)
(-0.187023 0.282916 0)
(-0.211432 0.262705 0)
(-0.232815 0.240788 0)
(-0.25119 0.217592 0)
(0.187707 0.300828 0)
(0.157317 0.317778 0)
(0.125412 0.331667 0)
(0.0922991 0.342363 0)
(0.0582973 0.349761 0)
(0.023734 0.353791 0)
(-0.0110579 0.354414 0)
(-0.0457433 0.351623 0)
(-0.0799882 0.345447 0)
(-0.113463 0.335943 0)
(-0.145844 0.323204 0)
(-0.176822 0.307352 0)
(-0.206096 0.288541 0)
(-0.233386 0.266951 0)
(-0.258428 0.242789 0)
(-0.280981 0.21629 0)
(-0.00182209 0.00229414 0)
(-0.00358755 0.00421738 0)
(-0.00539327 0.00560416 0)
(-0.00738704 0.00646848 0)
(-0.0094979 0.00666831 0)
(-0.0115953 0.00612673 0)
(-0.0135659 0.00487263 0)
(-0.0150811 0.00295522 0)
(-0.0158161 0.000603475 0)
(-0.0155553 -0.00180315 0)
(-0.01433 -0.00382531 0)
(-0.0122913 -0.00507736 0)
(-0.00984753 -0.00542498 0)
(-0.00725315 -0.00488866 0)
(-0.00472498 -0.0036517 0)
(-0.00226272 -0.00189242 0)
(-0.00816414 0.0100056 0)
(-0.0131642 0.0148174 0)
(-0.0184784 0.0181896 0)
(-0.0241221 0.0198816 0)
(-0.0300199 0.0197439 0)
(-0.0359002 0.017659 0)
(-0.0411662 0.0136366 0)
(-0.0450796 0.00795028 0)
(-0.0468696 0.00125183 0)
(-0.0461234 -0.00549679 0)
(-0.0427338 -0.0111618 0)
(-0.0374906 -0.0149415 0)
(-0.0309862 -0.0163727 0)
(-0.0239838 -0.0155038 0)
(-0.0169197 -0.0126127 0)
(-0.0100439 -0.0081898 0)
(-0.0168225 0.0202509 0)
(-0.0248143 0.0270588 0)
(-0.0331935 0.0313906 0)
(-0.0421584 0.0331732 0)
(-0.051404 0.0321062 0)
(-0.0603442 0.0280495 0)
(-0.0681921 0.0211548 0)
(-0.0738314 0.0119068 0)
(-0.0762455 0.00132198 0)
(-0.0749181 -0.00918578 0)
(-0.0699505 -0.0181092 0)
(-0.0621108 -0.0242464 0)
(-0.0524618 -0.0270347 0)
(-0.041925 -0.0264261 0)
(-0.0312648 -0.0228194 0)
(-0.0206647 -0.0166656 0)
(-0.0277301 0.0328112 0)
(-0.038287 0.040543 0)
(-0.0495127 0.0450771 0)
(-0.0613353 0.0461919 0)
(-0.0733673 0.0436494 0)
(-0.0848797 0.0373506 0)
(-0.094677 0.0275279 0)
(-0.101487 0.0149214 0)
(-0.104168 0.00084076 0)
(-0.102314 -0.012997 0)
(-0.095935 -0.0247765 0)
(-0.0861821 -0.0331986 0)
(-0.0741166 -0.0375288 0)
(-0.0609026 -0.0377136 0)
(-0.0473191 -0.0340513 0)
(-0.0337537 -0.0270747 0)
(-0.0406204 0.0472198 0)
(-0.0535593 0.0550746 0)
(-0.0671898 0.0589497 0)
(-0.0815292 0.058814 0)
(-0.0959255 0.0543614 0)
(-0.109343 0.0455536 0)
(-0.120526 0.0327984 0)
(-0.128053 0.0170397 0)
(-0.130784 -0.000196043 0)
(-0.128316 -0.0169703 0)
(-0.120936 -0.0313792 0)
(-0.109655 -0.0419564 0)
(-0.0958049 -0.0479849 0)
(-0.0805339 -0.0493083 0)
(-0.0648219 -0.0462599 0)
(-0.0489639 -0.0392579 0)
(-0.0554467 0.0632005 0)
(-0.0703738 0.0702505 0)
(-0.0862159 0.0728517 0)
(-0.102612 0.0708847 0)
(-0.11882 0.0641367 0)
(-0.133718 0.052658 0)
(-0.145793 0.03699 0)
(-0.153659 0.0182665 0)
(-0.156261 -0.00182516 0)
(-0.153216 -0.0212542 0)
(-0.144908 -0.0380102 0)
(-0.132558 -0.0507066 0)
(-0.117399 -0.0585294 0)
(-0.100705 -0.0613427 0)
(-0.0833728 -0.0593457 0)
(-0.0658527 -0.0530143 0)
(-0.0719656 0.0802684 0)
(-0.0887598 0.0858484 0)
(-0.106369 0.0864983 0)
(-0.124482 0.0822536 0)
(-0.142111 0.0729059 0)
(-0.157906 0.0586235 0)
(-0.170436 0.0400934 0)
(-0.178314 0.0185911 0)
(-0.180623 -0.00409824 0)
(-0.176977 -0.0258915 0)
(-0.168037 -0.0448816 0)
(-0.154854 -0.0595968 0)
(-0.13881 -0.0693178 0)
(-0.121088 -0.0738185 0)
(-0.102722 -0.0733411 0)
(-0.0840707 -0.0682829 0)
(-0.090198 0.0981007 0)
(-0.108486 0.10147 0)
(-0.127689 0.0996811 0)
(-0.147075 0.0927365 0)
(-0.165595 0.0805466 0)
(-0.181926 0.0633743 0)
(-0.194526 0.0420508 0)
(-0.202166 0.0179464 0)
(-0.203984 -0.00710622 0)
(-0.199816 -0.0310837 0)
(-0.190265 -0.0520825 0)
(-0.176549 -0.0688129 0)
(-0.159907 -0.0804818 0)
(-0.141588 -0.086923 0)
(-0.122517 -0.0882474 0)
(-0.103149 -0.0849379 0)
(-0.109987 0.116206 0)
(-0.129671 0.116831 0)
(-0.150015 0.112095 0)
(-0.170314 0.10212 0)
(-0.189375 0.0868834 0)
(-0.205741 0.066795 0)
(-0.218091 0.0427727 0)
(-0.225222 0.0162484 0)
(-0.226417 -0.0109563 0)
(-0.221666 -0.036885 0)
(-0.211711 -0.0598557 0)
(-0.197595 -0.0785147 0)
(-0.180618 -0.0922198 0)
(-0.16191 -0.10071 0)
(-0.142482 -0.104169 0)
(-0.122745 -0.103043 0)
(-0.131488 0.134231 0)
(-0.152209 0.131494 0)
(-0.173462 0.123424 0)
(-0.194234 0.110118 0)
(-0.213324 0.0917147 0)
(-0.229407 0.0686973 0)
(-0.241141 0.0420937 0)
(-0.247479 0.0133459 0)
(-0.247937 -0.0157938 0)
(-0.24266 -0.0435711 0)
(-0.23229 -0.0683084 0)
(-0.217944 -0.0889147 0)
(-0.200772 -0.104678 0)
(-0.181909 -0.115436 0)
(-0.162313 -0.121237 0)
(-0.142391 -0.122632 0)
(-0.154741 0.1516 0)
(-0.176317 0.145055 0)
(-0.198032 0.133237 0)
(-0.218848 0.116382 0)
(-0.237563 0.0946835 0)
(-0.25286 0.0688102 0)
(-0.263582 0.0397891 0)
(-0.268914 0.00903504 0)
(-0.268558 -0.021861 0)
(-0.262674 -0.0512409 0)
(-0.252004 -0.0777439 0)
(-0.237506 -0.100219 0)
(-0.220238 -0.11816 0)
(-0.201326 -0.131274 0)
(-0.181629 -0.139708 0)
(-0.161671 -0.143907 0)
(-0.179953 0.16763 0)
(-0.202058 0.156828 0)
(-0.223852 0.140916 0)
(-0.244211 0.120324 0)
(-0.261947 0.0953487 0)
(-0.275974 0.0667301 0)
(-0.28534 0.0355318 0)
(-0.289457 0.00300335 0)
(-0.288174 -0.0293755 0)
(-0.281711 -0.0602845 0)
(-0.270741 -0.0883504 0)
(-0.256096 -0.112766 0)
(-0.23883 -0.132894 0)
(-0.219811 -0.148602 0)
(-0.200049 -0.159805 0)
(-0.179889 -0.167132 0)
(-0.207343 0.181351 0)
(-0.229615 0.16581 0)
(-0.250922 0.145571 0)
(-0.270147 0.121136 0)
(-0.286342 0.0929766 0)
(-0.298609 0.0619004 0)
(-0.306276 0.0288069 0)
(-0.308957 -0.00514311 0)
(-0.306588 -0.0388041 0)
(-0.299485 -0.0708824 0)
(-0.288148 -0.100485 0)
(-0.273433 -0.126723 0)
(-0.256051 -0.14922 0)
(-0.236971 -0.167591 0)
(-0.216839 -0.181945 0)
(-0.196307 -0.192553 0)
(-0.237234 0.191357 0)
(-0.259079 0.170625 0)
(-0.279136 0.145901 0)
(-0.296482 0.117715 0)
(-0.310412 0.086679 0)
(-0.320348 0.0535001 0)
(-0.325898 0.0190242 0)
(-0.32686 -0.015908 0)
(-0.323266 -0.050329 0)
(-0.315377 -0.0833993 0)
(-0.303686 -0.114275 0)
(-0.288712 -0.1424 0)
(-0.271189 -0.167242 0)
(-0.251713 -0.188592 0)
(-0.231091 -0.206251 0)
(-0.209591 -0.220582 0)
(-0.269531 0.195055 0)
(-0.289934 0.168876 0)
(-0.307577 0.139863 0)
(-0.322003 0.108557 0)
(-0.332874 0.0753901 0)
(-0.339935 0.0409282 0)
(-0.343021 0.00575004 0)
(-0.342078 -0.029524 0)
(-0.337164 -0.0642849 0)
(-0.32847 -0.0979207 0)
(-0.316266 -0.129894 0)
(-0.300938 -0.159704 0)
(-0.282904 -0.186975 0)
(-0.262695 -0.211377 0)
(-0.240779 -0.232754 0)
(-0.217587 -0.251121 0)
(-0.300828 0.187707 0)
(-0.317778 0.157317 0)
(-0.331667 0.125412 0)
(-0.342363 0.0922991 0)
(-0.349761 0.0582973 0)
(-0.353791 0.023734 0)
(-0.354414 -0.0110579 0)
(-0.351623 -0.0457433 0)
(-0.345447 -0.0799882 0)
(-0.335943 -0.113463 0)
(-0.323204 -0.145844 0)
(-0.307352 -0.176822 0)
(-0.288541 -0.206096 0)
(-0.266951 -0.233386 0)
(-0.242789 -0.258428 0)
(-0.21629 -0.280981 0)
(-0.00228971 -0.00181977 0)
(-0.00421794 -0.00356224 0)
(-0.00559948 -0.0053424 0)
(-0.00644336 -0.00732016 0)
(-0.00664435 -0.0094552 0)
(-0.00612897 -0.0116317 0)
(-0.00485589 -0.0135696 0)
(-0.00293533 -0.0150858 0)
(-0.000574505 -0.0158263 0)
(0.00185493 -0.0156553 0)
(0.00387746 -0.0144178 0)
(0.00512317 -0.0123432 0)
(0.00547655 -0.00988067 0)
(0.00495545 -0.00728603 0)
(0.00370266 -0.00472783 0)
(0.00195653 -0.00228914 0)
(-0.0100035 -0.00813486 0)
(-0.0148244 -0.0130736 0)
(-0.0181653 -0.0183271 0)
(-0.0198132 -0.0239348 0)
(-0.0196994 -0.0299453 0)
(-0.0176152 -0.0358684 0)
(-0.0135793 -0.0411781 0)
(-0.00788348 -0.0450972 0)
(-0.00115186 -0.0469486 0)
(0.00561803 -0.0462603 0)
(0.0113006 -0.0429548 0)
(0.0150789 -0.0376394 0)
(0.016532 -0.0310954 0)
(0.0156811 -0.024058 0)
(0.0128369 -0.0170209 0)
(0.00837541 -0.0101017 0)
(-0.0202609 -0.016749 0)
(-0.0270649 -0.0246581 0)
(-0.0313509 -0.0329543 0)
(-0.0330911 -0.04191 0)
(-0.0320275 -0.0512586 0)
(-0.0279877 -0.0603518 0)
(-0.0210598 -0.0682075 0)
(-0.0117953 -0.0738659 0)
(-0.00117315 -0.0763334 0)
(0.00938756 -0.075174 0)
(0.0183209 -0.0702413 0)
(0.0244663 -0.0623363 0)
(0.0272879 -0.0526333 0)
(0.0267408 -0.0420891 0)
(0.023138 -0.0313725 0)
(0.0169789 -0.0207619 0)
(-0.0328309 -0.0276036 0)
(-0.0405465 -0.038068 0)
(-0.045032 -0.0492177 0)
(-0.0461008 -0.0610422 0)
(-0.0435587 -0.0732185 0)
(-0.0372471 -0.0848109 0)
(-0.0273964 -0.0946953 0)
(-0.0147667 -0.101537 0)
(-0.00063424 -0.104312 0)
(0.0132368 -0.102548 0)
(0.0250461 -0.0962652 0)
(0.0334959 -0.0864688 0)
(0.0378816 -0.0743607 0)
(0.0381146 -0.0610946 0)
(0.0345151 -0.0475152 0)
(0.0275084 -0.0338842 0)
(-0.0472457 -0.0404395 0)
(-0.0550739 -0.0532847 0)
(-0.0588998 -0.0668551 0)
(-0.0587236 -0.0812265 0)
(-0.0542511 -0.0957243 0)
(-0.0454305 -0.109308 0)
(-0.032636 -0.120542 0)
(-0.0168462 -0.128122 0)
(0.000434979 -0.130922 0)
(0.0172702 -0.128616 0)
(0.0317016 -0.121288 0)
(0.0423232 -0.109989 0)
(0.0484179 -0.0960976 0)
(0.0498279 -0.0808124 0)
(0.0468009 -0.0650243 0)
(0.0397984 -0.0491235 0)
(-0.0632282 -0.055206 0)
(-0.0702425 -0.0700564 0)
(-0.0728009 -0.0858601 0)
(-0.0707925 -0.102295 0)
(-0.0640199 -0.118641 0)
(-0.0525151 -0.133615 0)
(-0.0368072 -0.145807 0)
(-0.0180443 -0.153735 0)
(0.00210652 -0.156447 0)
(0.0215714 -0.153486 0)
(0.0383754 -0.145274 0)
(0.0511349 -0.13293 0)
(0.0590441 -0.117749 0)
(0.0619223 -0.100996 0)
(0.0600046 -0.0836505 0)
(0.0536655 -0.0660543 0)
(-0.0802895 -0.0716748 0)
(-0.0858345 -0.0884034 0)
(-0.0864442 -0.106003 0)
(-0.0821665 -0.124175 0)
(-0.072787 -0.141885 0)
(-0.0584717 -0.157837 0)
(-0.0398975 -0.170444 0)
(-0.018347 -0.178406 0)
(0.00439094 -0.180797 0)
(0.0262532 -0.177292 0)
(0.0452806 -0.168414 0)
(0.0600757 -0.155253 0)
(0.0698857 -0.139184 0)
(0.0744936 -0.121452 0)
(0.0740565 -0.103006 0)
(0.0690135 -0.0842918 0)
(-0.0981123 -0.0898553 0)
(-0.101446 -0.108107 0)
(-0.0996336 -0.127314 0)
(-0.0926565 -0.146757 0)
(-0.0804299 -0.165402 0)
(-0.0632339 -0.181804 0)
(-0.0418551 -0.194532 0)
(-0.0176984 -0.202261 0)
(0.00742395 -0.204197 0)
(0.0314355 -0.200105 0)
(0.0525057 -0.19065 0)
(0.069324 -0.176961 0)
(0.0811039 -0.160315 0)
(0.0876185 -0.141936 0)
(0.0890353 -0.122839 0)
(0.085764 -0.10342 0)
(-0.116203 -0.109607 0)
(-0.116806 -0.129269 0)
(-0.112052 -0.149638 0)
(-0.102053 -0.170011 0)
(-0.08679 -0.18914 0)
(-0.0666604 -0.205651 0)
(-0.0425895 -0.218094 0)
(-0.0160009 -0.225331 0)
(0.011252 -0.226608 0)
(0.0372586 -0.22198 0)
(0.0602772 -0.212093 0)
(0.079042 -0.198011 0)
(0.0928479 -0.181008 0)
(0.101465 -0.1623 0)
(0.104998 -0.142828 0)
(0.103927 -0.12305 0)
(-0.134213 -0.131072 0)
(-0.131468 -0.151797 0)
(-0.123395 -0.173087 0)
(-0.110071 -0.193923 0)
(-0.091632 -0.213136 0)
(-0.0685964 -0.229293 0)
(-0.0419351 -0.241149 0)
(-0.0131267 -0.247582 0)
(0.016092 -0.24815 0)
(0.0438953 -0.242947 0)
(0.0687184 -0.232663 0)
(0.0894274 -0.21834 0)
(0.105327 -0.201177 0)
(0.116185 -0.1823 0)
(0.122098 -0.162688 0)
(0.123552 -0.142755 0)
(-0.151576 -0.154321 0)
(-0.145042 -0.175907 0)
(-0.133212 -0.197678 0)
(-0.116353 -0.218578 0)
(-0.0946325 -0.237362 0)
(-0.0687381 -0.252775 0)
(-0.0396715 -0.263588 0)
(-0.00884497 -0.269021 0)
(0.0220901 -0.268738 0)
(0.0515466 -0.262954 0)
(0.0780987 -0.252353 0)
(0.100705 -0.237877 0)
(0.118752 -0.220627 0)
(0.131999 -0.201708 0)
(0.140503 -0.18203 0)
(0.144774 -0.162023 0)
(-0.167631 -0.179553 0)
(-0.156797 -0.201706 0)
(-0.140922 -0.223541 0)
(-0.120291 -0.243978 0)
(-0.0953322 -0.2618 0)
(-0.066688 -0.275903 0)
(-0.0354522 -0.285355 0)
(-0.00287343 -0.289547 0)
(0.0295811 -0.288344 0)
(0.060496 -0.281966 0)
(0.0886632 -0.271033 0)
(0.113147 -0.256436 0)
(0.133405 -0.239154 0)
(0.149171 -0.220176 0)
(0.160466 -0.200382 0)
(0.167812 -0.180233 0)
(-0.18132 -0.207051 0)
(-0.165822 -0.22933 0)
(-0.145535 -0.250704 0)
(-0.121143 -0.269992 0)
(-0.0929707 -0.286238 0)
(-0.0618877 -0.298568 0)
(-0.0287619 -0.306296 0)
(0.00524516 -0.309036 0)
(0.0389192 -0.306735 0)
(0.0710584 -0.299675 0)
(0.100679 -0.288399 0)
(0.127015 -0.273666 0)
(0.149543 -0.256328 0)
(0.16799 -0.237218 0)
(0.182344 -0.21713 0)
(0.193016 -0.196556 0)
(-0.191359 -0.237045 0)
(-0.170594 -0.258922 0)
(-0.145874 -0.279007 0)
(-0.117706 -0.296392 0)
(-0.0867011 -0.310355 0)
(-0.0535012 -0.320331 0)
(-0.0189963 -0.325918 0)
(0.0159586 -0.326919 0)
(0.0504091 -0.323359 0)
(0.0834826 -0.315514 0)
(0.1144 -0.303826 0)
(0.142541 -0.288874 0)
(0.167425 -0.271335 0)
(0.188773 -0.251892 0)
(0.206458 -0.231256 0)
(0.220782 -0.209809 0)
(-0.195045 -0.269464 0)
(-0.16887 -0.289872 0)
(-0.13985 -0.307527 0)
(-0.108549 -0.321962 0)
(-0.0753933 -0.332853 0)
(-0.0409271 -0.339931 0)
(-0.00573791 -0.343032 0)
(0.0295465 -0.342103 0)
(0.0643115 -0.337205 0)
(0.0979538 -0.328521 0)
(0.129936 -0.316322 0)
(0.159755 -0.300997 0)
(0.187032 -0.282965 0)
(0.211437 -0.262759 0)
(0.2328 -0.240877 0)
(0.251187 -0.217671 0)
(-0.187707 -0.300828 0)
(-0.157317 -0.317778 0)
(-0.125412 -0.331667 0)
(-0.0922991 -0.342363 0)
(-0.0582973 -0.349761 0)
(-0.023734 -0.353791 0)
(0.0110579 -0.354414 0)
(0.0457433 -0.351623 0)
(0.0799882 -0.345447 0)
(0.113463 -0.335943 0)
(0.145844 -0.323204 0)
(0.176822 -0.307352 0)
(0.206096 -0.288541 0)
(0.233386 -0.266951 0)
(0.258428 -0.242789 0)
(0.280981 -0.21629 0)
)
;

boundaryField
{
    walls
    {
        type            cellMotion;
        value           uniform (0 0 0);
    }
    cylinder
    {
        type            cellMotion;
        value           nonuniform List<vector> 
64
(
(0.300828 -0.187707 0)
(0.317778 -0.157317 0)
(0.331667 -0.125412 0)
(0.342363 -0.0922991 0)
(0.349761 -0.0582973 0)
(0.353791 -0.023734 0)
(0.354414 0.0110579 0)
(0.351623 0.0457433 0)
(0.345447 0.0799882 0)
(0.335943 0.113463 0)
(0.323204 0.145844 0)
(0.307352 0.176822 0)
(0.288541 0.206096 0)
(0.266951 0.233386 0)
(0.242789 0.258428 0)
(0.21629 0.280981 0)
(0.187707 0.300828 0)
(0.157317 0.317778 0)
(0.125412 0.331667 0)
(0.0922991 0.342363 0)
(0.0582973 0.349761 0)
(0.023734 0.353791 0)
(-0.0110579 0.354414 0)
(-0.0457433 0.351623 0)
(-0.0799882 0.345447 0)
(-0.113463 0.335943 0)
(-0.145844 0.323204 0)
(-0.176822 0.307352 0)
(-0.206096 0.288541 0)
(-0.233386 0.266951 0)
(-0.258428 0.242789 0)
(-0.280981 0.21629 0)
(-0.300828 0.187707 0)
(-0.317778 0.157317 0)
(-0.331667 0.125412 0)
(-0.342363 0.0922991 0)
(-0.349761 0.0582973 0)
(-0.353791 0.023734 0)
(-0.354414 -0.0110579 0)
(-0.351623 -0.0457433 0)
(-0.345447 -0.0799882 0)
(-0.335943 -0.113463 0)
(-0.323204 -0.145844 0)
(-0.307352 -0.176822 0)
(-0.288541 -0.206096 0)
(-0.266951 -0.233386 0)
(-0.242789 -0.258428 0)
(-0.21629 -0.280981 0)
(-0.187707 -0.300828 0)
(-0.157317 -0.317778 0)
(-0.125412 -0.331667 0)
(-0.0922991 -0.342363 0)
(-0.0582973 -0.349761 0)
(-0.023734 -0.353791 0)
(0.0110579 -0.354414 0)
(0.0457433 -0.351623 0)
(0.0799882 -0.345447 0)
(0.113463 -0.335943 0)
(0.145844 -0.323204 0)
(0.176822 -0.307352 0)
(0.206096 -0.288541 0)
(0.233386 -0.266951 0)
(0.258428 -0.242789 0)
(0.280981 -0.21629 0)
)
;
    }
    outlet
    {
        type            cellMotion;
        value           uniform (0 0 0);
    }
    inlet
    {
        type            cellMotion;
        value           uniform (0 0 0);
    }
    frontAndBack
    {
        type            empty;
    }
}


// ************************************************************************* //
