/*--------------------------------*- C++ -*----------------------------------*\
| =========                 |                                                 |
| \\      /  F ield         | OpenFOAM: The Open Source CFD Toolbox           |
|  \\    /   O peration     | Version:  2412                                  |
|   \\  /    A nd           | Website:  www.openfoam.com                      |
|    \\/     M anipulation  |                                                 |
\*---------------------------------------------------------------------------*/
FoamFile
{
    version     2.0;
    format      ascii;
    arch        "LSB;label=32;scalar=64";
    class       surfaceScalarField;
    location    "0.5";
    object      meshPhi;
}
// * * * * * * * * * * * * * * * * * * * * * * * * * * * * * * * * * * * * * //

dimensions      [0 3 -1 0 0 0 0];

internalField   nonuniform List<scalar> 
1984
(
0.0022003
-0.00474716
-0.00206068
0.00248792
-0.00603744
0.00282366
-0.00753894
0.00299553
-0.00853906
0.00293464
-0.00866426
0.00290243
-0.00800576
0.00302588
-0.00683806
0.00323654
-0.00507872
0.0033791
-0.00263152
0.00333956
0.000160689
0.00329728
0.00270905
0.00324142
0.00455492
0.00296634
0.00542749
0.00242317
0.00528364
0.0017298
0.00441626
0.00353837
0.00139514
0.00684202
-0.0100139
-0.0064212
0.00769889
-0.0123006
0.00851975
-0.0146992
0.00896268
-0.0160572
0.00887299
-0.0160745
0.00880502
-0.0148105
0.00909731
-0.0125353
0.0096422
-0.00919033
0.00996078
-0.00474928
0.00980439
0.000246006
0.00973352
0.00481982
0.00963593
0.00814341
0.00888689
0.00975509
0.00744228
0.00967995
0.00559487
0.00843061
0.00704408
0.00470494
0.0119221
-0.0154991
-0.0113039
0.013256
-0.0183673
0.0143043
-0.0212257
0.0148738
-0.0226118
0.0148232
-0.0223077
0.0147495
-0.0203624
0.0150696
-0.0170473
0.0157108
-0.0123543
0.0160621
-0.00633503
0.0159056
0.000326899
0.0159015
0.00637839
0.0157908
0.0107379
0.0147578
0.0129532
0.0127929
0.0131719
0.01022
0.0118996
0.010295
0.00900453
0.0173335
-0.0207946
-0.0166379
0.0190325
-0.0239785
0.0201534
-0.0269489
0.0207231
-0.0280284
0.0207012
-0.0272274
0.0206075
-0.0246271
0.0208572
-0.0204285
0.021304
-0.0146453
0.0216112
-0.00739508
0.0216716
0.000459339
0.0217712
0.0074793
0.0216505
0.0125145
0.0205321
0.0151981
0.0183988
0.0157827
0.0154824
0.0147293
0.0131863
0.0142138
0.0230661
-0.0258291
-0.0224424
0.0249954
-0.0289829
0.0260906
-0.0317782
0.0265703
-0.032445
0.0265091
-0.0310558
0.0263314
-0.0277373
0.026476
-0.0227648
0.0266568
-0.0161805
0.0268474
-0.00806134
0.027125
0.000574647
0.0273347
0.00812758
0.0272487
0.0135291
0.0262186
0.0165769
0.0242093
0.0175782
0.02132
0.0169046
0.0156093
0.0202586
0.0291353
-0.0302695
-0.0287319
0.0311315
-0.0332049
0.0321214
-0.0355912
0.0324242
-0.035663
0.0322232
-0.033612
0.0318778
-0.0296526
0.031845
-0.0240465
0.0318904
-0.0169115
0.0319813
-0.00836385
0.0322956
0.000612101
0.0326059
0.00838743
0.032625
0.0139467
0.0318577
0.0172369
0.0302306
0.0186171
0.0276872
0.0183881
0.0174033
0.0270148
0.035562
-0.0339852
-0.0355396
0.0374281
-0.0364498
0.0382337
-0.0382474
0.0382832
-0.0377285
0.037839
-0.0350692
0.037238
-0.0305444
0.0368747
-0.0244374
0.03681
-0.0169238
0.036915
-0.00823832
0.0372141
0.000684065
0.0376365
0.00834877
0.037866
0.0138684
0.0375332
0.0172989
0.0364783
0.0189877
0.0344123
0.0190803
0.0183067
0.0341915
0.0424896
-0.036936
-0.0430548
0.0439818
-0.03876
0.0444598
-0.0397906
0.0441355
-0.0385789
0.0433507
-0.0353299
0.0424553
-0.0304211
0.0417433
-0.0240695
0.0414867
-0.0163982
0.0415896
-0.0078034
0.0419288
0.000784319
0.0425255
0.00810917
0.0430975
0.0134244
0.0433156
0.0168282
0.0428297
0.0186166
0.0412451
0.0189104
0.0184107
0.0415755
0.0501121
-0.0389518
-0.0514302
0.050927
-0.0400266
0.0508412
-0.0401564
0.0499932
-0.0382374
0.0487982
-0.0344703
0.0475935
-0.0293064
0.0466273
-0.0229157
0.0461228
-0.0153827
0.0460857
-0.00711238
0.0465136
0.000993502
0.047398
0.00777628
0.0483916
0.0126418
0.0490938
0.0158121
0.049128
0.0176102
0.0481638
0.0181537
0.0180153
0.0492192
0.0584281
-0.0395776
-0.0606264
0.0582718
-0.0399314
0.0574155
-0.0392135
0.0559041
-0.0366913
0.0542251
-0.0325509
0.0526799
-0.0272689
0.0514438
-0.0210174
0.0506711
-0.0138461
0.0504517
-0.00613106
0.0509656
0.00124707
0.0522038
0.00721553
0.0536164
0.0114578
0.0548367
0.0144392
0.0555491
0.016392
0.0554751
0.0172865
0.0176183
0.0575926
0.0672775
-0.0385862
-0.0703956
0.0658979
-0.0383432
0.0640428
-0.0367566
0.0618096
-0.0337351
0.0595825
-0.0294612
0.0576449
-0.0242773
0.0560971
-0.018391
0.055089
-0.0118502
0.0547424
-0.00498243
0.0553237
0.00143567
0.0568451
0.00658671
0.0587722
0.0103939
0.0607513
0.0132659
0.0624458
0.015308
0.0637645
0.016527
0.0172921
0.0673055
0.0766282
-0.0355129
-0.080725
0.0738259
-0.0348871
0.0707749
-0.03264
0.0677061
-0.0292765
0.0648349
-0.0250655
0.0624489
-0.0202681
0.0606237
-0.0150349
0.0594713
-0.00937398
0.0591818
-0.0035573
0.0599608
0.00179138
0.0617962
0.00615716
0.0643489
0.00957257
0.0672097
0.0122575
0.070174
0.0142925
0.0732843
0.0156863
0.0166431
0.0783256
0.0864161
-0.0295322
-0.0915981
0.0821304
-0.028842
0.077747
-0.0264517
0.0736233
-0.0231656
0.0700199
-0.0193478
0.0671573
-0.015238
0.0651012
-0.0109247
0.0639386
-0.00639892
0.0639052
-0.00186356
0.0650864
0.0022875
0.0674606
0.00577884
0.0707283
0.00861519
0.0745461
0.0109561
0.0788517
0.0128657
0.0836032
0.0142843
0.015279
0.0900022
0.0962195
-0.0205451
-0.102635
0.0903989
-0.0198311
0.0846584
-0.0177272
0.0794441
-0.0151365
0.0750629
-0.0122912
0.0717035
-0.00931243
0.0694554
-0.00626129
0.068408
-0.00317072
0.0686965
-0.000132993
0.0704008
0.0026665
0.0734062
0.00510958
0.077493
0.00720426
0.0823884
0.00899984
0.0880203
0.0105107
0.0942042
0.011654
0.0125364
0.101699
0.105003
-0.009053
-0.112806
0.0974713
-0.00830897
0.0904538
-0.00706101
0.0843128
-0.00570117
0.0792847
-0.00428258
0.0755485
-0.00282898
0.0732014
-0.00136147
0.0723185
0.000102776
0.0729409
0.00152713
0.075102
0.0028639
0.078667
0.00408729
0.0835226
0.0051861
0.0894578
0.00616227
0.0963415
0.00700817
0.103922
0.00768305
0.00825406
0.112412
0.104215
-0.113669
0.0954346
0.087758
0.0813797
0.0764278
0.072999
0.0711401
0.0708588
0.0721278
0.0748737
0.0789785
0.0842885
0.0906226
0.0977734
0.10549
0.113595
0.00164555
-0.00429575
0.00210815
-0.00596905
0.0024795
-0.00760651
0.00287994
-0.00861304
0.0032105
-0.00909915
0.00322992
-0.00864079
0.0032589
-0.00704979
0.00352658
-0.00454442
0.00399192
-0.00115526
0.00431658
0.00244651
0.00417826
0.00510973
0.00366403
0.00629938
0.00308322
0.00626981
0.00246726
0.00546221
0.00168395
0.00403481
0.0025254
0.00120611
0.00530522
-0.00966551
0.00660907
-0.0123915
0.0075871
-0.0149837
0.00865581
-0.0163535
0.00952269
-0.0167683
0.00967077
-0.0157031
0.0097922
-0.0128214
0.010502
-0.0082651
0.0116349
-0.00224951
0.0123833
0.0040118
0.0120483
0.00870492
0.0107718
0.0110196
0.00927465
0.0113225
0.00763983
0.0102174
0.00550047
0.00793949
0.00539922
0.0041922
0.00979248
-0.015757
0.0116506
-0.019068
0.0130481
-0.0220445
0.0144765
-0.0233751
0.0156171
-0.0233087
0.0159532
-0.021456
0.0161843
-0.0173971
0.0170859
-0.0111789
0.0184896
-0.00323654
0.0194264
0.00485879
0.0190471
0.0110443
0.0174754
0.0143966
0.0155036
0.015223
0.0131817
0.0141063
0.0100826
0.0113844
0.008341
0.00826007
0.0150472
-0.0219816
0.0172294
-0.0255096
0.018854
-0.0284755
0.0203502
-0.0293619
0.0215316
-0.0285488
0.0220083
-0.0258423
0.0223237
-0.0208162
0.0231157
-0.0133591
0.0245087
-0.00403363
0.0256127
0.00530079
0.0253146
0.0124973
0.0237692
0.0166631
0.0216359
0.0180129
0.0189311
0.0170665
0.0153049
0.0143324
0.0112588
0.0133294
0.0209815
-0.0280606
0.0232779
-0.0314937
0.0249153
-0.0340559
0.0262875
-0.0343338
0.0273481
-0.0327195
0.0278479
-0.0291512
0.0282242
-0.0232473
0.0288191
-0.0148749
0.0300168
-0.00465843
0.0311798
0.00539419
0.0310147
0.013195
0.0296707
0.0179621
0.0276023
0.0197924
0.0248338
0.019164
0.0211311
0.0167317
0.0139907
0.0193345
0.0274711
-0.0334962
0.0296866
-0.0365849
0.0311558
-0.0385524
0.0322619
-0.0380525
0.0330776
-0.0355869
0.0334645
-0.0312099
0.0338062
-0.0245947
0.0343204
-0.0156677
0.0352948
-0.00510397
0.0363011
0.00520782
0.0362676
0.0133105
0.0352044
0.0184443
0.0333961
0.0206703
0.0309043
0.0204745
0.0275427
0.0186152
0.0164354
0.0261875
0.0342757
-0.0378074
0.0363036
-0.0404669
0.037508
-0.0417419
0.0382576
-0.0405051
0.0387317
-0.0372936
0.0388897
-0.03225
0.0389959
-0.0250657
0.0394289
-0.0157825
0.0402791
-0.00524739
0.0410899
0.00487111
0.0411828
0.0129585
0.0404458
0.0182849
0.0390807
0.0208177
0.0371559
0.0210749
0.0344001
0.0198245
0.0182478
0.0336364
0.0412284
-0.0406913
0.0429791
-0.0428274
0.0439058
-0.0434538
0.0442514
-0.0415619
0.0443177
-0.0377059
0.0441743
-0.0321794
0.0439789
-0.0247191
0.0442165
-0.0154155
0.0449304
-0.0052206
0.04563
0.00443422
0.0458758
0.0122635
0.0455062
0.0175527
0.0447284
0.020259
0.043519
0.0209508
0.0415095
0.020369
0.0194818
0.041497
0.0484036
-0.0420416
0.0497808
-0.0436555
0.0503258
-0.0436187
0.0502125
-0.0411459
0.0498526
-0.0367979
0.0493758
-0.0310291
0.0489232
-0.0236077
0.0488746
-0.0146366
0.0493348
-0.00504108
0.0500096
0.00394807
0.0504577
0.0113055
0.0505287
0.0163971
0.0504227
0.0192369
0.0500319
0.0204159
0.0489606
0.0205237
0.0202936
0.0498373
0.0562286
-0.041889
0.0569129
-0.0428182
0.0568755
-0.0420881
0.0561875
-0.0392064
0.0553461
-0.034642
0.0544824
-0.0288968
0.0537142
-0.021801
0.0533462
-0.0134782
0.0535502
-0.00477941
0.0542064
0.00332091
0.0549616
0.00998918
0.0556272
0.0148022
0.0563609
0.0178944
0.0569809
0.0196854
0.0570322
0.0204775
0.0208362
0.0589952
0.0650561
-0.0400813
0.0645229
-0.0402621
0.0635269
-0.0387444
0.062126
-0.0355548
0.0606956
-0.031106
0.0593777
-0.0256845
0.0582377
-0.019248
0.0575885
-0.0119478
0.0576358
-0.004451
0.0582707
0.00255414
0.0593919
0.00850495
0.0608309
0.0130953
0.0626587
0.0164631
0.0645144
0.0186744
0.0659471
0.0199223
0.0207702
0.0692105
0.0748901
-0.0361294
0.0727047
-0.0357409
0.0703684
-0.033582
0.0680593
-0.0302687
0.0658768
-0.0261509
0.0640085
-0.0213252
0.0625247
-0.0158356
0.0617232
-0.00981126
0.0617865
-0.00370198
0.0625873
0.00203809
0.0641144
0.00715778
0.0664344
0.0114182
0.0693483
0.0146831
0.0724847
0.0169968
0.0755056
0.0185137
0.0196241
0.0801895
0.0852566
-0.0294847
0.0812932
-0.0288284
0.077463
-0.0264804
0.0740039
-0.0234555
0.070894
-0.019929
0.0684054
-0.0158904
0.0666318
-0.0114963
0.0658135
-0.00690803
0.0660428
-0.0023343
0.0672377
0.0020504
0.0693881
0.00606152
0.0725642
0.00953629
0.0764463
0.0123292
0.080783
0.0144804
0.0853197
0.0160827
0.0172169
0.0914404
0.0955131
-0.0203421
0.0898059
-0.0195767
0.084418
-0.0174662
0.0796886
-0.015051
0.075641
-0.012441
0.0725041
-0.00955813
0.0704701
-0.00652243
0.0696746
-0.00347997
0.0701557
-0.000504281
0.0718351
0.0023674
0.0747281
0.00506593
0.078733
0.00747387
0.0836684
0.0095029
0.0892533
0.0111339
0.0952544
0.0123994
0.0133751
0.102607
0.10469
-0.00898773
0.0971813
-0.00822748
0.090274
-0.00696511
0.0843601
-0.0056269
0.0795235
-0.00426551
0.0758873
-0.00285343
0.073656
-0.00140881
0.072898
1.97698e-05
0.0736207
0.00140929
0.0757501
0.00275597
0.0792828
0.00403659
0.0840899
0.0052076
0.0900417
0.00624062
0.0968986
0.00711303
0.104396
0.00781581
0.00842264
0.112835
0.104157
0.0953779
0.0877052
0.0813688
0.0764654
0.073062
0.0712287
0.0709784
0.072265
0.0750082
0.0791054
0.0844102
0.0907452
0.0978951
0.105594
0.113692
0.00146655
-0.00467838
0.00207195
-0.00649837
0.00258848
-0.0084936
0.00280521
-0.00969096
0.00276381
-0.00972376
0.00275167
-0.00883951
0.00288555
-0.00744361
0.00309983
-0.00550009
0.00323916
-0.00290923
0.00319105
4.21731e-06
0.00312766
0.00266054
0.00304653
0.0045878
0.00275414
0.00550042
0.00219217
0.00535114
0.00145053
0.0044294
0.00344699
0.00103983
0.00480073
-0.0102402
0.00645921
-0.0131573
0.00779385
-0.0162886
0.00840009
-0.0180001
0.00837012
-0.0179342
0.00835066
-0.0163415
0.00867156
-0.0136801
0.0092286
-0.00999144
0.00954193
-0.00527051
0.00936336
-3.82256e-05
0.00923271
0.0047421
0.00906107
0.00821865
0.00825882
0.00990371
0.0067495
0.00981602
0.00476195
0.00847603
0.00694809
0.00367244
0.0090185
-0.0163537
0.0112906
-0.0198158
0.0130852
-0.0233007
0.0139574
-0.0250828
0.0140155
-0.0247344
0.0140053
-0.0224224
0.0143661
-0.0186186
0.0150288
-0.0134575
0.0153778
-0.00704346
0.0151856
-4.59406e-05
0.0150897
0.00629272
0.0148669
0.0108619
0.0137426
0.0131777
0.0116551
0.0133861
0.00886795
0.012015
0.0102832
0.00739496
0.0140727
-0.0224686
0.0165907
-0.0260579
0.0185215
-0.0294402
0.0194989
-0.0308438
0.0196332
-0.0300208
0.019608
-0.0270631
0.0199015
-0.0223239
0.0203769
-0.015982
0.0206847
-0.00824369
0.020696
2.79533e-05
0.0206799
0.00740017
0.0204188
0.0126911
0.0191675
0.0155024
0.0168552
0.016094
0.0136801
0.0149592
0.0133351
0.0121445
0.019898
-0.028322
0.0223792
-0.031728
0.024186
-0.034625
0.0251103
-0.0354636
0.025236
-0.0340474
0.0251262
-0.0303871
0.0253095
-0.0248486
0.0255209
-0.0176522
0.0257123
-0.00898343
0.0259291
0.000124693
0.0260053
0.00807297
0.0257558
0.0137624
0.024554
0.016965
0.0223221
0.0180032
0.0191569
0.0172843
0.0159658
0.0178447
0.0264111
-0.0334413
0.0286333
-0.0364146
0.0301262
-0.0386647
0.0308266
-0.0387452
0.0308163
-0.0366339
0.0305317
-0.0323611
0.030526
-0.0261994
0.0305965
-0.0184328
0.0306828
-0.00930336
0.0309248
0.000175636
0.0310882
0.0083704
0.0309248
0.014239
0.0299539
0.0177114
0.0280757
0.0191655
0.0252594
0.0189338
0.017981
0.0243653
0.0334008
-0.0373798
0.0352393
-0.0398289
0.0363131
-0.0413284
0.03666
-0.0406906
0.0363804
-0.0379622
0.0358242
-0.0331606
0.0354704
-0.0265262
0.0354168
-0.0183975
0.0355065
-0.00913268
0.0357222
0.000295042
0.0359864
0.00838216
0.036017
0.0142207
0.0354565
0.0178565
0.0341376
0.0196566
0.0318132
0.0197879
0.0190887
0.0314016
0.0407098
-0.0398761
0.0420554
-0.0417003
0.0426758
-0.0424957
0.0425741
-0.0412014
0.0419227
-0.0379317
0.0410543
-0.032805
0.0403299
-0.0259811
0.0400628
-0.0177412
0.0401336
-0.00860136
0.040376
0.000468277
0.0408035
0.00820034
0.041163
0.0138327
0.0411372
0.0174588
0.0403847
0.0193892
0.0385597
0.0197512
0.0193502
0.0387288
0.048398
-0.0408748
0.0491279
-0.0420994
0.0491634
-0.0421797
0.0485228
-0.0402888
0.0474549
-0.0366368
0.0462721
-0.0313702
0.0452754
-0.0245731
0.0447358
-0.0165358
0.0446459
-0.00777807
0.0449625
0.000765724
0.0456667
0.00792631
0.0464361
0.0130974
0.0468853
0.0164958
0.0466599
0.0184502
0.0454773
0.0190766
0.0190441
0.0463959
0.0567766
-0.040412
0.0565922
-0.0409416
0.0558429
-0.0403077
0.0545312
-0.0379969
0.0529973
-0.0341514
0.0514797
-0.0289148
0.0502089
-0.0223727
0.0493829
-0.0147771
0.0490911
-0.00664603
0.0494773
0.00111273
0.0505262
0.00741757
0.0517108
0.0119394
0.0526829
0.0151372
0.0531549
0.0172428
0.0528881
0.0182205
0.0186511
0.0548914
0.0659983
-0.0383366
0.0644826
-0.03824
0.0626618
-0.0368439
0.0606038
-0.0342056
0.0585181
-0.0303813
0.0566055
-0.0254079
0.0550213
-0.0193978
0.0539495
-0.0125474
0.0535143
-0.00534869
0.0539597
0.00138231
0.0552975
0.00681414
0.0570117
0.0108584
0.0587675
0.0139169
0.0602555
0.0160917
0.0614136
0.0173839
0.0182315
0.0648599
0.0759231
-0.0343625
0.0728434
-0.0338706
0.0697405
-0.0319226
0.0667812
-0.0290456
0.0640047
-0.0253576
0.0616246
-0.020878
0.0597446
-0.0156559
0.058519
-0.00982464
0.0581373
-0.0037821
0.0587924
0.00179488
0.0604731
0.00637044
0.0628539
0.00996437
0.06554
0.0127899
0.0683456
0.0149254
0.0713315
0.0163774
0.0173973
0.0762937
0.086125
-0.0281635
0.0816045
-0.0275703
0.0771441
-0.0254895
0.0730501
-0.0226368
0.06948
-0.019265
0.0665804
-0.0154435
0.0644515
-0.0112079
0.0632153
-0.00662291
0.0631031
-0.00196726
0.064191
0.00232047
0.0664592
0.00594192
0.0696142
0.00888964
0.0733188
0.0113195
0.0775201
0.0132937
0.082185
0.0147522
0.0157894
0.0885187
0.0961327
-0.019708
0.0902206
-0.019028
0.0844176
-0.0170887
0.0791934
-0.01474
0.0747868
-0.01214
0.0713642
-0.00932281
0.0690505
-0.00633776
0.0679467
-0.00324129
0.0681827
-0.000158711
0.0698339
0.00270027
0.072785
0.00520261
0.0768151
0.00734951
0.0816531
0.00918772
0.0872306
0.0107304
0.0933652
0.011895
0.0127991
0.100813
0.105026
-0.00883807
0.0974662
-0.00809138
0.0904183
-0.00688049
0.084252
-0.00558401
0.0791824
-0.00422613
0.0754027
-0.00281543
0.073019
-0.00136827
0.0721078
9.37947e-05
0.0727077
0.00152712
0.0748494
0.00287766
0.078396
0.00411556
0.0832326
0.00522762
0.0891486
0.00621491
0.0960131
0.00706937
0.103574
0.00775051
0.00832733
0.112042
0.104237
0.0954501
0.0877654
0.0813745
0.0764093
0.0729691
0.0711012
0.0708136
0.0720781
0.0748206
0.0789226
0.0842299
0.0905615
0.0977098
0.105424
0.113524
0.00128119
-0.00269943
0.00178121
-0.00437949
0.00218703
-0.00612089
0.00258795
-0.00717708
0.00289494
-0.00764108
0.00290952
-0.00719792
0.00294832
-0.00575885
0.0032245
-0.00351239
0.00367165
-0.000438238
0.00396651
0.00284524
0.00385225
0.00527583
0.00349083
0.00652518
0.003061
0.00690962
0.00259275
0.00675485
0.00215393
0.00631125
0.00598766
0.00427369
-0.00681944
0.00567153
-0.00956162
0.00673969
-0.0123032
0.00781318
-0.0137612
0.0086211
-0.0141571
0.00874844
-0.0131062
0.00888982
-0.0104406
0.00962182
-0.00631819
0.0107168
-0.000871162
0.0114084
0.0048193
0.011192
0.00916194
0.0103487
0.0116332
0.00926488
0.0126429
0.00802423
0.0126561
0.0067519
0.0119581
0.0112563
0.00822537
-0.0120098
0.0102119
-0.0153335
0.0117316
-0.0184827
0.0131706
-0.0199213
0.0142337
-0.0198448
0.0145294
-0.0180083
0.0147799
-0.0142001
0.0157139
-0.00852655
0.0170844
-0.00131733
0.0179932
0.00606241
0.0178709
0.0118363
0.0169157
0.0153673
0.0155244
0.0170331
0.0138241
0.0173563
0.0118628
0.0165817
0.0156415
0.0130738
-0.0176398
0.0154128
-0.0211817
0.0171755
-0.0243284
0.0186856
-0.0253394
0.0197805
-0.0245332
0.0201994
-0.0218423
0.0205297
-0.0170674
0.0213633
-0.010207
0.0227497
-0.00170891
0.0238979
0.00683562
0.0239764
0.0135952
0.0231382
0.0179396
0.021696
0.020197
0.0197869
0.020855
0.0173523
0.0201265
0.0190543
0.0187226
-0.0234015
0.0212024
-0.0268489
0.0229855
-0.0295991
0.0243713
-0.0300072
0.025342
-0.0284075
0.0257719
-0.024861
0.0261596
-0.0192157
0.0268081
-0.0114592
0.0280472
-0.00208642
0.029351
0.00718753
0.0296564
0.0145548
0.029058
0.0194594
0.0277458
0.0221786
0.0258323
0.0231743
0.0231816
0.0226384
0.0216366
0.0250326
-0.0287525
0.0274601
-0.0318628
0.0290768
-0.0340197
0.0301951
-0.0336518
0.030923
-0.0312181
0.0312394
-0.0268811
0.0315953
-0.0205277
0.0321828
-0.0121992
0.0332597
-0.0024379
0.0345081
0.00714067
0.0350225
0.0148248
0.0347226
0.0200631
0.0336756
0.0231258
0.0319479
0.0244463
0.0293234
0.0241709
0.0233169
0.031747
-0.0331727
0.0340138
-0.0358587
0.0353677
-0.0373271
0.0361326
-0.0362287
0.0365294
-0.0330674
0.0366273
-0.0280904
0.0367579
-0.0211754
0.0372914
-0.0124514
0.0383119
-0.0026398
0.0394631
0.00682446
0.0401736
0.0145057
0.0402053
0.0198807
0.0395263
0.0231697
0.0381115
0.0247676
0.0357655
0.0248254
0.0242959
0.0386806
-0.0363278
0.0406936
-0.0384936
0.0417776
-0.0393109
0.0421489
-0.0375657
0.0421593
-0.0337901
0.0419777
-0.0283676
0.041827
-0.0211791
0.0421992
-0.0123735
0.0431486
-0.00280065
0.0442734
0.00626855
0.0451967
0.0136998
0.0455922
0.0190285
0.0453491
0.0224568
0.0444172
0.0243417
0.0426775
0.0247973
0.0246318
0.0459012
-0.0381018
0.0475569
-0.0397403
0.0482704
-0.0398812
0.0482039
-0.0375626
0.0478208
-0.0333259
0.047336
-0.0276919
0.0469543
-0.0205313
0.0470737
-0.0119855
0.0478249
-0.00291317
0.0489974
0.00555519
0.050186
0.0125315
0.0509708
0.0176581
0.0512692
0.0211399
0.0510611
0.0232793
0.0502207
0.024103
0.0243268
0.0538492
-0.0385295
0.054813
-0.0394706
0.0549528
-0.0388869
0.0543371
-0.0361461
0.0535093
-0.0317045
0.052673
-0.0261092
0.0520031
-0.0192529
0.0518308
-0.0112777
0.0523692
-0.00301176
0.053579
0.00461284
0.0550582
0.0108907
0.0563127
0.0156709
0.0573223
0.0192015
0.0580739
0.0215439
0.0583572
0.0226647
0.0232261
0.0629055
-0.0374495
0.0626286
-0.0376201
0.0618049
-0.0361971
0.0604952
-0.0331149
0.0591121
-0.0287772
0.0578537
-0.0234922
0.0568317
-0.0172479
0.0563927
-0.0102182
0.0567901
-0.0030812
0.0579595
0.0034792
0.0596617
0.00903971
0.0614843
0.0134875
0.0634028
0.0169423
0.0653337
0.0192409
0.0669336
0.0204101
0.0211522
0.0730945
-0.0343058
0.0711149
-0.0338851
0.068928
-0.0317688
0.0667137
-0.0285177
0.0645973
-0.0244745
0.0628039
-0.0197455
0.0614406
-0.014392
0.0608388
-0.0085643
0.0612158
-0.00273988
0.0624315
0.00264324
0.0643332
0.00741989
0.0667686
0.0114786
0.0696633
0.0145819
0.0728242
0.0166109
0.0759309
0.0177847
0.0185946
0.083929
-0.0284308
0.0801055
-0.0277366
0.0763847
-0.0253931
0.0730046
-0.022389
0.0699595
-0.018898
0.0675426
-0.0149136
0.0658717
-0.0105989
0.0652098
-0.00613085
0.0656633
-0.00173876
0.0671115
0.00241649
0.0694213
0.00622383
0.0725937
0.00953791
0.076466
0.0121105
0.0808372
0.0138868
0.0854575
0.0150757
0.0159031
0.0947068
-0.0198907
0.0890744
-0.0190996
0.0837502
-0.0169807
0.0790725
-0.0145667
0.0750734
-0.0119669
0.0719886
-0.00910396
0.0700215
-0.00610025
0.0693185
-0.00311125
0.0699184
-0.000216096
0.0717145
0.00255636
0.0746417
0.00518051
0.0786675
0.00750338
0.0836193
0.00938337
0.0892882
0.0107869
0.095329
0.0117979
0.0125854
0.104348
-0.00888668
0.0968673
-0.00811956
0.0899865
-0.00685316
0.0840965
-0.0055135
0.079283
-0.00415297
0.0756714
-0.00274407
0.0734687
-0.00130593
0.072747
0.00011126
0.0735113
0.00148295
0.0756773
0.00280838
0.0792148
0.0040739
0.0840433
0.00522681
0.0900197
0.00621392
0.09693
0.00702627
0.10442
0.00766656
0.00822127
0.104091
0.0953169
0.0876492
0.0813175
0.0764187
0.0730205
0.0711928
0.0709489
0.0722423
0.0749912
0.0790897
0.0843993
0.0907422
0.0978997
0.105592
)
;

boundaryField
{
    walls
    {
        type            calculated;
        value           uniform 0;
    }
    cylinder
    {
        type            calculated;
        value           nonuniform List<scalar> 
64
(
1.90047e-11
-3.75398e-11
-2.42425e-11
3.34647e-11
-1.1882e-11
6.53197e-12
1.96897e-11
-1.60353e-11
1.60363e-11
-1.96897e-11
-6.53098e-12
1.18837e-11
-3.34639e-11
2.42432e-11
3.75408e-11
-1.90042e-11
1.90047e-11
-3.75398e-11
-2.42425e-11
3.34647e-11
-1.1882e-11
6.53197e-12
1.96897e-11
-1.60353e-11
1.60363e-11
-1.96897e-11
-6.53098e-12
1.18837e-11
-3.34639e-11
2.42432e-11
3.75408e-11
-1.90042e-11
1.90047e-11
-3.75398e-11
-2.42425e-11
3.34647e-11
-1.1882e-11
6.53197e-12
1.96897e-11
-1.60353e-11
1.60363e-11
-1.96897e-11
-6.53098e-12
1.18837e-11
-3.34639e-11
2.42432e-11
3.75408e-11
-1.90042e-11
1.90047e-11
-3.75398e-11
-2.42425e-11
3.34647e-11
-1.1882e-11
6.53197e-12
1.96897e-11
-1.60353e-11
1.60363e-11
-1.96897e-11
-6.53098e-12
1.18837e-11
-3.34639e-11
2.42432e-11
3.75408e-11
-1.90042e-11
)
;
    }
    outlet
    {
        type            calculated;
        value           uniform 0;
    }
    inlet
    {
        type            calculated;
        value           uniform 0;
    }
    frontAndBack
    {
        type            empty;
    }
}


// ************************************************************************* //
