/*--------------------------------*- C++ -*----------------------------------*\
| =========                 |                                                 |
| \\      /  F ield         | OpenFOAM: The Open Source CFD Toolbox           |
|  \\    /   O peration     | Version:  2412                                  |
|   \\  /    A nd           | Website:  www.openfoam.com                      |
|    \\/     M anipulation  |                                                 |
\*---------------------------------------------------------------------------*/
FoamFile
{
    version     2.0;
    format      ascii;
    arch        "LSB;label=32;scalar=64";
    class       pointVectorField;
    location    "0.5";
    object      pointDisplacement;
}
// * * * * * * * * * * * * * * * * * * * * * * * * * * * * * * * * * * * * * //

dimensions      [0 1 0 0 0 0 0];

internalField   nonuniform List<vector> 
2176
(
(0 0 0)
(0 0 0)
(0 0 0)
(0 0 0)
(0 0 0)
(0 0 0)
(0 0 0)
(0 0 0)
(0 0 0)
(0 0 0)
(0 0 0)
(0 0 0)
(0 0 0)
(0 0 0)
(0 0 0)
(0 0 0)
(0 0 0)
(0.00501543 -0.00603872 0)
(0.00678157 -0.00786006 0)
(0.0102276 -0.010739 0)
(0.0138904 -0.0125658 0)
(0.0177882 -0.0132242 0)
(0.0217769 -0.012591 0)
(0.0255792 -0.0106203 0)
(0.0287513 -0.00739839 0)
(0.0307499 -0.00322653 0)
(0.0311391 0.0013376 0)
(0.0297381 0.00556154 0)
(0.0267625 0.00875131 0)
(0.0226971 0.0104576 0)
(0.0180479 0.0105475 0)
(0.013236 0.00915449 0)
(0.00849367 0.00656593 0)
(0.00602138 0.00487339 0)
(0.0125421 -0.0151281 0)
(0.0159506 -0.0181182 0)
(0.0225723 -0.0229407 0)
(0.0295915 -0.025718 0)
(0.0369946 -0.0262826 0)
(0.0444646 -0.0244515 0)
(0.051436 -0.02019 0)
(0.0571012 -0.0137238 0)
(0.0605463 -0.00566004 0)
(0.0610872 0.00298703 0)
(0.0584861 0.0109596 0)
(0.0531306 0.0170944 0)
(0.0458219 0.0206332 0)
(0.0373921 0.0213187 0)
(0.0285679 0.0193216 0)
(0.0197645 0.0150493 0)
(0.0150933 0.0122492 0)
(0.0222351 -0.0267675 0)
(0.0272136 -0.0302985 0)
(0.0366879 -0.0361311 0)
(0.0467091 -0.0390473 0)
(0.0571708 -0.0388599 0)
(0.0675667 -0.0353696 0)
(0.0770698 -0.028602 0)
(0.084586 -0.0189536 0)
(0.0889746 -0.00731331 0)
(0.0894602 0.00495091 0)
(0.0858372 0.0162226 0)
(0.078612 0.0250451 0)
(0.068791 0.0304694 0)
(0.0574239 0.0321456 0)
(0.0454213 0.0302225 0)
(0.0333225 0.0251252 0)
(0.0267125 0.0217935 0)
(0.033907 -0.0405996 0)
(0.0404255 -0.0440836 0)
(0.0524421 -0.0500569 0)
(0.065103 -0.0523738 0)
(0.0781766 -0.0508558 0)
(0.0909656 -0.0453266 0)
(0.102412 -0.035902 0)
(0.11123 -0.0231585 0)
(0.116167 -0.00822712 0)
(0.116446 0.00726562 0)
(0.111937 0.0214735 0)
(0.103251 0.0327759 0)
(0.0915244 0.04012 0)
(0.0779279 0.0430903 0)
(0.0634838 0.0417927 0)
(0.0488105 0.0366257 0)
(0.0405279 0.0333282 0)
(0.0473939 -0.0562489 0)
(0.0554397 -0.0591374 0)
(0.0696981 -0.0644503 0)
(0.0846455 -0.0655128 0)
(0.0998896 -0.0621688 0)
(0.114553 -0.0542888 0)
(0.127408 -0.0421044 0)
(0.137054 -0.0263681 0)
(0.142234 -0.00840413 0)
(0.142196 0.00998832 0)
(0.136909 0.0268367 0)
(0.127095 0.0404505 0)
(0.113948 0.0497356 0)
(0.0987119 0.0542367 0)
(0.0824631 0.054013 0)
(0.0658666 0.0494251 0)
(0.0561538 0.0466853 0)
(0.0625517 -0.0733165 0)
(0.072127 -0.0751133 0)
(0.0883416 -0.079047 0)
(0.105217 -0.0782743 0)
(0.122197 -0.0726777 0)
(0.138251 -0.0622017 0)
(0.15203 -0.0472015 0)
(0.162099 -0.0285838 0)
(0.167261 -0.0078203 0)
(0.166823 0.0131894 0)
(0.160852 0.0324363 0)
(0.150174 0.0482286 0)
(0.136006 0.0594706 0)
(0.119611 0.0656885 0)
(0.102088 0.0669023 0)
(0.0841295 0.0634423 0)
(0.0732013 0.0617307 0)
(0.0792826 -0.091404 0)
(0.0903823 -0.0916546 0)
(0.108271 -0.0935648 0)
(0.126726 -0.090452 0)
(0.14502 -0.0822492 0)
(0.162001 -0.068987 0)
(0.176266 -0.0511474 0)
(0.186409 -0.0297692 0)
(0.191319 -0.00642034 0)
(0.190405 0.0169655 0)
(0.183843 0.038409 0)
(0.172513 0.0562693 0)
(0.157634 0.0694801 0)
(0.140464 0.0775657 0)
(0.122101 0.0805156 0)
(0.103245 0.0786397 0)
(0.091262 0.0783619 0)
(0.0975313 -0.110103 0)
(0.110143 -0.108394 0)
(0.129434 -0.107714 0)
(0.149106 -0.101819 0)
(0.168294 -0.0907095 0)
(0.185772 -0.0745219 0)
(0.200135 -0.0538565 0)
(0.210048 -0.0298492 0)
(0.214494 -0.0041167 0)
(0.213025 0.0214306 0)
(0.205934 0.0449017 0)
(0.194118 0.0647419 0)
(0.178771 0.0799334 0)
(0.161123 0.0900109 0)
(0.142248 0.0949409 0)
(0.122855 0.0950298 0)
(0.10993 0.0965313 0)
(0.117311 -0.129002 0)
(0.131398 -0.124941 0)
(0.1518 -0.121155 0)
(0.172329 -0.112095 0)
(0.192004 -0.0978394 0)
(0.209565 -0.0786361 0)
(0.223654 -0.0551887 0)
(0.233028 -0.0287012 0)
(0.236808 -0.000787319 0)
(0.234723 0.02673 0)
(0.227149 0.0520845 0)
(0.214971 0.0738269 0)
(0.199335 0.0910094 0)
(0.181417 0.103188 0)
(0.162275 0.110315 0)
(0.14261 0.112696 0)
(0.128789 0.116262 0)
(0.138693 -0.147626 0)
(0.154196 -0.140844 0)
(0.175417 -0.133489 0)
(0.196426 -0.120933 0)
(0.216158 -0.103341 0)
(0.233379 -0.0810753 0)
(0.246801 -0.054932 0)
(0.255321 -0.0261388 0)
(0.258264 0.00375323 0)
(0.255508 0.0330545 0)
(0.247472 0.0601532 0)
(0.235018 0.0837317 0)
(0.219212 0.102926 0)
(0.20117 0.117318 0)
(0.181908 0.126843 0)
(0.162118 0.131796 0)
(0.147387 0.137669 0)
(0.161833 -0.165376 0)
(0.178667 -0.155509 0)
(0.200383 -0.144175 0)
(0.221453 -0.127838 0)
(0.240773 -0.106782 0)
(0.257161 -0.0814727 0)
(0.269487 -0.0527807 0)
(0.276862 -0.0218955 0)
(0.278816 0.00974908 0)
(0.275326 0.0406407 0)
(0.266842 0.0693533 0)
(0.25416 0.0947152 0)
(0.238254 0.115952 0)
(0.220147 0.132671 0)
(0.200803 0.144782 0)
(0.180909 0.152567 0)
(0.165139 0.160936 0)
(0.186986 -0.181466 0)
(0.205002 -0.168098 0)
(0.226819 -0.152416 0)
(0.247427 -0.132085 0)
(0.265754 -0.10752 0)
(0.280777 -0.0792955 0)
(0.291591 -0.0482862 0)
(0.297543 -0.0155856 0)
(0.29833 0.0175465 0)
(0.294031 0.0498023 0)
(0.285072 0.0799627 0)
(0.272165 0.107039 0)
(0.256172 0.130355 0)
(0.237991 0.149526 0)
(0.218494 0.164431 0)
(0.198347 0.175295 0)
(0.181255 0.186313 0)
(0.214503 -0.194805 0)
(0.233453 -0.177427 0)
(0.254801 -0.157072 0)
(0.274255 -0.132646 0)
(0.290905 -0.104672 0)
(0.30397 -0.0737951 0)
(0.312815 -0.0408285 0)
(0.317026 -0.00671059 0)
(0.316446 0.0275307 0)
(0.311211 0.060835 0)
(0.301711 0.0922371 0)
(0.288538 0.120942 0)
(0.272394 0.146363 0)
(0.254032 0.168123 0)
(0.234206 0.186052 0)
(0.213509 0.20028 0)
(0.194633 0.214095 0)
(0.244585 -0.203515 0)
(0.264007 -0.181553 0)
(0.283992 -0.156358 0)
(0.301348 -0.12803 0)
(0.315481 -0.0970948 0)
(0.325921 -0.0641258 0)
(0.332324 -0.0297975 0)
(0.334484 0.00516833 0)
(0.33236 0.0400126 0)
(0.326088 0.0739798 0)
(0.315971 0.106363 0)
(0.302425 0.136554 0)
(0.285963 0.164061 0)
(0.267155 0.188522 0)
(0.246601 0.209713 0)
(0.224796 0.227639 0)
(0.203406 0.244403 0)
(0.275603 -0.204208 0)
(0.294583 -0.17723 0)
(0.311797 -0.147841 0)
(0.325948 -0.1165 0)
(0.336785 -0.0836013 0)
(0.344115 -0.049554 0)
(0.347808 -0.0148085 0)
(0.347796 0.0201688 0)
(0.344087 0.054904 0)
(0.336764 0.0889267 0)
(0.325979 0.121787 0)
(0.31195 0.153068 0)
(0.294946 0.182397 0)
(0.275287 0.209453 0)
(0.253321 0.233979 0)
(0.229383 0.255814 0)
(0.204175 0.275558 0)
(0.291606 -0.202486 0)
(0.310049 -0.172929 0)
(0.325506 -0.141706 0)
(0.337828 -0.109118 0)
(0.346897 -0.0754799 0)
(0.352625 -0.0411146 0)
(0.354957 -0.00635332 0)
(0.353871 0.0284692 0)
(0.349376 0.0630174 0)
(0.341517 0.0969589 0)
(0.330369 0.129966 0)
(0.316039 0.161722 0)
(0.298666 0.191921 0)
(0.278416 0.220271 0)
(0.255485 0.2465 0)
(0.230094 0.270355 0)
(0.202486 0.291606 0)
(0 0 0)
(0 0 0)
(0 0 0)
(0 0 0)
(0 0 0)
(0 0 0)
(0 0 0)
(0 0 0)
(0 0 0)
(0 0 0)
(0 0 0)
(0 0 0)
(0 0 0)
(0 0 0)
(0 0 0)
(0 0 0)
(0 0 0)
(0.00501543 -0.00603872 0)
(0.00678157 -0.00786006 0)
(0.0102276 -0.010739 0)
(0.0138904 -0.0125658 0)
(0.0177882 -0.0132242 0)
(0.0217769 -0.012591 0)
(0.0255792 -0.0106203 0)
(0.0287513 -0.00739839 0)
(0.0307499 -0.00322653 0)
(0.0311391 0.0013376 0)
(0.0297381 0.00556154 0)
(0.0267625 0.00875131 0)
(0.0226971 0.0104576 0)
(0.0180479 0.0105475 0)
(0.013236 0.00915449 0)
(0.00849367 0.00656593 0)
(0.00602138 0.00487339 0)
(0.0125421 -0.0151281 0)
(0.0159506 -0.0181182 0)
(0.0225723 -0.0229407 0)
(0.0295915 -0.025718 0)
(0.0369946 -0.0262826 0)
(0.0444646 -0.0244515 0)
(0.051436 -0.02019 0)
(0.0571012 -0.0137238 0)
(0.0605463 -0.00566004 0)
(0.0610872 0.00298703 0)
(0.0584861 0.0109596 0)
(0.0531306 0.0170944 0)
(0.0458219 0.0206332 0)
(0.0373921 0.0213187 0)
(0.0285679 0.0193216 0)
(0.0197645 0.0150493 0)
(0.0150933 0.0122492 0)
(0.0222351 -0.0267675 0)
(0.0272136 -0.0302985 0)
(0.0366879 -0.0361311 0)
(0.0467091 -0.0390473 0)
(0.0571708 -0.0388599 0)
(0.0675667 -0.0353696 0)
(0.0770698 -0.028602 0)
(0.084586 -0.0189536 0)
(0.0889746 -0.00731331 0)
(0.0894602 0.00495091 0)
(0.0858372 0.0162226 0)
(0.078612 0.0250451 0)
(0.068791 0.0304694 0)
(0.0574239 0.0321456 0)
(0.0454213 0.0302225 0)
(0.0333225 0.0251252 0)
(0.0267125 0.0217935 0)
(0.033907 -0.0405996 0)
(0.0404255 -0.0440836 0)
(0.0524421 -0.0500569 0)
(0.065103 -0.0523738 0)
(0.0781766 -0.0508558 0)
(0.0909656 -0.0453266 0)
(0.102412 -0.035902 0)
(0.11123 -0.0231585 0)
(0.116167 -0.00822712 0)
(0.116446 0.00726562 0)
(0.111937 0.0214735 0)
(0.103251 0.0327759 0)
(0.0915244 0.04012 0)
(0.0779279 0.0430903 0)
(0.0634838 0.0417927 0)
(0.0488105 0.0366257 0)
(0.0405279 0.0333282 0)
(0.0473939 -0.0562489 0)
(0.0554397 -0.0591374 0)
(0.0696981 -0.0644503 0)
(0.0846455 -0.0655128 0)
(0.0998896 -0.0621688 0)
(0.114553 -0.0542888 0)
(0.127408 -0.0421044 0)
(0.137054 -0.0263681 0)
(0.142234 -0.00840413 0)
(0.142196 0.00998832 0)
(0.136909 0.0268367 0)
(0.127095 0.0404505 0)
(0.113948 0.0497356 0)
(0.0987119 0.0542367 0)
(0.0824631 0.054013 0)
(0.0658666 0.0494251 0)
(0.0561538 0.0466853 0)
(0.0625517 -0.0733165 0)
(0.072127 -0.0751133 0)
(0.0883416 -0.079047 0)
(0.105217 -0.0782743 0)
(0.122197 -0.0726777 0)
(0.138251 -0.0622017 0)
(0.15203 -0.0472015 0)
(0.162099 -0.0285838 0)
(0.167261 -0.0078203 0)
(0.166823 0.0131894 0)
(0.160852 0.0324363 0)
(0.150174 0.0482286 0)
(0.136006 0.0594706 0)
(0.119611 0.0656885 0)
(0.102088 0.0669023 0)
(0.0841295 0.0634423 0)
(0.0732013 0.0617307 0)
(0.0792826 -0.091404 0)
(0.0903823 -0.0916546 0)
(0.108271 -0.0935648 0)
(0.126726 -0.090452 0)
(0.14502 -0.0822492 0)
(0.162001 -0.068987 0)
(0.176266 -0.0511474 0)
(0.186409 -0.0297692 0)
(0.191319 -0.00642034 0)
(0.190405 0.0169655 0)
(0.183843 0.038409 0)
(0.172513 0.0562693 0)
(0.157634 0.0694801 0)
(0.140464 0.0775657 0)
(0.122101 0.0805156 0)
(0.103245 0.0786397 0)
(0.091262 0.0783619 0)
(0.0975313 -0.110103 0)
(0.110143 -0.108394 0)
(0.129434 -0.107714 0)
(0.149106 -0.101819 0)
(0.168294 -0.0907095 0)
(0.185772 -0.0745219 0)
(0.200135 -0.0538565 0)
(0.210048 -0.0298492 0)
(0.214494 -0.0041167 0)
(0.213025 0.0214306 0)
(0.205934 0.0449017 0)
(0.194118 0.0647419 0)
(0.178771 0.0799334 0)
(0.161123 0.0900109 0)
(0.142248 0.0949409 0)
(0.122855 0.0950298 0)
(0.10993 0.0965313 0)
(0.117311 -0.129002 0)
(0.131398 -0.124941 0)
(0.1518 -0.121155 0)
(0.172329 -0.112095 0)
(0.192004 -0.0978394 0)
(0.209565 -0.0786361 0)
(0.223654 -0.0551887 0)
(0.233028 -0.0287012 0)
(0.236808 -0.000787319 0)
(0.234723 0.02673 0)
(0.227149 0.0520845 0)
(0.214971 0.0738269 0)
(0.199335 0.0910094 0)
(0.181417 0.103188 0)
(0.162275 0.110315 0)
(0.14261 0.112696 0)
(0.128789 0.116262 0)
(0.138693 -0.147626 0)
(0.154196 -0.140844 0)
(0.175417 -0.133489 0)
(0.196426 -0.120933 0)
(0.216158 -0.103341 0)
(0.233379 -0.0810753 0)
(0.246801 -0.054932 0)
(0.255321 -0.0261388 0)
(0.258264 0.00375323 0)
(0.255508 0.0330545 0)
(0.247472 0.0601532 0)
(0.235018 0.0837317 0)
(0.219212 0.102926 0)
(0.20117 0.117318 0)
(0.181908 0.126843 0)
(0.162118 0.131796 0)
(0.147387 0.137669 0)
(0.161833 -0.165376 0)
(0.178667 -0.155509 0)
(0.200383 -0.144175 0)
(0.221453 -0.127838 0)
(0.240773 -0.106782 0)
(0.257161 -0.0814727 0)
(0.269487 -0.0527807 0)
(0.276862 -0.0218955 0)
(0.278816 0.00974908 0)
(0.275326 0.0406407 0)
(0.266842 0.0693533 0)
(0.25416 0.0947152 0)
(0.238254 0.115952 0)
(0.220147 0.132671 0)
(0.200803 0.144782 0)
(0.180909 0.152567 0)
(0.165139 0.160936 0)
(0.186986 -0.181466 0)
(0.205002 -0.168098 0)
(0.226819 -0.152416 0)
(0.247427 -0.132085 0)
(0.265754 -0.10752 0)
(0.280777 -0.0792955 0)
(0.291591 -0.0482862 0)
(0.297543 -0.0155856 0)
(0.29833 0.0175465 0)
(0.294031 0.0498023 0)
(0.285072 0.0799627 0)
(0.272165 0.107039 0)
(0.256172 0.130355 0)
(0.237991 0.149526 0)
(0.218494 0.164431 0)
(0.198347 0.175295 0)
(0.181255 0.186313 0)
(0.214503 -0.194805 0)
(0.233453 -0.177427 0)
(0.254801 -0.157072 0)
(0.274255 -0.132646 0)
(0.290905 -0.104672 0)
(0.30397 -0.0737951 0)
(0.312815 -0.0408285 0)
(0.317026 -0.00671059 0)
(0.316446 0.0275307 0)
(0.311211 0.060835 0)
(0.301711 0.0922371 0)
(0.288538 0.120942 0)
(0.272394 0.146363 0)
(0.254032 0.168123 0)
(0.234206 0.186052 0)
(0.213509 0.20028 0)
(0.194633 0.214095 0)
(0.244585 -0.203515 0)
(0.264007 -0.181553 0)
(0.283992 -0.156358 0)
(0.301348 -0.12803 0)
(0.315481 -0.0970948 0)
(0.325921 -0.0641258 0)
(0.332324 -0.0297975 0)
(0.334484 0.00516833 0)
(0.33236 0.0400126 0)
(0.326088 0.0739798 0)
(0.315971 0.106363 0)
(0.302425 0.136554 0)
(0.285963 0.164061 0)
(0.267155 0.188522 0)
(0.246601 0.209713 0)
(0.224796 0.227639 0)
(0.203406 0.244403 0)
(0.275603 -0.204208 0)
(0.294583 -0.17723 0)
(0.311797 -0.147841 0)
(0.325948 -0.1165 0)
(0.336785 -0.0836013 0)
(0.344115 -0.049554 0)
(0.347808 -0.0148085 0)
(0.347796 0.0201688 0)
(0.344087 0.054904 0)
(0.336764 0.0889267 0)
(0.325979 0.121787 0)
(0.31195 0.153068 0)
(0.294946 0.182397 0)
(0.275287 0.209453 0)
(0.253321 0.233979 0)
(0.229383 0.255814 0)
(0.204175 0.275558 0)
(0.291606 -0.202486 0)
(0.310049 -0.172929 0)
(0.325506 -0.141706 0)
(0.337828 -0.109118 0)
(0.346897 -0.0754799 0)
(0.352625 -0.0411146 0)
(0.354957 -0.00635332 0)
(0.353871 0.0284692 0)
(0.349376 0.0630174 0)
(0.341517 0.0969589 0)
(0.330369 0.129966 0)
(0.316039 0.161722 0)
(0.298666 0.191921 0)
(0.278416 0.220271 0)
(0.255485 0.2465 0)
(0.230094 0.270355 0)
(0.202486 0.291606 0)
(0 0 0)
(0 0 0)
(0 0 0)
(0 0 0)
(0 0 0)
(0 0 0)
(0 0 0)
(0 0 0)
(0 0 0)
(0 0 0)
(0 0 0)
(0 0 0)
(0 0 0)
(0 0 0)
(0 0 0)
(0 0 0)
(0.00784168 0.00661612 0)
(0.010714 0.0100443 0)
(0.0125238 0.0137016 0)
(0.0131753 0.0176384 0)
(0.0125535 0.0217057 0)
(0.0105761 0.0255453 0)
(0.0073411 0.0287156 0)
(0.00315923 0.0307179 0)
(-0.00141822 0.0311453 0)
(-0.00564486 0.0297827 0)
(-0.00881913 0.026774 0)
(-0.0105041 0.0226391 0)
(-0.0105881 0.0179684 0)
(-0.00920069 0.0131788 0)
(-0.00660425 0.008461 0)
(-0.00489924 0.00599802 0)
(0.0180746 0.0156124 0)
(0.0228856 0.02221 0)
(0.0256371 0.0292361 0)
(0.0261931 0.0367192 0)
(0.0243712 0.0443146 0)
(0.0200976 0.0513567 0)
(0.0136131 0.0570296 0)
(0.00553338 0.0604841 0)
(-0.00313427 0.0610807 0)
(-0.0111086 0.0585323 0)
(-0.0172158 0.0531231 0)
(-0.0207217 0.0457072 0)
(-0.0214011 0.0372463 0)
(-0.0194142 0.0284583 0)
(-0.0151337 0.019695 0)
(-0.0123217 0.0150416 0)
(0.0302357 0.0267168 0)
(0.036049 0.0361666 0)
(0.0389384 0.0462204 0)
(0.0387384 0.0567954 0)
(0.0352501 0.0673455 0)
(0.0284656 0.0769412 0)
(0.0187959 0.0844796 0)
(0.00713684 0.088884 0)
(-0.00514874 0.0894303 0)
(-0.016418 0.0858548 0)
(-0.0252091 0.0785669 0)
(-0.030601 0.0686356 0)
(-0.0322717 0.0572338 0)
(-0.0303579 0.0452657 0)
(-0.0252564 0.0332139 0)
(-0.0219248 0.0266329 0)
(0.0440005 0.0397816 0)
(0.0499532 0.0517859 0)
(0.0522438 0.0645088 0)
(0.0507093 0.0777223 0)
(0.0451713 0.0906774 0)
(0.0357263 0.102236 0)
(0.0229622 0.111092 0)
(0.00801163 0.116052 0)
(-0.00750044 0.116385 0)
(-0.0217027 0.111912 0)
(-0.0329747 0.103167 0)
(-0.0402921 0.0913391 0)
(-0.043258 0.0777074 0)
(-0.0419689 0.0632949 0)
(-0.0368064 0.0486718 0)
(-0.0335236 0.0404254 0)
(0.0590377 0.0546676 0)
(0.0643293 0.0689305 0)
(0.0653672 0.0839694 0)
(0.0620029 0.0993739 0)
(0.0541081 0.114213 0)
(0.0419023 0.127189 0)
(0.0261441 0.13689 0)
(0.00816017 0.142102 0)
(-0.0102485 0.142112 0)
(-0.0270887 0.136847 0)
(-0.0406779 0.126978 0)
(-0.0499454 0.113748 0)
(-0.0544435 0.0984788 0)
(-0.0542275 0.0822546 0)
(-0.0496538 0.0657067 0)
(-0.046946 0.0560365 0)
(0.074997 0.0712446 0)
(0.0789134 0.0874879 0)
(0.0781195 0.104481 0)
(0.0725016 0.121637 0)
(0.0620061 0.137868 0)
(0.0469838 0.151778 0)
(0.0283441 0.161916 0)
(0.00755998 0.167119 0)
(-0.013464 0.166722 0)
(-0.0327036 0.160764 0)
(-0.0484781 0.150039 0)
(-0.0597113 0.135799 0)
(-0.0659292 0.119374 0)
(-0.0671536 0.101875 0)
(-0.0637205 0.0839639 0)
(-0.062055 0.0730788 0)
(0.0915248 0.0894129 0)
(0.0934262 0.107356 0)
(0.090297 0.125952 0)
(0.0820727 0.144433 0)
(0.0687914 0.161595 0)
(0.0509307 0.175994 0)
(0.0295273 0.186217 0)
(0.00615521 0.191177 0)
(-0.0172442 0.190301 0)
(-0.038682 0.183746 0)
(-0.0565347 0.172373 0)
(-0.0697463 0.157433 0)
(-0.0778349 0.140238 0)
(-0.0807994 0.121896 0)
(-0.0789634 0.103084 0)
(-0.0787444 0.0911444 0)
(0.108247 0.109107 0)
(0.107573 0.128478 0)
(0.101672 0.148316 0)
(0.0905467 0.167702 0)
(0.0743416 0.185358 0)
(0.0536541 0.199857 0)
(0.0296188 0.20986 0)
(0.00386054 0.214362 0)
(-0.021701 0.212928 0)
(-0.0451717 0.20584 0)
(-0.0650132 0.193985 0)
(-0.080213 0.178581 0)
(-0.0902999 0.160911 0)
(-0.0952563 0.142064 0)
(-0.0953988 0.122712 0)
(-0.0969652 0.109826 0)
(0.124776 0.130335 0)
(0.121016 0.150844 0)
(0.111965 0.171553 0)
(0.0977007 0.191429 0)
(0.0784832 0.209167 0)
(0.0550158 0.223389 0)
(0.0284973 0.232854 0)
(0.00055298 0.236694 0)
(-0.0269808 0.234644 0)
(-0.0523385 0.227073 0)
(-0.074093 0.214853 0)
(-0.0912982 0.199169 0)
(-0.103503 0.181242 0)
(-0.110669 0.162127 0)
(-0.113111 0.142497 0)
(-0.116741 0.128707 0)
(0.14067 0.153178 0)
(0.13336 0.174521 0)
(0.120827 0.195712 0)
(0.103235 0.215637 0)
(0.0809619 0.233017 0)
(0.0548037 0.24656 0)
(0.0259762 0.25517 0)
(-0.0039491 0.258174 0)
(-0.0332681 0.25545 0)
(-0.0603778 0.247417 0)
(-0.0839867 0.234932 0)
(-0.103224 0.219091 0)
(-0.117659 0.201045 0)
(-0.127236 0.181808 0)
(-0.13225 0.162044 0)
(-0.138174 0.147329 0)
(0.155344 0.177787 0)
(0.144065 0.199626 0)
(0.127757 0.220856 0)
(0.106709 0.240336 0)
(0.0814047 0.256857 0)
(0.0527 0.269289 0)
(0.0217851 0.276743 0)
(-0.00989442 0.278749 0)
(-0.0408065 0.275296 0)
(-0.069543 0.26682 0)
(-0.094948 0.254117 0)
(-0.116243 0.238186 0)
(-0.133021 0.220079 0)
(-0.145187 0.200751 0)
(-0.153023 0.180864 0)
(-0.161429 0.165096 0)
(0.167956 0.204345 0)
(0.152326 0.22626 0)
(0.132022 0.246991 0)
(0.10748 0.265434 0)
(0.0792656 0.280552 0)
(0.0482486 0.291445 0)
(0.0155216 0.297459 0)
(-0.0176423 0.298295 0)
(-0.0499189 0.294029 0)
(-0.0801067 0.28508 0)
(-0.107234 0.27216 0)
(-0.130609 0.256152 0)
(-0.149836 0.237966 0)
(-0.164786 0.21847 0)
(-0.175692 0.198319 0)
(-0.186737 0.181221 0)
(0.177316 0.233048 0)
(0.156991 0.254459 0)
(0.132595 0.273991 0)
(0.104657 0.290708 0)
(0.0737929 0.30383 0)
(0.0408184 0.312727 0)
(0.00667785 0.316981 0)
(-0.0275835 0.316437 0)
(-0.0609064 0.311226 0)
(-0.0923337 0.301737 0)
(-0.121079 0.288554 0)
(-0.146545 0.272398 0)
(-0.168344 0.254028 0)
(-0.186305 0.234195 0)
(-0.200564 0.213492 0)
(-0.214396 0.194615 0)
(0.181482 0.263822 0)
(0.156304 0.283835 0)
(0.127997 0.301223 0)
(0.0970874 0.315386 0)
(0.0641315 0.325856 0)
(0.0297956 0.332284 0)
(-0.00518147 0.334467 0)
(-0.0400377 0.332362 0)
(-0.0740134 0.326106 0)
(-0.106412 0.315991 0)
(-0.136624 0.302441 0)
(-0.164155 0.28597 0)
(-0.188636 0.267157 0)
(-0.209845 0.246598 0)
(-0.227788 0.22479 0)
(-0.244561 0.203403 0)
(0.177208 0.294537 0)
(0.147826 0.311757 0)
(0.116489 0.325915 0)
(0.0835974 0.336759 0)
(0.0495545 0.344098 0)
(0.0148079 0.347798 0)
(-0.0201727 0.347793 0)
(-0.0549103 0.344089 0)
(-0.0889354 0.33677 0)
(-0.1218 0.325986 0)
(-0.153087 0.311955 0)
(-0.182423 0.294949 0)
(-0.209485 0.275288 0)
(-0.234015 0.253322 0)
(-0.255854 0.229383 0)
(-0.275602 0.204175 0)
(0.172929 0.310049 0)
(0.141706 0.325506 0)
(0.109118 0.337828 0)
(0.0754799 0.346897 0)
(0.0411146 0.352625 0)
(0.00635332 0.354957 0)
(-0.0284692 0.353871 0)
(-0.0630174 0.349376 0)
(-0.0969589 0.341517 0)
(-0.129966 0.330369 0)
(-0.161722 0.316039 0)
(-0.191921 0.298666 0)
(-0.220271 0.278416 0)
(-0.2465 0.255485 0)
(-0.270355 0.230094 0)
(-0.291606 0.202486 0)
(0 0 0)
(0 0 0)
(0 0 0)
(0 0 0)
(0 0 0)
(0 0 0)
(0 0 0)
(0 0 0)
(0 0 0)
(0 0 0)
(0 0 0)
(0 0 0)
(0 0 0)
(0 0 0)
(0 0 0)
(0 0 0)
(0.00784168 0.00661612 0)
(0.010714 0.0100443 0)
(0.0125238 0.0137016 0)
(0.0131753 0.0176384 0)
(0.0125535 0.0217057 0)
(0.0105761 0.0255453 0)
(0.0073411 0.0287156 0)
(0.00315923 0.0307179 0)
(-0.00141822 0.0311453 0)
(-0.00564486 0.0297827 0)
(-0.00881913 0.026774 0)
(-0.0105041 0.0226391 0)
(-0.0105881 0.0179684 0)
(-0.00920069 0.0131788 0)
(-0.00660425 0.008461 0)
(-0.00489924 0.00599802 0)
(0.0180746 0.0156124 0)
(0.0228856 0.02221 0)
(0.0256371 0.0292361 0)
(0.0261931 0.0367192 0)
(0.0243712 0.0443146 0)
(0.0200976 0.0513567 0)
(0.0136131 0.0570296 0)
(0.00553338 0.0604841 0)
(-0.00313427 0.0610807 0)
(-0.0111086 0.0585323 0)
(-0.0172158 0.0531231 0)
(-0.0207217 0.0457072 0)
(-0.0214011 0.0372463 0)
(-0.0194142 0.0284583 0)
(-0.0151337 0.019695 0)
(-0.0123217 0.0150416 0)
(0.0302357 0.0267168 0)
(0.036049 0.0361666 0)
(0.0389384 0.0462204 0)
(0.0387384 0.0567954 0)
(0.0352501 0.0673455 0)
(0.0284656 0.0769412 0)
(0.0187959 0.0844796 0)
(0.00713684 0.088884 0)
(-0.00514874 0.0894303 0)
(-0.016418 0.0858548 0)
(-0.0252091 0.0785669 0)
(-0.030601 0.0686356 0)
(-0.0322717 0.0572338 0)
(-0.0303579 0.0452657 0)
(-0.0252564 0.0332139 0)
(-0.0219248 0.0266329 0)
(0.0440005 0.0397816 0)
(0.0499532 0.0517859 0)
(0.0522438 0.0645088 0)
(0.0507093 0.0777223 0)
(0.0451713 0.0906774 0)
(0.0357263 0.102236 0)
(0.0229622 0.111092 0)
(0.00801163 0.116052 0)
(-0.00750044 0.116385 0)
(-0.0217027 0.111912 0)
(-0.0329747 0.103167 0)
(-0.0402921 0.0913391 0)
(-0.043258 0.0777074 0)
(-0.0419689 0.0632949 0)
(-0.0368064 0.0486718 0)
(-0.0335236 0.0404254 0)
(0.0590377 0.0546676 0)
(0.0643293 0.0689305 0)
(0.0653672 0.0839694 0)
(0.0620029 0.0993739 0)
(0.0541081 0.114213 0)
(0.0419023 0.127189 0)
(0.0261441 0.13689 0)
(0.00816017 0.142102 0)
(-0.0102485 0.142112 0)
(-0.0270887 0.136847 0)
(-0.0406779 0.126978 0)
(-0.0499454 0.113748 0)
(-0.0544435 0.0984788 0)
(-0.0542275 0.0822546 0)
(-0.0496538 0.0657067 0)
(-0.046946 0.0560365 0)
(0.074997 0.0712446 0)
(0.0789134 0.0874879 0)
(0.0781195 0.104481 0)
(0.0725016 0.121637 0)
(0.0620061 0.137868 0)
(0.0469838 0.151778 0)
(0.0283441 0.161916 0)
(0.00755998 0.167119 0)
(-0.013464 0.166722 0)
(-0.0327036 0.160764 0)
(-0.0484781 0.150039 0)
(-0.0597113 0.135799 0)
(-0.0659292 0.119374 0)
(-0.0671536 0.101875 0)
(-0.0637205 0.0839639 0)
(-0.062055 0.0730788 0)
(0.0915248 0.0894129 0)
(0.0934262 0.107356 0)
(0.090297 0.125952 0)
(0.0820727 0.144433 0)
(0.0687914 0.161595 0)
(0.0509307 0.175994 0)
(0.0295273 0.186217 0)
(0.00615521 0.191177 0)
(-0.0172442 0.190301 0)
(-0.038682 0.183746 0)
(-0.0565347 0.172373 0)
(-0.0697463 0.157433 0)
(-0.0778349 0.140238 0)
(-0.0807994 0.121896 0)
(-0.0789634 0.103084 0)
(-0.0787444 0.0911444 0)
(0.108247 0.109107 0)
(0.107573 0.128478 0)
(0.101672 0.148316 0)
(0.0905467 0.167702 0)
(0.0743416 0.185358 0)
(0.0536541 0.199857 0)
(0.0296188 0.20986 0)
(0.00386054 0.214362 0)
(-0.021701 0.212928 0)
(-0.0451717 0.20584 0)
(-0.0650132 0.193985 0)
(-0.080213 0.178581 0)
(-0.0902999 0.160911 0)
(-0.0952563 0.142064 0)
(-0.0953988 0.122712 0)
(-0.0969652 0.109826 0)
(0.124776 0.130335 0)
(0.121016 0.150844 0)
(0.111965 0.171553 0)
(0.0977007 0.191429 0)
(0.0784832 0.209167 0)
(0.0550158 0.223389 0)
(0.0284973 0.232854 0)
(0.00055298 0.236694 0)
(-0.0269808 0.234644 0)
(-0.0523385 0.227073 0)
(-0.074093 0.214853 0)
(-0.0912982 0.199169 0)
(-0.103503 0.181242 0)
(-0.110669 0.162127 0)
(-0.113111 0.142497 0)
(-0.116741 0.128707 0)
(0.14067 0.153178 0)
(0.13336 0.174521 0)
(0.120827 0.195712 0)
(0.103235 0.215637 0)
(0.0809619 0.233017 0)
(0.0548037 0.24656 0)
(0.0259762 0.25517 0)
(-0.0039491 0.258174 0)
(-0.0332681 0.25545 0)
(-0.0603778 0.247417 0)
(-0.0839867 0.234932 0)
(-0.103224 0.219091 0)
(-0.117659 0.201045 0)
(-0.127236 0.181808 0)
(-0.13225 0.162044 0)
(-0.138174 0.147329 0)
(0.155344 0.177787 0)
(0.144065 0.199626 0)
(0.127757 0.220856 0)
(0.106709 0.240336 0)
(0.0814047 0.256857 0)
(0.0527 0.269289 0)
(0.0217851 0.276743 0)
(-0.00989442 0.278749 0)
(-0.0408065 0.275296 0)
(-0.069543 0.26682 0)
(-0.094948 0.254117 0)
(-0.116243 0.238186 0)
(-0.133021 0.220079 0)
(-0.145187 0.200751 0)
(-0.153023 0.180864 0)
(-0.161429 0.165096 0)
(0.167956 0.204345 0)
(0.152326 0.22626 0)
(0.132022 0.246991 0)
(0.10748 0.265434 0)
(0.0792656 0.280552 0)
(0.0482486 0.291445 0)
(0.0155216 0.297459 0)
(-0.0176423 0.298295 0)
(-0.0499189 0.294029 0)
(-0.0801067 0.28508 0)
(-0.107234 0.27216 0)
(-0.130609 0.256152 0)
(-0.149836 0.237966 0)
(-0.164786 0.21847 0)
(-0.175692 0.198319 0)
(-0.186737 0.181221 0)
(0.177316 0.233048 0)
(0.156991 0.254459 0)
(0.132595 0.273991 0)
(0.104657 0.290708 0)
(0.0737929 0.30383 0)
(0.0408184 0.312727 0)
(0.00667785 0.316981 0)
(-0.0275835 0.316437 0)
(-0.0609064 0.311226 0)
(-0.0923337 0.301737 0)
(-0.121079 0.288554 0)
(-0.146545 0.272398 0)
(-0.168344 0.254028 0)
(-0.186305 0.234195 0)
(-0.200564 0.213492 0)
(-0.214396 0.194615 0)
(0.181482 0.263822 0)
(0.156304 0.283835 0)
(0.127997 0.301223 0)
(0.0970874 0.315386 0)
(0.0641315 0.325856 0)
(0.0297956 0.332284 0)
(-0.00518147 0.334467 0)
(-0.0400377 0.332362 0)
(-0.0740134 0.326106 0)
(-0.106412 0.315991 0)
(-0.136624 0.302441 0)
(-0.164155 0.28597 0)
(-0.188636 0.267157 0)
(-0.209845 0.246598 0)
(-0.227788 0.22479 0)
(-0.244561 0.203403 0)
(0.177208 0.294537 0)
(0.147826 0.311757 0)
(0.116489 0.325915 0)
(0.0835974 0.336759 0)
(0.0495545 0.344098 0)
(0.0148079 0.347798 0)
(-0.0201727 0.347793 0)
(-0.0549103 0.344089 0)
(-0.0889354 0.33677 0)
(-0.1218 0.325986 0)
(-0.153087 0.311955 0)
(-0.182423 0.294949 0)
(-0.209485 0.275288 0)
(-0.234015 0.253322 0)
(-0.255854 0.229383 0)
(-0.275602 0.204175 0)
(0.172929 0.310049 0)
(0.141706 0.325506 0)
(0.109118 0.337828 0)
(0.0754799 0.346897 0)
(0.0411146 0.352625 0)
(0.00635332 0.354957 0)
(-0.0284692 0.353871 0)
(-0.0630174 0.349376 0)
(-0.0969589 0.341517 0)
(-0.129966 0.330369 0)
(-0.161722 0.316039 0)
(-0.191921 0.298666 0)
(-0.220271 0.278416 0)
(-0.2465 0.255485 0)
(-0.270355 0.230094 0)
(-0.291606 0.202486 0)
(0 0 0)
(0 0 0)
(0 0 0)
(0 0 0)
(0 0 0)
(0 0 0)
(0 0 0)
(0 0 0)
(0 0 0)
(0 0 0)
(0 0 0)
(0 0 0)
(0 0 0)
(0 0 0)
(0 0 0)
(0 0 0)
(-0.00666462 0.00781883 0)
(-0.0101403 0.0107048 0)
(-0.0138352 0.0125448 0)
(-0.0177524 0.0132073 0)
(-0.021756 0.0125714 0)
(-0.0255698 0.0105978 0)
(-0.0287479 0.00737556 0)
(-0.030748 0.00320495 0)
(-0.0311358 -0.00135761 0)
(-0.0297322 -0.00558061 0)
(-0.0267525 -0.00876997 0)
(-0.0226833 -0.0104761 0)
(-0.0180323 -0.010566 0)
(-0.0132191 -0.00917232 0)
(-0.00847221 -0.00658036 0)
(-0.00599564 -0.00488359 0)
(-0.0157281 0.0180307 0)
(-0.0224049 0.0228724 0)
(-0.0294835 0.0256731 0)
(-0.0369268 0.0262456 0)
(-0.0444251 0.024412 0)
(-0.0514172 0.0201472 0)
(-0.0570936 0.0136807 0)
(-0.0605414 0.00561919 0)
(-0.0610797 -0.00302521 0)
(-0.0584734 -0.0109962 0)
(-0.0531101 -0.0171304 0)
(-0.0457941 -0.020669 0)
(-0.0373611 -0.0213545 0)
(-0.0285347 -0.0193566 0)
(-0.0197245 -0.0150797 0)
(-0.0150477 -0.0122743 0)
(-0.0269071 0.0301751 0)
(-0.0364491 0.0360324 0)
(-0.0465512 0.0389773 0)
(-0.0570721 0.0388014 0)
(-0.0675106 0.0353106 0)
(-0.077043 0.0285405 0)
(-0.0845743 0.0188927 0)
(-0.0889663 0.00725583 0)
(-0.089448 -0.00500481 0)
(-0.0858169 -0.0162744 0)
(-0.0785807 -0.0250962 0)
(-0.0687503 -0.0305203 0)
(-0.0573786 -0.0321967 0)
(-0.0453726 -0.030273 0)
(-0.0332663 -0.0251715 0)
(-0.0266526 -0.0218354 0)
(-0.0400462 0.0439287 0)
(-0.0521404 0.0499325 0)
(-0.0648971 0.05228 0)
(-0.0780492 0.0507762 0)
(-0.090895 0.0452494 0)
(-0.102379 0.0358246 0)
(-0.111214 0.0230832 0)
(-0.116154 0.00815623 0)
(-0.116428 -0.00733227 0)
(-0.111909 -0.0215378 0)
(-0.10321 -0.0328395 0)
(-0.0914717 -0.0401835 0)
(-0.0778692 -0.0431541 0)
(-0.0634208 -0.0418565 0)
(-0.0487413 -0.036687 0)
(-0.0404572 -0.0333869 0)
(-0.0550016 0.0589601 0)
(-0.0693412 0.0643063 0)
(-0.0843966 0.065399 0)
(-0.0997358 0.0620712 0)
(-0.11447 0.0541961 0)
(-0.127369 0.0420139 0)
(-0.137035 0.0262814 0)
(-0.142218 0.00832301 0)
(-0.142174 -0.0100646 0)
(-0.136874 -0.0269104 0)
(-0.127045 -0.0405236 0)
(-0.113885 -0.0498089 0)
(-0.0986419 -0.0543107 0)
(-0.0823882 -0.054088 0)
(-0.065787 -0.0494993 0)
(-0.0560756 -0.0467593 0)
(-0.0716397 0.0749195 0)
(-0.087941 0.0788897 0)
(-0.104933 0.0781465 0)
(-0.122024 0.0725662 0)
(-0.138161 0.0620974 0)
(-0.151988 0.0471017 0)
(-0.162077 0.0284897 0)
(-0.167241 0.00773275 0)
(-0.166796 -0.0132717 0)
(-0.160811 -0.0325161 0)
(-0.150117 -0.048308 0)
(-0.135935 -0.0595505 0)
(-0.119531 -0.0657698 0)
(-0.102004 -0.0669857 0)
(-0.0840429 -0.0635271 0)
(-0.0731181 -0.0618175 0)
(-0.0898592 0.0914527 0)
(-0.10784 0.0934023 0)
(-0.126421 0.0903164 0)
(-0.144837 0.0821298 0)
(-0.161908 0.068876 0)
(-0.176224 0.0510426 0)
(-0.186386 0.0296718 0)
(-0.191297 0.00633026 0)
(-0.190374 -0.0170502 0)
(-0.183797 -0.0384913 0)
(-0.172451 -0.0563515 0)
(-0.157557 -0.0695635 0)
(-0.140378 -0.0776514 0)
(-0.12201 -0.0806045 0)
(-0.103154 -0.0787322 0)
(-0.0911764 -0.0784583 0)
(-0.109594 0.108184 0)
(-0.128983 0.107547 0)
(-0.148793 0.101681 0)
(-0.168113 0.0905884 0)
(-0.185685 0.0744099 0)
(-0.200096 0.0537519 0)
(-0.210026 0.029753 0)
(-0.21447 0.00402823 0)
(-0.212992 -0.0215138 0)
(-0.205885 -0.0449829 0)
(-0.194052 -0.0648234 0)
(-0.178692 -0.0800168 0)
(-0.161034 -0.0900976 0)
(-0.142155 -0.0950323 0)
(-0.122762 -0.0951265 0)
(-0.109844 -0.0966337 0)
(-0.13085 0.124722 0)
(-0.151359 0.120987 0)
(-0.172029 0.111959 0)
(-0.191837 0.0977223 0)
(-0.209488 0.0785291 0)
(-0.22362 0.0550899 0)
(-0.233006 0.0286109 0)
(-0.236784 0.00070474 0)
(-0.234688 -0.0268079 0)
(-0.2271 -0.0521608 0)
(-0.214905 -0.0739042 0)
(-0.199255 -0.0910893 0)
(-0.181328 -0.103273 0)
(-0.162182 -0.110405 0)
(-0.142519 -0.112793 0)
(-0.128706 -0.116367 0)
(-0.153702 0.140625 0)
(-0.175028 0.133325 0)
(-0.19617 0.120806 0)
(-0.216019 0.103234 0)
(-0.233315 0.0809786 0)