/*--------------------------------*- C++ -*----------------------------------*\
| =========                 |                                                 |
| \\      /  F ield         | OpenFOAM: The Open Source CFD Toolbox           |
|  \\    /   O peration     | Version:  2412                                  |
|   \\  /    A nd           | Website:  www.openfoam.com                      |
|    \\/     M anipulation  |                                                 |
\*---------------------------------------------------------------------------*/
FoamFile
{
    version     2.0;
    format      ascii;
    arch        "LSB;label=32;scalar=64";
    class       volVectorField;
    location    "441";
    object      U;
}
// * * * * * * * * * * * * * * * * * * * * * * * * * * * * * * * * * * * * * //

dimensions      [0 1 -1 0 0 0 0];

internalField   nonuniform List<vector> 
808
(
(0.7562721369650232 -0.01751462398234232 0)
(1.03155195611815 -0.01260095103535237 0)
(1.111318704289062 -0.004622786240331509 -1.716572233135267e-20)
(1.085125926776853 0.01258399175289355 0)
(1.362302136625945 0.01284373543407935 -3.817253049655429e-19)
(1.038748391322674 -0.009425706044273768 -7.325084570529232e-20)
(1.014521181652663 -0.02091181722469845 -2.438386496011633e-20)
(1.079244535715057 -0.005203119733396034 9.052115604473552e-21)
(1.253781066767213 -0.02166650781035635 6.258824334118073e-20)
(1.085323684524988 0.009462495113585564 0)
(1.007600976527431 -0.009807319066074349 0)
(1.304951632308559 -0.05458581133945568 -3.462629564353261e-19)
(1.086416189011487 -0.00197221453954331 2.044923735159583e-20)
(0.6752068175097895 0.006355965080258839 0)
(1.275163114909736 -0.1190639382133378 0)
(1.081766589009917 -0.0004505815976525379 -3.872347438541718e-20)
(1.223933546087367 -0.1469751712113027 -9.509599157889518e-20)
(1.074193416052055 -0.0003522466176279972 3.210918468713735e-20)
(0.9889277324384841 0.003970358117190273 0)
(1.026669186436965 0.009641998280954011 0)
(1.032719807961163 -0.01362852302762773 0)
(0.9875847939704289 0.0451999890458709 0)
(1.051072833652081 -0.006050269017075384 5.803158648033278e-20)
(1.053816920956769 0.008814082023059243 0)
(0.9334247620157035 0.1987199955722453 4.568655235682085e-19)
(1.161583715642666 -0.08688938091132839 0)
(1.185434870239491 -0.01986352539073871 1.540717948959411e-19)
(1.077247676446944 0.009669325209910214 5.235037361001772e-20)
(1.083661173742666 0.002092123755289513 5.125001206866472e-21)
(1.071755117056713 0.03091560252178574 0)
(1.075251438796001 0.002775006848133958 -1.183646214307354e-20)
(1.033297578483656 0.006700901552178136 -1.876660571538643e-19)
(1.06007421340941 0.01451657725483277 -2.350400622987533e-20)
(1.088761903910722 0.00564258892473079 -2.939020704063072e-20)
(1.121699251091081 0.03773355002655954 0)
(0.7548959646546937 -0.121716380629984 -4.549486155996052e-19)
(0.9547762525078387 -0.005810051908836231 0)
(1.068761122476168 0.02222614869301752 0)
(1.068800006280898 0.007224307378682277 0)
(1.073793969823446 0.008714504038646697 -2.818595981319645e-20)
(1.093268462887337 0.02373573241287744 1.079792928435848e-19)
(1.150777170623865 0.002383219274060939 2.116756186732216e-19)
(1.095822132048427 -0.002270862503630127 0)
(1.015169557947865 -0.009334730983365762 0)
(1.129583328605127 -0.0929645806546042 -1.628750517924051e-19)
(1.044071649671797 -0.01169501351731154 -8.367565631702175e-20)
(1.058144252331329 0.02665114632928922 -2.676197177197311e-20)
(1.230259987813012 -0.1126635713059596 -5.560174152818972e-20)
(1.067483887624975 0.01202214425818056 -4.073573683957294e-20)
(1.257623446612089 0.01515405698135291 0)
(0.9970406241644529 -0.01920038949485465 2.214936684152911e-21)
(1.044752380716025 -0.002231621255920114 0)
(1.087453461488687 -0.002130750538444066 0)
(0.9989397417298694 0.007812203560552823 -1.883563247070942e-20)
(1.251410834285232 0.03282611916651854 -2.389734008914316e-19)
(1.063423722022964 0.01810292134151861 5.876449574843355e-20)
(0.9905991834544564 0.01144948443152298 0)
(1.015620656742492 -0.006640923207828638 2.526436211079265e-20)
(1.107540529422869 -0.00123405611361059 -1.156235586664231e-19)
(1.061191179393257 0.0312337289019619 0)
(-0.08702713545264151 -0.007089885690722646 7.694448264397633e-20)
(1.154379779019634 -0.05240114342976165 -1.848662451167066e-19)
(1.004681617419382 -0.005665868963468485 -2.774693229986414e-20)
(1.188203209585767 0.06666380570728321 -1.206110266025892e-19)
(0.9971118290817418 -0.009786537786304592 3.104466007742666e-20)
(1.084184491165228 -0.0054550837190103 0)
(1.249038574237554 0.09289902112261959 0)
(0.6960820725019512 0.003163219024510625 -7.423066738578701e-20)
(0.9882897468970794 -0.01480080901774715 -3.234214801609623e-20)
(1.458137737664033 -0.02005874090950117 4.396697318493096e-19)
(1.060541785091818 0.007606552638064074 -6.531873523703279e-20)
(1.366504682339147 0.09300219561350954 2.838876580830745e-19)
(1.054867340772463 0.006804547832168148 -1.956131654536777e-22)
(1.080948801398273 -0.013981171705274 -2.41655674372647e-22)
(1.163684632549501 -0.2357718540384623 0)
(1.022136657557442 -0.01511977158631076 0)
(1.017286666022907 0.01808623377355377 -2.994787171220147e-20)
(1.387971880330666 0.3487729986006669 4.228056358064347e-19)
(1.097441705083325 -0.04244973405178801 9.592758610145987e-20)
(1.046380799987343 0.2104340358098632 2.414563387446468e-19)
(1.122987516823999 -0.06105563691654454 1.179153656906718e-19)
(0.9219672072446686 0.005175348880634222 0)
(0.97534163575683 0.01852957452772254 0)
(1.004004866459065 -0.04853765341388168 3.143628707393535e-21)
(1.009943883541419 -0.01370615979515639 7.828442554265685e-21)
(1.030539629474305 0.02684277976777278 1.352390274789551e-20)
(1.527064958578398 0.03362301360676885 3.213448298084146e-19)
(1.29043134690329 0.07007872145327733 5.633450745821119e-19)
(1.07247322178095 0.003093115318347592 -8.8249519481777e-20)
(1.194326600236259 -0.09574635977249633 0)
(1.033874964109621 0.001799751029851774 1.290149284018806e-19)
(1.165183492844358 0.02070120613469627 -3.128689358400217e-19)
(1.001500983096368 0.03251835068867073 0)
(0.999627623751106 0.002003038349290184 0)
(1.044279987182557 -6.126675981697777e-05 8.005110880569666e-20)
(1.2182882305943 0.106779775582691 4.073396422141473e-19)
(1.011143961159674 0.006968937962205528 0)
(1.089682050896001 -0.06794033769826836 -1.066261357475392e-19)
(1.151438408203537 0.03610978100796532 0)
(1.216332306220503 0.09118401109527743 -1.907951893180995e-19)
(1.108311148534653 -0.02890710008059341 -7.822965098481089e-20)
(1.027526236799329 0.01192615888781853 0)
(1.085155470012171 -0.004590511397338716 0)
(1.019431375204773 0.0264729587132543 7.840347128450339e-20)
(1.073647279281345 0.05660324992833613 -9.523594787758203e-21)
(1.103724451724596 -0.004210655820945661 6.436853865303227e-20)
(1.106701300590131 -0.09175182990235446 1.499777568800589e-19)
(0.9637170882664111 0.002206886332455491 0)
(1.066022126979391 0.03128913249399552 3.688041863747766e-20)
(1.168172234292303 -0.07689536365799211 2.259336517033435e-19)
(1.052370256638795 0.04729447558254799 -2.849192112988936e-20)
(1.022955319232823 0.06796122242667998 3.647620339760537e-20)
(1.09021967069236 0.02609612431154436 0)
(1.017456607646 0.01431882572595012 0)
(1.028983787697529 0.009362706073972485 7.838999616100414e-20)
(0.9485394849966771 -0.03246762370999205 0)
(1.052900466202002 -0.005438366948887541 -7.408536084288896e-21)
(1.340918838832148 0.05576692702241229 -1.54167741160046e-19)
(1.079684165563851 -0.01316384669795882 2.667187556959178e-20)
(0.7440514403375124 -0.001733513364415382 0)
(0.5883115508254934 0.1896434244979789 -1.132676951239791e-19)
(0.7061026489799807 -0.002481390273809672 0)
(0.6988192808085084 0.01463691110982383 0)
(1.077733228509192 0.003611919435467436 -6.462492579593609e-22)
(0.9906526565104031 0.01447198733277864 0)
(1.279893479138195 0.1219961358930717 2.550384903851132e-19)
(1.012238431972835 -0.02789143254793258 -7.397626882931464e-21)
(1.044020159598673 0.01657991039231187 1.459212683227449e-21)
(1.058613788852756 -0.01213619630601105 0)
(1.126532635174165 -0.009149492318516389 -5.130637484985124e-20)
(1.271381588888621 0.1276673182340781 -2.252330828800015e-19)
(1.08911175923387 -0.01090744473738079 -8.622473826312985e-20)
(1.070947800812086 0.02626087665783696 -1.070324881500661e-19)
(1.04101809270474 0.04679584004259759 7.418174847739368e-20)
(1.02257709764049 -0.003651959383926986 -3.479355216882022e-20)
(1.060960755707154 0.02367658820690502 5.706357446612263e-21)
(1.138342584283514 0.004212040037622109 1.034016262206757e-20)
(1.039301246260312 -0.01404855541286999 -4.770429392562255e-22)
(1.087394542241265 0.03473366420916168 0)
(1.028341795102452 0.01371057554403289 0)
(0.781282161522738 -0.07930403467196255 -1.818541766988389e-19)
(1.030292652841208 -0.001837120373735311 -6.547268878661074e-20)
(1.132122786787628 -0.0009282997132919505 -1.246542848247829e-20)
(0.7034579817335914 0.006556264326967026 7.123054120969409e-20)
(1.17529079998199 0.01903826578357293 -1.971617658388071e-19)
(1.136792774357339 0.004200174045294108 5.190105746494881e-21)
(1.12901587941415 -0.01005447855284108 3.367885278738128e-20)
(1.000933368721176 -0.002965188355061602 -6.736130330590461e-20)
(1.101491604304663 -0.0578229593139751 0)
(0.9898555616562073 0.004870588829828259 0)
(1.057832362542 0.007022415312247531 0)
(1.005955772604312 0.1890831921754097 -2.367424544115694e-19)
(0.7792588131114971 0.01243721360112967 0)
(0.8570361360393954 0.1024001006208491 -8.217353128445689e-20)
(0.09416980912149882 0.03236792864431168 -2.971787893090793e-19)
(1.171818177294884 -0.03169034514462853 -2.291752042976172e-20)
(0.6712609548841342 -0.007338409317544807 2.453743904210474e-20)
(1.164122351216198 -0.1011755432955775 6.931588863610836e-20)
(1.126446141108038 0.0003784227427157918 -5.822631983760371e-21)
(1.153612358912534 -0.04966869273633349 2.227006189488803e-20)
(0.08102975614821095 -0.205226535159989 0)
(0.240782930615672 0.06382336687140691 0)
(1.261456663676956 0.104892459283228 1.856866032937282e-19)
(1.021166721966309 0.01983549379467105 0)
(0.7377151407656251 -0.006253613285846656 0)
(1.074986169647621 -0.01142603574486707 2.742444424040977e-20)
(0.9748713824941742 0.002879457448344118 0)
(1.296818875947044 0.1193951843729545 -1.480076306825107e-19)
(1.057356241072849 0.01095582544986091 0)
(0.9929174186862366 -0.007146366352924136 0)
(1.065171104899726 0.008270212862502553 0)
(1.006242072294842 0.02090617503289046 2.184200519138299e-20)
(0.9343557442187471 0.01005134600414259 1.276902526353917e-20)
(1.176033825574571 -0.1995858428637163 0)
(1.005077344309581 -0.005196773484334354 8.050747937534649e-20)
(1.059191097325232 0.006310129652325024 0)
(0.7745892408197778 -0.003304072022916125 0)
(1.21796210348536 0.02622100761263536 1.619784277896742e-20)
(0.7050219183268152 0.001368751450317201 0)
(1.433138120632878 0.08387558928985547 -5.107136233393384e-20)
(0.9948803406693824 -0.005297976891639155 1.675880386315361e-20)
(1.274106159849048 -0.003929345929445393 -3.005458863510272e-19)
(1.059711121122758 0.009030184150349115 1.327910157199662e-19)
(1.000908088588335 -0.01353345750173999 0)
(1.209403989130242 -0.144703182289349 2.053377590753719e-19)
(0.7331739791443904 0.01378484542600364 0)
(1.098324617745101 -0.004915342066492039 0)
(1.156384662966178 0.06693547015967785 1.889550722379796e-20)
(1.006417927072322 -0.0064800413567784 -3.04791160727513e-20)
(1.122950025064214 0.05170976639551034 -1.718814931055479e-19)
(0.1297650355112784 -0.09405845070035507 0)
(1.073468720936779 0.03892129460476757 0)
(0.661694188238492 -0.002875362814282877 -4.972003509410164e-22)
(1.012107221775006 -0.01957587256430454 9.046681209675993e-20)
(1.061461973759372 0.0008758669799832578 0)
(1.079448615690673 -0.1383133995353995 3.768745474544072e-19)
(1.002683804399833 -0.006133401199481572 -3.291844156187037e-21)
(1.003180182441851 -0.004126043560888492 1.020581452857412e-21)
(1.094001063549472 -0.009202182401684326 0)
(1.020757306144932 0.02031222950298312 -6.647289560751111e-20)
(1.106657440398165 -0.001594425925448019 6.340248448391583e-22)
(1.07449029530592 -0.01080321425132331 6.652413460880851e-20)
(1.085638857072956 0.0221695579429744 0)
(1.326005912966902 0.1556061609211185 0)
(1.002077079027326 0.0005224979129472868 4.407627753871588e-20)
(1.319190075437963 -0.1329791673417644 1.604428784503249e-19)
(0.008927804371197869 -0.1586622277901168 -2.311219750204083e-19)
(1.071105799075127 -0.005355810955341283 0)
(1.111268116588446 -0.00508530453646206 1.164394923446003e-20)
(0.726750099578382 0.01779665718906719 0)
(1.058195557642382 0.01112221613031907 0)
(0.861525913083696 0.1613543247638002 4.592706575523987e-19)
(1.284534130135117 0.1243187861654818 1.896436115124979e-19)
(0.6542196861317909 -0.00310296898713274 -6.532845115517459e-20)
(1.039657569261542 0.005487098391080966 -4.059409855123382e-21)
(1.054812640088373 -0.0002065095845726189 6.44528643992617e-20)
(1.362437186595104 0.1166525207729959 6.559626282659455e-19)
(1.336597289328756 0.2519475848159538 0)
(1.058064440791203 0.009471356239499054 0)
(0.9991041998877818 -0.0041243181290208 1.379856418525e-20)
(0.9931986224017201 -0.002113387955808156 2.762951839513493e-21)
(1.384521706757001 0.1992432028829418 4.324521365945584e-19)
(0.6818592705166716 0.0004982089859343513 9.968526033539871e-20)
(1.005701245792515 -0.002197321965581982 -6.022718536386895e-20)
(1.098166422351046 0.01315187544640206 2.561781466375595e-20)
(0.669451985990031 0.004951170116333891 0)
(1.066085382228027 -0.01202613691507541 0)
(1.012065109211834 0.1391986898021424 -1.424541504217258e-19)
(1.088763913098242 0.001358113685186307 -2.585513388742297e-20)
(0.9819238376448316 9.348249606329287e-05 3.311075376592328e-20)
(0.9912118204945166 0.006000647236385316 0)
(0.6381250939126289 -0.001095151054730736 0)
(0.9767102404288655 -0.001255193115219665 0)
(0.642033798114014 -0.001416763176291117 2.640993401186845e-21)
(1.087735790798813 -0.05549016564539565 1.21425723997978e-19)
(1.109840471324733 -0.00573338378900929 1.141267412804551e-21)
(0.9579802567285457 -0.0008540907236693935 3.878256341694847e-20)
(1.017222947535765 0.01035040886416404 1.740027307154942e-20)
(1.065743628330141 0.007351157824445689 -2.424898065244701e-21)
(0.6347818423824164 0.00886917131092534 -3.613930864891735e-20)
(1.005835550963928 0.01056564941317333 -6.337195509686952e-22)
(1.037850749159402 0.007947231756474946 5.346459335156501e-21)
(0.9856490772283149 -0.00498692911774263 0)
(0.609982759943586 -0.0004421692868404086 0)
(1.069004434083963 0.02250219452757171 0)
(1.016194524928102 -0.01687662797597227 1.031860558772124e-20)
(1.023060329984039 -0.006732124738898185 0)
(0.9931253488347336 0.01359405370587161 -9.835932367810657e-21)
(1.009170294141739 0.003613162423519274 0)
(1.134689004721775 0.002771612530694881 -1.211834845144544e-20)
(0.03142862447267668 -0.1413530767115068 -3.887404831556974e-20)
(1.034317731491496 -0.0180361410664175 -5.973190705148511e-22)
(1.042967453473647 0.007354912713188561 0)
(1.084257952546037 0.07048375681571679 8.43048293695054e-20)
(0.9673162509368418 -0.001355308730104865 3.109519629035923e-20)
(1.020071267184226 0.01676617388302581 -2.238151559230745e-20)
(1.005628116674782 -0.002587188809784886 2.400213630459824e-20)
(1.038910151967562 -0.007860606285058646 0)
(0.6409285014847976 -0.004087192510551093 0)
(1.025961775428114 0.02450557939089993 -7.940109784533786e-20)
(1.087463450301708 -0.001355356980885462 5.09568410664789e-20)
(1.012639655280741 0.007645703963759058 0)
(0.9806861189923151 -0.0004195966960857893 -1.936598109877744e-21)
(0.854746947171837 0.00903582089911106 -1.084609258559081e-20)
(1.013973781151857 0.002721652660689721 -9.507484913656576e-21)
(1.022363131504531 0.002388474667575376 1.868305636134309e-20)
(0.9826035466977479 0.001335452254575211 0)
(1.007606130525103 0.01104604605152367 3.217240053951276e-20)
(1.110816605585349 -0.00106710811834603 0)
(0.9342155133960863 0.01204941246798152 -3.176338648121488e-20)
(0.9533919324108815 -0.0005199826161908095 0)
(0.9012399127802699 0.2021175184779206 4.947784558601177e-20)
(1.011139596927781 0.06743464110153136 0)
(0.9908590314667761 0.00488080249660223 -2.283333994755372e-20)
(1.058006294944451 -0.04920357881079675 -2.796011210731713e-20)
(0.994006556206757 0.0001668965477671815 3.245684936388715e-20)
(1.006829609473793 0.006155667431042526 0)
(0.9802441605603658 0.0006789449308474468 -3.007054830281283e-20)
(1.178391859796332 0.1014175453990313 -3.386904285315825e-19)
(1.068486306107454 -0.2641594382508128 0)
(0.9943317456131117 0.0004730841545142795 -2.267664261501547e-20)
(0.9737851012384067 0.003095733694130369 4.76298789199728e-21)
(0.959989897897701 -0.001497408019974076 1.019606366862896e-21)
(0.745994069465191 -0.001061759398027017 0)
(1.119952820110305 -0.06954959479388602 0)
(1.003739137386518 -0.0001818544774753805 -2.253404199148479e-20)
(0.9086698870265004 0.008736911429361725 -1.071134710545259e-20)
(0.8407456477791764 -0.00128107151198165 3.567223891459461e-21)
(1.012410038509237 -0.007085242499762612 0)
(0.9622236378938421 0.01387373518520302 1.488940150920585e-20)
(1.005625975076319 -0.0001965233854005214 -2.241733436560168e-20)
(1.026413749441955 -0.002228709638445698 -2.481653344565012e-20)
(1.114206954043813 -0.003727163415130476 -4.908971510702721e-21)
(1.116488281171048 -0.00467629572847984 0)
(1.009870175934684 0.0002567097745978106 0)
(1.022696658434074 -0.002929647990254442 0)
(0.9447834747264966 0.006257158178271537 -1.979978235860455e-20)
(1.017863285185746 0.01337407700565074 5.622491784372686e-20)
(1.088145924816488 -0.003941993769169549 -2.359972094559639e-20)
(1.038743926863834 -0.003663743284039153 0)
(1.109044241547118 -0.002449595940282198 1.835430313739577e-21)
(0.9942670793108526 0.00110067840862158 -2.245494710764508e-20)
(0.9802544896890167 -0.0007880046923473527 0)
(1.009931933228949 0.002477176420287403 4.692368456418596e-20)
(1.363331348835375 -0.3140268775942162 -1.120066489393412e-18)
(1.120707594702125 -0.04442637403566715 -1.110406230449304e-19)
(0.9716852466606803 0.01086764255270165 4.457841881704825e-20)
(0.7668692171830066 0.008311890799817111 -3.563342159467392e-20)
(1.223866446338105 0.04958580953043438 0)
(1.216259566857053 -0.128596935771143 -1.481831880735814e-19)
(1.085450782908768 -0.004718083086979305 0)
(1.008669319171668 0.0004339564646934153 2.292322004915889e-20)
(-0.2006008175018681 -0.1101873473514881 0)
(0.9939691402644524 -0.004669847116219749 0)
(1.012332600275505 -0.0230373038043975 3.917565576539325e-20)
(0.7064045815131577 -0.01943256410868516 0)
(1.096790693580318 -0.01490165396109111 2.329894577414186e-21)
(1.039146329569172 0.002780674125733132 1.538304168836243e-20)
(0.6332251792206064 0.004138624340477119 0)
(1.446408966997797 -0.124164843433439 0)
(0.9857751926306226 0.001988424143344041 -1.066577995013914e-20)
(1.06967041095328 -0.01508299694069546 0)
(1.037817377055287 0.0005195665714544438 2.044423477728501e-20)
(1.084008936549076 -0.001026364852542698 0)
(1.012146137956375 -0.005835718808558966 -1.204014925971643e-21)
(1.00598908698914 0.003304306166491403 0)
(1.007956699563453 0.003659384600399696 -1.262132649068302e-21)
(1.004373218494872 -0.02031495615377491 0)
(1.036251530910079 -0.007885068441477622 1.79293091831129e-20)
(-0.1929673229558537 0.04062591984840845 2.809833979218112e-19)
(0.804031046681696 0.02855155530399598 5.932773815091757e-20)
(1.005079695816753 0.00211468704141498 0)
(1.121970833551213 0.01064922680679932 -1.203211084565501e-20)
(1.110393660020369 0.003902721944550369 9.260714088172529e-21)
(1.054246193993024 -0.01275368397958385 -1.327825303992123e-19)
(0.9987721745953682 0.01040080573706947 -2.921135143068199e-22)
(1.083748557567383 -0.005770420305972399 0)
(1.188960487512374 0.05067317123515165 0)
(0.8350751244879833 -0.0747726784916595 4.606959116585186e-19)
(1.089358023241863 -0.003705938347125289 0)
(1.033851385831504 0.007844996429980634 -7.706068025227598e-21)
(1.042544099264511 0.005357894522620581 5.643372239487526e-21)
(1.053517137069219 -0.05835162237028785 -7.597547977188568e-21)
(1.139374549784003 -0.002027300690250103 1.722228028712497e-19)
(1.081577401657055 0.002238024425426102 0)
(0.9942939981653622 0.001946668535117253 0)
(0.9980497415240384 -0.02639730484237108 -2.437612820243245e-21)
(0.990606546410143 0.003617144815682859 0)
(1.030648951556172 -0.03660456067407707 6.516738326755492e-20)
(1.29132702590646 -0.09808025017052936 0)
(1.040683887203727 0.001654454784770938 -4.251057129343156e-21)
(0.9861870590311211 0.01689784018047014 -9.068972653481076e-20)
(1.033566685535204 0.04314831642048358 -2.321802644720219e-21)
(-0.07551989471653202 0.1877429042760948 -1.738858252616011e-19)
(-0.07001388059001343 -0.2866103218209445 -1.295786560864525e-19)
(0.8811932998347486 0.1183133556634968 0)
(0.2771127387794536 -0.02812758726895801 -3.02098953523059e-19)
(1.007916210778383 -0.005195623211827565 -9.535424743859601e-21)
(1.063951030324969 0.002717290760727702 -2.063262176850842e-20)
(0.9921018597078332 -0.02172848734829355 3.102132032211556e-20)
(1.026772328438708 -0.03031897914831157 2.691337829882486e-21)
(1.009899854097223 -0.03056779125513303 -6.710131449040914e-20)
(0.9888320319799433 0.004882221403834149 -3.491936567672954e-20)
(0.9936634353998647 0.005023825149004192 0)
(1.02446968620464 -0.002212394744664864 -3.474133524248126e-21)
(1.931470517365704 -0.1564936645689427 1.066064025307908e-18)
(1.047219099089191 -0.009986445902407475 0)
(0.9966706265667306 0.007955236178792298 1.488765177323873e-20)
(1.003635285737471 -0.0005484851816684312 3.991379473229218e-20)
(1.169213190052687 0.1594193673057695 0)
(1.005978937406 -0.01906405895173935 5.136252356055271e-21)
(0.9532214561406664 0.003776562379966527 0)
(1.037844597972301 0.04172591922375361 0)
(1.301156118325448 0.1497304626501933 2.221459649829987e-19)
(1.076589148217889 -0.0004359102688973696 2.334980076175182e-20)
(1.016002119018716 0.03060023140738774 4.457730141747824e-20)
(1.078999428370314 0.004239026459463511 -2.248088583458139e-20)
(1.057299513115351 -0.02306861844480728 -5.474728684339647e-21)
(-0.3896625959304502 -0.04504609046012423 0)
(0.9995902224204184 0.01255505007838825 0)
(0.1240213530033109 0.05352912367334662 -9.481506517231563e-20)
(1.005982766974281 0.02032540375584589 -3.991439160267831e-20)
(1.007073669384824 -0.02674966267619916 0)
(1.001096454470243 0.00530644467744471 -4.868607063539629e-21)
(1.082034139594753 -0.04237673646739415 0)
(0.9940174041034344 -0.01876774460609931 -8.142539978099462e-21)
(1.100378974353572 -0.0509929778502496 0)
(1.442991616844455 0.1693919651823924 0)
(1.054843543144645 -0.01193438520965778 0)
(0.9915330021714148 -0.02489745453249506 -4.16958940930258e-20)
(0.9930497498689824 -0.02468804766131627 -3.470850103845052e-21)
(1.016610712150959 -0.02184762362300529 -2.171474779575164e-20)
(0.9966217947896474 0.01693141215501104 -5.392294640888338e-20)
(0.996115556314331 0.009573793822762623 -1.450907918062427e-20)
(0.9954635373669908 -0.02766464200378059 0)
(1.001625034062586 0.02413451239382227 1.874147968613636e-20)
(1.044339609595028 -0.02414413426894766 0)
(1.110907681983086 -0.03638054732316603 2.526442267400418e-19)
(0.9953179609564066 0.01655607335041545 4.460523305263398e-20)
(0.6150390762807977 -0.008695258372982118 0)
(1.155142449103318 0.161593977566071 7.948765278073239e-22)
(0.8263280953551255 -0.07940958759251268 0)
(1.13859397443863 0.07257318657310786 -2.797405471375969e-19)
(1.314621969681854 -0.3886678388742105 1.277979573271147e-19)
(1.070815814490977 0.06694971466592005 -1.25219175415732e-20)
(1.01178978151733 -0.03054646498859436 0)
(0.9552744243169632 -0.2148711827137998 0)
(0.5495040160129824 0.1781605040695417 0)
(1.015329892128709 0.01315309481649526 1.074335158034837e-21)
(0.7094501232105433 -0.0154039311202742 0)
(0.9988422263629455 0.01622746104614958 3.436730182217589e-20)
(1.02660918867993 -0.001007777164919451 -2.67341494018073e-20)
(1.079017663318913 -0.008020139032218919 2.632290778337489e-21)
(1.054750381356125 -0.02595889001189098 2.537241051587633e-20)
(1.042896070158396 0.01148007593419966 0)
(1.056715685203115 0.0206620631360829 -8.758794353080548e-21)
(1.050703184151211 0.03625253209430723 -1.766045614467096e-20)
(0.9838802250840739 -0.02230419199741948 0)
(0.6248800838118521 0.005112876024469561 9.17043581534941e-20)
(0.8941608908514983 -0.005950323010409194 -8.845912600660054e-20)
(0.9093610220119156 0.005225364050411904 1.451166902093385e-20)
(0.6296480058951698 -0.006440773414609902 1.410895013973724e-20)
(0.9809285897889193 -8.59087285986659e-05 2.46787744747642e-20)
(1.00440844688494 -0.01754293277888017 -3.30789824736965e-20)
(0.9815635263754806 -0.02870352473119016 -2.737712743978558e-20)
(1.085641915970132 0.001580631424985992 0)
(1.019203493588075 0.005331933376126314 1.049865272855687e-20)
(1.132784349576532 0.04825713979306597 1.349172286151723e-19)
(1.031471967076194 0.04252522545091382 0)
(1.022572352692244 0.002608591264520776 0)
(1.582149610806718 -0.1681931794854569 4.358911149088649e-19)
(1.054795383250225 -0.03720234901134853 0)
(1.02107781206291 0.01061557563383734 -3.605152638603181e-20)
(1.082853589885044 0.004470931893816952 0)
(0.4930826541625793 0.003604830141207143 0)
(-0.00509352815143409 0.00814939981073191 0)
(0.9911109601981617 -0.02355823255040486 1.2535719120321e-20)
(1.300656508991345 -0.09680050067455646 3.666124698202958e-19)
(1.030863001631724 0.03667368317886889 0)
(1.02254406700664 0.003569064571970864 -2.177813845686313e-20)
(0.9307435102387245 -0.161215619877649 -6.277520613519754e-21)
(1.256239848888615 0.07383849245991737 0)
(0.5981161327487148 0.7304450535497591 0)
(1.307108173737601 0.1407627819984579 1.037733934970231e-19)
(1.674820724781639 -0.02665859778887707 0)
(1.063819720800926 0.1331404252909194 0)
(0.7265361727110516 -0.003703127412019692 4.069287189768732e-21)
(1.046313539266636 0.04709607552431849 0)
(0.7487727454828754 0.1146160568939176 1.387883463539585e-19)
(0.9968143176847765 -0.01629689035789133 3.585266067760345e-19)
(1.038843288086173 -0.03920567933515598 2.702901260320836e-20)
(-0.3741132101024712 -0.05489148404380378 0)
(1.072161857153823 -0.01618825347317391 0)
(1.085174123489526 -0.0115489681672934 0)
(0.6480827516025024 -0.5027923870546378 -2.492810934803622e-19)
(0.9902561990555769 -0.0001138649035351733 0)
(1.092227791737346 -0.0219824739636277 6.789202974845905e-22)
(1.188344498574405 0.1207103030173755 -2.046418117359712e-19)
(1.099591898147191 -0.04375489986520638 0)
(1.005767097292496 -0.02073497764388763 0)
(0.7766245202915887 -0.1909158146378112 -1.642596099378779e-19)
(0.8872271022446285 -0.1414968691752674 1.455962311076409e-19)
(1.033995248151342 0.01265362606856419 -2.050733318035622e-20)
(1.023131985650312 -0.00908543926015784 -4.284808766043342e-20)
(0.8725027396553167 0.0009204555533958216 1.181840683477038e-22)
(1.503717782221904 -0.1948167268109901 0)
(1.307636901269703 0.1098767842871971 2.995202237296639e-20)
(1.241009690399503 -0.07787217132756394 -3.267130871543696e-21)
(1.095817621162759 -0.01875706162670447 -4.016159389066782e-20)
(1.037270348220594 -0.01817221620846109 3.086167457885207e-20)
(1.092813787026966 -0.03912940481029599 9.55506875796634e-20)
(1.03234135646523 0.02052481603309247 0)
(1.051424611936017 -0.03462502797109393 0)
(1.115894896591065 -0.00899626353774375 0)
(1.100672323622343 -0.03850213504563588 0)
(0.9982736492563972 0.01080231059726997 0)
(1.153887064834536 0.07991985158639732 9.398394856185133e-20)
(1.342133566743099 -0.1599629024780567 0)
(1.04066614633213 -0.02701339073295039 -2.592202085373734e-22)
(1.048474560350131 0.05447873146592174 0)
(1.010098144061544 0.01415960729943121 -3.797229434083051e-20)
(1.033573282305455 -0.007677614343112189 9.374664851006401e-21)
(1.088967800238908 0.01339210737680593 -3.168153888051635e-20)
(1.084357123152455 -0.02866159986015266 0)
(1.072706402095586 4.651206787643603e-05 0)
(1.101230029979851 0.09246787148360153 -1.397448435884106e-18)
(0.9350976131795425 -0.1489438719194363 -7.106853472959934e-20)
(1.17832458159431 0.1158827968261356 1.144263070039974e-19)
(-0.4554599738724135 -0.03057831349703774 -2.917630926603893e-19)
(1.018290619789525 0.02965912125800833 -8.555341684352321e-20)
(1.007173755460046 1.044521758228399e-05 0)
(-0.2422392731690189 -0.003489580788655155 3.578694870384412e-19)
(-0.03335558438492477 0.3162616832957289 7.646270974022343e-21)
(0.9952078444379343 -0.006294364287060514 8.953800513876022e-20)
(0.1829572891361319 -0.04474617882194989 1.282750529499217e-19)
(1.088033489650892 0.0913492012154712 1.424970994741353e-20)
(0.09340100100618454 -0.108983148297921 -5.397118481290666e-20)
(1.108322189226574 0.003097000467483128 0)
(1.094326683441912 0.2490543901301844 0)
(1.021070431705418 0.0216532059508117 -1.675488167270931e-20)
(1.06224010031997 0.05708216789418585 0)
(1.024736581445006 0.02378790946383105 -8.289096525464889e-21)
(1.261573258851595 -0.5483127788515864 7.993244070628417e-19)
(-0.09984263114660613 -0.2393676629213368 2.076349261627551e-19)
(1.299845180096586 0.110874657817945 -6.1197318483371e-19)
(1.123775986845662 -9.017494042593547e-05 0)
(1.127861643603506 0.1080689871425123 0)
(0.5200574326570593 0.07593135618200539 2.401132548592313e-19)
(1.02323233464104 -0.02040396710561738 9.600017067566119e-20)
(1.005988273602334 -0.02312964064717762 0)
(1.212200923557842 0.2708398321420488 -9.797778981555928e-20)
(1.255172487389463 0.1255060541858435 -1.49325956532947e-19)
(1.026496410268313 0.003023086900386302 1.592924464695641e-20)
(1.29648555369329 -0.08517622294037895 -4.948925634303808e-19)
(0.3094020497828616 -0.02397286674265391 2.9212110728848e-19)
(0.8346395201374228 -0.1504707276224184 6.930974993691927e-19)
(1.045427925720245 0.06271157868719743 1.102100703947383e-19)
(1.038772391921343 0.001759198251908506 1.429389709785137e-21)