/*--------------------------------*- C++ -*----------------------------------*\
| =========                 |                                                 |
| \\      /  F ield         | OpenFOAM: The Open Source CFD Toolbox           |
|  \\    /   O peration     | Version:  2412                                  |
|   \\  /    A nd           | Website:  www.openfoam.com                      |
|    \\/     M anipulation  |                                                 |
\*---------------------------------------------------------------------------*/
FoamFile
{
    version     2.0;
    format      ascii;
    arch        "LSB;label=32;scalar=64";
    class       volVectorField;
    location    "651.5";
    object      U;
}
// * * * * * * * * * * * * * * * * * * * * * * * * * * * * * * * * * * * * * //

dimensions      [0 1 -1 0 0 0 0];

internalField   nonuniform List<vector> 
808
(
(0.7562675959333344 -0.01752262289690069 0)
(1.03126649040335 -0.01249344837155259 0)
(1.115736105166136 0.0003250074268768816 -1.781693866914535e-20)
(1.085130039552842 0.01257375352444169 0)
(1.360719719839157 0.01438323108289581 -3.853942335577281e-19)
(1.038655296167526 -0.009394269532345989 -7.220401355693265e-20)
(1.014060484793191 -0.02026766674847822 -2.370283823367591e-20)
(1.07870878289157 -0.00470735025993332 8.946964422599799e-21)
(1.252121007758713 -0.0208386687409027 6.300722376199129e-20)
(1.084696924529711 0.008872356067243186 0)
(1.01093162541103 -0.01242236691932365 0)
(1.303421491000168 -0.05341868051457993 -3.498462798095773e-19)
(1.086141272317857 -0.001588573299397316 2.033312685644189e-20)
(0.675063733453067 0.006403867126634368 0)
(1.281085815094675 -0.122609340113045 0)
(1.081879784221863 -4.006307180478155e-05 -3.825070135211086e-20)
(1.230523735392188 -0.1534861855312819 -9.932755835248857e-20)
(1.074401446879506 -0.0002321564457232703 3.169305682039555e-20)
(0.9906846069793902 0.006591640910249229 0)
(1.026946274088003 0.009145410760637176 0)
(1.039392523723967 -0.0155791010719403 0)
(0.987542858414246 0.04522632587613751 0)
(1.051043241563734 -0.006217965888907892 5.682938164421077e-20)
(1.053618239908592 0.008228939660258261 0)
(0.933727419026683 0.1997182206624582 4.57992886741305e-19)
(1.16272790836885 -0.09104668496621703 0)
(1.184274674014262 -0.01944129916362847 1.557941437027423e-19)
(1.077201470658573 0.009539108966604468 5.219971223646013e-20)
(1.084144427138208 0.00182802483476447 5.086312612007876e-21)
(1.072017065288294 0.03098629427665158 0)
(1.075544282047634 0.002514402951570735 -1.178740003552553e-20)
(1.033398414105958 0.006239195204134751 -1.907221151896546e-19)
(1.059930333486669 0.01468459833830962 -2.384947002666133e-20)
(1.088857380422395 0.005266310219893617 -2.930591765948852e-20)
(1.120380793571004 0.03646070251183847 0)
(0.7549443550003061 -0.1202429913260848 -4.546843687016307e-19)
(0.9544060422525895 -0.005735473488314772 0)
(1.068950326328687 0.02244690454672479 0)
(1.068836803994617 0.007246571604530398 0)
(1.073678473050502 0.00868165535277067 -2.824080557024614e-20)
(1.092641038408631 0.02259787178816453 1.090550668415468e-19)
(1.149596693479898 0.002289846608503498 2.138334922304324e-19)
(1.095561052515586 -0.002462436198139672 0)
(1.015618857299979 -0.009338031773159963 0)
(1.12777469991665 -0.097687912269616 -1.659939843097607e-19)
(1.044061040638037 -0.01179744080749262 -8.182581918953801e-20)
(1.058413708104945 0.02669175831690806 -2.775235155086446e-20)
(1.229204113188242 -0.1118296621324309 -5.597240117125252e-20)
(1.067683162400697 0.01221961162351167 -4.153969058858004e-20)
(1.255356582611565 0.01597769987563418 0)
(0.9971843333328603 -0.01817723103018761 2.11471700538958e-21)
(1.044588586815998 -0.002546816408609077 0)
(1.087306487047388 -0.002370648299287739 0)
(0.9975720606302443 0.007573244139324573 -1.910942414204642e-20)
(1.252740995785814 0.0331345737599503 -2.361514015384228e-19)
(1.063750839600626 0.01840103827722077 5.99244983842098e-20)
(0.9882425210244505 0.00980947522888167 0)
(1.015646794813436 -0.01060754100515747 2.504950408637157e-20)
(1.10679930062868 -0.001515936403068563 -1.171260268725067e-19)
(1.061746350507333 0.03126943769650631 0)
(-0.06684176684694093 -0.02726026992342431 7.326891073450618e-20)
(1.153652366176614 -0.05201320743206809 -1.873552803669847e-19)
(1.0018216342582 -0.008106280924342612 -2.753052271668765e-20)
(1.184905272258667 0.06460932424901918 -1.206078486689233e-19)
(0.9975601091702863 -0.01069105380641166 3.034204885157312e-20)
(1.083812661560038 -0.005524375774626525 0)
(1.243797276591787 0.09270366118913818 0)
(0.6960254518024415 0.003175289172748454 -7.47329182899895e-20)
(0.9894667367050116 -0.01590461077831676 -3.160426568898753e-20)
(1.456931145071651 -0.018326872234104 4.438691761286589e-19)
(1.060678911318269 0.007559089391154489 -6.664091418177203e-20)
(1.364404461172358 0.09571405764359239 2.881032639763816e-19)
(1.054819547696514 0.006735847103576253 -1.867234620150655e-22)
(1.081064052738071 -0.01415760337417021 -4.16039079471746e-22)
(1.162782626161779 -0.2348838370575328 0)
(1.022683047378322 -0.01461655201329721 0)
(1.018001711483062 0.01776018504807628 -3.056982377849659e-20)
(1.389338330698905 0.3500362353109074 4.208382991163519e-19)
(1.097157182430845 -0.04204976950025268 9.418739555446109e-20)
(1.04668547486783 0.2111217538687506 2.452538326707031e-19)
(1.123389381611657 -0.0633715399151296 1.168280982065622e-19)
(0.9221389770856079 0.005194896644903101 0)
(0.9755073382164133 0.01859237864928469 0)
(1.004007599481463 -0.0485527692613496 2.99886563772038e-21)
(1.010846620745561 -0.01348668975676855 7.547694290700843e-21)
(1.03122084920236 0.02591738898533745 1.373229419117795e-20)
(1.525832700969737 0.03560381855489231 3.24276184513299e-19)
(1.291709878924125 0.07074631640928074 5.567881598190304e-19)
(1.072722030411933 0.002898200536715351 -8.989448540373531e-20)
(1.196875691937385 -0.09926465060007469 0)
(1.03395252679764 0.001479230129381059 1.311183040178986e-19)
(1.163550371828044 0.02050362155048976 -3.160938650751671e-19)
(1.001514173397088 0.03248229780693339 0)
(0.9996301343422893 0.001978386900682474 0)
(1.044180349535831 -0.0003739742661824386 7.86183158862297e-20)
(1.212551313180155 0.1014380047142454 3.994731820010739e-19)
(1.011128592340922 0.006941213509472917 0)
(1.087766210952175 -0.07105778093946935 -1.06393880639663e-19)
(1.149700070962439 0.03520409990910485 0)
(1.210775893950084 0.08973929215717356 -1.883649784201161e-19)
(1.108163525415478 -0.02865154107818864 -7.702430151170797e-20)
(1.02802516928524 0.01164635100587617 0)
(1.085486138420749 -0.004661673582084231 0)
(1.020262187362021 0.02581976694223652 7.968677374149181e-20)
(1.075409455890683 0.05409901860284653 -9.177478980929967e-21)
(1.103630631039088 -0.004389483170176921 6.337645365290391e-20)
(1.104497958357148 -0.09591870646405 1.544146897515156e-19)
(0.9597724383445507 -0.003585928797583479 0)
(1.066530309219057 0.03145486608047964 3.765184067742725e-20)
(1.167426270141128 -0.07625853663071437 2.289612548474064e-19)
(1.054057275613384 0.04541763479036155 -2.878010161826702e-20)
(1.022929466962851 0.06798123859694097 3.683037380105202e-20)
(1.090660362412567 0.02626125388642084 0)
(1.01250350837331 0.01483832219232045 0)
(1.028964514819842 0.009412752605516389 7.892041045738521e-20)
(0.9486284990029357 -0.03230241156342396 0)
(1.053358874576022 -0.005570842307555169 -7.615144864124528e-21)
(1.338884729957283 0.05782011303184534 -1.565247087495246e-19)
(1.079755241851606 -0.01334210991916683 2.600942629132808e-20)
(0.7442096834175645 -0.001788154316609828 0)
(0.5356065335264554 0.1561215092971082 -9.285716756174391e-20)
(0.7058183434417272 -0.002506767806480199 0)
(0.6991319224223869 0.01467694641716036 0)
(1.07783395868426 0.003459325280163972 -6.58464195685636e-22)
(0.9906372588154941 0.01444032492978278 0)
(1.281016372897975 0.1226314715459484 2.522108632926642e-19)
(1.012241760084863 -0.02796732097872265 -7.571825041353906e-21)
(1.03866684748988 0.01898822281337164 1.284265615845954e-21)
(1.058373419238128 -0.01233659776906474 0)
(1.126357300909217 -0.009260591739349186 -5.051589528428452e-20)
(1.257926225460311 0.1250503478541651 -2.159368607223262e-19)
(1.088785346611847 -0.01097644059985601 -8.498404237432003e-20)
(1.070748664711792 0.02502967711928331 -1.080956058775142e-19)
(1.041046975404371 0.04675963052543176 7.198207135762596e-20)
(1.022308474910708 -0.003538709753088046 -3.45151590212869e-20)
(1.061415590458965 0.0236588518587432 5.865515862282411e-21)
(1.136146766867115 -0.002290044995328575 1.066225506441343e-20)
(1.041161050951652 -0.01259896524234566 -4.670845588518963e-22)
(1.087752745731613 0.03483312589867273 0)
(1.028766928263472 0.01332742889324337 0)
(0.7899714879174043 -0.0719312231529942 -1.848141642018568e-19)
(1.03026341490053 -0.002133030787575636 -6.683327067121853e-20)
(1.137759561669728 0.001854512939847259 -1.307525209740763e-20)
(0.70355022828097 0.006547999507754646 7.267252959186537e-20)
(1.176213067820897 0.01908986647310058 -1.944910485865912e-19)
(1.127798038991551 -0.00429271624781717 5.807465293662582e-21)
(1.129049183679293 -0.01010662471995977 3.407187039635538e-20)
(1.000938058690131 -0.002986802659367684 -7.028516096815568e-20)
(1.094027798706509 -0.06083132312693875 0)
(0.9867213523456543 -0.0005622564011872349 0)
(1.057998515315422 0.007051611495648918 0)
(1.006146517993876 0.1896327476926964 -2.400818893952462e-19)
(0.7795361619309671 0.01242375604173705 0)
(0.8569980549927002 0.10336344721081 -8.288381430023512e-20)
(0.1025467509966587 0.03688816920547279 -3.051848304002827e-19)
(1.173201908035247 -0.03221159918424359 -2.261290994169584e-20)
(0.6712520353126551 -0.007367842502568312 2.442304859194048e-20)
(1.16386940800794 -0.1063412221636662 7.008812468486969e-20)
(1.128759277621847 -0.001253935789922624 -6.145357272724941e-21)
(1.154955404967776 -0.05087467798041974 2.197424175537455e-20)
(0.07794938871950668 -0.1903156575921587 0)
(0.2667301170259774 0.07144956323828541 0)
(1.253692232990881 0.106285590391773 1.868003813825345e-19)
(1.021601718648373 0.01988266419192764 0)
(0.7375537290167771 -0.006326566215205794 0)
(1.074877538396269 -0.01176026410762422 2.703775320898636e-20)
(0.9752544941370058 0.002849608934812679 0)
(1.286894847112591 0.121962739571934 -1.457521935053691e-19)
(1.057405150461846 0.01114044052875212 0)
(0.99245470017461 -0.008233514870501245 0)
(1.065323649803346 0.008023393853024413 0)
(1.006237313623317 0.0208849136294012 2.01923964264872e-20)
(0.9226002126544141 0.003607074701703826 1.228256107262333e-20)
(1.175220385073927 -0.1988456141011674 0)
(1.004991219566537 -0.005231679557827451 7.876417973974372e-20)
(1.059230890668831 0.006149818801958684 0)
(0.7745503094716529 -0.003353862678600984 0)
(1.215554628273736 0.02651749792032573 1.635601179829151e-20)
(0.7051319616045429 0.001332376867065872 0)
(1.431650975011266 0.08688991637551374 -5.203413573307565e-20)
(0.993511747455995 -0.006021007908795152 1.659498015131128e-20)
(1.275940870622505 -0.003487185073981985 -2.970756376125333e-19)
(1.060056596096835 0.008796994862871759 1.352668113386948e-19)
(1.000897087293485 -0.0135832929394999 0)
(1.21474530726318 -0.1550214446201362 2.03398319476105e-19)
(0.7331698004178205 0.013790450396916 0)
(1.097970864254356 -0.005072487274989959 0)
(1.154007616660911 0.06414352616016024 1.94385508481523e-20)
(1.006472461184911 -0.007257628187807719 -3.027091285275712e-20)
(1.121688771050401 0.04942009537451929 -1.724133579994754e-19)
(0.1564183790714976 -0.08820318519309832 0)
(1.073707491274867 0.03697613035924274 0)
(0.6614994402792681 -0.002890215176303847 -5.874609206943615e-22)
(1.012067675097358 -0.01971755154497054 9.279404279702325e-20)
(1.061840292105368 0.0007306775503993202 0)
(1.08779660202353 -0.1373018772215797 3.789037370360697e-19)
(1.002479197537766 -0.00616635534858687 -3.390067566293931e-21)
(1.001956383475394 -0.004204377262261865 1.291437031577853e-21)
(1.094022470100517 -0.00920777275928459 0)
(1.020791399298136 0.02017724404878565 -6.486164414090839e-20)
(1.106823692980715 -0.001680862549775635 6.460067547873558e-22)
(1.073786124306013 -0.01073747656738411 6.552939815760119e-20)
(1.085694814242668 0.02231108372558293 0)
(1.32528151718579 0.1610807705401706 0)
(1.002073295981728 0.0004439184157603827 4.411673149674545e-20)
(1.323388835458858 -0.1313077880240218 1.575136752920926e-19)
(0.0215799378610813 -0.1408722211678144 -2.419500687587054e-19)
(1.071235767800142 -0.005522162780146248 0)
(1.115315604094747 0.0009740149372323667 1.214932114521894e-20)
(0.7269460333209682 0.0178607155739084 0)
(1.060265652297009 0.004229375825400409 0)
(0.8653108547623964 0.1642056229622611 4.6987368695734e-19)
(1.27629584876176 0.1183142764963788 1.818626793727968e-19)
(0.6541234592306683 -0.003116823598117042 -6.380476469735465e-20)
(1.041844642426134 -0.002464591094376195 -2.902798610200188e-21)
(1.054961603901256 -0.0002509601110144209 6.541037549271131e-20)
(1.359121654787427 0.1210987263833289 6.662900633097192e-19)
(1.337775707190304 0.2528860638042308 0)
(1.057532798094855 0.006374426378018089 0)
(0.9952358784941805 -0.005995390644802694 1.429898415781359e-20)
(0.9947474208686871 -0.00773111485350265 1.689613353195912e-21)
(1.385781488213921 0.2001330004267667 4.297845490657276e-19)
(0.6817062240667029 0.0006464423230765319 9.869910854007474e-20)
(1.005678032209809 -0.002052903800191823 -5.977280220658635e-20)
(1.097976805758355 0.01308314290037835 2.54480192029706e-20)
(0.6694619965945842 0.004993968897871993 0)
(1.06608190465544 -0.01203222461766513 0)
(0.9891249717921462 0.1245565108366055 -1.272942549328195e-19)
(1.081838886375808 0.003732087271408488 -2.502909461836967e-20)
(0.9819418869357843 -1.352585400360186e-05 3.294075874995752e-20)
(0.9912107680406028 0.005997895802643143 0)
(0.6382234315214572 -0.001157626549965914 0)
(0.97686301572485 -0.001296781064688476 0)
(0.6419690193055145 -0.00146343556583098 2.713973895537735e-21)
(1.087493253430876 -0.05751268487035257 1.210614561117896e-19)
(1.110153181323107 -0.002818891749140638 1.215076195562284e-21)
(0.9580798538215913 -0.0009052883662388173 3.902972540258685e-20)
(1.01614881060343 0.01081218235716164 1.678023875826763e-20)
(1.063789918342903 0.009646506824356863 -2.156169319221756e-21)
(0.6348153289898643 0.008846441496792897 -3.636963613787493e-20)
(1.002380043721656 0.01270383849629585 -7.274654392841757e-22)
(1.036139595331293 0.01264808802553093 4.99691796550969e-21)
(0.9876438056639502 -0.005574511885959027 0)
(0.6100847463367246 -0.000466726906498227 0)
(1.068859933567971 0.02272613460709122 0)
(1.015773138704688 -0.01583281174263014 1.05543822012779e-20)
(1.021689498051576 -0.001832576927498296 0)
(0.9926002557172515 0.01502620073240035 -9.340970416961761e-21)
(1.011764096181038 0.006877208026272956 0)
(1.130386626815126 -0.004963812639522826 -1.266284402995285e-20)
(0.03287630232882324 -0.1375837388593718 -4.519124835506552e-20)
(1.035692523030698 -0.01565666393411316 -7.493566690720919e-22)
(1.045875447152466 0.009022049486451567 0)
(1.087684023194931 0.0661960452672577 8.384505476395819e-20)
(0.9695141588199895 -0.0008901050318714358 3.117887901947775e-20)
(1.020482965038044 0.01715936083395228 -2.299536537503118e-20)
(1.00618718032233 0.001275196580018339 2.435529321198917e-20)
(1.040508923597615 -0.005070820243436697 0)
(0.6409857643215655 -0.004033150093187641 0)
(1.025992386516274 0.02447948426937499 -7.6838113820329e-20)
(1.079970779444354 0.005695746243317514 4.926607910267475e-20)
(1.012707467745169 0.003296956023170536 0)
(0.9816265893810255 -0.001887899323165548 -1.907778650022348e-21)
(0.8687104902232817 0.02224108823458872 -1.464154286287531e-20)
(1.013951795260251 0.003061806019997645 -9.976480419415682e-21)
(1.0267334889099 -0.001103958310774004 1.776096372570736e-20)
(0.9780778839731796 -0.001253952990114205 0)
(1.005750725316502 0.008433983194476684 3.339282406838692e-20)
(1.106802788502034 -0.005223576624333722 0)
(0.9312463399041849 0.003788056917318471 -3.454999527375521e-20)
(0.9582188469072157 0.007644676227308311 0)
(0.907466787459512 0.2071630162001484 5.094393148578133e-20)
(1.011119597145566 0.06745759939471756 0)
(0.9913325836708211 0.00377033268012296 -2.3143821737767e-20)
(1.053079659098075 -0.05091365514454908 -2.738807413743458e-20)
(0.9922435716786472 -0.001445935457037912 3.374685053362062e-20)
(1.009398953750439 0.002042221317277622 0)
(0.9799901042416513 -0.0007539621926925096 -3.14506607733064e-20)
(1.174631523822217 0.09487279899764595 -3.303623806510755e-19)
(1.067833580357273 -0.2631771568016186 0)
(0.9947899223022952 0.001919948870645378 -2.204272898674973e-20)
(0.9812497885454542 0.009607768712425411 4.875581808054979e-21)
(0.9583236709829226 -0.0001673169146374031 1.066381345687311e-21)
(0.7460264724992844 -0.001099411281422779 0)
(1.112909541855982 -0.07451681939089438 0)
(1.008066666676083 0.0004976658100664753 -2.145358926180702e-20)
(0.8985841124181413 -0.002567651251707924 -1.068982936583626e-20)
(0.8484855742593223 0.01335837332974452 5.890767011108828e-21)
(1.010109460290463 0.004721738791642038 0)
(0.9542230525382696 0.00465595274232793 1.601894609524071e-20)
(1.005819846117295 -0.0002154139695951862 -2.275438556564446e-20)
(1.023621044250465 0.002406213512175778 -2.519828733359346e-20)
(1.111298371723518 -0.006037442897097206 -4.897933252712066e-21)
(1.114415791612429 -0.004105955196517427 0)
(1.011131660143438 0.003727874350895376 0)
(1.025336284865798 0.0003940541990397979 0)
(0.950676487351378 0.009983772742512475 -2.160043649372174e-20)
(1.01788550062461 0.0131671136520015 5.500447294940456e-20)
(1.081508879753784 0.007169508422657707 -2.274185671762194e-20)
(1.036823363506016 0.006659930559085866 0)
(1.107169686334782 -0.005961626227707365 1.808613738034639e-21)
(0.9960979927862847 0.001382543387097386 -2.214495988450129e-20)
(0.981437809800401 0.003371836623332146 0)
(1.011314446860999 0.001935918478837342 4.690860355444742e-20)
(1.362916588386466 -0.3135641770627294 -1.123690804726758e-18)
(1.121562673872778 -0.045899875517013 -1.100184510565256e-19)
(0.9752191728984423 0.01004038255130268 4.858551337109838e-20)
(0.7823334286856876 0.02505904183143893 -3.486939298571366e-20)
(1.220780062746936 0.04956176814304578 0)
(1.215423644586723 -0.137479417790645 -1.471709402509553e-19)
(1.082767399922306 0.003800214003834774 0)
(1.00958114455857 0.001379162380654246 2.228232599948608e-20)
(-0.1767284643223076 -0.06897217431328104 0)
(0.9939715279787131 -0.004671059058239059 0)
(1.012365132408601 -0.02309881368435164 4.12118144004134e-20)
(0.7061306276917527 -0.01941348606290871 0)
(1.096802824261962 -0.0150411061278527 2.30941231289781e-21)
(1.040744820819603 -0.0005154089276166608 1.460962648099291e-20)
(0.6331227630570186 0.004182907287641252 0)
(1.445288930708794 -0.1229622808076423 0)
(0.9865000181389832 0.002056729818013418 -1.078515152949146e-20)
(1.069624922474271 -0.01495524855244968 0)
(1.038087476610661 0.0005598914787743025 2.11666305716943e-20)
(1.087755168189636 -0.002480448908915669 0)
(1.009100936132024 -0.001622150099617488 -1.206577452710783e-21)
(1.0062416721958 0.003142719081077858 0)
(1.013194810804529 -0.008587048849299953 -6.877844476248252e-24)
(1.003274289789845 -0.02012096848924093 0)
(1.033816559692108 0.001464058986281049 1.850398896548551e-20)
(-0.2138840569971535 0.0526167737423946 2.738558330796458e-19)
(0.8225943933388126 0.04037454223869302 5.758399874563968e-20)
(1.005304117224188 0.002360872732346662 0)
(1.126044875990209 0.02332027354932627 -1.315469787508137e-20)
(1.112331868755223 0.01455088162036047 9.550651657422632e-21)
(1.053832542590839 -0.01305221941383031 -1.303805504081961e-19)
(0.998778227846342 0.0103831760071461 3.033455054631562e-22)
(1.083491442642186 0.0003586450635132702 0)
(1.186095152044492 0.04996906367576529 0)
(0.8351313688960607 -0.0738992317915781 4.603816452028817e-19)
(1.0992017040467 -0.01516991833100333 0)
(1.032626748862783 0.007955608930856402 -7.586197052484786e-21)
(1.042784700106037 0.005344621784316526 5.892535171214958e-21)
(1.050535367438055 -0.06047312219332593 -7.506435796948193e-21)
(1.140200174477091 -0.002370043509569352 1.698910162048738e-19)
(1.077034328363566 -0.001106013752254336 0)
(0.9951604655776616 0.001627910681605056 0)
(0.9975203498742148 -0.02400886153869494 -2.304173428435562e-21)
(0.9916337935698137 0.002852973989374074 0)
(1.028874044625675 -0.03744716042718104 6.438774150663377e-20)
(1.294520029534925 -0.09730610182695205 0)
(1.046482869411868 -0.01314254946955913 -1.035675648499264e-21)
(0.9861672956666565 0.01681156723351942 -8.829361319683412e-20)
(1.035550633261535 0.04197588306387687 -2.366259176021839e-21)
(-0.09235280387443889 0.1856626251117177 -1.675388128186994e-19)
(-0.06333381017122595 -0.2818423518143309 -1.377767921191383e-19)
(0.8568939055587629 0.1145794136901278 0)
(0.2832262256654153 -0.003918649942672476 -2.950162287485184e-19)
(1.013671252158425 -0.01919335082530762 -1.304818704488564e-20)
(1.064002698592197 0.002626763523440528 -2.090222075729246e-20)
(0.9934956483132248 -0.0202192959560463 2.924668093757319e-20)
(1.024915742169263 -0.02654736840395394 2.544582296837686e-21)
(1.008346875575998 -0.03079266911624327 -6.624462363903747e-20)
(0.9886896356815412 0.004906304348636559 -3.48248879243785e-20)
(0.9937311937654797 0.004271428383822324 0)
(1.024599553396358 -0.001795858097166504 -3.575743668762004e-21)
(1.931618234450578 -0.155566730952189 1.069502286540891e-18)
(1.053145725970712 -0.01869480206730155 0)
(0.9962011606213371 0.007200148611111704 1.510218071907209e-20)
(1.002987649519839 -0.0003031218059816698 4.05542772686281e-20)
(1.177399925768922 0.1398762168025151 0)
(1.006189674466186 -0.01686757139387301 -1.123256659970077e-21)
(0.9518426600742407 -0.001077841587116014 0)
(1.037849275567099 0.04172069431271426 0)
(1.292758002645299 0.1562351588127052 2.180721718923355e-19)
(1.080725773016184 -0.01019097799237966 2.280033478086545e-20)
(1.017762733096989 0.03231816905423421 4.61624430037567e-20)
(1.079856830718361 -0.005788856307928667 -2.198628109981212e-20)
(1.055522263993395 -0.01485414233209074 1.549725374230239e-21)
(-0.3845064241994419 -0.03492030175508861 0)
(0.9981569813876074 0.01334363530109616 0)
(0.120708573237279 0.05877525632526032 -8.832793747322933e-20)
(1.005692259152775 0.02252008694615911 -4.076263300866788e-20)
(0.9981813089270989 -0.007479017653007287 0)
(1.000248276124408 0.005714794488433328 -5.01004193755785e-21)
(1.081606172977942 -0.04209023808913702 0)
(0.9956735180811894 -0.01864567278518677 -7.849339172798618e-21)
(1.090430532562139 -0.0470572116365027 0)
(1.440437952286262 0.1744185174169456 0)
(1.054197754862727 -0.01168173370420325 0)
(0.9916458621574011 -0.02284854854375774 -3.932883497741739e-20)
(0.9804814629910553 -0.02665373058269295 -2.416628986586269e-21)
(1.020196609976041 -0.01850872648650289 -1.906070586149613e-20)
(0.997405600814095 0.01725807124215169 -5.518393414044184e-20)
(0.9952334812595239 0.009600137399677544 -1.471810545735832e-20)
(0.9941887824771123 -0.02623844338572045 0)
(1.002352582552132 0.02571748580808244 1.924911186174361e-20)
(1.03639516653994 -0.03149182705134427 0)
(1.110421366547298 -0.03623224059645538 2.564127814771766e-19)
(0.9951840823385236 0.01719146602699994 4.571652157476953e-20)
(0.6151079721453302 -0.008674912505261477 0)
(1.147488057350329 0.1371403899936883 -2.880546080941162e-21)
(0.835800748895113 -0.09915208723405786 0)
(1.139191320224707 0.07282115326364126 -2.750572950529958e-19)
(1.313473201148031 -0.3874255990567934 1.282000455153863e-19)
(1.076508036455395 0.06403944426105468 -1.329291329451898e-20)
(1.009867809391172 -0.0294970689304869 0)
(0.9548477250486729 -0.2139397533482973 0)
(0.5217173009805089 0.1554312434152711 0)
(1.012034412389547 0.01274185007845529 1.060162979701951e-21)
(0.7076285014727193 -0.01519493343932243 0)
(0.9980355798235513 0.01766066778617384 3.509278338288625e-20)
(1.021444618932578 -0.0008594526104321742 -2.692955436404282e-20)
(1.079179176161541 -0.008031509508317623 2.723313422021416e-21)
(1.043101392037877 -0.007965995869064274 3.037220176552643e-20)
(1.042835110016266 0.01083821134191193 0)
(1.054642176013567 0.02844572230877008 -9.982746792787312e-21)
(1.051543923999848 0.03462167113689581 -1.793301534657375e-20)
(0.9829609446205663 -0.02165500319894731 0)
(0.6249208959255441 0.005139548792043347 9.183024046946865e-20)
(0.8941767993610296 -0.005902533312934099 -8.858097336085168e-20)
(0.9093530705473279 0.005291516320552059 1.442995429839356e-20)
(0.6295990714810416 -0.006390758655481645 1.408243650076406e-20)
(0.9786816790790954 -8.730167048772979e-05 2.60589174397474e-20)
(1.004439931882803 -0.01762112730654403 -3.408040674175433e-20)
(0.9669188993046767 -0.01117975939044235 -3.268430700770229e-20)
(1.085543861432237 0.001446901592596412 0)
(1.018789200960236 0.004611506994838029 1.08471269605799e-20)
(1.13330683223953 0.04831359852354925 1.327979630415229e-19)
(1.034103931873687 0.0423321590856109 0)
(1.022130076739147 0.002621939488427451 0)
(1.580893992550901 -0.1670056453925513 4.377464667026646e-19)
(1.03942882042389 -0.02711298839045375 0)
(1.021684529609877 0.007305094799072245 -3.64893074294026e-20)
(1.088361589190962 -0.004211056023432447 0)
(0.4837810109183215 -0.02215400636504224 0)
(-0.04200608180665468 0.007492022957393331 0)
(0.9899888038862753 -0.02368627714045803 1.232183168643335e-20)
(1.299374583618441 -0.09576764957978434 3.70175851968868e-19)
(1.034009735493157 0.03950734565353991 0)
(1.022591320056988 0.003349201054383318 -2.218674901684859e-20)
(0.9465243831061443 -0.1656125180481991 -6.855720773226341e-22)
(1.252537888085987 0.0745472750728962 0)
(0.5991226850450846 0.732626151904449 0)
(1.306412229181913 0.1471005117560286 1.084426072200158e-19)
(1.673934801127886 -0.02536102274941068 0)
(1.070193206710374 0.1208740317737985 0)
(0.7278979240154025 -0.001169096475747179 2.828484470409606e-21)
(1.051431698917636 0.04907505662408523 0)
(0.7151014347968186 0.09853345818116133 1.24377490942884e-19)
(0.9968123945569921 -0.01632910950019398 3.581045525178684e-19)
(1.034062502543458 -0.03900136892709005 2.648669546692961e-20)
(-0.3712839138717681 -0.03019700136109498 0)
(1.071572276780995 -0.01619762401228856 0)
(1.095176257366488 -0.01634490695721773 0)
(0.6471815134289711 -0.5003041694630588 -2.502998081363932e-19)
(0.9923601074029466 -0.0003964278221341392 0)
(1.091737412370283 -0.02204198563893471 5.524990802307002e-22)
(1.18917366427908 0.1211796270054952 -2.024022539938667e-19)
(1.091591888322942 -0.03746354750116815 0)
(1.00493204009861 -0.02105371240613145 0)
(0.8118989851309868 -0.1938054325488484 -1.737635958634977e-19)
(0.9013528997457002 -0.1402180681666882 1.519449263911466e-19)
(1.029494545284886 0.01004654654416983 -2.154643842399728e-20)
(1.023124096653997 -0.009269363841648774 -4.401140512898432e-20)
(0.8676858248550949 0.001788769994490538 -3.721417030794435e-22)
(1.502572419252561 -0.1934323070655007 0)
(1.301360663277315 0.1149165398107842 3.162081088536023e-20)
(1.244321877816958 -0.07897455426249221 -3.034754614863704e-21)
(1.095907934339155 -0.01872843808959591 -3.898037063022049e-20)
(1.044083053491402 -0.01602046140115984 2.729244432514699e-20)
(1.092803827526955 -0.0391866480228033 9.343815611615347e-20)
(1.032667798815004 0.01967801482232901 0)
(1.046931126692991 -0.03176081478453781 0)
(1.11585797101463 -0.009046281232552363 0)
(1.092122132183247 -0.02572312441587414 0)
(0.9979420955622558 0.010826176820883 0)
(1.152134850049146 0.07504956693332107 9.360940379038135e-20)
(1.345272832023197 -0.1554728877886121 0)
(1.041929429758908 -0.02166690374758178 -2.03278462585299e-22)
(1.053347833366527 0.05385909420183328 0)
(1.009925839148808 0.01449120993348324 -3.892064899589963e-20)
(1.033579767089286 -0.008205210111896497 9.228210800993686e-21)
(1.088992230629614 0.01330863593767924 -3.205125850589019e-20)
(1.084495430538121 -0.02981782216218955 0)
(1.076786693897112 -0.005488614773546575 0)
(1.103419174324955 0.09359695412416313 -1.41151563832412e-18)
(0.9349586194241717 -0.1482423419334815 -7.09787075846682e-20)
(1.177313257707472 0.1055407171550802 1.105861238217905e-19)
(-0.4657856785205949 -0.003350188405255675 -2.923319790355831e-19)
(1.01956264605835 0.02925822221600651 -8.695287701110823e-20)
(1.005941761406144 -0.006140440104485575 0)
(-0.2780680736091672 0.0334968591729702 3.555187564285823e-19)
(-0.05273881756961746 0.3379999402242075 7.324182744497438e-21)
(0.9952238197878853 -0.006327802106608332 9.263564503145619e-20)
(0.1883340867493419 -0.03998594985364896 1.396952701088642e-19)
(1.097605592849797 0.08685018198974376 1.511194362519986e-20)
(0.09361670884423466 -0.1069036693390737 -5.393692225742102e-20)
(1.107872810534433 0.003146272436917957 0)
(1.097385917370656 0.2541635666227141 0)
(1.021659919173653 0.02201585756974828 -1.703610196877708e-20)
(1.071908648704422 0.06048237208416311 0)
(1.02460829123461 0.02684034195498772 -9.271547331942251e-21)
(1.260582378580312 -0.5475913895568119 8.002059363954235e-19)
(-0.0841687385735875 -0.206220117030157 2.139915915242927e-19)
(1.295305402150615 0.113874720142402 -6.20217624509983e-19)
(1.124551823023103 -0.0001511833833228494 0)
(1.135020399229445 0.09999128732097423 0)
(0.5241819062230714 0.08034342777964992 2.504693190798609e-19)
(1.022970393983452 -0.02110158432283983 9.452038269017007e-20)
(1.00529723526719 -0.02374006969025577 0)
(1.213086804153239 0.2716898208232811 -9.73065519223019e-20)
(1.251168386291402 0.1335823431776571 -1.547963356858235e-19)
(1.026541675332193 0.002674148034541318 1.563320251467698e-20)
(1.297128421970862 -0.08466751600118039 -4.980729092322091e-19)
(0.3029818832077305 -0.01893150905167996 2.703469592058641e-19)
(0.8321734561684968 -0.1483644708136801 6.789677874788639e-19)
(1.058972884999122 0.06937070574607784 1.068660305850741e-19)
(1.041213881356158 -0.007641216109009061 1.363603577741078e-21)
(1.001074165575873 0.02007469337017869 2.917572144445646e-20)