/*--------------------------------*- C++ -*----------------------------------*\
| =========                 |                                                 |
| \\      /  F ield         | OpenFOAM: The Open Source CFD Toolbox           |
|  \\    /   O peration     | Version:  2412                                  |
|   \\  /    A nd           | Website:  www.openfoam.com                      |
|    \\/     M anipulation  |                                                 |
\*---------------------------------------------------------------------------*/
FoamFile
{
    version     2.0;
    format      ascii;
    arch        "LSB;label=32;scalar=64";
    class       volScalarField;
    location    "149";
    object      yPlus;
}
// * * * * * * * * * * * * * * * * * * * * * * * * * * * * * * * * * * * * * //

dimensions      [0 0 0 0 0 0 0];

internalField   uniform 0;

boundaryField
{
    FrontBack
    {
        type            empty;
    }
    Top
    {
        type            calculated;
        value           nonuniform List<scalar> 
15
(
142.2851094079859
133.5874242792466
138.069663927682
144.4121097410122
159.7722384019581
131.3685938336579
140.1377218062936
135.3631251634544
153.4479862009867
135.7361367040728
136.0971876257037
136.7686744607838
125.2624832557301
132.9107243533995
123.9510994734523
)
;
    }
    In
    {
        type            calculated;
        value           uniform 0;
    }
    Bottom
    {
        type            calculated;
        value           nonuniform List<scalar> 
15
(
155.5659102842366
158.1176994191574
141.081875342094
142.0454100444661
141.1768251074743
148.425374600441
142.6976326850758
143.1514001287739
143.4227475062414
134.0549777973293
125.7258408294753
141.5520623924322
122.4066045186858
123.4884921053735
124.1308376395907
)
;
    }
    Out
    {
        type            calculated;
        value           uniform 0;
    }
    circle
    {
        type            calculated;
        value           nonuniform List<scalar> 
32
(
56.24575406208354
22.25793811153203
65.31982406677861
23.68183853688789
19.28992894364715
56.13953815879906
56.7572906951389
23.94824067386503
22.39210985191924
65.55172943432541
40.03820846669448
63.0290173380167
50.39461765970357
14.78832851098507
23.60817663279042
18.11842999856804
39.0282116287249
59.63784051498731
60.98136962890253
24.21710963713253
65.70720069879768
63.84100448675098
62.9674157816693
59.94974783738686
64.07919940001953
45.90730891695324
66.35833313725624
32.00227058986716
38.05741894687355
55.7861955112766
20.93353600235888
43.19247169335523
)
;
    }
}


// ************************************************************************* //
