/*--------------------------------*- C++ -*----------------------------------*\
| =========                 |                                                 |
| \\      /  F ield         | OpenFOAM: The Open Source CFD Toolbox           |
|  \\    /   O peration     | Version:  2412                                  |
|   \\  /    A nd           | Website:  www.openfoam.com                      |
|    \\/     M anipulation  |                                                 |
\*---------------------------------------------------------------------------*/
FoamFile
{
    version     2.0;
    format      ascii;
    arch        "LSB;label=32;scalar=64";
    class       volScalarField;
    location    "620.5";
    object      yPlus;
}
// * * * * * * * * * * * * * * * * * * * * * * * * * * * * * * * * * * * * * //

dimensions      [0 0 0 0 0 0 0];

internalField   uniform 0;

boundaryField
{
    FrontBack
    {
        type            empty;
    }
    Top
    {
        type            calculated;
        value           nonuniform List<scalar> 
15
(
142.2716547811366
133.5599567217997
138.0677180685298
144.3945876178532
159.7668766002448
131.3679621458171
140.1163003866922
135.3511790958385
153.4327143482543
135.7441318551257
136.0887980238515
136.7758141556107
125.2394448167526
132.9010420649398
123.9475734239271
)
;
    }
    In
    {
        type            calculated;
        value           uniform 0;
    }
    Bottom
    {
        type            calculated;
        value           nonuniform List<scalar> 
15
(
155.565788019372
158.1115409162489
141.0984801724798
142.0767789824065
141.1864335155782
148.4523685918105
142.7097872237094
143.1696679755777
143.4234815946723
134.0597961727831
125.7364152310525
141.5563581412156
122.4128829195506
123.4917440510418
124.1435595693484
)
;
    }
    Out
    {
        type            calculated;
        value           uniform 0;
    }
    circle
    {
        type            calculated;
        value           nonuniform List<scalar> 
32
(
56.33610105044283
21.95080410424733
65.29244850663939
24.37149341864684
19.37263149582627
56.22100290244526
56.787461490958
24.18396889799101
22.24954600464669
65.51006891210621
40.16776226536581
63.02346149150057
50.35298592503807
14.13657719264145
23.44245975651327
19.34711646106162
38.92988808230663
59.63488562409884
61.04594309859993
25.73325933396223
65.75151010764274
63.78830067955583
62.98684975757045
59.88566065138497
64.13223284876722
46.01464183393658
66.39353476007315
32.1560894297368
37.94077342066215
55.70795145098773
21.24737750664142
43.10532880955472
)
;
    }
}


// ************************************************************************* //
