/*--------------------------------*- C++ -*----------------------------------*\
| =========                 |                                                 |
| \\      /  F ield         | OpenFOAM: The Open Source CFD Toolbox           |
|  \\    /   O peration     | Version:  2412                                  |
|   \\  /    A nd           | Website:  www.openfoam.com                      |
|    \\/     M anipulation  |                                                 |
\*---------------------------------------------------------------------------*/
FoamFile
{
    version     2.0;
    format      ascii;
    arch        "LSB;label=32;scalar=64";
    class       volScalarField;
    location    "208.5";
    object      p;
}
// * * * * * * * * * * * * * * * * * * * * * * * * * * * * * * * * * * * * * //

dimensions      [0 2 -2 0 0 0 0];

internalField   nonuniform List<scalar> 
808
(
-0.03420197683242426
0.04404364738168492
-0.01111869508962727
0.03675159056040992
-0.2985228557627089
-0.05558147949885072
-0.01550269148039246
-0.02413951406160898
-0.1965218624843465
-0.08382333733678682
-0.01068134586300469
-0.2535898708178737
-0.03069133063325046
-0.01391573267454091
-0.1210475766572531
-0.01420615865644584
-0.1375575486135491
-0.01372479268969585
-0.01250012954402763
-0.05547857196027263
-0.007523989591002863
0.1171320887413684
-0.06272283984018712
-0.07155922755225842
0.1751015022800039
-0.100332396240982
-0.1522009578493147
-0.02042698270967147
-0.01751672911081471
-0.02560055352938313
-0.02033833202316972
-0.0582976284980571
-0.02272412724217844
-0.0168883423180829
-0.09954373461010542
0.3444300387686401
-0.03968898063763941
-0.01638944440008069
-0.02267092251670489
-0.02647624683565374
-0.09026792873006695
-0.1265164855036001
-0.05232323772761256
-0.02136900683198299
-0.05426256046392793
-0.04177794927156829
-0.01194910975942426
-0.1842092420143415
-0.02681998743403983
-0.2038376368358692
-0.0171092354419191
-0.06710798622794507
-0.06119106490628679
-0.01442039681021981
-0.1941392597399092
-0.02809031189169834
-0.01056021561502708
-0.01418473028938659
-0.1002095883139215
-0.03952478198656372
-0.1106627977759276
-0.1257901094027687
-0.01430031358403455
-0.1292416112181141
-0.01757945905461669
-0.05210627254919037
-0.1648736944983379
-0.03542111665636574
-0.01523375903548539
-0.4398479887874956
-0.02631397071444138
-0.3008422637952709
-0.02148090632931803
-0.02112120407900098
-0.06480243917976261
-0.01799448203020826
-0.04230321157045301
-0.3634047224374655
-0.03639861108668491
0.03993091215380876
-0.09161859995616044
-0.01686527943892689
0.05719107679513823
0.04499284091801821
-0.01730846785573514
-0.05201573133219282
-0.540954922392785
-0.2270522908242996
-0.05195532004414823
-0.1129464723965901
-0.05642180951507515
-0.13252919220842
0.038964196783367
-0.02580189505122679
-0.06228175552427557
-0.1213828802856225
-0.03826336897067899
-0.05194894477730529
-0.1161083286612496
-0.140051900095597
-0.05299012804766853
-0.04709307192454479
-0.05420895738140428
-0.04456806751555345
-0.0572023740439243
-0.07499396193327028
-0.03986299567828785
-0.01070182305368941
-0.04001107251999061
-0.1237910144091404
-0.0501083385537154
0.0818709996722335
-0.04213973080627396
-0.007554116158879798
-0.02756550470530515
0.1805545287420866
-0.03858276193505498
-0.2679167754806688
-0.02076048649568027
-0.05337884742511245
-0.03996065024083929
-0.04921654441280911
0.01368789938853995
-0.04850015128291541
-0.03599263612504504
-0.2181236239858401
-0.04104345998435976
-0.004282024215421001
-0.07571375122786424
-0.06926464685478087
-0.152180188947273
-0.02130114579157838
-0.07510082401819006
-0.04332752653946674
-0.02306369860219125
-0.01540076359859547
-0.005996113537779805
-0.007623651008593495
-0.05215488879567341
-0.04953268634526087
-0.2119813736017665
-0.05636832357412364
-0.008245668943104422
-0.02204437938421338
-0.148006245969185
-0.002039354173740298
-0.07612573778346075
-0.02197094912474397
-0.0002564283716667742
-0.01012717822665973
-0.03307959685717672
0.0938882609805404
-0.03849463395521541
0.251840504038406
-0.2593710516100549
-0.133032903365757
-0.03794357627911394
-0.0908728615381539
-0.008987998949909521
-0.11403557010149
-0.1715050521837978
-0.2136187377884914
-0.1808333997204867
0.05651419035014459
-0.06343495829323832
-0.02058322964671196
-0.06667188293740285
-0.1737587599937181
-0.0231959519023789
-0.01880598684971598
-0.05176987925195774
-0.02003061695560245
-0.007117109291110785
-0.1077393792748179
-0.02351393970711899
-0.04498305900931188
-0.07055355848370443
-0.1611072038747375
-0.0331615211367311
-0.3873990491011361
-0.01790285681375724
-0.2263412354329922
-0.04406645010965331
0.03213188036562106
-0.1056052934283229
-0.01601808038651776
-0.04300016560173231
-0.1052480273781008
-0.01789888669688297
-0.09603786824321342
-0.2034265547319919
-0.07177440675865747
-0.024151892710461
-0.0480171007104821
-0.04252277185134658
-0.2012462951098871
-0.02237415375470292
-0.01930051774694446
-0.01129621818342415
-0.05673838207024994
-0.05049061302911776
-0.0226971693496974
-0.02060303060868731
-0.2367375921641094
0.127149397537129
-0.2054981727326108
-0.1945905155931695
-0.01171352117519089
-0.01135457142700153
-0.06677683993531046
-0.01000267828681088
-0.4971674797532907
-0.1276018544029469
-0.01958297455939773
-0.001174302835234607
-0.02378089839226953
-0.2799355027583886
-0.2778381792595264
-0.007529784584825608
-0.01793589892008391
-0.00211375382494349
-0.3487318021452034
-0.02857121437229343
-0.0293924473272135
-0.01266660662869888
-0.01947610451472762
0.04915150446324531
-0.123844243209211
-0.01407708046512689
-0.02089973430121141
-0.04486222144080203
-0.01837686935995344
-0.01638648408834108
-0.02349433719712719
-0.06774100851229931
-0.0112172696623208
-0.01892341618538034
-0.008915957657446651
-0.001349674746762361
-0.02934454224580082
-0.002000529124319319
-0.002028260687852201
-0.005831849951181387
-0.02550729817683714
-0.008115268144359328
0.001653394181794838
-0.004101382985896027
0.001205076358956009
0.00232591606928398
-0.008689750931900648
-0.1312221575515961
-0.002944279607804276
-0.0001950254255270558
-0.04742477986801677
-0.02137570428670451
-0.02395262597665254
-0.01409406069792258
-0.006175372576166281
-0.02112221263911355
-0.03943473987403982
-0.01500145169487329
-0.01262271394391679
-0.01173294911773143
0.005983727036186952
-0.009696725197044247
-0.0131282681662667
-0.0113377626844442
-0.01014023258639923
-0.01008293322779957
-0.01094970163050385
-0.01366648401474368
-0.2952946147097795
0.05944366008099326
-0.01513451818200331
-0.01600131419064677
-0.01247969564486605
-0.0124907341736572
-0.008286749488407791
-0.09961476068692433
0.0112447573969122
-0.01436204474270895
-0.01405248796167278
-0.01067234324638841
-0.0517012399147949
-0.008189012855175317
-0.01395877554680952
-0.00956571986794756
-0.002375800711310645
-0.01090720714385174
-0.01055637304264858
-0.02437732024747497
-0.01580122494983227
-0.01239592283237882
-0.01337933912267288
-0.009821663425268034
-0.01323708738510714
-0.01089578906198913
-0.05924353412911062
-0.01322518628808073
-0.01221318154032781
-0.009079227841998444
-0.01533400410210881
-0.01412892436635704
-0.01571837600378984
-1.371813745889586
-0.1000065913047142
-0.01187795593323658
0.02342350232818225
-0.1631037635882364
-0.09392681425086798
-0.01191425127021355
-0.01424450229809565
-0.2457306060591709
-0.02913046297962892
-0.01871695499234736
-0.01206664555345107
-0.02043331509810919
-0.01099319390821267
-0.03076660214719568
-0.4106278717140945
-0.0119951425162552
-0.01407931317375295
-0.004507277662972708
-0.01059341497704051
-0.009267136142798851
-0.0139550287029255
-0.0087512652186537
-0.02720364738630208
-0.0116130841462356
-0.1674763148990891
0.01966409716916506
-0.007455582344413336
0.003678022275916545
0.01199511876773594
-0.04868059395108341
0.02814823820165083
-0.01279273707606376
-0.1341463649378099
0.2824493026495055
-0.008069549224326839
-0.0133805708584981
-0.008036199916774884
-0.03347904357258278
-0.1249603207748587
-0.01336961228894957
-0.01203226941112798
-0.01766836054709632
-0.01352074441247433
-0.04160139717773606
-0.2184903996713379
-0.009853042534958134
-0.04309027219951436
-0.0386840532187766
-0.1763262335530192
-0.1542600268346548
-0.1557090206940976
-0.2454277305921823
-0.003683968181644719
-0.02080405671101386
-0.01551451875305531
-0.01387756096897416
-0.03359746078887796
-0.02446733858882497
-0.01404999751428141
-0.01496902619819355
-1.074004947837769
-0.002986162248563562
-0.01350460465928066
-0.01806795886940457
-0.01836132033440398
0.005764837016571072
-0.01406301599916432
-0.02618745675336096
-0.1606680824948899
-0.01359660020896576
-0.02105310825244537
-0.01455732334755479
0.001742379240647389
-0.1780285397144197
-0.01277475703205454
-0.1550828520008292
-0.01549385878538376
0.007917968211563766
-0.01401585425839236
-0.02407131266211833
-0.01639107037791025
0.00704114642346906
-0.2689701312084874
-0.02654438053240027
-0.01687650028192516
-0.01582953855829465
-0.01070368684017627
-0.02960442773923956
-0.01381991868856774
-0.02111595919288813
-0.02062180280126701
0.008048281860366584
-0.09874862599021487
-0.02135325201488514
0.009560181974668314
-0.05557578924931013
0.1736070731630665
-0.1055677891891222
-0.318688174136627
-0.02933696554971873
-0.02588222127222044
0.1502430610665345
0.09616954811204426
-0.003641178781675399
0.05326360063520351
-0.01528109008830185
-0.0135419642334373
0.00263158070033062
0.009061097396075527
-0.06553689428795643
-0.004387248495305218
-0.05637578309137072
-0.02322207116576139
-0.01567659923641069
-0.03650431969717125
-0.03293501074046543
-0.006688732804105937
-0.01455234439127723
-0.03757691496342208
0.0316392796410078
-0.03866289407904121
-0.01373234123385292
-0.1188613195271715
-0.03099938260461305
-0.03972920832712096
-0.671945019201703
0.01353955989768321
-0.01085387561614545
-0.005484184224328125
0.1841091222892832
-0.09820792869999662
-0.03585576564050529
-0.2437475657009901
-0.0153427684369812
-0.01614850276027437
0.07249361267526237
-0.1823677197538255
-0.2281083635468382
-0.188696070336815
-0.679783167936395
0.01171570406923783
-0.01791439212721465
-0.01516184736409101
-0.09375496954969537
0.1182754674684985
-0.02202132608349363
-0.2465983790152787
-0.0360906185209031
-0.006867733957730277
0.2778122720512776
-0.0108649905601872
-0.09186933094690766
-0.1518824083725715
-0.004938634767812541
-0.04150071002247831
-0.04540327769214751
-0.1974124290043081
-0.008124863455896747
-0.04059726829218946
-0.003593992041845909
-0.5466939522547541
-0.1962010339103944
-0.1779091390752148
-0.02353095256072699
-0.008657930856288583
-0.06164309697537907
-0.05694717723159594
-0.01621742890486712
-0.06918586681988967
0.00392633126594114
-0.01770373329562139
-0.0955244652487385
-0.2745889026575785
-0.009725156882583139
-0.02497524392277195
-0.02141990806727301
-0.07596116761193115
-0.08965447348458104
-0.08937991232074831
-0.01115608303834949
-0.9131622865264225
0.1614776425455518
-0.082845629206263
-0.2531935155777168
-0.04164182286063974
-0.009321227777314162
-0.2467373974120764
-0.192348099474238
-0.03164956009790814
-0.1158041930500253
-0.01761458405311346
0.5623995985368478
-0.02498327952863983
-0.2162340224105883
-0.02529728486760605
-0.003820619687062863
-0.01096682386173023
-1.249861151307203
-0.1830813855541522
-0.2292793101890011
0.00530620038647662
-0.03881576882453809
-0.2375429959992861
-0.06680008453494847
-0.05199017256738865
-0.144774464033287
-0.1857717894609197
-0.06954990898134303
-1.219917080853043
-0.1578658242062202
-0.536354090754062
0.07953884337608079
-0.006556758763710051
-0.02118960713253314
-0.04426281344180145
-0.03897639449794271
-0.02782960715858868
-0.1311707130812794
0.08084020681329353
-0.00444483011647876
-0.009792044440084051
-0.566496087986991
-0.8534797652593116
-0.1786932294241939
-0.007527275758074219
-0.1247746555320373
0.0007152590716628419
-0.0007803201982913699
-0.002815905939075434
-0.061502223755014
-0.2352048424603538
-0.01337298407708821
-0.112493641011689
-0.1556249888198255
-0.01311967617000145
-0.03477682851830748
0.0268327995071544
-0.05857370890282546
-0.07159310779865379
-0.4955230150458313
-0.2377351454840969
-0.08027667237900077
-0.07482097289688272
-0.0193919058255333
-0.1120577312579236
-0.1643998068324116
-0.08143458005557977
0.02736753357689618
-0.08663093424358025
-0.04989796513481753
-0.01495002237483671
-0.1154473546128535
-0.2792538061857797
-0.05888446537048875
-0.01809810011006412
0.002074279706860399
-0.01021306637371265
-0.01063243376857054
-0.2336218685648309
-0.01404987773359865
-0.2186964433290209
-0.0107859761228093
-0.06900366015019514
-0.003876603443485703
-0.02323870961531398
-0.3889015214358811
-0.9226391023733611
-0.01124255922875529
-1.044405148368545
-0.604784698727001
-0.01067418439081706
-0.6568286320213541
-0.1841618028459584
-0.004901609706320021
-0.1252096633472476
-0.0172096981811621
-0.1244037185660801
-0.06569337528214395
-0.07675261030078634
-0.005559021732846646
-0.003618942069591972
-1.340635770702344
-0.01126715041801135
-0.1902742122928825
0.0009452221045587798
-1.010528229238804
-1.24281968232779
-0.07944412011498915
0.01759851802539125
0.1644342554829201
-0.004963303966826564
-0.02295300236585926
-0.00436422114465879
-0.2416726308752321
0.3656263531188892
-0.04205335269305294
-0.2132931110037413
-0.01525666587492436
-0.6554467500694318
-0.07314936769035876
0.1898065242610894
-0.2997123847097848
-0.05076633948456416
-0.07012150582184869
-0.01580724286626189
-0.02143331879584972
-0.589029918036961
-0.151983144606456
-0.09415103274899476
-0.1202625368871227
-0.5532308885895161
-0.04528244004027959
-0.9057059885551993
-0.0008857749817258861
-0.2425221389898957
-1.050229297733464
0.1683386321150026
0.2910502348569408
-0.1716240907670364
-0.1908919807600649
-0.2109372804456962
-0.066795079048657
0.02551911559661195
0.04833220770758598
0.00523677236577362
-0.1543865559621781
0.02591250846999682
-1.361755293215672
-0.08684336538710007
-0.4772661088378904
-0.3326873561566388
-0.2165162878382064
-0.1791922432107811
-0.01697477696292796
-0.01536585956946315
-0.09484597537302616
0.1718517608845318
0.3849687273458265
-0.2155585317021243
-0.1543424259920369
-0.2303031446497409
-0.06350029850673151
-0.1615728860276651
-0.1708405538720366
-0.1272605845837168
-0.1112591230742901
0.4660922470197199
-0.2799543504404688
0.4309722104162552
-0.5924350765436536
0.07205787022499681
-0.1925273503315652
-0.06759901079249028
-0.07653060139772627
-0.8888682334354228
-0.2205993352215422
-0.1917001335069565
-0.3528869185256063
-0.4639983981837624
0.5699110712577246
-0.2096704477170817
0.001794640491057058
-0.06867800193138614
0.3439207071558529
-0.03581311076069542
-0.1195615519887573
-0.1808569676189781
-0.06467896801618579
-0.01634883758922218
-0.1967199213738347
0.193669843722716
-0.0125726366330745
-0.09824642111698798
-0.1741085269569086
-0.3156583906643387
-0.3098539332012115
-0.08033220811735839
-0.009741841266651671
-0.07674675191996598
-0.6536802849164763
-0.6709802903564115
-0.3280564859044506
-0.05898824632183248
-0.0503357213767163
-0.02457342597947896
-0.06959343562834858
-0.05592454370058847
-0.3660211148730226
-0.9596066358247528
-0.008728952032797195
-0.08485399881033259
-1.141841588965249
-1.038700054064976
-0.1064557821864718
-0.04074060851540563
-0.06855679377602389
0.3899417663345368
-0.3414627993749011
-0.0521423030026487
-0.6026840786090679
-0.1355264784271591
-0.2501049990676533
-0.2124462199284908
0.473728367025626
-0.6337815935892159
0.07437272709511956
-0.02864239373598241
-0.5663056698379468
-0.05364767930248544
-0.3632972855868757
0.1080449610692468
-0.1927967478222942
-0.0612064332897224
-0.1270974189596077
-0.3603550258374033
-0.08684172770616019
0.5142475932386857
0.08633350746374012
0.4704281002247055
-0.1249537921390754
-0.2049194490088847
-0.512669725192646
-0.1327027582792913
0.02500447586215622
-0.05516562538369973
0.1011941296052988
-0.3068295285369779
0.236248085985009
0.006565095542648073
-0.002688618299724623
-0.5103444842741113
-0.1830697972550185
-0.09904534754917284
0.5810070345658457
0.1391083893879745
0.3455116538416831
0.225236792544085
-0.564120080227749
-0.2136626325654419
-0.2189755333318601
-0.2327933995560964
-0.0618870049840371
-0.6905533042852855
-0.1922805958387474
0.3052487736325047
-0.2079945407874932
-0.01111109671637465
-0.1657355356187527
-0.01123436514008907
-0.1681288791681763
-0.4437669710238109
-0.07688305411379819
-0.2035686579578882
-0.07635210716975346
-0.1092165506014276
-0.1342008923029179
-0.07304708311547325
-0.4439035532694098
-0.4128375056648742
-0.02527294311426024
-0.07669017636218481
0.3272336617821569
-0.2508615819277369
-0.174544234417859
0.5250731132750761
-0.1965684200490345
0.01940134580504181
-0.4534954169390871
0.04710441864788172
-0.06039455735618807
-0.1575389587121778
-0.5892186624737032
0.1606064807585652
-0.5777162336508679
-0.5385624644553092
-0.1040228133784918
-0.5104570914364466
-0.03635697145257299
-0.1539432822863992
-0.4122793312652587
-0.01615177418275856
0.2870541102193965
0.4894946526546959
-0.1655303693138291
-0.006575910076654434
-0.07757806417098859
0.5250773084703159
-0.03240848576884021
-0.4438573340288801
-0.03184282818342585
0.4606484991392387
-0.01669790640159162
-0.5482548557749626
-0.2398152658364268
0.176801492625983
-0.3139776234827292
-0.1811956080640911
0.05002324030487333
0.03189193061048747
0.05562647864096805
-0.3030837573795672
-0.1582239158442897
0.412687791717292
)
;

boundaryField
{
    FrontBack
    {
        type            empty;
    }
    Top
    {
        type            zeroGradient;
    }
    In
    {
        type            zeroGradient;
    }
    Bottom
    {
        type            zeroGradient;
    }
    Out
    {
        type            fixedValue;
        value           uniform 0;
    }
    circle
    {
        type            zeroGradient;
    }
}


// ************************************************************************* //
