/*--------------------------------*- C++ -*----------------------------------*\
| =========                 |                                                 |
| \\      /  F ield         | OpenFOAM: The Open Source CFD Toolbox           |
|  \\    /   O peration     | Version:  2412                                  |
|   \\  /    A nd           | Website:  www.openfoam.com                      |
|    \\/     M anipulation  |                                                 |
\*---------------------------------------------------------------------------*/
FoamFile
{
    version     2.0;
    format      ascii;
    arch        "LSB;label=32;scalar=64";
    class       volVectorField;
    location    "0.1";
    object      cellDisplacement;
}
// * * * * * * * * * * * * * * * * * * * * * * * * * * * * * * * * * * * * * //

dimensions      [0 1 0 0 0 0 0];

internalField   nonuniform List<vector> 
256
(
(-0.00354615 -0.000284139 0)
(-0.00341769 -0.000806441 0)
(-0.00310075 -0.00121024 0)
(-0.00265699 -0.00145525 0)
(-0.00216919 -0.00152716 0)
(-0.00160312 -0.00136688 0)
(-0.00112551 -0.00110876 0)
(-0.000600967 -0.000652604 0)
(-0.0104542 -0.00082357 0)
(-0.0100798 -0.00229211 0)
(-0.00922826 -0.00345919 0)
(-0.00805336 -0.00422761 0)
(-0.00667468 -0.0044926 0)
(-0.00529316 -0.00432993 0)
(-0.00385066 -0.00365254 0)
(-0.00247887 -0.00261249 0)
(-0.0170735 -0.00133555 0)
(-0.0164521 -0.00363451 0)
(-0.0151572 -0.00551204 0)
(-0.0133734 -0.00679672 0)
(-0.0113311 -0.00739921 0)
(-0.00912497 -0.00724312 0)
(-0.00703186 -0.00651092 0)
(-0.00491239 -0.00509354 0)
(-0.0233284 -0.00181139 0)
(-0.0224693 -0.00484434 0)
(-0.020819 -0.00737451 0)
(-0.0185636 -0.00918312 0)
(-0.0159309 -0.0101218 0)
(-0.0132278 -0.010249 0)
(-0.0104747 -0.00949766 0)
(-0.00779213 -0.00796958 0)
(-0.0293031 -0.00226503 0)
(-0.0282616 -0.00596248 0)
(-0.0263162 -0.0091036 0)
(-0.0236703 -0.0114234 0)
(-0.0206386 -0.0128111 0)
(-0.017386 -0.0131747 0)
(-0.0142275 -0.0126707 0)
(-0.0110714 -0.0112022 0)
(-0.0349789 -0.00269106 0)
(-0.0337792 -0.00699547 0)
(-0.0316015 -0.0107032 0)
(-0.0286769 -0.0135451 0)
(-0.0252631 -0.0153469 0)
(-0.0217271 -0.0161525 0)
(-0.0181321 -0.0158905 0)
(-0.0146257 -0.0146517 0)
(-0.0403993 -0.0031027 0)
(-0.0390939 -0.00796428 0)
(-0.036744 -0.0122113 0)
(-0.0335875 -0.0155518 0)
(-0.0299609 -0.017861 0)
(-0.0260648 -0.0190373 0)
(-0.0222303 -0.0192057 0)
(-0.0184454 -0.0183222 0)
(-0.0455803 -0.00349954 0)
(-0.0441814 -0.00887235 0)
(-0.0417144 -0.0136275 0)
(-0.0384172 -0.0174784 0)
(-0.0345637 -0.0202461 0)
(-0.0305249 -0.0219523 0)
(-0.026415 -0.0225304 0)
(-0.022407 -0.0220859 0)
(-0.0505246 -0.00388895 0)
(-0.0490873 -0.00973188 0)
(-0.0465485 -0.0149705 0)
(-0.0431455 -0.0193086 0)
(-0.0392156 -0.0226172 0)
(-0.0349598 -0.0247824 0)
(-0.0307018 -0.0258984 0)
(-0.0265437 -0.0259855 0)
(-0.0552664 -0.0042658 0)
(-0.0538021 -0.0105481 0)
(-0.0512358 -0.0162406 0)
(-0.0478133 -0.0210795 0)
(-0.0437765 -0.0248764 0)
(-0.039459 -0.0276301 0)
(-0.0350901 -0.0292822 0)
(-0.03076 -0.0299642 0)
(-0.0597903 -0.00465343 0)
(-0.0583393 -0.0113165 0)
(-0.0557975 -0.0174452 0)
(-0.0523674 -0.0227565 0)
(-0.0483548 -0.0271112 0)
(-0.044012 -0.0304148 0)
(-0.0395369 -0.032727 0)
(-0.0351396 -0.0340453 0)
(-0.0641191 -0.00502951 0)
(-0.0627003 -0.0120514 0)
(-0.0602052 -0.0185815 0)
(-0.0568824 -0.0243613 0)
(-0.0529286 -0.0292495 0)
(-0.0485966 -0.0332004 0)
(-0.0441163 -0.0361723 0)
(-0.0395669 -0.0382528 0)
(-0.0682067 -0.00544618 0)
(-0.0668451 -0.0127428 0)
(-0.0644931 -0.0196392 0)
(-0.0613089 -0.0258508 0)
(-0.0574867 -0.0313155 0)
(-0.0532382 -0.035911 0)
(-0.0487068 -0.039653 0)
(-0.044049 -0.0425268 0)
(-0.0720126 -0.00584459 0)
(-0.0707513 -0.0134043 0)
(-0.0685807 -0.0205569 0)
(-0.0655877 -0.027233 0)
(-0.0619666 -0.0332185 0)
(-0.0577826 -0.0385453 0)
(-0.0532547 -0.043074 0)
(-0.0484317 -0.0468668 0)
(-0.0753779 -0.00635991 0)
(-0.0742364 -0.0139833 0)
(-0.0722489 -0.0213765 0)
(-0.0695142 -0.0283737 0)
(-0.0660613 -0.0349397 0)
(-0.062046 -0.0409255 0)
(-0.0574744 -0.04635 0)
(-0.0525453 -0.0510836 0)
(-0.0778277 -0.00688306 0)
(-0.0767782 -0.0144784 0)
(-0.0749894 -0.0219342 0)
(-0.0724784 -0.0291789 0)
(-0.0692694 -0.0361425 0)
(-0.0653932 -0.042758 0)
(-0.0608873 -0.0489618 0)
(-0.055795 -0.054694 0)
(-0.000600121 -0.000629989 0)
(-0.00104113 -0.00117546 0)
(-0.00127715 -0.00163253 0)
(-0.00141263 -0.00216193 0)
(-0.00135948 -0.0026339 0)
(-0.0011136 -0.0029691 0)
(-0.000750959 -0.00326176 0)
(-0.000276462 -0.00350408 0)
(-0.00248123 -0.00264939 0)
(-0.00343349 -0.00398834 0)
(-0.0040609 -0.00541983 0)
(-0.00421349 -0.00674569 0)
(-0.00392246 -0.00795359 0)
(-0.00322065 -0.00904089 0)
(-0.0021425 -0.00989275 0)
(-0.000756055 -0.0102734 0)
(-0.00478915 -0.00514643 0)
(-0.00614553 -0.00730281 0)
(-0.00683057 -0.00935834 0)
(-0.00691962 -0.0114242 0)
(-0.00633818 -0.0133267 0)
(-0.00511021 -0.0149085 0)
(-0.00335302 -0.016121 0)
(-0.00116909 -0.016895 0)
(-0.00757755 -0.00820371 0)
(-0.0089785 -0.0108445 0)
(-0.0096669 -0.0135567 0)
(-0.00951383 -0.0161425 0)
(-0.00855452 -0.0185307 0)
(-0.00684434 -0.0206436 0)
(-0.00444551 -0.0222521 0)
(-0.0015171 -0.0230828 0)
(-0.0106286 -0.0115595 0)
(-0.0120179 -0.01473 0)
(-0.012455 -0.0178113 0)
(-0.0120229 -0.0208882 0)
(-0.0106651 -0.0237602 0)
(-0.00841885 -0.0261927 0)
(-0.00540907 -0.028023 0)
(-0.00181549 -0.0291238 0)
(-0.0139986 -0.0152886 0)
(-0.0150979 -0.0187211 0)
(-0.0152771 -0.0222377 0)
(-0.014444 -0.0256498 0)
(-0.012624 -0.028823 0)
(-0.00987385 -0.0315928 0)
(-0.00628127 -0.0336853 0)
(-0.00206506 -0.0347717 0)
(-0.0175042 -0.0191688 0)
(-0.018305 -0.0229406 0)
(-0.0180449 -0.0266754 0)
(-0.0167888 -0.0303996 0)
(-0.0144969 -0.0338825 0)
(-0.0112067 -0.0368295 0)
(-0.00705239 -0.0390061 0)
(-0.00226901 -0.0402804 0)
(-0.0212053 -0.0232812 0)
(-0.0215078 -0.0271943 0)
(-0.020818 -0.0312213 0)
(-0.0190589 -0.0351537 0)
(-0.0162464 -0.0387856 0)
(-0.012437 -0.0419083 0)
(-0.00774443 -0.0442341 0)
(-0.00242843 -0.0454438 0)
(-0.0249662 -0.0274711 0)
(-0.024783 -0.0316069 0)
(-0.0235312 -0.0357629 0)
(-0.0212459 -0.0398641 0)
(-0.0179078 -0.0436651 0)
(-0.0135596 -0.0468528 0)
(-0.00834903 -0.0491645 0)
(-0.00253653 -0.0504818 0)
(-0.0288666 -0.0318261 0)
(-0.0280311 -0.0360654 0)
(-0.0262165 -0.0403798 0)
(-0.023348 -0.0445826 0)
(-0.0194473 -0.0484108 0)
(-0.014571 -0.0516364 0)
(-0.00886442 -0.054003 0)
(-0.00259387 -0.0552162 0)
(-0.0327993 -0.0363037 0)
(-0.0313106 -0.0406623 0)
(-0.0288186 -0.0450416 0)
(-0.0253315 -0.0492687 0)
(-0.0208625 -0.0531201 0)
(-0.0154596 -0.056313 0)
(-0.00928004 -0.0585813 0)
(-0.00258298 -0.0598301 0)
(-0.0368022 -0.0409207 0)
(-0.0345232 -0.0453658 0)
(-0.0313105 -0.0497946 0)
(-0.0271733 -0.0539999 0)
(-0.0221023 -0.0577569 0)
(-0.0161761 -0.0608357 0)
(-0.00957551 -0.0630641 0)
(-0.00250255 -0.0641667 0)
(-0.040762 -0.045674 0)
(-0.0376346 -0.0502206 0)
(-0.0336213 -0.0546452 0)
(-0.0287879 -0.0587456 0)
(-0.0230772 -0.0623684 0)
(-0.0167088 -0.0652845 0)
(-0.00967938 -0.0673153 0)
(-0.00231259 -0.0683499 0)
(-0.0445889 -0.0505377 0)
(-0.0404804 -0.0551926 0)
(-0.0356557 -0.0595544 0)
(-0.0300104 -0.0635274 0)
(-0.0237744 -0.0669017 0)
(-0.0168818 -0.0695629 0)
(-0.00957575 -0.0713824 0)
(-0.00195408 -0.0722088 0)
(-0.0479231 -0.0554233 0)
(-0.0428301 -0.0601245 0)
(-0.037063 -0.0643905 0)
(-0.0307588 -0.0680948 0)
(-0.0239278 -0.0711554 0)
(-0.0166995 -0.0734838 0)
(-0.00915915 -0.0749948 0)
(-0.001453 -0.0756421 0)
(-0.0501654 -0.0598995 0)
(-0.0440527 -0.0645282 0)
(-0.0375157 -0.0685354 0)
(-0.0306174 -0.0718825 0)
(-0.0234242 -0.0745374 0)
(-0.0160055 -0.0764745 0)
(-0.00843262 -0.077675 0)
(-0.000778534 -0.0781276 0)
)
;

boundaryField
{
    walls
    {
        type            cellMotion;
        value           uniform (0 0 0);
    }
    cylinder
    {
        type            cellMotion;
        value           nonuniform List<vector> 
16
(
(-0.0778277 -0.00688306 0)
(-0.0767782 -0.0144784 0)
(-0.0749894 -0.0219342 0)
(-0.0724784 -0.0291789 0)
(-0.0692694 -0.0361425 0)
(-0.0653932 -0.042758 0)
(-0.0608873 -0.0489618 0)
(-0.055795 -0.054694 0)
(-0.0501654 -0.0598995 0)
(-0.0440527 -0.0645282 0)
(-0.0375157 -0.0685354 0)
(-0.0306174 -0.0718825 0)
(-0.0234242 -0.0745374 0)
(-0.0160055 -0.0764745 0)
(-0.00843262 -0.077675 0)
(-0.000778534 -0.0781276 0)
)
;
    }
    outlet
    {
        type            cellMotion;
        value           nonuniform List<vector> 0();
    }
    inlet
    {
        type            cellMotion;
        value           uniform (0 0 0);
    }
    frontAndBack
    {
        type            empty;
    }
    procBoundary2to0
    {
        type            processor;
        value           nonuniform List<vector> 
16
(
(0.000249191 -0.00349409 0)
(0.000726679 -0.0104741 0)
(0.00117209 -0.0169815 0)
(0.00158607 -0.0232914 0)
(0.00198066 -0.0291993 0)
(0.00235867 -0.0349374 0)
(0.00273101 -0.0403228 0)
(0.00310114 -0.045559 0)
(0.00347672 -0.050482 0)
(0.00386606 -0.0552751 0)
(0.00427734 -0.0597775 0)
(0.00471384 -0.0641481 0)
(0.00519674 -0.0681995 0)
(0.00569878 -0.0720405 0)
(0.006291 -0.0753924 0)
(0.00688306 -0.0778277 0)
)
;
    }
    procBoundary2to3
    {
        type            processor;
        value           nonuniform List<vector> 
16
(
(-0.00361448 0.00026154 0)
(-0.0105922 0.000702174 0)
(-0.0172291 0.00106815 0)
(-0.023474 0.00136565 0)
(-0.0294599 0.00161586 0)
(-0.0351283 0.00181847 0)
(-0.0405704 0.001985 0)
(-0.0457455 0.00211369 0)
(-0.0507155 0.00220763 0)
(-0.0554578 0.00225472 0)
(-0.0599979 0.00226211 0)
(-0.064326 0.00220374 0)
(-0.0684342 0.00208151 0)
(-0.072263 0.00180461 0)
(-0.0756537 0.00139967 0)
(-0.0781276 0.000778534 0)
)
;
    }
}


// ************************************************************************* //
