/*--------------------------------*- C++ -*----------------------------------*\
| =========                 |                                                 |
| \\      /  F ield         | OpenFOAM: The Open Source CFD Toolbox           |
|  \\    /   O peration     | Version:  2412                                  |
|   \\  /    A nd           | Website:  www.openfoam.com                      |
|    \\/     M anipulation  |                                                 |
\*---------------------------------------------------------------------------*/
FoamFile
{
    version     2.0;
    format      ascii;
    arch        "LSB;label=32;scalar=64";
    class       surfaceScalarField;
    location    "0.1";
    object      meshPhi;
}
// * * * * * * * * * * * * * * * * * * * * * * * * * * * * * * * * * * * * * //

dimensions      [0 3 -1 0 0 0 0];

internalField   nonuniform List<scalar> 
480
(
0.00511501
0.00250097
0.00556789
0.00716809
0.00574873
0.011038
0.00561538
0.013465
0.00506371
0.0139951
0.00412221
0.0126037
0.00322874
0.0102858
0.00857558
0.00296018
0.0149771
0.00448779
0.0161396
0.0125561
0.0166409
0.0193187
0.0163245
0.0237321
0.014881
0.0250419
0.0125153
0.0233361
0.0101499
0.0199832
0.0171478
0.00941041
0.0241893
0.00601387
0.0256769
0.0164472
0.0264223
0.0252937
0.026054
0.0312755
0.0241859
0.0335654
0.0211754
0.0323056
0.0179281
0.0287532
0.0252747
0.0168449
0.0327425
0.00710341
0.0342835
0.0190808
0.0352003
0.0293248
0.0349072
0.0365066
0.0330591
0.0398319
0.0300009
0.039437
0.0263475
0.0362178
0.0326115
0.0251883
0.0406759
0.00780682
0.0421503
0.0207483
0.0431866
0.0318949
0.0430953
0.0399582
0.0415674
0.0442104
0.0388614
0.0447379
0.035222
0.0421437
0.0387545
0.0342817
0.0480244
0.00815821
0.0493867
0.0215527
0.0505178
0.0331408
0.0507222
0.0417301
0.0497173
0.0467101
0.0476182
0.0481223
0.0443571
0.0462852
0.0434035
0.0439079
0.0547998
0.00819281
0.0560495
0.0216262
0.0572818
0.0332884
0.0578644
0.0420955
0.0575195
0.0475633
0.0562184
0.0496921
0.0536312
0.0486483
0.0463962
0.0538783
0.0610399
0.00794578
0.0621926
0.0210093
0.0635625
0.0323745
0.0645966
0.0411026
0.0650442
0.0468147
0.0646387
0.0494868
0.0629269
0.0491481
0.0476366
0.0640847
0.0667837
0.00745114
0.0678866
0.0198032
0.0694396
0.0305676
0.0710227
0.0389381
0.0722712
0.0446186
0.0727871
0.0475648
0.0721693
0.0478706
0.0471065
0.0743586
0.0721358
0.00678233
0.0732428
0.0180686
0.0750529
0.027921
0.0771843
0.0356502
0.0791986
0.0410351
0.0807261
0.0441007
0.0813534
0.0449368
0.0448842
0.084644
0.077189
0.00592784
0.07837
0.0158927
0.0804808
0.0245797
0.0831551
0.031421
0.0860157
0.0363057
0.0886621
0.0392931
0.0907083
0.0406028
0.0412465
0.095325
0.0820812
0.00505225
0.0834224
0.0134177
0.0859121
0.020664
0.0892478
0.026374
0.0930541
0.0305735
0.0969676
0.0333913
0.100722
0.035044
0.0362458
0.106793
0.0867574
0.00392055
0.0884098
0.0103964
0.0914645
0.0160224
0.0956325
0.02052
0.100574
0.0239538
0.105998
0.0265066
0.111622
0.028373
0.0299011
0.119282
0.0910936
0.00262452
0.0932477
0.00694418
0.0970442
0.0107707
0.102229
0.0139572
0.108517
0.0165537
0.115606
0.0186846
0.123256
0.020475
0.0219793
0.132634
0.0949064
0.00152417
0.0976237
0.00353981
0.102217
0.00538973
0.108448
0.00705575
0.116111
0.00854205
0.124881
0.00986476
0.13457
0.0110593
0.0120974
0.145623
0.097455
0.100688
0.105912
0.112927
0.12155
0.131485
0.142491
0.154448
0.00329629
-0.00715622
0.00405777
-0.00898336
0.0048046
-0.0110579
0.00505793
-0.012079
0.00480435
-0.0113393
0.00450686
-0.0091864
0.00429457
-0.00616983
-0.00250337
0.010232
-0.014469
0.01243
-0.0175443
0.0143052
-0.0208073
0.014922
-0.0219971
0.0143255
-0.0204603
0.0134849
-0.0166348
0.0127994
-0.0111434
-0.00449473
0.0179578
-0.0216963
0.0211254
-0.0253997
0.023537
-0.028967
0.0242893
-0.0298783
0.0235192
-0.0275214
0.0222689
-0.0223361
0.0211874
-0.0149546
-0.00608674
0.0263589
-0.0283808
0.0299176
-0.0321543
0.0323892
-0.0354599
0.0330969
-0.0357364
0.0322236
-0.0326248
0.030745
-0.0264647
0.0294121
-0.017748
-0.0073076
0.0352416
-0.034251
0.0387361
-0.0377497
0.0409045
-0.0404198
0.0414263
-0.0399688
0.0404471
-0.0361602
0.0388345
-0.0292293
0.0373546
-0.0196282
-0.00821486
0.0444275
-0.0389623
0.0475351
-0.0419497
0.0491777
-0.0438818
0.0493448
-0.0426298
0.0481897
-0.0381981
0.0464496
-0.0307787
0.0448911
-0.020701
-0.00879904
0.0537607
-0.042377
0.0562718
-0.0447471
0.0572276
-0.0458607
0.0568995
-0.0439171
0.0554769
-0.0390173
0.0535772
-0.0312942
0.0519744
-0.0210688
-0.00909921
0.0631551
-0.044318
0.0648269
-0.0459173
0.0650133
-0.0462591
0.0640912
-0.0437625
0.0623195
-0.0385916
0.0602483
-0.0308645
0.0586252
-0.0208207
-0.00912033
0.0723988
-0.0445683
0.0730702
-0.0454265
0.0724353
-0.0451018
0.0708976
-0.0422694
0.068746
-0.0370691
0.0665001
-0.0295693
0.0648627
-0.0199719
-0.00885502
0.081563
-0.0433042
0.0810685
-0.0434617
0.0795452
-0.0425173
0.0773472
-0.0394629
0.0747909
-0.0344362
0.0723718
-0.0274464
0.070723
-0.018577
-0.00829562
0.0909584
-0.0406562
0.0890198
-0.0401074
0.0864344
-0.0385516
0.0834906
-0.035436
0.0805107
-0.0307833
0.0779234
-0.0245146
0.0762603
-0.0166594
-0.00750139
0.100914
-0.036492
0.0972387
-0.0353233
0.0934153
-0.0333225
0.0896052
-0.030276
0.0861055
-0.0261021
0.083306
-0.0207832
0.081579
-0.0141452
-0.00631824
0.111752
-0.030515
0.106161
-0.0290324
0.10086
-0.0268591
0.0959482
-0.0239931
0.0917774
-0.0204693
0.0885781
-0.0161701
0.0866204
-0.010831
-0.00468855
0.123403
-0.0223578
0.11578
-0.020949
0.108727
-0.0189576
0.102523
-0.0165746
0.097405
-0.0138551
0.0935582
-0.0106392
0.0911901
-0.00687924
-0.00276794
0.134748
-0.0117542
0.12504
-0.0107136
0.116215
-0.00940838
0.108607
-0.00796667
0.102398
-0.00638946
0.0978223
-0.0046509
0.0950066
-0.00277677
-0.000801073
0.14213
0.130804
0.120697
0.112083
0.105183
0.100176
0.0971886
)
;

boundaryField
{
    walls
    {
        type            calculated;
        value           uniform 0;
    }
    cylinder
    {
        type            calculated;
        value           nonuniform List<scalar> 
16
(
2.15447e-11
-2.64525e-11
-8.77395e-12
1.59661e-11
-4.49582e-11
3.25709e-11
5.04362e-11
-2.55317e-11
2.55348e-11
-5.04334e-11
-3.25679e-11
4.49626e-11
-1.59627e-11
8.777e-12
2.6455e-11
-2.15427e-11
)
;
    }
    outlet
    {
        type            calculated;
        value           nonuniform List<scalar> 0();
    }
    inlet
    {
        type            calculated;
        value           uniform 0;
    }
    frontAndBack
    {
        type            empty;
    }
    procBoundary2to0
    {
        type            processor;
        value           nonuniform List<scalar> 
16
(
0.00429803
0.0127718
0.0210598
0.0291372
0.0369315
0.0443797
0.0514367
0.058085
0.0643405
0.0702401
0.0758175
0.0811084
0.0860289
0.0904402
0.0940933
0.0962938
)
;
    }
    procBoundary2to3
    {
        type            processor;
        value           nonuniform List<scalar> 
16
(
-0.00506614
-0.0148039
-0.023881
-0.0323542
-0.0402557
-0.047608
-0.0544278
-0.0607411
-0.0665734
-0.0719987
-0.0770858
-0.0819482
-0.0865129
-0.0906247
-0.0941103
-0.0962844
)
;
    }
}


// ************************************************************************* //
