/*--------------------------------*- C++ -*----------------------------------*\
| =========                 |                                                 |
| \\      /  F ield         | OpenFOAM: The Open Source CFD Toolbox           |
|  \\    /   O peration     | Version:  2412                                  |
|   \\  /    A nd           | Website:  www.openfoam.com                      |
|    \\/     M anipulation  |                                                 |
\*---------------------------------------------------------------------------*/
FoamFile
{
    version     2.0;
    format      ascii;
    arch        "LSB;label=32;scalar=64";
    class       pointVectorField;
    location    "0.1";
    object      pointDisplacement;
}
// * * * * * * * * * * * * * * * * * * * * * * * * * * * * * * * * * * * * * //

dimensions      [0 1 0 0 0 0 0];

internalField   nonuniform List<vector> 
578
(
(0 0 0)
(0 0 0)
(0 0 0)
(0 0 0)
(0 0 0)
(0 0 0)
(0 0 0)
(0 0 0)
(0 0 0)
(-0.00706145 -3.55519e-05 0)
(-0.00688391 -0.00105366 0)
(-0.00646486 -0.00194619 0)
(-0.00576603 -0.00259348 0)
(-0.004892 -0.00293085 0)
(-0.00393664 -0.00293374 0)
(-0.00296618 -0.00261582 0)
(-0.00201052 -0.00200531 0)
(-0.00150258 -0.00159618 0)
(-0.013846 -9.68824e-05 0)
(-0.0135235 -0.00202313 0)
(-0.0127371 -0.00372792 0)
(-0.0114594 -0.00500352 0)
(-0.00986294 -0.00573433 0)
(-0.00810819 -0.00587056 0)
(-0.00632673 -0.00543845 0)
(-0.00456755 -0.00446906 0)
(-0.00362054 -0.00382832 0)
(-0.0202841 -0.0001781 0)
(-0.0198386 -0.00290781 0)
(-0.0187316 -0.00534414 0)
(-0.0169847 -0.00722055 0)
(-0.0148048 -0.00837978 0)
(-0.0124083 -0.0087588 0)
(-0.00996718 -0.0083797 0)
(-0.00755464 -0.00727236 0)
(-0.0062175 -0.00655055 0)
(-0.0263985 -0.000273655 0)
(-0.0258477 -0.00372193 0)
(-0.0244733 -0.00682351 0)
(-0.0223485 -0.00927446 0)
(-0.0197067 -0.0108893 0)
(-0.0168003 -0.0115939 0)
(-0.0138336 -0.011404 0)
(-0.0108949 -0.0103409 0)
(-0.00921512 -0.00967912 0)
(-0.0322239 -0.000380468 0)
(-0.031587 -0.00447942 0)
(-0.0299958 -0.00819299 0)
(-0.0275724 -0.0111966 0)
(-0.0245679 -0.0132853 0)
(-0.0212596 -0.0143764 0)
(-0.0178729 -0.0144776 0)
(-0.0145191 -0.0136106 0)
(-0.0125282 -0.0131204 0)
(-0.0377749 -0.000497683 0)
(-0.0370685 -0.0051891 0)
(-0.0353104 -0.00946996 0)
(-0.0326583 -0.0130051 0)
(-0.0293782 -0.0155796 0)
(-0.0257595 -0.0171035 0)
(-0.0220445 -0.0175774 0)
(-0.0183641 -0.0170246 0)
(-0.0160923 -0.0168046 0)
(-0.0430789 -0.000626061 0)
(-0.0423188 -0.00586027 0)
(-0.0404387 -0.0106699 0)
(-0.0376214 -0.014719 0)
(-0.034138 -0.0177869 0)
(-0.0302848 -0.0197783 0)
(-0.0263145 -0.0206864 0)
(-0.0223806 -0.0205428 0)
(-0.019842 -0.0206641 0)
(-0.048146 -0.000767016 0)
(-0.047348 -0.00649858 0)
(-0.0453877 -0.0118012 0)
(-0.0424616 -0.0163475 0)
(-0.0388413 -0.0199148 0)
(-0.0348217 -0.0224026 0)
(-0.0306566 -0.0237956 0)
(-0.0265234 -0.0241313 0)
(-0.023736 -0.0246595 0)
(-0.052995 -0.000923367 0)
(-0.0521741 -0.00710892 0)
(-0.0501728 -0.0128731 0)
(-0.0471907 -0.0179006 0)
(-0.043493 -0.0219719 0)
(-0.0393587 -0.0249792 0)
(-0.0350588 -0.0269021 0)
(-0.0307802 -0.0277881 0)
(-0.0277439 -0.0287695 0)
(-0.0576315 -0.00110089 0)
(-0.056803 -0.00769604 0)
(-0.0547976 -0.0138876 0)
(-0.051808 -0.0193807 0)
(-0.0480832 -0.0239569 0)
(-0.0439063 -0.0275099 0)
(-0.0395304 -0.0300168 0)
(-0.0351382 -0.0315092 0)
(-0.031856 -0.0329973 0)
(-0.0620612 -0.0013046 0)
(-0.0612403 -0.00826267 0)
(-0.059264 -0.0148484 0)
(-0.0563173 -0.020786 0)
(-0.0526381 -0.0258699 0)
(-0.0484784 -0.0299952 0)
(-0.0440713 -0.0331308 0)
(-0.0395959 -0.035303 0)
(-0.0360472 -0.0373482 0)
(-0.066274 -0.00154796 0)
(-0.0654704 -0.00881731 0)
(-0.063564 -0.0157532 0)
(-0.0607261 -0.0221076 0)
(-0.0571561 -0.027694 0)
(-0.0530676 -0.0324194 0)
(-0.0486698 -0.0362355 0)
(-0.0441155 -0.0391535 0)
(-0.0402713 -0.0418168 0)
(-0.0702312 -0.00185159 0)
(-0.0694561 -0.00935921 0)
(-0.0676701 -0.016585 0)
(-0.0649958 -0.023319 0)
(-0.0615914 -0.0294035 0)
(-0.057623 -0.0347471 0)
(-0.0532506 -0.0392959 0)
(-0.0486159 -0.0430311 0)
(-0.0444408 -0.0463807 0)
(-0.0738284 -0.00225056 0)
(-0.0730962 -0.00989776 0)
(-0.0714564 -0.0173293 0)
(-0.0689855 -0.0243836 0)
(-0.0657857 -0.0309397 0)
(-0.061968 -0.0369058 0)
(-0.0576438 -0.0422226 0)
(-0.0529315 -0.0468428 0)
(-0.0483623 -0.0509642 0)
(-0.0767477 -0.00276688 0)
(-0.0760561 -0.0104259 0)
(-0.0745646 -0.0179421 0)
(-0.0723095 -0.0252142 0)
(-0.0693332 -0.0321566 0)
(-0.0656954 -0.0386891 0)
(-0.0614538 -0.0447464 0)
(-0.0566798 -0.0502699 0)
(-0.0516039 -0.0552693 0)
(-0.0781658 -0.00305963 0)
(-0.0774895 -0.0107065 0)
(-0.076067 -0.0182502 0)
(-0.0739118 -0.0256182 0)
(-0.0710449 -0.0327395 0)
(-0.0674938 -0.0395455 0)
(-0.0632927 -0.0459706 0)
(-0.058482 -0.051953 0)
(-0.0531081 -0.0574351 0)
(0 0 0)
(0 0 0)
(0 0 0)
(0 0 0)
(0 0 0)
(0 0 0)
(0 0 0)
(0 0 0)
(0 0 0)
(-0.00706145 -3.55519e-05 0)
(-0.00688391 -0.00105366 0)
(-0.00646486 -0.00194619 0)
(-0.00576603 -0.00259348 0)
(-0.004892 -0.00293085 0)
(-0.00393664 -0.00293374 0)
(-0.00296618 -0.00261582 0)
(-0.00201052 -0.00200531 0)
(-0.00150258 -0.00159618 0)
(-0.013846 -9.68824e-05 0)
(-0.0135235 -0.00202313 0)
(-0.0127371 -0.00372792 0)
(-0.0114594 -0.00500352 0)
(-0.00986294 -0.00573433 0)
(-0.00810819 -0.00587056 0)
(-0.00632673 -0.00543845 0)
(-0.00456755 -0.00446906 0)
(-0.00362054 -0.00382832 0)
(-0.0202841 -0.0001781 0)
(-0.0198386 -0.00290781 0)
(-0.0187316 -0.00534414 0)
(-0.0169847 -0.00722055 0)
(-0.0148048 -0.00837978 0)
(-0.0124083 -0.0087588 0)
(-0.00996718 -0.0083797 0)
(-0.00755464 -0.00727236 0)
(-0.0062175 -0.00655055 0)
(-0.0263985 -0.000273655 0)
(-0.0258477 -0.00372193 0)
(-0.0244733 -0.00682351 0)
(-0.0223485 -0.00927446 0)
(-0.0197067 -0.0108893 0)
(-0.0168003 -0.0115939 0)
(-0.0138336 -0.011404 0)
(-0.0108949 -0.0103409 0)
(-0.00921512 -0.00967912 0)
(-0.0322239 -0.000380468 0)
(-0.031587 -0.00447942 0)
(-0.0299958 -0.00819299 0)
(-0.0275724 -0.0111966 0)
(-0.0245679 -0.0132853 0)
(-0.0212596 -0.0143764 0)
(-0.0178729 -0.0144776 0)
(-0.0145191 -0.0136106 0)
(-0.0125282 -0.0131204 0)
(-0.0377749 -0.000497683 0)
(-0.0370685 -0.0051891 0)
(-0.0353104 -0.00946996 0)
(-0.0326583 -0.0130051 0)
(-0.0293782 -0.0155796 0)
(-0.0257595 -0.0171035 0)
(-0.0220445 -0.0175774 0)
(-0.0183641 -0.0170246 0)
(-0.0160923 -0.0168046 0)
(-0.0430789 -0.000626061 0)
(-0.0423188 -0.00586027 0)
(-0.0404387 -0.0106699 0)
(-0.0376214 -0.014719 0)
(-0.034138 -0.0177869 0)
(-0.0302848 -0.0197783 0)
(-0.0263145 -0.0206864 0)
(-0.0223806 -0.0205428 0)
(-0.019842 -0.0206641 0)
(-0.048146 -0.000767016 0)
(-0.047348 -0.00649858 0)
(-0.0453877 -0.0118012 0)
(-0.0424616 -0.0163475 0)
(-0.0388413 -0.0199148 0)
(-0.0348217 -0.0224026 0)
(-0.0306566 -0.0237956 0)
(-0.0265234 -0.0241313 0)
(-0.023736 -0.0246595 0)
(-0.052995 -0.000923367 0)
(-0.0521741 -0.00710892 0)
(-0.0501728 -0.0128731 0)
(-0.0471907 -0.0179006 0)
(-0.043493 -0.0219719 0)
(-0.0393587 -0.0249792 0)
(-0.0350588 -0.0269021 0)
(-0.0307802 -0.0277881 0)
(-0.0277439 -0.0287695 0)
(-0.0576315 -0.00110089 0)
(-0.056803 -0.00769604 0)
(-0.0547976 -0.0138876 0)
(-0.051808 -0.0193807 0)
(-0.0480832 -0.0239569 0)
(-0.0439063 -0.0275099 0)
(-0.0395304 -0.0300168 0)
(-0.0351382 -0.0315092 0)
(-0.031856 -0.0329973 0)
(-0.0620612 -0.0013046 0)
(-0.0612403 -0.00826267 0)
(-0.059264 -0.0148484 0)
(-0.0563173 -0.020786 0)
(-0.0526381 -0.0258699 0)
(-0.0484784 -0.0299952 0)
(-0.0440713 -0.0331308 0)
(-0.0395959 -0.035303 0)
(-0.0360472 -0.0373482 0)
(-0.066274 -0.00154796 0)
(-0.0654704 -0.00881731 0)
(-0.063564 -0.0157532 0)
(-0.0607261 -0.0221076 0)
(-0.0571561 -0.027694 0)
(-0.0530676 -0.0324194 0)
(-0.0486698 -0.0362355 0)
(-0.0441155 -0.0391535 0)
(-0.0402713 -0.0418168 0)
(-0.0702312 -0.00185159 0)
(-0.0694561 -0.00935921 0)
(-0.0676701 -0.016585 0)
(-0.0649958 -0.023319 0)
(-0.0615914 -0.0294035 0)
(-0.057623 -0.0347471 0)
(-0.0532506 -0.0392959 0)
(-0.0486159 -0.0430311 0)
(-0.0444408 -0.0463807 0)
(-0.0738284 -0.00225056 0)
(-0.0730962 -0.00989776 0)
(-0.0714564 -0.0173293 0)
(-0.0689855 -0.0243836 0)
(-0.0657857 -0.0309397 0)
(-0.061968 -0.0369058 0)
(-0.0576438 -0.0422226 0)
(-0.0529315 -0.0468428 0)
(-0.0483623 -0.0509642 0)
(-0.0767477 -0.00276688 0)
(-0.0760561 -0.0104259 0)
(-0.0745646 -0.0179421 0)
(-0.0723095 -0.0252142 0)
(-0.0693332 -0.0321566 0)
(-0.0656954 -0.0386891 0)
(-0.0614538 -0.0447464 0)
(-0.0566798 -0.0502699 0)
(-0.0516039 -0.0552693 0)
(-0.0781658 -0.00305963 0)
(-0.0774895 -0.0107065 0)
(-0.076067 -0.0182502 0)
(-0.0739118 -0.0256182 0)
(-0.0710449 -0.0327395 0)
(-0.0674938 -0.0395455 0)
(-0.0632927 -0.0459706 0)
(-0.058482 -0.051953 0)
(-0.0531081 -0.0574351 0)
(0 0 0)
(0 0 0)
(0 0 0)
(0 0 0)
(0 0 0)
(0 0 0)
(0 0 0)
(0 0 0)
(-0.00188772 -0.00210741 0)
(-0.00245388 -0.00305127 0)
(-0.00274489 -0.00399076 0)
(-0.00273197 -0.00487673 0)
(-0.00240907 -0.00565401 0)
(-0.00181138 -0.00629812 0)
(-0.000984348 -0.00674195 0)
(-1.4666e-05 -0.00694586 0)
(-0.00421298 -0.00476958 0)
(-0.00512131 -0.00651848 0)
(-0.00551027 -0.00823876 0)
(-0.00535317 -0.00986606 0)
(-0.00465255 -0.0113131 0)
(-0.0034603 -0.0124978 0)
(-0.0018574 -0.0133033 0)
(-6.9724e-06 -0.0136648 0)
(-0.00687695 -0.00787619 0)
(-0.00790943 -0.0102672 0)
(-0.00823766 -0.0126241 0)
(-0.00783613 -0.0148607 0)
(-0.00671567 -0.0168577 0)
(-0.00494133 -0.0184879 0)
(-0.00262296 -0.0195954 0)
(1.77471e-05 -0.0200705 0)
(-0.00980543 -0.0113366 0)
(-0.0107852 -0.0142398 0)
(-0.0109193 -0.0171037 0)
(-0.0101932 -0.0198351 0)
(-0.00862419 -0.0222877 0)
(-0.00628189 -0.0242843 0)
(-0.0032981 -0.0256271 0)
(5.84087e-05 -0.0261815 0)
(-0.0129425 -0.0150795 0)
(-0.0137172 -0.0183791 0)
(-0.0135546 -0.0216518 0)
(-0.0124428 -0.0247857 0)
(-0.0103982 -0.0275977 0)
(-0.00749769 -0.0298794 0)
(-0.00389368 -0.0314074 0)
(0.000114678 -0.0320144 0)
(-0.0162327 -0.0190341 0)
(-0.016687 -0.0226493 0)
(-0.016143 -0.0262458 0)
(-0.0145917 -0.029694 0)
(-0.0120528 -0.0327877 0)
(-0.00860498 -0.0352843 0)
(-0.00441754 -0.0369415 0)
(0.000188979 -0.0375839 0)
(-0.0196376 -0.023152 0)
(-0.019674 -0.027013 0)
(-0.0186817 -0.0308681 0)
(-0.0166506 -0.034561 0)
(-0.0135985 -0.0378568 0)
(-0.00961111 -0.0404997 0)
(-0.00487389 -0.0422464 0)
(0.000283827 -0.0429066 0)
(-0.0231216 -0.0273936 0)
(-0.022665 -0.0314523 0)
(-0.0211669 -0.0355061 0)
(-0.018617 -0.0393724 0)
(-0.015039 -0.0428082 0)
(-0.0105231 -0.045545 0)
(-0.00526467 -0.0473356 0)
(0.000403441 -0.0479962 0)
(-0.0266676 -0.0317482 0)
(-0.0256445 -0.0359594 0)
(-0.0235883 -0.040153 0)
(-0.020489 -0.0441361 0)
(-0.0163722 -0.0476462 0)
(-0.0113362 -0.0504186 0)
(-0.00558579 -0.0522207 0)
(0.000553357 -0.0528677 0)
(-0.0302566 -0.03622 0)
(-0.0285977 -0.0405431 0)
(-0.0259308 -0.0448238 0)
(-0.0222484 -0.0488507 0)
(-0.0175854 -0.0523748 0)
(-0.0120436 -0.0551377 0)
(-0.00582994 -0.0569113 0)
(0.000741946 -0.0575282 0)
(-0.0338628 -0.0408187 0)
(-0.0314933 -0.0452217 0)
(-0.0281599 -0.0495316 0)
(-0.0238679 -0.0535415 0)
(-0.0186499 -0.0570109 0)
(-0.0126222 -0.0597022 0)
(-0.00598467 -0.0614139 0)
(0.000976752 -0.0619836 0)
(-0.0374332 -0.0455507 0)
(-0.034274 -0.0500121 0)
(-0.0302238 -0.0543016 0)
(-0.0252849 -0.0582224 0)
(-0.0195152 -0.0615655 0)
(-0.013034 -0.0641284 0)
(-0.00601666 -0.0657268 0)
(0.00127424 -0.0662186 0)
(-0.0408679 -0.0504115 0)
(-0.0368483 -0.0549086 0)
(-0.0320185 -0.0591231 0)
(-0.0264112 -0.0628903 0)
(-0.0201092 -0.0660331 0)
(-0.0132099 -0.0683893 0)
(-0.0058794 -0.0698165 0)
(0.00165768 -0.0702017 0)
(-0.0439551 -0.0553247 0)
(-0.0390063 -0.0598205 0)
(-0.0333701 -0.0638964 0)
(-0.0271158 -0.0674238 0)
(-0.0203186 -0.0702792 0)
(-0.0130772 -0.0723585 0)
(-0.00553414 -0.0735589 0)
(0.00214623 -0.0738225 0)
(-0.0462401 -0.0599991 0)
(-0.0403622 -0.0643995 0)
(-0.0339854 -0.0682299 0)
(-0.0271788 -0.0714209 0)
(-0.0200113 -0.0739153 0)
(-0.0125718 -0.0756588 0)
(-0.00495421 -0.0766112 0)
(0.00273634 -0.0767484 0)
(-0.0472227 -0.062364 0)
(-0.0408826 -0.0666923 0)
(-0.0341488 -0.0703784 0)
(-0.027086 -0.0733867 0)
(-0.0197625 -0.0756882 0)
(-0.0122486 -0.0772608 0)
(-0.00461669 -0.0780893 0)
(0.00305963 -0.0781658 0)
(0 0 0)
(0 0 0)
(0 0 0)
(0 0 0)
(0 0 0)
(0 0 0)
(0 0 0)
(0 0 0)
(-0.00188772 -0.00210741 0)
(-0.00245388 -0.00305127 0)
(-0.00274489 -0.00399076 0)
(-0.00273197 -0.00487673 0)
(-0.00240907 -0.00565401 0)
(-0.00181138 -0.00629812 0)
(-0.000984348 -0.00674195 0)
(-1.4666e-05 -0.00694586 0)
(-0.00421298 -0.00476958 0)
(-0.00512131 -0.00651848 0)
(-0.00551027 -0.00823876 0)
(-0.00535317 -0.00986606 0)
(-0.00465255 -0.0113131 0)
(-0.0034603 -0.0124978 0)
(-0.0018574 -0.0133033 0)
(-6.9724e-06 -0.0136648 0)
(-0.00687695 -0.00787619 0)
(-0.00790943 -0.0102672 0)
(-0.00823766 -0.0126241 0)
(-0.00783613 -0.0148607 0)
(-0.00671567 -0.0168577 0)
(-0.00494133 -0.0184879 0)
(-0.00262296 -0.0195954 0)
(1.77471e-05 -0.0200705 0)
(-0.00980543 -0.0113366 0)
(-0.0107852 -0.0142398 0)
(-0.0109193 -0.0171037 0)
(-0.0101932 -0.0198351 0)
(-0.00862419 -0.0222877 0)
(-0.00628189 -0.0242843 0)
(-0.0032981 -0.0256271 0)
(5.84087e-05 -0.0261815 0)
(-0.0129425 -0.0150795 0)
(-0.0137172 -0.0183791 0)
(-0.0135546 -0.0216518 0)
(-0.0124428 -0.0247857 0)
(-0.0103982 -0.0275977 0)
(-0.00749769 -0.0298794 0)
(-0.00389368 -0.0314074 0)
(0.000114678 -0.0320144 0)
(-0.0162327 -0.0190341 0)
(-0.016687 -0.0226493 0)
(-0.016143 -0.0262458 0)
(-0.0145917 -0.029694 0)
(-0.0120528 -0.0327877 0)
(-0.00860498 -0.0352843 0)
(-0.00441754 -0.0369415 0)
(0.000188979 -0.0375839 0)
(-0.0196376 -0.023152 0)
(-0.019674 -0.027013 0)
(-0.0186817 -0.0308681 0)
(-0.0166506 -0.034561 0)
(-0.0135985 -0.0378568 0)
(-0.00961111 -0.0404997 0)
(-0.00487389 -0.0422464 0)
(0.000283827 -0.0429066 0)
(-0.0231216 -0.0273936 0)
(-0.022665 -0.0314523 0)
(-0.0211669 -0.0355061 0)
(-0.018617 -0.0393724 0)
(-0.015039 -0.0428082 0)
(-0.0105231 -0.045545 0)
(-0.00526467 -0.0473356 0)
(0.000403441 -0.0479962 0)
(-0.0266676 -0.0317482 0)
(-0.0256445 -0.0359594 0)
(-0.0235883 -0.040153 0)
(-0.020489 -0.0441361 0)
(-0.0163722 -0.0476462 0)
(-0.0113362 -0.0504186 0)
(-0.00558579 -0.0522207 0)
(0.000553357 -0.0528677 0)
(-0.0302566 -0.03622 0)
(-0.0285977 -0.0405431 0)
(-0.0259308 -0.0448238 0)
(-0.0222484 -0.0488507 0)
(-0.0175854 -0.0523748 0)
(-0.0120436 -0.0551377 0)
(-0.00582994 -0.0569113 0)
(0.000741946 -0.0575282 0)
(-0.0338628 -0.0408187 0)
(-0.0314933 -0.0452217 0)
(-0.0281599 -0.0495316 0)
(-0.0238679 -0.0535415 0)
(-0.0186499 -0.0570109 0)
(-0.0126222 -0.0597022 0)
(-0.00598467 -0.0614139 0)
(0.000976752 -0.0619836 0)
(-0.0374332 -0.0455507 0)
(-0.034274 -0.0500121 0)
(-0.0302238 -0.0543016 0)
(-0.0252849 -0.0582224 0)
(-0.0195152 -0.0615655 0)
(-0.013034 -0.0641284 0)
(-0.00601666 -0.0657268 0)
(0.00127424 -0.0662186 0)
(-0.0408679 -0.0504115 0)
(-0.0368483 -0.0549086 0)
(-0.0320185 -0.0591231 0)
(-0.0264112 -0.0628903 0)
(-0.0201092 -0.0660331 0)
(-0.0132099 -0.0683893 0)
(-0.0058794 -0.0698165 0)
(0.00165768 -0.0702017 0)
(-0.0439551 -0.0553247 0)
(-0.0390063 -0.0598205 0)
(-0.0333701 -0.0638964 0)
(-0.0271158 -0.0674238 0)
(-0.0203186 -0.0702792 0)
(-0.0130772 -0.0723585 0)
(-0.00553414 -0.0735589 0)
(0.00214623 -0.0738225 0)
(-0.0462401 -0.0599991 0)
(-0.0403622 -0.0643995 0)
(-0.0339854 -0.0682299 0)
(-0.0271788 -0.0714209 0)
(-0.0200113 -0.0739153 0)
(-0.0125718 -0.0756588 0)
(-0.00495421 -0.0766112 0)
(0.00273634 -0.0767484 0)
(-0.0472227 -0.062364 0)
(-0.0408826 -0.0666923 0)
(-0.0341488 -0.0703784 0)
(-0.027086 -0.0733867 0)
(-0.0197625 -0.0756882 0)
(-0.0122486 -0.0772608 0)
(-0.00461669 -0.0780893 0)
(0.00305963 -0.0781658 0)
)
;

boundaryField
{
    walls
    {
        type            fixedValue;
        value           uniform (0 0 0);
    }
    cylinder
    {
        type            solidBodyMotionDisplacement;
        value           nonuniform List<vector> 
34
(
(-0.0781658 -0.00305963 0)
(-0.0781658 -0.00305963 0)
(-0.0774895 -0.0107065 0)
(-0.0774895 -0.0107065 0)
(-0.076067 -0.0182502 0)
(-0.076067 -0.0182502 0)
(-0.0739118 -0.0256182 0)
(-0.0739118 -0.0256182 0)
(-0.0710449 -0.0327395 0)
(-0.0710449 -0.0327395 0)
(-0.0674938 -0.0395455 0)
(-0.0674938 -0.0395455 0)
(-0.0632927 -0.0459706 0)
(-0.0632927 -0.0459706 0)
(-0.058482 -0.051953 0)
(-0.058482 -0.051953 0)
(-0.0531081 -0.0574351 0)
(-0.0531081 -0.0574351 0)
(-0.0472227 -0.062364 0)
(-0.0472227 -0.062364 0)
(-0.0408826 -0.0666923 0)
(-0.0408826 -0.0666923 0)
(-0.0341488 -0.0703784 0)
(-0.0341488 -0.0703784 0)
(-0.027086 -0.0733867 0)
(-0.027086 -0.0733867 0)
(-0.0197625 -0.0756882 0)
(-0.0197625 -0.0756882 0)
(-0.0122486 -0.0772608 0)
(-0.0122486 -0.0772608 0)
(-0.00461669 -0.0780893 0)
(-0.00461669 -0.0780893 0)
(0.00305963 -0.0781658 0)
(0.00305963 -0.0781658 0)
)
;
        solidBodyMotionFunction oscillatingRotatingMotion;
        oscillatingRotatingMotionCoeffs
        {
            origin          ( 0 0 0 );
            axis            ( 0 0 1 );
            omega           1.5;
            amplitude       ( 0 0 30 );
        }
    }
    outlet
    {
        type            fixedValue;
        value           nonuniform List<vector> 0();
    }
    inlet
    {
        type            fixedValue;
        value           uniform (0 0 0);
    }
    frontAndBack
    {
        type            empty;
    }
    procBoundary2to0
    {
        type            processor;
    }
    procBoundary2to3
    {
        type            processor;
    }
}


// ************************************************************************* //
