/*--------------------------------*- C++ -*----------------------------------*\
| =========                 |                                                 |
| \\      /  F ield         | OpenFOAM: The Open Source CFD Toolbox           |
|  \\    /   O peration     | Version:  2412                                  |
|   \\  /    A nd           | Website:  www.openfoam.com                      |
|    \\/     M anipulation  |                                                 |
\*---------------------------------------------------------------------------*/
FoamFile
{
    version     2.0;
    format      ascii;
    arch        "LSB;label=32;scalar=64";
    class       surfaceScalarField;
    location    "990";
    object      phi;
}
// * * * * * * * * * * * * * * * * * * * * * * * * * * * * * * * * * * * * * //

dimensions      [0 3 -1 0 0 0 0];

oriented        oriented;

internalField   nonuniform List<scalar> 
12640
(
0.00549988
1.71973e-06
-0.0055003
0.00550002
-1.61114e-07
0.00550005
-2.87619e-08
0.00550006
-2.17331e-08
0.00550007
-3.10365e-09
0.00550007
-3.74967e-09
0.00550007
1.65502e-09
0.00550008
-9.07876e-10
0.00550008
1.96401e-09
0.00550008
-4.88916e-10
0.00550008
1.66067e-09
0.00550008
-3.628e-10
0.00550008
1.17192e-09
0.00550008
-1.98056e-10
0.00550009
6.80621e-10
0.00550009
-2.36641e-10
0.00550009
6.41538e-10
0.00550009
-2.47587e-10
0.00550009
3.29662e-10
0.00550009
-1.75491e-10
0.00550009
3.20715e-10
0.00550009
-9.28259e-11
0.00550009
3.29949e-10
0.00550009
-2.6652e-10
0.00550009
2.66402e-10
0.00550009
-1.04109e-10
0.00550009
1.8366e-10
0.00550009
-2.56937e-10
0.00550009
2.78645e-10
0.00550009
-3.11259e-10
0.00550009
2.53495e-10
0.00550009
-2.74067e-10
0.00550009
4.71993e-11
0.00550009
-2.86647e-10
0.00550009
-3.13886e-11
0.00550009
-3.43616e-10
0.00550009
2.54738e-11
0.00550009
-2.14263e-10
0.00550009
-1.60312e-10
-2.52025e-10
0.00550009
0.0187192
2.58765e-06
-0.0187198
0.0187194
-2.89028e-07
0.0187194
-3.34874e-09
0.0187195
-3.46537e-08
0.0187195
6.23811e-09
0.0187195
-3.15284e-09
0.0187195
7.98117e-09
0.0187195
1.13107e-09
0.0187195
5.81031e-09
0.0187195
1.21223e-09
0.0187195
4.20571e-09
0.0187195
6.73966e-10
0.0187195
2.41925e-09
0.0187195
3.7149e-10
0.0187195
1.6587e-09
0.0187195
2.71173e-10
0.0187195
1.37288e-09
0.0187195
9.23772e-11
0.0187195
1.2491e-09
0.0187195
5.73575e-10
0.0187195
1.14111e-09
0.0187195
6.03725e-10
0.0187195
1.54742e-09
0.0187195
7.44499e-10
0.0187195
1.37247e-09
0.0187195
9.4641e-10
0.0187195
1.39677e-09
0.0187195
1.14016e-09
0.0187195
1.45162e-09
0.0187195
9.28254e-10
0.0187195
1.56299e-09
0.0187195
1.47819e-09
0.0187195
1.84781e-09
0.0187195
1.27851e-09
0.0187195
1.86978e-09
0.0187195
6.9896e-10
0.0187195
2.12503e-09
0.0187195
4.58601e-09
0.0187195
2.98985e-09
-6.10859e-11
0.0187195
0.0369628
2.83809e-06
-0.0369632
0.0369629
-4.53488e-07
0.0369629
-1.59623e-08
0.0369629
-6.60629e-08
0.0369629
-4.28676e-09
0.0369629
-1.69721e-08
0.0369629
3.07404e-10
0.0369629
-6.8987e-09
0.036963
8.96213e-10
0.036963
-4.64283e-09
0.036963
8.11614e-11
0.036963
-4.38708e-09
0.036963
-9.44129e-10
0.036963
-3.73381e-09
0.036963
-1.40396e-09
0.036963
-3.56888e-09
0.036963
-1.50956e-09
0.036963
-2.82595e-09
0.036963
-1.47442e-09
0.036963
-2.26187e-09
0.036963
-1.13547e-09
0.036963
-1.73739e-09
0.036963
-7.90766e-10
0.036963
-1.4682e-09
0.036963
-2.91766e-10
0.036963
-1.18744e-09
0.036963
-4.04574e-10
0.036963
-8.82258e-10
0.036963
9.60533e-12
0.036963
-7.62936e-10
0.036963
-5.0941e-11
0.036963
-4.91709e-10
0.036963
3.22374e-10
0.036963
-6.04971e-10
0.036963
7.90366e-10
0.036963
-1.76902e-09
0.036963
1.19876e-09
0.036963
3.45119e-09
0.0369631
-2.02161e-09
3.94409e-09
0.036963
0.0617438
3.18372e-06
-0.061744
0.0617438
-3.90984e-07
0.0617437
5.95582e-08
0.0617438
-5.57932e-08
0.0617438
8.9002e-09
0.0617438
-1.97662e-08
0.0617438
2.87939e-09
0.0617438
-7.85236e-09
0.0617438
1.63463e-10
0.0617438
-6.57072e-09
0.0617439
-1.22639e-09
0.0617439
-6.48542e-09
0.0617439
-3.5158e-09
0.0617439
-6.01322e-09
0.0617439
-4.10646e-09
0.0617439
-5.203e-09
0.0617439
-3.54659e-09
0.0617439
-4.36822e-09
0.0617439
-3.11236e-09
0.0617439
-2.84824e-09
0.0617439
-2.4992e-09
0.0617439
-2.06193e-09
0.0617439
-1.21217e-09
0.0617439
-1.43053e-09
0.0617439
-6.3571e-10
0.0617439
-4.24211e-10
0.0617439
-1.22654e-11
0.0617439
7.51096e-11
0.061744
6.44937e-10
0.061744
-2.25634e-10
0.061744
1.38345e-09
0.061744
1.05766e-09
0.061744
2.15273e-09
0.061744
5.57267e-10
0.061744
6.56594e-09
0.061744
1.63611e-09
0.061744
1.06311e-09
0.061744
2.69362e-09
0.061744
4.95586e-09
6.5363e-09
0.061744
0.0949898
3.09844e-06
-0.0949899
0.0949897
-3.17124e-07
0.0949897
6.90972e-08
0.0949897
-8.07883e-08
0.0949897
-9.46395e-09
0.0949897
-2.92241e-08
0.0949897
-2.06413e-08
0.0949898
-2.26497e-08
0.0949898
-1.47214e-08
0.0949898
-1.99323e-08
0.0949898
-1.47585e-08
0.0949898
-1.81225e-08
0.0949898
-1.38535e-08
0.0949898
-1.65985e-08
0.0949899
-1.35214e-08
0.0949899
-1.36743e-08
0.0949899
-1.18552e-08
0.0949899
-1.33216e-08
0.0949899
-9.14846e-09
0.0949899
-1.00716e-08
0.0949899
-8.85059e-09
0.0949899
-9.62515e-09
0.0949899
-6.03042e-09
0.0949899
-7.02557e-09
0.0949899
-6.41402e-09
0.0949899
-5.44521e-09
0.0949899
-4.44747e-09
0.0949899
-4.9027e-09
0.0949899
-3.82013e-09
0.09499
-3.34141e-09
0.09499
-2.93375e-09
0.09499
-2.83637e-09
0.09499
-3.14134e-09
0.09499
2.57952e-09
0.09499
-5.77961e-09
0.09499
2.14987e-09
0.09499
3.58873e-09
0.09499
-5.00504e-09
0.09499
2.536e-09
-2.23323e-09
0.09499
0.13915
3.01016e-06
-0.13915
0.13915
-5.84988e-08
0.13915
1.6568e-07
0.13915
-2.9719e-08
0.13915
1.41692e-08
0.13915
-3.78264e-08
0.13915
-8.61821e-09
0.13915
-2.72971e-08
0.13915
-2.66403e-08
0.13915
-2.812e-08
0.13915
-2.17175e-08
0.13915
-2.65954e-08
0.13915
-2.11159e-08
0.13915
-2.41687e-08
0.13915
-2.01591e-08
0.13915
-1.98583e-08
0.13915
-1.88771e-08
0.13915
-1.77431e-08
0.13915
-1.54874e-08
0.13915
-1.3627e-08
0.13915
-1.33829e-08
0.13915
-1.14463e-08
0.13915
-9.71605e-09
0.13915
-8.38903e-09
0.13915
-8.44939e-09
0.13915
-7.37371e-09
0.13915
-5.08874e-09
0.13915
-6.20423e-09
0.13915
-3.07835e-09
0.13915
-4.29988e-09
0.13915
-1.12783e-09
0.13915
3.0601e-09
0.13915
-1.63512e-09
0.13915
-9.58747e-09
0.13915
1.09922e-08
0.13915
1.85054e-09
0.13915
-5.85208e-09
0.13915
-1.5386e-10
0.13915
8.15656e-09
4.79293e-09
0.13915
0.197329
2.72056e-06
-0.197329
0.197329
1.87465e-07
0.197329
2.06099e-07
0.197329
-2.10523e-08
0.197329
5.03694e-09
0.197329
-4.97102e-08
0.197329
-3.43482e-08
0.197329
-6.23872e-08
0.197329
-4.12793e-08
0.197329
-4.94465e-08
0.197329
-4.36984e-08
0.197329
-4.64529e-08
0.197329
-4.27345e-08
0.197329
-4.05813e-08
0.197329
-3.85006e-08
0.197329
-3.79408e-08
0.197329
-3.33847e-08
0.197329
-3.19764e-08
0.197329
-2.86726e-08
0.197329
-2.72306e-08
0.197329
-2.50135e-08
0.197329
-2.35952e-08
0.197329
-2.0983e-08
0.197329
-1.97542e-08
0.197329
-1.65522e-08
0.197329
-1.58155e-08
0.197329
-1.58937e-08
0.197329
-1.27248e-08
0.197329
-1.17126e-08
0.197329
-1.20788e-08
0.197329
-9.66758e-09
0.197329
-1.35954e-08
0.197329
3.53617e-09
0.197329
-1.35108e-08
0.197329
1.73293e-09
0.197329
-4.11491e-09
0.197329
-6.58902e-09
0.197329
-4.60104e-10
0.197329
-6.56332e-09
3.99075e-09
0.197329
0.273451
2.44686e-06
-0.273451
0.273451
5.09625e-07
0.273451
3.24329e-07
0.273451
6.82697e-08
0.273451
3.4122e-08
0.273451
-1.90474e-08
0.273451
-4.28019e-08
0.273451
-5.35568e-08
0.273451
-4.86533e-08
0.273451
-6.93241e-08
0.273451
-5.93254e-08
0.273451
-6.07332e-08
0.273451
-5.72285e-08
0.273451
-5.73629e-08
0.273451
-5.06138e-08
0.273451
-5.02127e-08
0.273451
-4.63029e-08
0.273451
-4.39201e-08
0.273451
-4.00871e-08
0.273451
-3.58091e-08
0.273451
-3.46497e-08
0.273451
-3.04982e-08
0.273451
-2.73131e-08
0.273451
-2.54259e-08
0.273451
-2.26906e-08
0.273451
-2.25299e-08
0.273451
-1.74229e-08
0.273451
-1.69422e-08
0.273451
-1.48621e-08
0.273451
-1.37573e-08
0.273451
-4.46811e-09
0.273451
-1.91508e-08
0.273451
-1.16423e-08
0.273451
-4.16957e-09
0.273451
-9.58163e-09
0.273451
4.3851e-09
0.273451
-1.15991e-08
0.273451
1.79406e-08
0.273451
-4.63278e-09
1.06066e-08
0.273451
0.372466
2.15566e-06
-0.372466
0.372466
7.53639e-07
0.372466
4.51291e-07
0.372466
1.11706e-07
0.372466
6.81457e-08
0.372466
-8.42514e-09
0.372466
-5.788e-08
0.372466
-9.33593e-08
0.372466
-8.83455e-08
0.372466
-9.0272e-08
0.372466
-7.91518e-08
0.372466
-8.91723e-08
0.372466
-8.68268e-08
0.372466
-8.17222e-08
0.372466
-7.88168e-08
0.372466
-7.43922e-08
0.372466
-6.96393e-08
0.372466
-6.50096e-08
0.372466
-6.28109e-08
0.372466
-5.69147e-08
0.372466
-5.25902e-08
0.372466
-4.69696e-08
0.372466
-4.55372e-08
0.372466
-4.18092e-08
0.372466
-3.83965e-08
0.372466
-3.48299e-08
0.372466
-3.3634e-08
0.372466
-2.86671e-08
0.372466
-2.7275e-08
0.372466
-3.51679e-08
0.372466
-2.29756e-08
0.372466
-1.75548e-08
0.372466
-3.65905e-09
0.372466
-1.3811e-08
0.372466
-2.67021e-08
0.372466
-2.15335e-08
0.372466
3.26835e-09
0.372466
-1.32448e-08
0.372466
5.11307e-09
-5.64136e-13
0.372466
0.500603
1.90943e-06
-0.500603
0.500603
1.02237e-06
0.500602
6.05716e-07
0.500602
2.52264e-07
0.500602
1.39107e-07
0.500602
6.65372e-09
0.500602
-4.90695e-08
0.500602
-5.82551e-08
0.500602
-1.11092e-07
0.500602
-9.64355e-08
0.500602
-1.13616e-07
0.500602
-1.0637e-07
0.500603
-1.0769e-07
0.500603
-1.05333e-07
0.500603
-1.01416e-07
0.500603
-9.44569e-08
0.500603
-8.81556e-08
0.500603
-8.59657e-08
0.500603
-7.87497e-08
0.500603
-7.66112e-08
0.500603
-6.59854e-08
0.500603
-6.4162e-08
0.500603
-5.76683e-08
0.500603
-5.63758e-08
0.500603
-5.11739e-08
0.500603
-4.48461e-08
0.500603
-4.19266e-08
0.500603
-3.8914e-08
0.500603
-3.91132e-08
0.500603
-2.74427e-08
0.500603
-3.85733e-08
0.500603
-1.02937e-08
0.500603
-4.2235e-08
0.500603
-1.02717e-08
0.500603
-3.32406e-09
0.500603
-2.78989e-08
0.500603
-1.2343e-08
0.500603
-3.59842e-09
0.500603
-1.47107e-09
-9.25129e-09
0.500603
0.665682
1.68791e-06
-0.665682
0.665682
1.2084e-06
0.665682
7.65653e-07
0.665682
3.65737e-07
0.665682
1.97965e-07
0.665682
6.4488e-08
0.665682
-2.299e-08
0.665682
-9.34371e-08
0.665682
-9.55719e-08
0.665682
-1.32981e-07
0.665682
-1.32997e-07
0.665682
-1.46538e-07
0.665682
-1.40963e-07
0.665682
-1.35081e-07
0.665682
-1.30264e-07
0.665682
-1.27401e-07
0.665682
-1.19892e-07
0.665682
-1.13691e-07
0.665682
-1.08724e-07
0.665682
-9.82357e-08
0.665682
-9.64448e-08
0.665682
-8.62867e-08
0.665682
-8.19638e-08
0.665682
-7.66164e-08
0.665682
-6.98704e-08
0.665682
-6.72843e-08
0.665682
-6.25773e-08
0.665682
-5.48875e-08
0.665682
-4.57218e-08
0.665682
-5.18051e-08
0.665682
-3.97594e-08
0.665683
-5.56105e-08
0.665682
-2.32797e-08
0.665683
-3.49734e-08
0.665683
-3.39661e-08
0.665683
-3.34311e-08
0.665683
-1.75234e-08
0.665683
-2.66594e-08
0.665683
-5.30227e-09
5.86757e-09
0.665683
0.877505
1.53725e-06
-0.877505
0.877505
1.36516e-06
0.877505
9.15511e-07
0.877505
5.06813e-07
0.877505
3.0301e-07
0.877505
1.40399e-07
0.877505
-9.39309e-09
0.877505
-2.23826e-08
0.877505
-1.29182e-07
0.877505
-1.19431e-07
0.877505
-1.42248e-07
0.877505
-1.64999e-07
0.877505
-1.7726e-07
0.877505
-1.50789e-07
0.877505
-1.55506e-07
0.877505
-1.52552e-07
0.877505
-1.48153e-07
0.877505
-1.4114e-07
0.877505
-1.3158e-07
0.877505
-1.26903e-07
0.877505
-1.16421e-07
0.877505
-1.119e-07
0.877505
-1.02523e-07
0.877505
-9.57982e-08
0.877505
-9.09681e-08
0.877506
-8.68954e-08
0.877506
-8.93318e-08
0.877506
-5.78752e-08
0.877506
-6.17959e-08
0.877506
-7.08202e-08
0.877506
-7.151e-08
0.877506
-2.7555e-08
0.877506
-8.13383e-08
0.877506
-1.2189e-08
0.877506
-4.44124e-08
0.877506
-4.31523e-08
0.877506
-1.65862e-08
0.877506
-1.77867e-08
0.877506
-2.18025e-08
-2.30413e-08
0.877506
1.14833
1.4114e-06
-1.14833
1.14833
1.4264e-06
1.14833
1.04546e-06
1.14833
6.4974e-07
1.14833
4.03814e-07
1.14833
2.16862e-07
1.14833
1.20087e-07
1.14833
-5.33406e-08
1.14833
-6.21963e-08
1.14833
-1.23457e-07
1.14833
-1.48509e-07
1.14833
-1.95847e-07
1.14833
-1.78661e-07
1.14833
-1.7147e-07
1.14833
-1.91973e-07
1.14833
-1.82664e-07
1.14833
-1.73236e-07
1.14833
-1.69566e-07
1.14833
-1.62471e-07
1.14833
-1.52731e-07
1.14833
-1.4697e-07
1.14833
-1.37014e-07
1.14833
-1.29392e-07
1.14833
-1.24869e-07
1.14833
-1.13246e-07
1.14833
-1.00414e-07
1.14833
-1.15236e-07
1.14833
-9.80839e-08
1.14833
-6.63585e-08
1.14833
-9.1181e-08
1.14833
-8.19603e-08
1.14833
-9.36647e-08
1.14833
-2.97289e-08
1.14833
-9.69446e-08
1.14833
-4.92378e-08
1.14833
-4.6679e-08
1.14833
-2.98688e-08
1.14833
-1.7473e-08
1.14833
-1.12607e-08
-2.79429e-08
1.14833
1.49346
1.28106e-06
-1.49346
1.49346
1.41321e-06
1.49346
1.19068e-06
1.49346
7.5836e-07
1.49346
5.4469e-07
1.49346
3.39191e-07
1.49346
1.53998e-07
1.49346
1.21473e-08
1.49346
-6.11441e-09
1.49346
-1.14686e-07
1.49346
-1.4692e-07
1.49346
-1.45922e-07
1.49346
-2.23811e-07
1.49346
-1.936e-07
1.49346
-1.6722e-07
1.49346
-2.13587e-07
1.49346
-2.00978e-07
1.49346
-1.90752e-07
1.49346
-1.86696e-07
1.49346
-1.76487e-07
1.49346
-1.73505e-07
1.49346
-1.62439e-07
1.49346
-1.56624e-07
1.49346
-1.43614e-07
1.49346
-1.25977e-07
1.49346
-1.65048e-07
1.49346
-1.27613e-07
1.49346
-8.0688e-08
1.49346
-1.35343e-07
1.49346
-1.00365e-07
1.49346
-8.42744e-08
1.49346
-1.25977e-07
1.49346
-5.11704e-08
1.49346
-6.45304e-08
1.49346
-8.31291e-08
1.49346
-8.23117e-08
1.49346
-2.02239e-08
1.49346
-6.69133e-08
1.49346
3.0239e-09
-4.85759e-08
1.49346
1.93197
1.12391e-06
-1.93197
1.93197
1.41414e-06
1.93197
1.25947e-06
1.93197
8.62988e-07
1.93197
6.25792e-07
1.93197
4.69407e-07
1.93197
2.21983e-07
1.93197
1.38793e-07
1.93197
4.28082e-08
1.93197
-6.48541e-08
1.93197
-1.00267e-07
1.93197
-1.58056e-07
1.93197
-1.62246e-07
1.93197
-2.07532e-07
1.93197
-2.0898e-07
1.93197
-2.07621e-07
1.93197
-1.88725e-07
1.93197
-2.06153e-07
1.93197
-2.01174e-07
1.93197
-1.96875e-07
1.93197
-1.8932e-07
1.93197
-1.83227e-07
1.93197
-1.7481e-07
1.93197
-1.86734e-07
1.93197
-1.58956e-07
1.93197
-1.45162e-07
1.93197
-1.28875e-07
1.93197
-1.4924e-07
1.93197
-1.19916e-07
1.93197
-1.30951e-07
1.93197
-1.03777e-07
1.93197
-1.28498e-07
1.93197
-1.13682e-07
1.93197
-5.14734e-08
1.93197
-1.18374e-07
1.93197
-6.47453e-08
1.93197
-3.23965e-08
1.93197
-9.00526e-08
1.93197
-5.62781e-08
-2.79241e-08
1.93197
2.48761
9.91173e-07
-2.48761
2.48761
1.30565e-06
2.48761
1.19821e-06
2.48761
9.25069e-07
2.48761
7.72925e-07
2.48761
5.19878e-07
2.48761
3.68488e-07
2.48761
1.63377e-07
2.48761
1.14621e-07
2.48761
3.73669e-08
2.48761
-8.45414e-08
2.48761
-6.87887e-08
2.48761
-1.32533e-07
2.48761
-1.97241e-07
2.48761
-1.80293e-07
2.48761
-2.29961e-07
2.48761
-2.01158e-07
2.48761
-1.83654e-07
2.48761
-2.10399e-07
2.48761
-1.95981e-07
2.48761
-2.07254e-07
2.48761
-1.89919e-07
2.48761
-2.11288e-07
2.48761
-1.84927e-07
2.48761
-1.42812e-07
2.48761
-1.74278e-07
2.48761
-1.32548e-07
2.48761
-1.63958e-07
2.48761
-1.83605e-07
2.48761
-1.09991e-07
2.48761
-1.57756e-07
2.48761
-1.40085e-07
2.48761
-6.6355e-08
2.48761
-1.17675e-07
2.48761
-9.17564e-08
2.48761
-1.43176e-07
2.48761
-5.52085e-08
2.48761
-5.33864e-08
2.48761
-7.83992e-08
-6.7612e-08
2.48761
3.18992
8.51255e-07
-3.18992
3.18992
1.1135e-06
3.18992
1.11793e-06
3.18992
9.73179e-07
3.18992
7.80316e-07
3.18992
6.29333e-07
3.18992
4.12123e-07
3.18992
3.06477e-07
3.18992
1.47173e-07
3.18992
1.31149e-07
3.18992
3.02451e-08
3.18992
-4.71226e-08
3.18992
-1.32108e-07
3.18992
-1.23419e-07
3.18992
-1.17776e-07
3.18992
-1.94872e-07
3.18992
-1.76654e-07
3.18992
-1.59263e-07
3.18992
-2.11931e-07
3.18992
-1.93907e-07
3.18992
-1.94357e-07
3.18992
-1.72335e-07
3.18992
-2.17681e-07
3.18992
-1.87747e-07
3.18992
-1.52335e-07
3.18992
-2.05635e-07
3.18992
-1.68911e-07
3.18992
-1.19558e-07
3.18992
-1.52693e-07
3.18992
-1.64511e-07
3.18992
-1.84378e-07
3.18992
-9.93204e-08
3.18992
-1.36267e-07
3.18992
-9.29133e-08
3.18992
-1.45395e-07
3.18992
-1.23622e-07
3.18992
-1.13903e-07
3.18992
-6.13698e-08
3.18992
-5.76984e-08
-1.08928e-07
3.18992
4.0756
6.71054e-07
-4.0756
4.0756
9.63065e-07
4.0756
9.9853e-07
4.0756
9.57887e-07
4.0756
7.20742e-07
4.0756
6.8979e-07
4.0756
4.52651e-07
4.0756
3.42015e-07
4.0756
3.00737e-07
4.0756
1.40487e-07
4.0756
6.87531e-08
4.0756
4.1976e-08
4.0756
-4.28048e-08
4.0756
-7.3323e-08
4.0756
-1.52129e-07
4.0756
-1.05587e-07
4.0756
-1.54832e-07
4.0756
-1.72145e-07
4.0756
-1.21008e-07
4.0756
-1.98712e-07
4.0756
-1.48453e-07
4.0756
-2.214e-07
4.0756
-1.61182e-07
4.0756
-1.63878e-07
4.0756
-1.92776e-07
4.0756
-1.19138e-07
4.0756
-1.627e-07
4.0756
-1.49201e-07
4.0756
-1.78337e-07
4.0756
-1.38136e-07
4.0756
-1.27695e-07
4.0756
-1.93489e-07
4.0756
-1.15826e-07
4.0756
-9.69745e-08
4.0756
-1.92392e-07
4.0756
-8.59789e-08
4.0756
-1.63092e-07
4.0756
-7.54757e-08
4.0756
-9.20918e-08
-9.88775e-08
4.0756
5.19022
5.58027e-07
-5.19022
5.19022
7.86074e-07
5.19022
9.71751e-07
5.19022
7.48056e-07
5.19022
7.13056e-07
5.19022
6.42357e-07
5.19022
4.11712e-07
5.19022
4.10232e-07
5.19022
2.71515e-07
5.19022
2.13684e-07
5.19022
6.92316e-08
5.19022
5.20212e-08
5.19022
1.06241e-08
5.19022
-3.606e-08
5.19022
-4.37015e-08
5.19022
-1.02531e-07
5.19022
-1.00634e-07
5.19022
-1.18367e-07
5.19022
-1.20884e-07
5.19022
-2.03772e-07
5.19022
-9.19002e-08
5.19022
-1.69679e-07
5.19022
-1.62513e-07
5.19022
-1.6531e-07
5.19022
-1.42182e-07
5.19022
-1.73017e-07
5.19022
-1.46447e-07
5.19022
-1.48865e-07
5.19022
-1.37974e-07
5.19022
-9.09335e-08
5.19022
-1.62833e-07
5.19022
-1.30085e-07
5.19022
-1.72755e-07
5.19022
-5.94462e-08
5.19022
-1.82969e-07
5.19022
-1.40352e-07
5.19022
-6.14065e-08
5.19022
-1.87772e-07
5.19022
-7.14117e-08
-9.49878e-08
5.19022
6.59041
5.44618e-07
-6.59041
6.59041
6.53774e-07
6.59041
8.66296e-07
6.59041
6.3522e-07
6.59041
5.74419e-07
6.59041
5.17876e-07
6.59041
4.43954e-07
6.59041
4.2481e-07
6.59041
2.09073e-07
6.59041
1.82686e-07
6.59041
1.29307e-07
6.59041
1.32602e-07
6.59041
-2.84982e-08
6.59041
-1.48478e-08
6.59041
5.77567e-08
6.59041
-1.39993e-07
6.59041
-1.36135e-08
6.59041
-8.60269e-08
6.59041
-1.00665e-07
6.59041
-1.83362e-07
6.59041
-4.65791e-08
6.59041
-1.24624e-07
6.59041
-1.30013e-07
6.59041
-1.88422e-07
6.59041
-4.20811e-08
6.59041
-2.14679e-07
6.59041
-1.10191e-07
6.59041
-5.80082e-08
6.59041
-1.71683e-07
6.59041
-1.14051e-07
6.59041
-1.02165e-07
6.59041
-5.78593e-08
6.59041
-1.88887e-07
6.59041
-1.23039e-07
6.59041
-1.07312e-07
6.59041
-8.12222e-08
6.59041
-4.56762e-08
6.59041
-1.96628e-07
6.59041
-1.07648e-08
-1.3234e-07
6.59041
7.34497
5.04627e-07
-7.34497
7.34497
6.94366e-07
7.34497
6.80095e-07
7.34497
6.76662e-07
7.34497
5.65798e-07
7.34497
3.96578e-07
7.34497
3.82089e-07
7.34497
3.41813e-07
7.34497
2.47976e-07
7.34497
2.58655e-07
7.34497
8.82977e-08
7.34497
1.22608e-07
7.34497
1.91262e-08
7.34497
1.24029e-07
7.34497
-4.1733e-08
7.34497
2.76249e-08
7.34497
-1.03061e-07
7.34497
-4.42419e-09
7.34497
-9.35521e-08
7.34497
-7.97967e-08
7.34497
-6.11179e-08
7.34497
-4.36416e-08
7.34497
-1.24188e-07
7.34497
-1.27002e-08
7.34497
-1.26e-07
7.34497
-3.40072e-08
7.34497
-1.71745e-07
7.34497
-3.30315e-08
7.34497
-9.6411e-08
7.34497
-1.50491e-08
7.34497
-1.32124e-07
7.34497
-6.13901e-08
7.34497
-9.07749e-08
7.34497
-6.14448e-08
7.34497
-7.32623e-09
7.34497
-1.06683e-07
7.34497
-1.44911e-07
7.34497
-6.14443e-08
7.34497
-5.55185e-08
-3.14407e-08
7.34497
7.12136
4.62564e-07
-7.12136
7.12136
7.24548e-07
7.12136
6.06918e-07
7.12136
4.40791e-07
7.12136
4.50166e-07
7.12136
4.48166e-07
7.12136
4.33516e-07
7.12136
2.72913e-07
7.12136
2.86108e-07
7.12136
1.95394e-07
7.12136
1.68705e-07
7.12136
9.06076e-08
7.12136
5.65173e-08
7.12136
4.03893e-08
7.12136
8.89697e-08
7.12136
-5.29978e-09
7.12136
-6.75267e-08
7.12136
6.04421e-08
7.12136
-4.9581e-08
7.12136
6.53135e-08
7.12136
-1.30365e-07
7.12136
-1.21924e-08
7.12136
-1.14344e-07
7.12136
2.50108e-08
7.12136
-2.19438e-08
7.12136
-9.59491e-08
7.12136
-2.26548e-08
7.12136
-9.46424e-09
7.12136
-8.65893e-09
7.12136
-4.73098e-08
7.12136
-2.89951e-08
7.12136
-7.1623e-08
7.12136
-7.25827e-09
7.12136
-1.15649e-07
7.12136
-7.50273e-08
7.12136
-2.58076e-08
7.12136
3.73262e-08
7.12136
-5.48223e-08
7.12136
-1.1837e-07
6.68652e-09
7.12136
6.78145
3.80796e-07
-6.78145
6.78145
6.7316e-07
6.78145
4.95143e-07
6.78145
4.00736e-07
6.78145
4.3917e-07
6.78145
3.11736e-07
6.78145
4.01849e-07
6.78145
2.13682e-07
6.78145
2.9966e-07
6.78145
2.31762e-07
6.78145
1.2784e-07
6.78145
1.58265e-07
6.78145
1.1525e-08
6.78145
1.80649e-07
6.78145
-1.13304e-08
6.78145
1.09308e-07
6.78145
4.80024e-09
6.78145
2.2712e-08
6.78145
-4.6711e-08
6.78145
-1.52203e-08
6.78145
1.57979e-08
6.78145
5.01226e-08
6.78145
-1.22233e-08
6.78145
1.58238e-08
6.78145
-7.51851e-08
6.78145
6.38173e-08
6.78145
-1.06467e-07
6.78145
8.85705e-08
6.78145
-2.80913e-08
6.78145
3.61931e-08
6.78145
-3.05358e-08
6.78145
-5.88173e-08
6.78145
6.58676e-08
6.78145
-8.42799e-08
6.78145
4.5524e-08
6.78145
-4.59602e-08
6.78145
1.92545e-08
6.78145
-2.6375e-08
6.78145
-1.31514e-07
8.83846e-08
6.78145
6.37252
3.32821e-07
-6.37252
6.37252
4.68497e-07
6.37252
3.43746e-07
6.37252
3.87704e-07
6.37252
2.80178e-07
6.37252
3.29198e-07
6.37252
2.8932e-07
6.37252
3.01616e-07
6.37252
1.84862e-07
6.37252
2.57406e-07
6.37252
9.16015e-08
6.37252
2.088e-07
6.37252
4.53517e-08
6.37252
1.3093e-07
6.37252
4.1976e-08
6.37252
5.12896e-08
6.37252
1.08066e-07
6.37252
-2.18186e-08
6.37252
3.47049e-08
6.37252
1.29417e-07
6.37252
-9.27046e-08
6.37252
4.73645e-09
6.37252
6.7332e-08
6.37252
-5.37863e-08
6.37252
1.54127e-08
6.37252
4.07355e-08
6.37252
-2.92531e-08
6.37252
7.90785e-08
6.37252
-5.86996e-08
6.37252
8.75463e-08
6.37252
-4.81483e-08
6.37252
5.69567e-08
6.37252
-3.16972e-08
6.37252
5.91383e-09
6.37252
-9.29643e-09
6.37252
6.07979e-08
6.37252
-4.72541e-08
6.37252
8.90591e-09
6.37252
-4.53844e-08
6.91774e-08
6.37252
5.92783
3.32357e-07
-5.92783
5.92783
3.49898e-07
5.92783
1.01359e-07
5.92783
3.39368e-07
5.92783
2.27109e-07
5.92783
3.30378e-07
5.92783
2.49521e-07
5.92783
2.9319e-07
5.92783
1.55662e-07
5.92783
2.04665e-07
5.92783
2.92393e-07
5.92783
4.99124e-08
5.92783
1.93913e-07
5.92783
1.23209e-07
5.92783
8.87012e-08
5.92783
-3.91958e-08
5.92783
3.30382e-08
5.92783
1.94445e-07
5.92783
3.62303e-08
5.92783
1.11286e-07
5.92783
-3.75136e-08
5.92783
4.0433e-08
5.92783
-1.12619e-07
5.92783
5.70415e-08
5.92783
1.4042e-07
5.92783
2.70953e-08
5.92783
9.65565e-09
5.92783
-4.02182e-08
5.92783
1.26393e-07
5.92783
-9.05782e-08
5.92783
2.31282e-08
5.92783
9.91214e-08
5.92783
-1.70159e-08
5.92783
4.22922e-08
5.92783
-2.61566e-08
5.92783
8.44994e-08
5.92783
-5.15927e-08
5.92783
1.53469e-07
5.92783
-4.26441e-08
2.1364e-08
5.92783
5.47055
3.01496e-07
-5.47055
5.47055
2.52475e-08
5.47055
1.66861e-07
5.47055
2.85444e-07
5.47055
2.36185e-07
5.47055
1.88496e-07
5.47055
2.91488e-07
5.47055
2.56661e-07
5.47055
2.33677e-07
5.47055
4.6434e-08
5.47055
1.71749e-07
5.47055
2.29009e-07
5.47055
4.18956e-08
5.47055
2.10554e-07
5.47055
1.0125e-07
5.47055
2.19019e-08
5.47055
7.1501e-08
5.47055
3.47824e-08
5.47055
1.48397e-07
5.47055
1.26716e-08
5.47055
6.71482e-08
5.47055
-6.60538e-08
5.47055
5.23523e-08
5.47055
2.33739e-08
5.47055
8.25846e-08
5.47055
1.66135e-08
5.47055
-7.73672e-08
5.47055
1.10681e-07
5.47055
-5.71387e-08
5.47055
2.36876e-08
5.47055
1.71188e-07
5.47055
6.94977e-09
5.47055
5.99625e-10
5.47055
-2.48057e-08
5.47055
8.06067e-08
5.47055
2.96339e-08
5.47055
-6.1083e-08
5.47055
-1.92883e-08
5.47055
1.38685e-07
-4.50781e-08
5.47055
5.01663
2.58774e-07
-5.01663
5.01663
-2.35176e-09
5.01663
5.95506e-08
5.01663
1.84268e-07
5.01663
1.19248e-07
5.01663
2.3133e-07
5.01663
2.8181e-07
5.01663
2.78454e-07
5.01663
1.08067e-07
5.01663
2.93909e-07
5.01663
1.28866e-07
5.01663
9.17793e-08
5.01663
2.1058e-07
5.01663
3.00597e-08
5.01663
6.90049e-08
5.01663
5.8999e-08
5.01663
1.59884e-07
5.01663
-2.77589e-08
5.01663
5.57404e-08
5.01663
6.04203e-08
5.01663
3.42306e-08
5.01663
4.13169e-08
5.01663
1.29166e-07
5.01663
-5.13166e-08
5.01663
5.84485e-08
5.01663
6.10622e-08
5.01663
1.14053e-07
5.01663
-4.78127e-08
5.01663
8.86523e-08
5.01663
7.42998e-08
5.01663
-7.02398e-08
5.01663
1.37242e-07
5.01663
-1.81686e-08
5.01663
-1.41519e-08
5.01663
3.35445e-08
5.01663
1.35009e-07
5.01663
1.7298e-08
5.01663
2.84661e-08
5.01663
5.80898e-08
-7.08377e-08
5.01663
4.57675
-2.42356e-08
-4.57675
4.57675
-1.51379e-08
4.57675
-3.55992e-08
4.57675
1.67936e-07
4.57675
2.24119e-07
4.57675
1.74814e-07
4.57675
2.0583e-07
4.57675
3.14379e-07
4.57675
1.1674e-07
4.57675
2.38531e-07
4.57675
1.07237e-07
4.57675
1.69394e-07
4.57675
-2.84178e-08
4.57675
1.13733e-07
4.57675
1.08245e-07
4.57675
7.021e-08
4.57675
6.52843e-08
4.57675
1.13684e-07
4.57675
5.10169e-08
4.57675
-1.04699e-07
4.57675
1.87451e-07
4.57675
3.374e-08
4.57675
-2.52117e-08
4.57675
2.98601e-08
4.57675
3.23457e-08
4.57675
6.3748e-09
4.57675
1.26935e-08
4.57675
1.72902e-07
4.57675
-9.88639e-09
4.57675
7.46188e-08
4.57675
-3.86843e-08
4.57675
1.05337e-07
4.57675
-7.95615e-08
4.57675
3.86116e-08
4.57675
6.34645e-08
4.57675
2.05818e-09
4.57675
2.90716e-10
4.57675
6.68151e-08
4.57675
-3.88232e-08
1.15572e-07
4.57675
4.1578
3.09107e-08
-4.1578
4.1578
-1.92634e-07
4.1578
5.72413e-08
4.1578
1.34866e-07
4.1578
2.26051e-07
4.1578
1.69534e-07
4.1578
2.25068e-07
4.1578
1.86482e-07
4.1578
2.52201e-07
4.1578
1.40555e-07
4.1578
1.13604e-07
4.1578
9.3488e-09
4.1578
1.83029e-07
4.1578
4.81491e-08
4.1578
1.37525e-07
4.1578
3.34511e-08
4.1578
1.31216e-07
4.1578
5.26551e-08
4.1578
-1.17794e-07
4.1578
2.463e-07
4.1578
-1.6244e-07
4.1578
2.03495e-07
4.1578
3.58112e-08
4.1578
-3.62534e-08
4.1578
6.73868e-08
4.1578
-2.51463e-08
4.1578
7.42097e-08
4.1578
-4.33763e-08
4.1578
1.43454e-07
4.1578
6.10799e-08
4.1578
5.0913e-08
4.1578
-3.78657e-08
4.1578
4.1364e-08
4.1578
1.54533e-08
4.1578
6.71618e-08
4.1578
-2.51091e-10
4.1578
3.57127e-08
4.1578
-3.49414e-08
4.1578
8.20792e-08
-2.74518e-09
4.1578
3.76393
-1.65563e-07
-3.76393
3.76393
-7.79965e-08
3.76393
-5.03041e-08
3.76393
1.00252e-07
3.76393
1.69408e-07
3.76393
2.58237e-07
3.76393
1.01876e-07
3.76393
1.43759e-07
3.76393
2.29267e-07
3.76393
2.06218e-07
3.76393
-2.72183e-08
3.76393
2.19594e-07
3.76393
7.39136e-08
3.76393
1.31693e-08
3.76393
6.62627e-09
3.76393
7.8811e-09
3.76393
1.6747e-07
3.76393
1.73158e-08
3.76393
1.04501e-07
3.76393
7.97924e-08
3.76393
-1.32716e-08
3.76393
-3.5947e-08
3.76393
5.24797e-08
3.76393
-9.13434e-08
3.76393
7.2132e-08
3.76393
8.42604e-08
3.76393
8.47228e-08
3.76393
4.04221e-08
3.76393
-9.55518e-08
3.76393
1.72675e-07
3.76393
-4.78506e-08
3.76393
-4.66991e-08
3.76393
5.06646e-08
3.76393
1.09656e-07
3.76393
-4.82832e-08
3.76393
3.58742e-08
3.76393
5.70352e-08
3.76393
6.31067e-08
3.76393
-7.73562e-08
1.2194e-07
3.76393
3.39733
-1.32792e-07
-3.39733
3.39733
-2.29592e-08
3.39733
-9.69823e-08
3.39732
2.0641e-07
3.39732
1.85711e-07
3.39733
6.74889e-08
3.39732
2.14577e-07
3.39732
1.80639e-07
3.39733
1.28381e-07
3.39733
7.98396e-08
3.39733
3.23976e-08
3.39733
1.58448e-07
3.39733
1.43597e-07
3.39733
1.72055e-08
3.39732
5.8152e-08
3.39732
2.85185e-08
3.39733
2.66572e-08
3.39733
-2.28871e-09
3.39733
1.48255e-08
3.39733
6.15882e-08
3.39733
4.49761e-10
3.39733
4.92665e-08
3.39733
6.65785e-08
3.39732
4.3482e-08
3.39732
4.39774e-08
3.39733
2.43865e-08
3.39733
7.00515e-08
3.39733
-4.13495e-08
3.39733
-4.88621e-08
3.39733
9.70531e-08
3.39733
5.99019e-08
3.39732
3.49289e-08
3.39732
-5.65759e-09
3.39733
-2.03914e-08
3.39732
1.30217e-07
3.39732
1.33399e-08
3.39733
-4.28585e-08
3.39732
1.3063e-07
3.39733
-1.30752e-07
5.404e-08
3.39733
3.05879
-1.21152e-07
-3.05879
3.05879
-1.49468e-07
3.05879
1.23049e-07
3.05879
6.92716e-09
3.05879
1.22627e-07
3.05879
2.75322e-07
3.05879
9.94717e-09
3.05879
1.84404e-07
3.05879
1.78886e-07
3.05879
8.95058e-08
3.05879
6.47229e-08
3.05879
-2.17777e-08
3.05879
1.10978e-07
3.05879
-3.26844e-08
3.05879
1.50403e-07
3.05879
7.16327e-09
3.05879
-4.41276e-08
3.05879
3.6058e-08
3.05879
8.78998e-08
3.05879
3.28895e-08
3.05879
1.38996e-08
3.05879
-3.91678e-08
3.05879
1.19522e-08
3.05879
9.75664e-08
3.05879
4.65847e-08
3.05879
-8.7008e-08
3.05879
9.76572e-08
3.05879
-3.19627e-08
3.05879
1.04039e-07
3.05879
3.65587e-08
3.05879
1.6951e-08
3.05879
-4.89275e-08
3.05879
-4.68563e-08
3.05879
1.49573e-07
3.05879
-1.11715e-07
3.05879
5.06867e-08
3.05879
1.42589e-07
3.05879
-7.84572e-08
3.05879
4.963e-09
1.23493e-08
3.05879
2.74815
-1.45239e-07
-2.74815
2.74815
-1.15468e-07
2.74815
-6.26792e-10
2.74815
2.41282e-07
2.74815
3.21857e-08
2.74815
1.9522e-07
2.74815
6.93869e-08
2.74815
1.30967e-07
2.74815
3.63214e-08
2.74815
3.93682e-08
2.74815
6.27527e-08
2.74815
1.6911e-07
2.74815
-1.0525e-07
2.74815
7.63574e-08
2.74815
7.00146e-08
2.74815
7.75131e-08
2.74815
-2.92848e-08
2.74815
7.06338e-08
2.74815
-7.93841e-08
2.74815
-4.67056e-08
2.74815
8.7726e-08
2.74815
1.22021e-07
2.74815
-2.91041e-08
2.74815
7.56158e-08
2.74815
-3.2145e-08
2.74815
-1.58734e-08
2.74815
-2.2395e-08
2.74815
1.7151e-07
2.74815
-1.01957e-07
2.74815
2.11235e-08
2.74815
4.70694e-08
2.74815
7.06869e-08
2.74815
-1.80359e-08
2.74815
6.37725e-08
2.74815
-5.57779e-08
2.74815
1.20324e-07
2.74815
-9.98814e-08
2.74815
6.45848e-08
2.74815
5.77823e-09
3.62452e-08
2.74815
2.46459
-1.8586e-07
-2.46459
2.46459
-1.55499e-07
2.46459
1.31388e-07
2.46459
1.42503e-07
2.46459
3.7606e-09
2.46459
2.22681e-07
2.46459
-6.565e-09
2.46459
1.4445e-07
2.46459
-9.92423e-08
2.46459
1.25101e-07
2.46459
-8.50559e-09
2.46459
4.10697e-09
2.46459
3.53944e-08
2.46459
2.16137e-07
2.46459
-1.02338e-07
2.46459
9.90814e-08
2.46459
-4.30168e-08
2.46459
6.39494e-08
2.46459
2.56976e-08
2.46459
-1.11223e-07
2.46459
1.40753e-07
2.46459
5.17368e-09
2.46459
-3.46002e-08
2.46459
7.68215e-08
2.46459
-6.76717e-08
2.46459
1.42117e-07
2.46459
-1.78966e-07
2.46459
1.35293e-08
2.46459
4.19224e-08
2.46459
7.06391e-08
2.46459
-6.52293e-08
2.46459
1.78891e-07
2.46459
-6.4267e-08
2.46459
1.07127e-07
2.46459
-1.19036e-07
2.46459
1.1648e-07
2.46459
-2.6293e-08
2.46459
-6.37366e-08
2.46459
7.64504e-08
8.3593e-08
2.46459
2.20685
-2.14814e-07
-2.20685
2.20685
3.98761e-08
2.20685
1.01615e-07
2.20685
-7.7593e-08
2.20685
2.18379e-07
2.20685
-3.12452e-08
2.20685
1.87337e-07
2.20685
-5.1036e-08
2.20685
-5.51354e-09
2.20685
8.94298e-08
2.20685
5.04225e-08
2.20685
7.0129e-08
2.20685
-3.89469e-08
2.20685
4.76588e-08
2.20685
-3.20402e-08
2.20685
-2.22917e-08
2.20685
4.1534e-08
2.20685
-4.3043e-08
2.20685
1.29765e-07
2.20685
-7.12799e-08
2.20685