/*--------------------------------*- C++ -*----------------------------------*\
| =========                 |                                                 |
| \\      /  F ield         | OpenFOAM: The Open Source CFD Toolbox           |
|  \\    /   O peration     | Version:  2412                                  |
|   \\  /    A nd           | Website:  www.openfoam.com                      |
|    \\/     M anipulation  |                                                 |
\*---------------------------------------------------------------------------*/
FoamFile
{
    version     2.0;
    format      ascii;
    arch        "LSB;label=32;scalar=64";
    class       volVectorField;
    location    "990";
    object      U;
}
// * * * * * * * * * * * * * * * * * * * * * * * * * * * * * * * * * * * * * //

dimensions      [0 1 -1 0 0 0 0];

internalField   nonuniform List<vector> 
6400
(
(-99.4336 2.00343 2.09815e-21)
(-99.2783 5.90554 0)
(-98.97 9.79863 0)
(-98.509 13.6766 0)
(-97.8961 17.5335 1.68023e-20)
(-97.1322 21.3634 2.54901e-23)
(-96.2186 25.1603 7.45012e-25)
(-95.1567 28.9184 1.68045e-20)
(-93.948 32.632 1.68065e-20)
(-92.5944 36.2952 -1.418e-24)
(-91.0981 39.9024 7.92907e-27)
(-89.4613 43.4482 3.3614e-20)
(-87.6865 46.9269 4.53463e-23)
(-85.7766 50.3333 4.24077e-23)
(-83.7344 53.6621 0)
(-81.5631 56.9081 0)
(-79.266 60.0664 4.33452e-23)
(-76.8467 63.132 3.3571e-20)
(-74.3089 66.1003 3.36144e-20)
(-71.6565 68.9667 0)
(-68.8936 71.7268 0)
(-66.0245 74.3762 -3.36144e-20)
(-63.0536 76.911 -3.3571e-20)
(-59.9855 79.3272 -4.34038e-23)
(-56.8249 81.621 0)
(-53.5767 83.789 0)
(-50.2458 85.8279 -4.49516e-23)
(-46.8375 87.7343 -4.23215e-23)
(-43.357 89.5055 -3.36132e-20)
(-39.8096 91.1387 1.4777e-27)
(-36.2008 92.6314 -1.37363e-24)
(-32.5362 93.9812 -1.68061e-20)
(-28.8214 95.1861 -1.68075e-20)
(-25.0622 96.2442 6.91026e-25)
(-21.2643 97.154 -2.18494e-23)
(-17.4337 97.9139 -1.68069e-20)
(-13.5762 98.5228 8.40326e-21)
(-9.69773 98.9799 0)
(-5.80432 99.2843 0)
(-1.90196 99.4356 -2.10079e-21)
(-98.331 1.93536 -3.85296e-21)
(-98.1792 5.79412 -2.0312e-20)
(-97.876 9.64414 -9.07029e-22)
(-97.4219 13.4793 4.15443e-20)
(-96.8176 17.2937 -2.72249e-20)
(-96.064 21.0814 1.81481e-21)
(-95.1623 24.8366 -8.67261e-20)
(-94.1139 28.5535 -1.13956e-19)
(-92.9203 32.2264 1.46226e-19)
(-91.5835 35.8496 -1.73457e-19)
(-90.1054 39.4175 0)
(-88.4884 42.9246 -2.24291e-19)
(-86.735 46.3656 -3.62998e-21)
(-84.8478 49.735 3.63001e-21)
(-82.8298 53.0278 -3.63001e-21)
(-80.6841 56.2388 0)
(-78.414 59.3631 1.7346e-19)
(-76.0229 62.3958 -2.31554e-19)
(-73.5147 65.3324 1.22626e-19)
(-70.8931 68.1682 -1.7346e-19)
(-68.1621 70.8989 1.7346e-19)
(-65.3261 73.5202 -1.15366e-19)
(-62.3894 76.0282 2.24294e-19)
(-59.3564 78.419 -1.7346e-19)
(-56.2319 80.6889 0)
(-53.0207 82.8343 -3.63001e-21)
(-49.7278 84.852 3.63001e-21)
(-46.3582 86.7389 -3.63e-21)
(-42.9171 88.4921 2.31553e-19)
(-39.4098 90.1088 0)
(-35.8418 91.5865 1.73459e-19)
(-32.2185 92.9231 -1.46227e-19)
(-28.5455 94.1163 1.13961e-19)
(-24.8285 95.1644 8.67293e-20)
(-21.0732 96.0658 1.81498e-21)
(-17.2855 96.8191 -5.9498e-20)
(-13.471 97.4231 -5.8795e-20)
(-9.63584 97.8768 -9.07487e-22)
(-5.78578 98.1797 2.30434e-20)
(-1.9268 98.3311 2.9501e-21)
(-97.0992 1.90378 0)
(-96.9496 5.71421 2.40486e-20)
(-96.6505 9.51602 0)
(-96.2024 13.3032 -4.8113e-20)
(-95.606 17.0698 4.1315e-21)
(-94.8621 20.8101 -1.65207e-19)
(-93.972 24.5183 -7.31054e-20)
(-92.9369 28.1887 9.6236e-20)
(-91.7586 31.8157 -1.92474e-19)
(-90.4388 35.3936 1.92475e-19)
(-88.9795 38.9169 -3.22161e-19)
(-87.383 42.3802 1.84213e-19)
(-85.6518 45.7782 0)
(-83.7885 49.1056 -3.30426e-19)
(-81.7961 52.3572 3.38689e-19)
(-79.6775 55.5282 -3.3869e-19)
(-77.436 58.6135 -1.92479e-19)
(-75.0752 61.6084 1.92479e-19)
(-72.5985 64.5084 -1.92479e-19)
(-70.01 67.3088 1.92479e-19)
(-67.3135 70.0055 -1.92479e-19)
(-64.5132 72.5943 1.92479e-19)
(-61.6134 75.0711 -1.92479e-19)
(-58.6186 77.4321 1.92479e-19)
(-55.5335 79.6738 3.22163e-19)
(-52.3627 81.7926 -3.22163e-19)
(-49.1111 83.7853 3.30426e-19)
(-45.7839 85.6488 0)
(-42.386 87.3802 -2.00741e-19)
(-38.9228 88.9769 3.38689e-19)
(-35.3996 90.4364 -1.92478e-19)
(-31.8218 91.7565 1.92477e-19)
(-28.1949 92.9351 -9.62386e-20)
(-24.5246 93.9703 6.48422e-20)
(-20.8164 94.8607 3.325e-27)
(-17.0761 95.6048 1.0037e-19)
(-13.3095 96.2015 4.81191e-20)
(-9.52242 96.6499 0)
(-5.72062 96.9492 -2.40595e-20)
(-1.91 97.0991 0)
(-95.7257 1.87934 0)
(-95.5781 5.63589 3.49831e-21)
(-95.2832 9.38391 -3.49831e-21)
(-94.8414 13.1175 6.99724e-21)
(-94.2533 16.8308 6.99748e-21)
(-93.5198 20.5182 1.54636e-19)
(-92.6422 24.174 -6.66944e-20)
(-91.6217 27.7924 0)
(-90.4599 31.3681 0)
(-89.1587 34.8953 5.40634e-19)
(-87.7199 38.3688 3.79257e-19)
(-86.146 41.783 4.62192e-26)
(-84.4392 45.1329 -5.82622e-19)
(-82.6021 48.4132 -1.33388e-19)
(-80.6378 51.6188 -3.37273e-19)
(-78.5491 54.7448 -1.89369e-19)
(-76.3392 57.7864 0)
(-74.0117 60.739 0)
(-71.57 63.5978 0)
(-69.018 66.3586 5.26643e-19)
(-66.3596 69.0171 -5.26643e-19)
(-63.5988 71.5691 0)
(-60.74 74.0108 0)
(-57.7875 76.3384 0)
(-54.7459 78.5483 1.33388e-19)
(-51.6199 80.637 3.93254e-19)
(-48.4143 82.6015 -3.37273e-19)
(-45.1341 84.4385 4.70661e-19)
(-41.7843 86.1454 1.08265e-26)
(-38.37 87.7194 -3.51268e-19)
(-34.8966 89.1582 -5.12646e-19)
(-31.3693 90.4595 0)
(-27.7937 91.6213 0)
(-24.1752 92.6418 9.46843e-20)
(-20.5195 93.5195 -2.79903e-20)
(-16.8321 94.253 2.70318e-19)
(-13.1188 94.8412 6.99756e-21)
(-9.38524 95.2831 -3.49878e-21)
(-5.63721 95.5781 6.93287e-20)
(-1.88048 95.7257 0)
(-94.1968 1.85073 0)
(-94.0515 5.5473 1.05862e-20)
(-93.7613 9.23546 3.82666e-25)
(-93.3264 12.9094 -1.05866e-20)
(-92.7476 16.5634 0)
(-92.0259 20.1919 -3.85728e-19)
(-91.1622 23.7892 -1.17203e-19)
(-90.1579 27.3499 -7.23878e-26)
(-89.0147 30.8684 7.92639e-19)
(-87.7342 34.3393 1.49709e-19)
(-86.3184 37.7573 -6.86771e-19)
(-84.7695 41.117 7.2912e-19)
(-83.0899 44.4133 5.79412e-19)
(-81.2822 47.6412 5.79413e-19)
(-79.3491 50.7956 0)
(-77.2937 53.8716 5.79413e-19)
(-75.1191 56.8646 0)
(-72.8287 59.77 7.29122e-19)
(-70.426 62.5831 8.46973e-20)
(-67.9147 65.2998 -6.21762e-19)
(-65.2987 67.9158 5.37065e-19)
(-62.582 70.427 8.46973e-20)
(-59.7688 72.8297 -8.1382e-19)
(-56.8634 75.12 0)
(-53.8704 77.2946 -5.79413e-19)
(-50.7943 79.3499 0)
(-47.6399 81.2829 0)
(-44.412 83.0906 -5.79413e-19)
(-41.1156 84.7701 -4.23486e-20)
(-37.7559 86.319 8.56167e-19)
(-34.3379 87.7347 -2.34406e-19)
(-30.867 89.0152 2.11743e-20)
(-27.3484 90.1584 -7.46458e-27)
(-23.7878 91.1625 7.48545e-20)
(-20.1904 92.0262 3.85734e-19)
(-16.5619 92.7479 -2.89706e-19)
(-12.9079 93.3266 -1.05871e-20)
(-9.23392 93.7614 4.30588e-27)
(-5.54575 94.0516 -1.58273e-19)
(-1.84902 94.1969 0)
(-92.4976 1.81745 -7.50027e-21)
(-92.3549 5.44737 -1.26299e-19)
(-92.0699 9.06899 2.37603e-19)
(-91.6429 12.6766 -3.81227e-25)
(-91.0745 16.2647 3.00024e-20)
(-90.3658 19.8278 4.2188e-19)
(-89.5177 23.3602 -1.13345e-19)
(-88.5315 26.8567 0)
(-87.4089 30.3117 -8.4377e-19)
(-86.1515 33.72 -8.43771e-19)
(-84.7612 37.0763 7.83767e-19)
(-83.2403 40.3754 -7.23761e-19)
(-81.5909 43.6123 -6.00062e-20)
(-79.8158 46.7819 1.07046e-18)
(-77.9176 49.8794 1.13047e-18)
(-75.8993 52.9 6.00064e-20)
(-73.764 55.839 -1.20013e-19)
(-71.5149 58.6919 -8.43776e-19)
(-69.1555 61.4543 -1.07046e-18)
(-66.6895 64.1219 0)
(-64.1207 66.6907 0)
(-61.453 69.1567 1.07046e-18)
(-58.6905 71.516 8.43776e-19)
(-55.8376 73.765 -1.20013e-19)
(-52.8985 75.9003 6.00064e-20)
(-49.8779 77.9186 -1.01046e-18)
(-46.7804 79.8167 -1.07046e-18)
(-43.6107 81.5918 -6.00063e-20)
(-40.3738 83.241 1.20013e-19)
(-37.0747 84.7619 -9.03781e-19)
(-33.7183 86.1521 8.43775e-19)
(-30.31 87.4095 0)
(-26.855 88.532 0)
(-23.3585 89.5181 1.13344e-19)
(-19.826 90.3661 -4.21887e-19)
(-16.263 91.0748 -5.05228e-19)
(-12.6749 91.6431 -8.87836e-27)
(-9.06722 92.0701 -2.97618e-19)
(-5.44558 92.355 1.12972e-19)
(-1.81554 92.4976 -7.50077e-21)
(-90.6124 1.78045 -1.01404e-20)
(-90.4726 5.33641 3.3364e-19)
(-90.1934 8.88421 -3.31113e-19)
(-89.775 12.4183 3.97026e-19)
(-89.2183 15.9333 0)
(-88.524 19.4237 7.12934e-19)
(-87.6932 22.8842 1.29405e-18)
(-86.7271 26.3093 0)
(-85.6274 29.694 8.11269e-20)
(-84.3956 33.0328 -8.11269e-20)
(-83.0336 36.3207 -1.62254e-19)
(-81.5437 39.5525 -1.26363e-18)
(-79.928 42.7234 -1.62254e-19)
(-78.189 45.8285 4.25891e-19)
(-76.3295 48.8628 -1.3245e-18)
(-74.3523 51.8218 1.62254e-19)
(-72.2605 54.7009 -1.58814e-18)
(-70.0573 57.4957 1.62254e-19)
(-67.746 60.2018 2.58813e-18)
(-65.3302 62.8151 0)
(-62.8137 65.3315 0)
(-60.2004 67.7472 -2.58813e-18)
(-57.4943 70.0584 1.62254e-19)
(-54.6995 72.2616 1.26363e-18)
(-51.8203 74.3534 1.62254e-19)
(-48.8613 76.3305 9.99993e-19)
(-45.8269 78.19 -1.01382e-19)
(-42.7218 79.9288 -1.62254e-19)
(-39.5509 81.5445 1.58814e-18)
(-36.319 83.0343 -1.62254e-19)
(-33.0311 84.3962 -8.11271e-20)
(-29.6922 85.6279 8.11271e-20)
(-26.3076 86.7276 0)
(-22.8824 87.6936 -1.29406e-18)
(-19.4219 88.5243 -7.12941e-19)
(-15.9315 89.2186 5.81122e-19)
(-12.4165 89.7753 -3.15907e-19)
(-8.88237 90.1935 2.49998e-19)
(-5.33454 90.4727 -1.68094e-19)
(-1.77848 90.6124 -1.01409e-20)
(-88.5248 1.73959 -2.64086e-20)
(-88.3882 5.21364 6.41203e-20)
(-88.1154 8.67971 4.06154e-19)
(-87.7067 12.1324 -3.30735e-19)
(-87.1628 15.5664 0)
(-86.4844 18.9764 -1.57943e-18)
(-85.6728 22.3571 -1.79071e-18)
(-84.729 25.7034 0)
(-83.6545 29.01 -2.11275e-19)
(-82.4511 32.2719 -1.83592e-18)
(-81.1205 35.484 2.0472e-18)
(-79.6649 38.6414 1.53424e-18)
(-78.0864 41.7393 2.0472e-18)
(-76.3876 44.7728 -1.53424e-18)
(-74.5709 47.7372 1.62465e-18)
(-72.6392 50.628 -2.11276e-19)
(-70.5956 53.4408 1.9568e-18)
(-68.4431 56.1712 1.62465e-18)
(-66.1851 58.8149 -1.53425e-18)
(-63.825 61.368 0)
(-61.3665 63.8264 0)
(-58.8133 66.1865 1.53425e-18)
(-56.1695 68.4444 -2.0472e-18)
(-53.4391 70.5969 -1.11169e-18)
(-50.6263 72.6405 -2.11276e-19)
(-47.7354 74.572 -2.0472e-18)
(-44.7709 76.3886 1.53425e-18)
(-41.7374 78.0874 -1.62465e-18)
(-38.6395 79.6658 -1.53424e-18)
(-35.4821 81.1214 -1.62465e-18)
(-32.2699 82.4519 1.83593e-18)
(-29.008 83.6552 -2.11275e-19)
(-25.7013 84.7296 0)
(-22.355 85.6733 1.57945e-18)
(-18.9743 86.4849 1.79072e-18)
(-15.5643 87.1631 0)
(-12.1303 87.707 4.36379e-19)
(-8.67755 88.1156 -5.118e-19)
(-5.21146 88.3883 -1.13009e-20)
(-1.73733 88.5248 -2.64094e-20)
(-86.2178 1.69442 0)
(-86.0848 5.07797 -5.30816e-19)
(-85.8191 8.4537 -1.06164e-18)
(-85.4211 11.8164 1.14636e-18)
(-84.8913 15.1609 -1.14636e-18)
(-84.2306 18.482 9.76935e-19)
(-83.4401 21.7747 7.10714e-19)
(-82.5209 25.0337 2.29274e-18)
(-81.4745 28.2542 -2.02652e-18)
(-80.3024 31.4311 1.95388e-18)
(-79.0065 34.5595 -1.68766e-18)
(-77.5888 37.6346 -2.66224e-19)
(-76.0514 40.6517 -1.95389e-18)
(-74.3968 43.6062 0)
(-72.6275 46.4933 -1.42144e-18)
(-70.7462 49.3088 -5.32449e-19)
(-68.7558 52.0483 -2.29275e-18)
(-66.6594 54.7075 -1.95389e-18)
(-64.4602 57.2824 0)
(-62.1616 59.7689 -2.29275e-18)
(-59.7671 62.1633 2.29275e-18)
(-57.2805 64.4618 0)
(-54.7056 66.6609 1.95389e-18)
(-52.0463 68.7573 2.29275e-18)
(-49.3068 70.7476 -5.32449e-19)
(-46.4913 72.6288 2.48634e-18)
(-43.604 74.3981 0)
(-40.6496 76.0526 1.95389e-18)
(-37.6324 77.5898 -2.66224e-19)
(-34.5572 79.0075 2.22011e-18)
(-31.4288 80.3033 -1.95389e-18)
(-28.2518 81.4752 2.55897e-18)
(-25.0314 82.5216 -2.29275e-18)
(-21.7723 83.4407 -1.24317e-18)
(-18.4796 84.2311 -9.76942e-19)
(-15.1585 84.8917 1.14637e-18)
(-11.814 85.4214 -1.14637e-18)
(-8.45123 85.8193 1.06166e-18)
(-5.07546 86.085 5.30828e-19)
(-1.69187 86.2179 0)
(-83.6743 1.64454 0)
(-83.5452 4.92828 3.01014e-19)
(-83.2873 8.20443 -9.3105e-20)
(-82.901 11.4679 -2.75699e-18)
(-82.3869 14.7138 2.757e-18)
(-81.7457 17.9369 0)
(-80.9785 21.1324 1.39028e-18)
(-80.0864 24.2953 -5.18873e-18)
(-79.0708 27.4208 2.40816e-18)
(-77.9333 30.5039 2.78058e-18)
(-76.6757 33.5401 0)
(-75.2998 36.5245 0)
(-73.8078 39.4526 6.50601e-19)
(-72.202 42.3198 -6.50601e-19)
(-70.4848 45.1218 -6.50602e-19)
(-68.659 47.8543 1.3012e-18)
(-66.7273 50.5129 1.75756e-18)
(-64.6928 53.0937 0)
(-62.5584 55.5926 0)
(-60.3277 58.0057 2.40817e-18)
(-58.0039 60.3295 -2.40817e-18)
(-55.5906 62.5602 0)
(-53.0916 64.6944 0)
(-50.5108 66.7289 -3.05877e-18)
(-47.8521 68.6605 1.3012e-18)
(-45.1196 70.4862 -6.50602e-19)
(-42.3176 72.2033 -6.50601e-19)
(-39.4502 73.809 6.50601e-19)
(-36.5221 75.3009 0)
(-33.5376 76.6767 0)
(-30.5015 77.9343 -2.78058e-18)
(-27.4183 79.0717 -2.40816e-18)
(-24.2928 80.0871 5.18874e-18)
(-21.1299 80.9791 -1.39029e-18)
(-17.9343 81.7462 0)
(-14.7112 82.3873 -2.43172e-18)
(-11.4653 82.9014 2.43172e-18)
(-8.20179 83.2876 9.31037e-20)
(-4.92561 83.5454 -3.0102e-19)
(-1.64184 83.6743 0)
(-80.8767 1.58955 0)
(-80.7519 4.76351 0)
(-80.5027 7.93013 7.18927e-19)
(-80.1293 11.0845 1.43786e-18)
(-79.6323 14.2218 -1.43786e-18)
(-79.0126 17.3372 3.85622e-19)
(-78.271 20.4259 -1.86095e-19)
(-77.4088 23.483 3.64698e-18)
(-76.4271 26.504 5.46319e-25)
(-75.3277 29.484 -2.87574e-18)
(-74.1121 32.4187 -7.71248e-19)
(-72.7822 35.3033 0)
(-71.3401 38.1335 2.50355e-18)
(-69.7879 40.9049 -2.50355e-18)
(-68.1282 43.6132 0)
(-66.3634 46.2543 7.71249e-19)
(-64.4963 48.824 2.50355e-18)
(-62.5298 51.3185 -2.50355e-18)
(-60.4668 53.7339 -7.71249e-19)
(-58.3106 56.0663 0)
(-56.0645 58.3124 0)
(-53.732 60.4685 -7.71249e-19)
(-51.3166 62.5314 4.04605e-18)
(-48.822 64.4979 -4.04605e-18)
(-46.2522 66.3649 7.71248e-19)
(-43.6111 68.1296 0)
(-40.9027 69.7892 4.04605e-18)
(-38.1312 71.3412 -4.04605e-18)
(-35.301 72.7833 0)
(-32.4163 74.1131 -4.04605e-18)
(-29.4817 75.3286 2.87574e-18)
(-26.5016 76.4279 7.87378e-26)
(-23.4806 77.4095 -2.10449e-18)
(-20.4234 78.2716 -5.85151e-19)
(-17.3347 79.0131 3.85624e-19)
(-14.2193 79.6327 1.43787e-18)
(-11.082 80.1296 -1.43787e-18)
(-7.92757 80.5029 -1.53763e-18)
(-4.76093 80.7521 0)
(-1.58695 80.8767 0)
(-77.8076 1.52905 -1.10827e-19)
(-77.6876 4.58258 -3.57014e-19)
(-77.4478 7.62903 0)
(-77.0885 10.6637 0)
(-76.6105 13.682 4.43311e-19)
(-76.0143 16.6791 -4.43311e-19)
(-75.3008 19.6506 -2.55031e-18)
(-74.4713 22.5917 4.62938e-18)
(-73.5269 25.498 0)
(-72.4692 28.365 0)
(-71.2997 31.1883 -4.62938e-18)
(-70.0203 33.9635 -2.37637e-25)
(-68.6329 36.6863 -1.55412e-18)
(-67.1397 39.3525 6.18351e-18)
(-65.543 41.958 0)
(-63.8452 44.4989 0)
(-62.0489 46.9711 -3.32738e-18)
(-60.157 49.371 3.32738e-18)
(-58.1724 51.6946 0)
(-56.098 53.9386 0)
(-53.9371 56.0994 0)
(-51.6931 58.1737 0)
(-49.3693 60.1584 -3.32737e-18)
(-46.9695 62.0502 3.32737e-18)
(-44.4972 63.8464 0)
(-41.9563 65.5441 0)
(-39.3507 67.1408 -7.95676e-18)
(-36.6844 68.6339 5.10063e-18)
(-33.9616 70.0212 -7.18616e-26)
(-31.1864 71.3006 6.1835e-18)
(-28.3631 72.47 0)
(-25.496 73.5276 0)
(-22.5897 74.4719 -2.85613e-18)
(-19.6485 75.3013 7.7706e-19)
(-16.6771 76.0147 -4.43313e-19)
(-13.6799 76.6108 4.43313e-19)
(-10.6616 77.0888 0)
(-7.6269 77.448 -1.03846e-19)
(-4.58043 77.6877 5.78673e-19)
(-1.52689 77.8076 -1.10828e-19)
(-74.4499 1.46267 -2.59188e-19)
(-74.3351 4.38443 4.66064e-19)
(-74.1057 7.29942 0)
(-73.7619 10.2032 4.93853e-19)
(-73.3045 13.0912 -4.93853e-19)
(-72.734 15.959 -9.87708e-19)
(-72.0514 18.8022 1.97542e-18)
(-71.2577 21.6164 -3.72854e-18)
(-70.3541 24.3973 -1.97542e-18)
(-69.342 27.1406 9.8771e-19)
(-68.2231 29.842 3.72854e-18)
(-66.9989 32.4975 -4.14704e-18)
(-65.6714 35.1028 -4.14704e-18)
(-64.2426 37.6539 -7.87559e-18)
(-62.7148 40.1471 0)
(-61.0903 42.5783 0)
(-59.3716 44.9439 -1.97542e-18)
(-57.5613 47.2401 3.95085e-18)
(-55.6623 49.4635 8.29409e-18)
(-53.6774 51.6107 -1.97542e-18)
(-51.6098 53.6783 -1.97542e-18)
(-49.4626 55.6631 8.03624e-26)
(-47.2392 57.5621 1.22449e-17)
(-44.9429 59.3723 -1.97542e-18)
(-42.5773 61.091 0)
(-40.146 62.7154 0)
(-37.6529 64.2432 7.87558e-18)
(-35.1017 65.6719 4.14704e-18)
(-32.4964 66.9994 4.14704e-18)
(-29.8409 68.2235 -3.72854e-18)
(-27.1395 69.3425 9.87711e-19)
(-24.3962 70.3545 -1.97542e-18)
(-21.6153 71.258 3.72854e-18)
(-18.801 72.0517 1.97542e-18)
(-15.9578 72.7343 -9.87711e-19)
(-13.0899 73.3047 -4.93855e-19)
(-10.2019 73.7621 4.93855e-19)
(-7.29817 74.1058 1.96889e-18)
(-4.38316 74.3352 -4.66067e-19)
(-1.4614 74.4499 2.5919e-19)
(-70.7872 1.39007 2.52776e-19)
(-70.678 4.16809 0)
(-70.4599 6.93967 5.80006e-19)
(-70.1331 9.70055 -1.69278e-18)
(-69.6982 12.4465 -1.06554e-18)
(-69.1559 15.1732 -7.19081e-25)
(-68.5068 17.8766 1.06554e-18)
(-67.7522 20.5523 0)
(-66.8931 23.1964 4.45112e-18)
(-65.9308 25.8048 -6.58221e-18)
(-64.8669 28.3733 2.13109e-18)
(-63.703 30.8981 4.04445e-18)
(-62.4408 33.3752 1.91336e-18)
(-61.0824 35.8009 6.17554e-18)
(-59.6297 38.1714 0)
(-58.0852 40.483 -2.13109e-18)
(-56.451 42.7322 -4.64006e-18)
(-54.7298 44.9155 -1.10333e-17)
(-52.9243 47.0296 -1.91222e-17)
(-51.0371 49.0711 2.13109e-18)
(-49.0712 51.037 2.13109e-18)
(-47.0297 52.9242 6.77115e-18)
(-44.9156 54.7298 -1.31775e-18)
(-42.7323 56.4509 4.26218e-18)
(-40.4831 58.0851 -2.13109e-18)
(-38.1715 59.6297 0)
(-35.801 61.0823 -1.91336e-18)
(-33.3753 62.4407 -6.17554e-18)
(-30.8982 63.7029 -4.04445e-18)
(-28.3734 64.8669 2.13109e-18)
(-25.8049 65.9308 2.32003e-18)
(-23.1965 66.893 -4.45112e-18)
(-20.5525 67.7522 0)
(-17.8767 68.5068 1.06554e-18)
(-15.1733 69.1558 -8.2107e-26)
(-12.4466 69.6982 -1.06554e-18)
(-9.70065 70.1331 2.75833e-18)
(-6.93975 70.4599 -2.65666e-18)
(-4.16816 70.678 0)
(-1.39014 70.7872 -2.52778e-19)
(-66.8038 1.31096 0)
(-66.7008 3.93265 5.56447e-19)
(-66.495 6.54828 -4.61467e-19)
(-66.1866 9.1538 2.12315e-18)
(-65.7762 11.7452 1.11289e-18)
(-65.2644 14.3185 1.1129e-18)
(-64.652 16.8697 1.74647e-19)
(-63.9398 19.395 -2.40044e-18)
(-63.1291 21.8903 -4.24632e-18)
(-62.221 24.3518 -3.79916e-19)
(-61.217 26.7758 2.22579e-18)
(-60.1186 29.1586 -2.22579e-18)
(-58.9275 31.4963 0)
(-57.6455 33.7855 -4.45159e-18)
(-56.2747 36.0226 4.45159e-18)
(-54.817 38.2042 4.45159e-18)
(-53.2749 40.3268 -4.1054e-19)
(-51.6506 42.3873 8.49264e-18)
(-49.9466 44.3824 1.29442e-17)
(-48.1657 46.3091 -9.25248e-18)
(-46.3105 48.1644 9.25247e-18)
(-44.3838 49.9454 -4.04105e-18)
(-42.3888 51.6494 -8.49264e-18)
(-40.3283 53.2737 -8.90318e-18)
(-38.2057 54.8159 4.45159e-18)
(-36.0242 56.2736 -4.80088e-18)
(-33.7871 57.6446 -4.45159e-18)
(-31.498 58.9266 0)
(-29.1603 60.1178 -2.22579e-18)
(-26.7776 61.2162 2.22579e-18)
(-24.3536 62.2203 3.79916e-19)
(-21.892 63.1285 4.24632e-18)
(-19.3968 63.9393 6.85203e-18)
(-16.8716 64.6515 -9.07782e-18)
(-14.3203 65.264 1.1129e-18)
(-11.747 65.7759 1.1129e-18)
(-9.15564 66.1864 -2.12316e-18)
(-6.55011 66.4948 -6.51427e-19)
(-3.93449 66.7007 5.56448e-19)
(-1.3128 66.8037 0)
(-62.4852 1.22513 2.81433e-19)
(-62.3889 3.67735 8.82901e-19)
(-62.1964 6.12389 -1.07929e-18)
(-61.9081 8.56098 1.20294e-18)
(-61.5242 10.9849 -1.20294e-18)
(-61.0455 13.3918 0)
(-60.4727 15.7781 -4.31717e-18)
(-59.8067 18.1401 2.0657e-18)
(-59.0484 20.4741 6.90882e-18)
(-58.199 22.7766 4.31717e-18)
(-57.26 25.0439 4.65735e-18)
(-56.2326 27.2726 0)
(-55.1185 29.4593 -9.3147e-18)
(-53.9195 31.6005 0)
(-52.6373 33.693 0)
(-51.2739 35.7335 -1.38176e-17)
(-49.8315 37.719 4.50294e-18)
(-48.3122 39.6463 -9.31471e-18)
(-46.7185 41.5125 4.50294e-18)
(-45.0527 43.3146 4.13141e-18)
(-43.3174 45.05 -1.31373e-17)
(-41.5154 46.7159 4.50294e-18)
(-39.6493 48.3097 9.3147e-18)
(-37.7221 49.8291 -4.81176e-18)
(-35.7368 51.2717 4.81176e-18)
(-33.6963 52.6352 8.63435e-18)
(-31.6039 53.9175 0)
(-29.4627 55.1167 9.3147e-18)
(-27.2761 56.2309 0)
(-25.0475 57.2584 -4.65735e-18)
(-22.7802 58.1976 -4.31717e-18)
(-20.4778 59.0471 -2.40588e-18)
(-18.1438 59.8055 -6.56864e-18)
(-15.7819 60.4717 4.31717e-18)
(-13.3956 61.0447 0)
(-10.9887 61.5236 3.45441e-18)
(-8.56482 61.9075 -3.45441e-18)
(-6.12774 62.1961 1.07929e-18)
(-3.68121 62.3887 -1.44577e-18)
(-1.229 62.4851 2.81434e-19)
(-57.8181 1.13243 8.3612e-19)
(-57.7291 3.40149 -2.75225e-18)
(-57.551 5.6653 0)
(-57.2842 7.92037 -4.33549e-18)
(-56.9291 10.1632 6.54346e-18)
(-56.4862 12.3904 4.61644e-25)
(-55.9562 14.5985 -2.20798e-18)
(-55.34 16.7841 -4.41596e-18)
(-54.6384 18.9438 1.60942e-19)
(-53.8525 21.0743 4.54605e-18)
(-52.9836 23.1722 4.21118e-19)
(-52.033 25.2345 4.41596e-18)
(-51.0022 27.2579 8.51004e-18)
(-49.8928 29.2392 9.09211e-18)
(-48.7064 31.1754 -9.09211e-18)
(-47.4449 33.0636 4.09408e-18)
(-46.1102 34.9008 1.73902e-26)
(-44.7045 36.6841 3.83391e-18)
(-43.2298 38.411 0)
(-41.6885 40.0785 0)
(-40.0829 41.6843 0)
(-38.4154 43.2258 0)
(-36.6888 44.7007 4.99802e-18)
(-34.9056 46.1066 8.51004e-18)
(-33.0685 47.4415 -1.2926e-17)
(-31.1805 48.7031 9.0921e-18)
(-29.2444 49.8897 -9.0921e-18)
(-27.2632 50.9994 -8.51004e-18)
(-25.2399 52.0304 4.41596e-18)
(-23.1777 52.9812 -9.25304e-18)
(-21.0798 53.8503 -4.54605e-18)
(-18.9494 54.6364 4.12493e-18)
(-16.7898 55.3382 -4.41596e-18)
(-14.6043 55.9547 -2.20798e-18)
(-12.3963 56.485 1.21683e-25)
(-10.1691 56.9281 2.28845e-18)
(-7.92629 57.2834 -8.04714e-20)
(-5.67124 57.5505 0)
(-3.40745 57.7287 1.64827e-18)
(-1.1384 57.818 2.67867e-19)
(-52.7907 1.03273 2.71159e-19)
(-52.7095 3.1045 1.54378e-18)
(-52.547 5.17147 1.05137e-18)
(-52.3034 7.23046 6.99273e-26)
(-51.9792 9.2783 -6.28138e-26)
(-51.5749 11.3118 -1.06176e-17)
(-51.091 13.3279 4.20548e-18)
(-50.5284 15.3235 0)
(-49.8878 17.2954 0)
(-49.1704 19.2407 4.54643e-18)
(-48.3771 21.1562 -3.93932e-18)
(-47.5092 23.0392 -1.26164e-17)
(-46.568 24.8866 8.41096e-18)
(-45.5551 26.6957 -8.14481e-18)
(-44.4719 28.4636 -4.74026e-19)
(-43.3201 30.1876 2.0787e-19)
(-42.1016 31.8651 -2.0787e-19)
(-40.8181 33.4934 8.14481e-18)
(-39.4717 35.0701 0)
(-38.0644 36.5927 0)
(-36.5984 38.0589 0)
(-35.076 39.4664 0)
(-33.4996 40.8131 -8.14481e-18)
(-31.8714 42.0968 8.41096e-18)
(-30.1941 43.3156 -1.70298e-17)
(-28.4703 44.4676 4.74025e-19)
(-26.7025 45.5511 8.14481e-18)
(-24.8936 46.5643 8.41096e-18)
(-23.0463 47.5057 -1.26164e-17)
(-21.1635 48.3739 1.23503e-17)
(-19.248 49.1675 -4.54643e-18)
(-17.3029 49.8852 4.0724e-18)
(-15.3311 50.5261 0)
(-13.3356 51.089 4.20548e-18)
(-11.3196 51.5732 -1.9988e-18)
(-9.28609 51.9778 1.22924e-25)
(-7.23829 52.3023 1.35509e-25)
(-5.17933 52.5462 1.05137e-18)
(-3.11238 52.709 -4.92415e-19)
(-1.04064 52.7906 7.8021e-19)
(-47.3924 0.925984 0)
(-47.3195 2.78589 -9.93882e-19)
(-47.1737 4.6415 0)
(-46.9551 6.48995 0)
(-46.6641 8.32839 -3.97554e-18)
(-46.3011 10.154 -1.04569e-19)
(-45.8668 11.9639 3.89736e-18)
(-45.3617 13.7554 3.97554e-18)
(-44.7867 15.5257 0)
(-44.1426 17.2721 -7.58559e-18)
(-43.4305 18.9918 -7.95107e-18)
(-42.6514 20.6822 7.95107e-18)
(-41.8066 22.3407 7.95108e-18)
(-40.8972 23.9648 -1.56346e-19)
(-39.9249 25.552 -2.09137e-19)
(-38.8909 27.0997 3.65483e-19)
(-37.797 28.6057 7.58559e-18)
(-36.6448 30.0675 -7.95108e-18)
(-35.4361 31.483 -7.95108e-18)
(-34.1728 32.85 7.95108e-18)
(-32.8567 34.1662 -7.95108e-18)
(-31.49 35.4299 0)
(-30.0748 36.6388 0)
(-28.6132 37.7913 0)
(-27.1074 38.8855 -3.65483e-19)
(-25.5599 39.9198 -1.53803e-17)
(-23.973 40.8925 1.57458e-17)
(-22.349 41.8021 -7.95107e-18)
(-20.6907 42.6473 -7.95107e-18)
(-19.0004 43.4268 7.95107e-18)
(-17.2808 44.1392 7.58559e-18)
(-15.5346 44.7836 0)
(-13.7644 45.359 -3.97554e-18)
(-11.973 45.8644 3.89736e-18)
(-10.1632 46.2991 -7.69016e-18)
(-8.33763 46.6624 0)
(-6.49924 46.9538 0)
(-4.65083 47.1727 0)
(-2.79526 47.319 9.93884e-19)
(-0.935366 47.3922 0)
(-41.6138 0.811287 1.32075e-18)
(-41.5498 2.44441 -1.92768e-20)
(-41.4219 4.07377 0)
(-41.23 5.69684 5.28302e-18)
(-40.9745 7.31113 -7.71097e-20)
(-40.6559 8.91414 0)
(-40.2746 10.5034 0)
(-39.8312 12.0765 -6.87599e-18)
(-39.3264 13.6309 1.40153e-17)
(-38.7609 15.1644 -1.40153e-17)
(-38.1357 16.6744 1.38611e-17)
(-37.4516 18.1588 -6.85344e-18)
(-36.7098 19.6151 -1.38611e-17)
(-35.9115 21.0412 1.38611e-17)
(-35.0577 22.4349 -7.00766e-18)
(-34.1499 23.7939 1.54217e-19)
(-33.1894 25.1163 1.09107e-19)
(-32.1778 26.3999 1.3752e-17)
(-31.1165 27.6429 -1.41695e-17)
(-30.0072 28.8432 1.42786e-17)
(-28.8517 29.999 1.3752e-17)
(-27.6517 31.1086 -2.1023e-17)
(-26.4091 32.1702 1.40153e-17)
(-25.1257 33.1823 -1.41244e-17)
(-23.8036 34.1431 1.38611e-17)
(-22.4448 35.0513 -7.00765e-18)
(-21.0514 35.9055 1.54217e-19)
(-19.6255 36.7043 -1.54217e-19)
(-18.1694 37.4465 6.85344e-18)
(-16.6853 38.1309 1.54217e-19)
(-15.1754 38.7566 -1.40153e-17)
(-13.6421 39.3225 1.40153e-17)
(-12.0878 39.8278 -7.13931e-18)
(-10.5149 40.2716 0)
(-8.92569 40.6534 0)
(-7.32276 40.9725 -3.50383e-18)
(-5.70855 41.2284 1.72464e-18)
(-4.08553 41.4207 0)
(-2.45621 41.5492 -1.73264e-18)
(-0.823103 41.6136 8.75956e-19)
(-35.824 0.698248 -4.15531e-19)
(-35.7689 2.10416 1.68796e-18)
(-35.6588 3.50682 -1.68796e-18)
(-35.4936 4.90407 -1.66213e-18)
(-35.2737 6.29375 3.37593e-18)
(-34.9994 7.67374 3.56934e-20)
(-34.6711 9.04189 6.75187e-18)
(-34.2894 10.3961 -3.25287e-18)
(-33.8548 11.7343 -7.13868e-20)
(-33.3681 13.0544 -1.35037e-17)
(-32.8298 14.3543 6.75187e-18)
(-32.241 15.6321 6.75187e-18)
(-31.6024 16.8859 -1.35751e-17)
(-30.9151 18.1136 6.75187e-18)
(-30.1801 19.3133 -6.75187e-18)
(-29.3986 20.4833 0)
(-28.5718 21.6217 -6.64851e-18)
(-27.7009 22.7267 1.34718e-17)
(-26.7873 23.7967 2.0327e-17)
(-25.8324 24.8301 -2.01522e-17)
(-24.8376 25.8251 -6.85522e-18)
(-23.8046 26.7803 6.68048e-18)
(-22.7349 27.6942 -6.82325e-18)
(-21.6301 28.5654 6.64851e-18)
(-20.4919 29.3926 0)
(-19.3222 30.1745 -6.75186e-18)
(-18.1226 30.9098 6.75186e-18)
(-16.8951 31.5974 7.13864e-20)
(-15.6416 32.2364 6.75186e-18)
(-14.364 32.8256 6.75186e-18)
(-13.0642 33.3642 -1.35037e-17)
(-11.7442 33.8514 1.35751e-17)
(-10.4062 34.2864 -1.02509e-17)
(-9.05205 34.6685 6.75186e-18)
(-7.684 34.9971 -6.78755e-18)
(-6.30409 35.2718 3.37593e-18)
(-4.91447 35.4921 1.66213e-18)
(-3.51726 35.6577 -1.68797e-18)
(-2.11463 35.7683 1.68797e-18)
(-0.708746 35.8238 0)
(-30.6457 0.59857 4.43152e-19)
(-30.5985 1.80125 8.80578e-19)
(-30.5042 3.00116 8.92037e-19)
(-30.3629 4.19643 1.76116e-18)
(-30.1747 5.38524 1.78407e-18)
(-29.94 6.56574 -3.48956e-18)
(-29.6592 7.73611 0)
(-29.3326 8.89456 1.11335e-19)
(-28.9608 10.0393 -1.11335e-19)
(-28.5443 11.1686 -1.41351e-17)
(-28.0838 12.2806 6.9988e-18)
(-27.5801 13.3737 -7.04463e-18)
(-27.0337 14.4462 6.97912e-18)
(-26.4457 15.4964 7.04463e-18)
(-25.817 16.5227 -2.11797e-17)
(-25.1484 17.5235 1.41351e-17)
(-24.441 18.4973 0)
(-23.696 19.4426 6.55056e-20)
(-22.9144 20.3579 -1.40237e-17)
(-22.0975 21.2418 0)
(-21.2465 22.093 0)
(-20.3628 22.9101 -6.55056e-20)
(-19.4476 23.6919 1.40237e-17)
(-18.5025 24.4371 0)
(-17.5288 25.1447 -4.58285e-20)
(-16.5281 25.8135 -6.9988e-18)
(-15.502 26.4425 7.04462e-18)
(-14.4519 27.0307 -6.97912e-18)
(-13.3795 27.5772 -7.04462e-18)
(-12.2865 28.0812 2.11797e-17)
(-11.1746 28.542 4.58282e-20)
(-10.0454 28.9587 1.11334e-19)
(-8.90077 29.3307 -1.11334e-19)
(-7.74239 29.6576 0)
(-6.57207 29.9387 3.48956e-18)
(-5.39162 30.1736 -5.30638e-18)
(-4.20285 30.362 -1.78407e-18)
(-3.0076 30.5036 -2.65319e-18)
(-1.80772 30.5982 8.80578e-19)
(-0.605047 30.6455 -4.43153e-19)
(-26.2523 0.513478 -4.52028e-19)
(-26.2119 1.54374 -9.0929e-19)
(-26.131 2.57162 2.74572e-18)
(-26.0099 3.59554 -4.31523e-26)
(-25.8487 4.61391 -7.2534e-18)
(-25.6476 5.62517 1.81858e-18)
(-25.407 6.62775 0)
(-25.1272 7.62012 -7.23247e-18)
(-24.8087 8.60073 -7.13908e-20)
(-24.4519 9.56808 7.23247e-18)
(-24.0574 10.5207 1.81735e-17)
(-23.6258 11.4571 -3.60763e-18)
(-23.1578 12.3758 7.30386e-18)
(-22.6541 13.2754 1.88512e-25)
(-22.1154 14.1546 2.18106e-17)
(-21.5427 15.0119 -2.91145e-17)
(-20.9367 15.8461 7.27433e-18)
(-20.2985 16.6558 0)
(-19.6289 17.4399 -1.46077e-17)
(-18.9291 18.1971 0)
(-18.2001 18.9262 0)
(-17.443 19.6262 1.46077e-17)
(-16.659 20.2958 0)
(-15.8494 20.9342 7.27432e-18)
(-15.0153 21.5403 1.45658e-17)
(-14.158 22.1132 -7.26199e-18)
(-13.279 22.652 -2.81447e-25)
(-12.3794 23.1559 -7.30385e-18)
(-11.4608 23.624 -1.82153e-17)
(-10.5245 24.0558 -1.08992e-17)
(-9.57192 24.4504 -7.23246e-18)
(-8.60462 24.8074 7.139e-20)
(-7.62406 25.126 7.23246e-18)
(-6.63173 25.406 0)
(-5.62919 25.6468 5.47051e-18)
(-4.61796 25.848 -2.09304e-20)
(-3.59961 26.0094 3.61623e-18)
(-2.57571 26.1306 2.71002e-18)
(-1.54784 26.2116 -9.0929e-19)
(-0.517587 26.2522 4.52029e-19)
(-22.4987 0.44049 -4.67778e-19)
(-22.4641 1.32345 9.33174e-19)
(-22.3948 2.20436 -9.21683e-19)
(-22.291 3.08188 0)
(-22.1528 3.95464 0)
(-21.9805 4.82131 5.60858e-18)
(-21.7743 5.68054 -1.86635e-18)
(-21.5345 6.53101 -3.7327e-18)
(-21.2614 7.37142 1.11712e-17)
(-20.9557 8.20045 3.75177e-18)
(-20.6176 9.01685 -3.70581e-18)
(-20.2477 9.81933 -7.4385e-18)
(-19.8465 10.6067 -1.4923e-17)
(-19.4148 11.3777 -1.49689e-17)
(-18.9532 12.1311 -7.4385e-18)
(-18.4623 12.8659 1.4877e-17)
(-17.9429 13.5808 -1.49689e-17)
(-17.3959 14.2747 0)
(-16.8221 14.9467 1.4877e-17)
(-16.2223 15.5956 0)
(-15.5975 16.2205 0)
(-14.9487 16.8203 -1.4877e-17)
(-14.2768 17.3942 0)
(-13.5829 17.9413 1.49689e-17)
(-12.8681 18.4608 9.19189e-20)
(-12.1334 18.9517 7.4385e-18)
(-11.38 19.4135 1.49689e-17)
(-10.609 19.8453 7.4385e-18)
(-9.82174 20.2465 7.4385e-18)
(-9.0193 20.6165 1.11712e-17)
(-8.20294 20.9547 -1.12171e-17)
(-7.37394 21.2606 -3.7058e-18)
(-6.53357 21.5337 -3.73269e-18)
(-5.68312 21.7736 -1.86635e-18)
(-4.82392 21.9799 -5.59513e-18)
(-3.95727 22.1524 0)
(-3.08452 22.2907 0)
(-2.20702 22.3946 -9.44663e-19)
(-1.32611 22.4639 9.33173e-19)
(-0.443155 22.4987 4.67778e-19)
(-19.2738 0.377611 4.74219e-19)
(-19.2441 1.13401 0)
(-19.1848 1.88865 -1.89688e-18)
(-19.0958 2.64038 -9.50599e-19)
(-18.9774 3.38805 9.50599e-19)
(-18.8298 4.13048 -3.79376e-18)
(-18.6531 4.86655 7.61706e-18)
(-18.4477 5.59512 -7.61706e-18)
(-18.2138 6.31506 0)
(-17.9518 7.02526 -3.77285e-18)
(-17.6622 7.72462 3.80239e-18)
(-17.3453 8.41208 -1.14195e-17)
(-17.0016 9.08657 1.13899e-17)
(-16.6318 9.74704 -3.86147e-18)
(-16.2363 10.3925 3.80239e-18)
(-15.8158 11.0219 0)
(-15.3709 11.6343 1.5175e-17)
(-14.9023 12.2288 1.52341e-17)
(-14.4107 12.8045 -1.52341e-17)
(-13.8969 13.3604 0)
(-13.3616 13.8956 0)
(-12.8058 14.4095 1.52341e-17)
(-12.2302 14.9011 0)
(-11.6358 15.3698 -1.5175e-17)
(-11.0234 15.8148 -1.5175e-17)
(-10.394 16.2354 3.80239e-18)
(-9.74857 16.6309 -3.74331e-18)
(-9.08813 17.0008 3.80239e-18)
(-8.41367 17.3445 -1.14194e-17)
(-7.72625 17.6615 3.80239e-18)
(-7.0269 17.9512 -3.83193e-18)
(-6.31673 18.2132 0)
(-5.59681 18.4472 7.61705e-18)
(-4.86826 18.6527 -7.61705e-18)