/*--------------------------------*- C++ -*----------------------------------*\
| =========                 |                                                 |
| \\      /  F ield         | OpenFOAM: The Open Source CFD Toolbox           |
|  \\    /   O peration     | Version:  2412                                  |
|   \\  /    A nd           | Website:  www.openfoam.com                      |
|    \\/     M anipulation  |                                                 |
\*---------------------------------------------------------------------------*/
FoamFile
{
    version     2.0;
    format      ascii;
    arch        "LSB;label=32;scalar=64";
    class       volScalarField;
    location    "40";
    object      p;
}
// * * * * * * * * * * * * * * * * * * * * * * * * * * * * * * * * * * * * * //

dimensions      [0 2 -2 0 0 0 0];

internalField   nonuniform List<scalar> 
808
(
0.139778
0.0313029
0.017423
0.139729
-0.167925
0.0315682
0.0227094
0.0462188
-0.0818192
-0.0034957
0.0320765
-0.0938131
0.0389673
0.0274211
-0.334617
0.0350821
-0.353385
0.0302589
0.0288425
0.0269446
0.0556309
0.372246
0.0711788
0.0268005
0.445367
-0.124064
-0.0208761
0.0158883
0.0217387
0.0211372
0.0161095
0.0382521
0.0265404
0.0130755
-0.0628177
0.633942
0.0282709
0.0233748
0.0418475
0.0275222
-0.0330417
-0.021886
0.044098
0.0313653
-0.0380341
0.0865428
0.0282397
0.0470772
0.0383274
-0.119813
0.0218536
0.0427899
0.0492531
0.0179046
-0.124527
0.0358122
0.0188434
0.0439226
0.00406905
0.0320371
-0.273522
0.0370165
0.0528979
-0.158396
0.045903
0.0544963
-0.211959
0.0351385
0.0147662
-0.216472
0.0451099
-0.240951
0.043743
0.0339879
0.216809
0.0236104
0.00847186
-0.118896
0.0256656
0.295787
-0.079971
0.0312841
0.0461106
0.291608
0.0173168
-0.00731569
-0.285906
-0.15063
0.0506358
-0.191789
0.0597552
-0.0666579
0.243756
0.152368
0.0455789
-0.247739
0.0372182
-0.0309351
-0.0790977
-0.205296
0.0291849
0.0196171
0.0620084
-0.00438786
-0.113283
0.0600241
-0.0173891
-0.00176323
0.0350234
0.0643883
-0.0549253
0.322446
0.0412892
0.0717599
0.032477
0.459759
0.0350174
-0.199133
0.0336248
0.0783306
-0.353919
0.0465998
0.0366646
0.0801357
0.107726
-0.0901316
0.131368
0.0862164
0.0546539
0.0708966
-0.216343
0.0469965
-0.0284786
0.112328
0.0348619
0.0334537
-0.0411643
-0.00964499
0.0420674
0.0295064
-0.399743
0.0705997
-0.00247284
0.042699
-0.0568904
0.000530705
0.117501
0.177137
0.0621607
-0.00173288
0.0401172
0.329717
0.0520111
0.530026
-0.339254
-0.114365
0.0327112
-0.109857
-0.026911
-0.118308
-0.2505
-0.380929
-0.209127
0.0416068
0.0668121
0.0363452
0.0438028
-0.204784
0.0400562
0.0536907
0.0614375
0.151109
0.00321551
0.155112
0.032024
0.0919904
0.071753
-0.112415
0.0433091
-0.265683
0.0445358
-0.185159
0.039057
0.283803
-0.24644
0.116866
0.034783
-0.14045
0.0352253
-0.0860928
-0.350112
-0.0541754
0.0301043
0.105683
0.0380572
-0.390664
0.0279741
0.0516999
0.0213692
0.0726906
0.0877681
0.0484788
0.0310674
-0.230963
0.371843
-0.363297
-0.258746
0.0214309
0.0361147
0.0414883
0.0220672
-0.312304
-0.261152
0.0285218
0.0129262
0.0367442
-0.244062
-0.083609
0.0333188
0.0559228
0.00349337
-0.137287
0.0439408
0.0454849
0.00912038
0.0338449
0.124396
-0.310347
0.0866832
0.020375
0.11433
0.0266374
0.0311099
0.0161931
-0.0410158
0.0518467
0.0241625
0.0116763
0.036608
0.0276814
0.0150731
-0.00180362
0.00161635
0.0175741
-0.00157291
0.00900777
-0.0201143
-0.00640693
0.0212407
-0.0242111
-0.252451
-0.000726797
-0.0364297
-0.134655
-0.00193396
0.0367906
0.0214419
0.0062393
0.0361983
0.118924
0.0466913
0.0121742
0.0105743
0.0456827
0.0301155
0.00439348
0.0159533
0.0343428
0.0578568
-0.0503589
0.04025
-0.308273
0.264558
-0.00315729
0.0206115
0.0262125
0.00134446
0.0181548
-0.239565
0.303621
0.0479537
0.0484576
0.0421711
0.107094
0.0127895
0.00866768
-0.0379153
0.0168644
-0.0276815
-0.0601244
0.042286
0.0355261
0.0863439
0.063831
0.0198232
0.00691584
0.00105658
0.0531763
0.0108543
0.0152447
0.055472
0.029109
0.0660053
0.0187084
-0.422302
-0.0787167
-0.0158338
0.0251864
-0.136624
-0.124314
-0.0127078
0.030407
-0.264837
0.150327
0.177723
0.0334767
0.0298022
0.0508892
0.00944846
-0.159459
0.0305088
0.00460163
0.0356127
-0.049187
-0.0964283
0.0362003
0.0345699
0.0233307
-0.0520623
-0.291715
0.026415
0.0526285
0.124068
0.146842
0.0260065
0.221903
-0.0466288
-0.130598
0.555432
0.0149932
0.0102005
0.0353361
0.00252731
-0.0649496
0.105873
0.0331373
0.015739
0.0402111
-0.00423251
-0.322516
0.0603693
0.100597
-0.0274723
-0.301106
-0.256945
-0.293251
-0.251295
0.0514268
0.0430483
0.0219954
-0.0310265
0.00984643
0.0140762
0.041416
0.00378914
-0.41594
0.064977
0.0596299
0.0302036
-0.437028
0.0208929
-0.020909
0.133916
-0.230266
0.0683835
0.0110266
0.095859
-0.00929246
-0.279254
0.0649206
-0.39964
0.0426453
-0.0743932
0.0309585
0.0281334
0.0174304
0.0498305
-0.250622
0.028861
0.0238234
-0.0556122
-0.0055845
0.025919
0.0552262
0.0081929
0.0306947
0.0328376
0.0666682
0.0486451
0.0228491
-0.430652
-0.0280274
0.0360764
0.0388793
-0.114529
0.0120929
0.443854
-0.330682
0.0148087
-0.105711
0.0545202
0.0477104
0.0331644
-0.132953
0.024605
0.0895614
-0.040817
0.0260383
-0.000819499
-0.00596154
-0.00798024
-0.00807032
0.0315118
0.13949
-0.122515
0.0276929
0.0199235
-0.00350392
-0.0383058
0.0383009
-0.300998
-0.0953042
0.0191116
-0.0147433
-0.208841
-0.359268
0.0182858
-0.0360095
0.00991729
0.0420221
-0.0157087
-0.17534
0.194825
-0.221175
-0.368442
-0.387602
-0.0116185
-0.0521911
-0.365914
0.361313
0.00580076
-0.28255
0.0314045
-0.00736245
0.596366
0.00701765
0.0390655
0.0201887
-0.0296748
0.0173199
-0.148327
-0.388554
0.0847428
0.0870139
-0.00955058
-0.196184
-0.210931
-0.268059
0.0292076
0.00538601
0.0920121
0.00692518
-0.00848389
0.0801605
-0.0432435
0.051583
-0.176914
-0.406983
-0.0362907
-0.0612949
0.0463021
0.0105769
0.100752
-0.0392316
-0.0460325
-0.371598
0.466778
-0.299781
-0.290575
-0.0121986
-0.0458492
-0.313903
-0.314354
0.142607
-0.252569
-0.186596
0.870473
0.0340949
-0.267861
0.0328817
-0.035362
0.0654511
-0.375953
-0.327657
-0.220278
-0.0113383
-0.318912
-0.271318
0.00411234
0.00702499
0.0699241
-0.205459
0.0295749
-0.410098
-0.418746
-0.485554
-0.150777
-0.0408251
0.0417754
0.104526
0.149222
-0.00749663
-0.276788
0.321101
0.0639157
0.0259789
-0.346295
-0.406131
-0.229002
0.0793885
-0.261482
0.101061
-0.0735278
-0.0688065
-0.278207
-0.160784
0.0282391
-0.262287
-0.397267
0.0194316
0.0199277
0.0731746
0.0118535
0.032251
-0.294679
-0.266332
-0.084416
0.0808042
0.0437513
-0.253733
-0.368764
-0.353395
-0.2415
0.0297607
0.0935912
0.0124501
-0.318041
-0.396035
0.0886048
0.0433903
-0.145522
0.0411294
0.0177719
-0.428593
0.0442929
-0.193106
-0.000589563
-0.227334
-0.0260995
0.00253019
-0.464691
-0.555317
0.00605672
-0.389827
-0.369544
0.0302915
-0.116668
-0.33319
-0.0364733
-0.26813
0.055619
0.0550983
0.086282
-0.130493
0.0605323
-0.0142882
-0.523028
-0.0349493
-0.308378
0.0367998
-0.245583
-0.601706
0.131215
0.25169
0.451218
0.0232314
0.00990272
0.00167527
-0.251648
0.644253
0.03521
-0.259224
0.0421044
-0.0146071
0.11229
0.471816
-0.4701
-0.0065113
-0.021025
0.0493273
0.0235711
-0.553111
-0.287207
-0.29245
-0.351543
-0.210175
0.0254954
-0.286646
0.134286
-0.332898
-0.369769
0.49179
0.575263
-0.426483
0.151645
-0.324835
0.00681005
0.0039714
0.382776
0.0257135
-0.246808
0.059734
-0.591564
-0.0183886
-0.25133
-0.0599601
-0.408868
-0.361082
0.00318157
0.0138889
-0.2385
0.477814
0.67079
-0.224085
-0.386379
-0.242231
-0.0234277
-0.399465
-0.350694
-0.195976
-0.240785
0.744124
-0.431939
0.76275
-0.329032
0.353374
-0.228005
0.0132211
0.151725
-0.593635
0.263449
-0.33788
-0.390895
-0.417461
0.869917
-0.308395
0.234012
0.179701
0.662912
0.150146
-0.409355
-0.397318
-0.190058
0.0245084
0.05088
0.550764
0.025922
-0.0229004
-0.355782
0.0829286
-0.070164
-0.451802
0.0425287
-0.308167
-0.1011
-0.204228
-0.279773
0.0206549
0.129128
0.0319983
0.0666458
0.140672
-0.426015
-0.417796
0.0333656
0.00818005
-0.53916
-0.597652
0.144866
0.174994
0.113069
0.657918
-0.0302136
-0.0805132
-0.446865
-0.39116
-0.0122539
0.0499525
0.759836
-0.531762
0.407534
0.02331
-0.522687
0.13763
-0.118663
0.413042
-0.187514
0.0261496
-0.246859
-0.02732
0.233721
0.82746
0.353655
0.753409
-0.280839
-0.403223
-0.330428
0.13791
0.255017
0.0628532
0.362005
0.179292
0.505245
0.252724
0.0493708
-0.130296
0.063399
-0.298879
0.887096
0.427409
0.635925
0.513872
-0.319259
-0.252836
-0.340947
-0.274246
0.0506965
-0.332355
0.144401
0.587487
-0.249229
0.0274418
-0.268762
0.175414
-0.421883
-0.460331
-0.160682
-0.392661
-0.344751
-0.296414
-0.25545
-0.116356
-0.328464
-0.079301
0.00746906
0.127714
0.678763
-0.27244
-0.222952
0.821974
-0.22789
0.31772
-0.291708
0.42218
0.114729
-0.236929
-0.481049
0.423762
-0.212368
-0.384688
0.225554
-0.329999
0.00244405
-0.383436
-0.16421
0.0498217
0.589056
0.78731
-0.374255
0.254808
-0.300736
0.824274
0.0175086
-0.381845
-0.00132108
0.777465
0.195365
-0.389821
-0.352848
0.478983
-0.262223
0.00557056
0.328158
0.243303
0.320929
-0.307472
-0.379561
0.694893
)
;

boundaryField
{
    FrontBack
    {
        type            empty;
    }
    Top
    {
        type            zeroGradient;
    }
    In
    {
        type            zeroGradient;
    }
    Bottom
    {
        type            zeroGradient;
    }
    Out
    {
        type            fixedValue;
        value           uniform 0;
    }
    circle
    {
        type            zeroGradient;
    }
}


// ************************************************************************* //
