/*--------------------------------*- C++ -*----------------------------------*\
| =========                 |                                                 |
| \\      /  F ield         | OpenFOAM: The Open Source CFD Toolbox           |
|  \\    /   O peration     | Version:  2412                                  |
|   \\  /    A nd           | Website:  www.openfoam.com                      |
|    \\/     M anipulation  |                                                 |
\*---------------------------------------------------------------------------*/
FoamFile
{
    version     2.0;
    format      ascii;
    arch        "LSB;label=32;scalar=64";
    class       surfaceScalarField;
    location    "40";
    object      phi;
}
// * * * * * * * * * * * * * * * * * * * * * * * * * * * * * * * * * * * * * //

dimensions      [0 3 -1 0 0 0 0];

oriented        oriented;

internalField   nonuniform List<scalar> 
1171
(
-0.945125
0.945125
0.77981
-1.086
0.306185
-0.423848
-0.688284
1.11213
0.0548754
-0.0646852
-0.276916
0.341601
-0.77981
0.0968552
0.682955
0.949748
-0.213617
-0.736131
0.867518
-1.04037
0.172848
-0.357078
-0.0371552
0.394233
-0.0065775
0.609459
-0.602881
-0.406743
0.890916
-0.484173
-0.421763
1.0381
-0.170584
0.314082
0.0593842
-0.373466
1.01288
0.0252217
0.318808
-0.00472542
1.05477
-0.0418901
0.586737
-1.01058
-0.787487
0.603787
0.1837
0.415531
-0.822274
0.562341
-0.916447
0.354106
-1.07754
0.666788
0.41075
-0.641571
0.634993
0.0342885
-0.255041
0.220752
-0.000245785
-0.609464
0.60971
0.464996
-0.502151
-0.840587
0.879393
-0.0388059
1.01891
0.035857
0.916332
-1.07211
0.155782
1.05198
-0.0330663
-0.704995
-0.0824926
1.24628
-0.842343
-0.403938
0.211392
-0.0815574
-0.413689
0.495246
-0.274015
0.182423
0.0915913
-0.602613
-0.483382
0.96794
-0.0516074
-0.0105862
0.86595
-0.855364
0.53255
0.713731
0.527901
0.0209485
0.444047
-0.784142
-0.105419
0.88956
0.586657
0.223252
-0.809909
0.0497266
0.540004
-0.58973
-0.505897
-0.571642
-0.383814
-0.688301
0.0268183
0.245095
-0.271913
-0.93664
-0.0236816
0.960321
0.377249
0.0169845
0.857562
0.0921862
-0.599876
-0.0416947
0.0405644
-0.824706
0.170694
0.887417
-1.05811
-0.400207
0.013466
0.386741
-0.700965
-0.235674
-0.667437
0.83813
0.593966
0.296949
-0.581933
0.979057
-0.811858
-0.167199
0.0282437
-0.113021
0.084777
-0.456536
-0.0456155
-0.284836
0.878802
-0.01453
0.445464
-0.430934
-0.452382
1.03904
0.709861
-0.815279
0.400961
-0.0834215
-0.317539
0.775433
-0.775433
-0.936555
0.0387797
-0.315696
-0.69501
0.684424
-0.0312942
-0.143847
0.175141
0.896132
-0.0301818
1.0297
-0.806445
0.221997
-0.318584
0.096587
0.998254
-0.140692
-0.677277
-0.0348769
0.712154
0.1479
-0.233844
0.0859443
0.799433
-1.01305
-0.444878
0.312913
0.131965
0.621144
-0.621389
0.877868
-0.395286
-0.482582
0.494054
-0.695784
0.0375019
0.658282
0.188345
0.654543
0.0577458
-0.712289
0.13385
-0.0950704
-0.516448
0.116241
0.032297
-0.895359
0.863062
-0.55008
-0.760559
0.0555643
0.501216
-0.0571691
0.275187
-0.833687
0.5585
0.423694
0.576306
0.594912
-0.554347
-0.386431
-0.0390514
0.425482
0.561282
0.214151
-0.62613
0.675856
0.0875277
0.896288
6.88959e-05
-0.677346
-0.763799
0.796096
0.619666
0.0849252
0.383737
-0.468662
-0.157918
0.482312
0.0576915
0.853741
-0.5709
-0.282841
0.645849
0.333208
-0.429717
0.682155
-0.59723
0.41059
0.151751
-0.0551167
-0.69934
-0.0957288
0.795069
-0.125597
-0.649836
-0.612562
0.364251
0.248311
0.652139
-0.652071
0.310307
1.00964
0.0200611
-0.763799
0.0345904
-0.00634667
0.709861
0.773808
-0.773808
0.839794
-0.824695
-0.0150994
-0.455161
0.878855
-0.189985
-0.326464
0.762974
-0.669871
-0.0931033
-0.780754
0.0814143
0.112722
-0.712598
0.815279
-0.973197
-0.182836
0.205602
-0.0227657
0.132446
-0.981124
0.848678
0.551814
-0.0239125
-0.292915
0.596659
-0.303744
-0.652167
0.784613
-0.159719
0.70655
-0.83918
0.132631
1.22457
-0.706727
-0.517841
0.718692
-0.0735595
-0.00836059
0.0198855
-0.0115249
-0.802254
-0.983624
0.29534
-0.69501
0.568364
-0.554898
-0.128786
0.744971
-0.616186
0.778898
0.166226
0.493227
0.506773
0.0299275
-0.623386
0.593458
0.681723
0.172017
-0.718692
0.796096
0.179174
-0.434215
-0.0389322
0.0200547
0.0188775
0.663041
-0.443289
-0.219752
0.682955
0.0199799
-0.277075
0.527287
0.135754
-0.013048
0.00085409
0.0121939
0.00332696
-0.0116876
0.123044
-0.206466
-0.933527
0.0285113
-0.137432
-0.0597916
0.104957
0.754204
0.742619
-0.166313
0.411141
-0.539926
-0.163969
0.385966
0.632106
0.0508497
0.233309
-1.058
-0.973197
0.320079
0.684424
-0.159915
0.0160677
-0.782715
0.982
-0.199285
0.479391
-0.0926499
0.789502
0.304216
0.21901
0.0997979
-0.680408
0.680408
0.223742
0.665818
-0.0197767
0.465241
0.475469
-0.00930175
-0.0296305
0.539484
0.0123299
-0.652167
0.568945
0.19403
0.0459313
-0.0260457
-0.632106
0.191688
0.790312
0.028922
-0.750039
0.721117
0.754878
-0.822662
0.067784
-0.778898
-0.03104
0.042529
-0.011489
0.0835528
-0.142175
-0.108847
0.251022
-0.00591938
-0.00712859
0.802453
-0.773531
0.81447
0.297662
-0.512308
-0.387784
0.900092
-0.00186525
0.00186525
0.16655
0.312421
0.834384
-1.14681
-0.201841
-0.562203
0.764044
-0.0203219
0.195463
0.386291
-0.238391
0.975798
-0.663376
0.679517
0.949869
-0.115485
0.196306
0.784613
0.614029
0.238451
0.640942
-0.649836
0.319592
-0.087696
-0.00597491
0.0936709
0.87831
-0.179369
-0.698942
-0.572139
0.539073
0.544839
-0.572139
-0.614029
0.539073
-0.00498619
0.906261
-0.0917911
-0.561282
0.480478
0.0808044
0.524438
0.60143
-1.12587
0.4911
0.484697
0.555452
0.519394
-1.07485
0.42893
0.520939
0.480478
-0.514581
-0.501807
-0.732245
-0.569017
-0.0942091
-0.0031775
0.0031775
0.722762
0.521578
-1.0906
0.739718
-0.355981
-1.11993
0.413198
-0.666755
0.431081
0.0499867
-1.03226
0.982277
0.449704
0.137684
0.740626
-1.17974
-0.957849
-0.0493507
1.0072
0.238274
-0.124449
-0.113825
0.735602
-0.78721
0.976846
-1.08165
0.104808
0.113596
-0.684496
-0.0823412
0.895474
-0.813133
-0.805936
0.919532
-0.727729
0.603336
0.124393
-0.867298
0.283724
0.583574
0.00276783
-0.00463308
0.426938
0.202899
-1.04962
0.846718
-0.717122
0.747049
1.05291
-0.000550419
-1.05236
0.0950592
-0.00564409
0.431126
-0.359407
0.0408237
0.999792
-0.949805
-0.569636
-0.683348
-0.00114739
-0.141073
-1.0704
-0.0112531
0.595098
-0.183958
-0.153337
0.39161
-0.508645
0.792369
0.482582
-0.89458
-0.806487
0.0997744
-0.32904
0.777543
-0.448502
-0.0881229
-0.898676
0.577903
0.176975
-0.268898
1.00952
0.870181
1.01376
-1.02501
0.0455213
-0.0455213
-0.0941024
-0.256783
0.132334
0.343406
-0.0233267
0.23899
0.921401
0.0123104
-0.0182298
0.657628
0.342372
0.797443
-0.602613
-0.755595
-0.627871
-0.500267
0.500267
-0.207463
-0.108233
0.656319
-1.00679
0.350472
-0.483406
-0.577267
0.356639
-1.04494
-0.996279
1.10109
-0.717491
0.716343
0.676181
0.207898
-0.884079
-0.503478
-0.164659
0.84217
-0.67751
0.074878
0.0037414
0.00356194
-0.00730334
0.0484196
-0.305202
1.01296
0.532977
-0.27299
-0.259987
0.419152
0.738439
-0.514697
0.0101274
-0.284142
0.226446
0.701538
-0.927984
-0.368758
-0.0412653
0.125075
-0.90065
0.201708
-0.798893
0.0828177
0.768986
-0.851804
-0.934815
0.135922
0.707509
-0.748775
0.226576
-0.368751
-0.40564
-0.097838
0.372958
0.730692
-0.0485373
0.00261853
-0.00261853
-0.00232341
-0.0619147
-0.0257813
-0.0204348
0.0327452
-0.589598
0.333929
0.74821
-0.861172
0.112962
-0.784004
0.866821
0.766832
-0.0593233
-0.772635
-0.162179
-1.21565
0.020879
0.0246423
-0.363151
-0.854977
-0.816867
0.412929
-0.312863
0.412827
-0.099964
-0.645151
0.282
0.566238
0.712503
-0.0349976
-0.024794
0.998488
0.479957
0.196307
-0.676263
-0.43717
-0.207981
-0.00476718
0.00850858
0.753791
-0.84952
0.00733366
-0.00733366
-0.67633
0.711703
-0.035373
-0.590507
-0.0812651
-0.706864
-0.0876802
0.681138
-0.0513618
-0.871523
-0.0426869
0.355846
-0.313159
0.88017
-0.767208
0.333547
0.254321
-0.587868
-0.101186
-0.745765
-0.106038
-0.196374
-0.130367
0.46921
-0.514826
0.137817
0.738739
-0.876556
0.494054
-0.223761
-0.0891017
-0.149888
0.0195208
0.594115
-0.0866511
-0.507464
-0.284126
0.304478
-0.0203518
0.538022
0.201696
0.0210672
-0.310569
0.167504
0.143065
0.121792
-0.0872013
-0.236716
0.0280961
0.26474
-0.292836
0.881225
-0.435794
-0.154712
0.552501
0.280176
-0.553166
0.421599
-0.421599
-0.202729
-0.409767
-0.21686
-0.409767
-0.639429
-0.849145
0.179274
-0.30346
0.746701
0.0392164
0.195118
0.535574
0.107248
0.1172
0.0104477
-0.127647
0.052386
0.801265
-1.06385
0.676064
0.101423
0.00708631
-0.10851
-0.736834
-0.176668
-0.516783
0.71309
-0.55015
0.0756928
-0.056172
-0.340866
-0.082204
0.082204
0.0419423
0.000586633
0.138079
0.325626
-0.733139
0.216356
0.0954484
0.470991
0.529009
0.768116
0.0177165
0.0383815
-0.056098
-0.289683
-0.58184
-0.512453
0.112398
-0.117556
0.00515818
-0.112726
-0.413115
0.0158872
0.665251
-0.580234
-0.156599
-0.037328
0.0366295
-0.0180644
-0.257927
-0.197015
-0.181889
-0.0245766
-0.486215
0.414326
0.0718886
0.0578959
0.292789
-0.864431
-0.528588
0.717637
-0.843697
0.742511
0.459596
-0.045394
0.0773601
-0.0319661
0.0996134
-0.632031
0.00502152
0.627009
-0.891778
0.626772
-0.720874
0.0372389
0.00651227
-0.00651227
-0.300442
0.467586
-0.03646
-0.00528049
0.022997
0.571129
0.470741
-0.753582
0.0147743
0.00664259
-0.00402407
0.00315623
-0.00315623
-0.490375
0.692071
0.0134474
-0.0134474
-0.773066
-0.00815687
0.0109247
-0.441744
0.6581
0.500578
-0.535951
0.068523
-0.068523
0.047254
-0.0768844
0.013574
-1.0422
0.524357
-0.590339
-0.00463308
0.589014
0.0136294
-0.602643
-0.693594
0.11336
-0.319885
-0.0115828
0.331468
-0.0173657
-0.0176319
-0.598653
-0.0333779
0.0246423
0.00570029
0.00163337
-0.00167145
0.00167145
-0.575953
0.283117
-0.445475
0.135037
0.662406
-0.140689
0.000943416
-0.000943416
0.508493
0.133684
0.00837752
0.01813
-0.00147685
0.63425
-0.500566
-0.81725
0.662538
-0.122753
0.327292
0.80879
-0.00232341
-0.124303
0.0982575
-0.669234
0.544956
-0.197245
-0.10458
-0.0207494
-0.0260648
0.0179467
0.487799
-0.092133
-0.415331
0.712329
2.12651e-05
0.00836581
-0.00836581
-0.260221
-0.250327
-0.57231
0.611527
-0.154241
0.504526
-0.225748
0.812485
0.937187
0.00570029
-0.73122
0.660112
-0.0621078
-0.074807
0.136915
0.720434
0.0904994
-0.0138357
0.0772141
-0.0633784
0.0121642
-0.0121642
-0.779996
0.0230017
-0.0430082
0.0611383
-0.0884042
0.0884042
0.00664259
-0.00137999
0.776957
0.0133555
-0.320037
-0.0930776
-0.518569
-0.0994357
-0.0701713
0.0701713
-0.00884401
0.0805366
-0.0805366
0.0306035
-0.0306035
-0.35359
-0.0761267
0.241594
0.071319
0.0588789
-0.731441
-0.0595187
0.16202
0.017154
-0.259639
0.0803197
-0.0803197
-0.464092
-0.0507336
0.232794
-0.0120416
0.00402884
-0.635415
0.640401
0.091435
-0.100279
-0.056895
-0.0199894
-0.0120136
-0.156018
0.168031
-0.148733
-0.220018
-0.0840301
0.0840301
0.0559232
-0.0559232
-0.0297366
-0.0949309
0.124668
0.0319041
-0.187539
-0.00747091
0.00344685
-0.282072
0.565189
-0.0262808
0.376028
0.00672087
0.00547301
-0.055304
0.055304
-0.715852
0.322875
-0.12657
-0.211835
-0.0220092
-0.023797
0.0278259
0.20332
0.0477023
-0.00204115
0.000564298
0.0827461
0.0296518
0.0550478
0.106973
-0.025874
0.00108001
0.00103215
0.00687122
0.00250687
0.0107658
-0.0132727
-0.00172322
0.00674214
0.0286077
-0.0286077
0.053417
-0.0414228
0.0414228
-0.191903
0.0123442
0.0243658
-0.0782912
0.0184392
0.0762328
-0.0762328
0.275209
-0.249557
0.100824
-0.0679511
-0.181606
-0.0167801
0.0167801
0.405182
0.2531
-0.51756
-0.0808456
-0.0367106
0.540219
-0.0249909
-0.0766009
-0.478734
0.0774669
-0.154768
0.172881
-0.0181129
-0.0465809
0.0465809
0.886257
-0.590777
-0.0106368
0.00891356
-0.00620014
-0.284902
-0.00021684
0.00437408
-0.043451
-0.619277
0.569302
-0.641849
0.0138588
0.177139
0.0148673
0.0247006
-0.160968
-0.336883
0.258591
-0.057052
0.0273155
0.170849
0.133629
0.139554
0.269917
-0.255049
0.00414023
-0.114053
-0.223418
0.0688797
-0.0138319
0.168048
-0.143347
-0.0688057
0.151552
-0.387528
0.13133
-0.11289
0.0614456
-0.476776
0.177255
0.175837
-0.244643
0.00470099
-0.176586
0.17637
0.00408696
0.147465
-0.0279753
0.0521304
0.456362
0.0118276
0.0295203
0.00075915
0.0350735
-0.241531
-0.204918
0.587725
0.170212
0.0625818
0.0801084
-0.0633856
0.113182
0.0237326
-0.0302275
0.169105
-0.155246
0.047467
-0.00718992
-0.104646
-0.0291215
0.048547
0.254756
-0.0191375
0.0931927
-0.312668
-0.00528763
0.216661
0.147315
0.175561
0.0551573
0.0983867
0.0429118
0.528217
-0.0122405
0.101578
0.0440594
0.0646859
-0.108745
-0.264459
-0.202472
0.0208663
-0.22202
0.291802
)
;

boundaryField
{
    FrontBack
    {
        type            empty;
    }
    Top
    {
        type            calculated;
        value           uniform 0;
    }
    In
    {
        type            calculated;
        value           uniform -1;
    }
    Bottom
    {
        type            calculated;
        value           uniform 0;
    }
    Out
    {
        type            calculated;
        value           nonuniform List<scalar> 10(1.04655 1.03902 1.23405 0.913627 1.12082 1.08996 1.24434 1.06067 0.624328 0.626628);
    }
    circle
    {
        type            calculated;
        value           uniform 0;
    }
}


// ************************************************************************* //
