/*--------------------------------*- C++ -*----------------------------------*\
| =========                 |                                                 |
| \\      /  F ield         | OpenFOAM: The Open Source CFD Toolbox           |
|  \\    /   O peration     | Version:  2412                                  |
|   \\  /    A nd           | Website:  www.openfoam.com                      |
|    \\/     M anipulation  |                                                 |
\*---------------------------------------------------------------------------*/
FoamFile
{
    version     2.0;
    format      ascii;
    arch        "LSB;label=32;scalar=64";
    class       volVectorField;
    location    "40";
    object      U;
}
// * * * * * * * * * * * * * * * * * * * * * * * * * * * * * * * * * * * * * //

dimensions      [0 1 -1 0 0 0 0];

internalField   nonuniform List<vector> 
808
(
(0.897329 -0.00895205 0)
(1.01661 -0.0301468 0)
(1.23632 0.237373 0)
(1.06676 0.010728 -2.95521e-21)
(1.4666 -0.294628 0)
(0.954768 -0.0326575 0)
(1.1676 -0.0581064 -4.78128e-21)
(1.13003 -0.0046197 0)
(1.35119 -0.230978 1.73094e-20)
(1.23626 -0.0941849 1.19408e-22)
(1.09398 -0.202682 8.75635e-21)
(1.37542 -0.263027 0)
(1.02255 -0.0190726 0)
(0.749099 -0.0211263 0)
(1.06829 -0.0841855 2.15501e-20)
(1.12162 -0.0292731 0)
(0.967526 -0.0699278 -6.63171e-21)
(1.02634 -0.0472176 -1.42064e-22)
(1.18266 0.169254 0)
(1.12065 0.00643949 0)
(1.16237 -0.224481 -1.2223e-20)
(0.931887 0.130065 1.07268e-19)
(1.07105 0.00563856 -1.32079e-20)
(1.17015 -0.0198639 0)
(0.958948 0.188054 0)
(1.25148 -0.0466609 -2.71248e-20)
(1.27442 -0.177436 -1.22589e-21)
(0.958626 -0.0264074 -6.21001e-21)
(1.1255 -0.0375885 0)
(1.04643 0.0439924 -2.00634e-22)
(1.01644 -0.042719 5.05205e-24)
(1.12371 -0.00344106 0)
(1.0357 0.0200976 0)
(1.09342 -0.0234373 4.68452e-21)
(1.30328 -0.0713851 5.44726e-21)
(0.741399 -0.105378 1.13516e-19)
(0.880115 -0.0317249 -1.16653e-20)
(1.02566 0.0218864 1.13407e-21)
(1.19393 0.0279899 -6.22783e-21)
(1.07589 -0.00266829 0)
(1.27034 -0.0516593 -9.33695e-21)
(1.2751 -0.130572 0)
(1.00104 0.00117897 -8.80525e-21)
(1.10911 -0.0535504 1.06219e-20)
(1.06746 -0.0218263 0)
(1.00883 0.0134924 -1.85843e-20)
(1.00322 0.0187297 2.30551e-21)
(1.24766 -0.251102 -1.23042e-20)
(1.1591 0.0335011 -1.3083e-20)
(1.40738 -0.193088 -2.5006e-20)
(1.15517 -0.0463557 8.22384e-21)
(1.14632 -0.0741808 0)
(1.11376 -0.00901976 7.92268e-21)
(1.10029 -0.0635213 0)
(1.31813 0.19567 7.19363e-21)
(1.04649 0.0347863 -4.85627e-21)
(1.13777 -0.0762171 0)
(1.04578 -0.0537158 5.35391e-21)
(1.23807 -0.0912219 -1.28175e-22)
(1.11935 0.0446456 -1.59525e-21)
(-0.122641 -0.130038 0)
(1.21079 -0.214022 1.0073e-21)
(1.02414 -0.0327768 0)
(1.45265 -0.0841986 -2.32226e-20)
(1.06547 -0.090186 -1.37222e-20)
(1.03767 -0.029117 -9.43796e-21)
(1.35706 -0.162392 2.54797e-20)
(0.653472 0.00926977 0)
(1.12527 -0.106979 0)
(1.43248 -0.359233 0)
(0.904195 0.0226182 -4.03376e-22)
(1.2321 -0.152715 -3.16097e-20)
(1.01095 0.0404998 0)
(1.04038 -0.0491687 -5.2062e-21)
(1.11802 -0.331319 -6.41236e-20)
(1.15165 -0.0715071 -1.01729e-20)
(1.13199 0.0390915 -3.54293e-23)
(1.3434 0.482116 2.70397e-20)
(1.10591 -0.0426545 0)
(1.01986 0.283833 -1.72175e-19)
(1.27192 -0.00720644 1.19902e-20)
(0.747759 0.028303 0)
(0.850927 0.0417199 -1.21585e-20)
(0.968088 -0.111306 4.64952e-21)
(1.10523 -0.0829651 6.83461e-21)
(1.18278 0.0249363 8.10345e-22)
(1.26864 -0.243342 0)
(1.36457 0.253204 0)
(1.08086 0.00596412 -2.32473e-20)
(1.39184 -0.0248892 2.56033e-20)
(1.08396 -0.0122382 1.90029e-20)
(1.31745 -0.126589 -9.87708e-22)
(0.96746 0.0270305 1.58357e-20)
(1.00417 -0.024671 0)
(1.10363 0.0136839 1.68061e-21)
(1.36918 -0.0947214 -7.56286e-20)
(0.775915 0.0228921 -4.51647e-21)
(1.22647 -0.0130472 0)
(1.33751 -0.0864499 0)
(1.43051 -0.140442 -3.75618e-20)
(1.10887 -0.0655739 -5.67993e-21)
(1.1213 0.0190855 -1.9371e-22)
(0.942224 0.0269906 1.61562e-20)
(1.17463 0.0444028 4.16548e-23)
(1.33439 0.0660516 -2.73941e-20)
(0.999854 0.00256045 1.29811e-20)
(1.3708 0.0360719 0)
(0.754004 -0.23356 0)
(1.07537 0.0316984 1.08195e-20)
(1.19729 -0.216617 -1.1346e-20)
(1.2592 0.0591733 6.22014e-21)
(1.04857 0.0486311 -1.18481e-19)
(1.13762 0.0416937 -4.36602e-21)
(1.10506 -0.102908 9.81493e-21)
(0.797456 0.0151103 0)
(0.916666 -0.0430742 7.77939e-20)
(1.12842 0.0364773 -1.06978e-20)
(1.42714 -0.275652 -1.26754e-20)
(1.10697 -0.0430453 -1.03432e-20)
(0.929678 0.0164194 2.39542e-21)
(0.010333 -0.0517502 0)
(0.853792 -0.0159866 1.63415e-21)
(0.778872 0.0256633 0)
(1.0562 0.00454933 -1.25186e-22)
(1.0132 0.0271001 0)
(1.32172 0.297972 1.24781e-20)
(1.03275 -0.0553631 -3.89265e-20)
(1.15018 -0.0152611 5.21901e-21)
(1.1482 -0.050088 0)
(1.0897 -0.0253015 0)
(0.568764 -0.131531 0)
(1.10583 -0.0258277 -6.10789e-21)
(1.25536 -0.0435857 4.93669e-21)
(1.06934 0.112121 -2.98541e-20)
(0.852208 0.0010379 0)
(1.08753 0.0306553 -2.80832e-21)
(1.18691 0.0702009 -2.75658e-21)
(1.2787 0.0127061 1.74078e-21)
(0.980212 0.0279461 7.09861e-21)
(1.11847 0.015317 1.62395e-22)
(0.0472435 0.0265097 0)
(1.09558 -0.0162499 -2.10795e-20)
(1.24427 0.250645 -4.60649e-22)
(0.714975 0.0212531 -6.74796e-21)
(1.26234 0.134142 5.09937e-22)
(0.970216 -0.216917 1.17674e-22)
(1.04445 0.0161012 2.09237e-20)
(0.991295 0.0306026 0)
(1.09706 0.0918606 1.01151e-20)
(0.837534 -0.244512 0)
(0.936185 0.0256848 1.40914e-20)
(0.973981 0.288963 1.3823e-19)
(0.965085 0.0303547 0)
(0.820245 0.108621 0)
(-0.137191 -0.0495018 -8.61062e-20)
(1.32358 0.0847791 -1.56061e-20)
(0.670864 -0.0191036 0)
(1.39133 -0.0496844 0)
(1.23304 0.185578 0)
(1.31176 0.0311727 1.53102e-20)
(-0.0287026 -0.0883262 0)
(-0.0485378 0.0756044 4.39322e-20)
(0.95728 -0.0957491 5.84876e-20)
(0.992751 0.0371882 2.23859e-21)
(0.854226 0.000754799 0)
(1.01579 -0.0182375 1.61374e-20)
(0.877908 0.0271308 0)
(0.712473 -0.0769585 -6.32089e-20)
(1.01041 0.0262369 2.14164e-20)
(1.07114 -0.059268 4.95102e-21)
(1.08772 0.0156828 1.04542e-20)
(1.0158 0.0699249 -1.1024e-20)
(0.665937 -0.276214 -1.17151e-22)
(1.13198 -0.343581 9.20596e-22)
(0.904399 -0.0281203 0)
(1.06543 0.00323564 -1.7565e-20)
(0.871758 0.00868647 -1.07501e-20)
(1.38866 -0.182373 1.49963e-21)
(0.708172 0.0311246 0)
(1.02529 -0.150369 0)
(1.0777 -0.0145474 3.64352e-21)
(1.40265 0.169799 1.31034e-20)
(1.10185 0.0296049 8.45266e-21)
(1.0373 0.0252726 2.1467e-20)
(0.783277 -0.183826 -4.61821e-20)
(0.812813 0.00204629 1.93219e-20)
(1.12991 -0.0213425 7.69208e-21)
(1.42038 -0.0902036 -4.35472e-21)
(1.07072 -0.0455625 -7.55038e-21)
(1.35138 -0.0303767 3.73171e-21)
(-0.137206 -0.0566119 6.38221e-20)
(1.28009 0.00883381 0)
(0.614995 -0.0176821 0)
(1.06457 -0.0201464 -8.66265e-21)
(1.08838 0.0203647 1.27268e-20)
(0.176696 -0.0165044 0)
(0.871902 -0.0163856 5.95959e-22)
(1.06898 0.0132204 -5.67474e-21)
(1.01474 0.0358941 3.58343e-21)
(1.07619 0.030338 -6.85112e-21)
(1.0008 0.0200762 2.68608e-21)
(1.02294 -0.000691193 5.00575e-21)
(1.04003 0.0235039 0)
(0.297763 -0.0400833 0)
(1.04536 -0.0617322 0)
(1.23202 0.0555778 -3.9843e-20)
(-0.0283396 -0.107878 4.31142e-20)
(1.14379 0.0249888 -3.27711e-23)
(1.14232 0.197309 0)
(0.734103 0.015487 -1.35398e-20)
(1.14091 -0.24037 2.78289e-21)
(-0.0124051 -0.0387429 -1.24332e-19)
(0.876604 -0.0818735 -5.27458e-20)
(0.619994 -0.0157583 0)
(0.967609 -0.249226 0)
(0.948923 0.0470194 1.31694e-20)
(0.993467 -0.121222 4.50816e-21)
(1.30006 0.38186 8.2092e-21)
(1.07356 -0.135294 -3.92721e-22)
(1.04717 -0.00695457 -6.39006e-21)
(0.991048 -0.301201 0)
(1.38423 0.402944 -5.75878e-20)
(0.679875 -0.0158152 0)
(0.817812 -0.0234511 -6.09095e-21)
(1.03668 -0.0228437 3.0883e-22)
(0.595934 0.0164326 0)
(1.10078 -0.00614491 0)
(0.267653 -0.177693 -5.39362e-20)
(0.926514 0.186984 -1.87381e-20)
(0.730136 -0.0222257 2.92722e-21)
(0.990745 -0.00300076 0)
(0.566708 -0.0201505 0)
(0.778061 -0.0224431 -5.42107e-21)
(0.537786 -0.0183364 -5.02844e-22)
(1.2514 -0.00216964 1.1861e-22)
(1.16439 0.103198 -8.79918e-21)
(0.731089 0.0161352 -3.60381e-21)
(1.06541 -0.0154523 7.80047e-22)
(0.975538 -0.0451347 3.701e-22)
(0.572686 0.0123028 9.46458e-21)
(1.09641 -0.00829847 1.12104e-21)
(1.05585 0.0865418 0)
(0.919894 -0.145153 0)
(0.524996 0.0169384 0)
(1.04221 -0.00201757 0)
(1.2297 0.0804213 -1.73189e-21)
(0.928321 0.0549573 0)
(1.12719 0.035615 0)
(1.07439 0.0691997 0)
(1.10589 -0.0928445 0)
(-0.0110466 -0.02171 3.92758e-20)
(1.3269 0.0703315 6.98885e-22)
(1.13125 0.00342165 0)
(1.38752 0.121803 1.6319e-20)
(1.30074 -0.00972196 2.5106e-22)
(1.08075 0.0383822 6.22441e-21)
(1.23508 0.10757 2.57109e-21)
(1.2336 0.136993 0)
(0.603807 -0.0117853 1.17692e-20)
(1.0517 0.034015 1.0722e-20)
(1.0723 0.241577 0)
(1.13582 -0.12553 -3.3001e-21)
(1.2148 -0.10789 3.02851e-21)
(0.357445 0.0732 -5.77911e-21)
(1.12574 0.0631549 5.2672e-21)
(1.22089 -0.156581 -8.83117e-22)
(0.826798 -0.120983 0)
(1.24334 -0.110299 -1.90542e-20)
(0.926986 -0.147942 -9.92498e-21)
(0.901291 0.111485 -6.82825e-21)
(0.819585 0.262833 0)
(-0.0255446 -0.0195371 0)
(0.981048 0.116239 -1.70656e-20)
(1.18578 -0.0615546 0)
(1.24391 0.0400825 -4.34006e-21)
(1.10584 -0.0623669 2.22811e-21)
(1.23568 -0.18633 8.49027e-22)
(1.12718 -0.0705135 -2.32547e-21)
(1.40561 -0.0779026 1.13953e-19)
(1.01373 -0.318281 6.47356e-20)
(1.18696 -0.000688672 -9.642e-22)
(0.995152 0.254263 0)
(0.735851 -0.0311395 0)
(0.908386 0.00666626 -3.60597e-20)
(1.07777 0.0583988 9.39412e-21)
(1.30772 -0.0418595 0)
(0.643246 -0.238326 -1.09924e-20)
(0.448854 -0.226532 0)
(0.767214 0.273238 -1.12273e-21)
(0.92757 -0.0119376 1.297e-20)
(0.827692 0.0294977 -8.28036e-21)
(1.15923 0.113944 0)
(1.08593 -0.0949161 -2.59888e-21)
(0.982757 0.0422453 9.17001e-21)
(0.740896 0.344766 -6.71144e-21)
(1.25635 0.00923182 -2.5529e-21)
(0.956075 0.30859 0)
(1.08801 0.0614712 0)
(1.05308 0.230218 -1.46764e-22)
(0.842769 0.290308 1.13412e-21)
(1.1506 -0.117149 1.44945e-20)
(1.22518 -0.029185 -5.04397e-21)
(0.869856 0.100565 1.44469e-21)
(1.19671 -0.0553719 0)
(0.405479 -0.136753 1.19252e-20)
(1.28409 0.0313444 -1.54364e-20)
(1.05705 0.222064 6.9117e-21)
(0.262877 0.161637 6.10984e-21)
(1.43737 -0.151775 1.9663e-20)
(0.818521 -0.190404 4.64194e-20)
(1.19374 0.122564 1.76864e-22)
(1.19175 -0.0232216 -1.66275e-21)
(-0.0558852 -0.142083 -7.3358e-21)
(1.00131 -0.00669935 0)
(1.03635 -0.0875286 -1.72734e-20)
(0.848688 -0.0270324 1.2892e-20)
(1.09968 -0.0475653 6.1839e-21)
(0.725 0.192233 -1.36265e-21)
(0.517357 -0.0132502 8.80309e-22)
(1.40499 -0.38812 -1.48084e-20)
(1.1548 0.0594091 0)
(1.0604 0.0415829 -2.20467e-21)
(1.13905 0.0420502 -3.02938e-21)
(1.31162 -0.148308 0)
(0.826652 -0.0111647 2.44359e-20)
(1.15206 0.0456363 4.26631e-21)
(0.70777 0.101236 1.81068e-20)
(1.15543 -0.00858974 -1.01526e-20)
(0.983372 0.095039 -1.35425e-20)
(-0.0465817 -0.0311926 0)
(0.334821 0.405356 -5.46022e-21)
(1.14949 0.0721422 0)
(0.868182 0.131315 -1.68356e-20)
(0.656086 0.0813361 0)
(1.11677 -0.00167684 6.1042e-21)
(1.0153 0.0237457 0)
(1.17105 -1.08061e-05 0)
(1.41757 -0.139014 1.83794e-20)
(0.794329 -0.0786471 0)
(1.22061 -0.251528 9.76941e-21)
(1.0819 -0.0196007 -9.97372e-23)
(1.07795 0.0648429 3.64034e-21)
(1.20956 0.0159535 2.14574e-21)
(1.23028 0.0912766 -9.13584e-21)
(1.04129 0.0544482 3.30663e-20)
(1.23404 0.0676998 0)
(1.23988 -0.0811639 0)
(1.19022 0.0495537 1.53885e-21)
(1.19245 0.00474736 0)
(1.47317 0.144133 -3.37781e-20)
(0.635989 -0.118564 1.43192e-21)
(1.0256 0.0130569 2.01168e-20)
(1.23386 0.108433 -1.3564e-22)
(-0.0185422 0.024576 0)
(-0.0198222 -0.0413132 0)
(0.172265 -0.239518 -3.99145e-20)
(-0.0467366 -0.17478 0)
(0.624435 -0.245612 -1.22566e-20)
(1.19062 0.0315324 -4.21386e-21)
(1.17919 -0.131661 -4.1622e-21)
(1.33499 -0.0222068 2.23807e-21)
(1.1879 0.00956027 0)
(0.69622 -0.00478804 -2.51948e-21)
(1.23484 0.0272542 0)
(1.21607 0.0472352 1.62112e-21)
(0.489487 -0.109455 0)
(0.701775 -0.28809 -2.98799e-22)
(1.18042 -0.00714833 0)
(1.08883 0.0212844 0)
(1.03486 0.197471 8.21305e-20)
(0.6854 -0.322349 -1.78379e-22)
(0.805227 -0.223129 -5.61686e-21)
(1.01015 0.0183942 -1.14435e-20)
(0.132534 -0.145986 0)
(1.14238 -0.131096 -2.75934e-20)
(1.1449 0.0721279 4.42921e-21)
(0.997981 -0.106109 -3.1414e-21)
(0.897308 -0.266301 -5.69885e-21)
(-0.058263 -0.074268 -9.49293e-20)
(1.11917 -0.00876293 0)
(-0.0404774 0.0574598 0)
(1.11238 0.0409496 1.43782e-20)
(0.730217 -0.243184 6.13433e-21)
(1.07021 0.0406616 -1.17864e-20)
(1.12837 -0.041725 0)
(1.15474 -0.123557 3.29538e-21)
(1.07595 0.0959577 -9.65706e-21)
(0.507797 -0.0572278 -7.46335e-21)
(1.14148 -0.0291235 -5.23144e-21)
(1.20037 -0.0929321 -3.88829e-22)
(0.216745 0.490592 -1.10288e-20)
(1.33338 -0.123587 2.5658e-21)
(1.09914 0.05002 0)
(1.16362 -0.0345144 0)
(1.22069 0.00174618 -1.398e-21)
(1.10212 0.0719666 -4.00327e-21)
(0.335027 0.175811 -1.7907e-21)
(1.19001 -0.118761 -2.50927e-20)
(1.08108 0.0316919 1.68716e-20)
(0.524955 -0.0049897 1.51549e-20)
(0.684568 -0.0308344 -1.51191e-19)
(-0.189117 0.315881 -4.07996e-22)
(1.1805 0.164029 -6.90487e-21)
(1.22586 -0.490729 2.5129e-21)
(1.37251 0.133493 -1.64105e-20)
(1.21808 -0.0232828 1.65668e-21)
(0.936101 -0.225073 9.75743e-20)
(0.235875 0.265925 0)
(1.09115 -0.0654711 -1.43928e-21)
(0.407481 0.52249 -1.0167e-20)
(1.10329 3.20766e-05 -1.24417e-20)
(1.06035 0.0831621 9.92452e-21)
(1.10792 0.0422344 0)
(0.883608 -0.159105 0)
(1.16468 -0.0386058 0)
(1.10197 0.075706 8.64647e-21)
(1.25828 0.0161553 -1.63254e-20)
(1.16773 -0.0425759 6.33046e-21)
(0.478961 0.0180115 0)
(0.630293 0.0140346 0)
(0.63223 -0.00501019 2.49834e-22)
(0.455518 -0.0173313 0)
(1.07428 0.00655085 0)
(1.02112 -0.00855285 3.06205e-20)
(0.557611 0.139641 0)
(0.936245 0.00561417 0)
(1.11111 -0.0946924 0)
(1.17877 0.17317 2.22628e-21)
(1.20717 0.0891688 4.62736e-21)
(0.96434 -0.0282526 8.74509e-21)
(1.27965 -0.40286 -9.23944e-20)
(0.670606 0.166753 1.32744e-20)
(1.36131 -0.0254751 3.50695e-21)
(1.30131 -0.202488 0)
(-0.0583674 0.160367 0)
(-0.204567 -0.324119 0)
(1.15632 -0.0210671 6.76049e-21)
(1.31689 -0.291139 -7.79378e-21)
(1.21769 0.150072 0)
(1.12177 0.0382495 -1.1448e-20)
(0.170296 -0.0222023 0)
(1.50981 -0.185365 5.70524e-20)
(0.420924 0.532627 9.86348e-20)
(0.238308 -0.0426676 0)
(1.08472 -0.279956 9.91728e-20)
(0.865813 0.236927 0)
(0.0890321 0.425624 1.33269e-20)
(1.25824 0.143194 0)
(0.0728809 -0.241485 -1.0429e-20)
(0.984319 -0.0502831 0)
(1.26334 0.055426 2.27015e-21)
(-0.155988 -0.16552 -7.27626e-21)
(1.11831 -0.0161152 3.85578e-21)
(1.229 -0.250549 -3.66513e-22)
(0.566453 -0.502408 -9.47036e-20)
(1.20388 -0.0527364 -1.16094e-21)
(1.19558 -0.126011 8.28611e-21)
(1.18985 0.228665 -1.17724e-20)
(1.15393 0.127297 -6.19938e-21)
(1.13986 -0.00282315 1.70399e-21)
(-0.280812 -0.256522 -2.66024e-20)
(0.131998 -0.00061995 -1.00982e-20)
(1.22178 -0.101556 6.0557e-22)
(1.06 -0.042752 0)
(0.497584 -0.418401 -3.53745e-21)
(1.39307 -0.445261 6.44797e-20)
(0.905827 -0.0909087 -4.48546e-20)
(1.45308 0.0633866 9.1071e-20)
(1.08279 -0.0551531 5.9536e-21)
(1.26806 -0.219553 1.55707e-22)
(1.06244 -0.00929869 0)
(1.17619 0.00913502 0)
(1.32396 -0.00977316 3.07385e-21)
(1.08618 -0.0215815 -4.30838e-21)
(1.23512 -0.00330822 6.34194e-21)
(1.09451 0.0108987 -1.13209e-20)
(1.47275 0.00852143 -4.78382e-20)
(0.57774 0.0119147 0)
(1.36494 -0.168158 -8.33885e-21)
(1.3128 0.194689 0)
(1.10201 0.01723 -9.53575e-21)
(1.13011 0.0167682 0)
(1.04024 -0.00814816 1.70148e-20)
(1.20472 0.0266422 1.0061e-20)
(1.21179 -0.19943 0)
(0.0464269 -0.0309252 1.34155e-19)
(0.883731 -0.20306 -7.65285e-20)
(1.42924 0.0234391 -3.49782e-20)
(-0.130842 -0.112003 4.44546e-20)
(1.17765 0.044865 1.50536e-22)
(0.796596 -0.236918 8.76889e-21)
(-0.118848 -0.0526399 -4.63573e-20)
(-0.036629 0.0511345 -3.1704e-20)
(1.01744 -0.0286385 0)
(-0.0215529 -0.0200161 0)
(1.28532 0.248318 0)
(0.110973 -0.0927451 0)
(1.11186 -0.0229634 0)
(0.123326 0.0317713 0)
(1.08077 0.0526765 0)
(1.11767 0.336357 0)
(1.15506 0.0644652 -9.60003e-21)
(0.567106 -0.281617 -1.83841e-20)
(-0.270295 -0.131349 0)
(1.11582 -0.112828 4.66766e-20)
(1.24956 -0.0648914 -2.16969e-21)
(1.50908 0.209004 0)
(-0.0375571 -0.0363723 0)
(1.13797 0.00877259 -1.88821e-21)
(1.14248 -0.00175017 9.30255e-22)
(1.18458 0.384999 0)
(0.193479 -0.0944532 4.37169e-20)
(1.11301 0.0491561 1.14478e-21)
(0.224414 -0.0519875 -4.60003e-20)
(-0.058959 0.059987 -4.31619e-20)
(-0.0217703 0.0499613 1.08526e-19)
(0.859623 0.409301 1.4519e-20)
(1.18536 -0.287547 -8.25266e-21)
(1.09071 0.0381403 -1.80678e-20)
(1.02221 -0.00935 0)
(1.06951 -0.065518 -2.52911e-20)
(1.16642 0.121897 -4.97324e-21)
(-0.00800704 -0.00185357 1.0081e-19)
(0.977371 -0.067484 -6.21035e-20)
(0.508749 -0.234477 7.02806e-21)
(1.00465 -0.202424 -7.57743e-21)
(0.0642787 -0.0321292 2.79397e-20)
(0.233321 -0.0397447 -4.08059e-20)
(0.347671 -0.0721784 -3.96144e-20)
(1.07576 0.0311555 1.93941e-20)
(-0.0521405 -0.0218906 0)
(0.743743 -0.229489 1.39218e-20)
(1.34582 -0.216828 -2.29664e-20)
(1.22859 -0.0658625 2.2143e-20)
(1.3701 0.0391561 0)
(1.51032 -0.236687 5.51102e-20)
(1.13001 -0.00728359 -5.53823e-21)
(-0.00653608 -0.0150792 -3.23304e-20)
(0.495134 -0.0154355 0)
(0.946436 0.0218421 -5.12331e-21)
(1.11165 0.0370602 2.32372e-21)
(0.32764 0.00599458 -5.37818e-21)
(1.13773 0.00533684 6.29948e-22)
(1.11101 0.0395845 0)
(1.12582 -0.178105 -1.23741e-20)
(-0.0867922 -0.192231 -5.72034e-20)
(1.32024 -0.00849595 2.11764e-20)
(1.11021 0.168437 -9.31819e-21)
(1.13199 0.00650148 1.29476e-20)
(-0.0309884 -0.0286185 1.30227e-20)
(-0.0372761 0.0659182 -8.32197e-20)
(0.919366 -0.0461836 0)
(1.02826 0.4032 0)
(1.14718 0.0761432 -1.24867e-20)
(1.05243 0.0622622 1.11884e-20)
(1.17435 0.0422542 0)
(0.610399 -0.162361 5.08347e-20)
(0.861552 0.051687 -1.54911e-20)
(1.09942 0.0907222 0)
(1.12687 0.0177734 0)
(1.35362 0.334141 0)
(1.12912 0.105636 0)
(1.35804 0.0395327 -6.4384e-22)
(-0.0416923 0.0524835 4.71504e-20)
(1.07749 0.0395556 9.28526e-21)
(1.40663 -0.213517 -6.33251e-20)
(1.36945 0.117774 -1.025e-21)
(-0.190162 -0.270523 0)
(1.20095 -0.295482 0)
(0.644121 -0.0146106 -1.13385e-21)
(0.622302 0.00131355 -7.62944e-20)
(0.103923 0.0313339 6.08125e-20)
(0.974311 0.0328886 3.42136e-21)
(0.729487 -0.270262 0)
(0.660533 -0.0929872 0)
(1.28296 0.161465 0)
(0.554799 0.528429 3.38536e-20)
(-0.0293076 0.0537613 -3.66155e-20)
(1.04609 -0.0835657 6.47092e-21)
(-0.015583 -0.0321625 5.92248e-20)
(1.12009 0.0261282 4.64726e-21)
(1.18285 0.302485 2.2452e-20)
(1.11382 -0.0927631 1.11612e-20)
(0.0449212 -0.241382 3.52474e-20)
(0.911932 -0.256251 4.76968e-21)
(1.28044 -0.304659 0)
(0.591492 0.282946 0)
(1.04794 -0.170524 -1.4106e-20)
(-0.205921 -0.170981 0)
(0.613433 0.0264568 4.03305e-21)
(0.595189 -0.410956 -2.43151e-21)
(0.280587 0.0494514 -1.36379e-19)
(1.11624 -0.224747 4.1609e-20)
(1.05001 0.367571 9.21445e-21)
(0.978705 0.0246775 0)
(1.12268 -0.115424 6.35868e-22)
(0.663756 0.0170319 0)
(0.983135 -0.0134477 -3.08933e-22)
(0.413747 -0.0217012 0)
(0.71263 0.142367 0)
(0.995203 -0.0200296 -6.89932e-21)
(1.45331 0.111002 -1.7249e-20)
(1.13036 0.0336157 4.64731e-21)
(0.514853 -0.483318 0)
(1.12965 -0.153834 4.81727e-21)
(0.810866 0.385232 6.64808e-20)
(-0.0210908 0.020142 1.53736e-21)
(1.18302 0.00529288 2.98262e-21)
(1.18535 0.0174495 -7.22146e-21)
(1.11424 0.117243 1.48177e-21)
(0.795992 0.0089743 -5.22425e-21)
(0.0928064 0.015792 4.93137e-20)
(-0.0235507 0.00093848 -5.73824e-20)
(-0.202748 -0.262714 0)
(-0.248066 -0.172745 0)
(1.17338 -0.610435 2.76315e-20)
(1.14061 -0.0208177 -1.66272e-21)
(0.875295 -0.459435 -3.51467e-20)
(0.823282 -0.0877229 -2.84708e-20)
(1.4141 0.154535 4.46024e-20)
(0.626085 0.435219 0)
(0.251059 0.427226 -1.08644e-19)
(0.603242 0.492708 0)
(0.144728 -0.179571 0)
(1.11654 -0.474325 0)
(-0.0652443 0.0348677 -1.14931e-21)
(1.18895 0.00275975 0)
(0.97444 0.345024 -1.8007e-20)
(0.609306 0.708304 2.15312e-20)
(1.16451 0.245376 -8.42666e-21)
(-0.0315214 -0.0862485 -8.89761e-20)
(0.69525 0.338496 2.28426e-20)
(0.494633 0.151318 -1.62482e-20)
(1.18537 0.0592054 0)
(1.3937 0.331878 5.03261e-20)
(1.24583 0.564437 1.73645e-20)
(0.228435 -0.0324454 -3.01129e-20)
(1.12787 0.057424 4.40929e-20)
(0.928757 -0.00515137 1.27176e-21)
(0.946006 0.0440854 -1.14005e-21)
(-0.0155026 -0.0206809 0)
(0.638486 -0.638156 -3.25077e-20)
(0.615948 0.214176 0)
(0.0845042 -0.197062 0)
(-0.0566316 0.0948232 0)
(0.00326688 -0.160758 -3.28428e-20)
(1.19618 0.00690443 -3.4557e-21)
(0.00613508 0.0771195 0)
(-0.0504771 0.0919625 0)
(1.4173 0.0471847 -8.50951e-20)
(-0.0340542 -0.0547255 4.03892e-20)
(0.116905 0.244157 -9.86806e-20)
(0.473439 0.00577997 0)
(0.165811 -0.266028 8.30766e-20)
(1.06884 -0.242015 0)
(0.994083 -0.277962 0)
(0.00290146 -0.108835 8.28307e-20)
(1.13077 0.0257897 -1.53974e-22)
(1.13917 0.33696 2.37742e-20)
(0.313468 0.0240908 5.76811e-20)
(0.397027 -0.506278 -4.29866e-20)
(1.37586 -0.00853169 0)
(1.30745 0.153782 2.86158e-20)
(1.28259 0.182805 -3.51287e-20)
(0.103729 0.100264 -2.32384e-20)
(-0.0825983 -0.0222259 0)
(1.07128 -0.0480814 -2.01915e-20)
(1.09589 -0.217581 -2.0413e-20)
(0.577468 -0.389623 0)
(1.09523 -0.15142 -2.90261e-20)
(-0.159395 -0.213892 0)
(0.742683 0.00606481 0)
(1.48826 0.103433 4.23931e-20)
(1.01869 0.0185783 8.00125e-22)
(1.0963 0.750472 -8.77129e-21)
(0.221104 -0.368011 1.38718e-19)
(1.12179 -0.0240164 -7.11204e-22)
(1.19212 0.0520288 6.66941e-22)
(-0.0658255 0.0937889 3.93872e-20)
(0.80925 0.74937 2.01727e-20)
(1.3427 -0.373845 -1.25517e-20)
(0.330054 -0.164031 1.14213e-19)
(1.09654 0.059216 0)
(0.274243 -0.334382 -7.5752e-21)
(0.886069 -0.626692 2.19317e-21)
(0.931659 0.656997 -3.07315e-20)
(0.523094 -0.0414065 -5.19218e-20)
(1.12894 -0.00538934 -8.74487e-21)
(1.07672 -0.0832438 8.87497e-21)
(1.10516 0.0560255 7.08599e-21)
(1.10619 0.111797 2.5323e-21)
(1.12775 -0.124685 0)
(1.00022 0.0815169 1.95858e-20)
(0.929575 0.470548 0)
(1.13252 0.12188 -5.78451e-21)
(1.16013 0.0917376 -8.22771e-22)
(0.805364 0.270672 0)
(0.578339 0.111723 1.3007e-19)
(0.911176 0.723771 -7.89809e-22)
(1.08783 0.285446 -1.82583e-20)
(1.04271 -0.0101798 1.50662e-20)
(0.420924 0.506083 0)
(1.2875 -0.471969 0)
(0.513594 -0.28861 1.82021e-21)
(1.30375 0.502057 0)
(0.00541309 0.0587473 -5.76404e-20)
(1.2745 -0.412708 6.8594e-21)
(1.18262 0.505337 0)
(0.454737 0.232264 1.66551e-19)
(1.18007 0.315053 -1.47597e-19)
(0.80753 -0.627169 -2.92096e-20)
(1.11205 0.0636115 1.41862e-21)
(0.989771 0.147569 1.03336e-19)
(1.09502 0.160988 4.33909e-20)
(1.09678 0.712719 -2.93016e-21)
(0.897265 -0.427165 7.07149e-20)
(1.41979 0.120556 4.93366e-20)
(1.11672 0.00140127 -1.28658e-21)
(-0.0102347 -0.0334077 7.20643e-20)
(1.07065 -0.693846 1.38153e-20)
(0.861436 -0.707831 6.23884e-20)
(0.247155 -0.314323 0)
(0.969961 -0.140667 7.70947e-20)
(0.366445 0.323113 -4.32375e-19)
(-0.142824 -0.283482 2.53943e-20)
(0.357901 0.0239613 3.17627e-20)
(0.654421 -0.0623566 -6.21596e-20)
(1.09692 0.531847 0)
(0.999543 0.2235 7.46919e-20)
(1.08252 0.0270932 3.37658e-21)
(0.923376 0.449162 -8.57134e-20)
(0.770193 -0.712778 -1.02258e-20)
(0.924199 0.0314415 -4.91067e-20)
(0.989148 0.493234 0)
(1.04419 0.202915 1.09415e-21)
(1.36973 -0.513815 9.98612e-21)
(1.22135 -0.338198 7.91775e-21)
(-0.246613 -0.423236 3.71223e-20)
(0.194033 0.0217235 -1.8123e-20)
(0.975558 -0.111671 -5.90018e-20)
(0.360847 0.540798 0)
(0.916189 0.0254574 3.9128e-20)
(1.19091 0.642678 9.96495e-20)
(-0.0543867 -0.23605 1.21754e-19)
(-0.0853595 0.0547827 -3.27399e-20)
(-0.0839592 -0.117436 4.02955e-20)
(1.09071 0.0132295 -4.52034e-21)
(1.1165 -0.45811 0)
(1.05707 -0.724998 -5.33726e-20)
(0.7053 0.360876 0)
(0.0424666 -0.238255 -8.24731e-20)
(1.1597 0.0100747 7.40824e-21)
(-0.0307509 -0.0687288 -2.52079e-20)
(1.04956 0.0489068 -1.19888e-20)
(0.154124 0.0269929 7.46926e-20)
(0.938841 0.116884 0)
(1.42319 -0.0159251 4.67628e-20)
(0.120507 0.0344163 -3.60554e-20)
(-0.387625 -0.33843 -4.40266e-20)
(-0.215415 -0.325261 0)
(0.0647081 -0.00636359 0)
(1.37606 0.0276042 -1.12408e-20)
(0.36017 -0.0142498 1.27248e-19)
(1.25459 -0.720025 -8.17835e-21)
(0.724588 -0.145858 -4.83461e-21)
(1.0814 0.246943 -2.5466e-20)
(0.361177 -0.540201 1.45054e-19)
(1.57396 0.226542 -4.47608e-20)
(0.0423003 -0.0701337 2.70747e-20)
(0.211078 0.322575 1.92845e-19)
(0.0614384 -0.0326311 -1.03565e-19)
(0.937776 -0.483446 -4.57686e-20)
(1.49187 0.365392 4.55851e-20)
(0.556999 -0.661572 5.26742e-20)
(1.10469 -0.0742675 -8.47307e-21)
(0.266428 -0.149086 4.43056e-20)
(1.25608 0.280133 -6.19572e-20)
(0.673019 0.653566 -3.77263e-20)
(1.32358 -0.620002 0)
(1.46807 0.511145 4.13524e-20)
(1.04503 -0.520536 -1.18435e-20)
(1.42552 0.603536 -1.28396e-19)
(1.15471 0.0597058 0)
(-0.0514158 0.104885 0)
(1.27753 0.732961 0)
(1.08308 0.114414 -1.10537e-20)
(0.734472 -0.289149 -2.11598e-19)
(0.47512 -0.0698915 0)
(-0.0548612 0.102598 -3.33717e-20)
(1.01341 -0.238293 1.09077e-19)
(-0.287743 -0.138435 0)
(0.322372 0.0413965 1.2245e-20)
(1.1106 0.0536283 0)
(1.47272 0.240324 0)
(1.15426 0.0607368 -1.51894e-21)
(0.357238 -0.276317 0)
(1.02006 0.14938 3.4348e-20)
(1.36054 0.263408 0)
(-0.116999 0.031457 -2.55058e-21)
(0.808891 -0.383604 0)
(1.53969 0.300236 -6.74554e-20)
(1.25824 0.356414 -7.16515e-21)
(0.853052 0.654715 -9.09909e-21)
(1.01705 0.155462 -8.27009e-20)
(0.961506 -0.198967 -5.26179e-20)
(1.4863 0.259409 3.94549e-20)
(1.10728 0.00561503 0)
(0.564629 -0.058425 0)
)
;

boundaryField
{
    FrontBack
    {
        type            empty;
    }
    Top
    {
        type            noSlip;
    }
    In
    {
        type            fixedValue;
        value           uniform (1 0 0);
    }
    Bottom
    {
        type            noSlip;
    }
    Out
    {
        type            zeroGradient;
    }
    circle
    {
        type            noSlip;
    }
}


// ************************************************************************* //
