/*--------------------------------*- C++ -*----------------------------------*\
| =========                 |                                                 |
| \\      /  F ield         | OpenFOAM: The Open Source CFD Toolbox           |
|  \\    /   O peration     | Version:  2412                                  |
|   \\  /    A nd           | Website:  www.openfoam.com                      |
|    \\/     M anipulation  |                                                 |
\*---------------------------------------------------------------------------*/
FoamFile
{
    version     2.0;
    format      ascii;
    arch        "LSB;label=32;scalar=64";
    class       volScalarField;
    location    "1446.5";
    object      yPlus;
}
// * * * * * * * * * * * * * * * * * * * * * * * * * * * * * * * * * * * * * //

dimensions      [0 0 0 0 0 0 0];

internalField   uniform 0;

boundaryField
{
    FrontBack
    {
        type            empty;
    }
    Top
    {
        type            calculated;
        value           nonuniform List<scalar> 
15
(
142.2812895113605
133.5589933117619
138.0603967075937
144.3849076929204
159.7579832498623
131.3661155191374
140.113812615494
135.3388835644696
153.4474304694281
135.7274460198066
136.0780868680957
136.7799949349244
125.2496565698954
132.9070875817592
123.9556283378322
)
;
    }
    In
    {
        type            calculated;
        value           uniform 0;
    }
    Bottom
    {
        type            calculated;
        value           nonuniform List<scalar> 
15
(
155.568173741615
158.1149222659594
141.1055318692548
142.0682475846621
141.187504014933
148.4516265011379
142.7151320270286
143.1592428688699
143.4213808095646
134.0679781623673
125.7360481825382
141.5632826630028
122.4089474480986
123.486860535233
124.1411079114813
)
;
    }
    Out
    {
        type            calculated;
        value           uniform 0;
    }
    circle
    {
        type            calculated;
        value           nonuniform List<scalar> 
32
(
56.01568521597905
21.71351334287951
65.19119356151947
26.45480108018305
20.41191507371518
56.29433003970137
56.59212845437202
23.8518894847858
22.0568110192613
65.42705090503966
39.81130989479608
62.88663720124767
50.66441272412727
17.56801518911997
22.52458023331648
18.84088068193016
39.34590084317382
59.85219844384591
61.1167302982016
26.34186006876024
65.8365930017151
63.71346711347349
63.13251879769914
59.81260000534917
64.20697748770074
46.09407115307574
66.49979986729872
32.25083359785342
37.82733658226226
55.62814201077657
21.42928634089147
43.023584275254
)
;
    }
}


// ************************************************************************* //
