/*--------------------------------*- C++ -*----------------------------------*\
| =========                 |                                                 |
| \\      /  F ield         | OpenFOAM: The Open Source CFD Toolbox           |
|  \\    /   O peration     | Version:  2412                                  |
|   \\  /    A nd           | Website:  www.openfoam.com                      |
|    \\/     M anipulation  |                                                 |
\*---------------------------------------------------------------------------*/
FoamFile
{
    version     2.0;
    format      ascii;
    arch        "LSB;label=32;scalar=64";
    class       surfaceScalarField;
    location    "4.1";
    object      phi;
}
// * * * * * * * * * * * * * * * * * * * * * * * * * * * * * * * * * * * * * //

dimensions      [0 3 -1 0 0 0 0];

oriented        oriented;

internalField   nonuniform List<scalar> 
1171
(
-0.944839
0.944839
0.830242
-1.10048
0.270237
-0.188679
-0.697243
0.885921
0.0551606
-0.0764292
-0.272743
0.349173
-0.830242
0.0644288
0.765814
0.830279
-0.175638
-0.654642
0.836779
-1.00366
0.166881
-0.350886
-0.0573914
0.408278
-0.00659
0.595604
-0.589014
-0.496574
0.830776
-0.334202
-0.427315
0.997052
-0.160273
0.348455
0.0558534
-0.404308
0.992429
0.00462259
0.37993
-0.0314746
1.01138
-0.0189474
0.605812
-0.794491
-0.800383
0.643361
0.157022
0.212442
-0.709016
0.555196
-0.915647
0.360451
-1.09391
0.695404
0.398508
-0.658007
0.651417
0.0328893
-0.255868
0.222978
-0.0311852
-0.607268
0.638453
0.461364
-0.518756
-0.857163
0.882681
-0.0255187
1.01299
-0.00161365
0.895106
-1.08746
0.192359
1.00967
0.00331659
-0.702221
-0.0981621
1.24207
-0.823653
-0.418416
0.152511
-0.0839424
-0.397809
0.481752
-0.269836
0.178178
0.0916586
-0.601778
-0.498702
0.974366
-0.0792599
0.00117245
0.810966
-0.812138
0.574082
0.667987
0.511662
0.00300022
0.458364
-0.762437
-0.128042
0.890479
0.508318
0.260497
-0.768816
-0.0544294
0.647152
-0.592723
-0.506123
-0.587789
-0.398451
-0.689014
0.0134498
0.255651
-0.269101
-0.907694
0.00352468
0.904169
0.374533
0.033745
0.782283
0.0479967
-0.594475
-0.0635321
0.06049
-0.822927
0.0971373
0.874323
-0.97146
-0.40426
0.0145706
0.389689
-0.668872
-0.238822
-0.632591
0.729728
0.621225
0.209551
-0.586014
0.977045
-0.801898
-0.175147
-0.0504468
-0.0542427
0.104689
-0.45629
-0.0624655
-0.250928
0.872152
0.0203987
0.417112
-0.437511
-0.483029
0.991348
0.696383
-0.824425
0.397632
-0.0607999
-0.336832
0.960875
-0.960875
-0.817232
0.0472657
-0.320009
-0.770315
0.771488
-0.043144
-0.148917
0.192061
0.836908
-0.0259429
1.00846
-0.747962
0.218799
-0.320092
0.101293
0.871427
-0.0891444
-0.658955
-0.0507144
0.709669
0.147946
-0.23436
0.0864142
0.753535
-0.929173
-0.437978
0.309038
0.12894
0.587395
-0.61858
1.01625
-0.433451
-0.582803
0.617803
-0.705371
0.0347703
0.670601
0.102612
0.657715
0.0472756
-0.70499
0.143713
-0.0964478
-0.522661
0.118401
0.0210039
-0.888304
0.8673
-0.551415
-0.731337
0.0291156
0.5008
-0.0424355
0.2788
-0.838294
0.559493
0.433588
0.566412
0.585094
-0.524604
-0.41803
0.0158279
0.402202
0.746336
0.214539
-0.639627
0.585197
0.10299
0.817964
0.0409373
-0.699892
-0.723723
0.744727
0.607
0.0619234
0.351901
-0.413824
-0.127523
0.506484
0.140668
0.926662
-0.850206
-0.0764556
0.641127
0.335919
-0.44284
0.621704
-0.559781
0.405089
0.150108
-0.0277454
-0.573639
-0.157688
0.731326
-0.150713
-0.810162
-0.60506
0.355622
0.249439
0.663762
-0.622825
0.306028
0.963687
0.0447726
-0.723723
0.0207463
-0.0711931
0.696383
0.794536
-0.794536
0.859188
-0.806623
-0.052565
-0.460263
0.893851
-0.189722
-0.332939
0.755361
-0.668316
-0.0870449
-0.722981
0.149342
0.127342
-0.721817
0.824425
-0.951948
-0.245212
0.229597
0.0156147
0.142316
-0.965081
0.822765
0.516949
-0.00528678
-0.289935
0.583448
-0.293513
-0.791444
0.93376
-0.138135
0.657885
-0.758103
0.100218
0.985365
-0.578658
-0.406707
0.766791
-0.0565303
-0.0318341
0.0410078
-0.00917368
-0.794869
-0.7734
0.0761575
-0.770315
0.573282
-0.558712
0.094406
0.63886
-0.733266
0.776288
0.168551
0.49415
0.50585
-0.115598
-0.610316
0.725914
0.925435
0.00122634
-0.766791
0.744727
0.179493
-0.43536
-0.0396734
0.00602671
0.0336467
0.653557
-0.434414
-0.219143
0.765814
0.04573
-0.115516
0.513198
0.140359
-0.0227217
0.00141128
0.0213104
-0.000207444
-0.0316266
0.172645
-0.233445
-0.932671
-0.00139448
-0.187944
-0.0725672
0.0920312
0.74042
0.728118
-0.161706
0.73287
-0.638464
-0.170426
0.389225
0.746671
0.0191425
0.254622
-1.06125
-0.951948
0.332097
0.771488
-0.169856
0.0209389
-0.739025
0.931441
-0.192416
0.482989
-0.0932998
0.81077
0.294629
0.298422
0.0815075
-0.678134
0.678134
0.229279
0.6612
-0.0375372
0.454649
0.444215
0.0211389
-0.0608123
0.512505
0.00444324
-0.791444
0.540247
0.215114
0.058954
-0.0179462
-0.746671
0.180895
0.750546
0.0193297
-0.7786
0.75927
0.741138
-0.825911
0.0847725
-0.776288
-0.0428459
0.0587028
-0.015857
0.0843527
-0.145508
-0.111782
0.257289
-0.014126
-0.00859566
0.704265
-0.684936
0.811809
0.0741122
-0.318422
-0.492393
0.810815
-0.000176537
0.000176537
0.245425
0.455034
0.616914
-1.07195
-0.188685
-0.54672
0.735404
-0.0175622
0.209623
0.386911
-0.238965
0.98732
-0.532286
0.679737
1.02369
-0.406775
0.197188
0.93376
0.773487
0.214187
0.668494
-0.810162
0.321866
-0.077251
0.0653435
0.0119075
0.805842
-0.00894161
-0.796901
-0.754539
0.757856
0.539737
-0.754539
-0.773487
0.757856
-0.0522322
0.830191
-0.0183822
-0.746336
0.684057
0.0622787
0.519368
0.569142
-1.08851
0.469175
0.518145
0.550586
0.457671
-1.00826
0.514062
0.509627
0.684057
-0.51121
-0.463376
-0.574511
-0.511829
-0.119243
-0.00806187
0.00806187
0.521989
0.508075
-1.0199
0.645262
-0.293362
-0.917188
0.33853
-0.661942
0.42312
-0.00341467
-0.827942
0.831357
0.438183
-0.0245475
0.83039
-0.951013
-0.848795
0.0467148
0.80208
0.617105
-0.47999
-0.137115
0.666891
-0.746151
0.88892
-0.825879
-0.063041
-0.0146275
-0.835579
-0.119843
0.71963
-0.599787
-0.874637
0.860009
-0.786213
0.742878
0.043335
-0.856708
0.0424736
0.814234
0.00477778
-0.00495432
0.428908
0.062093
-0.881042
0.818949
-0.7128
0.597203
0.908552
0.0836007
-0.992152
0.0597572
-0.0483539
0.450556
-0.364026
0.0439341
0.855338
-0.858753
-0.782596
-0.85339
0.0178109
-0.103831
-0.848575
0.0226954
0.685995
0.0468748
0.023428
0.593677
-0.809086
0.851559
0.582803
-0.85249
-0.791036
0.0391553
-0.0364398
0.830381
-0.793941
-0.0172176
-0.819036
0.57588
0.165259
-0.0212956
0.851685
0.906724
0.882656
-0.859961
0.0488488
-0.0488488
-0.105381
-0.512553
0.032563
0.334521
-0.00242356
0.344152
0.834468
0.0039491
-0.0180751
0.660443
0.339557
0.788779
-0.601778
-0.72882
-0.802883
-0.732337
0.732337
-0.204891
-0.115118
0.619882
-0.84647
0.226588
-0.468284
-0.556972
0.282516
-0.97153
-0.865668
0.802627
-0.820359
0.83817
0.669576
0.14784
-0.817417
-0.759548
-0.157067
0.771536
-0.614469
0.0312001
-0.00430822
0.00812993
-0.00382171
-0.350434
-0.162119
0.902398
0.674414
-0.271684
-0.402729
0.537299
0.721908
-0.492629
0.0108759
-0.280712
0.0208517
0.701468
-0.722319
-0.301954
-0.127603
0.138868
-0.910979
0.114078
-0.69863
0.0637654
0.682112
-0.745877
-0.781661
0.0830314
0.61813
-0.745733
0.228271
-0.373779
-0.759508
-4.02995e-05
0.387728
0.686047
-0.0643421
0.00657372
-0.00657372
-0.00665059
-0.00717836
-0.0700726
-0.0314304
0.0353795
-0.712633
0.290189
0.71462
-0.730108
0.0154882
-0.593573
0.657339
0.720194
-0.102063
-0.648467
-0.133195
-1.0428
0.0205684
0.0282803
-0.691781
-0.768309
-0.792901
0.374485
-0.267538
0.404267
-0.136729
-0.651654
-0.0401273
0.518661
0.715603
-0.0632775
-0.00928971
0.911019
0.453306
0.177069
-0.630375
-0.644355
-0.00729932
-0.0179983
0.01369
0.654089
-0.811777
0.007365
-0.007365
-0.634349
0.669387
-0.0350389
-0.620927
-0.12601
-0.658936
0.140999
0.584915
-0.060408
-0.816003
-0.463336
0.461974
0.00136166
0.629932
-0.614444
0.326023
0.244444
-0.570467
-0.114221
-0.628983
-0.116894
-0.181043
-0.322337
0.458672
-0.521138
0.142389
0.708555
-0.850944
0.617803
-0.303422
0.0358837
0.0828129
-0.40515
0.599872
-0.0860845
-0.513788
-0.286207
0.304055
-0.0178477
0.438969
0.206293
0.0912111
-0.306665
0.165085
0.141579
0.134438
-0.113691
-0.27853
-0.217251
0.349072
-0.131822
0.793815
-0.570853
-0.0500741
0.553255
0.261612
-0.533296
0.635538
-0.635538
-0.250817
-0.6311
-0.258521
-0.6311
-0.617667
-0.845407
0.177091
-0.53829
0.788621
0.0411604
0.197961
0.488085
0.0946054
0.123502
0.0063126
-0.129815
-0.0763152
0.600387
-0.892876
0.400483
-0.0300341
0.0916421
-0.061608
-0.716532
-0.171665
-0.45953
0.636599
-0.527228
-0.104334
-0.300816
-0.339255
-0.0825108
0.0825108
0.0569964
0.00170648
0.14407
0.290576
-0.63693
0.1774
0.0353095
0.479292
0.520708
0.688414
0.0545851
0.0276089
-0.082194
-0.257104
-0.558899
-0.509877
0.11161
-0.116344
0.00473412
-0.115108
-0.419023
-0.0948403
0.679755
-0.553523
-0.163009
-0.158577
0.0800928
0.13154
-0.678591
-0.198578
-0.210142
-0.023303
-0.492116
0.411055
0.0810607
-0.079084
0.273814
-0.861603
-0.547968
0.60344
-0.800586
0.686366
0.406295
-0.0437995
0.0765631
-0.0327637
0.0428946
-0.637438
0.00619106
0.631247
-0.892694
0.627777
-0.733158
-0.0902489
0.00905178
-0.00905178
-0.295789
0.404467
0.0460891
0.0185118
0.0360734
0.542658
0.671466
-0.747921
0.0245385
0.0112076
-0.00463392
0.00508433
-0.00508433
-0.415505
0.621799
0.0142817
-0.0142817
-0.755806
-0.0104678
0.0152456
-0.431968
0.609368
0.461369
-0.496408
0.070999
-0.070999
0.00947835
-0.0702906
-0.000518271
-0.907951
0.501243
-0.552234
-0.00495432
0.591936
0.0260687
-0.618005
-0.697644
0.14412
-0.319527
-0.0109134
0.330441
-0.0336934
-0.0295841
-0.598276
-0.039162
0.0282803
0.00577103
0.00159397
-0.00235744
0.00235744
-0.480407
0.348585
-0.427824
0.136474
0.652305
-0.14229
0.00155621
-0.00155621
0.514063
-0.0849141
0.00922832
0.0192285
0.000130016
0.601727
-0.686641
-0.646334
0.59626
-0.147768
0.339773
0.727744
-0.00665059
-0.129701
0.111755
-0.716321
0.534522
-0.404647
-0.105708
-0.0223962
-0.0261426
-0.00382157
0.448658
-0.0988866
-0.414901
0.660423
0.00297753
0.0105816
-0.0105816
-0.257333
-0.189831
-0.569334
0.610495
-0.155581
0.484562
-0.156247
0.762059
0.683418
0.00577103
-0.63605
0.567903
0.078404
-0.127637
0.0492327
0.517176
0.101237
-0.0139675
0.0770902
-0.0631227
0.0116101
-0.0116101
-0.807789
0.0221502
-0.0476227
0.0668512
-0.0889607
0.0889607
0.0112076
-0.00509438
0.691871
0.0586749
-0.327548
-0.0914755
-0.506703
-0.0801727
-0.0706204
0.0706204
-0.0727156
0.081895
-0.081895
0.0304422
-0.0304422
-0.358003
-0.0848375
0.238148
0.0708901
0.048519
-0.769731
-0.0708758
0.163586
0.0159072
-0.263845
0.0807448
-0.0807448
-0.462581
-0.0585569
0.234424
-0.0114461
0.0034136
-0.601613
0.653845
0.0434391
-0.116155
-0.00248909
-0.0678016
-0.0108961
-0.15795
0.168846
-0.150797
-0.222981
-0.0846149
0.0846149
0.0557362
-0.0557362
-0.0288393
-0.096214
0.125053
0.0486182
-0.184914
-0.0207168
0.0160828
-0.216263
0.564848
-0.0267746
0.393105
0.00913264
0.0121777
-0.0555323
0.0555323
-0.726967
0.324736
-0.127547
-0.212366
-0.0219935
-0.0225328
0.0259464
0.211492
0.0457971
-0.000481379
0.000611396
0.0820609
0.0295493
0.0559255
0.10766
-0.0313085
0.0220187
0.00321661
0.00407107
0.00522329
0.0165148
-0.0217381
0.000626015
0.0121102
0.0281014
-0.0281014
0.0545574
-0.0418425
0.0418425
-0.198941
0.0162488
0.0132422
-0.0813794
0.0188321
0.0761259
-0.0761259
0.292553
-0.251821
0.101024
-0.0690701
-0.182751
-0.0156716
0.0156716
0.410944
0.259657
-0.528429
-0.0792711
-0.0370732
0.547418
0.0461292
-0.0839043
-0.441129
0.0722997
-0.155464
0.173864
-0.0184001
-0.0465766
0.0465766
0.800044
-0.588099
-0.0181029
0.0187289
-0.00644986
-0.286783
-0.00115023
0.00434578
-0.0499369
-0.598336
0.56526
-0.608867
0.0139945
0.140191
0.015088
0.0250901
-0.161914
-0.340953
0.259573
-0.0564741
0.0276347
0.166658
0.137397
0.263979
0.271713
-0.256625
0.00681726
-0.120125
-0.22328
0.0689039
-0.0129784
0.169256
-0.144165
-0.0685605
0.150621
-0.364423
0.132193
-0.113361
0.0679744
-0.482876
0.17821
0.171925
-0.240486
0.0116288
-0.176948
0.175798
0.00461888
0.146003
-0.0275608
0.04635
0.467713
0.0124298
0.0362607
-0.00734113
0.0407086
-0.24168
-0.212013
0.563766
0.17079
0.0636349
0.0749095
-0.0611817
0.0923142
-0.0430815
-0.0299533
0.170211
-0.156216
0.0324391
-0.00202007
-0.107664
-0.0309454
0.0544579
0.26598
-0.0348336
0.0245126
-0.316281
-0.0133353
0.215859
0.148101
0.176635
0.0558949
0.0982787
0.0359455
0.506713
-0.0185215
0.0989066
0.0429317
0.064634
-0.107566
-0.268772
-0.203996
0.021245
-0.216895
0.295036
)
;

boundaryField
{
    FrontBack
    {
        type            empty;
    }
    Top
    {
        type            calculated;
        value           uniform 0;
    }
    In
    {
        type            calculated;
        value           uniform -1;
    }
    Bottom
    {
        type            calculated;
        value           uniform 0;
    }
    Out
    {
        type            calculated;
        value           nonuniform List<scalar> 10(1.01976 1.03058 1.03789 1.03221 1.02681 1.02146 1.03006 1.02526 0.886355 0.889622);
    }
    circle
    {
        type            calculated;
        value           uniform 0;
    }
}


// ************************************************************************* //
