/*--------------------------------*- C++ -*----------------------------------*\
| =========                 |                                                 |
| \\      /  F ield         | OpenFOAM: The Open Source CFD Toolbox           |
|  \\    /   O peration     | Version:  2412                                  |
|   \\  /    A nd           | Website:  www.openfoam.com                      |
|    \\/     M anipulation  |                                                 |
\*---------------------------------------------------------------------------*/
FoamFile
{
    version     2.0;
    format      ascii;
    arch        "LSB;label=32;scalar=64";
    class       volVectorField;
    location    "4.1";
    object      U;
}
// * * * * * * * * * * * * * * * * * * * * * * * * * * * * * * * * * * * * * //

dimensions      [0 1 -1 0 0 0 0];

internalField   nonuniform List<vector> 
808
(
(0.871321 -0.0332827 0)
(1.02811 -0.00782812 0)
(1.02003 0.000396081 0)
(1.08839 0.0330018 -2.4e-21)
(1.46528 -0.246688 0)
(1.0077 -0.0259771 0)
(1.03542 -0.0309014 -7.7796e-21)
(1.03772 -1.97146e-05 0)
(1.37933 -0.197984 2.94963e-20)
(1.21864 -0.0911754 -1.02401e-20)
(1.01617 -0.0117637 9.19432e-21)
(1.39859 -0.214731 0)
(1.0192 0.0216564 0)
(0.821105 0.00613183 0)
(1.23037 -0.104121 2.42161e-20)
(1.03322 -0.0117392 0)
(1.04673 -0.0853952 -7.80156e-21)
(1.02943 -0.00246849 -8.25201e-23)
(1.01909 0.000622756 0)
(1.13439 -0.0587649 0)
(1.0186 -0.0182508 -1.28318e-20)
(0.932267 0.107986 9.89797e-20)
(1.08439 0.0403534 -9.01296e-21)
(1.18937 -0.0201738 0)
(0.969753 0.183266 0)
(1.28218 -0.124912 -3.10161e-20)
(1.30927 -0.114962 1.1459e-20)
(1.00946 -0.0100627 -7.45413e-21)
(1.0367 -0.0117615 0)
(1.03711 -0.00820743 -3.55916e-22)
(1.03234 -0.00977537 3.04925e-24)
(1.12919 -0.0325024 0)
(1.07392 -0.00122114 0)
(1.01749 0.0123645 5.4068e-21)
(1.28111 -0.043577 8.75439e-21)
(0.726447 -0.1002 1.04809e-19)
(0.901049 -0.0205148 -7.41038e-21)
(1.04442 0.00114973 1.11113e-21)
(1.07179 0.029611 -5.00502e-21)
(1.04078 -0.0215088 0)
(1.22259 -0.06124 -1.54918e-20)
(1.28212 -0.0881338 0)
(0.983808 -0.0474903 -7.65283e-21)
(1.02107 0.0110309 1.08557e-20)
(1.20636 -0.235246 0)
(1.03983 -0.013622 -1.48342e-20)
(1.02948 0.014323 2.15785e-21)
(1.26349 -0.218742 1.33132e-20)
(1.05081 0.0167352 -1.09103e-20)
(1.43314 -0.119986 -4.26107e-20)
(1.03366 -0.0210942 1.33116e-20)
(1.1656 -0.0374537 0)
(1.10498 -0.00402714 7.09638e-21)
(1.04354 -0.00139514 0)
(1.32972 0.187104 8.50903e-21)
(1.04474 0.0089687 -3.94984e-21)
(1.01528 -0.0114616 0)
(1.01913 -0.00668939 3.84106e-21)
(1.22018 -0.062033 1.09928e-20)
(1.09583 0.0278043 -1.05059e-21)
(0.0105998 0.0116227 0)
(1.22652 -0.193154 -9.41463e-21)
(1.03661 -0.0135712 0)
(1.42379 0.00987221 -2.94061e-20)
(1.04313 -0.00699595 -1.15422e-20)
(1.02924 -0.0377392 -7.32507e-21)
(1.45414 -0.0602673 3.38386e-20)
(0.767646 -0.0084311 0)
(1.03024 -0.0199008 0)
(1.46646 -0.328806 0)
(0.959864 -0.00245994 -3.24328e-22)
(1.31707 -0.111753 -4.55467e-20)
(0.978889 0.0427841 0)
(1.03276 -0.0147242 -4.90023e-21)
(1.13596 -0.314994 -5.09262e-20)
(1.03245 -0.0133966 -1.76023e-20)
(1.12775 -0.011781 -1.66413e-22)
(1.34766 0.482742 2.70127e-20)
(1.0422 -0.0162423 0)
(1.01147 0.278097 -1.62301e-19)
(1.25051 -0.0666938 1.49768e-20)
(0.844609 0.0131196 0)
(0.992149 0.015408 -5.57107e-21)
(0.996975 -0.113188 3.72761e-21)
(1.02881 -0.0182786 1.34139e-20)
(1.17725 -0.0139612 6.6339e-22)
(1.329 -0.216545 0)
(1.38551 0.255843 0)
(1.11496 0.0315519 -1.63915e-20)
(1.39521 -0.06237 2.96166e-20)
(1.06639 -0.000719419 1.14551e-20)
(1.33034 -0.0757334 -1.58459e-21)
(1.02308 0.0420813 1.48105e-20)
(1.00049 -0.0285728 0)
(1.04923 -0.0249009 1.15095e-21)
(1.45636 0.0599094 -8.46232e-20)
(1.02338 -0.0146697 -3.30858e-21)
(1.19234 -0.130816 0)
(1.3252 -0.0401071 0)
(1.42917 -0.0322528 -5.26712e-20)
(1.00254 -0.0133577 -6.34057e-21)
(1.14696 -0.0296966 -9.95128e-23)
(0.89116 0.0280895 1.23841e-20)
(1.16086 0.0345601 1.95643e-22)
(1.1823 0.0803176 -1.68802e-20)
(1.01622 0.0168225 8.80491e-21)
(1.30322 -0.180454 0)
(1.03024 0.00253706 0)
(1.09707 0.042724 8.27763e-21)
(1.23056 -0.190156 -4.63279e-21)
(1.16322 0.0946726 4.60516e-21)
(1.05559 0.0529533 -1.09749e-19)
(1.07313 0.00637332 -3.12266e-21)
(1.0197 0.0246868 6.42984e-21)
(1.00498 0.0229304 0)
(0.906059 -0.0635988 7.07526e-20)
(1.13939 -0.101028 -8.65483e-21)
(1.47136 -0.233686 -2.07568e-20)
(1.03507 0.0014693 -8.77669e-21)
(0.859542 0.0424673 1.50223e-21)
(-0.0627603 0.153423 0)
(0.836841 -0.000345079 2.06193e-21)
(0.812332 -7.61422e-05 0)
(1.10393 0.058681 -8.72258e-23)
(1.0451 0.0382999 0)
(1.33378 0.291251 1.38497e-20)
(1.00855 -0.0414897 -3.09826e-20)
(1.01519 0.0424383 2.41179e-21)
(1.15421 -0.0265012 0)
(1.09712 0.0319054 0)
(0.818754 -0.00838103 0)
(1.03808 -0.00701917 -4.58845e-21)
(1.20377 -0.0761577 8.39963e-21)
(1.06884 0.111237 -2.68254e-20)
(1.00792 -0.00926431 0)
(1.12075 -0.0374622 -2.69444e-21)
(1.02135 0.00347113 2.21574e-21)
(1.03232 0.00980169 -1.14339e-21)
(1.01539 0.00723813 5.4835e-21)
(1.14341 -0.0426943 8.34192e-23)
(0.0773929 0.158879 0)
(1.06194 0.0186353 -1.27587e-20)
(1.03542 0.0118364 1.56587e-21)
(0.818292 0.0496992 -5.62367e-21)
(1.27475 0.158021 -6.758e-22)
(1.01864 0.00865956 3.266e-21)
(1.06565 0.026514 1.45543e-20)
(0.986365 0.0285451 0)
(1.09906 -0.19928 1.34789e-20)
(1.02094 -0.00588102 0)
(1.01385 -0.0137772 1.15569e-20)
(0.949268 0.287123 1.30088e-19)
(0.888272 -0.0137483 0)
(0.824642 0.11202 0)
(-0.184173 0.0725348 -9.82619e-20)
(1.31409 0.0954082 -1.66057e-20)
(0.797748 0.00715202 0)
(1.38422 -0.127246 0)
(1.02517 0.0120481 0)
(1.29143 0.0282634 1.66089e-20)
(-0.0580291 -0.15477 0)
(-0.0661832 0.220927 4.77211e-20)
(1.16116 -0.00585843 9.95572e-20)
(1.00304 0.0433068 2.11737e-21)
(0.849385 -0.0291297 0)
(1.03119 0.00179875 1.31052e-20)
(0.875096 -0.0174104 0)
(0.904323 -0.035818 -1.07523e-19)
(1.00767 0.02355 1.76376e-20)
(1.01616 6.36842e-05 3.78304e-21)
(1.05719 0.0702575 6.39967e-21)
(0.975958 0.0559822 -9.21512e-21)
(1.00314 0.00828249 -3.25099e-21)
(1.15358 -0.333081 3.74602e-22)
(0.994158 -0.0197231 0)
(1.02268 0.0284439 -1.10245e-20)
(0.840203 -0.0154362 -9.63469e-21)
(1.41031 -0.128902 2.4058e-21)
(0.840597 0.020464 0)
(1.10625 -0.12829 0)
(1.01237 -0.00260114 4.26947e-21)
(1.41656 0.17907 1.39789e-20)
(1.08881 0.0286944 6.69154e-21)
(1.00803 0.0404206 1.80456e-20)
(1.05476 -0.17576 -7.09628e-20)
(0.812036 0.0175085 1.73664e-20)
(1.12624 -0.0191845 5.33418e-21)
(1.37103 0.00212752 -4.88148e-21)
(1.02371 -0.0116538 -6.6663e-21)
(1.27475 -0.0196849 4.18314e-21)
(-0.212752 0.0549758 7.2587e-20)
(1.20968 -0.017509 0)
(0.782407 0.00410303 0)
(1.07126 0.0263591 -5.34935e-21)
(1.13028 -0.0746738 1.06566e-20)
(0.29701 0.0617313 0)
(0.996862 -0.0125474 5.07357e-22)
(1.04021 -0.0118055 -3.04445e-21)
(1.03371 0.00608146 3.42547e-21)
(1.07532 -0.0206688 -4.82718e-21)
(0.993563 0.0435563 1.46327e-21)
(1.02785 0.00103836 2.68554e-21)
(1.01688 -0.0095565 0)
(0.405114 -0.0310064 0)
(1.04702 -0.0537077 0)
(1.26961 0.0521587 -4.04794e-20)
(-0.0741188 -0.152574 5.51556e-20)
(1.02923 0.0327113 -2.41253e-23)
(1.04031 0.00499869 0)
(0.799538 -0.00349624 -1.06881e-20)
(1.0022 -0.000241449 1.67595e-21)
(0.00500825 -0.0423964 -1.68239e-19)
(1.04458 0.060638 -6.77794e-20)
(0.785405 0.00804143 0)
(1.00377 0.000417617 0)
(0.916562 0.0108259 1.03624e-20)
(1.08392 -0.0966762 6.52463e-21)
(1.30352 0.377473 1.10006e-20)
(1.02871 -0.00165647 -6.46317e-23)
(1.01438 -0.00782413 -5.10203e-21)
(1.02134 -0.0131354 0)
(1.38578 0.401588 -6.20876e-20)
(0.792717 0.017607 0)
(1.00353 -0.0185409 -4.08758e-21)
(1.03134 0.014268 -1.21837e-21)
(0.756411 0.0111251 0)
(1.09181 -0.0090371 0)
(0.28867 0.0671461 -5.87563e-20)
(1.04739 -0.025256 -6.36785e-21)
(0.998514 0.0158772 2.21079e-21)
(0.974503 -0.0140762 0)
(0.747053 0.00249466 0)
(1.00493 -0.0153573 -3.64762e-21)
(0.769786 -0.0336653 1.95652e-22)
(1.20494 -0.0975097 2.04097e-22)
(0.992525 -0.0175421 -2.99972e-21)
(0.973952 -0.028407 -2.94194e-21)
(1.03569 -0.00283068 6.31185e-22)
(1.03061 -0.00622644 6.08997e-23)
(0.766294 0.0197114 7.33795e-21)
(1.00596 0.00372694 5.09427e-22)
(1.02219 -0.000248712 0)
(1.03259 0.00136639 0)
(0.78515 -0.00298664 0)
(1.03373 0.00107076 0)
(1.03595 1.73641e-05 -8.80372e-22)
(1.03068 -0.00126604 0)
(1.0247 -0.000174374 0)
(1.02123 0.00649832 0)
(1.01504 0.0051215 0)
(-0.0258038 -0.0628658 5.37337e-20)
(1.06214 -0.00132447 6.2925e-24)
(1.00784 0.00513864 0)
(1.2009 0.157401 4.26328e-21)
(1.02487 0.0170601 9.42389e-22)
(1.06134 0.0398557 4.72755e-21)
(0.996199 -0.000131459 3.25528e-21)
(1.0306 -0.0010227 0)
(0.759456 0.0341654 7.89368e-21)
(1.04617 0.0410433 8.96305e-21)
(1.03116 -0.0107348 0)
(1.00754 -0.0146082 -1.73254e-21)
(1.00846 -0.0116067 2.28251e-21)
(0.937083 0.0205045 -1.55882e-20)
(1.00792 0.0153021 3.7812e-21)
(1.0122 0.0147643 -4.45034e-21)
(1.03191 0.0147845 0)
(1.00269 0.00792695 -1.82794e-20)
(1.02576 -0.0095556 -3.21307e-21)
(1.00605 0.0147854 7.0596e-21)
(1.01408 0.00987254 0)
(-0.008842 -0.0216356 0)
(0.932976 0.0986297 -1.5697e-20)
(1.05259 0.00434898 0)
(1.09342 -0.110539 -4.17146e-21)
(1.01154 -0.0159963 4.34231e-22)
(1.0222 0.00787221 4.27769e-21)
(0.991047 0.0163086 -1.98511e-21)
(1.37494 0.0796464 1.1875e-19)
(1.02837 -0.305628 5.14121e-20)
(1.01361 -0.00971678 -7.2022e-22)
(1.04956 0.0021056 0)
(1.02701 -0.0172058 0)
(0.896914 0.0209479 -2.54499e-20)
(1.21161 -0.255849 -1.20843e-20)
(1.00514 -0.00454524 0)
(1.0075 0.0104625 9.45452e-21)
(0.962535 0.00555382 0)
(1.02474 0.00634312 4.64023e-21)
(1.02152 -0.0051542 -1.10063e-20)
(0.905674 0.0285259 -5.68106e-21)
(1.0275 0.00193572 0)
(1.03481 0.0343196 -5.06481e-22)
(1.0381 0.0126758 3.38864e-21)
(1.00919 0.000328214 -5.60518e-21)
(1.03315 0.00132009 -3.01626e-21)
(1.00232 0.0055088 0)
(1.08558 0.013249 0)
(1.03337 0.00378231 3.9853e-21)
(1.0272 -0.00943918 -4.68737e-21)
(1.02013 -0.00949416 4.76686e-21)
(1.02436 0.0115495 -3.00511e-21)
(1.02176 -0.00974833 3.71861e-22)
(1.02363 -0.00276612 0)
(0.436469 -0.14062 1.48532e-20)
(1.24969 -0.00440986 -1.92726e-20)
(1.04768 -0.00233781 -8.16667e-21)
(0.867692 0.0261888 1.64823e-20)
(1.44587 -0.0573742 2.73217e-20)
(1.00987 -0.247879 6.87523e-20)
(1.03556 -0.0131551 -4.07978e-21)
(1.02904 0.00117094 -3.10264e-22)
(-0.129247 -0.1597 -9.70675e-21)
(0.99172 -0.0011358 0)
(1.03867 -0.0835439 -1.5004e-20)
(0.851756 -0.0146301 8.1899e-21)
(1.01499 0.00384116 5.82052e-21)
(1.03162 0.0217991 -9.78055e-22)
(0.791198 -0.00434167 2.17712e-21)
(1.41196 -0.356014 -1.57023e-20)
(1.00728 0.0205684 0)
(1.02821 0.00383201 -1.6835e-21)
(1.06555 0.000925717 -2.44244e-21)
(1.03624 0.00912708 0)
(1.0229 0.0050985 -5.62223e-21)
(1.06865 -0.00184569 3.48673e-21)
(0.993961 -0.0127824 1.46965e-20)
(1.06516 -0.0422662 -1.02933e-20)
(1.03367 -0.00496798 2.86386e-21)
(-0.0976403 0.0210355 0)
(0.829869 0.0669875 -3.12933e-20)
(1.03957 -0.0110027 0)
(0.985939 0.0801579 -1.88142e-20)
(1.00384 0.0660349 0)
(1.10625 -0.0180134 3.92702e-21)
(0.995565 0.0421407 0)
(1.02838 0.0119487 0)
(1.40808 -0.066522 2.12496e-20)
(0.781272 -0.0747175 0)
(1.03322 -0.0144492 1.74738e-20)
(1.03847 -0.0123187 3.79469e-22)
(1.01944 -0.0144397 2.93531e-21)
(1.1216 -0.183572 1.09095e-21)
(1.22736 0.116573 -1.17747e-20)
(0.998832 0.0106187 1.21353e-20)
(1.0438 0.0188563 0)
(1.0673 -0.0241291 0)
(1.02882 0.0124002 2.10267e-21)
(1.12932 -0.082069 0)
(1.49822 0.146822 -3.51972e-20)
(1.0326 -0.0028839 4.58235e-22)
(1.03604 0.00210528 1.63559e-20)
(1.13246 0.145607 -1.27823e-23)
(-0.0311497 0.0510336 0)
(-0.0396284 -0.107264 0)
(0.23722 -0.000127323 -6.0929e-20)
(-0.109995 -0.169741 0)
(0.997629 -0.0180886 -9.09167e-21)
(1.06972 -0.000319426 -3.42991e-21)
(1.05169 -0.0296753 -9.01394e-21)
(1.04773 -0.0579417 -2.36208e-21)
(1.09047 -0.0947141 0)
(0.964555 0.0141627 -2.4979e-21)
(1.0157 -0.00117364 0)
(1.01263 0.00946263 1.37998e-21)
(0.537725 -0.109832 0)
(1.01494 -0.00815888 -3.59416e-22)
(1.04231 0.0296668 0)
(1.00478 -0.0167295 0)
(0.90845 0.302196 3.93289e-20)
(0.992723 -0.0116795 -1.73222e-21)
(1.02988 -0.00147117 9.94546e-22)
(1.02245 0.00274591 -8.36894e-21)
(0.274604 -0.124882 0)
(1.01103 -0.0105755 -1.98635e-20)
(1.07151 0.0789688 5.5011e-21)
(1.03354 -0.00960202 3.22753e-22)
(0.98999 -0.026039 8.88079e-21)
(-0.145734 -0.0518725 -1.15952e-19)
(1.04748 0.0414942 0)
(-0.0356389 0.059342 0)
(1.04559 0.0385683 1.26204e-20)
(0.96977 -0.0246141 -9.55651e-21)
(1.05916 -0.00365472 -8.69916e-21)
(1.02478 -0.0205527 0)
(1.04691 -0.00794397 7.08901e-21)
(1.12478 -0.226388 -1.28682e-20)
(0.616357 -0.0362354 -1.08047e-20)
(1.06175 -0.00484562 -4.01942e-21)
(1.045 -0.0135787 -6.51002e-22)
(0.796396 -0.0970282 -1.70268e-21)
(1.0255 -0.0221209 -1.91069e-20)
(1.051 0.0518482 0)
(1.01221 0.00550779 0)
(1.0531 -0.0652841 -3.1734e-21)
(1.04669 0.0572722 -4.97243e-21)
(0.796651 -0.116683 3.98149e-20)
(1.19233 -0.0731932 -1.0267e-20)
(1.05346 0.0392327 1.21996e-20)
(0.712279 -0.00400729 7.43464e-21)
(0.834302 0.259322 -7.76017e-20)
(0.493405 -0.0677459 -2.1567e-20)
(1.19481 0.161589 -6.87651e-21)
(1.23615 -0.472764 7.1158e-21)
(1.16854 0.165512 -6.8667e-21)
(1.08807 -0.0790142 3.76084e-21)
(0.919649 -0.221208 8.82691e-20)
(0.319797 0.227725 0)
(1.02133 -0.00446672 -6.54033e-22)
(0.603797 0.0662039 2.31568e-20)
(1.03652 0.0220918 -1.092e-20)
(1.03235 -0.0210707 7.48498e-21)
(1.07516 -0.0201646 0)
(0.961477 -0.051457 0)
(1.18866 -0.0684741 0)
(1.03347 0.0913274 8.81263e-21)
(1.18308 0.0115537 -1.0809e-20)
(1.03226 -0.0361695 6.5511e-21)
(0.806089 0.0238864 0)
(0.889074 0.0145187 0)
(0.891156 -0.0101126 -1.55736e-22)
(0.80035 -0.0223106 0)
(1.02783 0.01343 0)
(1.02558 -0.0292589 2.42606e-20)
(0.908421 -0.0520103 0)
(1.0358 -0.0286269 0)
(1.04256 -0.0132507 0)
(1.19095 0.180822 7.70938e-21)
(1.11461 0.135242 -1.63429e-21)
(0.953774 -0.0151747 6.01375e-21)
(1.31872 -0.387973 -1.19436e-19)
(0.894857 -0.0927355 -1.88139e-20)
(1.04248 0.00867811 5.76133e-21)
(1.01872 0.0112121 0)
(0.235089 -0.117278 0)
(-0.22528 0.0341449 0)
(1.08536 -0.056936 6.46029e-21)
(1.33653 -0.262954 -3.50503e-20)
(1.0735 0.109969 0)
(1.05798 0.0121199 -9.45569e-21)
(0.682536 -0.236364 0)
(1.50109 -0.114683 8.56487e-20)
(0.42256 0.53328 9.03574e-20)
(0.342685 -0.0475321 0)
(1.13174 -0.267904 1.28208e-19)
(0.833806 0.343899 0)
(0.711874 0.0286187 4.36203e-22)
(1.10112 0.152245 0)
(0.059357 0.104461 9.47327e-21)
(0.976824 -0.0439225 0)
(1.1023 -0.0995532 3.04468e-21)
(-0.331676 -0.0755069 -1.02689e-20)
(1.06869 -0.00101476 2.72799e-21)
(1.02404 -0.014835 -8.01383e-21)
(0.559002 -0.501882 -8.66363e-20)
(1.011 -0.0101611 -1.80738e-21)
(1.19739 -0.0937927 1.8865e-21)
(1.2256 0.228278 -7.47546e-21)
(1.11262 -0.147446 1.18266e-20)
(1.11089 -0.0425869 1.32471e-21)
(0.136272 -0.251628 -3.06088e-20)
(0.186463 0.117592 -1.13768e-20)
(1.02952 0.0280817 2.38022e-21)
(1.04999 -0.00286829 0)
(1.00033 0.00162695 -5.83204e-21)
(1.41706 -0.420844 9.278e-20)
(1.02238 -0.0702701 -6.92106e-20)
(1.47836 0.0445783 9.81206e-20)
(1.03715 -0.0123339 6.64629e-21)
(1.01384 -0.0197029 1.54945e-20)
(1.0184 -0.0267727 0)
(1.18764 -0.0473842 0)
(1.06726 -0.0606431 -6.17529e-21)
(1.08292 -0.0312785 -3.91129e-21)
(1.07875 -0.120925 -1.21175e-20)
(1.04261 0.032064 -1.05035e-20)
(1.37317 0.0761578 -4.17139e-20)
(0.586271 0.022818 0)
(1.01421 -0.024101 1.60829e-20)
(1.1174 0.197091 0)
(1.03811 -0.00249172 -6.84914e-21)
(1.1535 0.00563453 0)
(1.08511 -0.0248249 1.06789e-20)
(1.21637 0.0134184 1.43252e-20)
(1.01812 -0.0218347 0)
(0.0705607 -0.0275804 1.75063e-19)
(0.878614 -0.208635 -6.92273e-20)
(1.41583 0.182642 -3.15694e-20)
(-0.280668 -0.0424173 5.3414e-20)
(1.13943 0.0659179 1.41841e-23)
(1.02383 -0.00412782 -2.21118e-21)
(-0.204901 0.0429074 -5.56211e-20)
(-0.0536166 0.116489 -3.50295e-20)
(1.00529 -0.0312205 0)
(-0.0286555 -0.0408042 0)
(1.15052 0.284102 0)
(0.110274 -0.100589 0)
(1.09912 0.0217507 0)
(0.166578 0.0368296 0)
(1.08135 0.0445345 0)
(1.10966 0.196692 0)
(1.02421 0.0484205 -6.37251e-21)
(0.58827 -0.28689 -2.32501e-20)
(-0.314944 0.00847835 0)
(1.2419 -0.057163 7.20587e-20)
(1.01535 -0.0148562 1.42505e-21)
(1.30848 0.263028 0)
(-0.0373097 -0.0440651 0)
(1.16827 -0.00641703 3.62063e-22)
(1.14516 -0.024705 1.27463e-23)
(1.18511 0.376805 0)
(0.35119 -0.0987993 7.05153e-20)
(1.09935 0.0454853 7.05436e-22)
(0.260159 -0.0516648 -5.86106e-20)
(-0.0611917 0.0579575 -4.3447e-20)
(-0.0283702 0.0514475 1.09283e-19)
(0.833284 0.272947 -2.15385e-20)
(1.04228 0.0144766 2.08087e-21)
(1.05017 0.0477062 -1.37981e-20)
(1.04412 -0.0110864 0)
(1.05128 -0.0571889 -1.92777e-20)
(1.08226 0.122678 1.7564e-21)
(-0.024362 -0.00840201 1.17138e-19)
(1.00815 -0.0794807 -5.47028e-20)
(0.980799 0.0117753 1.06083e-20)
(1.02661 -0.0133244 -2.60545e-21)
(0.0927424 -0.0329862 3.84346e-20)
(0.27631 -0.0362029 -5.38962e-20)
(0.494273 -0.0536722 -6.3995e-20)
(1.02863 0.040664 1.47955e-20)
(-0.0565594 -0.0348884 0)
(1.01588 0.0332903 6.85298e-21)
(1.04392 -0.0533994 2.42484e-20)
(1.06232 -0.0644066 -2.3381e-20)
(1.26459 0.198764 0)
(1.49954 -0.177798 8.42256e-20)
(1.03147 -0.0189067 -3.65574e-21)
(-0.0247896 -0.0510115 -3.90219e-20)
(0.561822 0.0260057 0)
(1.02698 0.00848644 -4.81554e-21)
(1.08869 0.0219113 1.53028e-21)
(1.0693 -0.261931 -1.78463e-21)
(1.13544 0.00342096 -3.30479e-22)
(1.10696 0.0407227 0)
(1.19601 -0.154136 -1.66833e-20)
(-0.169577 -0.14417 -8.89854e-20)
(1.23088 -0.01521 1.90247e-20)
(1.11617 0.15212 -9.13024e-21)
(1.04108 0.0114812 1.2013e-20)
(-0.0405319 -0.0751129 1.80492e-20)
(-0.036147 0.0850255 -8.8101e-20)
(0.981145 0.196952 0)
(0.863117 0.295179 0)
(1.13322 0.075103 -8.90966e-21)
(1.04235 0.0382376 8.38155e-21)
(1.02677 0.0237944 0)
(0.861786 0.0993211 6.53086e-20)
(0.869557 0.0665372 -1.55606e-20)
(1.06012 0.0747136 0)
(1.05601 0.015063 0)
(1.18088 0.261194 0)
(1.01978 0.003255 0)
(0.993661 0.00450616 2.41394e-21)
(-0.0424643 0.051893 4.74616e-20)
(1.0167 0.0113474 5.62924e-21)
(1.46735 -0.151844 -9.66814e-20)
(1.04042 0.0112091 -4.46029e-21)
(0.156158 -0.194867 0)
(1.03958 -0.0369546 0)
(0.919223 -0.0288552 -2.47057e-21)
(0.623942 0.00545036 -7.69705e-20)
(0.0994503 0.0340039 6.14668e-20)
(1.02646 0.00934973 3.11656e-21)
(0.769299 -0.273339 0)
(0.719065 -0.0886397 0)
(1.00623 0.0163842 0)
(0.557977 0.531581 3.79366e-20)
(-0.0353635 0.0877808 -3.98578e-20)
(1.0272 -0.000417696 -1.14609e-21)
(-0.0477847 -0.0645285 7.42119e-20)
(1.00352 0.00817152 2.41922e-21)
(1.20235 0.294181 1.42566e-20)
(1.11633 -0.0534192 6.89197e-21)
(0.507643 -0.172707 3.9281e-20)
(1.00903 0.0193952 3.52042e-21)
(1.03291 -0.0300509 0)
(0.595377 0.285587 0)
(1.02314 0.00182186 3.55811e-21)
(-0.370211 -0.0164113 0)
(0.830359 0.0165473 2.66893e-21)
(0.605687 -0.414492 -3.45373e-21)
(0.279432 0.051039 -1.38812e-19)
(1.13542 -0.210928 2.47517e-20)
(1.03341 0.361961 8.57609e-21)
(0.963517 0.0147679 0)
(1.05312 -0.0107574 8.63523e-23)
(0.928559 0.0190267 0)
(1.03051 0.00483853 1.92917e-22)
(0.494353 -0.0132685 0)
(0.717336 0.145546 0)
(0.974149 -0.00402382 -4.97278e-21)
(1.45735 0.104329 -1.85697e-20)
(1.03568 0.0051798 2.49208e-21)
(0.518133 -0.484564 0)
(1.14456 -0.136653 1.38718e-21)
(0.816326 0.384444 6.23494e-20)
(-0.0297443 0.0174394 1.54627e-21)
(1.15033 -0.0845248 5.54152e-21)
(1.20851 -0.0119133 -1.09386e-20)
(1.01091 -0.00964835 7.81647e-22)
(0.96096 0.00148191 -3.9934e-21)
(0.085499 0.0184447 4.96425e-20)
(-0.0506347 0.0292039 -6.60231e-20)
(-0.45645 -0.0462484 0)
(-0.302574 0.0291815 0)
(1.18979 -0.602072 3.43965e-20)
(1.09071 -0.0188275 -1.2926e-21)
(0.901928 -0.462857 -4.73745e-20)
(1.00433 0.0322678 -1.55495e-20)
(1.42819 0.15389 4.66481e-20)
(0.63026 0.438786 0)
(0.251197 0.424174 -1.03825e-19)
(0.610605 0.489798 0)
(0.314286 -0.0608983 0)
(1.12527 -0.456939 0)
(-0.0989019 0.131757 -1.16481e-21)
(1.19706 -0.0330383 0)
(0.972379 0.163978 2.03943e-20)
(0.613375 0.708529 2.12782e-20)
(1.09899 0.185722 -1.11297e-20)
(-0.028058 -0.15228 -1.27929e-19)
(0.957492 0.132161 3.18315e-20)
(0.497124 0.152992 -1.66113e-20)
(1.20101 0.0679827 0)
(1.40177 0.332339 5.33179e-20)
(1.24915 0.56458 2.0254e-20)
(0.217313 -0.0297992 -2.98521e-20)
(1.15389 0.0701837 4.47862e-20)
(0.969291 0.0188937 3.04843e-21)
(0.969882 -0.00182959 -1.5386e-21)
(0.0019368 -0.0341941 0)
(0.633083 -0.635702 -2.83781e-20)
(0.622139 0.216039 0)
(0.192091 -0.154399 0)
(-0.0565631 0.115271 0)
(0.00879865 -0.174544 -4.95936e-20)
(1.18463 -0.052068 -6.40549e-21)
(0.000785236 0.131528 0)
(-0.0550967 0.147018 0)
(1.40514 0.0245963 -9.18361e-20)
(-0.0289271 -0.10833 5.75109e-20)
(0.116751 0.237934 -9.51684e-20)
(0.468611 0.0147179 0)
(0.166226 -0.271148 7.7264e-20)
(1.13051 -0.231628 0)
(1.00553 -0.266412 0)
(0.0420229 -0.14482 1.2236e-19)
(1.15009 0.00894934 -4.69056e-23)
(1.13431 0.327281 2.1485e-20)
(0.308879 0.0273352 5.85524e-20)
(0.396643 -0.506192 -3.37493e-20)
(1.45885 -0.0356484 0)
(1.32158 0.161328 2.91759e-20)
(1.29073 0.186218 -3.58158e-20)
(0.102217 0.0904247 -2.22587e-20)
(-0.141296 0.0696561 0)
(1.08934 -0.0399573 -1.8655e-20)
(1.11912 -0.225483 -1.21759e-20)
(0.569567 -0.388193 0)
(1.11907 -0.156811 -2.20354e-20)
(0.0252303 -0.0357509 0)
(0.768673 0.0333108 0)
(1.2893 0.125767 2.50559e-20)
(1.05684 -0.0160095 5.49236e-22)
(1.10302 0.752861 -5.67764e-21)
(0.220541 -0.369683 1.24319e-19)
(1.02374 0.00715339 -1.11478e-21)
(1.18927 0.0761036 2.37661e-21)
(-0.0786656 0.185304 4.17437e-20)
(0.814861 0.752924 1.65064e-20)
(1.35715 -0.342471 -1.38258e-20)
(0.297362 0.137896 7.5597e-20)
(1.03835 -0.00284953 0)
(0.517086 -0.197212 -9.91501e-21)
(0.900484 -0.627326 3.11551e-21)
(0.938043 0.66135 -3.4438e-20)
(0.607064 -0.0265619 -7.14687e-20)
(1.07768 -0.0176645 -5.69009e-21)
(1.06356 -0.0796025 6.11504e-21)
(1.05468 0.0449113 5.71019e-21)
(1.08419 0.0950678 1.07323e-21)
(1.13378 -0.111487 0)
(1.00961 0.0877913 1.96751e-20)
(0.935514 0.474203 0)
(1.06008 0.0700647 -5.75566e-21)
(1.16723 0.0983066 -2.93203e-21)
(0.809195 0.273257 0)
(0.578595 0.114063 1.32408e-19)
(0.917493 0.725549 -7.42786e-22)
(1.10667 0.273949 -1.65011e-20)
(1.02424 0.0144447 1.13535e-20)
(0.424632 0.500488 0)
(1.30199 -0.449718 0)
(1.01817 -0.266587 3.41651e-21)
(1.31028 0.505539 0)
(-0.00566611 0.0760428 -5.72284e-20)
(1.28882 -0.392329 -1.6484e-20)
(1.1834 0.503758 0)
(0.458659 0.227266 1.59638e-19)
(1.1863 0.319101 -1.51226e-19)
(0.800006 -0.616001 -2.38269e-20)
(1.05311 0.0640396 2.70526e-21)
(0.994816 0.151867 1.05492e-19)
(1.11335 0.14518 3.68434e-20)
(1.10301 0.71576 -4.15916e-21)
(0.884904 -0.414671 6.08044e-20)
(1.42766 0.105156 5.2056e-20)
(1.09115 -0.0215354 -8.07806e-22)
(0.0165473 -0.0706637 1.05072e-19)
(1.0779 -0.685926 3.22049e-20)
(0.860442 -0.702154 4.7933e-20)
(0.245585 -0.321367 0)
(0.983506 -0.153246 6.73156e-20)
(0.3693 0.315487 -4.14872e-19)
(-0.216577 -0.0629009 3.75037e-20)
(0.367287 0.0621198 3.15407e-20)
(0.72965 -0.0539661 -8.35103e-20)
(1.09797 0.53122 0)
(1.00667 0.21518 6.92996e-20)
(1.05192 0.0399115 2.15083e-21)
(0.932596 0.450905 -8.03812e-20)
(0.775108 -0.710552 -7.48353e-21)
(0.917498 0.0188548 -4.53299e-20)
(0.99015 0.491614 0)
(1.06124 0.127364 7.2832e-21)
(1.38027 -0.491721 1.4989e-20)
(1.23064 -0.326126 1.11419e-20)
(-0.18548 -0.0904961 4.07834e-20)
(0.191482 0.0102142 -1.72631e-20)
(0.9562 -0.123394 -5.4149e-20)
(0.362361 0.535883 0)
(0.924175 0.0159325 3.61216e-20)
(1.19828 0.646853 1.04445e-19)
(-0.124071 -0.140757 1.91956e-19)
(-0.106767 0.174367 -3.58342e-20)
(-0.213965 -0.0880225 4.97418e-20)
(1.05458 -0.00494911 -2.8553e-21)
(1.14684 -0.453415 0)
(1.05658 -0.710905 -3.60855e-20)
(0.712659 0.361 0)
(0.0831522 -0.17031 -1.40939e-19)
(1.01245 0.0223286 5.76869e-21)
(-0.0809644 -0.0924599 -3.36045e-20)
(1.01937 0.0306106 -1.16315e-20)
(0.139164 0.0377758 7.41153e-20)
(0.94449 0.124407 0)
(1.29882 0.0774869 4.07769e-20)
(0.158226 0.0913157 -3.58014e-20)
(-0.447765 -0.152505 -4.83979e-20)
(-0.40513 0.0571933 0)
(0.100837 -0.0147862 0)
(1.23425 0.0220327 -1.26171e-20)
(0.421869 -0.00742089 1.72988e-19)
(1.26352 -0.706106 -2.92151e-20)
(1.03306 -0.287845 1.60812e-20)
(1.11495 0.239692 -2.23654e-20)
(0.358755 -0.543204 1.3266e-19)
(1.59659 0.224628 -4.64794e-20)
(0.10915 -0.114927 4.08315e-20)
(0.212684 0.310318 1.85414e-19)
(0.133707 -0.057999 -1.52663e-19)
(0.936941 -0.47043 -4.11308e-20)
(1.50028 0.367482 4.76401e-20)
(0.556522 -0.659931 4.59802e-20)
(1.09691 -0.064791 -6.34503e-21)
(0.442035 -0.0342388 7.70895e-20)
(1.26563 0.285983 -6.29116e-20)
(0.678848 0.651835 -3.57399e-20)
(1.3443 -0.607416 0)
(1.47897 0.516374 4.24449e-20)
(1.04425 -0.505235 -1.24503e-20)
(1.43465 0.607728 -1.35302e-19)
(1.10492 0.0865502 0)
(-0.0550357 0.167905 0)
(1.28542 0.736486 0)
(1.02052 -0.00157789 -6.64165e-21)
(0.717161 -0.282672 -1.95354e-19)
(0.468921 -0.0688962 0)
(-0.0508283 0.209597 -3.53401e-20)
(1.03161 -0.239941 9.0292e-20)
(-0.449091 -0.00633843 0)
(0.318307 0.0349049 1.16638e-20)
(1.0921 0.0464233 0)
(1.48532 0.244422 0)
(1.08722 0.0749339 -2.89628e-21)
(0.355014 -0.280462 0)
(1.03741 0.122523 3.07359e-20)
(1.36815 0.266517 0)
(-0.148452 0.156455 -2.40863e-21)
(0.799073 -0.373163 0)
(1.55695 0.298831 -7.05677e-20)
(1.25721 0.349817 -9.6018e-21)
(0.86037 0.65549 -8.55952e-21)
(1.05666 0.132127 -7.61069e-20)
(0.993278 -0.197318 -4.50152e-20)
(1.50119 0.262147 4.13035e-20)
(1.16171 0.0106343 0)
(0.558241 -0.0522169 0)
)
;

boundaryField
{
    FrontBack
    {
        type            empty;
    }
    Top
    {
        type            noSlip;
    }
    In
    {
        type            fixedValue;
        value           uniform (1 0 0);
    }
    Bottom
    {
        type            noSlip;
    }
    Out
    {
        type            zeroGradient;
    }
    circle
    {
        type            noSlip;
    }
}


// ************************************************************************* //
