/*--------------------------------*- C++ -*----------------------------------*\
| =========                 |                                                 |
| \\      /  F ield         | OpenFOAM: The Open Source CFD Toolbox           |
|  \\    /   O peration     | Version:  2412                                  |
|   \\  /    A nd           | Website:  www.openfoam.com                      |
|    \\/     M anipulation  |                                                 |
\*---------------------------------------------------------------------------*/
FoamFile
{
    version     2.0;
    format      ascii;
    arch        "LSB;label=32;scalar=64";
    class       surfaceScalarField;
    location    "41.3";
    object      phi;
}
// * * * * * * * * * * * * * * * * * * * * * * * * * * * * * * * * * * * * * //

dimensions      [0 3 -1 0 0 0 0];

oriented        oriented;

internalField   nonuniform List<scalar> 
1171
(
-0.945542
0.945542
0.77094
-1.07098
0.300039
-0.344126
-0.795162
1.13929
0.0544584
-0.0675136
-0.270728
0.338242
-0.77094
0.0762112
0.694729
0.913924
-0.186062
-0.727862
0.83477
-1.01956
0.184786
-0.347422
-0.038864
0.386286
-0.0005988
0.597124
-0.596526
-0.55611
1.0364
-0.480292
-0.414935
0.996252
-0.161482
0.333285
0.065701
-0.398986
1.01122
-0.0149659
0.386199
-0.0529141
1.0336
-0.0223815
0.702875
-1.047
-0.787489
0.611776
0.175713
0.369031
-0.925141
0.563744
-0.917533
0.353788
-1.07785
0.663893
0.413955
-0.63956
0.638961
0.040214
-0.262283
0.222069
-0.0132687
-0.633332
0.6466
0.459823
-0.498687
-0.867545
0.914511
-0.0469653
1.02898
0.00462358
0.92995
-1.08707
0.157116
1.06528
-0.036306
-0.69979
-0.087699
1.25213
-0.861371
-0.390758
0.197736
-0.0698976
-0.407741
0.477638
-0.276057
0.178648
0.0974085
-0.593745
-0.477234
0.981148
-0.0511983
-0.00835325
0.849526
-0.841173
0.505884
0.746245
0.527227
0.0221682
0.437655
-0.776311
-0.109533
0.885844
0.605656
0.23745
-0.843106
-0.0401288
0.647732
-0.607603
-0.506056
-0.571792
-0.395999
-0.691067
0.0236194
0.243433
-0.267052
-0.934326
-0.03217
0.966496
0.365894
0.0203919
0.873237
0.0406868
-0.599304
-0.0402563
0.0466913
-0.823002
0.197698
0.931349
-1.12905
-0.405723
0.0137164
0.392007
-0.709843
-0.224483
-0.75273
0.950428
0.568358
0.468045
-0.574357
0.991492
-0.819213
-0.172279
0.163144
-0.238607
0.0754625
-0.450921
-0.0477667
-0.342698
0.911056
-0.0148664
0.431141
-0.416274
-0.502013
1.10767
0.703077
-0.81261
0.375081
-0.0660193
-0.309062
0.772971
-0.772971
-0.982305
0.0420751
-0.312803
-0.687779
0.679425
-0.0355632
-0.142084
0.177647
0.87875
-0.0292239
1.05193
-0.814484
0.21663
-0.313841
0.0972115
1.00433
-0.131096
-0.678906
-0.0489346
0.727841
0.151739
-0.23772
0.0859809
0.811837
-0.997899
-0.45012
0.314522
0.135598
0.63357
-0.646839
0.892077
-0.404118
-0.487959
0.496077
-0.69572
0.0392736
0.656446
0.161227
0.668382
0.0443836
-0.712765
0.135778
-0.0937027
-0.521814
0.116091
0.0352866
-0.902019
0.866733
-0.567631
-0.759801
0.0600108
0.491898
-0.054243
0.272751
-0.832003
0.559252
0.424094
0.575906
0.597836
-0.551145
-0.360215
-0.025283
0.385498
0.551591
0.22138
-0.668459
0.628331
0.0841575
0.888048
0.00383976
-0.682746
-0.765141
0.800427
0.619447
0.122906
0.345047
-0.467953
-0.159109
0.493476
0.154256
0.716565
-0.76876
0.0521952
0.648975
0.342517
-0.427301
0.717835
-0.594928
0.409906
0.153838
-0.0608686
-0.577408
-0.202201
0.779609
-0.119778
-0.653193
-0.613728
0.368091
0.245637
0.658074
-0.654234
0.302679
1.03757
0.0143658
-0.765141
0.0219794
0.141165
0.703077
0.780817
-0.780817
0.842009
-0.828027
-0.0139819
-0.456489
0.880583
-0.194169
-0.327644
0.760508
-0.66789
-0.092618
-0.825686
0.248278
0.108973
-0.708276
0.81261
-0.971719
-0.168039
0.143128
0.0249115
0.115839
-0.984206
0.868367
0.541437
-0.0142097
-0.294069
0.598826
-0.304757
-0.651563
0.767401
-0.161139
0.796241
-0.625795
-0.170446
1.09846
-0.549223
-0.549238
0.719949
-0.0709696
-0.0386319
0.0416135
-0.00298152
-0.800057
-0.796338
0.00117554
-0.687779
0.575471
-0.561754
-0.0354502
0.643842
-0.608392
0.779122
0.166419
0.493805
0.506195
-0.058205
-0.587678
0.645883
0.69279
0.0237748
-0.719949
0.800427
0.177053
-0.439336
0.00808068
-0.0337987
0.025718
0.674179
-0.450226
-0.223953
0.694729
0.0389975
-9.71167e-05
0.53567
0.138509
0.00309707
0.00398196
-0.00707903
-0.00280468
-0.0358273
0.13414
-0.200159
-0.941956
0.0533622
-0.141529
-0.0338993
0.125323
0.76497
0.743903
-0.167997
0.367794
-0.403244
-0.16516
0.38179
0.637197
0.0575325
0.231156
-1.05918
-0.971719
0.311651
0.679425
-0.160972
0.0188878
-0.818332
0.955758
-0.137426
0.489054
-0.0970479
0.795763
0.30428
0.307702
0.0784974
-0.680557
0.680557
0.227777
0.658067
-0.00956625
0.440707
0.468072
0.0514087
-0.043328
0.550545
-0.00910833
-0.651563
0.568902
0.191606
0.0467272
-0.00511371
-0.637197
0.151188
0.804569
-0.00794278
-0.722773
0.730716
0.75612
-0.824361
0.0682415
-0.779122
-0.0386291
0.0504952
-0.0118661
0.0824672
-0.139229
-0.112665
0.251894
-0.00922722
0.0123243
0.740689
-0.748632
0.872287
0.267001
-0.483614
-0.503674
0.987289
0.000183039
-0.000183039
0.117845
0.349401
0.801225
-1.15063
-0.191467
-0.5637
0.755167
-0.0154071
0.193055
0.391323
-0.239584
1.12781
-0.778409
0.77363
0.979036
-0.177811
0.197154
0.767401
0.60592
0.264317
0.650194
-0.653193
0.319443
0.00620012
-0.0355119
0.0293118
0.778577
0.16747
-0.946047
-0.583538
0.547232
0.543511
-0.583538
-0.60592
0.547232
-0.0348893
1.08496
-0.212678
-0.551591
0.477666
0.0739253
0.507056
0.68861
-1.19567
0.368999
0.758811
0.738618
0.42069
-1.15931
0.256376
0.722661
0.477666
-0.524119
-0.595397
-0.663495
-0.26592
0.0180474
-0.000236672
0.000236672
0.503064
0.634022
-0.899941
0.727701
-0.382654
-0.989468
0.440245
-0.678071
0.453588
0.0510698
-0.884526
0.833457
0.449834
-0.00517937
0.783756
-1.23634
-0.938
0.0349348
0.903065
0.471853
-0.13811
-0.333743
0.793593
-0.844792
1.12535
-0.909665
-0.215689
-0.120737
-0.648023
-0.0903208
0.747213
-0.656892
-0.996228
0.875491
-0.442956
0.711999
-0.269043
-0.971443
0.273042
0.698402
0.00419287
-0.00400983
0.426589
0.110991
-1.0423
0.931311
-0.715682
0.657477
0.948375
0.175711
-1.12409
0.0103744
0.0125383
0.372959
-0.356355
0.0425134
0.941517
-0.890447
-0.704442
-0.962849
0.314826
-0.094202
-1.02079
0.111127
0.613402
-0.245608
0.273979
0.197874
-0.525805
0.798847
0.487959
-0.889706
-0.820517
0.264448
-0.00873241
0.633506
-0.624774
-0.187336
-0.713174
0.581101
0.175018
-0.107701
0.891457
0.910425
1.03768
-0.926551
0.0465667
-0.0465667
-0.111169
-0.489801
0.351691
0.332117
-0.0204657
0.346699
0.704122
-0.0250212
0.015794
0.658044
0.341956
0.798086
-0.593745
-0.756952
-0.457303
-0.500267
0.500267
-0.203241
-0.109563
0.711059
-0.978502
0.267442
-0.517439
-0.568271
0.364785
-1.05585
-1.00378
0.788094
-0.499185
0.814011
0.704803
0.159789
-0.864592
-0.726346
-0.162037
0.810418
-0.648382
0.299662
-0.0231771
0.00501711
0.01816
-0.140739
-0.349063
1.07584
0.766736
-0.454636
-0.3121
0.432993
0.730671
-0.502894
0.00648578
-0.282543
0.211861
0.728666
-0.940528
-0.351049
-0.0873513
0.125245
-0.963214
0.0171674
-0.818713
0.00113688
0.772338
-0.773475
-0.833108
0.0143946
0.663761
-0.751113
0.235578
-0.374807
-0.49285
-0.233497
0.374527
0.746985
-0.0291502
0.0128493
-0.0128493
0.00374529
0.026174
-0.0199738
-0.0204213
-0.00459984
-0.738458
0.31505
0.821078
-0.813025
-0.00805231
-0.704086
0.705223
0.732032
-0.0682703
-0.710098
-0.12301
-1.18093
0.0202272
0.0263395
-0.526597
-0.800419
-0.880157
0.489399
-0.218619
0.184176
0.0344426
-0.536371
0.00977402
0.514979
0.712502
-0.034744
0.000844738
1.19671
0.485243
0.241636
-0.726879
-0.521757
-0.0146137
-0.0149396
-0.00823743
0.667724
-0.869925
0.00682049
-0.00682049
-0.708758
0.681171
0.0275873
-0.247778
-0.0865634
-0.69786
0.0838312
0.562052
-0.0540363
-0.859896
-0.0637688
0.153612
-0.0898428
0.782402
-0.790454
0.335554
0.269198
-0.604752
-0.132695
-0.690919
-0.0825565
-0.223515
0.0200624
0.465385
-0.513151
0.188754
0.709147
-0.897902
0.496077
-0.0869209
-0.131698
0.277165
-0.257102
0.599844
-0.0913323
-0.508512
-0.280869
0.299703
-0.0188339
0.609269
0.118432
0.041113
-0.306384
0.162972
0.143412
-0.132197
0.154177
-0.20888
-0.144967
0.230581
-0.0856141
0.790798
-0.41094
0.163162
0.551262
0.214346
-0.668982
0.430171
-0.430171
-0.20994
-0.407352
-0.21899
-0.407352
-0.634686
-0.848151
0.180261
-0.0592487
0.727264
0.0380896
0.162582
0.584403
0.109331
0.118355
0.00839938
-0.126754
0.0943629
0.765261
-1.01593
0.512253
0.0260453
0.072809
-0.0988543
-0.716652
-0.171503
-0.574684
0.81632
-0.549542
0.0113936
-0.268496
-0.329528
-0.0839574
0.0839574
0.0421165
0.00837868
0.138582
0.338353
-0.771851
0.197167
-0.00946658
0.468739
0.531261
0.69859
0.0421447
-0.0149829
-0.0271618
-0.290164
-0.569732
-0.571497
0.109037
-0.114912
0.00587494
-0.0864027
-0.418977
0.0054963
0.556556
-0.555713
-0.160939
-0.227213
0.0981359
0.122717
-0.39347
-0.194841
-0.186598
-0.0135616
-0.50068
0.429122
0.0715579
-0.142739
0.291162
-0.862954
-0.537052
0.650919
-0.83447
0.701775
0.453245
-0.0388455
0.0693683
-0.0305228
-0.0852311
-0.637192
0.0132044
0.623987
-0.892763
0.622786
-0.733955
-0.227834
0.00825735
-0.00825735
-0.299899
0.433195
-0.0602355
0.0429991
-0.000854331
0.590297
0.638373
-0.586177
0.00920039
0.0122747
0.000574589
0.00312335
-0.00312335
-0.529239
0.647671
0.0109475
-0.0109475
-0.767398
-0.0106932
0.014886
-0.55642
0.753587
0.61134
-0.583752
0.0687448
-0.0687448
-0.0369318
-0.00639621
0.00645698
-0.9342
0.384962
-0.494796
-0.00400983
0.579503
0.0257716
-0.605275
-0.693157
0.137445
-0.322208
-0.0137001
0.335908
-0.0285549
-0.00618909
-0.599363
-0.0378286
0.0263395
0.00587688
0.000943614
-0.00304127
0.00304127
-0.429604
0.34399
-0.444313
0.137432
0.660653
-0.142476
-0.00783215
0.00783215
0.508013
-0.195596
0.00807431
0.0180821
-0.000886477
0.485675
-0.681271
-0.565687
0.72885
-0.0616012
0.323071
0.756619
0.00374529
-0.119999
0.114885
-0.648848
0.555562
-0.362698
-0.113654
-0.0182618
-0.0251942
-0.0354043
0.458964
-0.0913903
-0.417121
0.672551
-0.00288668
0.00949309
-0.00949309
-0.147156
-0.091251
-0.575678
0.613767
-0.15151
0.507436
-0.231053
0.933928
0.779655
0.00587688
-0.847364
0.779558
0.088956
-0.152877
0.0639211
0.586111
0.0929151
-0.0134985
0.0743445
-0.060846
0.0104572
-0.0104572
-0.778211
0.0221781
-0.0448794
0.0629615
-0.0896833
0.0896833
0.0122747
-0.00408686
0.705662
0.0989078
-0.322652
-0.0963245
-0.51667
-0.138257
-0.0700833
0.0700833
-0.0640936
0.0800637
-0.0800637
0.0292438
-0.0292438
-0.348934
-0.0783674
0.2453
0.069222
0.047495
-0.743109
-0.0647294
0.164795
0.0122579
-0.265102
0.0793463
-0.0793463
-0.461786
-0.0513651
0.237811
-0.0157417
0.00283561
-0.613668
0.648557
0.0136904
-0.077784
0.029158
-0.0355542
-0.0113189
-0.154724
0.166043
-0.153187
-0.22162
-0.0846844
0.0846844
0.0577628
-0.0577628
-0.0325906
-0.095662
0.128253
0.0452218
-0.183657
-0.0273603
0.0279349
-0.317173
0.661163
-0.0261946
0.436414
0.0030873
-0.0101663
-0.05453
0.05453
-0.72075
0.326822
-0.129668
-0.214245
-0.0234748
-0.0205295
0.0233651
0.212543
0.0393508
0.00213349
-0.00301997
0.0795521
0.0294849
0.0533914
0.111404
0.0102425
-0.00939774
0.0026726
0.00564263
0.00621406
0.0142611
-0.0204752
0.00278157
0.00020062
0.0301705
-0.0301705
0.053815
-0.0393675
0.0393675
-0.193383
-0.0045237
0.0187125
-0.0769088
0.0187865
0.0747274
-0.0747274
0.284101
-0.250883
0.0976953
-0.0695687
-0.181314
-0.0191297
0.0191297
0.402721
0.253725
-0.514094
-0.0815752
-0.0333368
0.540154
0.0743798
-0.0806478
-0.444256
0.0784157
-0.158436
0.17542
-0.0169845
-0.0452425
0.0452425
0.835035
-0.595505
-0.0178257
0.0206072
-0.00572587
-0.281065
-0.000717377
0.00499891
-0.0458417
-0.616548
0.568035
-0.667829
0.014601
0.232568
0.0155534
0.0252862
-0.164162
-0.338978
0.26207
-0.0601829
0.0275922
0.166327
0.133375
0.208442
0.27308
-0.257526
0.00715767
-0.114738
-0.227945
0.0712237
-0.0178323
0.168697
-0.143411
-0.0692421
0.148794
-0.398631
0.130415
-0.111628
0.0605823
-0.477704
0.180419
0.171243
-0.240485
0.00233411
-0.174275
0.173558
0.00461891
0.144175
-0.02842
0.0542611
0.453752
0.0110408
0.0398644
-0.0112796
0.0377673
-0.24493
-0.20338
0.588973
0.175708
0.0621035
0.085548
-0.0614664
0.0405293
0.0233919
-0.0300773
0.171545
-0.156944
0.00446009
0.0101093
-0.104576
-0.0300996
-0.00493764
0.254495
0.00898952
0.00497504
-0.318668
-0.0107128
0.213757
0.147524
0.179298
0.0570692
0.102058
0.0491901
0.541107
-0.0178026
0.0970732
0.0479096
0.0617568
-0.109666
-0.260369
-0.204593
0.0232791
-0.223209
0.295389
)
;

boundaryField
{
    FrontBack
    {
        type            empty;
    }
    Top
    {
        type            calculated;
        value           uniform 0;
    }
    In
    {
        type            calculated;
        value           uniform -1;
    }
    Bottom
    {
        type            calculated;
        value           uniform 0;
    }
    Out
    {
        type            calculated;
        value           nonuniform List<scalar> 10(1.10762 1.03117 1.25889 1.01519 1.1093 0.98858 1.13709 1.08571 0.640111 0.626342);
    }
    circle
    {
        type            calculated;
        value           uniform 0;
    }
}


// ************************************************************************* //
