/*--------------------------------*- C++ -*----------------------------------*\
| =========                 |                                                 |
| \\      /  F ield         | OpenFOAM: The Open Source CFD Toolbox           |
|  \\    /   O peration     | Version:  2412                                  |
|   \\  /    A nd           | Website:  www.openfoam.com                      |
|    \\/     M anipulation  |                                                 |
\*---------------------------------------------------------------------------*/
FoamFile
{
    version     2.0;
    format      ascii;
    arch        "LSB;label=32;scalar=64";
    class       volScalarField;
    location    "907.5";
    object      p;
}
// * * * * * * * * * * * * * * * * * * * * * * * * * * * * * * * * * * * * * //

dimensions      [0 2 -2 0 0 0 0];

internalField   nonuniform List<scalar> 
808
(
-0.0360068040926296
0.04503272632128311
-0.01174255858216548
0.03492562665144861
-0.3041079312748412
-0.05468992873366001
-0.01457752663186536
-0.02394532757976914
-0.2003728182100687
-0.08580332672063676
-0.009650075296170943
-0.2580560193634215
-0.03058816278930379
-0.01298159194703846
-0.1207540188600963
-0.01404149202658196
-0.1390030594580196
-0.01357747103733989
-0.01237247291858773
-0.05705162372734365
-0.005948075348636121
0.1183605294466552
-0.06079874049951068
-0.07353780899718776
0.1766049145084553
-0.09945529974146952
-0.1554830746236288
-0.0203033598517201
-0.0173580838172491
-0.02596181518701084
-0.02017141174888482
-0.0599754898710237
-0.02291570577364835
-0.01682065715632517
-0.1013433082076167
0.3439466483218303
-0.03857078782552477
-0.01673186264945688
-0.023295010104911
-0.02656398416720603
-0.09209231160534831
-0.1292534393170967
-0.0507557527587853
-0.02069359666262076
-0.05453375961455003
-0.03982670807927967
-0.0123239625682233
-0.1878625361296789
-0.02761314887901262
-0.2077391071082279
-0.01617226044639661
-0.06909942725633807
-0.0594621650320492
-0.01456775407153143
-0.1902024537988677
-0.02900313838071731
-0.01055362993926368
-0.01398926602794642
-0.1025777243176908
-0.04072482093706075
-0.09851080301733854
-0.1288176948448197
-0.01342644090318326
-0.1308308719380931
-0.01701434196579508
-0.05056678566095358
-0.1678763180532663
-0.03565225816199619
-0.01483137467256532
-0.4465459108166441
-0.02699057779504435
-0.3082194493784194
-0.02202620837053511
-0.02044410867041888
-0.06762119354992221
-0.01734606131393105
-0.04358291610175746
-0.358721711983331
-0.03549250486984634
0.04221795762480683
-0.09031367356787505
-0.01728211155772519
0.05682003515203909
0.0433355070646821
-0.01655901375840067
-0.05335911086612614
-0.5494177884215365
-0.2226289417060779
-0.05350352354073964
-0.111424228900835
-0.05813591413276412
-0.1352203023844934
0.04080606755173643
-0.02375003592519718
-0.06050735657596482
-0.1207232715483376
-0.0384886214116147
-0.05187996446527331
-0.1184420220475271
-0.1409794302813617
-0.05213172656661485
-0.04846710312418068
-0.05572380856901608
-0.0458383746316041
-0.05797455800708583
-0.07318808484193254
-0.04118694311683217
-0.01116586931753829
-0.04112353346059957
-0.1269359916455842
-0.05130136812354515
0.08343553211530988
-0.04317295024855779
-0.007967157605367066
-0.02781519725381987
0.1800742957065047
-0.03992630299436779
-0.2738783657963902
-0.02033776310550378
-0.05496907648077414
-0.02812771645403443
-0.04782014011209933
0.01253986568146124
-0.05021020373626816
-0.033953023221656
-0.2139382378179411
-0.04303852936580103
-0.004974929247301204
-0.07789436433689345
-0.06750079482603416
-0.1492658391242621
-0.02098895336002785
-0.07669408933489912
-0.04103320322820122
-0.02276419932614475
-0.01666250188901217
-0.006357778058080527
-0.007433086604258701
-0.0531927198413222
-0.05104973591524795
-0.2081070843143533
-0.05824398246670664
-0.008561007854994765
-0.02278848651671396
-0.1447066393686934
-0.002213449328613316
-0.07791376879967951
-0.02387947461110716
-0.001215060302214238
-0.01027256540212881
-0.03392445308050207
0.09567567090198346
-0.03988782027869252
0.2527873455137532
-0.2630920922686213
-0.130230795859759
-0.03717554185920253
-0.09126001487929751
-0.009111436933753261
-0.1116715633166784
-0.1851177371571218
-0.213069369614965
-0.1840724274990787
0.05530542294071254
-0.06179211901176127
-0.02030448074264471
-0.06801736313879327
-0.173929653114619
-0.02392210993253811
-0.01858695973866937
-0.05343241203699644
-0.01795135940050266
-0.005918782936971137
-0.1107743171855136
-0.02281445550430988
-0.04679042874141066
-0.06873176031035523
-0.1642140336590698
-0.03373497345841909
-0.3963536805058872
-0.01780038784466699
-0.2222644262090507
-0.04554397557487915
0.03042135187701422
-0.1048566171477004
-0.01411204827326808
-0.04157098795074182
-0.106117130271186
-0.01772400652304748
-0.09732074357822117
-0.204460898844493
-0.07313860406089612
-0.02374634576692689
-0.05001138458686528
-0.04391995809449267
-0.2034775208145026
-0.02188025653223788
-0.01897791223871558
-0.01137640165119013
-0.05453813586955096
-0.05217523953521756
-0.02245876406135992
-0.020817801068687
-0.2473408382012698
0.1280674111842815
-0.2002876612626917
-0.2081777140377159
-0.01177202078348427
-0.01161666731332669
-0.06772972470142058
-0.009454625535667116
-0.514142253505374
-0.1240919664456934
-0.01898935060793452
-0.001509471305054403
-0.02428899890137877
-0.28741938851429
-0.2734275245445584
-0.007170320573196173
-0.01779033451940954
-0.002249582587842448
-0.3438800370896054
-0.02829189026021587
-0.02918267378435403
-0.01252156399707387
-0.01975859722014789
0.05107834453893125
-0.1107822384429775
-0.01375153855938855
-0.02074047012050714
-0.04287540504861268
-0.01821121605860267
-0.0161624803248381
-0.02336485374901218
-0.06679255449776833
-0.01184711781657277
-0.01905905333789519
-0.008571560772564229
-0.0009375674023483072
-0.02954037538557303
-0.001583321483215966
-0.002282635915912189
-0.006099474199895199
-0.02560879536937794
-0.008031990069552988
0.001602507147554392
-0.004131199095420646
0.001125259356067302
0.002482304042195392
-0.008513834351520195
-0.1410700620393975
-0.003029319254249011
-0.001077326905859089
-0.04831000675693949
-0.02147183918463604
-0.02491063888282709
-0.01434100102406347
-0.006086356123497429
-0.02089932821177164
-0.03725270277492306
-0.01411252204541784
-0.0127552375859192
-0.01199032564172459
0.006313386631974669
-0.01019530554468309
-0.01221990128974027
-0.01124968438808656
-0.01071999938593878
-0.01001809941924141
-0.01127655089671819
-0.01410985132134834
-0.3101775768030102
0.06115606525530025
-0.01528447119853599
-0.01676401181396507
-0.01300375707657613
-0.01246533976640058
-0.008686450166294428
-0.09850917446007945
0.008838770125734828
-0.01386521570334283
-0.01476057671591332
-0.01082951053084613
-0.05344223120900613
-0.009534866745770835
-0.0139248098149616
-0.009159030929217474
-0.001018466117443767
-0.009719786140147962
-0.01075276965039189
-0.02489361285936267
-0.01628956371702502
-0.01197328103827524
-0.01330778646317815
-0.008294072035767187
-0.01305561636367408
-0.01146930837093847
-0.05714046101152338
-0.01290198658913845
-0.01151624009358202
-0.008690316389160136
-0.01491059191648443
-0.01406543505709375
-0.01574486319462742
-1.38146305113717
-0.09815997150222353
-0.01291481302427397
0.02281330373692238
-0.1661084288788942
-0.0931442082174906
-0.0113372356104045
-0.01407962033736739
-0.2570682219164154
-0.031009561142553
-0.02066695403690512
-0.01091215136121038
-0.01970983635500696
-0.01113766459171604
-0.03068689813317869
-0.4164372943295109
-0.01223616937904525
-0.01409769090184867
-0.004880893366488088
-0.01047816694339359
-0.009443315513161471
-0.01434172071591818
-0.009499475155052995
-0.02616362488639709
-0.01127312074505128
-0.1605363019196554
0.01739699378576399
-0.007768233589294083
0.002951818881466513
0.01293479150564809
-0.04724563982143808
0.03003611931223642
-0.01279897468336794
-0.1362258593465217
0.2819124418251026
-0.007350471145761426
-0.01313026623539529
-0.008426618341881638
-0.03326252907533807
-0.1221424644774847
-0.01315108105697502
-0.01237772276946258
-0.01702385230438552
-0.01361683374562291
-0.04094662852121955
-0.2134949507051253
-0.01150386247835102
-0.04103512606289502
-0.03993768426729872
-0.1652455060860173
-0.1649368517982787
-0.1446955480068257
-0.2589953034345188
-0.006974932787845449
-0.02130184404452413
-0.01449685795873095
-0.01279466740772726
-0.03280759325951163
-0.02438041298741136
-0.01447525920598594
-0.01504862466493057
-1.084204750332245
-0.005101765433823549
-0.01373536670431491
-0.01844586350913767
-0.01860097863972084
0.002933426212110677
-0.01399651349207878
-0.02803983204849496
-0.1663886310153713
-0.01358083954147143
-0.02209509379723491
-0.01392264523477517
0.001768463837113216
-0.1792448639431278
-0.0133822823214315
-0.1429485868112434
-0.01605195992761718
0.009477371075827313
-0.01454185813903722
-0.02308393646088095
-0.01575018801110345
0.005094085917773305
-0.2789027684738545
-0.02549079483119857
-0.01607882264432929
-0.00650758848971463
-0.009389021229176083
-0.03062811347679872
-0.01437753595148122
-0.02042134079846872
-0.02137387237806173
0.01114399995987223
-0.1014083584657371
-0.02216219495991769
0.009201187077326242
-0.05048560538291756
0.1569317095389562
-0.102538099084462
-0.3226337522534856
-0.03035991696040361
-0.02539067081551935
0.1487320547674708
0.08752287930531832
-0.003266796975274455
0.05003426177724866
-0.01571389081698805
-0.01462940629966414
0.002218904460191349
0.01203926305166189
-0.06731553702555385
-0.005493018565763384
-0.05775616911252646
-0.02227589224428016
-0.01570928624411996
-0.03652434171871193
-0.0329196052759461
-0.006644524406868558
-0.01494767433582635
-0.03952369119468938
0.03688385241134815
-0.0388743666215817
-0.01351759860212476
-0.1159234762323377
-0.03196014717415422
-0.03843925158452879
-0.6792841432172657
0.01801613602893204
-0.01105137192900214
-0.005275652769781276
0.1628066407958862
-0.0847079405563308
-0.03495056329076454
-0.2479108952587003
-0.01655074319970087
-0.01661986498408259
0.06065571546621825
-0.1857998639444371
-0.2256152191229838
-0.198479410445077
-0.6883337653130799
0.006708201396792389
-0.01784547863321703
-0.01641758952275033
-0.07938970161643887
0.1175730119935877
-0.02124262570771962
-0.2489293537839964
-0.0349071476672794
-0.006437355098784603
0.2764642159063476
-0.01126651145508523
-0.09422633033301177
-0.1483570304856707
-0.004769112750997393
-0.0403523898573633
-0.04634017945673258
-0.2061410757944382
-0.008920651999439934
-0.04247484648253799
-0.002631576938567518
-0.5526891056449451
-0.2011797606596929
-0.1751133661048574
-0.02272527789779231
-0.00689361344398905
-0.05971671397469757
-0.05846289824694392
-0.01511326965570911
-0.06730680038741245
0.003044370732908363
-0.01839262986763845
-0.09545912340829793
-0.266128890802317
-0.007836870172456604
-0.02624738662816477
-0.02212008084246163
-0.07397903832084618
-0.09146867928457875
-0.08753976418420059
-0.01151099783273041
-0.9291394464481787
0.160377261264647
-0.08005319994630712
-0.2583455398721041
-0.04272282768955293
-0.01036252922086835
-0.2500134823301134
-0.1826321489068409
-0.03356878212216804
-0.1264258239246617
-0.01860152463939063
0.5624278146276376
-0.02379544129035145
-0.2290896588366121
-0.02627004583617493
-0.005244321703055922
-0.01186346663201221
-1.256843836214404
-0.1842357131707614
-0.2349059259146687
0.005421833763256285
-0.03684543442515974
-0.2522375795053554
-0.06520144646010299
-0.05082444870240131
-0.1412303321347832
-0.1933062874528851
-0.06753348941781703
-1.232747669958016
-0.1442182896073999
-0.5181535316749472
0.07838016589987136
-0.007078659726001458
-0.02204838514005088
-0.04231834503452162
-0.04104782347179495
-0.02882959702978825
-0.1321782787231601
0.07954934775044988
-0.003160697551274268
-0.009705241771691162
-0.5817237734519962
-0.866310334747585
-0.1871463871227878
-0.008123143066903982
-0.1366197764646197
0.001082834976218906
-0.0007593544112767034
-0.001914124542886002
-0.05998367139826041
-0.2399932697518301
-0.01344338259017542
-0.1236402927228722
-0.1545974202060149
-0.01323695296693154
-0.03603738663154886
0.02153132115051814
-0.05712481205383205
-0.0694133234663208
-0.5045578398054573
-0.2459462556886594
-0.08127511715541998
-0.07210183291908062
-0.01995557102656544
-0.1220325310213364
-0.1535839562013617
-0.07546309235460434
0.02468544967384878
-0.08403261335807427
-0.04775262407579925
-0.01491947393076416
-0.1084216068254707
-0.2713876241129023
-0.05640838394725312
-0.0185576809154524
0.0009363268119706859
-0.01005536707369151
-0.01116428104398534
-0.2175915787351652
-0.0149819569076322
-0.2234308056973112
-0.01046601757119626
-0.06533118398889386
-0.003583505694105002
-0.02318941511553342
-0.3763304157272861
-0.9059146084212268
-0.01132816311492409
-1.052030577842952
-0.6154877440684394
-0.01074277473746916
-0.6531419642269148
-0.1751283746373375
-0.005628283227532751
-0.1308705595306068
-0.0170875970638751
-0.1210842104224417
-0.0678097507890193
-0.07537998308354023
-0.005212828363635223
-0.002732565917113766
-1.333257211729173
-0.01108189086662986
-0.1870372211244867
0.0005040964269813824
-1.015507527057617
-1.22933871140198
-0.08216872507194198
0.02033151115243256
0.1642624410592581
-0.004768402477383332
-0.02302931186048954
-0.004241473794470828
-0.2533660939195819
0.3662318283908118
-0.04073032526105451
-0.2097827004699278
-0.01493984552088577
-0.6589450866762711
-0.07558506242769976
0.1916451765193378
-0.2835790283184512
-0.0496811332653338
-0.06854927045202185
-0.01587739076004133
-0.02174242680174119
-0.5730703547099156
-0.1441702390091201
-0.08602291878481706
-0.1278738333631586
-0.5583171298207802
-0.04404620936432084
-0.9113015785103009
-0.0004156753620625883
-0.236800358994834
-1.044943363471665
0.1699070515285785
0.2926930606380512
-0.1820718302232286
-0.1942579938652266
-0.2059437874276953
-0.0684564039120126
0.02302932593208968
0.05043094587157573
0.004147679605722365
-0.1655071962453388
0.02522956486368825
-1.351658021983707
-0.08482833778679837
-0.4714119688415669
-0.3284722276116346
-0.2032841173472251
-0.1751972051048873
-0.0169193015594774
-0.01545369270762836
-0.1058591890180086
0.1700847865267796
0.3858932056817372
-0.2203587621322814
-0.1414194747659219
-0.2410657430079451
-0.06228922756540632
-0.1509118594347265
-0.1622364880798543
-0.1251763773286557
-0.1214872915162191
0.4672571322374386
-0.2680308480701301
0.4301006968360891
-0.6015476851211536
0.07008557562508917
-0.2049384912725655
-0.0658252596137331
-0.07344958441572806
-0.875062786912039
-0.2229768050417821
-0.1890845244972748
-0.3452648663384369
-0.4558749818075452
0.5707127275742727
-0.2047663224491021
-0.0002465004098725974
-0.07134494598246501
0.3429012464032257
-0.03801767665861246
-0.1290407813794683
-0.1781817810883423
-0.06372817642752771
-0.01651908963687398
-0.1932017974628448
0.1921397557457402
-0.01277231971595911
-0.09581038283364671
-0.167429298394602
-0.3125438209253084
-0.314669535055073
-0.06514906193440202
-0.01027022305713327
-0.07654026169965769
-0.6577409716058722
-0.6665999087497766
-0.3392791087542658
-0.057446216199355
-0.05241193912065678
-0.0255094906052263
-0.06716140535745031
-0.05838176092885172
-0.3572853445522409
-0.9535893407495922
-0.01010148656023393
-0.08250304119870981
-1.133682329538885
-1.02800382232737
-0.1033604146544798
-0.03799036625429587
-0.07041772846241748
0.3912951326543083
-0.3458167640865586
-0.05094983138219732
-0.5959139123070439
-0.1233203132076657
-0.2543299950591127
-0.208799209849233
0.4744650678967657
-0.6250860080104556
0.07222978181409377
-0.02964169570562293
-0.5553490517091005
-0.05097027224246733
-0.3591216927225922
0.106042253985247
-0.1892894254711925
-0.05952738658204633
-0.1373983102266007
-0.3642150701166785
-0.08953921459695723
0.5137729121775302
0.0849486122991011
0.471444164160806
-0.1099281683819585
-0.1985677193193394
-0.5238566155605069
-0.1294324320236822
0.0273412871406229
-0.0531639824154355
0.1035527629232775
-0.3096712325099693
0.2361560130240435
0.009339325318409088
-0.00329439134814929
-0.5156194409936455
-0.1866666567044158
-0.08566396583115485
0.5813780915670527
0.1381222012440941
0.3468794861956502
0.2258473154956837
-0.5587068833373857
-0.2094427459138032
-0.2199639870135005
-0.2387315518062809
-0.05994870864953739
-0.6971662058558885
-0.1954754102570708
0.3066750476778936
-0.2068740686389943
-0.01111715845936699
-0.1732971501209967
-0.009046388902454679
-0.1570489209628429
-0.4327733512185482
-0.07693409426705761
-0.1965062921224975
-0.07166942860082572
-0.09073602522721891
-0.1452796679026397
-0.07363021915827435
-0.4563330770677738
-0.4171688548458453
-0.02700103254738244
-0.07377095448650968
0.3260563543890875
-0.2455868732012662
-0.185279204498274
0.5260039798595698
-0.2081083689476556
0.01702795537596341
-0.4472298286610076
0.04519509974670415
-0.06262727825326792
-0.1522913795620932
-0.5800081292496073
0.1627114122991099
-0.5832335429170818
-0.5316015524370462
-0.1069556979168948
-0.5046742444146294
-0.03749605251372411
-0.1408849534480191
-0.4077055274623365
-0.01635018128755207
0.2859881713454609
0.4893778616555083
-0.1577288105374844
-0.008741319681362948
-0.07088601341004303
0.5253857338600774
-0.03355241809938673
-0.4366256183948038
-0.03283552354660028
0.460098804918236
-0.01432997592252204
-0.5406961117827737
-0.2443115422633821
0.1752522460109304
-0.3083938938583003
-0.1773827969944336
0.05254482030169597
0.03406985713206088
0.05377963993418578
-0.2972489964329489
-0.1568534899194294
0.4127290969775029
)
;

boundaryField
{
    FrontBack
    {
        type            empty;
    }
    Top
    {
        type            zeroGradient;
    }
    In
    {
        type            zeroGradient;
    }
    Bottom
    {
        type            zeroGradient;
    }
    Out
    {
        type            fixedValue;
        value           uniform 0;
    }
    circle
    {
        type            zeroGradient;
    }
}


// ************************************************************************* //
