/*--------------------------------*- C++ -*----------------------------------*\
| =========                 |                                                 |
| \\      /  F ield         | OpenFOAM: The Open Source CFD Toolbox           |
|  \\    /   O peration     | Version:  2412                                  |
|   \\  /    A nd           | Website:  www.openfoam.com                      |
|    \\/     M anipulation  |                                                 |
\*---------------------------------------------------------------------------*/
FoamFile
{
    version     2.0;
    format      ascii;
    arch        "LSB;label=32;scalar=64";
    class       volScalarField;
    location    "27";
    object      p;
}
// * * * * * * * * * * * * * * * * * * * * * * * * * * * * * * * * * * * * * //

dimensions      [0 2 -2 0 0 0 0];

internalField   nonuniform List<scalar> 
808
(
0.12133
0.019767
0.0462116
0.121429
-0.203888
0.0165209
0.00500851
0.0329249
-0.114381
-0.0276316
0.0375118
-0.126903
0.0310746
0.0137171
-0.218752
0.024267
-0.220927
0.0162977
0.0349065
0.00766634
0.0454031
0.393994
0.0827801
1.34718e-05
0.47072
-0.138665
-0.0494801
0.00739922
0.0121987
0.0179937
0.0104255
0.0183384
0.0237681
0.00579597
-0.0886259
0.639376
0.0190705
0.0224244
0.0235223
0.0220806
-0.0575499
-0.0513378
0.0443216
0.0273812
-0.133907
0.0998753
0.0219166
0.0220534
0.0209312
-0.155687
0.00655727
0.0184555
0.0543383
0.00353146
-0.0723511
0.0184057
0.0106037
0.0442894
-0.020734
0.0120812
-0.271575
0.0116756
0.0406387
-0.190387
0.0353664
0.0554239
-0.267414
0.0278042
0.0297823
-0.252049
0.027174
-0.280102
0.0253431
0.0222743
0.197738
0.0214046
-0.00764451
-0.0517227
0.0129653
0.32879
-0.0952462
0.0191227
0.0369616
0.281746
0.0239503
-0.0254115
-0.323763
-0.0922562
0.0307142
-0.155612
0.0397121
-0.0967929
0.267896
0.170942
0.0511087
-0.29835
0.0284319
-0.0886826
-0.108053
-0.254566
0.0153973
0.00179261
0.0415579
-0.0203791
-0.121777
0.0686768
-0.138398
-0.00938783
0.0160489
0.0404734
-0.0677489
0.348732
0.023396
0.0176768
0.0242676
0.464965
0.0157912
-0.238051
0.0245062
0.0584231
-0.321802
0.0437544
0.0171762
0.0598955
0.125538
-0.0366577
0.111341
0.0626374
0.0323325
0.0778728
-0.294082
0.0341982
-0.0523696
0.140118
0.0280972
0.0145442
0.00721615
-0.0063732
0.0238144
0.00993906
-0.26845
0.0501233
0.0392506
0.0256651
-0.0144319
-0.0171493
0.0987643
0.161859
-0.140167
-0.0201834
0.0241399
0.358998
0.0321309
0.550021
-0.258409
-0.078543
0.0188867
-0.157776
0.0155288
-0.0955672
-0.271487
-0.26779
-0.274509
0.0217233
0.070889
0.0292677
0.0240069
-0.279951
0.0198518
0.0412614
0.0416722
0.173138
-0.0295771
0.134039
0.0199532
0.0728974
0.0811665
-0.147569
0.0264379
-0.303891
0.0385832
-0.122273
0.0193584
0.272394
-0.180424
0.128503
0.0295184
-0.164437
0.0344
-0.112306
-0.250503
-0.0762953
0.0240786
0.0857829
0.0190593
-0.24935
0.02194
0.0373415
0.0112947
0.0926677
0.0681291
0.0352785
0.0254854
-0.272431
0.389535
-0.254521
-0.271514
0.00963332
0.0572762
0.0240897
0.0194409
-0.349452
-0.321307
0.0199716
0.0391846
0.0215194
-0.285967
-0.0212317
0.0292286
0.0425557
0.0200705
-0.0715427
0.032624
0.0330051
0.00521286
0.025728
0.137266
-0.352503
0.0349702
0.0126049
0.129538
0.0158137
0.0181286
0.00976856
-0.0731291
0.0511033
0.0156258
0.00793841
0.0226531
0.02134
0.0129754
0.0064047
-9.91538e-05
0.00961787
0.00199761
-0.000494506
0.00123682
0.00586035
-0.00325344
-0.00915833
-0.278936
0.00115273
-0.0210498
-0.142021
-0.00275764
0.0181559
0.0252232
0.000107877
0.0245965
0.141669
0.00738619
0.0120341
0.0136261
0.0926237
0.0348519
0.0120114
0.00344712
0.0168971
0.0139746
0.0281346
0.0419459
-0.344556
0.291454
0.0111661
-0.0615847
0.0211055
0.0125012
0.0132145
-0.268443
0.288571
0.0220947
0.0658964
0.0173157
0.0882771
-0.144753
0.0148949
-0.0141215
0.0275514
-0.0108304
0.00127582
0.0250079
0.0245967
0.0288766
0.0379594
0.0119257
0.0176689
0.0568065
0.0700461
-0.00839987
-0.00527495
0.0149998
0.0145043
0.0406099
0.0209602
-0.463245
-0.0761484
0.0540817
0.0010898
-0.17358
-0.164475
-0.0124312
0.0191585
-0.276423
0.132772
0.163209
0.0234914
0.0193838
0.0294075
0.00441101
-0.19275
0.0236873
-0.000571812
0.0274088
0.00415234
-0.00488714
0.0272351
0.0402348
-0.00410274
-0.00110242
-0.260163
0.0200185
0.036623
0.0995172
0.100477
0.0190005
0.245933
-0.013549
-0.16316
0.560438
0.0901146
0.0049924
0.0268284
-0.0588252
-0.0332563
0.063228
0.0276497
-0.0183845
0.0194649
-0.0378906
-0.227397
0.0683983
0.118474
-0.0370026
-0.252447
-0.277227
-0.332091
-0.27738
0.0608362
0.0261039
0.0136605
-0.0480468
-0.0333217
0.00732005
0.0198446
-0.000187436
-0.456363
0.0799206
0.0252621
0.0338011
-0.342957
0.0640447
-0.0128526
0.116393
-0.295764
0.0868981
-0.00574396
0.0922254
0.0686788
-0.263791
0.0360888
-0.284874
0.0161699
0.047982
0.0356368
0.0156372
0.0241067
-0.138921
-0.291567
0.00908089
0.0023609
-0.144928
0.00883133
0.00643364
0.0278154
-0.0199477
0.00874651
-0.198921
0.0432598
0.0285106
0.0185247
-0.402766
-0.134699
0.0746627
0.011125
-0.119975
-0.0408518
0.436273
-0.241135
0.0177991
-0.0863742
0.02835
0.0458391
0.0234718
0.00541282
-0.00149883
0.081334
-0.0587102
-0.00514947
-0.00477352
-0.00697119
-0.0108233
-0.0100948
0.0303715
0.120096
-0.0947779
0.0218137
0.00751445
0.0345252
-0.0395749
0.0324536
-0.338846
-0.142194
0.0093368
0.0168959
-0.156438
-0.327185
-0.0135828
-0.0656775
0.00347398
0.0254187
-0.107268
-0.221709
0.255345
-0.264591
-0.408184
-0.285349
-0.0378255
-0.0394678
-0.35822
0.363892
-0.061905
-0.274596
0.0145362
0.0666963
0.582869
0.00602734
0.0155262
0.062537
-0.0962756
-0.00326684
-0.224351
-0.246902
0.0205618
0.0670748
-0.0153007
-0.23068
-0.264535
-0.187733
0.0174071
0.0279537
0.104316
-0.0132962
-0.0633413
0.0909144
-0.069264
0.0258201
-0.196147
-0.284639
-0.0453838
-0.0577498
0.0227787
0.0216791
0.0823067
-0.0332074
0.00330837
-0.410539
0.464615
-0.308882
-0.265257
-0.0261458
0.00114415
-0.261951
-0.249392
0.124785
-0.28702
-0.15037
0.876531
0.0223476
-0.30286
0.0128616
-0.0411442
0.0425107
-0.417131
-0.256236
-0.266777
-0.00907827
-0.24831
-0.307858
0.00337983
-0.00898149
0.120722
-0.263108
0.0434283
-0.450237
-0.301797
-0.362868
-0.0609752
0.0208766
0.0217927
0.117942
0.133263
-0.0192836
-0.260555
0.315939
0.0220264
-0.00282199
-0.384247
-0.445902
-0.280946
0.0634236
-0.297884
0.018825
-0.00354486
-0.0490082
-0.250571
-0.200992
0.0222712
-0.271788
-0.258644
0.0126444
0.00104797
-0.117516
0.004867
0.0490658
-0.332977
-0.290976
-0.106271
0.114469
0.0258794
-0.284201
-0.264238
-0.377729
-0.139792
0.0556468
0.113964
0.00383685
-0.369133
-0.278222
0.117211
0.0216771
-0.103828
0.0355183
0.0253323
-0.310192
0.0429262
-0.238234
0.0278916
-0.204317
0.0275127
0.000740312
-0.342057
-0.429536
0.000946814
-0.430474
-0.40899
0.0348087
-0.0403835
-0.253176
-0.0215798
-0.266176
0.0372727
0.0973956
0.0667053
-0.181054
-0.00337836
0.049283
-0.418041
0.0118411
-0.279333
0.0205417
-0.285467
-0.480018
0.11071
0.292856
0.45763
0.0297145
0.00279751
0.00161972
-0.288656
0.662306
0.0266728
-0.179507
0.0242408
-0.0503253
0.089816
0.505308
-0.347646
-0.0277017
-0.0236708
0.0293763
0.0146559
-0.426214
-0.254368
-0.295909
-0.255005
-0.246777
0.00999437
-0.326275
0.0572281
-0.23932
-0.277943
0.538283
0.611823
-0.273169
0.128249
-0.25683
-0.0172611
0.0368425
0.433791
0.01126
-0.274642
0.103939
-0.476521
-0.00618456
-0.172319
0.00417027
-0.293979
-0.248007
0.00153234
0.00493151
-0.274049
0.459072
0.694727
-0.286976
-0.273673
-0.281822
-0.0365231
-0.283855
-0.256209
-0.142044
-0.274381
0.777656
-0.318358
0.755099
-0.367932
0.342109
-0.268354
0.0178363
0.195522
-0.471649
0.234509
-0.239648
-0.286512
-0.31349
0.889804
-0.257315
0.220211
0.160298
0.656184
0.132737
-0.270036
-0.258342
-0.19265
0.0169942
0.11322
0.531087
0.0163663
-0.00379016
-0.25971
0.148027
-0.100612
-0.384028
0.0378031
-0.21728
-0.137569
-0.123921
-0.317352
0.0163065
0.111008
0.0107426
0.0920695
0.120319
-0.310402
-0.323487
0.0325109
0.0286546
-0.432282
-0.481375
0.203616
0.212297
0.0956612
0.692334
-0.0596549
-0.166869
-0.352023
-0.277903
-0.0405917
0.105889
0.782638
-0.420248
0.388019
0.00344198
-0.399238
0.170988
-0.046262
0.397937
-0.127635
0.0281535
-0.279839
-0.0601578
0.207541
0.826374
0.347587
0.781591
-0.318265
-0.279802
-0.368844
0.190901
0.286364
0.0766187
0.404233
0.148877
0.513689
0.298853
0.0475781
-0.163399
0.0385647
-0.238302
0.900336
0.426249
0.674662
0.528792
-0.235553
-0.298086
-0.257759
-0.266939
0.062288
-0.371278
0.117191
0.617677
-0.310494
0.0115049
-0.267549
0.203896
-0.308984
-0.342609
-0.172943
-0.263119
-0.272647
-0.29795
-0.289018
-0.134058
-0.366627
-0.112331
-0.135493
0.166021
0.66622
-0.190877
-0.267436
0.848332
-0.268309
0.300428
-0.208755
0.398786
0.0955543
-0.312806
-0.368221
0.469441
-0.248397
-0.292589
0.203445
-0.245513
-0.013641
-0.272942
-0.0898564
0.0419203
0.583934
0.79587
-0.268025
0.239315
-0.276643
0.839209
-0.00116634
-0.285696
-0.0155582
0.777217
0.22539
-0.292959
-0.255769
0.468114
-0.185451
0.0587983
0.376592
0.271877
0.309719
-0.223719
-0.269459
0.705173
)
;

boundaryField
{
    FrontBack
    {
        type            empty;
    }
    Top
    {
        type            zeroGradient;
    }
    In
    {
        type            zeroGradient;
    }
    Bottom
    {
        type            zeroGradient;
    }
    Out
    {
        type            fixedValue;
        value           uniform 0;
    }
    circle
    {
        type            zeroGradient;
    }
}


// ************************************************************************* //
