/*--------------------------------*- C++ -*----------------------------------*\
| =========                 |                                                 |
| \\      /  F ield         | OpenFOAM: The Open Source CFD Toolbox           |
|  \\    /   O peration     | Version:  2412                                  |
|   \\  /    A nd           | Website:  www.openfoam.com                      |
|    \\/     M anipulation  |                                                 |
\*---------------------------------------------------------------------------*/
FoamFile
{
    version     2.0;
    format      ascii;
    arch        "LSB;label=32;scalar=64";
    class       surfaceScalarField;
    location    "27";
    object      phi;
}
// * * * * * * * * * * * * * * * * * * * * * * * * * * * * * * * * * * * * * //

dimensions      [0 3 -1 0 0 0 0];

oriented        oriented;

internalField   nonuniform List<scalar> 
1171
(
-0.945436
0.945436
0.780979
-1.09193
0.310954
-0.295416
-0.708707
1.00412
0.0545635
-0.0655644
-0.27939
0.344954
-0.780979
0.0919576
0.689021
0.94175
-0.215414
-0.726336
0.846934
-1.06432
0.21739
-0.359894
-0.0371843
0.397078
-0.00533465
0.609904
-0.604569
-0.50006
0.910341
-0.41028
-0.425459
1.02756
-0.180624
0.235885
0.0911551
-0.32704
0.988475
0.0390823
0.255179
-0.0192942
1.03073
-0.042251
0.634916
-0.930332
-0.787325
0.608226
0.179099
0.295364
-0.795424
0.557609
-0.913803
0.356194
-1.08012
0.672159
0.407961
-0.644428
0.639093
0.0296329
-0.248408
0.218775
0.0375727
-0.627002
0.589429
0.468504
-0.505689
-0.829333
0.872815
-0.0434812
0.992409
0.0383177
0.908982
-1.0638
0.154821
1.01919
-0.0267824
-0.701743
-0.0855819
1.26772
-0.847718
-0.419998
0.189858
-0.0814227
-0.414233
0.495656
-0.273075
0.186988
0.0860866
-0.607512
-0.484421
0.973161
-0.0641783
-0.0239995
0.886358
-0.862359
0.522985
0.744731
0.528481
0.0217319
0.446772
-0.793412
-0.104908
0.89832
0.577958
0.23451
-0.812467
0.0753356
0.554271
-0.629607
-0.509802
-0.570317
-0.38104
-0.682763
0.0283411
0.246716
-0.275057
-0.954115
-0.028542
0.982657
0.3788
0.0182781
0.837831
0.103919
-0.603248
-0.0411795
0.0335716
-0.826983
0.111907
0.916994
-1.0289
-0.403007
0.0274103
0.375597
-0.710231
-0.243884
-0.711356
0.823264
0.701552
0.208789
-0.582837
0.992039
-0.816376
-0.175663
-0.126901
-0.00562454
0.132526
-0.461011
-0.0446774
-0.278086
0.979638
-0.00764325
0.439649
-0.432006
-0.487307
1.06526
0.716191
-0.821099
0.402917
-0.0800243
-0.322893
0.770623
-0.770623
-0.897587
0.0393247
-0.318715
-0.702049
0.678049
-0.0321278
-0.145304
0.177431
0.899077
-0.0127185
1.04292
-0.808408
0.22635
-0.322611
0.0962602
0.970545
-0.132714
-0.674352
-0.0454554
0.719807
0.147627
-0.229721
0.0820945
0.799306
-1.01472
-0.439015
0.309423
0.129592
0.668613
-0.63104
0.8714
-0.394767
-0.476633
0.49036
-0.694135
0.0351181
0.659017
0.158078
0.659902
0.0512036
-0.711106
0.135366
-0.0960412
-0.509392
0.106385
0.03489
-0.90136
0.86647
-0.535847
-0.760579
0.0588362
0.503368
-0.056596
0.276259
-0.83392
0.557661
0.424509
0.575491
0.596698
-0.563127
-0.395274
-0.0225842
0.417858
0.544863
0.22576
-0.653358
0.728693
0.0891356
0.891264
0.00412439
-0.678476
-0.764985
0.799875
0.614447
0.0933369
0.368507
-0.461844
-0.154824
0.521511
0.0327602
0.863483
-0.683049
-0.180434
0.656978
0.33506
-0.43267
0.684668
-0.591331
0.409382
0.148227
-0.0532527
-0.762028
-0.155842
0.91787
-0.125442
-0.645181
-0.61286
0.361532
0.251328
0.658215
-0.65409
0.312826
1.02172
0.0212021
-0.764985
-0.118039
-0.00886262
0.716191
0.783844
-0.783844
0.842524
-0.828452
-0.0140723
-0.453759
0.878268
-0.191376
-0.318016
0.764656
-0.670872
-0.0937841
-0.853064
0.0910357
0.110992
-0.71424
0.821099
-0.975924
-0.196665
0.204722
-0.00805678
0.119925
-1.00072
0.880794
0.549985
-0.0215043
-0.28912
0.594487
-0.305367
-0.660365
0.78029
-0.158161
0.661385
-0.915785
0.2544
1.17767
-0.749601
-0.428068
0.730591
-0.0702503
0.00470845
-0.00311586
-0.00159259
-0.801759
-0.939763
0.231056
-0.702049
0.572552
-0.545142
0.120376
0.677389
-0.797765
0.779057
0.166379
0.490971
0.509029
-0.0198301
-0.694079
0.713909
0.861827
0.00165609
-0.730591
0.799875
0.181687
-0.430096
-0.0393009
0.026313
0.012988
0.668158
-0.430043
-0.238115
0.689021
-0.0401777
-0.278378
0.556936
0.111222
-0.0204887
0.000310107
0.0201786
0.0067916
-0.00208314
0.132878
-0.212902
-0.942004
0.0209964
-0.142129
-0.0637873
0.120299
0.787178
0.741571
-0.16608
0.571884
-0.451508
-0.162859
0.389209
0.639163
0.0498583
0.230649
-1.0591
-0.975924
0.322204
0.678049
-0.16167
0.0163663
-0.808174
1.03094
-0.222764
0.478246
-0.102649
0.79622
0.305865
0.230701
0.0244779
-0.680701
0.680701
0.224853
0.673467
-0.0228789
0.462528
0.472777
-0.0095766
-0.0297243
0.540128
0.00985753
-0.660365
0.57111
0.193546
0.00104799
-0.00416385
-0.639163
0.18353
0.847408
0.0399448
-0.73398
0.694035
0.759535
-0.820916
0.0613818
-0.779057
-0.0318659
0.0452214
-0.0133554
0.0861966
-0.122871
-0.103137
0.226008
-0.00638819
-0.0141005
0.788319
-0.748374
0.88913
0.114993
-0.385662
-0.497785
0.883447
-0.00195588
0.00195588
0.182138
0.417527
0.570581
-0.988108
-0.201416
-0.553839
0.755256
-0.020988
0.198419
0.380291
-0.232664
0.968473
-0.550946
0.756874
0.936577
-0.365996
0.188915
0.78029
0.599667
0.237588
0.635227
-0.645181
0.319299
-0.0633806
0.00994072
0.0534399
0.940509
-0.126674
-0.813835
-0.557416
0.530633
0.546241
-0.557416
-0.599667
0.530633
0.015255
0.882979
0.00615058
-0.544863
0.457866
0.0869973
0.52561
0.628971
-1.15458
0.549878
0.418596
0.59689
0.558874
-1.15576
0.541804
0.394773
0.457866
-0.523756
-0.470146
-0.701601
-0.663748
-0.238395
-0.00672254
0.00672254
0.707523
0.506931
-1.17068
0.719622
-0.351115
-1.12326
0.373659
-0.684563
0.440679
-0.0382079
-1.00051
1.03872
0.452451
-0.0252964
0.965806
-1.09702
-1.04909
0.0819615
0.967132
0.172363
-0.19358
0.0212169
0.718673
-0.782851
0.956037
-1.02844
0.0724022
0.0675239
-0.750573
-0.171344
0.947726
-0.776383
-0.951774
1.0193
-0.73373
0.502794
0.230936
-0.672173
0.00707173
0.665101
0.00309583
-0.0050517
0.424486
0.140981
-0.980024
0.839043
-0.779195
0.759365
1.1071
0.0291731
-1.13627
0.058007
-0.0132453
0.431103
-0.361682
0.0390715
0.959211
-0.997419
-0.557179
-0.625479
-0.125094
-0.172568
-0.971853
-0.0565866
0.479329
0.0925541
-0.213098
0.385462
-0.646604
0.653676
0.476633
-1.02581
-0.922601
-0.0396217
-0.176671
0.679277
-0.502606
0.066864
-0.73385
0.57811
0.181424
-0.0326733
0.998479
1.10126
0.941706
-0.998293
0.0460837
-0.0460837
-0.0741042
-0.0665702
-0.12701
0.34287
-0.0206657
0.190524
1.06534
0.0184193
-0.0248075
0.657349
0.342651
0.796836
-0.607512
-0.75855
-0.629281
-0.487152
0.487152
-0.20975
-0.108965
0.636292
-0.961543
0.325251
-0.460377
-0.553203
0.343092
-1.02585
-0.985851
1.05825
-0.733167
0.608073
0.665367
0.209532
-0.874898
-0.398345
-0.183157
0.865506
-0.682349
-0.0794914
0.0134559
0.00167522
-0.0151311
0.0482565
-0.114827
0.979384
0.49683
-0.229578
-0.267253
0.518047
0.751231
-0.526379
0.0145546
-0.28763
0.0813159
0.727234
-0.80855
-0.360488
-0.050502
0.142509
-1.01539
0.201552
-0.752011
0.132097
0.737411
-0.869508
-0.92614
0.174129
0.729943
-0.780445
0.230737
-0.353608
-0.477709
0.079364
0.368466
0.717162
-0.0324939
-0.00428809
0.00428809
-0.00641243
-0.0277961
-0.0355846
-0.0174191
0.0358384
-0.385155
0.345237
0.739509
-0.84133
0.10182
-0.737279
0.869377
0.804979
-0.0750362
-0.734629
-0.191511
-1.16198
0.0211099
0.0249737
-0.303839
-0.905973
-0.839995
0.419997
-0.241354
0.330894
-0.0895395
-0.41708
0.113241
0.495831
0.711912
-0.0436949
-0.0200924
0.936023
0.515803
0.16834
-0.684143
-0.289307
-0.127773
-0.00109379
0.0145497
0.76136
-0.917202
0.00546921
-0.00546921
-0.702851
0.767286
-0.0644353
-0.502405
-0.121322
-0.703765
0.0374641
0.676445
-0.0528539
-0.886922
-0.233018
0.32143
-0.0884113
0.805533
-0.703713
0.349503
0.249751
-0.599254
-0.144612
-0.730338
-0.13917
-0.187048
-0.195554
0.471845
-0.516523
0.149916
0.758204
-0.90812
0.49036
-0.228461
-0.0128934
-0.154269
-0.041285
0.593152
-0.0923658
-0.500786
-0.287057
0.308261
-0.0212048
0.548536
0.171086
0.0746408
-0.313946
0.171968
0.141978
-0.00631338
-0.111725
-0.332501
0.160583
0.0401549
-0.200738
0.958426
-0.310723
-0.191682
0.553511
0.326419
-0.555997
0.402085
-0.402085
-0.196612
-0.390704
-0.207919
-0.390704
-0.716277
-0.85168
0.180809
-0.437733
0.748746
0.0480106
0.155125
0.562038
0.108679
0.118498
0.0106361
-0.129134
-0.116303
0.709331
-1.03879
0.541007
0.0118153
0.0486384
-0.0604536
-0.757385
-0.178743
-0.543715
0.712055
-0.529661
0.0101466
-0.0514316
-0.343558
-0.0796682
0.0796682
0.0470149
-0.00179347
0.139608
0.219169
-0.70366
0.159945
0.021756
0.473337
0.526663
0.834006
0.0122214
0.0345676
-0.046789
-0.297725
-0.589197
-0.513186
0.115857
-0.120393
0.00453643
-0.156128
-0.410382
-0.0967266
0.773171
-0.595351
-0.162034
0.00452205
-0.0085286
0.141488
-0.338267
-0.199114
-0.185966
-0.0269368
-0.470868
0.424625
0.0462429
0.0101088
0.295223
-0.86554
-0.532007
0.656868
-0.878503
0.73389
0.449283
-0.0340403
0.0593341
-0.0252938
0.165664
-0.633403
-0.0083145
0.641718
-0.892721
0.648504
-0.722608
0.0194614
0.0066155
-0.0066155
-0.299391
0.43822
-0.00711696
-0.0136799
0.0259013
0.581953
0.447101
-0.627535
0.0126331
0.000114527
-0.00440262
0.0047609
-0.0047609
-0.467638
0.638725
0.0158103
-0.0158103
-0.782147
-0.00770422
0.0108001
-0.473935
0.63388
0.526645
-0.59108
0.0694411
-0.0694411
0.023918
-0.0536424
0.0124537
-1.10292
0.674848
-0.557178
-0.0050517
0.607206
0.00266637
-0.609872
-0.709371
0.11402
-0.31462
-0.0125268
0.327146
-0.0200781
-0.0236168
-0.607145
-0.0262581
0.0249737
0.00562875
-0.000159547
-0.00263131
0.00263131
-0.383959
0.183221
-0.467441
0.13362
0.663215
-0.122105
0.00596331
-0.00596331
0.508455
0.0471949
0.00857137
0.0183582
-0.000290797
0.656278
-0.609083
-0.822532
0.63085
-0.118958
0.331105
0.802738
-0.00641243
-0.0924571
0.0882932
-0.646982
0.544144
-0.223999
-0.102165
-0.0290345
-0.026304
0.0171485
0.482634
-0.086431
-0.414355
0.721172
0.00196164
0.00359413
-0.00359413
-0.235578
-0.16479
-0.569438
0.617448
-0.137177
0.508056
-0.196533
0.831449
0.88346
0.00562875
-0.710127
0.605081
-0.00380683
-0.00249924
0.00630607
0.640959
0.0964478
-0.0120927
0.0672414
-0.0551488
0.00946134
-0.00946134
-0.749815
0.0233574
-0.0435663
0.0619245
-0.0855702
0.0855702
0.000114527
-0.000449115
0.780029
0.0673791
-0.315899
-0.0944828
-0.520694
0.000715224
-0.0665281
0.0665281
-0.0228709
0.0817662
-0.0817662
0.0269327
-0.0269327
-0.358513
-0.0741569
0.238502
0.0709216
0.0557805
-0.731675
-0.0605581
0.159359
0.0223289
-0.240131
0.0817998
-0.0817998
-0.467786
-0.048737
0.227948
-0.00917284
0.00299744
-0.666425
0.65117
0.0446591
-0.06753
0.00584409
-0.0594865
-0.0123252
-0.157859
0.170184
-0.14795
-0.205657
-0.0808272
0.0808272
0.053896
-0.053896
-0.0274573
-0.0936599
0.121117
-0.0278228
-0.190797
0.00249804
-0.00690065
-0.198858
0.382079
-0.0257722
0.435022
0.00956885
0.0106098
-0.0510972
0.0510972
-0.730923
0.315607
-0.126693
-0.207202
-0.0225191
-0.0182264
0.0212239
0.192504
0.0335039
-0.00284618
0.00255539
0.0858879
0.0299688
0.0565258
0.102833
-0.0297222
0.00962981
-0.00187507
0.00611618
0.00422948
0.00121163
-0.00544111
-0.00347961
0.0115305
0.0270877
-0.0270877
0.049015
-0.0436144
0.0436144
-0.189714
0.016726
0.0318454
-0.076118
0.0174714
0.0781196
-0.0781196
0.238747
-0.236113
0.0881621
-0.0662642
-0.169848
-0.0146312
0.0146312
0.408322
0.250694
-0.521372
-0.0804195
-0.0399736
0.541943
-0.0219787
-0.0589532
-0.470073
0.101763
-0.151223
0.168584
-0.0173612
-0.0481508
0.0481508
0.904501
-0.588414
-0.00400419
0.000524582
-0.00590203
-0.287708
3.35728e-05
0.00474297
-0.0441919
-0.628544
0.569431
-0.654489
0.0142991
0.120975
0.0154309
0.0241644
-0.157125
-0.333012
0.256894
-0.0542656
0.0268082
0.173556
0.134706
0.191239
0.262632
-0.247201
0.00406993
-0.114152
-0.219729
0.0667221
-0.0101963
0.160104
-0.13594
-0.0683776
0.154266
-0.404738
0.121413
-0.103942
0.0590052
-0.473361
0.173327
0.18017
-0.248547
0.0086843
-0.17903
0.179064
0.00368015
0.150585
-0.0278041
0.048063
0.460392
0.0124565
0.016863
0.000380965
0.0356205
-0.23709
-0.20342
0.589385
0.166169
0.0617796
0.0739019
-0.0644076
0.0783782
-0.0720721
-0.0304415
0.165107
-0.150808
0.0340115
-0.0109048
-0.105776
-0.0284445
0.0436413
0.252294
-0.0207901
0.0188917
-0.308306
-0.00689083
0.219241
0.1395
0.176107
0.0561625
0.095345
0.0551101
0.526843
-0.00731618
0.106569
0.0406378
0.0677777
-0.108416
-0.270677
-0.195663
0.0258142
-0.221066
0.282492
)
;

boundaryField
{
    FrontBack
    {
        type            empty;
    }
    Top
    {
        type            calculated;
        value           uniform 0;
    }
    In
    {
        type            calculated;
        value           uniform -1;
    }
    Bottom
    {
        type            calculated;
        value           uniform 0;
    }
    Out
    {
        type            calculated;
        value           nonuniform List<scalar> 10(1.14677 1.04937 1.17175 0.9604 1.18785 1.05852 1.21445 1.01358 0.598697 0.598623);
    }
    circle
    {
        type            calculated;
        value           uniform 0;
    }
}


// ************************************************************************* //
