/*--------------------------------*- C++ -*----------------------------------*\
| =========                 |                                                 |
| \\      /  F ield         | OpenFOAM: The Open Source CFD Toolbox           |
|  \\    /   O peration     | Version:  2412                                  |
|   \\  /    A nd           | Website:  www.openfoam.com                      |
|    \\/     M anipulation  |                                                 |
\*---------------------------------------------------------------------------*/
FoamFile
{
    version     2.0;
    format      ascii;
    arch        "LSB;label=32;scalar=64";
    class       volVectorField;
    location    "27";
    object      U;
}
// * * * * * * * * * * * * * * * * * * * * * * * * * * * * * * * * * * * * * //

dimensions      [0 1 -1 0 0 0 0];

internalField   nonuniform List<vector> 
808
(
(0.895719 -0.0102822 0)
(1.0231 -0.033384 0)
(1.18997 0.106758 0)
(1.06782 0.0103799 -2.56839e-21)
(1.48033 -0.295276 0)
(0.956939 -0.0278828 0)
(1.15268 -0.055361 -1.24943e-21)
(1.14955 -0.036104 0)
(1.36077 -0.233293 2.30409e-20)
(1.23846 -0.0938066 -6.78476e-21)
(1.10066 -0.0680642 8.04999e-21)
(1.38726 -0.265389 0)
(1.01506 -0.0448959 0)
(0.750137 -0.0258613 0)
(0.904873 0.0427735 1.51772e-20)
(1.10325 -0.0451345 0)
(0.790394 -0.00209512 -4.41057e-21)
(1.00887 -0.0480019 -7.98743e-23)
(1.12617 0.065855 0)
(1.11894 0.0030906 0)
(1.15183 -0.0848672 -1.12352e-20)
(0.930708 0.122704 1.14808e-19)
(1.07452 0.0132369 -1.52494e-20)
(1.17667 -0.0254885 0)
(0.947799 0.177114 0)
(1.31279 0.0569769 -2.43973e-20)
(1.28533 -0.178478 5.11889e-21)
(0.946258 -0.0257309 -2.92441e-21)
(1.09476 -0.0336846 0)
(1.03749 0.0442307 -3.44156e-22)
(0.98305 -0.0318307 3.18439e-24)
(1.12527 -0.00963019 0)
(1.05285 0.017332 0)
(1.06862 -0.0269833 2.13291e-21)
(1.31248 -0.0691345 8.20215e-21)
(0.740961 -0.120827 1.13247e-19)
(0.882242 -0.0319027 -8.04846e-21)
(1.02478 0.0204192 1.2296e-21)
(1.2056 0.0447417 -3.26426e-21)
(1.09474 0.0131284 0)
(1.26944 -0.0568888 -1.55031e-20)
(1.28076 -0.132515 0)
(1.01243 0.00361696 -9.31238e-21)
(1.10675 -0.0482106 9.23294e-21)
(1.17581 0.0372189 0)
(1.01047 0.0164854 -2.1687e-20)
(0.997531 0.0312028 1.86134e-21)
(1.25713 -0.255642 -8.05551e-22)
(1.17465 0.0388195 -6.79507e-21)
(1.41723 -0.189052 -3.32876e-20)
(1.13824 -0.0683151 2.99111e-21)
(1.14989 -0.0738662 0)
(1.12065 -0.000561151 8.31484e-21)
(1.11361 -0.0117263 0)
(1.30824 0.231971 3.65658e-21)
(1.0676 0.03266 -2.62793e-21)
(1.17831 -0.014176 0)
(1.12709 0.0195974 6.24605e-21)
(1.24165 -0.0935553 7.28287e-21)
(1.13479 0.0327391 -3.55728e-22)
(-0.343879 0.126923 0)
(1.21834 -0.219194 -4.20611e-21)
(1.13498 0.00564194 0)
(1.45044 -0.0704625 -2.85226e-20)
(1.09728 -0.0398984 -1.09078e-20)
(1.04457 -0.029418 -9.26249e-21)
(1.37777 -0.148147 3.16708e-20)
(0.656471 0.0171666 0)
(1.10461 -0.0721255 0)
(1.4459 -0.36294 0)
(0.904894 0.0300727 -2.34796e-22)
(1.24648 -0.150423 -3.71057e-20)
(1.01892 0.0502199 0)
(1.04632 -0.0381606 -3.39875e-21)
(1.12764 -0.341121 -5.99147e-20)
(1.11976 -0.0675708 -1.01768e-20)
(1.13739 0.0270014 3.3696e-22)
(1.31341 0.487529 2.49889e-20)
(1.10778 -0.0513242 0)
(1.01204 0.275441 -1.89908e-19)
(1.32736 0.0490608 1.29979e-20)
(0.744177 0.023248 0)
(0.84105 0.0297557 -9.7845e-21)
(0.968924 -0.112739 4.42672e-21)
(1.09731 -0.0572427 8.01903e-21)
(1.18567 0.0172267 1.36252e-21)
(1.28162 -0.244427 0)
(1.34236 0.275975 0)
(1.08559 0.00447926 -1.40511e-20)
(1.36206 0.0850807 2.64718e-20)
(1.08188 -0.0161521 1.31005e-20)
(1.32755 -0.125234 -1.33516e-21)
(0.965189 0.0258811 1.79462e-20)
(1.00441 -0.0217107 0)
(1.11213 0.0214371 1.87159e-21)
(1.37856 -0.0583765 -8.80128e-20)
(0.758634 0.0209404 -3.46488e-21)
(1.33161 -0.0050896 0)
(1.33855 -0.0852642 0)
(1.44496 -0.116201 -4.70337e-20)
(1.11174 -0.059867 -3.19552e-21)
(1.12225 0.0127312 -4.41906e-23)
(0.946621 0.0223743 1.13481e-20)
(1.17698 0.0219119 -3.96162e-22)
(1.3188 0.0509105 -2.93401e-20)
(1.00426 0.0062826 1.49954e-20)
(1.42832 0.0212384 0)
(0.805503 -0.114859 0)
(1.09028 0.0274393 5.5345e-21)
(1.20656 -0.222167 -8.68529e-21)
(1.25862 0.0402053 9.56827e-21)
(1.04546 0.0456057 -1.26482e-19)
(1.15027 0.0370734 -2.0998e-21)
(1.23028 -0.0289345 2.39764e-21)
(0.790842 0.0146212 0)
(0.917109 -0.0500996 7.80608e-20)
(1.13936 0.0244424 -5.01273e-21)
(1.44098 -0.277566 -1.63262e-20)
(1.12325 -0.0330714 -7.94768e-21)
(0.929658 0.0180597 2.47105e-21)
(-0.289527 0.079466 0)
(0.863067 -0.0152776 2.30996e-21)
(0.792907 0.0227419 0)
(1.06033 0.00373242 -9.54237e-23)
(1.01126 0.0280138 0)
(1.30262 0.316717 6.1087e-21)
(1.03585 -0.0554394 -3.32196e-20)
(1.30039 -0.00236617 2.09963e-21)
(1.15206 -0.0573083 0)
(1.09422 -0.0220998 0)
(0.618465 -0.0950667 0)
(1.12867 -0.0332802 -4.64984e-21)
(1.25265 -0.0479998 8.81535e-21)
(1.06504 0.112309 -3.55523e-20)
(0.854788 -0.0164897 0)
(1.09768 0.0241814 -1.35089e-21)
(1.18617 0.180377 2.34351e-22)
(1.24583 0.085588 1.29503e-21)
(0.991441 0.0290957 4.06885e-21)
(1.12297 0.0090522 3.70463e-23)
(-0.028498 -0.0113871 0)
(1.09727 -0.0197266 -1.45771e-20)
(1.16058 0.167355 2.39376e-21)
(0.724214 0.0225593 -4.05821e-21)
(1.25243 0.160241 3.24812e-21)
(1.12576 0.0777627 -1.46915e-21)
(1.04627 0.0161402 1.74317e-20)
(0.991463 0.0272264 0)
(1.19908 0.0462625 -2.51307e-20)
(1.0024 -0.0422768 0)
(0.945733 0.0304752 8.40351e-21)
(0.968489 0.277072 1.51872e-19)
(0.968662 0.0330973 0)
(0.818006 0.0920959 0)
(-0.132649 -0.0725993 -6.40835e-20)
(1.32749 0.12662 -1.06455e-20)
(0.678567 -0.0182943 0)
(1.39464 0.059546 0)
(1.22261 0.190317 0)
(1.33069 0.099725 1.14726e-20)
(-0.0409507 -0.150216 0)
(-0.0671146 -0.00135465 3.13834e-20)
(0.999009 -0.081344 7.84064e-20)
(1.00158 0.0368539 1.05742e-21)
(0.860635 0.00156191 0)
(1.0314 -0.0236936 1.23641e-20)
(0.886178 0.0231376 0)
(0.759633 -0.0722268 -8.4723e-20)
(1.03224 0.0394944 1.11866e-20)
(1.1074 -0.0317792 3.80947e-21)
(1.09273 0.0116499 6.70924e-21)
(1.01341 0.0676502 -1.28486e-20)
(0.834167 0.00659301 1.46256e-21)
(1.14118 -0.353049 6.99197e-22)
(0.911879 -0.0274535 0)
(1.0678 0.00143254 -1.41407e-20)
(0.874088 0.00893597 -1.21799e-20)
(1.39499 -0.180055 2.02713e-21)
(0.699217 0.0319842 0)
(1.03784 -0.151584 0)
(1.12186 -0.00667793 3.91099e-21)
(1.38207 0.205179 8.64422e-21)
(1.11025 0.0200451 4.92671e-21)
(1.03666 0.020572 2.02141e-20)
(0.612319 -0.0293799 -4.40599e-20)
(0.812952 0.00212288 2.15192e-20)
(1.14053 -0.0198497 6.14111e-21)
(1.40853 -0.0692922 -5.29884e-21)
(1.10545 -0.0303298 -6.86028e-21)
(1.34153 -0.033192 4.54074e-21)
(-0.13507 -0.0494644 4.66296e-20)
(1.27787 -0.00241185 0)
(0.625457 -0.0152985 0)
(1.06606 -0.0233559 -6.86002e-21)
(1.09582 0.0150008 6.17551e-21)
(0.0191295 0.0188917 0)
(0.878114 -0.0232543 4.50219e-22)
(1.13558 -0.0125774 -4.11278e-21)
(0.977836 0.0426729 2.11377e-21)
(1.07709 0.0398855 -8.05926e-21)
(1.00409 0.0185531 2.75454e-21)
(1.05657 -0.0229624 3.62794e-21)
(1.04431 0.0237823 0)
(0.317119 -0.050841 0)
(1.04547 -0.0630538 0)
(1.13691 0.0957693 -2.76133e-20)
(-0.0347394 -0.172334 4.39822e-20)
(1.11352 0.0388927 -1.59498e-23)
(1.06929 0.0367883 0)
(0.750663 0.017019 -7.88166e-21)
(1.09912 -0.0528433 2.45776e-21)
(-0.012802 -0.0401727 -1.38814e-19)
(0.906697 -0.0258143 -6.29156e-20)
(0.629863 -0.0161953 0)
(0.823509 -0.0390115 0)
(0.941078 0.0500508 7.82527e-21)
(1.0074 -0.124816 5.25799e-21)
(1.27289 0.390247 -3.08818e-21)
(1.03282 0.0212699 -2.92923e-22)
(1.16033 0.0210168 -5.58687e-21)
(0.984294 -0.0320756 0)
(1.35599 0.413553 -3.36011e-20)
(0.680205 -0.0249304 0)
(0.804761 -0.0239843 -4.29123e-21)
(1.03878 -0.0229945 9.9128e-23)
(0.593748 0.0139748 0)
(1.10076 -0.00586528 0)
(0.167836 -0.0613956 -5.68167e-20)
(1.08334 0.099681 -9.41909e-21)
(0.713588 -0.0206563 1.79087e-21)
(0.990311 -0.00190116 0)
(0.552756 -0.0190026 0)
(0.756704 -0.0225179 -3.44628e-21)
(0.532844 -0.017544 -4.21264e-22)
(1.32188 0.0591066 2.02247e-22)
(1.16652 -0.0326033 -6.55377e-21)
(0.70288 0.0179273 -2.62026e-21)
(1.10155 -0.00986298 4.58998e-22)
(0.998421 0.0779218 2.76019e-22)
(0.555908 0.0151031 7.02217e-21)
(1.19847 0.0378674 1.17831e-21)
(1.14773 0.0543515 0)
(0.873927 0.103531 0)
(0.498203 0.0191025 0)
(1.04847 -0.0159785 0)
(1.17434 0.064656 -2.15961e-25)
(0.960779 0.0945664 0)
(1.18502 0.00909816 0)
(1.0604 0.114372 0)
(1.19091 0.141088 0)
(-0.0215224 -0.0515851 4.33003e-20)
(1.25843 0.1035 6.0641e-23)
(1.21979 0.119452 0)
(1.35409 0.0854326 1.82358e-20)
(1.24751 0.0549582 1.63914e-22)
(1.1078 0.0329665 3.16242e-21)
(1.22848 -0.0446905 3.87585e-21)
(1.21119 0.105742 0)
(0.589464 -0.0164957 7.91441e-21)
(1.0498 0.0424003 1.24965e-20)
(1.23721 0.0271563 0)
(1.12562 -0.0387557 -3.03233e-21)
(1.2548 0.0217255 2.50224e-21)
(0.37831 -0.102825 -7.4942e-21)
(1.106 0.039353 6.1815e-21)
(1.17501 -0.113817 -3.73104e-21)
(0.963059 -0.10973 0)
(1.29183 0.0544656 -6.59952e-21)
(1.11624 -0.059249 -2.52994e-21)
(0.793816 0.224785 8.29799e-21)
(0.710671 -0.0212714 0)
(-0.0267005 -0.0221613 0)
(0.976435 0.111194 -1.83477e-20)
(1.12231 -0.0543514 0)
(1.33555 -0.047131 2.15415e-20)
(1.20354 -0.0189846 9.61808e-22)
(1.16054 -0.0742197 3.58681e-21)
(1.22092 -0.0104625 -2.17684e-21)
(1.39808 -0.04227 1.28972e-19)
(1.02174 -0.329594 6.04921e-20)
(1.18692 -0.0412693 -4.73745e-22)
(0.887518 0.0638939 0)
(0.721291 -0.150479 0)
(0.906473 0.00540232 -2.95186e-20)
(1.2191 0.0331058 -2.84219e-20)
(1.18899 -0.110997 0)
(0.703026 0.0886077 -1.50769e-21)
(0.307348 -0.30407 0)
(0.744468 -0.0177107 -1.47723e-21)
(0.958106 0.159235 1.18545e-21)
(0.820493 0.0287917 -4.82247e-21)
(1.25447 -0.026227 0)
(1.20935 -0.0892708 -1.12189e-21)
(1.06194 -0.0734835 7.16305e-21)
(0.686304 0.153796 -3.92213e-21)
(1.23287 -0.10073 -3.77127e-21)
(0.751437 0.167735 0)
(1.09089 0.0719034 0)
(1.17608 -0.0325124 -1.90129e-21)
(0.889208 0.0488324 1.49225e-21)
(1.30159 -0.00645097 2.81805e-21)
(1.1654 -0.0536238 -2.86091e-21)
(0.893247 -0.0839603 8.74056e-22)
(1.11152 -0.063869 0)
(0.411006 -0.138775 1.30814e-20)
(1.31951 0.0936775 -1.60849e-20)
(0.934036 0.184771 -1.01172e-20)
(0.148995 -0.191095 7.92462e-21)
(1.44274 -0.140505 2.47968e-20)
(0.778131 -0.0329378 4.19243e-20)
(1.3044 -0.0927825 1.83385e-21)
(1.15347 -0.037783 -6.63131e-22)
(-0.0484475 -0.192288 -7.52086e-21)
(1.00075 -0.00644333 0)
(1.03427 -0.0886797 -1.66202e-20)
(0.856911 -0.0322503 8.89482e-21)
(1.1043 -0.046826 4.03707e-21)
(0.778234 0.160707 -2.73998e-21)
(0.510316 -0.0194937 3.67239e-22)
(1.41869 -0.392065 -1.52836e-20)
(1.10678 0.0699247 0)
(1.01598 0.0355824 -4.13754e-23)
(1.12977 0.0388132 -2.31438e-21)
(1.3346 -0.139989 0)
(0.736043 -0.151289 -2.66084e-22)
(1.1419 0.0559118 2.83227e-21)
(0.617302 0.218973 1.7943e-20)
(1.17282 -0.038583 3.81955e-21)
(0.928025 -0.102361 -5.44495e-22)
(-0.0375546 -0.117167 0)
(0.0699564 0.196874 -4.11687e-21)
(1.11145 0.0507928 0)
(0.837378 0.00532878 -1.89515e-20)
(0.703904 -0.119202 0)
(1.13539 -0.000866247 4.66352e-21)
(1.01698 0.0263569 0)
(1.20681 -0.134625 0)
(1.41682 -0.130166 2.20332e-20)
(0.798707 -0.0916356 0)
(1.03968 -0.0909565 3.11214e-20)
(1.09133 -0.0122658 -9.88532e-23)
(1.05508 0.0546467 2.78119e-21)
(1.29765 0.0120188 -1.15164e-20)
(1.2329 0.125359 -3.46357e-21)
(1.15626 0.100002 2.12402e-20)
(1.16355 0.0756111 0)
(1.20354 -0.102918 0)
(1.15428 0.0638223 1.22906e-21)
(1.24005 -0.00817736 0)
(1.39955 0.192509 -2.35013e-20)
(0.638773 0.105107 1.81279e-21)
(1.02664 0.0180518 2.34924e-20)
(1.2264 0.0651365 -2.18304e-22)
(-0.0100334 -0.035461 0)
(-0.03201 -0.0936541 0)
(0.177405 -0.0819328 -4.52483e-20)
(-0.0326522 -0.19349 0)
(0.532766 0.0640366 -1.41763e-20)
(1.19416 0.0479662 -2.47421e-21)
(1.15645 -0.0972988 -3.98056e-21)
(1.31792 -0.139688 -1.44926e-21)
(1.24407 -0.0249631 0)
(0.678787 -0.0137841 -1.41277e-21)
(1.20435 0.0718708 0)
(1.15259 0.0560017 -1.09704e-22)
(0.495197 -0.110537 0)
(0.547642 -0.0816557 -6.36049e-22)
(1.19436 0.053973 0)
(1.12575 0.0164576 0)
(0.885007 0.18763 7.12273e-20)
(0.447916 -0.152693 -7.69753e-22)
(0.914935 0.0101878 -3.36549e-21)
(1.0099 0.0180168 -9.78336e-21)
(0.175448 -0.140467 0)
(1.1374 0.00875227 -3.92956e-20)
(1.18864 0.0240016 2.47629e-22)
(1.01115 0.0662333 2.23281e-21)
(0.623125 -0.179058 7.67525e-21)
(-0.0493608 -0.15124 -9.15385e-20)
(1.18873 0.026857 0)
(-0.036052 0.0379634 0)
(1.18489 0.00811207 6.51392e-21)
(0.496515 -0.281946 -8.26078e-21)
(1.08887 0.00883386 -1.30257e-20)
(1.12186 -0.0479937 0)
(1.12211 -0.0832668 2.76751e-21)
(1.26558 -0.0930987 2.40027e-20)
(0.52283 -0.060514 -8.70484e-21)
(1.1555 -0.0420479 -1.57517e-21)
(1.16655 -0.100386 -7.30828e-23)
(0.360765 0.169593 7.30425e-21)
(1.21618 -0.139676 -2.18882e-21)
(1.12101 0.0361663 0)
(1.20758 0.0429742 0)
(1.22516 -0.0717077 4.24321e-21)
(1.15724 0.0409548 -2.23805e-22)
(0.640291 0.0346856 -6.15698e-20)
(1.19589 -0.120714 -1.68706e-20)
(1.12284 0.0363451 9.23139e-21)
(0.517483 -0.00220242 1.19781e-20)
(0.586402 0.0841699 -1.32221e-19)
(-0.169187 0.305956 3.07046e-20)
(1.16979 0.179095 -6.53423e-21)
(1.23945 -0.501325 4.55575e-21)
(1.3469 0.0885796 -1.72659e-20)
(1.24395 -0.0443253 -5.02835e-21)
(0.941003 -0.238772 9.64521e-20)
(-0.0312497 0.256809 0)
(1.12916 0.0166978 -1.5127e-21)
(0.00161025 0.312274 -1.23389e-20)
(1.18652 0.00889822 -5.63692e-21)
(1.20403 0.029281 8.36055e-21)
(1.09652 0.0402108 0)
(0.737616 -0.264689 0)
(1.16928 -0.0463406 0)
(1.16575 0.0241364 8.03304e-21)
(1.25066 -0.00154952 -2.21338e-20)
(1.17482 -0.0608001 -1.18563e-21)
(0.454609 0.0172795 0)
(0.604047 0.0129351 0)
(0.605292 -0.00488189 3.72894e-22)
(0.429154 -0.0163315 0)
(1.15751 -0.0261895 0)
(1.02339 -0.0126429 2.61331e-20)
(0.574915 -0.232388 0)
(0.943665 0.0291553 0)
(1.0852 -0.0456432 0)
(1.16858 0.186531 -9.33306e-21)
(1.22231 0.0434808 6.01859e-21)
(0.972207 -0.0314743 7.98121e-21)
(1.29345 -0.407351 -1.03069e-19)
(0.728552 -0.0907065 2.54504e-20)
(1.35395 0.103532 1.72107e-21)
(1.26673 -0.113813 0)
(-0.374517 0.134437 0)
(-0.235913 -0.0770895 0)
(1.18145 -0.0256352 -3.09006e-21)
(1.32846 -0.295914 -1.97143e-20)
(1.26545 0.0922176 0)
(1.10203 0.0569466 -7.2542e-21)
(0.31173 -0.014297 0)
(1.52427 -0.17858 7.16142e-20)
(0.409693 0.514232 1.22729e-19)
(0.261808 -0.0623896 0)
(1.09675 -0.28266 1.10643e-19)
(0.528603 0.266094 0)
(-0.0691127 0.0813942 8.84578e-21)
(1.24201 0.0953806 0)
(-0.0148356 -0.0272964 -2.28193e-21)
(0.983598 -0.0493388 0)
(1.32179 -0.0714827 -1.04987e-20)
(-0.13966 -0.138233 -7.53429e-21)
(1.13462 -0.0237353 1.51857e-21)
(1.17198 -0.110086 -1.20053e-20)
(0.57667 -0.525831 -9.2832e-20)
(1.23556 0.0394669 -6.17129e-22)
(1.20023 -0.128603 4.6733e-21)
(1.17617 0.241897 -2.33165e-20)
(1.21283 -0.10579 -1.37002e-20)
(1.17277 -0.00910987 2.61738e-22)
(-0.237258 -0.0213262 -3.83999e-20)
(-0.00318745 0.00029101 -6.86015e-21)
(1.37141 0.0315019 1.84748e-21)
(1.05938 -0.0476464 0)
(0.474417 -0.164782 2.25319e-22)
(1.40733 -0.45097 7.62551e-20)
(0.927268 -0.0974897 -5.52361e-20)
(1.40192 0.139052 6.45013e-20)
(1.07858 -0.0445983 3.3495e-21)
(1.15286 -0.17348 5.87771e-21)
(1.06269 -0.0071324 0)
(1.17683 -0.0068638 0)
(1.34346 -0.0989749 8.66648e-21)
(1.08836 -0.0187911 -4.50533e-21)
(1.25377 -0.233422 1.44242e-20)
(1.12118 0.0343961 -6.17404e-21)
(1.45309 0.0113912 -5.23108e-20)
(0.457363 0.0196951 0)
(1.28442 -0.161188 -1.00822e-20)
(1.29283 0.114039 0)
(1.13577 0.0335816 -5.19271e-21)
(1.14166 0.0295327 0)
(1.04101 -0.00825459 1.36978e-20)
(1.22949 0.0471773 9.49596e-21)
(1.15554 -0.130075 0)
(0.0471958 -0.0312188 1.47983e-19)
(0.884935 -0.217541 -7.56526e-20)
(1.38981 0.0669524 -3.75588e-20)
(-0.104575 -0.139294 3.87329e-20)
(1.18193 0.0272383 2.42277e-22)
(0.635923 -0.144737 -2.16403e-21)
(-0.103699 -0.109095 -4.03914e-20)
(-0.0212765 -0.0337726 -2.5113e-20)
(1.01981 -0.0292772 0)
(-0.0277377 -0.0353655 0)
(1.20062 0.197339 0)
(0.112163 -0.111818 0)
(1.12249 -0.0292594 0)
(0.124194 0.0259845 0)
(1.107 0.0400336 0)
(1.11492 0.173401 0)
(1.28623 0.0372148 -6.84688e-21)
(0.575237 -0.286501 -2.06145e-20)
(-0.206578 -0.0367187 0)
(1.13746 -0.107053 5.74905e-20)
(1.35717 0.107611 -1.61428e-21)
(1.38944 0.179402 0)
(-0.03879 -0.0408268 0)
(1.15958 0.0215646 -9.95895e-22)
(1.17191 0.00608146 -1.69107e-22)
(1.16384 0.383736 0)
(0.24196 -0.111071 5.47713e-20)
(1.1198 0.0638205 1.50543e-21)
(0.227778 -0.052531 -5.05042e-20)
(-0.060176 0.0453965 -3.11838e-20)
(-0.0298653 0.0483443 8.11106e-20)
(0.379099 0.318079 1.1232e-21)
(1.02695 -0.12309 2.0366e-21)
(1.12711 0.0360921 -9.04865e-21)
(1.02414 -0.00781949 0)
(1.0708 -0.0701672 -2.26743e-20)
(1.19403 0.0735082 -6.46874e-21)
(-0.00981923 -0.0506677 9.39634e-20)
(0.982005 -0.0727165 -6.10609e-20)
(0.629415 -0.16565 1.33096e-21)
(1.17395 0.0201094 -1.00283e-21)
(0.0653928 -0.0330716 3.13762e-20)
(0.236361 -0.0400234 -4.50974e-20)
(0.380539 -0.0834861 -4.96484e-20)
(1.1562 -0.0143928 1.43665e-20)
(-0.0560065 -0.0359837 0)
(0.947562 -0.100346 4.85686e-21)
(1.19307 -0.244082 -8.34419e-21)
(1.22655 -0.248271 8.04585e-21)
(1.31411 0.0809006 0)
(1.52389 -0.234824 6.77272e-20)
(1.15693 0.0196104 -3.90803e-21)
(-0.0146325 -0.0537807 -3.21502e-20)
(0.300242 0.0379385 0)
(0.92034 0.0372181 -3.08891e-21)
(1.12086 0.0263193 5.1817e-22)
(0.499481 0.0879671 1.50384e-20)
(1.16491 0.0183311 1.05608e-21)
(1.11606 0.0533966 0)
(1.13828 -0.17804 -1.3873e-20)
(-0.0613121 -0.183256 -6.56489e-20)
(1.32151 -0.00924198 2.52416e-20)
(1.10104 0.17411 -8.87342e-21)
(1.12892 0.041002 7.06113e-21)
(-0.0398269 -0.0631984 1.44857e-20)
(-0.024269 0.024214 -5.96333e-20)
(0.889044 0.0485018 0)
(0.853519 0.276953 0)
(1.14832 0.0975512 -1.94291e-20)
(1.0508 0.0684549 1.39105e-20)
(1.13927 0.0508044 0)
(0.614345 -0.0733293 6.06343e-20)
(0.743665 0.0738248 -1.11198e-20)
(1.0973 0.105299 0)
(1.114 0.0531455 0)
(1.30098 0.192231 0)
(1.1373 0.03914 0)
(1.27008 0.127406 1.88754e-21)
(-0.0425808 0.0455004 3.40581e-20)
(1.15875 -0.0210279 8.21726e-21)
(1.42275 -0.21116 -7.8779e-20)
(1.24693 0.129658 -3.04942e-21)
(-0.117153 0.0106633 0)
(1.20208 -0.19139 0)
(0.618931 -0.0161616 -4.76207e-22)
(0.544336 0.00596218 -5.78213e-20)
(0.0775562 0.0341227 4.6953e-20)
(0.939795 0.0278303 4.6195e-22)
(0.738065 -0.273503 0)
(0.669026 -0.094028 0)
(1.18438 0.126188 0)
(0.53772 0.510068 1.70936e-20)
(-0.015689 -0.00263744 -2.78193e-20)
(1.14454 0.0726868 3.87774e-21)
(-0.0216351 -0.0991127 6.10082e-20)
(1.16144 -0.015829 2.92659e-21)
(1.16835 0.310148 4.44723e-20)
(1.1154 -0.0912981 8.83868e-21)
(0.120506 -0.00862773 5.05173e-20)
(1.0924 -0.0282418 5.65358e-22)
(1.13944 -0.184332 0)
(0.559543 0.27037 0)
(0.918952 -0.16538 1.01307e-21)
(-0.177848 -0.100877 0)
(0.603469 0.0281486 2.32374e-21)
(0.604447 -0.419099 -2.95504e-21)
(0.244229 0.0483401 -1.09288e-19)
(1.12455 -0.232089 3.52202e-20)
(1.03561 0.358366 1.05457e-20)
(0.978244 0.0166692 0)
(1.15673 0.0173271 6.99039e-22)
(0.634089 0.0189739 0)
(0.976305 -0.0255371 -4.6101e-22)
(0.422397 -0.0251744 0)
(0.71049 0.123005 0)
(1.00794 -0.0179786 -5.49307e-21)
(1.42879 0.165333 -1.14729e-20)
(1.15909 -0.0320405 1.80406e-21)
(0.523681 -0.494597 0)
(1.13581 -0.157388 2.88798e-21)
(0.800703 0.370512 7.27131e-20)
(-0.033284 0.0220387 1.1435e-21)
(1.23127 0.00870545 6.2455e-21)
(1.21517 0.0465624 -6.8561e-21)
(1.21894 0.0286751 9.44704e-22)
(0.790135 0.00911114 -3.71366e-21)
(0.0697015 0.0170349 3.65509e-20)
(-0.0165287 -0.0799249 -5.25468e-20)
(-0.203517 -0.0944863 0)
(-0.247108 0.0383179 0)
(1.18747 -0.620412 3.08707e-20)
(1.15875 -0.0220873 -2.55403e-22)
(0.886567 -0.466218 -4.09554e-20)
(0.943873 -0.134889 -1.13012e-20)
(1.36045 0.19281 3.169e-20)
(0.602173 0.418322 0)
(0.244624 0.410021 -1.18935e-19)
(0.592307 0.471684 0)
(-0.0496161 -0.029897 0)
(1.12714 -0.48602 0)
(-0.0451041 -0.0554413 -3.68679e-22)
(1.19394 -0.00213963 0)
(0.841253 0.218536 -4.43404e-21)
(0.590703 0.685184 2.02012e-20)
(1.21274 0.11338 -6.02875e-21)
(-0.0301137 -0.142579 -1.0094e-19)
(0.393142 0.0635298 2.71525e-20)
(0.45498 0.14399 -1.30883e-20)
(1.19936 0.0954369 0)
(1.35517 0.350465 3.21468e-20)
(1.2171 0.559158 4.50068e-21)
(0.173369 -0.0183711 -2.18404e-20)
(1.00813 0.104497 3.05711e-20)
(0.929725 -0.0240595 7.16813e-22)
(0.911583 0.0366082 -3.38499e-22)
(-0.0170111 -0.0392939 0)
(0.649466 -0.660318 -3.09151e-20)
(0.612406 0.19278 0)
(0.108954 -0.181125 0)
(-0.0471473 0.0466714 0)
(0.0205891 -0.185244 -3.84494e-20)
(1.23799 0.0153243 -7.19327e-21)
(-0.0296666 0.0287983 0)
(-0.032495 0.0144991 0)
(1.43975 0.108646 -6.1172e-20)
(-0.0385331 -0.0977069 4.55597e-20)
(0.11395 0.229271 -1.03126e-19)
(0.399885 0.0121252 0)
(0.169954 -0.283794 8.22395e-20)
(1.08127 -0.244445 0)
(0.999911 -0.289266 0)
(0.0173393 -0.144456 9.56022e-20)
(1.14722 0.0437348 -1.80164e-22)
(1.12251 0.336749 2.97929e-20)
(0.270398 0.0260528 4.51664e-20)
(0.404983 -0.521171 -3.85154e-20)
(1.26014 0.0727041 0)
(1.21991 0.183045 2.12664e-20)
(1.21864 0.20566 -2.61205e-20)
(0.102006 0.0821383 -2.37648e-20)
(-0.064696 -0.0986731 0)
(1.07205 -0.0554969 -2.00518e-20)
(1.10428 -0.226795 -1.73099e-20)
(0.584218 -0.411983 0)
(1.09825 -0.153855 -2.71972e-20)
(-0.194462 0.0210106 0)
(0.598914 0.0242474 0)
(1.44577 0.0780168 4.35828e-20)
(1.00391 0.0353073 5.29517e-22)
(1.07108 0.736194 -1.90708e-20)
(0.226319 -0.382837 1.33764e-19)
(1.1297 0.0266787 7.365e-22)
(1.20203 0.0777759 -1.63976e-21)
(-0.0480802 0.00893593 2.8498e-20)
(0.783266 0.7277 3.18445e-20)
(1.35461 -0.379821 -1.29252e-20)
(0.162413 0.0223081 1.02764e-19)
(1.08724 0.0412068 0)
(0.0666207 -0.0702976 -5.41243e-21)
(0.898875 -0.63785 2.66526e-21)
(0.89745 0.638075 -1.55167e-20)
(0.532194 -0.0416012 -5.83452e-20)
(1.14554 0.00231139 -6.42996e-21)
(1.07747 -0.0847769 7.47153e-21)
(1.14167 0.0384738 3.03826e-21)
(1.1042 0.121275 5.57848e-21)
(1.13247 -0.128896 0)
(0.91167 0.101783 1.40562e-20)
(0.886628 0.45701 0)
(1.16753 0.0501702 -4.48035e-21)
(1.16401 0.114062 2.02301e-21)
(0.754811 0.263144 0)
(0.526246 0.109055 1.04222e-19)
(0.888643 0.705318 -1.066e-21)
(1.07474 0.287194 -2.28807e-20)
(1.04281 -0.0104525 1.29393e-20)
(0.412942 0.482218 0)
(1.30052 -0.481085 0)
(0.456236 -0.0101854 3.01028e-21)
(1.26055 0.499217 0)
(-0.018395 0.0437477 -4.15637e-20)
(1.28736 -0.420682 -2.92352e-21)
(1.15973 0.502859 0)
(0.451813 0.207934 1.72323e-19)
(1.12332 0.312888 -1.15228e-19)
(0.818601 -0.647997 -2.69997e-20)
(1.14164 0.0390791 -8.54826e-22)
(0.919068 0.148447 7.82677e-20)
(1.08671 0.166973 5.58272e-20)
(1.06639 0.698003 1.67533e-21)
(0.906775 -0.444095 6.75793e-20)
(1.40837 0.183813 3.40752e-20)
(1.13027 0.0117688 -1.19856e-21)
(-0.00658937 -0.0687857 8.31752e-20)
(1.08465 -0.707538 2.25077e-20)
(0.873801 -0.725513 5.61952e-20)
(0.252419 -0.342844 0)
(0.972474 -0.149566 7.55136e-20)
(0.360533 0.297862 -4.47213e-19)
(-0.0845703 -0.128354 2.81869e-20)
(0.252413 0.0236417 2.16505e-20)
(0.663459 -0.0628393 -6.92845e-20)
(1.07419 0.52236 0)
(0.991386 0.219593 8.37003e-20)
(1.08476 0.0326922 4.13049e-21)
(0.904764 0.435223 -9.37503e-20)
(0.783336 -0.728868 -8.87768e-21)
(0.925008 0.0193174 -5.01998e-20)
(0.972965 0.482506 0)
(1.08022 0.0632174 -3.71519e-22)
(1.38451 -0.52189 1.20945e-20)
(1.23179 -0.347154 8.79948e-21)
(-0.315051 0.0274222 2.94353e-20)
(0.194373 -0.0072911 -1.84156e-20)
(0.977283 -0.120659 -5.97463e-20)
(0.349762 0.517107 0)
(0.912339 0.0121903 3.99979e-20)
(1.15309 0.631564 7.37962e-20)
(-0.0275117 -0.172143 1.41032e-19)
(-0.0703192 -0.0327066 -2.34811e-20)
(-0.0784339 -0.167817 3.87612e-20)
(1.09669 0.0254345 -5.63817e-21)
(1.1291 -0.464729 0)
(1.07087 -0.74195 -4.59283e-20)
(0.695709 0.341906 0)
(0.0731058 -0.178044 -1.03549e-19)
(1.14786 0.0375521 3.85805e-21)
(-0.0356764 -0.144143 -2.75268e-20)
(1.04763 0.0561154 -1.19719e-20)
(0.115692 0.0253315 5.39851e-20)
(0.851774 0.12167 0)
(1.39721 0.00832546 5.1135e-20)
(0.0369874 0.0121466 -2.45835e-20)
(-0.317172 -0.0370945 -3.494e-20)
(-0.22276 -0.0612842 0)
(0.0675945 -0.0209104 0)
(1.35428 0.0129442 -1.44689e-20)
(0.366365 -0.0146608 1.4249e-19)
(1.26999 -0.733364 -1.79217e-20)
(0.771672 -0.00346979 1.60529e-20)
(1.0692 0.248464 -3.25145e-20)
(0.369701 -0.565196 1.42137e-19)
(1.53336 0.272149 -3.20582e-20)
(0.0651304 -0.105918 3.21414e-20)
(0.206907 0.295404 1.99436e-19)
(0.0816477 -0.0647085 -1.20617e-19)
(0.945456 -0.499191 -4.45631e-20)
(1.4469 0.38172 3.24549e-20)
(0.56898 -0.681676 5.0101e-20)
(1.10777 -0.0816218 -7.38596e-21)
(0.260677 -0.0870855 5.66458e-20)
(1.1815 0.285813 -4.64301e-20)
(0.658214 0.631838 -4.23475e-20)
(1.33873 -0.629363 0)
(1.41251 0.513503 3.2301e-20)
(1.05676 -0.534595 -1.25318e-20)
(1.38229 0.600482 -9.15642e-20)
(1.16557 0.0346658 0)
(-0.0506164 0.0436189 0)
(1.24461 0.722742 0)
(1.10759 0.0252552 -9.64209e-21)
(0.743289 -0.308125 -2.11109e-19)
(0.475674 -0.091472 0)
(-0.058061 0.0237702 -2.41627e-20)
(1.02066 -0.249103 1.0336e-19)
(-0.371168 0.0696004 0)
(0.321021 0.0158353 1.2441e-20)
(1.12738 0.0359437 0)
(1.40907 0.266895 0)
(1.1717 0.0363565 9.15361e-22)
(0.36173 -0.301301 0)
(1.0133 0.149215 3.9741e-20)
(1.30432 0.281332 0)
(-0.0994533 -0.0303768 -5.75911e-22)
(0.814129 -0.403257 0)
(1.50479 0.333547 -4.82472e-20)
(1.23631 0.362009 2.69529e-21)
(0.835444 0.637243 -1.02125e-20)
(1.00983 0.157679 -9.24423e-20)
(0.969532 -0.20803 -5.02395e-20)
(1.44352 0.28862 2.83659e-20)
(0.983228 0.062856 0)
(0.563477 -0.0785763 0)
)
;

boundaryField
{
    FrontBack
    {
        type            empty;
    }
    Top
    {
        type            noSlip;
    }
    In
    {
        type            fixedValue;
        value           uniform (1 0 0);
    }
    Bottom
    {
        type            noSlip;
    }
    Out
    {
        type            zeroGradient;
    }
    circle
    {
        type            noSlip;
    }
}


// ************************************************************************* //
