/*--------------------------------*- C++ -*----------------------------------*\
| =========                 |                                                 |
| \\      /  F ield         | OpenFOAM: The Open Source CFD Toolbox           |
|  \\    /   O peration     | Version:  2412                                  |
|   \\  /    A nd           | Website:  www.openfoam.com                      |
|    \\/     M anipulation  |                                                 |
\*---------------------------------------------------------------------------*/
FoamFile
{
    version     2.0;
    format      ascii;
    arch        "LSB;label=32;scalar=64";
    class       volScalarField;
    location    "1222.5";
    object      p;
}
// * * * * * * * * * * * * * * * * * * * * * * * * * * * * * * * * * * * * * //

dimensions      [0 2 -2 0 0 0 0];

internalField   nonuniform List<scalar> 
808
(
-0.03374123778012875
0.04390075525145121
-0.0110674179098387
0.03721946530780147
-0.2971355471114736
-0.0556963450154925
-0.01562338908128534
-0.02414995573381789
-0.1955266453258177
-0.08329746502619514
-0.01076461587661553
-0.2524464050001775
-0.03070901686754924
-0.0140450832419573
-0.121530161247081
-0.01423944018764033
-0.1378785059368503
-0.01375905918807619
-0.01259904120660136
-0.05510291678486649
-0.007788572073733627
0.1168944912251181
-0.06309009803887822
-0.07105428584491928
0.1747680229034996
-0.1004209901253291
-0.1513513736295948
-0.02045424262079946
-0.01756160746322369
-0.02556780077202437
-0.02037206241980252
-0.05788515261757012
-0.02271680782445177
-0.01691070984443927
-0.09901247459192618
0.3446543901207079
-0.03986047966885492
-0.0163705848956177
-0.022566255273748
-0.02647421422855508
-0.08975713567993028
-0.1257780378934359
-0.05259625255852281
-0.02144845238164318
-0.0543062414820444
-0.04215517877091414
-0.01190768580443212
-0.1832356967486398
-0.0266691945763471
-0.2028015537955188
-0.01721939059920561
-0.06659830152191706
-0.06150412462264223
-0.01449411892610285
-0.1949646324018401
-0.02791830810809237
-0.01061119577311747
-0.01436685934107491
-0.09958492265975319
-0.03927271603080759
-0.1111460739371029
-0.1250038949727535
-0.01444360487587498
-0.1285683848826215
-0.01762946925258014
-0.052375778907855
-0.1637204137069214
-0.0353931682823164
-0.0153108437767128
-0.4381860606602711
-0.02620395595231208
-0.2991758596246839
-0.02139314573898772
-0.02118661271873414
-0.06396668721731548
-0.0180989965071424
-0.04202519728581919
-0.3646951839457889
-0.03651781805516451
0.03938232710833932
-0.09192015192204309
-0.01680509247601544
0.05724004801531901
0.04547208060635981
-0.01743377151309146
-0.05170602355277464
-0.5389391080158629
-0.2280170671057477
-0.05158969703696441
-0.1132592753202389
-0.0559957139415911
-0.1317775841301752
0.03859759903544008
-0.02621066435045299
-0.06260432763426382
-0.1208063919645804
-0.03823162315592293
-0.05197353172189736
-0.1154404851262501
-0.1393220121857118
-0.05310518782587061
-0.04679257746610072
-0.05384602837599441
-0.04429125807211111
-0.05703305562429494
-0.07532952994555844
-0.03967949823647196
-0.01065651793156177
-0.03979021509859639
-0.1229645773818104
-0.04986396096820025
0.08154789127026804
-0.04193789351630808
-0.007592616018344822
-0.02753838738941284
0.1807474574037807
-0.03828443013557922
-0.2664855064656071
-0.02080609800765503
-0.05298926932945881
-0.04184622455352908
-0.0494493280303611
0.01393589274791667
-0.04807234020088182
-0.03639327833257603
-0.2190756949750286
-0.04052266731079626
-0.004262178152626099
-0.0751497247888727
-0.06959009368120657
-0.1514562943372877
-0.02131736463404552
-0.07467738588830394
-0.04380568425573321
-0.02309789043196902
-0.01512648683847736
-0.005986469078647879
-0.007623229133949293
-0.05194746618188113
-0.04918051349304566
-0.2134552793283334
-0.05589378945443742
-0.00819488639537147
-0.02191405076653918
-0.1486820780865039
-0.002114695083640849
-0.07566976121451947
-0.0214568118228706
-0.0001062386140127705
-0.01022059646101502
-0.03292624813029461
0.09350149128935469
-0.03816892548397245
0.2516652440075097
-0.259642261307543
-0.1335863750937062
-0.03804429355703388
-0.09078601696565812
-0.009029158757922288
-0.1144946342875815
-0.1690655853126415
-0.2144325649329472
-0.1794035879379759
0.0567899794310931
-0.06372994894749483
-0.02061961109552677
-0.06636692027157325
-0.1725161467571477
-0.02307340914415483
-0.01878467915814429
-0.05136391655936607
-0.02045236767018136
-0.00738611338318786
-0.1068804675769361
-0.0236041304834071
-0.04452337147224607
-0.07089197154276991
-0.1602239565152021
-0.03307265696590568
-0.3854485050202417
-0.0179160818791415
-0.2272027966817836
-0.04372230818050024
0.03261099723983007
-0.1058703847178236
-0.01638003871705217
-0.04324170268199806
-0.1048232027910223
-0.01790387826176262
-0.0955773635390933
-0.2034207152261547
-0.07140548495901643
-0.02419930119402772
-0.04750251970232582
-0.04220518149514576
-0.2011538419649522
-0.02243752307790809
-0.01934641865041451
-0.01127864632859383
-0.05716507853580802
-0.05007024869015132
-0.02270903955628479
-0.02058768259109951
-0.2346819851004509
0.1269843400442809
-0.2066115946095725
-0.1914849817399256
-0.0117122289470201
-0.01130672021334531
-0.06659309062145828
-0.0101580261690925
-0.493992641182797
-0.1273565438525166
-0.01965739474152926
-0.0009509606548048921
-0.02370279356898007
-0.2782360054034034
-0.2789364704836623
-0.007555003929051667
-0.01785888825685578
-0.001960869928217303
-0.3499366176296652
-0.02860736563516886
-0.02941866470292004
-0.01268355313637548
-0.01944094824811646
0.04878191444024838
-0.1251916447924136
-0.01417501442746413
-0.02093440497643492
-0.04524969054007669
-0.01840778417388485
-0.01642409498447583
-0.02352511303714663
-0.06790844790219898
-0.01110276546991012
-0.01890857314871715
-0.008959693250324393
-0.001362441579699802
-0.02932222418073941
-0.002071587554662033
-0.001983684486576944
-0.005764589608644003
-0.02549745371912435
-0.008114238100637538
0.001639953083135928
-0.004118072576514911
0.001247919353321903
0.002317348462018521
-0.008785047227294044
-0.1298559275898371
-0.002928272824864819
-0.0001487872438617816
-0.04732947598649821
-0.02138245360973031
-0.02378196090448534
-0.01405669141273356
-0.006198658498138623
-0.02115553440136432
-0.03988022752387486
-0.015114805472479
-0.01263043348900172
-0.01162959429244212
0.006226139807430269
-0.00964627733325036
-0.01317701205476475
-0.01138132563751744
-0.01008947569624436
-0.01013696782042656
-0.01104008995259778
-0.01359662133642084
-0.2927447772229596
0.05909257126008859
-0.01519636700337133
-0.01565646488792317
-0.01241585155795056
-0.01240634699841138
-0.008253306200805761
-0.0994386243905362
0.01199427439494885
-0.01437920449234798
-0.01389664549003602
-0.01062353653275313
-0.05126168876178512
-0.008100600480151226
-0.01390244097776909
-0.009768507608555452
-0.002402347750849164
-0.01120487948334838
-0.010762844274918
-0.02429802336480031
-0.01566075586553467
-0.01243335172523581
-0.01342420071225606
-0.009859435087378911
-0.01311748796889919
-0.01087723085702073
-0.05964757188522862
-0.01334609849763986
-0.01226776229038343
-0.00915364640084743
-0.01538399788250603
-0.01408402937043668
-0.01569857171080349
-1.368841317760456
-0.1003653830757893
-0.01182296573002786
0.02393876172102899
-0.1621887833396056
-0.09359843878481217
-0.01207067487801115
-0.01424116437137473
-0.2417270045834504
-0.02863928713213213
-0.0181853774648881
-0.01224583594993542
-0.02051521179596255
-0.01083785023150434
-0.03078860266186526
-0.409113070078605
-0.01201054378492367
-0.01407880497887728
-0.004455756011852907
-0.01071277279981084
-0.009422984506044901
-0.01390002481080754
-0.008301338306129426
-0.02733140700793348
-0.0117021436742103
-0.1697123910631206
0.02002759276799815
-0.007395791062731264
0.003786259435020577
0.01185083363879355
-0.04891628587618428
0.02777580766877393
-0.01286530508845599
-0.1334288151084172
0.2826631149694523
-0.008178904354482576
-0.01347317951276717
-0.007978965236550376
-0.03336418231025221
-0.1255292408632475
-0.01326572506983502
-0.0119813190391655
-0.01768196014978877
-0.01352211745020395
-0.04166502736099953
-0.2195718669890424
-0.009510910066979274
-0.04349130823952962
-0.0384659612127294
-0.1784355555624615
-0.1522995647210788
-0.1556349419525229
-0.2399835897241065
-0.003175367678784355
-0.02072845789772806
-0.01556513182046731
-0.01397022288962072
-0.03370482722860757
-0.02449559349274261
-0.01399762985184149
-0.01494046919673344
-1.071214785118688
-0.002910999107788148
-0.0134439706823696
-0.01801831087324344
-0.0191983427236338
0.00564962881199854
-0.014188635803901
-0.02570752608737647
-0.1578759914975649
-0.0136015408872896
-0.02095388362043471
-0.01463000737707182
0.001307382309758938
-0.1779654249848826
-0.01266612179163238
-0.1567081343751189
-0.01544894717695128
0.00682892819375298
-0.01396125473392584
-0.02421502775392435
-0.01643068304472935
0.007250827625603543
-0.266978459008931
-0.02669055152780537
-0.01693748743711081
-0.01663372275020032
-0.01091296693845917
-0.02941324358985526
-0.01375407045897196
-0.02117593249788217
-0.02052402111745947
0.008164061188028827
-0.09805616870619144
-0.02122355027127758
0.009604030215144256
-0.05678612412678943
0.1774752609780523
-0.1062007861138179
-0.3174043773077646
-0.0293300581548569
-0.02591918399048684
0.1507616389708911
0.09538130929802471
-0.003736261595022438
0.05356958462089766
-0.01520887319075254
-0.0133478891611899
0.002689753598591917
0.008283443955709013
-0.0650927568798849
-0.00437575534941683
-0.05607890048553887
-0.02330531615868648
-0.01567695468614835
-0.03650443129085318
-0.03293626550117174
-0.006695509182121296
-0.01453115924797202
-0.03706818553822565
0.03085874372756884
-0.03863691009078542
-0.01381001754914458
-0.119457410104943
-0.03088284690644934
-0.03993998710852956
-0.66992541107326
0.01338715119561195
-0.01075281187802218
-0.005581988165412327
0.1863783870880373
-0.100595307215386
-0.03596379187534848
-0.2426449527708604
-0.0152200482622179
-0.01608175159170138
0.07565775725378282
-0.1812650107218333
-0.2295179113420616
-0.1867125925738958
-0.6775870730254753
0.01150841521097274
-0.01794238707435647
-0.0151300016769527
-0.09604700833374737
0.1185193385447244
-0.02200375959424785
-0.2435428742115327
-0.03626820761706846
-0.006968009628905114
0.27855920413421
-0.01080814335996947
-0.09124802412701583
-0.1526665307204396
-0.004727410110147666
-0.04166535876528708
-0.04593410891342876
-0.1958933135165027
-0.007981029209503367
-0.04011613188235941
-0.003730012397530955
-0.5450001217146546
-0.1947566723318429
-0.1785493043495403
-0.02363268027444821
-0.008982505301312917
-0.0620142820206506
-0.05659283390749152
-0.01610703373525076
-0.06954103302633625
0.004364936249537936
-0.01760564237546487
-0.09524882553004888
-0.2763385379453953
-0.009870864178124918
-0.02483022254169214
-0.02131822810492626
-0.07633193317198185
-0.08918915759265021
-0.08972634629845151
-0.01119394009257406
-0.9096427389258105
0.1618694849306556
-0.08302743403654386
-0.2518393767846975
-0.04141634721325988
-0.00917318821096905
-0.2472219434627267
-0.1947216126294509
-0.03114382897303078
-0.114385063808191
-0.01769475384792748
0.5626274702569448
-0.02516793620330332
-0.2140098962595267
-0.02510941360352019
-0.003757189511640712
-0.01089594112565741
-1.247315249915083
-0.1820815456718762
-0.2277964318028789
0.005270067936230757
-0.03929998338414983
-0.2352465150072516
-0.06708847759277657
-0.05217612705719854
-0.1456608933556426
-0.1833842148314476
-0.06993209146042415
-1.216606044479339
-0.1597845655151224
-0.5400415313038012
0.07978764945465945
-0.006372271967800346
-0.0210408285946333
-0.04463771579039669
-0.03842002797408643
-0.02768449280367383
-0.1303469654368058
0.08124025109401938
-0.004438832714665278
-0.00984073280560592
-0.5634403216837778
-0.8504886289281668
-0.1765155532019391
-0.007533177516307829
-0.1231392972829376
0.0006192979839598381
-0.0006512236840330286
-0.002873395311837772
-0.0617594440923523
-0.2339558261509733
-0.01334908814388125
-0.1107410867930182
-0.1561013035301818
-0.01310247594738898
-0.03452093785498379
0.02815467192595197
-0.05881971296620142
-0.0720112566058848
-0.4934604814533009
-0.2323235599427985
-0.07993712631630258
-0.07539522450261643
-0.01931365949991704
-0.1108463250957054
-0.1658253991777842
-0.08216067841347173
0.02736533474107727
-0.08714431411294553
-0.05032025219239761
-0.01494901968532597
-0.1159847234694849
-0.2808268038824243
-0.0593876358956543
-0.0180268591543125
0.001892928213594914
-0.01023491743872861
-0.01055222808499445
-0.2362729132974384
-0.01397883238338172
-0.2174096792623521
-0.01081544162944216
-0.07074753076668948
-0.003982937181206228
-0.02325376353747107
-0.3914849261728806
-0.9265633041822461
-0.01123281633283385
-1.041988393144862
-0.6023485182235581
-0.01064535627279664
-0.6586188450281092
-0.1860635274921839
-0.004870766909800788
-0.1238901520275848
-0.01716358945098071
-0.1251565141298761
-0.06514244632735075
-0.07737734480648903
-0.005608372201183214
-0.003655474456494119
-1.343294630151554
-0.01134011701398649
-0.1890778719781105
0.001011191004937015
-1.008339487597977
-1.246434855296543
-0.07871178651497415
0.01689956770716214
0.1645393720486038
-0.004943003362947521
-0.02294809461427748
-0.004370410966892793
-0.2394946207770414
0.3655385568531779
-0.04227118890600822
-0.2140664034597629
-0.01528697684902705
-0.6535891821741339
-0.07250608015508067
0.1892744157478435
-0.3026198335661598
-0.05091512346727432
-0.07038530324988923
-0.01580139324390214
-0.02139669037133208
-0.5924367478629502
-0.1533590979146042
-0.09518386002550674
-0.1187058628808423
-0.5515526618158415
-0.04546789867439755
-0.9036163329812106
-0.0008270745138956341
-0.2437345350583994
-1.052428037187449
0.167320967924776
0.2904424210951733
-0.1705677571734125
-0.1898016608753471
-0.2125833218319463
-0.06637135823149214
0.02565944390962359
0.04724116182267956
0.005145786704890616
-0.1529246999343138
0.02598996550397937
-1.364857339799553
-0.08721530035430629
-0.4787524608120679
-0.3339431270978274
-0.2188709310806556
-0.1801212845170222
-0.01698115988234422
-0.01535783223604969
-0.09326567359640385
0.1727140050043503
0.3847152747494063
-0.212165694762476
-0.1558708527618245
-0.2266197205796436
-0.06369264521795283
-0.1629520175129503
-0.1722865572779072
-0.1276785819167051
-0.1100616931404699
0.4654717589109188
-0.2822534274917617
0.4316505293038889
-0.5902547062823601
0.07267096045012542
-0.1899996408335941
-0.06791844100136359
-0.07728520980186128
-0.8922236613874515
-0.2191414975363065
-0.1924337628756378
-0.3544891036351319
-0.4658016570651486
0.5697767144342977
-0.2115819955767004
0.002360793000604891
-0.06792254799402597
0.3445001512631704
-0.03521730115973244
-0.1189690963959785
-0.1815538654505335
-0.06474236252394716
-0.01633178783625236
-0.1978814889561478
0.1947146332878872
-0.01257363329663162
-0.09871360017725032
-0.1755381751325427
-0.3170758522884644
-0.308578077281506
-0.08258865513223133
-0.009670996744810449
-0.07791434942320187
-0.6518836173868975
-0.6727498602425338
-0.3258346182008298
-0.05925375844018582
-0.04978408567388913
-0.02443122871143496
-0.07007857358784934
-0.05527564251329433
-0.3678113196753509
-0.9617468551106714
-0.008646295494062331
-0.08530944722506495
-1.144419121202196
-1.041620280506748
-0.1075535429703026
-0.04136404572576762
-0.06807434627464473
0.3894110473825558
-0.3401611528042592
-0.05168184213330294
-0.6045318002771585
-0.1371420022771417
-0.2489463033500309
-0.2134900464853809
0.4735279430429706
-0.6359620523444164
0.07530517081743954
-0.02846804278129162
-0.5688128180202686
-0.05422759481866709
-0.3646870190252535
0.1088340522016464
-0.1935317561279632
-0.06150449175750873
-0.1255804072079007
-0.3589259788709948
-0.0856934600048647
0.5146669141463769
0.08677120313922486
0.4700636597778781
-0.1251461189565012
-0.2063206942377154
-0.5102526669460044
-0.1337005817285721
0.02449035145539934
-0.05555076904683659
0.1004812070612823
-0.3053490620573083
0.2363464049204954
0.005778600268488795
-0.00265890778807052
-0.5087438191723179
-0.1820801458135296
-0.09967699080925585
0.5810545124290319
0.1394439917201245
0.3447799950953093
0.2251588161757151
-0.5657880346832057
-0.2110421732281791
-0.2194121514872889
-0.2303544264282186
-0.06225282949417366
-0.6885937287237774
-0.1910604120429013
0.304827381735029
-0.2053469696190305
-0.01115956991668538
-0.1636147607353691
-0.01168556992028471
-0.1699515444678823
-0.4461350963524774
-0.07673523448795919
-0.2053839899171593
-0.07716548447821826
-0.1099917325213165
-0.1324161613331815
-0.0727954872780945
-0.4413819511666629
-0.411369363535835
-0.02448209982519914
-0.07734376833974341
0.3280481863215023
-0.2519842805116155
-0.1724778084737743
0.5247070941050569
-0.1944675439925521
0.02023487564343526
-0.4550067250207466
0.04823835588845949
-0.05980926997429121
-0.1562986030107718
-0.5914229762508495
0.15978080682364
-0.5759950967299905
-0.5403382342631335
-0.1029756467484014
-0.5120873885176815
-0.03613743755490784
-0.1556131211427879
-0.4137102413388564
-0.01610860950460592
0.2875540354750855
0.4896422960514318
-0.1669627903674133
-0.005950011077677959
-0.0799730945424308
0.5250500701800594
-0.03218565033398756
-0.445502690538841
-0.03168564278492917
0.4610377465126586
-0.01720038792914753
-0.5500747105381701
-0.2397103245200901
0.1774086749287443
-0.3152354657043312
-0.1821078078813571
0.04914028316511648
0.03143826607900461
0.05618030271638688
-0.3043598533417347
-0.158753971340564
0.4127472469594254
)
;

boundaryField
{
    FrontBack
    {
        type            empty;
    }
    Top
    {
        type            zeroGradient;
    }
    In
    {
        type            zeroGradient;
    }
    Bottom
    {
        type            zeroGradient;
    }
    Out
    {
        type            fixedValue;
        value           uniform 0;
    }
    circle
    {
        type            zeroGradient;
    }
}


// ************************************************************************* //
