/*--------------------------------*- C++ -*----------------------------------*\
| =========                 |                                                 |
| \\      /  F ield         | OpenFOAM: The Open Source CFD Toolbox           |
|  \\    /   O peration     | Version:  2412                                  |
|   \\  /    A nd           | Website:  www.openfoam.com                      |
|    \\/     M anipulation  |                                                 |
\*---------------------------------------------------------------------------*/
FoamFile
{
    version     2.0;
    format      ascii;
    arch        "LSB;label=32;scalar=64";
    class       surfaceScalarField;
    location    "1175";
    object      phi;
}
// * * * * * * * * * * * * * * * * * * * * * * * * * * * * * * * * * * * * * //

dimensions      [0 3 -1 0 0 0 0];

oriented        oriented;

internalField   nonuniform List<scalar> 
1171
(
-0.9279158925811986
0.9279158925825267
0.7872599109531929
-1.09875977154975
0.31149986059406
-0.194654182941374
-0.7675140655503073
0.962168248489416
0.072084099157447
-0.1175469217232106
-0.2118119923369055
0.3293589140658899
-0.7872599058741273
0.06927622616767429
0.7179836797061347
0.8106808096625289
-0.1774075587429315
-0.6332732509191611
0.8741688878532818
-1.043484065192847
0.1693151773383985
-0.2847006996916788
-0.09806267371689821
0.3827633733988531
-0.03610922286143872
0.5483652492443319
-0.5122560263806571
-0.5072326621586556
0.829237965846169
-0.322005303685067
-0.402247613474261
1.045619726667766
-0.1714508259523896
0.3957556735057358
0.04910019245847592
-0.4448558659467746
1.04638823449857
-0.0007685031239644076
0.4465738588392536
-0.0508181982018486
1.056903875060886
-0.01051563576980311
0.5784829731420738
-0.7731371559062296
-0.7242870560043634
0.5570901233405692
0.1671969326652454
0.2193413906743496
-0.7265740522593654
0.5500135373702905
-0.9225492878849506
0.3725357505347596
-1.094194136446524
0.6864574960146281
0.4077366404284338
-0.5953629028554237
0.5592536836080788
0.01772971123485436
-0.2563665499957403
0.2386368387933168
-0.02416991369238924
-0.523875673514262
0.5480455871967453
0.3998405613076745
-0.4979032286399653
-0.9187692316979893
0.9415169846379272
-0.02274775293980017
1.067807367106751
-0.01090348922308267
0.9352065821990835
-1.11697814174749
0.1817715595496037
1.067442246626936
0.0003651225148621536
-0.6642711799427814
-0.06001587525620042
1.262035893307023
-0.8644602649275674
-0.3975756283797172
0.1486730145054013
-0.109214066511791
-0.325486052190306
0.4347001186947532
-0.2856789640762409
0.1914359164926385
0.09424304756953636
-0.5834027069549867
-0.5153570686397573
1.01412553758608
-0.07891895996360206
0.009912677587845342
0.8254498474929035
-0.8353625250811963
0.5717655810545431
0.6902703082530044
0.4391511793800456
-0.03074625934472413
0.4305868213022768
-0.8077604682119454
-0.1026271447109431
0.910387612924351
0.5026877162648495
0.2539556994777686
-0.7566434157415297
0.003667014222738168
0.5305363960407753
-0.5342034102583556
-0.4899178387084818
-0.6042762997172204
-0.4228969037114287
-0.6940812426831565
-0.02749596122535748
0.2705239714242086
-0.2430280102183157
-0.9249194616148189
-0.005210733896503742
0.9301301955106032
0.3078096674199939
0.07495371441784054
0.7622207965181751
0.048460019487137
-0.5329838927071093
-0.06237900886906363
0.04629386322983597
-0.8540543322659196
0.0769166129565506
0.861788037859079
-0.9387046508153639
-0.3473792873284547
-0.0408879111040422
0.3882671984354533
-0.6824255570245478
-0.2424939047027412
-0.6318787768205526
0.7087953890534946
0.609859904350818
0.2193780641365815
-0.5430022853502834
0.9461969189658566
-0.7793388356319085
-0.1668580833339343
0.02002860671731828
-0.01073168522445955
-0.009296921467829549
-0.4030160133900659
-0.09488721473176172
-0.242026826065431
0.8518867236925748
0.04736119484351336
0.3339595581650458
-0.3813207530182889
-0.4609456770723785
0.9636333945415504
0.6801407576912119
-0.7827679025176975
0.3180095644139564
-0.01535961255623352
-0.3026499518363511
0.9306633775896668
-0.9306633775899574
-0.7829509826471398
0.1113174882559982
-0.3231294772808723
-0.7500340849710854
0.7599467612088084
-0.09102449907423374
-0.1426747120219144
0.2336992110851366
0.8649174439199927
-0.03946759699341754
1.054528214743758
-0.8005725146191001
0.1862435892462702
-0.3158690483040583
0.129625459058402
0.8589889778396885
-0.09676817549472062
-0.6116346169505992
-0.03945328077016007
0.6510878977203893
0.1237540888722636
-0.2308388874485016
0.1070847986053768
0.8055937563142407
-0.9830013057686235
-0.4348223245447652
0.3293459501804566
0.1054763743719247
0.5324098739981411
-0.5565797868762967
1.022123470919628
-0.4562811210799734
-0.5658423498392304
0.59922656359492
-0.7192809538526825
0.06655836469228053
0.6527225891503052
0.102345563337677
0.5703655447024739
0.0546546039413421
-0.6250201486411576
0.1946594065098477
-0.08334191983183525
-0.4927707552616181
0.1453914662337065
0.05036899792625499
-0.8867498983056983
0.8363809003805295
-0.474775474340508
-0.7133592873405935
0.04908810830916544
0.4364762870968303
-0.005889461485955871
0.3000186007146906
-0.8552868373875619
0.5552682366793443
0.4157297813816832
0.5842702186190883
0.5606236737306843
-0.5143298128976301
-0.3653707469361767
0.03671636025303263
0.3286543866198385
0.6813210270165511
0.2493423453211613
-0.5672336198827342
0.5709006392664879
0.1109902261617312
0.8748699758917426
0.01030133031356613
-0.6219359455378183
-0.7492657881404277
0.799634785602288
0.5309122679065692
0.07160850229364327
0.3006087106276974
-0.372217212918258
-0.1675968385801928
0.4431038896370896
0.08743251871332117
0.8747445377184139
-0.7987406139314418
-0.07600392378465322
0.6355380193523145
0.3106589006222029
-0.4305119716856945
0.5753333365605482
-0.503724841590574
0.4170926108344216
0.1329209247243156
-0.04688754087739641
-0.5886263346967496
-0.1389782506747038
0.7276045853707349
-0.1496652648683619
-0.7809981172409135
-0.6110673977535858
0.3604516717839243
0.250615725943645
0.6222458197113724
-0.6119444898887586
0.2383344136502525
1.011674993170122
0.04285322109019516
-0.7492657863533386
0.2195469345329644
-0.1995183124860694
0.6801407538791558
0.8021323585166658
-0.8021323585174038
0.8376617939720207
-0.8332577818390551
-0.004404012131045628
-0.4453589621591579
0.8610887431979075
-0.1476119291793214
-0.3451588207483562
0.7347474878458404
-0.6685173397016092
-0.06623014814600976
-0.7330497802038235
0.1444234407915675
0.1389150868964433
-0.6718989809973215
0.7827678995693917
-0.950364738151077
-0.364919453038146
0.2867904413237194
0.0781290117080259
0.1458148586924544
-1.00966530747126
0.8638504487793629
0.4805657768624384
-0.04141459748418697
-0.3081364452407827
0.5863405748708678
-0.2782041296274521
-0.7383661948718154
0.884181062673033
-0.1570930157143255
0.7344723046054183
-0.8365049778408336
0.102032673239702
0.9782548232360432
-0.5412548176895297
-0.4370000055471989
0.7552448196281311
-0.06484582156859242
-0.03600756520616957
0.1873627117735158
-0.1513551465825143
-0.7757382978379403
-0.8433250376368865
0.07581097251650556
-0.7500340846859067
0.5141332236957509
-0.5550211314300268
0.09196970944794915
0.7174565276876775
-0.8094262371326504
0.7536698036908489
0.1742460899519664
0.5028894986405016
0.4971105013589569
-0.05407409282293869
-0.6061153361211389
0.6601894289479061
0.8786647272614272
-0.00392018878677893
-0.7552448196278265
0.7996347846132771
0.1912857237585506
-0.4476522740327614
0.01732320640309713
0.001417558897931584
-0.0187407652089644
0.5894973503935722
-0.4381100160149289
-0.1513873343706899
0.7179836742797596
0.0138421762378509
-0.108852742597055
0.4381543658113672
0.1513429794427741
-0.01359264616061544
-0.007103640340300617
0.02069628648559265
-0.03363950327334143
-0.002368065587666567
0.2442198040506424
-0.2595794229192881
-0.9592253736898541
0.002009698585948588
-0.1595905890768637
-0.120699658248994
0.09476767014270135
0.7216065703038332
0.7289833740321761
-0.1447131578619933
0.66251555848971
-0.5705458519563019
-0.2119360159167521
0.3981796003896482
0.695512964638219
0.02247070964113085
0.2416655730838246
-1.074923360013003
-0.9503647424601556
0.3019201977967116
0.7599467617010269
-0.2089468328675476
0.06627211331065329
-0.7236162740214135
0.9094396042895156
-0.1858233302667914
0.4163077940217343
-0.028040588303237
0.7715350771810624
0.2807190512767636
0.3738202889567206
0.07275360081423138
-0.6587024753924894
0.6587024753919445
0.21482344486017
0.695564165573529
-0.05528604240056349
0.389245606556968
0.379414064793734
-0.01257613142761346
0.02989931729483962
0.4490702322343678
0.03149554610979417
-0.7383661894334937
0.5340727230592112
0.2006747674436313
0.303913927598337
-0.1165512230664515
-0.6955129640613877
0.1796335937711669
0.7298060148878779
-0.01027805786426643
-0.8136133302406753
0.8238913881042224
0.6963334257498028
-0.792017827466606
0.0956844017172221
-0.7536698018728659
-0.150860846564028
0.2118484281967273
-0.06098758165576066
0.07745070283167606
-0.1789128336465051
-0.113314459348728
0.2922272930081348
-0.005425139503294411
-0.008167476945476305
0.7066152720878761
-0.7168933312441246
0.8855366779435551
0.07663156968852883
-0.3172022680483132
-0.5174950206299328
0.8346972886722128
0.1039167908353418
-0.1039167907894437
0.3235067929700333
0.4728867869397277
0.6177705927760681
-1.090657379712194
-0.1941044062879395
-0.5856580499489008
0.7797624562370749
0.01368535572064565
0.220013849094811
0.3768069703369019
-0.2530528878964315
1.01415189923129
-0.5412651138752205
0.6660634003889528
0.9945218090373968
-0.3767512182007955
0.2291950457564947
0.8841810670943789
0.7127302448901688
0.2137848840634607
0.727732100102444
-0.7809981200315513
0.3412975305116736
-0.2769711684931145
0.2474584965113624
0.02951267198435209
0.8463608064586955
-0.005801671650207276
-0.8405591348039972
-0.7022146114187915
0.7025797335805625
0.5546410389515575
-0.7022146105300896
-0.71273024489009
0.7025797360070628
-0.03482374849102352
0.907709405166248
-0.02217272358952557
-0.6813210230882055
0.6123440454607361
0.06897697762748631
0.5386430738231784
0.5369298457830994
-1.075572919606351
0.4902069324494983
0.5239449659014405
0.5435028185623131
0.4587247432774545
-1.002227561838226
0.4957128481809945
0.4988089593501234
0.6123440431168246
-0.5255388816396513
-0.4653158190504008
-0.5567283107907679
-0.5175956354896687
-0.1190484598991586
-0.01229250156876008
0.01229250154809387
0.5129390010914434
0.5233103991600363
-1.040906034646506
0.5741596680200641
-0.273550959271908
-0.885205252530109
0.3439504326981136
-0.6331089903732149
0.3906150848955052
0.002551499262529055
-0.8280290287609317
0.8254775294983475
0.4208469245847905
-0.01868798711184006
0.8650487960239843
-0.9490810469809441
-0.833416829418077
0.05383249189763511
0.779584337519397
0.5668151233068043
-0.4397207784399471
-0.1270943448691158
0.6501379691786175
-0.729056931636056
0.88733247777765
-0.8313503235202619
-0.05598215426185678
-0.01064787484727932
-0.7880927393126629
-0.1099127322140766
0.7125983188495858
-0.602685586635217
-0.9367281102748183
0.9260802376725978
-0.724989775002605
0.6914706286801837
0.03351914632258782
-0.8110322355766091
0.03865386798741355
0.7723783675869345
0.06180288596346072
0.04211390835739089
0.4329395161616828
0.06174856598570581
-0.8517802034480908
0.7900316374657176
-0.6439044696951163
0.5898303785888223
0.8891892088909256
0.07086498999121749
-0.9600541988793723
0.05577237735597124
-0.04798069212419909
0.376635065815256
-0.3815987767960516
0.06572972224064673
0.8420638053315569
-0.8395123003748952
-0.7344006573656355
-0.8142246592471909
0.02613192006208901
-0.1630114491036523
-0.8527386935778763
0.021388370852126
0.6229571162834469
0.03955844378862811
0.03436649905497759
0.5324486207684209
-0.8078588102752637
0.8465126836359191
0.5658423522514735
-0.84671700408696
-0.8658631227904922
0.04184628371939087
-0.03288093940237446
0.8375650090243515
-0.8046840696230533
-0.02726115409551425
-0.7672815917462904
0.5443364335192143
0.151996992428102
-0.0297062092068924
0.8947550089967726
0.9799127265011413
0.8626836879039568
-0.8412953143874251
0.1477186430781184
-0.147718643031258
-0.1184254206553007
-0.4796807735356333
0.03995999535683416
0.2703305316096845
0.03158966617899871
0.3876624608102898
0.8674938598316534
0.006432955725022108
-0.01185808751251917
0.6585985393249594
0.3414014606744856
0.7836085489796824
-0.5834027063048645
-0.7781018016521832
-0.8104857319732005
-0.6798319819218658
0.6798319819219191
-0.1678668825383116
-0.1552625809555985
0.6021081403744681
-0.8121602273557005
0.2100520869807561
-0.4938373904780653
-0.5689920825084713
0.2781304143336059
-0.9722116579506918
-0.9015639710009187
0.8455818181664609
-0.8124425788083784
0.838574501723187
0.6487303336102487
0.134197453190827
-0.7829277868007972
-0.7769665939033414
-0.146091402493961
0.7242696995467498
-0.5781782970528375
0.03407011088399529
-0.01382233011248535
0.01778331593841089
-0.003960985856265795
-0.3546712332147509
-0.1250095367124593
0.8802385482888352
0.7470694604822266
-0.2468239276666245
-0.5002455328100938
0.6199751129348963
0.6854287690853806
-0.470605322882008
-0.0003438180971261475
-0.2853351440450437
0.0223333553003891
0.7487386561477426
-0.7710720114503026
-0.3234813312788379
-0.0730038288083899
0.07602319909796003
-0.9616038165123609
0.1210446864159855
-0.6779627828746433
0.05198486562982836
0.6406167297491745
-0.6926015953802879
-0.7563507490939072
0.07838796621966755
0.5879515883054706
-0.6609554171155894
0.1573101445528016
-0.3362229788327961
-0.7704536948684918
-0.006512899034324702
0.3711709021102683
0.6009771242081523
-0.02564378504799518
0.02113869523069602
-0.02113869520668524
-0.0193961621503366
-0.0490090608440036
-0.2279620949882931
0.02669149578821765
-0.02025857584430165
-0.7308952591181275
0.2792593902656243
0.6806054095193582
-0.6890767705055493
0.008471360980905965
-0.595083056420858
0.6470679299889508
0.6532774353984707
-0.06532584344803499
-0.6312286499502611
-0.1251221032200383
-1.050565702156505
0.01104247622893188
0.1366761583657239
-0.7085618993297427
-0.741141390080657
-0.7632111620574882
0.3656355286027966
-0.411031069827115
0.4631049979081565
-0.05207392807823943
-0.6667678308835294
-0.04179406844867857
0.501913507506258
0.7306826377776126
-0.2343687507757983
0.1136690924857434
0.9681167191742632
0.4463972879984701
0.1339344674815418
-0.5803317554788008
-0.6775521478379404
0.01078431867491634
-0.0447413393753886
0.03091900432633125
0.6363342637860603
-0.775312520665583
-0.001780232916865858
0.001780232933640019
-0.601223821150792
0.6483847032825949
-0.04716088213263479
-0.6431856433612627
-0.1130731936498007
-0.6715014510618652
0.05709884953532932
0.6030905756254059
-0.1371754798312755
-0.8175928432462324
-0.5639059788451308
0.5656964120663803
-0.001790433246071503
0.6312100910943679
-0.6227387174684236
0.3224500992777785
0.2141100746220346
-0.5365601738995163
-0.1048071288274195
-0.6016051182062372
-0.09099646483071233
-0.1548265408931728
-0.5068071165783551
0.4040871910738779
-0.4989744110013499
0.1269278314024247
0.6782975761606314
-0.8052254075629532
0.599226563595074
-0.3674181377065072
-0.04361295011049965
0.08317984666377842
-0.589986963207319
0.5517212727942885
-0.04060288244969408
-0.5111183903392504
-0.312688110002398
0.3052227616019427
0.007465348368794547
0.4546782175150779
0.1194814451007312
0.05167232823907551
-0.3161812931929693
0.1571120583754297
0.1590692348116415
0.2276859806313611
-0.008139058639045998
-0.2934321738109832
-0.3108658284416496
0.3564616725328182
-0.04559584416770066
0.7871080844670789
-0.6260718574273846
-0.01711378593019141
0.4992378084572536
0.2810656144028958
-0.5278895399941944
0.5775071401271181
-0.5775071401271237
-0.2897362067132771
-0.5864418843774144
-0.2955833143575932
-0.5864418846290155
-0.5944186721110228
-0.838511976967125
0.1699946409175517
-0.5861118480316561
0.8211079226808953
-0.003299861829331934
0.1182566789800071
0.4827204468110669
0.09673804757085451
0.1857848734177736
-0.0364533894371258
-0.14933148400195
-0.02041543017778882
0.5935498542229829
-0.9459684982860068
0.4284734761684431
-0.004327235691124631
0.003548433781946168
0.0007788019129057738
-0.6435041288791497
-0.1317236446183776
-0.4680363317581167
0.6019707937475836
-0.5036684015425923
-0.3271758092074171
-0.2628111327902504
-0.2710602916254876
-0.1118073315387515
0.111807331519062
0.1525312258666948
0.05931719415848513
0.1968273433966024
0.4549659423686551
-0.5729348849466966
0.1048985504744426
0.2431312686014355
0.466383309509953
0.533616690473193
0.6415027037287186
0.08794163873649864
-0.006344972909990169
-0.08159666582135888
-0.2769451486615186
-0.5406476945845735
-0.5517306248393113
0.1144032528892813
-0.1263219453318901
0.01191869243015825
-0.1056209181536665
-0.3857617072458019
-0.04641965637332634
0.6495102413281666
-0.498723048671103
-0.1447810802086068
-0.337907482005821
0.2913378048521703
0.1249189874851502
-0.6123399171245211
-0.2043202866403821
-0.2622416728887971
0.002662267527789846
-0.4222306065573814
0.3234324994066756
0.09879810714541783
-0.09536395720966948
0.2916622753640979
-0.8959385740756652
-0.4578232122103441
0.6290948104689196
-0.7730652384984132
0.6682581096698215
0.3412649074747652
-0.124690404984189
0.2246273042908837
-0.09993689928704916
0.02432921684407164
-0.5862953006084457
0.02912681756121115
0.5571684830531777
-0.9006772781046487
0.5473153614317262
-0.6657407820866541
-0.1003866773097079
0.1097208715565996
-0.1097208714903853
-0.316525112258575
0.3622363839399915
0.01439867460496022
0.03134218240720606
0.0565994261239272
0.5052684820214327
0.6621839038583049
-0.7381878278894618
0.03275975762953443
0.02287564097075786
-0.001736938183582763
-0.007254880707071234
0.00725488068424831
-0.4165687904617754
0.5360502280958628
0.0154468642210263
-0.0154468642238497
-0.7923022147456431
-0.06105401778094318
0.1228569041575553
-0.457072263680509
0.5619708067766361
0.451984165953941
-0.4991450529256093
0.150059393032159
-0.1500593929935874
0.03207876926082789
-0.002179435779229083
-0.04222783160839978
-0.9759925362226152
0.5389925285571558
-0.4686427378109759
0.0421139109222985
0.5146497374452238
0.03101106438913001
-0.5456608018298832
-0.6161757807996808
0.1174527353216418
-0.329379515469131
0.01344726090284754
0.315932254590773
-0.1551935176227993
-0.07917524720323209
-0.5408914765069712
-0.04540382276711417
0.1366761667550009
-0.04014969667281036
0.03836946850334267
0.08077937500890221
-0.08077937507853153
-0.5339439058373279
0.488348075586443
-0.4146103292806798
0.1613311196056063
0.622277429373031
-0.09761131804092507
-0.003355377644603991
0.003355377632974603
0.5329416880398717
-0.07989128942551546
0.005804088596446814
0.02695529779444296
0.0348590181442758
0.6845072534239368
-0.764398542847519
-0.6534240303495803
0.6363102481391654
-0.1064063319411534
0.3132881232353886
0.7460426834655457
-0.01939616219372863
-0.2668712855280197
0.1503200797730681
-0.7446363559411315
0.4842298179507099
-0.4258225837995159
-0.1015260367821181
0.003444956109486046
-0.01428741995006573
0.02034655883411679
0.4109096131333924
-0.1215793074042606
-0.389539089514754
0.6287905085883465
0.01954740277652467
0.01055561919628872
-0.01055561919368132
-0.3530194601695232
-0.07897796327586726
-0.5604456679248616
0.5571458060990649
-0.2380048629818504
0.464761264947976
-0.1511816168758438
0.7296645885389896
0.6719378158710337
-0.04014970499587208
-0.6165913943974387
0.5630850732679462
0.2886350763845626
-0.2854416867653436
-0.003193389637247864
0.5409462987457783
0.09339009709974425
-0.03904190831198836
0.1963457470737358
-0.1573038387724071
0.1198212708073481
-0.1198212708751387
-0.8587282891989628
0.002340762870307152
-0.1134854264683457
0.1404407242929592
-0.1317938338838936
0.1317938338557942
0.02287564665944415
-0.02275153251701528
0.6701971051980071
0.0596089143820746
-0.3228823310200602
-0.0628793762297729
-0.471224212839801
-0.04927239581316176
-0.15148383937541
0.1514838393354444
-0.04951789031379646
0.1434503154523759
-0.1434503154179158
0.1363356420683831
-0.1363356421213731
-0.3158363053817106
-0.1146756663050511
0.2263209140579476
0.1030250338570267
0.0348369029914181
-0.8211221957818947
-0.1982294967888838
0.1701413505122014
0.02114436565992231
-0.2649204552094631
0.1259487531276858
-0.1259487530973529
-0.4141513371165614
-0.08482307139313745
0.2361817535630451
0.002455079107556762
0.04062967188516365
-0.5435026789024004
0.5783264273937575
-0.03202888120971184
-0.01748900912129154
-0.02783153377011807
0.0256520848368701
0.006609083946712095
-0.1845319642188831
0.1779228802734076
-0.10858707493103
-0.2276359035296248
-0.1446118798352519
0.1446118797993714
0.07276856475007208
-0.0727685647678081
-0.01926271040333027
-0.1086078964630091
0.1278706068863287
0.2405196098558433
-0.183062651878814
-0.02879876418398983
0.02706181780339714
-0.1369069854797418
0.6252550569307384
-0.0390387778081276
0.4250638179521453
-0.04327030889905004
0.0639665861546148
-0.1531974759123595
0.1531974758649276
-0.6366139602348974
0.3085680511502167
-0.07937300537074454
-0.2344037598771201
0.003564877304551751
-0.1210778902218732
0.1617075620854205
0.1957376588403596
0.0964896314687969
0.09672832928385137
-0.06186931114111851
0.07279998605428402
0.0416032738586225
0.06398853793011372
0.1061528204756885
-0.09685538907014427
0.2105245091762689
0.01233585332481592
-0.1171139588685271
-0.1001401359124717
0.09710950889187261
0.003030627059183392
0.0123200321421644
-0.02372290012031699
0.0376895933827287
-0.03768959338552439
0.07526785620125884
-0.05500057735784199
0.05500057734941819
-0.2244867132423176
-0.05314737969027423
0.01150768412314732
-0.1030585945275563
0.01651437065089749
0.1085225499945175
-0.1085225499751202
0.2945357719724446
-0.2713240805385091
0.162737002150032
-0.05100510426340148
-0.2203189781574365
-0.01731162481951377
0.01731162483047138
0.3674958725208642
0.285226723263458
-0.5277723183735443
-0.09397782713400742
-0.03234411724015593
0.5288269986035735
0.2126880838515711
-0.1703816633771806
-0.3799573040511849
0.07647156673937963
-0.1475588978315281
0.1870956206261568
-0.03953672280516199
-0.06691926298639486
0.06691926299989091
0.8225142502049845
-0.5605907611230082
-0.005952989443777774
0.01827302158143982
-0.01998649947914859
-0.2869862310557932
-0.0175015365604744
-0.01281804402953167
-0.1319573862544988
-0.572131356780868
0.556047284412299
-0.5694368701735762
-0.006871951198643817
0.102825728431244
-0.001713633182180718
0.01686184366818488
-0.1675453939828453
-0.3363643092593299
0.2333057147365132
-0.05434168448619263
0.03507897045934676
0.1318346385803019
0.1733881183550992
0.3383900649841569
0.2763416675726397
-0.2780553007377909
-0.06177066123227687
-0.1551515850384355
-0.2209565021281872
0.07471967053994906
-0.01073112999927053
0.2138305115194441
-0.1969686678383307
-0.08629577650670819
0.1590957586773339
-0.3553267994692026
0.2083089382294543
-0.191794567579237
0.08957660731916994
-0.4791156952259483
0.1742775806206447
0.1702315472435362
-0.2565273255030905
0.07300543026713323
-0.1945681494205281
0.177066612849004
0.01742622918622439
0.1416695247612
-0.03955369749091247
0.06590938345816663
0.467032304569756
0.02037797943515323
-0.08103796753498617
0.05424563633201672
0.1261532976303086
-0.2604932308765383
-0.2308879282250216
0.5597336329933771
0.1574681881687379
0.07871356821740093
0.07511652951375578
-0.03093217349653668
-0.01171149366090058
0.008518121433211415
-0.0327584782384875
0.1709704971799244
-0.1778424483657888
-0.06069140862586431
0.02110882652612452
-0.1469907179229772
-0.05289861984965873
0.1498330799389488
0.2770641069143508
-0.03869239657807445
0.01394059416353667
-0.2556765053935234
-0.132322625659465
0.2359612717540632
0.1787152299441823
0.1298528240108095
0.02203594475922886
0.08883182681335536
0.05233036229064653
0.4529381197304886
0.01536648163511751
0.09745808885594791
0.04348960075939537
0.07189781841248952
-0.115387419207263
-0.2425455894970168
-0.2007511798810451
-0.01956779944936631
-0.2020515879354664
0.2752442937423618
)
;

boundaryField
{
    FrontBack
    {
        type            empty;
    }
    Top
    {
        type            calculated;
        value           uniform 0;
    }
    In
    {
        type            calculated;
        value           uniform -1;
    }
    Bottom
    {
        type            calculated;
        value           uniform 0;
    }
    Out
    {
        type            calculated;
        value           nonuniform List<scalar> 10(1.033709750335116 1.064181954142196 1.022044129841307 1.019657814595297 0.995654586817053 1.016404594408845 1.03624939994309 1.062829472987047 0.8672433463620179 0.8820251987342902);
    }
    circle
    {
        type            calculated;
        value           uniform 0;
    }
}


// ************************************************************************* //
