/*--------------------------------*- C++ -*----------------------------------*\
| =========                 |                                                 |
| \\      /  F ield         | OpenFOAM: The Open Source CFD Toolbox           |
|  \\    /   O peration     | Version:  2412                                  |
|   \\  /    A nd           | Website:  www.openfoam.com                      |
|    \\/     M anipulation  |                                                 |
\*---------------------------------------------------------------------------*/
FoamFile
{
    version     2.0;
    format      ascii;
    arch        "LSB;label=32;scalar=64";
    class       surfaceScalarField;
    location    "14.2";
    object      phi;
}
// * * * * * * * * * * * * * * * * * * * * * * * * * * * * * * * * * * * * * //

dimensions      [0 3 -1 0 0 0 0];

oriented        oriented;

internalField   nonuniform List<scalar> 
1171
(
-0.945394
0.945394
0.772391
-1.08293
0.310534
-0.242861
-0.753211
0.996071
0.0546058
-0.0669246
-0.27852
0.345444
-0.772391
0.0908484
0.681543
0.930424
-0.21557
-0.714854
0.840333
-1.04193
0.201596
-0.357967
-0.0379674
0.395934
-0.00443105
0.606779
-0.602348
-0.540179
0.936059
-0.395879
-0.424891
1.00814
-0.167806
0.223947
0.0992675
-0.323214
0.981035
0.0271043
0.261638
-0.0376906
1.00246
-0.0214286
0.660093
-0.902954
-0.784836
0.607518
0.177318
0.259776
-0.799955
0.556914
-0.913521
0.356607
-1.08104
0.671715
0.409329
-0.645868
0.641437
0.0299909
-0.248775
0.218784
0.0413588
-0.63738
0.596021
0.468116
-0.506083
-0.839309
0.859676
-0.020367
0.991524
0.0109401
0.890626
-1.05142
0.160793
0.995236
-0.00371183
-0.698063
-0.0867726
1.23473
-0.833685
-0.40105
0.155927
-0.0790594
-0.412306
0.491365
-0.273386
0.187093
0.0862934
-0.604816
-0.47811
0.963465
-0.0728383
-0.0283546
0.878192
-0.849837
0.519539
0.715196
0.527719
0.0217301
0.446385
-0.791079
-0.105931
0.89701
0.576548
0.235257
-0.811805
0.0569143
0.594996
-0.65191
-0.510245
-0.570799
-0.37885
-0.67257
0.0274774
0.247052
-0.27453
-0.946996
-0.0372586
0.984254
0.376126
0.0198084
0.832254
0.0981704
-0.604435
-0.0414328
0.0353487
-0.826428
0.0974867
0.899602
-0.997088
-0.405005
0.0302891
0.374716
-0.712976
-0.23402
-0.685162
0.782649
0.689989
0.246069
-0.580618
0.994009
-0.817799
-0.176211
-0.142046
0.022514
0.119532
-0.460488
-0.045595
-0.295719
0.985708
-0.00560663
0.43485
-0.429243
-0.500191
1.07674
0.714637
-0.820568
0.396675
-0.0742411
-0.322434
0.762774
-0.762774
-0.896071
0.040506
-0.319026
-0.690078
0.661724
-0.0337497
-0.145589
0.179339
0.883723
-0.0055312
1.03286
-0.797603
0.225892
-0.322404
0.0965123
0.965857
-0.133604
-0.674646
-0.0489052
0.723552
0.148457
-0.229847
0.0813902
0.789902
-1.00547
-0.439092
0.309204
0.129888
0.681528
-0.640169
0.851051
-0.384397
-0.466655
0.472202
-0.693546
0.0350471
0.658498
0.154052
0.663479
0.0483544
-0.711833
0.136584
-0.096078
-0.509374
0.104369
0.0351128
-0.905104
0.869992
-0.538112
-0.758169
0.0601054
0.501596
-0.0552108
0.276279
-0.833654
0.557375
0.424533
0.575467
0.600284
-0.564936
-0.391068
-0.0159782
0.407046
0.556891
0.205883
-0.671928
0.728842
0.0892907
0.88075
0.00400498
-0.678651
-0.764205
0.799318
0.614574
0.103333
0.357061
-0.460394
-0.154713
0.550458
0.044538
0.905851
-0.827486
-0.0783648
0.655931
0.338079
-0.43301
0.694252
-0.59092
0.409101
0.147813
-0.0570457
-0.706346
-0.211897
0.918243
-0.12978
-0.632995
-0.613168
0.361918
0.25125
0.660168
-0.656163
0.311695
1.01842
0.0144411
-0.764205
-0.189522
0.0474756
0.714637
0.784383
-0.784383
0.844999
-0.831379
-0.0136201
-0.45392
0.878453
-0.192618
-0.316756
0.763347
-0.669793
-0.0935541
-0.895716
0.18937
0.10986
-0.714295
0.820568
-0.975281
-0.197655
0.190883
0.00677193
0.114395
-0.985491
0.871096
0.547869
-0.0201493
-0.288641
0.594232
-0.305591
-0.645527
0.759922
-0.157631
0.680661
-0.882329
0.201669
1.06993
-0.624196
-0.445735
0.727337
-0.0711336
0.000664037
-0.00127265
0.000608609
-0.799601
-0.886752
0.133541
-0.690078
0.575271
-0.544982
0.172585
0.660412
-0.832997
0.777825
0.167569
0.491459
0.508541
-0.069194
-0.710063
0.779257
0.933831
-0.0279804
-0.727337
0.799318
0.181766
-0.430541
-0.0312837
0.0170117
0.0142721
0.673123
-0.430187
-0.242936
0.681543
-0.0558891
-0.206091
0.565257
0.107866
-0.0183795
0.000802003
0.0175775
0.00607627
-0.00541223
0.13973
-0.213971
-0.942014
0.0329287
-0.142695
-0.057925
0.134417
0.781021
0.741813
-0.166346
0.599255
-0.42667
-0.163224
0.389116
0.631086
0.0504567
0.229543
-1.06092
-0.975281
0.320915
0.661724
-0.162793
0.0172038
-0.81395
1.00758
-0.193629
0.480389
-0.105673
0.798858
0.306454
0.26774
-0.00610201
-0.680307
0.680307
0.227124
0.669886
-0.0218767
0.456726
0.469488
0.00471558
-0.0359993
0.542565
0.00530333
-0.645527
0.570058
0.193289
-0.00721167
0.00593902
-0.631086
0.170834
0.836745
-0.0171825
-0.711779
0.728961
0.760537
-0.82138
0.0608439
-0.777825
-0.0341297
0.048078
-0.0139483
0.086479
-0.118333
-0.102476
0.220809
-0.00652661
-0.0118529
0.712081
-0.729264
0.915939
0.0801328
-0.362361
-0.533443
0.895804
-0.00153487
0.00153487
0.174905
0.469624
0.616451
-1.08608
-0.195069
-0.541567
0.736636
-0.0200016
0.19934
0.38035
-0.231893
1.05854
-0.588916
0.792079
1.04127
-0.424815
0.187732
0.759922
0.592116
0.21376
0.645916
-0.632995
0.319693
-0.0232915
-0.00714815
0.0304396
0.92042
0.00273264
-0.923152
-0.570687
0.566976
0.54608
-0.570687
-0.592116
0.566976
0.00960003
0.948815
-0.0328761
-0.556891
0.502997
0.0538942
0.527079
0.586282
-1.11336
0.508097
0.550444
0.596877
0.49266
-1.08954
0.533629
0.507636
0.502997
-0.496009
-0.494982
-0.607329
-0.572393
-0.221918
-0.00696734
0.00696734
0.574949
0.528497
-1.10089
0.71317
-0.356109
-1.01411
0.389911
-0.687356
0.453336
-0.0365262
-0.923557
0.960083
0.453172
-0.0707333
0.991153
-1.04752
-0.983756
0.0738118
0.909945
0.296363
-0.213414
-0.0829489
0.719265
-0.792104
0.957211
-0.941552
-0.0156598
-0.0186882
-0.808798
-0.188662
0.88941
-0.700748
-1.01046
0.991777
-0.690858
0.587048
0.10381
-0.757452
-0.00266495
0.760117
0.00355357
-0.00508844
0.424092
0.0903118
-0.931473
0.841161
-0.802986
0.733792
1.03445
0.0957127
-1.13016
0.0506936
-0.0114592
0.418506
-0.361564
0.0391596
0.912695
-0.949221
-0.677319
-0.79418
-0.0146177
-0.159606
-0.922285
-0.0192664
0.48919
0.110065
-0.0657645
0.362127
-0.733098
0.730433
0.466655
-0.99429
-0.914752
0.0340628
-0.0432696
0.701875
-0.658605
0.0377976
-0.720589
0.5785
0.182037
0.0312234
0.95993
1.06559
0.920533
-0.939799
0.0465664
-0.0465664
-0.0749125
-0.081173
-0.132241
0.339952
-0.0190375
0.21185
0.997727
0.0124394
-0.018966
0.658102
0.341898
0.797914
-0.604816
-0.747147
-0.655873
-0.546609
0.546609
-0.209279
-0.109747
0.645118
-0.93251
0.287392
-0.494663
-0.538603
0.331716
-1.00429
-0.95966
0.944
-0.768501
0.753883
0.652046
0.205186
-0.857232
-0.552062
-0.189322
0.859326
-0.670004
-0.0380674
0.010398
0.00176643
-0.0121645
-0.0187283
-0.0624447
0.976834
0.609877
-0.279529
-0.330348
0.526928
0.751164
-0.52404
0.0145971
-0.287984
0.0199993
0.772356
-0.792356
-0.35224
-0.0741441
0.145085
-1.03624
0.113091
-0.727324
0.123529
0.724538
-0.848067
-0.881485
0.154161
0.716574
-0.790718
0.233554
-0.351886
-0.56988
0.0178179
0.368208
0.722158
-0.0279059
-0.00369712
0.00369712
-0.00616534
0.00915304
-0.0324445
-0.0143114
0.0267508
-0.459815
0.342156
0.742019
-0.822709
0.0806899
-0.690746
0.814275
0.804457
-0.0878838
-0.694278
-0.187206
-1.10199
0.0210272
0.0255392
-0.439816
-0.88294
-0.842953
0.441903
-0.199256
0.250627
-0.0513706
-0.403561
-0.0362544
0.509016
0.712708
-0.0458829
-0.0120421
1.01843
0.521222
0.178605
-0.699827
-0.351083
-0.0524781
-0.0021567
0.0125547
0.71877
-0.930666
0.00507363
-0.00507363
-0.720202
0.752172
-0.0319696
-0.416848
-0.123687
-0.694938
0.150812
0.628446
-0.0541313
-0.88426
-0.358026
0.266782
0.0912441
0.762258
-0.681568
0.349277
0.254654
-0.603931
-0.16417
-0.703595
-0.144473
-0.19898
-0.207214
0.470758
-0.516353
0.178494
0.737567
-0.916061
0.472202
-0.196359
-0.00289693
-0.0504216
-0.156793
0.594378
-0.0944585
-0.49992
-0.287098
0.308061
-0.0209636
0.566916
0.146253
0.100863
-0.313731
0.171824
0.141907
-0.119916
-0.0696051
-0.306888
0.170338
-0.0725158
-0.0978221
0.90517
-0.288394
-0.128454
0.554665
0.314985
-0.594514
0.465127
-0.465127
-0.228228
-0.460784
-0.235731
-0.460784
-0.68826
-0.850439
0.180646
-0.420635
0.725422
0.0493958
0.145357
0.576801
0.109821
0.119313
0.0100792
-0.129392
-0.153853
0.667492
-1.00523
0.471786
-0.0374305
0.0663599
-0.0289294
-0.757888
-0.177839
-0.568317
0.746922
-0.515077
-0.0372252
-0.119568
-0.341471
-0.079585
0.079585
0.0484435
-0.000365429
0.14034
0.181021
-0.712273
0.143957
-0.0445787
0.473311
0.526689
0.834655
0.0159136
0.0187973
-0.0347109
-0.301598
-0.582662
-0.532579
0.115832
-0.12041
0.00457868
-0.104163
-0.411214
-0.143909
0.772355
-0.589387
-0.168502
-0.0147112
-0.00249609
0.217495
-0.462924
-0.1992
-0.189372
-0.0245987
-0.471006
0.430246
0.0407603
-0.0376978
0.294974
-0.865773
-0.534515
0.618502
-0.871984
0.707814
0.445267
-0.0305962
0.0542102
-0.023614
0.132707
-0.634465
-0.00847205
0.642937
-0.893353
0.651323
-0.726236
-0.0612285
0.00707713
-0.00707713
-0.299133
0.427491
-0.00898524
-0.0052091
0.0211227
0.586668
0.61429
-0.692654
0.0118026
0.000241479
-0.00393859
0.00513578
-0.00513578
-0.479677
0.62593
0.0157319
-0.0157319
-0.779707
-0.00819955
0.0117531
-0.500044
0.644
0.580731
-0.612701
0.0698029
-0.0698029
-0.00466329
-0.031336
0.0099682
-1.03761
0.591873
-0.531048
-0.00508844
0.6072
0.00546518
-0.612665
-0.713716
0.124329
-0.314194
-0.0131756
0.32737
-0.0238447
-0.0220382
-0.608035
-0.0264299
0.0255392
0.00559928
-0.000525644
-0.0030435
0.0030435
-0.306908
0.209086
-0.462725
0.134704
0.66321
-0.123026
0.00546354
-0.00546354
0.508358
-0.100797
0.00861199
0.0184621
4.73402e-05
0.615502
-0.716299
-0.751209
0.622755
-0.103557
0.331503
0.76589
-0.00616534
-0.0842954
0.0902344
-0.657885
0.547341
-0.279173
-0.106516
-0.029535
-0.0262088
0.0044859
0.474792
-0.0853131
-0.414607
0.702283
0.00183157
0.00325662
-0.00325662
-0.205344
-0.125887
-0.569762
0.619158
-0.133072
0.508919
-0.18473
0.844823
0.821653
0.00559928
-0.721136
0.615562
0.0374961
0.00302493
-0.040521
0.585058
0.0858242
-0.0116793
0.064777
-0.0530977
0.00863582
-0.00863582
-0.766831
0.0232365
-0.0442617
0.0627238
-0.0853378
0.0853378
0.000241479
-0.000701801
0.747625
0.08912
-0.315738
-0.0954766
-0.521006
0.0227849
-0.065847
0.065847
-0.0393742
0.0820051
-0.0820051
0.0259801
-0.0259801
-0.358146
-0.0748643
0.238774
0.0704301
0.0378697
-0.73174
-0.0623308
0.159484
0.0222822
-0.237453
0.0819456
-0.0819456
-0.467703
-0.0486499
0.2282
-0.00941546
0.00255578
-0.666388
0.656788
0.00246738
-0.0418416
0.0432638
-0.0745998
-0.0122022
-0.158091
0.170294
-0.148729
-0.203158
-0.0803922
0.0803922
0.0539175
-0.0539175
-0.0276345
-0.0936056
0.12124
-0.0401867
-0.190585
0.000361874
-0.00430047
-0.183707
0.392793
-0.0256675
0.460294
0.00925142
0.00832611
-0.0501557
0.0501557
-0.734708
0.315176
-0.127444
-0.20691
-0.0229368
-0.0166676
0.0192234
0.19222
0.0285894
-0.00214788
0.00219522
0.0858129
0.0300189
0.0564625
0.103021
-0.0216084
0.00956629
-0.00181701
0.00514241
0.00491633
0.000887148
-0.00580347
-0.00301514
0.011083
0.0271372
-0.0271372
0.0481094
-0.0436054
0.0436054
-0.18974
0.0134685
0.0302718
-0.0754202
0.0173443
0.078203
-0.078203
0.23298
-0.233692
0.084963
-0.066215
-0.167477
-0.0147245
0.0147245
0.407864
0.250635
-0.52137
-0.0805298
-0.0398806
0.542567
0.00307709
-0.055706
-0.459665
0.067537
-0.151376
0.168364
-0.0169877
-0.0481841
0.0481841
0.833427
-0.589623
-0.00455936
0.00154422
-0.00575281
-0.287586
-5.9497e-05
0.0049456
-0.045127
-0.630556
0.569656
-0.661706
0.0145452
0.134221
0.0156913
0.0241756
-0.157129
-0.332787
0.257367
-0.0544148
0.0267803
0.173
0.135062
0.234635
0.261999
-0.246308
0.00439068
-0.114586
-0.220086
0.0668275
-0.010365
0.158731
-0.134555
-0.0684448
0.154258
-0.407052
0.119313
-0.101968
0.0583706
-0.472977
0.17331
0.180025
-0.24847
0.00893511
-0.179115
0.179055
0.00374263
0.150515
-0.0278735
0.0478834
0.460475
0.0124127
0.0116204
-0.00149576
0.036515
-0.237073
-0.202899
0.591366
0.166643
0.0615564
0.073934
-0.0641385
0.0500815
-0.0906025
-0.0304564
0.164918
-0.150373
0.0161063
-0.00885983
-0.106155
-0.0285995
0.0256726
0.251784
-0.014398
-0.0245183
-0.308831
-0.00856968
0.219185
0.138053
0.177123
0.0567625
0.0955726
0.0565898
0.530078
-0.00762049
0.106563
0.0408214
0.0677542
-0.108576
-0.270735
-0.194816
0.0273389
-0.221193
0.281492
)
;

boundaryField
{
    FrontBack
    {
        type            empty;
    }
    Top
    {
        type            calculated;
        value           uniform 0;
    }
    In
    {
        type            calculated;
        value           uniform -1;
    }
    Bottom
    {
        type            calculated;
        value           uniform 0;
    }
    Out
    {
        type            calculated;
        value           nonuniform List<scalar> 10(1.10497 1.02309 1.10231 1.08407 1.07894 1.08003 1.10345 1.03327 0.693355 0.696516);
    }
    circle
    {
        type            calculated;
        value           uniform 0;
    }
}


// ************************************************************************* //
