/*--------------------------------*- C++ -*----------------------------------*\
| =========                 |                                                 |
| \\      /  F ield         | OpenFOAM: The Open Source CFD Toolbox           |
|  \\    /   O peration     | Version:  2412                                  |
|   \\  /    A nd           | Website:  www.openfoam.com                      |
|    \\/     M anipulation  |                                                 |
\*---------------------------------------------------------------------------*/
FoamFile
{
    version     2.0;
    format      ascii;
    arch        "LSB;label=32;scalar=64";
    class       surfaceScalarField;
    location    "2.5";
    object      phi;
}
// * * * * * * * * * * * * * * * * * * * * * * * * * * * * * * * * * * * * * //

dimensions      [0 3 -1 0 0 0 0];

oriented        oriented;

internalField   nonuniform List<scalar> 
1171
(
-0.92294
0.92294
0.864955
-1.1273
0.262341
-0.185817
-0.694265
0.880082
0.0770604
-0.0786018
-0.271209
0.349811
-0.864955
0.0620352
0.802919
0.820578
-0.153942
-0.666635
0.819181
-0.989698
0.170518
-0.329546
-0.0598492
0.389396
-0.0672839
0.605073
-0.537789
-0.498311
0.827908
-0.329597
-0.408148
0.991049
-0.171868
0.399847
0.0322209
-0.432068
0.986358
0.0046914
0.403013
-0.00316548
0.995724
-0.00936682
0.595967
-0.781784
-0.743288
0.558231
0.185056
0.208941
-0.707252
0.564556
-0.917472
0.352916
-1.04088
0.637123
0.403758
-0.646561
0.579277
0.0313481
-0.251975
0.220627
-0.0495846
-0.585909
0.635494
0.424153
-0.484002
-0.856082
0.873449
-0.0173668
0.998725
-0.00300018
0.893627
-1.07657
0.182945
1.00473
-0.00601023
-0.700145
-0.0431429
1.1893
-0.807417
-0.381884
0.148653
-0.147786
-0.342749
0.490535
-0.264167
0.173542
0.0906245
-0.628815
-0.498481
1.00113
-0.107507
0.0165436
0.786502
-0.803046
0.517167
0.672135
0.457287
-0.0403665
0.464519
-0.791213
-0.0732953
0.864508
0.508535
0.250176
-0.758711
-0.0353635
0.587043
-0.55168
-0.494248
-0.546632
-0.382593
-0.693979
0.0215236
0.239599
-0.261122
-0.884196
-0.0264857
0.910682
0.340101
0.049295
0.767753
0.052825
-0.593571
-0.0529906
0.02464
-0.815853
0.0820231
0.870821
-0.952844
-0.374811
-0.0139019
0.388713
-0.651317
-0.232879
-0.629418
0.711441
0.608656
0.219252
-0.578156
0.910831
-0.748074
-0.162757
0.0699726
-0.00888552
-0.0610871
-0.431209
-0.052793
-0.244801
0.853457
0.0683697
0.366194
-0.434564
-0.463084
0.971619
0.737151
-0.810446
0.363365
-0.0156366
-0.347729
1.03623
-1.03623
-0.792681
0.0527538
-0.323963
-0.780516
0.797059
-0.0554894
-0.152726
0.208215
0.841939
-0.0554366
1.01194
-0.761761
0.21556
-0.322979
0.107419
0.850632
-0.0828789
-0.634264
-0.0400332
0.674297
0.144338
-0.235724
0.0913861
0.757459
-0.911401
-0.446065
0.325757
0.120308
0.564644
-0.614229
1.04216
-0.425668
-0.616492
0.659568
-0.695829
0.0446863
0.651143
0.091921
0.600252
0.0603934
-0.660645
0.152579
-0.0998249
-0.501459
0.126648
0.0575339
-0.918286
0.860752
-0.553688
-0.787531
0.0873864
0.476712
-0.0121922
0.269566
-0.828722
0.559156
0.411673
0.588327
0.578539
-0.553899
-0.431735
0.0878201
0.343915
0.786888
0.249342
-0.609998
0.574635
0.133963
0.819494
0.00998708
-0.644251
-0.756343
0.813877
0.560219
0.0666519
0.325263
-0.391915
-0.17873
0.441373
0.14567
0.91379
-0.831459
-0.0823306
0.607796
0.303035
-0.409686
0.595534
-0.528882
0.414717
0.149839
-0.0435213
-0.578283
-0.138233
0.716516
-0.193717
-0.842513
-0.596555
0.34945
0.247105
0.642718
-0.632731
0.294322
0.964942
0.0469951
-0.756343
0.258567
-0.188595
0.737151
0.850523
-0.850523
0.830899
-0.865076
0.0341761
-0.464192
0.875865
-0.183864
-0.317595
0.803535
-0.682721
-0.120814
-0.7111
0.132817
0.138334
-0.731905
0.810446
-0.989176
-0.314356
0.231294
0.0830617
0.153025
-0.958998
0.805973
0.517832
-0.0605453
-0.290371
0.616293
-0.325922
-0.824769
0.977794
-0.105356
0.644315
-0.755233
0.110918
0.965726
-0.566955
-0.398771
0.807001
-0.08602
-0.0321409
0.0567345
-0.0245936
-0.840522
-0.756836
0.0625709
-0.780516
0.543477
-0.557379
0.0975523
0.63184
-0.729392
0.722167
0.200773
0.511983
0.488017
-0.0886454
-0.543924
0.63257
0.923159
-0.00936914
-0.807001
0.813877
0.174699
-0.426675
-0.0513999
0.0192182
0.0321817
0.641776
-0.454343
-0.187432
0.802919
0.0838144
-0.112521
0.480676
0.1611
-0.0366122
0.00206712
0.0345451
-0.00258689
-0.029554
0.24003
-0.255666
-0.955879
0.00594374
-0.142002
-0.0743263
0.107636
0.726819
0.759605
-0.171278
0.734578
-0.637026
-0.1625
0.37806
0.777774
0.0251458
0.218053
-1.08313
-0.989176
0.327908
0.797059
-0.178809
0.0260831
-0.732762
0.928424
-0.195662
0.465293
-0.0765802
0.774732
0.304171
0.280522
0.122491
-0.686662
0.686662
0.19412
0.670388
-0.0808044
0.446999
0.409731
-0.011777
-0.0396229
0.468489
0.0493434
-0.824769
0.622469
0.181066
0.111488
-0.0547539
-0.777774
0.183725
0.744699
-0.0145514
-0.745925
0.760476
0.772921
-0.850851
0.0779302
-0.722167
-0.0573634
0.0781923
-0.0208289
0.0825278
-0.166517
-0.115367
0.281883
-0.0224581
-0.0141541
0.674223
-0.688774
0.816191
0.0638917
-0.319619
-0.493975
0.813593
3.9091e-05
-3.9091e-05
0.319114
0.450881
0.606084
-1.05696
-0.180567
-0.569583
0.75015
-0.0123457
0.220561
0.388401
-0.244063
0.973143
-0.522262
0.657795
1.02153
-0.415448
0.204538
0.977794
0.805925
0.202034
0.671414
-0.842513
0.313338
-0.133812
0.198038
-0.0642264
0.802209
-0.00394699
-0.798262
-0.796558
0.790548
0.535808
-0.796558
-0.805925
0.790548
-0.0453542
0.845849
-0.0296587
-0.786888
0.715214
0.0716738
0.513476
0.559379
-1.07286
0.465888
0.507255
0.557654
0.445119
-1.00277
0.509396
0.512135
0.715214
-0.514754
-0.454519
-0.565177
-0.504378
-0.123393
-0.0144176
0.0144176
0.511206
0.503248
-1.00763
0.585912
-0.260649
-0.928792
0.361838
-0.631102
0.398223
0.0144727
-0.825561
0.811089
0.469235
-0.0117467
0.813956
-0.949037
-0.879896
0.0651507
0.814745
0.640537
-0.520952
-0.119585
0.625202
-0.732709
0.864573
-0.825483
-0.0390905
-0.00257145
-0.828888
-0.120818
0.716516
-0.595698
-0.845475
0.842904
-0.793411
0.746555
0.046856
-0.836288
0.0207488
0.815539
0.00624641
-0.00620732
0.419406
0.0844635
-0.888655
0.804191
-0.658081
0.569435
0.918325
0.0468331
-0.965158
0.0384286
-0.0925194
0.436434
-0.37407
0.0510905
0.870023
-0.855551
-0.772396
-0.862746
0.033858
-0.102551
-0.842423
0.01694
0.682493
0.0520851
0.0307739
0.609763
-0.810633
0.831382
0.616492
-0.837308
-0.798642
0.0472071
-0.0367301
0.835132
-0.798402
-0.031334
-0.809126
0.60126
0.171661
-0.0244992
0.838455
0.908055
0.891655
-0.874715
0.0519533
-0.0519533
-0.133553
-0.562162
0.0412095
0.300601
0.0273072
0.364336
0.807121
0.003092
-0.0255501
0.645183
0.354817
0.816154
-0.628815
-0.736615
-0.802349
-0.773181
0.773181
-0.208783
-0.11518
0.604643
-0.811378
0.206736
-0.470883
-0.548951
0.283598
-0.977578
-0.836959
0.797869
-0.801543
0.835401
0.653096
0.125979
-0.779075
-0.755493
-0.153643
0.760958
-0.607315
0.0298383
-0.00392129
0.0125776
-0.00865634
-0.447872
-0.11429
0.888241
0.665397
-0.233765
-0.431631
0.545812
0.668468
-0.474348
0.0115242
-0.275691
0.0143186
0.691326
-0.705645
-0.324482
-0.083446
0.0891337
-0.918109
0.119847
-0.685399
0.0619226
0.664268
-0.726191
-0.779846
0.0944468
0.626974
-0.71042
0.218565
-0.385081
-0.763024
0.00753145
0.381617
0.624755
-0.0292207
0.00853819
-0.00853819
-0.0123505
0.0139742
-0.147786
-0.0348024
0.0378944
-0.710939
0.272356
0.70076
-0.717093
0.0163332
-0.578212
0.640134
0.692449
-0.0654743
-0.641199
-0.138646
-1.03606
0.0212962
0.0306571
-0.696621
-0.762018
-0.743966
0.362082
-0.283878
0.405903
-0.122025
-0.653828
-0.0427922
0.507711
0.722244
-0.104105
0.029779
0.910578
0.452684
0.14856
-0.601244
-0.655013
0.00118455
-0.0263865
0.0224652
0.652167
-0.790401
0.00824948
-0.00824948
-0.619785
0.657104
-0.0373195
-0.624239
-0.118764
-0.64906
0.081138
0.551432
-0.0697091
-0.802703
-0.519171
0.526097
-0.00692584
0.615475
-0.599142
0.328067
0.232009
-0.560076
-0.10985
-0.631868
-0.0943231
-0.167101
-0.438033
0.439821
-0.492614
0.133296
0.703017
-0.836313
0.659568
-0.363755
0.0798774
0.0846381
-0.522671
0.566699
-0.0623101
-0.504389
-0.290754
0.307293
-0.0165389
0.430649
0.155263
0.0605809
-0.307682
0.161619
0.146063
0.306671
-0.0481038
-0.291332
-0.391309
0.454798
-0.0634889
0.777642
-0.601711
-0.0225282
0.536134
0.26645
-0.500215
0.657598
-0.657598
-0.269141
-0.662835
-0.267007
-0.662835
-0.603076
-0.842833
0.160112
-0.560501
0.766508
0.0093199
0.132792
0.491963
0.108335
0.129537
0.00578227
-0.135319
-0.0344046
0.593123
-0.901453
0.407479
-0.0893205
0.0468906
0.0424299
-0.67279
-0.16855
-0.44214
0.5907
-0.506719
-0.233404
-0.289267
-0.320422
-0.0807937
0.0807937
0.0744406
0.00375163
0.150833
0.357799
-0.56344
0.1213
0.108718
0.485973
0.514027
0.630016
0.067786
0.0238417
-0.0916277
-0.280243
-0.52246
-0.496704
0.111237
-0.116076
0.00483833
-0.114047
-0.379905
-0.0518046
0.603237
-0.526782
-0.146008
-0.24229
0.0997113
0.120818
-0.679818
-0.203001
-0.243756
-0.0119105
-0.496425
0.392589
0.103836
-0.0917771
0.302514
-0.849146
-0.475589
0.568832
-0.810653
0.700802
0.354479
-0.0611636
0.101666
-0.040502
0.0409926
-0.636333
0.0362932
0.60004
-0.882356
0.578325
-0.711878
-0.103584
0.0103178
-0.0103178
-0.296157
0.327567
0.108867
0.0158494
0.0519366
0.530998
0.649486
-0.731817
0.0350676
0.0156017
-0.00706348
0.00783276
-0.00783276
-0.366533
0.521796
0.0150698
-0.0150698
-0.778723
-0.0117698
0.0180162
-0.40719
0.52849
0.44465
-0.48197
0.0750355
-0.0750355
0.0207548
-0.0603776
-0.0231949
-0.898685
0.499915
-0.488558
-0.00620732
0.552626
0.0465401
-0.599166
-0.657691
0.130909
-0.325648
-0.00657941
0.332227
-0.0625301
-0.0415752
-0.614814
-0.021519
0.0306571
0.00584114
0.00240833
-0.00096232
0.00096232
-0.472404
0.408915
-0.43809
0.116625
0.69953
-0.109281
0.00403944
-0.00403944
0.530659
-0.070055
0.0102787
0.0203393
0.00162543
0.608574
-0.678629
-0.609825
0.587296
-0.16099
0.343617
0.710563
-0.0123505
-0.165596
0.110842
-0.674251
0.51154
-0.391818
-0.105065
-0.0135535
-0.0262301
-0.0109607
0.459074
-0.103538
-0.400851
0.645366
0.00658488
0.0138337
-0.0138337
-0.254888
-0.114605
-0.590685
0.600005
-0.17653
0.512755
-0.155532
0.751499
0.68757
0.00584114
-0.632735
0.575048
0.124102
-0.180993
0.0568914
0.495519
0.110346
-0.0163121
0.0902102
-0.0738981
0.0153498
-0.0153498
-0.818092
0.0230821
-0.0510078
0.0713471
-0.0888557
0.0888557
0.0156017
-0.00831108
0.685033
0.0596661
-0.291741
-0.0881643
-0.550839
-0.118188
-0.074317
0.074317
-0.0708729
0.0860352
-0.0860351
0.0353079
-0.0353079
-0.359519
-0.050167
0.245293
0.0804646
0.0576161
-0.781761
-0.0814789
0.159518
0.0151814
-0.27786
0.083867
-0.083867
-0.464738
-0.0278768
0.23161
-0.0109825
0.00487882
-0.579511
0.624866
-0.00808192
-0.062791
-0.0380439
-0.0223338
-0.0109997
-0.163737
0.174736
-0.149026
-0.236055
-0.0865412
0.0865412
0.053683
-0.053683
-0.0273382
-0.0943707
0.121709
0.0965459
-0.183335
-0.0264113
0.0193478
-0.137006
0.545921
-0.0271106
0.391485
0.0144258
0.0201193
-0.0605898
0.0605898
-0.675585
0.328666
-0.124128
-0.21723
-0.0184946
-0.0305046
0.0353834
0.21739
0.0644935
-0.00118723
0.00281267
0.080619
0.0306185
0.0541649
0.105353
-0.0400136
0.0697926
0.00558425
-0.00211915
0.00271021
0.0240305
-0.0267408
0.00176794
0.0210106
0.0267166
-0.0267166
0.0597056
-0.042218
0.042218
-0.212451
0.0180002
0.000873478
-0.0803553
0.0199582
0.0776748
-0.0776748
0.321226
-0.265851
0.116824
-0.0699811
-0.19587
-0.0145447
0.0145447
0.39828
0.252863
-0.522019
-0.0793442
-0.0367316
0.514904
0.058502
-0.101102
-0.421639
0.0922576
-0.152044
0.174801
-0.0227577
-0.0470563
0.0470563
0.802821
-0.586451
-0.0219754
0.0237434
-0.00806201
-0.283729
-0.00216816
0.00231448
-0.0553957
-0.579413
0.578715
-0.605191
0.0122242
0.10873
0.0137272
0.0252818
-0.160106
-0.317011
0.236656
-0.0543046
0.0269664
0.166792
0.140501
0.246148
0.275959
-0.262231
0.00511854
-0.116938
-0.223809
0.0664765
-0.0123116
0.177112
-0.15183
-0.0725795
0.153198
-0.373182
0.143879
-0.123921
0.0550851
-0.455936
0.177116
0.167682
-0.240261
0.0198234
-0.182444
0.180276
0.00619222
0.147006
-0.0271482
0.0490521
0.481607
0.0121719
0.00589226
0.000563046
0.045117
-0.246567
-0.196703
0.575419
0.166102
0.0655072
0.073759
-0.0624998
0.0382342
0.0186572
-0.0296145
0.170845
-0.158621
-0.00506844
-0.00262765
-0.112237
-0.0354375
0.0647242
0.233234
-0.0671596
0.0159004
-0.312635
-0.023575
0.218772
0.156492
0.172174
0.0531911
0.0945983
0.0485354
0.482463
-0.0211565
0.0941981
0.0419261
0.0638798
-0.105806
-0.269156
-0.209683
0.0138135
-0.222703
0.298822
)
;

boundaryField
{
    FrontBack
    {
        type            empty;
    }
    Top
    {
        type            calculated;
        value           uniform 0;
    }
    In
    {
        type            calculated;
        value           uniform -1;
    }
    Bottom
    {
        type            calculated;
        value           uniform 0;
    }
    Out
    {
        type            calculated;
        value           nonuniform List<scalar> 10(1.02354 1.02823 1.0197 1.01665 1.0045 1.01651 1.01445 1.01983 0.92674 0.929842);
    }
    circle
    {
        type            calculated;
        value           uniform 0;
    }
}


// ************************************************************************* //
