/*--------------------------------*- C++ -*----------------------------------*\
| =========                 |                                                 |
| \\      /  F ield         | OpenFOAM: The Open Source CFD Toolbox           |
|  \\    /   O peration     | Version:  2412                                  |
|   \\  /    A nd           | Website:  www.openfoam.com                      |
|    \\/     M anipulation  |                                                 |
\*---------------------------------------------------------------------------*/
FoamFile
{
    version     2.0;
    format      ascii;
    arch        "LSB;label=32;scalar=64";
    class       surfaceScalarField;
    location    "1402";
    object      phi;
}
// * * * * * * * * * * * * * * * * * * * * * * * * * * * * * * * * * * * * * //

dimensions      [0 3 -1 0 0 0 0];

oriented        oriented;

internalField   nonuniform List<scalar> 
1171
(
-0.927924616805012
0.9279246168467257
0.7872681391758918
-1.098744352891077
0.3114762135875782
-0.1949814925553965
-0.7670365887092888
0.9620180812466206
0.07207538763863394
-0.117331456063593
-0.2117715738095634
0.3291030302675071
-0.7872681471546443
0.06930663883395795
0.717961508309366
0.8108328646948612
-0.1773882173375122
-0.6334446473112215
0.874270622372724
-1.043484955884984
0.1692143334745733
-0.2847160765806321
-0.09783537649997676
0.3825514527545674
-0.03598274096149404
0.5483615492461081
-0.5123788082079769
-0.5059323797757546
0.828362625251987
-0.3224302454694285
-0.4020475386845475
1.045719619252078
-0.1714489963009146
0.395948404991419
0.04844844851292276
-0.4443968526121671
1.046411552309164
-0.0006919330465686795
0.4461619336391933
-0.05021352558082046
1.05697640594224
-0.01056484916438546
0.5779384950718793
-0.7729199941938028
-0.7243740575538765
0.5571621530902479
0.1672119045263669
0.2207889617493832
-0.7267213347015361
0.5502214470242538
-0.922647910854303
0.3724264645217041
-1.094180875902492
0.6864116484561604
0.4077692273434433
-0.5953481328953233
0.5593653857353531
0.01798516581598379
-0.2566852240267192
0.2387000591515197
-0.02446697321321064
-0.5230752826249881
0.5475422559347276
0.3998736963086476
-0.4977090797098582
-0.918746972934673
0.9414564534634573
-0.02270948054229379
1.067727151125426
-0.01075074297166496
0.9352125394902829
-1.116978878926925
0.1817663394921024
1.067368038699068
0.0003591173686094737
-0.6642976385315941
-0.06007641959446786
1.262088339750794
-0.864424986243408
-0.3976633535091822
0.1486210712354714
-0.1090173378845287
-0.3257536502759765
0.4347709878915896
-0.2857272410568314
0.1912070839086981
0.0945201567197153
-0.5833850736688054
-0.5153592758194733
1.014101565255744
-0.07888902506878136
0.009929794658076049
0.8254394863196028
-0.8353692810085951
0.5718101069012633
0.6902782306685948
0.4393442074599585
-0.03053201690872741
0.4304057128807885
-0.8076970838894725
-0.1026174522536291
0.9103145362039947
0.5027161517972418
0.253852238906052
-0.7565683906862878
0.003692203819120188
0.5297181227747403
-0.5334103262238059
-0.48988508411764
-0.6042957887783258
-0.4229085186146595
-0.6940703605581128
-0.02741349194923823
0.2703419679629822
-0.2429284767332868
-0.9248916461695583
-0.005195146489064165
0.9300867926184545
0.3078772815915969
0.07467416308191943
0.7623476053732121
0.04848526281964337
-0.5330386124072698
-0.06230952309781892
0.04633025764569298
-0.8540273399838189
0.07644738495865096
0.8619028447480651
-0.9383502297150222
-0.3474124301835484
-0.04110268378754578
0.388515113920461
-0.6824271038472846
-0.24246454547235
-0.631480616418322
0.7079280036799823
0.6092562032238324
0.219106428168489
-0.5429108318704234
0.9462207120162426
-0.7794029943088295
-0.1668177177308895
0.02173046709627569
-0.01344483652247547
-0.008285630079606032
-0.4029473159273708
-0.09476176417660671
-0.2419131613433582
0.8511693700798377
0.04683582167549712
0.3344260060755222
-0.3812618281234791
-0.4606268364069525
0.9633429913327297
0.6801004943627087
-0.7827179436355638
0.3184379113532388
-0.01603561667051967
-0.3024022945367772
0.9306670156351218
-0.9306670156481671
-0.7830570719034906
0.1111046330414458
-0.3228762111812803
-0.7500489810620021
0.7599787743604793
-0.09074857782217272
-0.1427047333899063
0.2334533107129743
0.8649517684979512
-0.03951228445838031
1.054432784730227
-0.8005805404589669
0.186086224022033
-0.3156610236444518
0.1295747997373662
0.8591992875122046
-0.09685168159823002
-0.6117333643168756
-0.03940949929761877
0.6511428635910158
0.123825807921936
-0.2310133616530196
0.1071875546904236
0.8056295893550109
-0.9830178041739661
-0.4351188421037736
0.3294915608444609
0.1056272816428266
0.5319281624737981
-0.5563951328881277
1.022132622335167
-0.4562743942797899
-0.5658582280572688
0.5992241054184199
-0.7193092061400251
0.06665329630234446
0.652655909527046
0.1026309008111615
0.570487111600365
0.05468035475604083
-0.6251674662476295
0.1944399130982107
-0.08333528102128226
-0.4930207755068043
0.1456083461882498
0.05037266154728052
-0.8868162260586282
0.8364435645651339
-0.4746268381177673
-0.7134231673995163
0.04912552700918544
0.4365189529053761
-0.006113244045162699
0.2999519550729116
-0.8552685159547445
0.5553165610574735
0.4157212523102493
0.5842787477370429
0.5605964550206736
-0.5142661917991459
-0.3652737278030651
0.0356945900139816
0.3295791354507839
0.6813482442426663
0.2493187709231496
-0.5667710406281231
0.5704632437356343
0.1107653034566418
0.8749362336216286
0.01028379953758489
-0.6220171651546426
-0.7493091826627847
0.7996818452406759
0.5310776083616685
0.07153460960404792
0.3010057721754858
-0.3725403816357419
-0.1676156880786095
0.4423519547913579
0.08736616029927059
0.8753757324025864
-0.7977476905194257
-0.07762804181534602
0.6355200320436561
0.310700679366658
-0.430360807777895
0.5755035913473185
-0.5039689810821069
0.4171336718107294
0.133087782089851
-0.04690707302082355
-0.5890093523790897
-0.138512746989264
0.7275220993616114
-0.149676574446026
-0.7809904441703551
-0.6110549542639393
0.360592171582594
0.2504627817651836
0.6222847590984169
-0.6120009588248789
0.2383544550217173
1.011574923275967
0.04285786160877173
-0.7493091809659854
0.2205840080133557
-0.1988535472526944
0.6801004933160758
0.8021512020615786
-0.8021512021076682
0.8376906959500329
-0.8333043214873648
-0.004386374397513887
-0.4453706058780783
0.8610918584302933
-0.1476405740814554
-0.3453802040501499
0.7347303704771851
-0.6684905163114782
-0.06623985422413581
-0.7321038221831615
0.1430944691626102
0.1388100602164338
-0.6718486727336833
0.7827179305543199
-0.95033361868152
-0.3648135206785846
0.2879521576348606
0.07686136225201516
0.1458741903455215
-1.009575830974592
0.8637016406497824
0.4806776045458951
-0.04133339715093555
-0.3081621554140738
0.5864026691585842
-0.2782405136413824
-0.7383233847441898
0.8841975730098156
-0.1571182357363556
0.7347247027789171
-0.8376569173719006
0.1029322146565911
0.9781465065961631
-0.5417033882611418
-0.4364431183811832
0.755244130989889
-0.06485501451357979
-0.03535488116913321
0.1877793749834687
-0.1524244942128322
-0.7757326882984568
-0.8447724479397094
0.07773585242954494
-0.7500489811602676
0.5141210699085019
-0.5552237564001146
0.09048589340324215
0.7183399898695005
-0.8088258831634753
0.7536955437596978
0.174229089167989
0.5028815442171883
0.4971184557637622
-0.05302564322157313
-0.6057322159645527
0.6587578594877781
0.8795449229849998
-0.004169187291252509
-0.755244130977222
0.7996818454605226
0.1911467680847714
-0.4478319895299901
0.01901070279837378
0.001153472437390649
-0.0201641719734135
0.5894176943747148
-0.438313307754741
-0.1511043862708593
0.7179615130607875
0.01413193679277948
-0.1100477458376605
0.4377864546352355
0.1516312414025586
-0.0134968696298201
-0.006584849166842204
0.02008171823048382
-0.03382764894602533
-0.001527240823062593
0.2436758329210024
-0.2597114376743004
-0.9592694377658092
0.001999088094890274
-0.1595875923150672
-0.1211376894325115
0.09471750763138445
0.721429835463686
0.7290102281828126
-0.1447314809166146
0.6611827749119701
-0.5706968836146572
-0.2118886982136688
0.3979749220045042
0.6954655255503255
0.02249598749234445
0.2416281139158801
-1.074932433082423
-0.9503336199089905
0.3017640424679753
0.7599787729894588
-0.2087922465202364
0.06608751641416391
-0.7234289241218159
0.9094501153387912
-0.186021191196365
0.4163282644233869
-0.02781315669624962
0.7715885519123503
0.2806907964216546
0.3728284720694577
0.07333344965448198
-0.6586968242997564
0.6586968242824494
0.2147832585264165
0.6955312806021262
-0.05502252651432406
0.3894485349099037
0.3797484642302684
-0.01326383872863909
0.03227453090081708
0.4492886317768073
0.03138897015584131
-0.738323385402519
0.534104568267649
0.2006258048904544
0.3051346028399873
-0.1173552254175358
-0.6954655257258584
0.1797833151058184
0.7296667999694451
-0.01025416782500368
-0.8136454371389645
0.8238996049471919
0.6963034629730027
-0.792054833196103
0.09575137025757154
-0.7536955503850825
-0.1505371212418694
0.2115204110713339
-0.06098329057218223
0.07735209197560916
-0.1793137910398949
-0.112998569051847
0.2923123607983865
-0.006274885909294574
-0.007221991122864854
0.7066115365226738
-0.7168657118619238
0.885020935141772
0.07699714001393886
-0.3166563927676858
-0.5171514474393267
0.8338078400524497
0.1036299065898509
-0.103629904686374
0.3236467527202983
0.4738699957491889
0.6168584698972347
-1.090728465568303
-0.1941205489800947
-0.5856710020787875
0.7797915510705548
0.01340992791633444
0.2200433905541522
0.3770455823758483
-0.2532197621618449
1.013466046867951
-0.5395960477904235
0.6651481786975422
0.9946407060393375
-0.3777822328439713
0.2294050041937904
0.8841975708603482
0.7127485763716631
0.2137315866747793
0.727724870598216
-0.7809904446341307
0.341303188490971
-0.2762283508487976
0.245377710027434
0.03085064007899847
0.8468086106154482
-0.008811690454659663
-0.8379969199846856
-0.7021837321057611
0.7025428519931065
0.5546293960786868
-0.7021837300608363
-0.7127485763749866
0.7025428543466568
-0.03484287033348012
0.906447373610447
-0.02142644203342568
-0.6813482342998778
0.6123577963172088
0.06899043797862892
0.5387305900837716
0.5369038453533747
-1.075634435430062
0.4912271681272607
0.5222388797749242
0.5428990273158363
0.4592407740095265
-1.002139801277198
0.4970779520819686
0.4975627550953592
0.6123577893671891
-0.5255381548861703
-0.4651456386539951
-0.556603110357102
-0.5187154803659217
-0.11931693220706
-0.01222376130919628
0.01222376051977961
0.5130008660672618
0.5230753405963248
-1.041790820865017
0.5748622049045211
-0.2738564339631249
-0.8854581523129342
0.3437547633898075
-0.63307541878049
0.3906108723650402
0.00256750288622422
-0.8291723930180993
0.8266048900983382
0.4208480663176122
-0.017667729162492
0.8644763382199182
-0.9481370045561897
-0.8339274461486011
0.05421649567128196
0.7797109504121313
0.5651170290830466
-0.4391421931632288
-0.1259748359219537
0.6500673101462189
-0.7289563356578013
0.8862618245653435
-0.8322062553910782
-0.05405556934558848
-0.009705992450754449
-0.7880416951431228
-0.1097139507620309
0.7133691604608503
-0.603655209692027
-0.9361299349531531
0.9264239428531436
-0.7267305755084633
0.6917893251564725
0.03494125033749859
-0.8109047551342887
0.03914262734265892
0.7717621277186528
0.06172953195620071
0.04190037133892927
0.4330397367814945
0.06187516625828158
-0.8516043158166218
0.7897291496549278
-0.6431651534913189
0.5901395136191202
0.8897882762691663
0.07027634071609061
-0.96006461692893
0.05586082745652163
-0.0475750528654194
0.3771541954525706
-0.3814347751715426
0.06577375446542591
0.8422777930633858
-0.83971028657146
-0.7339076208030504
-0.8123559002547357
0.02431420545402618
-0.1633802605786812
-0.8529754217945993
0.02076917277869312
0.6237983626988912
0.03738441065552283
0.03356592216988
0.5315511144466964
-0.8067338503718947
0.8458764741121182
0.5658582264142061
-0.8468401172181932
-0.8658535959265172
0.04059377425054313
-0.03561755333861499
0.8380008536743873
-0.8023833003796143
-0.02637052337762208
-0.7695251768563337
0.5443476185896899
0.1519558408577462
-0.03126700114658554
0.8957433401411187
0.9806404370363476
0.8623550455641519
-0.8415858694626361
0.1475771770004124
-0.1475771756139437
-0.1186086794419601
-0.4819436331986507
0.0428014444671507
0.2704965192684893
0.03126752292483444
0.386960415563639
0.8693728148393992
0.004949051625154121
-0.01122394752861795
0.6586056394834391
0.3413943604995597
0.7835723330546195
-0.5833850718878512
-0.7780845555943114
-0.8111949957188281
-0.6798333787282411
0.6798333787243108
-0.1677795667300183
-0.1550966490138803
0.6019216054699974
-0.8122340300449578
0.210312424553523
-0.4937631853425289
-0.5690102211579645
0.2781833657825165
-0.9722537258041242
-0.9018630528247887
0.8478074918561977
-0.8133862393799679
0.8377004441463655
0.648736567627016
0.1342714809833055
-0.7830080485965677
-0.7762537454598096
-0.1459848980042903
0.7242219089540639
-0.5782370109330869
0.03249023505486415
-0.01454465688279141
0.01824997658832187
-0.003705320696387298
-0.3551453168502929
-0.1267983198774696
0.8801049687067989
0.7453472907020098
-0.2461750472567769
-0.499172243110057
0.6193724514576985
0.6853288396180526
-0.4705455795755691
-0.0005405797858014285
-0.2851866587499881
0.02468173338793855
0.7471297303255712
-0.771811463832459
-0.3235171603485569
-0.07270190834471213
0.07580776319913499
-0.9605180072287574
0.1225210847962876
-0.6779625527964854
0.05173152126378161
0.6409478681945296
-0.6926793894741327
-0.7565656419008302
0.0786030891088116
0.5879726892767922
-0.6606745976899308
0.1570113143452783
-0.3363251030828245
-0.770535585164044
-0.00571816026644341
0.371206773644741
0.6013075174352381
-0.02580392903325287
0.02232200230531509
-0.02232200169290402
-0.01880862257435104
-0.04988529904218975
-0.2263430625164582
0.0246196224731946
-0.0196705420396948
-0.7331511721912015
0.2792807693467035
0.6804261681028647
-0.6894331385964967
0.009006970332085345
-0.5960596530429534
0.6477911783252761
0.6530888596162939
-0.06511617143930504
-0.6314732033218259
-0.1250924360507994
-1.050366297246249
0.01106748916631857
0.1365096839328948
-0.7084694373761613
-0.7411871501047437
-0.7631514319554231
0.3654880767241704
-0.4122484850358878
0.4652622495616136
-0.05301376460785479
-0.6701072789048701
-0.03836215855295242
0.50176269100959
0.7306810215314703
-0.2337445917882616
0.1126069014718471
0.9662361648695853
0.4461576523684248
0.1342186486952393
-0.5803763010096132
-0.677905496319527
0.007798215513888009
-0.04464727119617021
0.03010262789548124
0.6365269114397691
-0.775039657995317
-0.001969954878320177
0.001969955201747624
-0.6010728751765883
0.6482085589112417
-0.04713568369601077
-0.6443395719424247
-0.1130841270915211
-0.6715415833606435
0.05476993722615162
0.6039879278887959
-0.1371271872791713
-0.8175264816083441
-0.5603377281952628
0.5654310643518414
-0.005093336438495421
0.6325349692925663
-0.623527995339047
0.3223747441459011
0.214185569509967
-0.5365603136530638
-0.104660239861873
-0.6019021236218779
-0.0907772646823774
-0.1549152265465205
-0.505567785726198
0.4041007725496112
-0.4988625352437914
0.1268311073578818
0.6782747328540952
-0.8051058402387354
0.5992241054223413
-0.3684162770744823
-0.04383220240313582
0.08111593845992893
-0.5866837222855219
0.5518109894531996
-0.04054765963330675
-0.5112633296794147
-0.3124691958849499
0.304999373383107
0.007469821633245716
0.4544842196322526
0.1203779862916605
0.05118673544980565
-0.3159930367951634
0.156901668577227
0.1590913680493323
0.2304150286610722
-0.009831013649468352
-0.2942117960414201
-0.3115309617754153
0.3602386562940118
-0.04870769655060855
0.7876692649907767
-0.6267025044397735
-0.01763706731286419
0.4992889645179884
0.2806191777155507
-0.5267942252943786
0.577505322025901
-0.5775053220262689
-0.2897418418470131
-0.5864494504038518
-0.2955706470610109
-0.5864494502092613
-0.594576544410089
-0.8385128393507681
0.1700223261194067
-0.583901066910986
0.8211288727546859
-0.003412764776551631
0.118745097016428
0.4825624189827692
0.09671542126604162
0.1855932879193551
-0.03638050998581022
-0.1492127788883897
-0.01846999388855672
0.5940522301775673
-0.9462579154798374
0.4291064718864828
-0.002691969188660377
0.002995104494779785
-0.0003031356527411602
-0.6433531818709325
-0.1317055697352832
-0.4674457503552977
0.6016643969039849
-0.5037272792721527
-0.3254889341401257
-0.261194801973384
-0.2711347682125568
-0.1119322069354277
0.1119322064956222
0.1524932385779393
0.05902716849054752
0.1966607731503295
0.4554312407970162
-0.5732293160270623
0.105783569177493
0.2426857417685381
0.4662971399850014
0.5337028594255367
0.6413262542608089
0.08644530410188508
-0.005179914358508121
-0.08126539110849768
-0.2768874279154254
-0.5406390536542982
-0.5510224946565382
0.1142349177354378
-0.1261849940006398
0.01195007587022737
-0.1057472036234586
-0.3859278621290629
-0.04526660494880837
0.6492545163949541
-0.4986633980742101
-0.1446897838260012
-0.3389337743638915
0.2918707628363426
0.1238668939337284
-0.60905904367118
-0.2041600674080079
-0.2619372320693245
0.002225775906074652
-0.4222351873339548
0.3229955956953484
0.0992395913693673
-0.09418635853408296
0.2916368075094102
-0.895932594531797
-0.4579555647665697
0.6307845252583136
-0.7729922376781151
0.6683319977787967
0.3418734827684754
-0.1251999536585058
0.2250902131494952
-0.0998902588153948
0.02426318711370321
-0.5862862105068191
0.02923462824693399
0.5570515824748435
-0.9007033428606122
0.5470784379190581
-0.6656871173893022
-0.09845041956829466
0.1095295235462068
-0.1095295212231746
-0.316533613936636
0.3632352909798621
0.01391890803585552
0.03057410050565121
0.05587121962330496
0.5052736783091341
0.6616219875342454
-0.7392500271646587
0.03172757902657689
0.02346022319184657
-0.001138210787502863
-0.007158347569312908
0.007158346955317741
-0.4168356188193115
0.5372136071876223
0.01531989505217559
-0.01531989515378629
-0.7922467011790021
-0.06081327968463089
0.1225428188463555
-0.4562185475286371
0.562002119009596
0.4514846392583952
-0.4986203262990433
0.1499305764040753
-0.1499305753562875
0.03375660525158199
-0.001482079769712024
-0.04189385274001146
-0.9764712502262594
0.5400281303156366
-0.4698493768566109
0.04190037363843394
0.5145217988847287
0.03106394607994677
-0.5455857447925616
-0.6160384945511297
0.1173750961027233
-0.3295585952692905
0.01343317093422587
0.3161254250246444
-0.1547190166983916
-0.07902556265963115
-0.5408273386202546
-0.04545887685395449
0.1365096824658297
-0.04045956360341525
0.03848961438437746
0.08107233202694283
-0.08107233471564468
-0.5364262928805174
0.4877186057774074
-0.41449497025248
0.1613375302930782
0.6222348027220878
-0.09781388143350665
-0.004072029317326325
0.004072029138117756
0.5329504466900787
-0.07750793208522111
0.005899619738030213
0.02698015839146192
0.0347420151255681
0.6849589852238389
-0.7624669172087869
-0.6550477127102554
0.6374106432203956
-0.1066141077142644
0.3130286211857287
0.7461390563930573
-0.01880862412913456
-0.2671331662233575
0.1497779325187117
-0.7446550120041276
0.4843251453832002
-0.4245750551868729
-0.1015167019468434
0.003520277956781742
-0.01435233709180194
0.01943968768629204
0.4111374317786387
-0.1216168029839118
-0.3896465256562618
0.6288197128064233
0.01938213297230211
0.01071739657007633
-0.01071739649920878
-0.3544973832488639
-0.08099505519176077
-0.5605372220098134
0.5571244573801183
-0.2381985251705404
0.4647858587805713
-0.1511486265622149
0.7290871182854448
0.6726553222884546
-0.04045956309337326
-0.6160029883232494
0.5626075762568091
0.2891822501371127
-0.2865609332894561
-0.00262131764691981
0.543224282102593
0.09338393061513632
-0.03900156816550587
0.1966395652844178
-0.1576379975429247
0.1200738979141211
-0.1200739002503346
-0.8587520643418433
0.002353405568448009
-0.1133254955803333
0.1403056550202661
-0.1319155230659521
0.1319155223946583
0.02346021706251415
-0.02288064310809042
0.6704959484974448
0.05917085101247981
-0.3230222048612603
-0.06290565758321681
-0.4712228705969915
-0.04975152473409544
-0.1516186594673005
0.1516186584194807
-0.04750878973153169
0.1433273289501689
-0.1433273281001723
0.1365257108113784
-0.136525712490411
-0.3157085463534455
-0.1146522614772738
0.2264842882474332
0.1030072730479013
0.03485246586795767
-0.821108802060068
-0.1979404613222357
0.170251757228492
0.02089501703860124
-0.2652238836633378
0.1258290424977646
-0.1258290417556969
-0.414090458994805
-0.08477207855136426
0.236393963174565
0.002306100107932838
0.04061276658538752
-0.5432995055712212
0.5781423759102693
-0.02877608218444107
-0.01873270879895705
-0.02842975274634622
0.02694768242291643
0.006603266961381395
-0.1843791133042698
0.1777758463120057
-0.108398458250614
-0.2279266454467576
-0.1447363092504073
0.1447363083512976
0.0728874960817916
-0.07288749648493625
-0.01937858554715568
-0.1086481384826735
0.1280267246104597
0.2416572250335017
-0.1828943971475928
-0.02802226446882599
0.02688406119791419
-0.1382519555430704
0.6259705611264518
-0.03904470636650509
0.4237501576513741
-0.04291730814987976
0.06299903787376983
-0.153356018792277
0.1533560174481185
-0.6364524964752392
0.3087817188836094
-0.07937671427237346
-0.2345754668074581
0.003562108483577824
-0.1215271176130558
0.1621398833815248
0.1953793296801803
0.09693303566171949
0.09630154688592824
-0.06155953164661295
0.07265564129268812
0.0415792772123453
0.06390971648332222
0.1063420368585247
-0.09609647050530386
0.208703352729048
0.01268734649694325
-0.1157670202167728
-0.1007392464180504
0.09753440803344759
0.003204839414104913
0.01274282521262365
-0.02353517015164728
0.03779563724664447
-0.03779563730276083
0.07511244789754519
-0.05486484085229715
0.05486484060040572
-0.2245331078232382
-0.05276798293699154
0.01146582782314306
-0.1030743085579838
0.01645181278011241
0.1083942008916081
-0.1083942003992116
0.2946189210946171
-0.2714845339350218
0.1630860799908119
-0.05088352074419063
-0.2206010129394369
-0.01746528663355551
0.01746528691372296
0.3674051835718018
0.2852507330185258
-0.5275972437621871
-0.093991039759868
-0.03219395465367729
0.5287427193873121
0.2132274876705727
-0.1702001306056423
-0.3804705330577744
0.07647386074372525
-0.1477181439330197
0.1872576427905828
-0.03953949910306229
-0.06681491000337984
0.06681491031409813
0.8226129171358778
-0.5606447327609089
-0.005192649632808762
0.01793547416017256
-0.01998331833236108
-0.2868022160464723
-0.01749828196829098
-0.01282078533315718
-0.1318529438654559
-0.5720622817057261
0.5559949474760311
-0.569410196797496
-0.006882350780409913
0.1030440688782734
-0.001737355837628234
0.01683030534135981
-0.1677014619766217
-0.3365076483840224
0.2334333399286239
-0.05447043729017999
0.03509185340546877
0.1317557737379926
0.1732435988718844
0.3372088904495107
0.2765668401568227
-0.2783041955461311
-0.06224962907174426
-0.1550464452780427
-0.2211422903061687
0.07480079255299564
-0.01089107772032476
0.2140204437676494
-0.1971901380218494
-0.08629095252189528
0.1589465894160706
-0.3552246273392868
0.2085215180980313
-0.1920697052550285
0.08958887355668779
-0.4792354026432658
0.1744368567065922
0.1700164701461953
-0.2563074162751966
0.07276638208999478
-0.1944075781007598
0.176909295764692
0.01743484738366019
0.1415117432457717
-0.03954495632101441
0.06607082881512323
0.4668796174667857
0.02033035354837945
-0.0786613430214532
0.05489008771034246
0.1259533230578496
-0.260681787688755
-0.2308803734104648
0.5597250720771668
0.1576745214447956
0.07871944052158084
0.07540551831082952
-0.03091646946984045
-0.01121006803772025
0.008588745189177561
-0.03278518205109048
0.1711166286025569
-0.1779989789926688
-0.05922165304404193
0.02169140815234743
-0.1468593730032503
-0.05289582758735628
0.1494817122849516
0.2770760420985955
-0.03859705023799131
0.0157376145877514
-0.2557397920329724
-0.1317935480503806
0.2357902254145149
0.1789243406014374
0.1298573807668987
0.02195074460703818
0.08898202120667836
0.0522351691133306
0.4530385091702852
0.01589217775471608
0.09721604959150013
0.04367625803843635
0.07173891095879344
-0.1154151700172118
-0.2423465130615108
-0.2008750797652497
-0.01972593029396729
-0.202159363266698
0.275465727325251
)
;

boundaryField
{
    FrontBack
    {
        type            empty;
    }
    Top
    {
        type            calculated;
        value           uniform 0;
    }
    In
    {
        type            calculated;
        value           uniform -1;
    }
    Bottom
    {
        type            calculated;
        value           uniform 0;
    }
    Out
    {
        type            calculated;
        value           nonuniform List<scalar> 10(1.034126195172232 1.064268745349153 1.021748749014767 1.019316830797155 0.9961446204638712 1.016278235366821 1.036076206263677 1.06277340650476 0.8672471596336161 0.8820200974490643);
    }
    circle
    {
        type            calculated;
        value           uniform 0;
    }
}


// ************************************************************************* //
