/*--------------------------------*- C++ -*----------------------------------*\
| =========                 |                                                 |
| \\      /  F ield         | OpenFOAM: The Open Source CFD Toolbox           |
|  \\    /   O peration     | Version:  2412                                  |
|   \\  /    A nd           | Website:  www.openfoam.com                      |
|    \\/     M anipulation  |                                                 |
\*---------------------------------------------------------------------------*/
FoamFile
{
    version     2.0;
    format      ascii;
    arch        "LSB;label=32;scalar=64";
    class       volScalarField;
    location    "20.6";
    object      p;
}
// * * * * * * * * * * * * * * * * * * * * * * * * * * * * * * * * * * * * * //

dimensions      [0 2 -2 0 0 0 0];

internalField   nonuniform List<scalar> 
808
(
0.115354
0.0131672
0.0499897
0.115377
-0.213284
0.0115226
-0.0015845
0.0250335
-0.121067
-0.032627
0.0376352
-0.134381
0.0229663
0.00780696
-0.214598
0.0193565
-0.215726
0.0125939
0.039283
0.00243624
0.0435626
0.392095
0.0782772
-0.00794857
0.46969
-0.153757
-0.0570985
0.00263031
0.0100499
0.0165825
0.00738365
0.0131986
0.0227556
0.00404717
-0.092195
0.63597
0.012355
0.0221007
0.0192257
0.0192968
-0.0619341
-0.0593531
0.0381219
0.0230799
-0.172669
0.095719
0.0194627
0.0148083
0.0152357
-0.162119
0.00131483
0.0116556
0.0486522
0.00317618
-0.0699687
0.0122006
0.00815442
0.0415271
-0.0260107
0.00517941
-0.274298
0.00454124
0.0341076
-0.192325
0.0290159
0.0491705
-0.271052
0.0235661
0.0312946
-0.261729
0.0229961
-0.291218
0.0205674
0.0164947
0.191029
0.0157543
-0.0127085
-0.0476644
0.00649609
0.328382
-0.109879
0.0172098
0.034455
0.276714
0.020346
-0.0317981
-0.334065
-0.0888865
0.0241765
-0.160674
0.0342595
-0.103544
0.266248
0.167736
0.0453754
-0.288498
0.0223987
-0.115537
-0.113315
-0.251249
0.00999736
-0.00390182
0.0356354
-0.0260071
-0.120208
0.0637479
-0.191852
0.00106552
0.00917516
0.0334922
-0.0742053
0.347158
0.0171289
0.0168738
0.0221139
0.461223
0.00968899
-0.248257
0.0181557
0.0526307
-0.313351
0.037246
0.011174
0.0536502
0.121868
-0.0340983
0.104731
0.0411057
0.0263967
0.0726489
-0.293727
0.0246989
-0.0578259
0.138183
0.0221126
0.00813564
0.0316595
-0.003269
0.0181587
0.00398078
-0.255318
0.0438961
0.0518865
0.020717
-0.0141485
0.0100219
0.0928001
0.156054
-0.170681
-0.00420626
0.0187778
0.358185
0.0260596
0.548328
-0.253676
-0.081033
0.01344
-0.184511
0.0361725
-0.101342
-0.279591
-0.25677
-0.284604
0.0156013
0.0650708
0.0221794
0.0178685
-0.290556
0.014191
0.033031
0.03542
0.170421
0.00798816
0.127138
0.0147213
0.0670552
0.0763456
-0.152961
0.0230509
-0.315225
0.0308384
-0.118753
0.0129594
0.266811
-0.201627
0.124072
0.0221348
-0.165424
0.0282007
-0.114389
-0.244783
-0.0805844
0.0187254
0.0793507
0.0130775
-0.23578
0.0173446
0.028874
0.00804784
0.0894408
0.0621043
0.026641
0.0237432
-0.286023
0.387379
-0.241548
-0.277273
0.00853042
0.0528945
0.018385
0.0110572
-0.361264
-0.308713
0.014674
0.0267331
0.0180816
-0.297885
-0.0173246
0.0172667
0.0320807
0.0228513
-0.0669229
0.0260159
0.0257665
0.000962859
0.0245103
0.132768
-0.324389
0.0268757
0.00873757
0.125706
0.0116073
0.0132424
0.00616037
-0.091988
0.0419546
0.0127591
0.00328204
0.0113914
0.017784
0.0066592
0.00392051
0.00422607
0.00727149
0.000109126
-9.99822e-05
0.00242906
0.00398878
-0.000366546
0.0163596
-0.287002
-7.4942e-05
-0.00633928
-0.140785
0.00184706
0.00951566
0.0242621
0.000725027
0.0184361
0.138781
0.0113828
0.0104918
0.0143834
0.0757998
0.0333049
0.0118896
0.00843516
0.0211517
0.0136207
0.0519292
0.0415085
-0.356752
0.28999
0.0129125
-0.0839956
0.0195748
0.0149182
0.0144961
-0.256916
0.282455
0.0160144
0.056844
0.0192856
0.0824026
-0.194845
0.0151552
0.0284277
0.0376691
0.0142202
0.0356782
0.0216177
0.024348
0.0234267
0.0324283
0.0222994
0.0201014
0.0578058
0.0663522
0.00586064
0.0140514
0.0131027
0.0132349
0.0335078
0.0165727
-0.473247
-0.0853645
0.0624007
0.0105529
-0.178277
-0.206155
0.00396143
0.0156218
-0.28075
0.126896
0.1579
0.0168153
0.0141376
0.0261273
0.000324755
-0.201622
0.0272792
-0.00139776
0.0256985
0.0176914
0.0153767
0.0259896
0.0409201
-0.0129966
0.01706
-0.260177
0.0345405
0.0320574
0.0633073
0.0585445
0.0113693
0.244044
0.00847104
-0.166736
0.556936
0.0842614
0.00217965
0.0255729
-0.0804982
-0.0351866
0.0412653
0.0271246
-0.0209732
0.0211791
-0.0542065
-0.218259
0.055504
0.115034
-0.0449111
-0.251227
-0.283189
-0.305621
-0.283695
0.0619469
0.0228191
0.00743629
-0.039798
-0.0466957
0.00341016
0.0195574
0.00181052
-0.46669
0.0774076
0.0211864
0.0311528
-0.306896
0.070872
0.00142227
0.110571
-0.311132
0.0662994
-0.0181037
0.0650816
0.0818993
-0.265103
0.0272042
-0.272427
0.00413634
0.0817245
0.0335776
0.00846354
0.0221562
-0.172192
-0.30441
0.000139421
-0.00305659
-0.145076
0.01152
-0.00184334
0.0218636
-0.0241992
-0.00208424
-0.258915
0.0366449
0.0182295
0.0165535
-0.359886
-0.174835
0.0751473
0.00360533
-0.123813
-0.0530396
0.431302
-0.246366
0.0112792
-0.105345
0.018221
0.0367044
0.0220529
0.0445252
-0.00934943
0.0616155
-0.0648151
-0.0147758
-0.00608049
-0.0083004
-0.0135531
-0.0123702
0.0273967
0.113504
-0.0399888
0.0172251
0.00555527
0.0345581
-0.0469989
0.0256071
-0.348218
-0.0925071
0.0229887
0.0172927
-0.174294
-0.299227
-0.024078
-0.073239
-0.0104406
0.0230877
-0.168829
-0.22759
0.256359
-0.278869
-0.418386
-0.262656
-0.0554905
-0.0486425
-0.316959
0.360051
-0.07835
-0.273964
0.00541058
0.0719821
0.578248
0.00789782
0.00977446
0.0631509
-0.096858
-0.0134194
-0.285616
-0.235082
0.0181031
0.0607908
0.00633295
-0.239509
-0.277757
-0.183772
0.0124177
0.0333624
0.0999712
-0.020045
-0.0739171
0.0861783
-0.049316
0.0201978
-0.192723
-0.268543
-0.0289737
-0.0661165
0.0165937
0.0164211
0.0765863
-0.0403962
0.0159695
-0.422206
0.460142
-0.287778
-0.26356
-0.0313992
0.0101379
-0.258522
-0.247081
0.118727
-0.297759
-0.152499
0.873587
0.0138707
-0.315106
0.00488619
-0.0592201
0.0206488
-0.426109
-0.253349
-0.278333
0.00129694
-0.224638
-0.320061
-0.00533576
-0.020005
0.122542
-0.278439
0.038971
-0.461128
-0.2875
-0.34777
-0.0539065
0.020098
0.0117231
0.113775
0.127841
-0.0282976
-0.261841
0.311852
0.0142177
0.00482018
-0.396025
-0.457029
-0.295591
0.0358381
-0.310026
0.0208378
0.020692
-0.0238963
-0.231825
-0.210431
0.0183532
-0.276023
-0.244351
0.0102656
-0.00595122
-0.190758
-0.00464128
0.0451251
-0.344036
-0.293256
-0.106648
0.114055
0.0228396
-0.293672
-0.255638
-0.344583
-0.129661
0.0529509
0.110822
0.00564661
-0.342886
-0.263151
0.115592
0.0201462
-0.116858
0.0362035
0.0299983
-0.295936
0.0383642
-0.247175
0.0364671
-0.238301
0.0456375
-0.0038983
-0.326891
-0.414369
1.40108e-05
-0.439826
-0.420194
0.0372814
-0.0370904
-0.248782
-0.00594618
-0.268682
0.0276787
0.0980212
0.0610633
-0.234224
0.00560783
0.0717966
-0.40892
0.0179123
-0.275179
0.0176428
-0.293303
-0.466368
0.104079
0.293212
0.454063
0.0189754
0.00163511
-0.00158141
-0.300937
0.66024
0.0189344
-0.174411
0.018935
-0.0570602
0.0827519
0.504764
-0.332446
-0.0413713
-0.0328305
0.0270197
0.0144246
-0.410834
-0.254207
-0.281095
-0.25335
-0.254905
0.00064597
-0.33457
0.0329011
-0.23022
-0.271783
0.537739
0.611054
-0.256741
0.12126
-0.252911
-0.0246387
0.00364201
0.43383
-0.0172613
-0.284479
0.0812455
-0.464815
-0.0120796
-0.16585
0.00747479
-0.279617
-0.234817
-0.00263533
0.00294445
-0.285719
0.45395
0.693097
-0.296791
-0.26278
-0.292036
-0.0483085
-0.270444
-0.250107
-0.142613
-0.285317
0.776103
-0.304635
0.751271
-0.378506
0.336574
-0.279747
0.0108618
0.196468
-0.457752
0.228819
-0.232403
-0.274739
-0.302079
0.887609
-0.255346
0.214686
0.153875
0.6519
0.126865
-0.263228
-0.241245
-0.185098
0.0144654
0.115543
0.526377
0.0136151
-0.008465
-0.252592
0.149863
-0.10875
-0.336188
0.0346067
-0.225988
-0.144769
-0.119676
-0.329316
0.00879329
0.105388
0.00171797
0.0898114
0.113205
-0.296079
-0.316455
0.0150188
0.0246083
-0.422371
-0.469147
0.205143
0.212537
0.0900561
0.691141
-0.0676225
-0.225126
-0.343926
-0.264896
-0.048424
0.108207
0.780746
-0.408648
0.382412
-0.00522899
-0.3847
0.170576
-0.0426934
0.392428
-0.125404
0.0215384
-0.292491
-0.0673026
0.201433
0.82298
0.342726
0.779924
-0.307898
-0.263553
-0.380158
0.192553
0.285999
0.0725526
0.404498
0.142736
0.510532
0.299671
0.0265778
-0.171813
0.0313245
-0.247612
0.897806
0.421837
0.673554
0.526533
-0.229937
-0.300193
-0.252377
-0.269083
0.0577027
-0.380342
0.110595
0.61659
-0.317797
0.00952819
-0.270593
0.202595
-0.294481
-0.328692
-0.168277
-0.247282
-0.263041
-0.283022
-0.301316
-0.131914
-0.37838
-0.119972
-0.206273
0.166171
0.661869
-0.184242
-0.282331
0.846468
-0.281944
0.294438
-0.201607
0.393601
0.0897184
-0.309805
-0.35583
0.469329
-0.256915
-0.284391
0.196969
-0.239256
-0.0203909
-0.261323
-0.0855652
0.0383324
0.579558
0.792939
-0.258109
0.233144
-0.264919
0.836764
-0.00865511
-0.276062
-0.0225705
0.77367
0.224516
-0.28336
-0.248929
0.463037
-0.179382
0.0610844
0.377136
0.27101
0.304069
-0.216611
-0.263022
0.702305
)
;

boundaryField
{
    FrontBack
    {
        type            empty;
    }
    Top
    {
        type            zeroGradient;
    }
    In
    {
        type            zeroGradient;
    }
    Bottom
    {
        type            zeroGradient;
    }
    Out
    {
        type            fixedValue;
        value           uniform 0;
    }
    circle
    {
        type            zeroGradient;
    }
}


// ************************************************************************* //
