/*--------------------------------*- C++ -*----------------------------------*\
| =========                 |                                                 |
| \\      /  F ield         | OpenFOAM: The Open Source CFD Toolbox           |
|  \\    /   O peration     | Version:  2412                                  |
|   \\  /    A nd           | Website:  www.openfoam.com                      |
|    \\/     M anipulation  |                                                 |
\*---------------------------------------------------------------------------*/
FoamFile
{
    version     2.0;
    format      ascii;
    arch        "LSB;label=32;scalar=64";
    class       surfaceScalarField;
    location    "20.6";
    object      phi;
}
// * * * * * * * * * * * * * * * * * * * * * * * * * * * * * * * * * * * * * //

dimensions      [0 3 -1 0 0 0 0];

oriented        oriented;

internalField   nonuniform List<scalar> 
1171
(
-0.945447
0.945447
0.778345
-1.09024
0.311892
-0.262617
-0.727829
0.990446
0.0545525
-0.065942
-0.278883
0.344825
-0.778345
0.0904925
0.687852
0.937671
-0.215392
-0.72228
0.836346
-1.05775
0.221408
-0.358971
-0.0370759
0.396047
-0.00425505
0.60831
-0.604055
-0.534464
0.931475
-0.397011
-0.424913
1.01704
-0.180697
0.225248
0.0968565
-0.322105
0.979385
0.0376573
0.254681
-0.0294324
1.01741
-0.0380269
0.654649
-0.917267
-0.787154
0.609995
0.177159
0.267867
-0.802331
0.557252
-0.913615
0.356363
-1.08064
0.672532
0.408107
-0.645017
0.640762
0.02986
-0.248542
0.218682
0.0416138
-0.632431
0.590817
0.468664
-0.50574
-0.831403
0.875598
-0.0441949
0.988387
0.0290249
0.905135
-1.05861
0.153476
1.0123
-0.0239162
-0.700074
-0.0870795
1.25763
-0.845492
-0.412138
0.180901
-0.0792913
-0.41368
0.492971
-0.273203
0.187046
0.0861562
-0.607453
-0.482784
0.968881
-0.0637457
-0.0274272
0.887233
-0.859806
0.510557
0.747073
0.529018
0.0224931
0.446171
-0.793185
-0.105199
0.898383
0.580242
0.236351
-0.816592
0.0686626
0.573081
-0.641744
-0.510378
-0.570261
-0.381001
-0.67761
0.0283456
0.246531
-0.274877
-0.955523
-0.0323458
0.987869
0.377366
0.0186812
0.837462
0.10021
-0.604067
-0.0409503
0.0335934
-0.826778
0.109663
0.92166
-1.03132
-0.404497
0.029965
0.374532
-0.71352
-0.242003
-0.721725
0.831387
0.711343
0.220133
-0.581562
0.996508
-0.818855
-0.177654
-0.13989
0.013643
0.126247
-0.461028
-0.0447117
-0.290085
1.00143
-0.00698134
0.437059
-0.430077
-0.499039
1.07928
0.716542
-0.821741
0.399139
-0.077089
-0.32205
0.760165
-0.760165
-0.89605
0.0396973
-0.31858
-0.699012
0.671585
-0.0326585
-0.145186
0.177845
0.894109
-0.00687559
1.04467
-0.808316
0.226264
-0.322507
0.0962428
0.968085
-0.130624
-0.674471
-0.0493436
0.723815
0.148185
-0.229679
0.0814937
0.797396
-1.01279
-0.439034
0.30917
0.129864
0.677832
-0.636218
0.864301
-0.391577
-0.472724
0.4833
-0.693938
0.0350974
0.658841
0.151493
0.66339
0.047849
-0.711239
0.13564
-0.0959429
-0.509206
0.104709
0.0358889
-0.904179
0.86829
-0.535575
-0.760305
0.0602305
0.502427
-0.0562565
0.276129
-0.833695
0.557567
0.424662
0.575338
0.59823
-0.564636
-0.392158
-0.0190078
0.411165
0.536332
0.223833
-0.663167
0.731829
0.0887473
0.887888
0.005161
-0.679632
-0.764918
0.800807
0.614046
0.100814
0.360538
-0.461351
-0.154246
0.536821
0.0362599
0.87298
-0.765283
-0.107697
0.659112
0.337396
-0.432683
0.691115
-0.590301
0.409174
0.148079
-0.0544078
-0.744465
-0.187919
0.932385
-0.123389
-0.636776
-0.613053
0.361723
0.251329
0.660546
-0.655385
0.312166
1.02623
0.0184334
-0.764918
-0.164573
0.0246835
0.716542
0.785766
-0.785766
0.843949
-0.829994
-0.0139542
-0.453752
0.878414
-0.19228
-0.316925
0.764591
-0.670894
-0.0936964
-0.885347
0.140882
0.109896
-0.713963
0.821741
-0.975987
-0.196011
0.195349
0.000662051
0.114602
-0.999755
0.885153
0.548621
-0.0196026
-0.288585
0.594392
-0.305806
-0.655234
0.769836
-0.158309
0.663314
-0.901138
0.237824
1.15091
-0.71532
-0.435586
0.731358
-0.0696376
0.00216193
-0.00224141
7.94766e-05
-0.801255
-0.904109
0.17628
-0.699012
0.57436
-0.544395
0.164914
0.660119
-0.825033
0.778872
0.166575
0.490523
0.509477
-0.0421527
-0.705168
0.74732
0.905139
-0.0321587
-0.731358
0.800807
0.181697
-0.430239
-0.0316093
0.0187248
0.0128845
0.671294
-0.429229
-0.242065
0.687852
-0.0509265
-0.240795
0.563532
0.107762
-0.0192998
0.000775314
0.0185245
0.00616365
-0.00400172
0.135804
-0.212893
-0.944075
0.0264783
-0.143268
-0.0602074
0.128063
0.789195
0.741642
-0.166305
0.58331
-0.418396
-0.162753
0.389018
0.636801
0.0510518
0.229716
-1.05971
-0.975987
0.321109
0.671585
-0.161862
0.0166763
-0.815674
1.02704
-0.211364
0.479459
-0.104927
0.798653
0.306062
0.24897
0.0057102
-0.680812
0.680812
0.225475
0.672908
-0.0215504
0.458609
0.471421
-0.00030227
-0.031307
0.542452
0.00616914
-0.655234
0.571539
0.193052
-0.00410268
0.00186127
-0.636801
0.172601
0.854437
0.0322086
-0.721366
0.689157
0.760558
-0.821093
0.060535
-0.778872
-0.0327654
0.0464837
-0.0137182
0.0863847
-0.119374
-0.102414
0.221788
-0.00705783
-0.0122419
0.770122
-0.737913
0.914343
0.0761034
-0.363304
-0.531942
0.895246
-0.00174709
0.00174709
0.176341
0.449493
0.555408
-1.0049
-0.198862
-0.550165
0.749027
-0.0205632
0.198408
0.380159
-0.231974
1.0132
-0.563707
0.790064
0.962862
-0.407455
0.187879
0.769836
0.589139
0.238383
0.637215
-0.636776
0.319188
-0.0350804
-0.00435148
0.0394319
0.933913
-0.0465306
-0.887383
-0.551113
0.527196
0.546248
-0.551113
-0.589139
0.527196
0.0146655
0.920346
-0.00600277
-0.536332
0.450638
0.0856939
0.529636
0.630407
-1.16004
0.534307
0.478893
0.625746
0.53718
-1.16293
0.532733
0.43013
0.450638
-0.514229
-0.485769
-0.674669
-0.623012
-0.241018
-0.00700768
0.00700768
0.665137
0.527781
-1.15079
0.71596
-0.355422
-1.08446
0.369137
-0.689874
0.447872
-0.0474595
-0.963735
1.01119
0.453057
-0.0696752
1.00359
-1.08503
-1.03921
0.104356
0.934857
0.213402
-0.19921
-0.0141923
0.725587
-0.789333
0.972291
-0.99445
0.0221587
0.0128381
-0.778121
-0.186589
0.925543
-0.738954
-1.00366
1.0165
-0.690597
0.51835
0.172247
-0.688912
-0.024619
0.713531
0.00332739
-0.00507449
0.424207
0.112737
-0.96316
0.850422
-0.792394
0.750241
1.08093
0.0744162
-1.15535
0.041721
-0.011321
0.422486
-0.361545
0.0390382
0.937545
-0.985005
-0.612808
-0.704632
-0.0734891
-0.168346
-0.953382
-0.0410682
0.452773
0.130536
-0.148228
0.36163
-0.678684
0.654065
0.472724
-1.03341
-0.929244
-0.00889851
-0.0818225
0.659088
-0.577265
0.0578131
-0.694631
0.578425
0.182133
0.0195964
0.983992
1.12085
0.934135
-0.975203
0.0462324
-0.0462324
-0.0726865
-0.0371879
-0.162022
0.34133
-0.0202212
0.198044
1.04181
0.0132552
-0.020313
0.657393
0.342607
0.796584
-0.607453
-0.757264
-0.623796
-0.483001
0.483001
-0.209466
-0.109115
0.641415
-0.945105
0.30369
-0.464589
-0.542862
0.341172
-1.01878
-0.97395
0.996109
-0.72192
0.648431
0.661332
0.20655
-0.867883
-0.451549
-0.18646
0.86493
-0.678471
-0.0678554
0.0107263
0.00180429
-0.0125306
0.0319101
-0.0690981
0.982587
0.542283
-0.2433
-0.298983
0.52809
0.752403
-0.526928
0.0146443
-0.287847
0.0299913
0.755309
-0.785301
-0.35745
-0.0605649
0.145131
-1.03989
0.152507
-0.738554
0.127553
0.733866
-0.861419
-0.908402
0.169848
0.726482
-0.787047
0.232418
-0.351792
-0.515996
0.0644475
0.368036
0.71811
-0.0269958
-0.00362366
0.00362366
-0.00623237
-0.0039056
-0.0311748
-0.0165913
0.0298465
-0.38546
0.343943
0.744557
-0.834076
0.0895184
-0.717218
0.844771
0.80678
-0.0802985
-0.71588
-0.192522
-1.13926
0.0210511
0.0251813
-0.355469
-0.902469
-0.848707
0.436569
-0.213679
0.279479
-0.0658001
-0.374865
0.019396
0.497684
0.711946
-0.0446396
-0.0155678
0.975442
0.524379
0.169082
-0.693461
-0.289047
-0.0858182
-0.00232003
0.0130464
0.744554
-0.932473
0.00515467
-0.00515467
-0.715628
0.768232
-0.0526037
-0.437274
-0.12312
-0.700895
0.0900413
0.657279
-0.0533286
-0.887355
-0.297351
0.292275
0.00507639
0.782853
-0.693334
0.352478
0.251761
-0.604239
-0.157915
-0.718768
-0.142651
-0.19125
-0.20731
0.471665
-0.516377
0.164241
0.753189
-0.91743
0.4833
-0.208172
-0.00550659
-0.104569
-0.102741
0.593906
-0.0939735
-0.499932
-0.286935
0.30808
-0.0211448
0.56171
0.15425
0.0880126
-0.313804
0.171941
0.141863
-0.0672421
-0.0973311
-0.331539
0.171811
-0.0369865
-0.134824
0.942571
-0.273821
-0.163453
0.553683
0.326661
-0.569961
0.398273
-0.398273
-0.19866
-0.389977
-0.21601
-0.389977
-0.71878
-0.852084
0.18119
-0.435843
0.73439
0.0495106
0.144574
0.573536
0.109089
0.118694
0.0104427
-0.129137
-0.143568
0.684525
-1.02094
0.488998
-0.0148254
0.059344
-0.0445185
-0.758769
-0.178382
-0.56192
0.731003
-0.523939
-0.0206198
-0.0821213
-0.342271
-0.0795521
0.0795521
0.0477533
-0.00126959
0.139746
0.182148
-0.706284
0.144364
-0.0191769
0.473332
0.526668
0.838254
0.0156253
0.0234892
-0.0391145
-0.299213
-0.588142
-0.517434
0.115841
-0.120389
0.00454874
-0.1496
-0.410899
-0.121036
0.778315
-0.594508
-0.164262
-0.00697684
-0.00440495
0.193431
-0.399
-0.199023
-0.186984
-0.0259086
-0.469812
0.427813
0.0419995
-0.0194778
0.295175
-0.865437
-0.53408
0.634747
-0.881252
0.723337
0.447288
-0.0316112
0.055658
-0.0240468
0.151436
-0.634136
-0.00979866
0.643934
-0.893136
0.651653
-0.724339
-0.0248314
0.00681546
-0.00681546
-0.29916
0.430088
-0.00760143
-0.00700776
0.0226331
0.587051
0.515903
-0.6236
0.011717
0.000265161
-0.00388882
0.0050654
-0.0050654
-0.472392
0.626642
0.0157805
-0.0157805
-0.781997
-0.00785655
0.0111839
-0.491495
0.635859
0.558686
-0.61129
0.0695303
-0.0695303
0.00544632
-0.0367533
0.0114236
-1.0887
0.653109
-0.538192
-0.00507449
0.609267
0.00266762
-0.611935
-0.712568
0.118061
-0.314181
-0.0130153
0.327196
-0.0218446
-0.022795
-0.608532
-0.0256037
0.0251813
0.00561221
-0.000457536
-0.00290776
0.00290776
-0.317295
0.182471
-0.469559
0.13373
0.662854
-0.119925
0.00542795
-0.00542795
0.50843
-0.0373699
0.00856255
0.0183658
-9.08158e-06
0.631602
-0.668972
-0.786183
0.62273
-0.108105
0.330848
0.788794
-0.00623237
-0.0866547
0.088516
-0.635672
0.546161
-0.250468
-0.103301
-0.0301069
-0.0262222
0.00689793
0.47759
-0.0853239
-0.414608
0.716461
0.00194228
0.00327586
-0.00327586
-0.215773
-0.135147
-0.569603
0.619114
-0.134025
0.509068
-0.193254
0.847904
0.854372
0.00561221
-0.724783
0.613577
0.0231406
-0.000504959
-0.0226357
0.603252
0.093024
-0.0117639
0.0653393
-0.0535753
0.00885617
-0.00885617
-0.741522
0.0232978
-0.0438026
0.0621685
-0.0853371
0.0853371
0.000265162
-0.000804416
0.763597
0.0908393
-0.315676
-0.0952225
-0.520911
0.0161638
-0.0659627
0.0659627
-0.0336682
0.0818156
-0.0818156
0.0262022
-0.0262022
-0.358594
-0.074089
0.238634
0.0705356
0.0523648
-0.730239
-0.0611852
0.159372
0.0223255
-0.237394
0.0818274
-0.0818274
-0.46813
-0.0482471
0.227986
-0.0093039
0.00270445
-0.668986
0.65432
0.019383
-0.0530511
0.0286321
-0.0653854
-0.0122853
-0.157852
0.170138
-0.148306
-0.203486
-0.0804409
0.0804409
0.0538693
-0.0538693
-0.0275408
-0.093582
0.121123
-0.0338374
-0.190693
0.000813627
-0.00470245
-0.185611
0.368081
-0.0256828
0.450248
0.00954729
0.00897718
-0.0503469
0.0503469
-0.734138
0.315056
-0.127177
-0.206851
-0.0228275
-0.0170636
0.019768
0.191589
0.0301991
-0.00254336
0.00253428
0.0858628
0.0299777
0.056486
0.102886
-0.0237052
0.00813749
-0.00187881
0.00614121
0.00473634
0.000718123
-0.00545446
-0.0030107
0.0114896
0.0270944
-0.0270944
0.0482757
-0.0436145
0.0436145
-0.189604
0.0151184
0.0319998
-0.0755468
0.017346
0.0781409
-0.0781409
0.233589
-0.234056
0.0857496
-0.0661418
-0.167914
-0.0146627
0.0146627
0.408489
0.250352
-0.521347
-0.0804462
-0.0399431
0.542219
-0.00520524
-0.0564556
-0.463527
0.0987182
-0.151241
0.16831
-0.0170692
-0.0481632
0.0481632
0.887512
-0.589007
-0.00418033
0.00116963
-0.005785
-0.287496
1.18672e-05
0.00489617
-0.0445088
-0.63023
0.569158
-0.660808
0.0144782
0.119712
0.0156158
0.0241447
-0.157026
-0.332814
0.257267
-0.0543157
0.0267749
0.173355
0.134725
0.214208
0.261966
-0.24635
0.00427881
-0.114141
-0.219867
0.0667474
-0.0102614
0.158934
-0.134789
-0.068355
0.154218
-0.409047
0.119717
-0.102371
0.0584093
-0.473018
0.173206
0.180108
-0.248463
0.0089462
-0.178985
0.178997
0.0036865
0.150531
-0.027834
0.0478305
0.460599
0.0124317
0.0154774
-0.0007976
0.0359463
-0.236936
-0.20295
0.59024
0.1664
0.0615855
0.0738764
-0.0642982
0.0590926
-0.0817283
-0.0304432
0.164857
-0.150378
0.0223753
-0.00888278
-0.105839
-0.0284539
0.0305128
0.25176
-0.0162388
-0.00629285
-0.308414
-0.00767661
0.219146
0.138285
0.176771
0.0565627
0.0954401
0.0580783
0.528972
-0.00733327
0.1066
0.0407046
0.0677771
-0.108482
-0.270995
-0.194848
0.0269339
-0.221257
0.28148
)
;

boundaryField
{
    FrontBack
    {
        type            empty;
    }
    Top
    {
        type            calculated;
        value           uniform 0;
    }
    In
    {
        type            calculated;
        value           uniform -1;
    }
    Bottom
    {
        type            calculated;
        value           uniform 0;
    }
    Out
    {
        type            calculated;
        value           nonuniform List<scalar> 10(1.16005 1.04387 1.16044 1.01163 1.16759 1.05314 1.19292 1.00745 0.596933 0.605987);
    }
    circle
    {
        type            calculated;
        value           uniform 0;
    }
}


// ************************************************************************* //
