/*--------------------------------*- C++ -*----------------------------------*\
| =========                 |                                                 |
| \\      /  F ield         | OpenFOAM: The Open Source CFD Toolbox           |
|  \\    /   O peration     | Version:  2412                                  |
|   \\  /    A nd           | Website:  www.openfoam.com                      |
|    \\/     M anipulation  |                                                 |
\*---------------------------------------------------------------------------*/
FoamFile
{
    version     2.0;
    format      ascii;
    arch        "LSB;label=32;scalar=64";
    class       volScalarField;
    location    "1449.5";
    object      yPlus;
}
// * * * * * * * * * * * * * * * * * * * * * * * * * * * * * * * * * * * * * //

dimensions      [0 0 0 0 0 0 0];

internalField   uniform 0;

boundaryField
{
    FrontBack
    {
        type            empty;
    }
    Top
    {
        type            calculated;
        value           nonuniform List<scalar> 
15
(
142.2881165769307
133.588599096853
138.0682332622753
144.4108266766395
159.7705564169327
131.3682399501706
140.1382526234819
135.3610802159743
153.4520754577753
135.7320963097071
136.0953934029062
136.7693974252994
125.2659632275147
132.9127019420417
123.9532231544346
)
;
    }
    In
    {
        type            calculated;
        value           uniform 0;
    }
    Bottom
    {
        type            calculated;
        value           nonuniform List<scalar> 
15
(
155.5665167045787
158.1186342241802
141.0830105489964
142.0423591859721
141.1766706018296
148.4243089984996
142.698237061583
143.1483835912244
143.4221352894885
134.0565212297071
125.725169804034
141.553625131806
122.4053229314383
123.4871482972503
124.1296052199494
)
;
    }
    Out
    {
        type            calculated;
        value           uniform 0;
    }
    circle
    {
        type            calculated;
        value           nonuniform List<scalar> 
32
(
56.16848922572356
22.203733266791
65.29781187710712
24.11007548622537
19.51839585515475
56.15246550543346
56.71121770025757
23.86554345903624
22.3549544127646
65.53454398545996
39.95132735256806
62.99789767221976
50.46612282190349
15.66138946051553
23.39547317811565
17.97262581554983
39.12526854366675
59.68676941341218
60.99448580014808
24.28631912132327
65.72442922402311
63.82619353136893
62.99932753000762
59.93586792885126
64.09372210708923
45.92043699117797
66.38071773204386
32.01680516238552
38.03692733111441
55.7714363862798
20.96104183767629
43.17775257359229
)
;
    }
}


// ************************************************************************* //
