/*--------------------------------*- C++ -*----------------------------------*\
| =========                 |                                                 |
| \\      /  F ield         | OpenFOAM: The Open Source CFD Toolbox           |
|  \\    /   O peration     | Version:  2412                                  |
|   \\  /    A nd           | Website:  www.openfoam.com                      |
|    \\/     M anipulation  |                                                 |
\*---------------------------------------------------------------------------*/
FoamFile
{
    version     2.0;
    format      ascii;
    arch        "LSB;label=32;scalar=64";
    class       volVectorField;
    location    "42.7";
    object      U;
}
// * * * * * * * * * * * * * * * * * * * * * * * * * * * * * * * * * * * * * //

dimensions      [0 1 -1 0 0 0 0];

internalField   nonuniform List<vector> 
808
(
(0.89673 -0.0119962 0)
(1.00032 -0.0398313 0)
(1.07905 -0.224904 0)
(1.06614 0.0114618 -2.63287e-21)
(1.4842 -0.245232 0)
(0.944728 -0.0226731 0)
(1.09936 -0.0448064 -7.10825e-21)
(1.12987 -0.0420401 0)
(1.34822 -0.193433 2.80052e-20)
(1.20839 -0.0591584 -3.75532e-21)
(1.24463 0.100146 8.19701e-21)
(1.38653 -0.205855 0)
(0.986681 -0.0396423 0)
(0.724618 -0.0184119 0)
(1.04854 0.0452039 1.71655e-20)
(1.06591 -0.0272401 0)
(0.903255 0.077425 -6.75196e-21)
(0.959749 -0.0128727 -1.39502e-22)
(1.22615 -0.104049 0)
(1.10275 0.00114849 0)
(1.20185 0.0902436 -1.14373e-20)
(0.924198 0.124838 1.14281e-19)
(1.07144 0.00763426 -1.80356e-20)
(1.16397 -0.0345808 0)
(0.961701 0.183915 0)
(1.36761 0.0341717 -2.7752e-20)
(1.27548 -0.138825 1.02384e-20)
(0.997079 -0.0335044 -9.62485e-21)
(1.05605 -0.00496464 0)
(1.0598 0.0176279 -2.95462e-22)
(0.990751 -0.00190486 7.84614e-24)
(1.11102 -0.0111632 0)
(1.06973 0.0589371 0)
(1.09351 -0.02898 8.193e-21)
(1.26423 -0.0386329 4.96282e-21)
(0.748459 -0.114057 1.10564e-19)
(0.850514 -0.0280872 -1.58014e-20)
(1.05163 0.0513523 1.9153e-21)
(1.17803 0.0584696 -6.16767e-21)
(1.12369 0.0430956 0)
(1.22785 -0.0568444 -7.71531e-21)
(1.26162 -0.10288 0)
(1.00231 -0.0197291 -1.20158e-20)
(1.1538 -0.0116272 1.29931e-20)
(1.30797 -0.189716 0)
(1.00931 0.0163316 -2.39787e-20)
(1.01379 0.0365126 4.09761e-21)
(1.2526 -0.216776 1.46257e-20)
(1.17014 0.0562475 -1.31918e-20)
(1.39395 -0.113898 -4.04548e-20)
(1.09683 -0.0145436 1.32454e-20)
(1.13829 -0.0547517 0)
(1.11241 -0.00280799 1.08097e-20)
(1.22639 -0.0127665 0)
(1.32475 0.221274 2.48596e-21)
(1.07106 0.0487472 -5.13995e-21)
(1.28969 0.0484519 0)
(1.34817 -0.0522324 4.73684e-23)
(1.21859 -0.0726709 4.03127e-21)
(1.14364 0.0285858 -2.03274e-21)
(-0.0281896 0.0633187 0)
(1.2134 -0.192446 -8.4122e-21)
(1.24841 -0.0818794 0)
(1.36316 -0.0294937 -2.32737e-20)
(1.18289 -0.03637 -1.23189e-20)
(1.03152 -0.0290461 -1.20782e-20)
(1.37644 -0.015622 2.43452e-20)
(0.665024 0.0179929 0)
(1.18646 0.00559807 0)
(1.48139 -0.318724 0)
(0.89053 0.0263818 -3.99708e-22)
(1.32919 -0.0962759 -5.01545e-20)
(0.997689 0.042752 0)
(1.05758 -0.0421142 -6.89888e-21)
(1.12908 -0.323255 -5.2683e-20)
(1.09862 -0.00163087 -2.50144e-20)
(1.13465 0.0135345 -5.78134e-22)
(1.32822 0.500242 2.49165e-20)
(1.08113 -0.0406215 0)
(1.00893 0.280225 -1.91316e-19)
(1.36509 -0.00785954 1.31351e-20)
(0.75516 0.0116682 0)
(0.857925 0.0236495 -1.75128e-20)
(0.972116 -0.10913 4.16112e-21)
(1.11151 -0.0222525 1.97433e-20)
(1.16719 0.00410524 -8.1429e-24)
(1.35864 -0.205252 0)
(1.3471 0.285191 0)
(1.08064 0.00262692 -2.21885e-20)
(1.44778 0.0775736 3.01858e-20)
(1.07133 -0.016678 1.57962e-20)
(1.3006 -0.0816932 -1.41461e-21)
(0.96551 0.0227374 1.84075e-20)
(1.00337 -0.026613 0)
(1.11005 0.00603084 2.29598e-21)
(1.26928 0.039121 -4.72879e-20)
(0.77663 0.0119454 -3.14931e-21)
(1.36877 -0.10531 0)
(1.28911 -0.0572922 0)
(1.39573 0.0194042 -4.29669e-20)
(1.08554 -0.0311473 -8.58718e-21)
(1.11092 0.00673233 -2.7648e-22)
(0.942277 0.0211037 1.48315e-20)
(1.16231 -0.0167285 6.79683e-22)
(1.24281 -0.0112078 -3.48162e-21)
(0.99964 -0.0017598 1.76494e-20)
(1.49936 -0.189935 0)
(0.973579 0.287209 0)
(1.09119 0.0317885 1.14111e-20)
(1.20532 -0.198026 -5.47193e-21)
(1.23128 -0.0156384 1.36749e-21)
(1.03934 0.0396776 -1.25806e-19)
(1.15481 0.0367761 -4.58773e-21)
(1.19867 0.236309 5.98556e-21)
(0.817649 0.0222973 0)
(0.921305 -0.0486731 7.55307e-20)
(1.13931 0.0171727 -1.21141e-20)
(1.47484 -0.211402 -2.09933e-20)
(1.14473 -0.0500082 -1.10551e-20)
(0.927372 0.015581 2.00493e-21)
(-0.227148 0.0660565 0)
(0.845879 -0.019789 1.91114e-21)
(0.793584 0.0234649 0)
(1.05651 0.00233459 -1.11258e-22)
(1.0149 0.0283759 0)
(1.31263 0.317149 4.45245e-21)
(1.03626 -0.0460495 -3.26141e-20)
(1.36461 0.242572 -7.39873e-22)
(1.14051 -0.0562303 0)
(1.08929 -0.020425 0)
(0.759178 0.136498 0)
(1.15125 -0.0361181 -4.75469e-21)
(1.21644 -0.0334142 3.74086e-21)
(1.06984 0.10922 -3.68008e-20)
(0.852486 -0.0358606 0)
(1.09479 0.0191655 -3.08181e-21)
(0.881822 0.0422305 4.13253e-21)
(1.04838 -0.00278769 -5.65661e-21)
(0.992407 0.0334289 7.49551e-21)
(1.11635 0.006739 2.31775e-22)
(0.0135033 0.124434 0)
(1.08776 -0.016727 -1.73594e-20)
(0.870333 -0.236073 2.2697e-21)
(0.70913 0.0257499 -6.86958e-21)
(1.26446 0.16709 4.06659e-21)
(1.0384 0.258653 4.32953e-21)
(1.04358 0.0214101 1.87229e-20)
(0.991216 0.028959 0)
(1.14104 -0.361403 -7.78349e-21)
(1.09527 0.270136 0)
(0.938477 0.030137 1.44292e-20)
(0.966354 0.28068 1.52767e-19)
(0.967738 0.0357362 0)
(0.822173 0.0997549 0)
(-0.0885347 0.165395 -6.74542e-20)
(1.34716 0.126066 -9.69511e-21)
(0.67778 -0.0213582 0)
(1.51276 -0.012593 0)
(0.958604 -0.132726 0)
(1.36611 0.0763234 1.18756e-20)
(-0.0598713 -0.0834383 0)
(-0.0375716 0.14546 3.05428e-20)
(1.14914 0.0611528 1.01602e-19)
(1.00264 0.0370257 2.48334e-21)
(0.85481 -0.00316244 0)
(1.04786 -0.0535028 1.54053e-20)
(0.882955 0.021167 0)
(0.884434 0.0677732 -1.09773e-19)
(1.02748 0.0489923 2.14633e-20)
(1.17829 -0.0331109 3.73907e-21)
(1.08683 0.0128645 9.70857e-21)
(1.01438 0.0695426 -1.33878e-20)
(0.730255 0.311073 -4.31018e-21)
(1.1387 -0.337588 3.94273e-22)
(0.917062 -0.0142718 0)
(1.0649 0.00697514 -1.51791e-20)
(0.871823 0.00619891 -1.37675e-20)
(1.35487 -0.114195 2.1478e-21)
(0.676827 0.019913 0)
(1.14485 -0.11428 0)
(1.153 -0.0688612 5.69509e-21)
(1.39424 0.214826 7.70028e-21)
(1.10696 0.013519 7.89247e-21)
(1.03452 0.0191288 1.92478e-20)
(0.924312 0.111559 -9.79667e-20)
(0.812919 0.00425288 2.37429e-20)
(1.1226 -0.0206941 9.22259e-21)
(1.30233 -0.0133838 -3.06156e-21)
(1.14505 -0.0394103 -7.05893e-21)
(1.25999 -0.0232291 2.62337e-21)
(-0.0735094 0.191355 4.85183e-20)
(1.23084 -0.0334289 0)
(0.621517 -0.0141576 0)
(1.05575 -0.022873 -6.924e-21)
(1.09062 0.0105271 1.40312e-20)
(0.108198 0.154009 0)
(0.883125 -0.0268912 7.37696e-22)
(1.15314 -0.078709 -3.13084e-21)
(0.970923 0.0042191 1.19588e-21)
(1.07807 0.0318722 -8.67888e-21)
(0.999254 0.0236047 2.30587e-21)
(1.05711 -0.0678414 2.7618e-21)
(1.08051 0.032011 0)
(0.460663 -0.0048261 0)
(1.05049 -0.0678281 0)
(1.16548 0.109562 -2.37052e-20)
(-0.0755787 -0.0483499 5.51427e-20)
(1.07283 0.0298572 -1.54068e-23)
(1.09501 -0.118643 0)
(0.747942 0.0254766 -1.41236e-20)
(1.09269 0.239628 4.74743e-22)
(0.0142722 -0.0370712 -1.89636e-19)
(0.83407 0.134654 -3.79812e-20)
(0.640431 -0.0191626 0)
(0.926707 0.181821 0)
(0.92508 0.0134693 1.38146e-20)
(1.12168 -0.0682658 7.42814e-21)
(1.28093 0.397735 -5.31821e-21)
(1.10678 0.050284 4.70255e-22)
(1.26916 -0.117364 -3.60281e-22)
(0.954657 0.248882 0)
(1.36413 0.424492 -2.80801e-20)
(0.656885 -0.0130837 0)
(0.802526 -0.0195399 -4.84138e-21)
(1.09935 -0.0301867 6.07176e-22)
(0.610944 0.0118364 0)
(1.10033 -0.00663098 0)
(0.108326 0.33747 -3.57936e-20)
(1.27716 -0.264911 5.96971e-21)
(0.748666 -0.0132541 4.62112e-21)
(0.989875 -0.00540067 0)
(0.564599 -0.0116091 0)
(0.764273 -0.0151799 -4.79947e-21)
(0.563851 -0.0180045 -9.7968e-22)
(1.36157 -0.0163791 2.56224e-22)
(1.26254 0.0159168 2.32836e-21)
(0.718714 0.0177553 -2.29909e-21)
(1.2245 -0.0273214 1.50799e-22)
(1.18135 -0.0771452 -4.43086e-22)
(0.553239 0.013474 6.22591e-21)
(1.32544 -0.0637592 -9.51377e-22)
(1.21665 -0.149501 0)
(0.944169 0.0274028 0)
(0.505013 0.0166394 0)
(1.08606 -0.0296702 0)
(1.15939 -0.0668663 -3.23438e-21)
(1.08531 -0.160977 0)
(1.20845 -0.07761 0)
(0.921025 -0.121333 0)
(1.0199 0.13138 0)
(-0.0362289 -0.0611525 5.76595e-20)
(1.10462 -0.07709 2.11926e-21)
(0.860626 -0.0191685 0)
(1.24554 -0.0384737 -3.77334e-22)
(1.09969 0.0115257 2.84882e-21)
(1.11895 0.0488239 4.68881e-21)
(1.07134 -0.110526 5.60438e-21)
(1.00603 -0.133308 0)
(0.574296 -0.012818 9.85089e-21)
(1.05199 0.0421256 1.3021e-20)
(1.25808 -0.222962 0)
(1.20527 0.12263 2.32164e-22)
(1.1632 0.10737 4.93307e-21)
(0.84291 0.226086 1.88653e-20)
(1.19176 -0.00553907 6.7268e-21)
(1.08337 0.155877 -9.35413e-21)
(1.15013 0.221917 0)
(1.09847 0.143186 -2.17035e-20)
(1.23567 0.232014 1.16674e-21)
(0.689097 -0.205203 4.22587e-21)
(0.904567 -0.158057 0)
(0.00228771 -0.0216964 0)
(0.967515 0.111039 -1.81083e-20)
(1.1357 0.0360758 0)
(1.22332 -0.138068 1.19091e-20)
(1.26228 0.120217 1.1726e-22)
(1.0912 0.169058 8.992e-21)
(1.12257 0.101997 -4.74782e-21)
(1.31449 0.0680526 6.13942e-20)
(1.02256 -0.320758 5.31838e-20)
(1.07486 -0.0609764 -6.20861e-22)
(0.853244 -0.227169 0)
(1.03864 0.150685 0)
(0.905924 0.00234452 -3.23015e-20)
(1.35312 -0.340206 -6.44555e-20)
(1.03678 0.0183538 0)
(0.656293 0.1755 1.17693e-20)
(0.7191 0.314495 0)
(0.767258 -0.196515 4.43172e-21)
(0.679535 0.0299184 -1.5033e-20)
(0.81978 0.0169326 -8.93285e-21)
(1.06257 -0.12803 0)
(1.31317 0.209764 -1.36793e-22)
(1.23382 0.137054 -2.02634e-21)
(0.80217 -0.327333 -4.85061e-23)
(1.0412 0.00354985 -4.96825e-21)
(0.715062 -0.38643 0)
(1.09133 0.0649967 0)
(1.11311 -0.2236 8.90628e-21)
(0.83162 -0.310655 -4.47688e-21)
(1.24858 0.163841 -1.2768e-21)
(1.07633 -0.000461758 -5.02257e-21)
(1.05407 0.0399598 -6.53225e-22)
(1.06185 0.0582301 0)
(0.454663 -0.145159 1.60777e-20)
(1.34414 0.0485671 -1.56912e-20)
(0.703717 -0.268804 -6.13661e-21)
(0.43478 -0.0862336 -1.99502e-20)
(1.38924 -0.0614337 2.32042e-20)
(1.04711 0.0237177 8.99046e-20)
(1.12721 -0.126563 -9.25462e-21)
(1.0534 -0.0538719 1.94738e-22)
(-0.0961435 -0.0129882 -9.50697e-21)
(0.999407 -0.00681714 0)
(1.03452 -0.0859011 -1.58152e-20)
(0.832906 -0.0358958 1.74625e-20)
(1.10648 -0.0343801 8.19469e-21)
(0.940634 -0.278847 5.60785e-21)
(0.529496 -0.0240292 7.84678e-22)
(1.43302 -0.356959 -1.72013e-20)
(1.09894 -0.0286461 0)
(1.05077 -0.00965311 -2.08947e-21)
(1.14403 0.0140402 -4.49502e-21)
(1.05932 0.114643 0)
(0.806222 0.134986 -2.95795e-21)
(1.10157 0.0152372 5.87908e-21)
(0.866884 -0.183726 -1.70148e-20)
(1.10906 -0.0621362 -1.09501e-20)
(0.82777 -0.0618121 2.21603e-21)
(-0.0467004 0.0361681 0)
(0.55939 -0.154345 3.30255e-20)
(1.17901 -0.0263474 0)
(1.1318 0.146192 2.63039e-20)
(1.12421 0.283818 0)
(1.11881 -0.0326637 8.97415e-21)
(1.01489 0.0257484 0)
(0.948139 -0.019567 0)
(1.34588 -0.0520474 1.54934e-20)
(0.799797 -0.086614 0)
(1.15726 0.133915 -6.18238e-21)
(1.17245 -0.0124712 5.24701e-22)
(1.04802 0.00593199 5.40181e-21)
(1.27217 -0.189818 -9.66182e-21)
(1.24802 0.110432 -1.64836e-21)
(1.29417 -0.241551 -1.19071e-20)
(1.06678 -0.0210114 0)
(1.09093 -0.0171543 0)
(1.0408 0.0295022 3.60675e-21)
(1.19246 -0.0711032 0)
(1.42542 0.22336 -2.20723e-20)
(0.936028 -0.0637496 6.81754e-22)
(1.02755 0.0121511 2.58827e-20)
(1.22974 -0.0372625 1.05565e-22)
(-0.0121711 0.0111724 0)
(-0.0442495 -0.0818898 0)
(0.0069401 0.322134 -4.55013e-20)
(-0.102655 -0.00766384 0)
(0.755575 0.134058 1.18164e-20)
(1.15807 0.0324289 -3.94054e-21)
(1.09559 0.0567086 -8.63274e-21)
(1.13084 -0.101959 -3.82202e-21)
(1.1467 -0.0948255 0)
(0.713595 -0.0269561 -3.7406e-21)
(1.06873 0.0651341 0)
(1.0998 -0.0218929 2.10337e-21)
(0.56085 -0.1102 0)
(0.786085 0.221984 2.31084e-22)
(1.07223 0.101463 0)
(1.22872 0.0377891 0)
(0.316484 0.00233659 3.01987e-22)
(0.617566 0.434695 -6.53253e-22)
(0.81519 0.217175 6.9256e-21)
(1.00958 0.0182626 -1.00629e-20)
(0.307264 0.0348875 0)
(1.23702 -0.0329524 1.05875e-20)
(1.26471 0.0599778 3.09044e-21)
(1.27791 -0.182354 1.33436e-21)
(0.547183 0.293999 8.48392e-21)
(-0.0688154 0.0183322 -1.10132e-19)
(1.14869 0.110756 0)
(-0.0265587 0.0285422 0)
(1.21761 0.101302 7.8394e-21)
(0.533752 0.341106 -9.12661e-21)
(1.20463 0.059153 -1.40895e-20)
(1.08894 -0.0312297 0)
(1.15499 0.0853872 6.44443e-21)
(1.21404 -0.309955 7.43272e-21)
(0.667781 -0.00564745 -1.23028e-20)
(1.11556 -0.0346978 -5.23373e-21)
(1.08449 -0.0436471 -6.97025e-22)
(0.361264 -0.486661 5.99266e-21)
(1.15817 0.0512817 -3.18673e-20)
(1.14497 0.0241307 0)
(1.12118 0.112995 0)
(1.10384 -0.0723496 -2.96216e-21)
(1.24218 0.0552981 -2.79287e-21)
(0.617559 -0.382386 -2.20011e-20)
(1.18764 -0.0948544 -1.37008e-20)
(1.1411 0.0611677 1.14644e-20)
(0.528933 0.000916988 2.25307e-20)
(0.0937869 0.22689 -1.23242e-20)
(0.613133 -0.352658 2.1809e-20)
(1.17266 0.183699 -6.48677e-21)
(1.25145 -0.484995 8.04983e-21)
(1.29948 -0.0285057 -5.29407e-22)
(1.12782 -0.0588348 3.51045e-21)
(0.940795 -0.23327 9.26674e-20)
(-0.170245 -0.310647 0)
(1.26145 -0.0117215 1.22125e-21)
(0.0726408 -0.319451 -1.08653e-20)
(1.2004 0.136882 -6.78375e-21)
(1.16675 -0.175123 2.91736e-21)
(1.07899 0.0236119 0)
(0.329353 0.0567516 0)
(1.15328 -0.0416404 0)
(1.45654 0.17871 -1.09106e-20)
(1.21847 -0.0285407 -2.47422e-21)
(1.09557 -0.040001 7.37129e-21)
(0.484089 0.0160231 0)
(0.64591 0.00564071 0)
(0.637452 -0.00145483 4.15558e-22)
(0.447016 -0.0100719 0)
(1.26254 0.0878548 0)
(1.01863 -0.0125102 2.56384e-20)
(0.282547 -0.0499953 0)
(0.945143 0.0548404 0)
(1.15509 0.038241 0)
(1.17433 0.17377 -1.31907e-20)
(1.24946 0.00520855 -2.76893e-21)
(0.947936 -0.0326794 1.15638e-20)
(1.34791 -0.390913 -1.29626e-19)
(0.350433 -0.222776 -3.52059e-21)
(1.1069 0.0798442 8.01536e-21)
(1.06443 0.238391 0)
(0.150662 -0.595734 0)
(-0.210222 0.435354 0)
(1.12238 -0.0500665 6.62431e-21)
(1.33058 -0.264102 -3.72458e-20)
(1.36241 -0.0034057 0)
(1.04648 0.0257834 -1.432e-20)
(0.785989 -0.311009 0)
(1.49653 -0.0967167 8.16542e-20)
(0.414264 0.523561 1.20119e-19)
(0.395652 -0.0118835 0)
(1.16048 -0.268227 1.39171e-19)
(-0.0656227 -0.129934 0)
(0.131705 -0.527926 -1.45595e-20)
(1.35744 0.00556614 0)
(-0.248757 0.277058 5.32145e-21)
(0.984479 -0.0519586 0)
(1.15917 -0.156384 -2.87778e-21)
(-0.182655 0.156764 -9.20809e-21)
(1.10472 -0.0460667 3.70392e-21)
(1.08977 0.255488 -1.12121e-22)
(0.580389 -0.518547 -9.07907e-20)
(1.05 0.0846936 -4.0257e-21)
(1.18567 -0.10727 3.71547e-21)
(1.17656 0.245073 -2.62488e-20)
(1.14901 -0.166769 5.92542e-21)
(1.14033 -0.0479523 1.60842e-21)
(0.336124 -0.0637793 -9.20775e-20)
(0.0904691 0.189584 -6.79844e-21)
(1.20166 0.197593 4.75967e-21)
(1.05617 -0.043794 0)
(0.680312 0.393565 -3.21344e-21)
(1.43779 -0.421055 1.00681e-19)
(1.0546 -0.0178066 -7.6692e-20)
(1.46399 0.155861 6.74466e-20)
(1.073 -0.0153954 9.00108e-21)
(1.06891 0.174123 2.6277e-20)
(1.05862 -0.0108356 0)
(1.15795 -0.0261632 0)
(1.09229 -0.106586 -6.61184e-21)
(1.08717 -0.0199914 -4.50585e-21)
(1.04839 -0.207321 -6.05167e-21)
(1.08695 0.0690941 -1.08398e-20)
(1.3269 -0.00406855 -1.90141e-20)
(0.421093 0.0281985 0)
(1.03304 0.0358108 2.26426e-20)
(1.27861 -0.0663405 0)
(1.09926 0.0748815 -6.81351e-21)
(1.13925 0.00708503 0)
(1.03894 -0.00871992 1.47037e-20)
(1.23199 0.0170159 7.48265e-21)
(0.949904 0.250561 0)
(0.0825312 -0.0239768 1.93422e-19)
(0.885211 -0.212884 -7.26812e-20)
(1.16575 0.0393764 -1.33403e-20)
(-0.150088 0.115907 4.35554e-20)
(1.17511 0.0174777 -1.17156e-22)
(0.762993 0.316608 2.23224e-21)
(-0.11302 0.13425 -4.53781e-20)
(-0.0235887 0.0480706 -2.7299e-20)
(1.02114 -0.0257346 0)
(-0.0362403 -0.0502828 0)
(1.1115 -0.0956699 0)
(0.113372 -0.105308 0)
(1.09683 -0.0331184 0)
(0.197792 0.0432718 0)
(1.13196 0.0342824 0)
(1.12659 -0.128746 0)
(1.39013 0.12632 1.34057e-21)
(0.607636 -0.297102 -2.5143e-20)
(-0.0907978 0.286232 0)
(1.24338 -0.0282995 7.98191e-20)
(1.14167 0.036825 7.05035e-21)
(1.07432 -0.0242151 0)
(-0.0359485 -0.0473942 0)
(1.15257 -0.0104923 -3.66419e-21)
(1.15324 -0.035044 7.6145e-22)
(1.16861 0.389482 0)
(0.386938 -0.00596888 8.17277e-20)
(1.12159 0.0529118 1.79165e-21)
(0.27727 -0.0514351 -6.41922e-20)
(-0.0593583 0.0332403 -2.82727e-20)
(-0.0396448 0.0499838 7.465e-20)
(0.23889 -0.467047 1.96619e-20)
(0.889055 0.338177 -2.10025e-21)
(1.14932 0.0684052 -1.24045e-20)
(1.02327 -0.00932435 0)
(1.07131 -0.0576819 -2.13314e-20)
(1.25495 -0.0201412 2.97618e-21)
(-0.0148671 -0.0182623 1.10149e-19)
(0.974134 -0.0707879 -5.82421e-20)
(0.870224 0.352277 4.58933e-21)
(1.1603 0.139154 1.37913e-22)
(0.112207 -0.0238914 4.37089e-20)
(0.29632 -0.0330104 -5.98391e-20)
(0.55979 0.0126885 -7.42246e-20)
(1.33187 0.190985 -4.19315e-21)
(-0.0513697 -0.0478869 0)
(1.16271 0.327713 -3.20717e-21)
(0.869117 -0.0471731 4.56492e-20)
(1.03186 -0.076215 -4.40173e-20)
(1.17499 0.0129341 0)
(1.51236 -0.170321 8.83463e-20)
(1.15859 0.0518702 -3.17732e-21)
(-0.0241438 -0.0445205 -3.87976e-20)
(0.287137 0.123078 0)
(0.910085 0.0290839 -1.8831e-21)
(1.12662 0.0135989 2.96095e-21)
(1.14661 -0.406888 1.98732e-20)
(1.15687 -0.0166648 2.3676e-21)
(1.11804 0.039947 0)
(1.22546 -0.143524 -1.85277e-20)
(-0.137482 0.0952677 -8.23922e-20)
(1.25337 -0.00950125 7.71191e-21)
(1.10006 0.165561 -8.54968e-21)
(1.06849 0.0691582 1.23974e-20)
(-0.0489693 -0.0802153 1.96484e-20)
(-0.0145758 0.0279482 -5.93764e-20)
(0.525564 0.169194 0)
(0.507506 -0.146545 0)
(1.15295 0.0942467 -2.24116e-20)
(1.05257 0.0618397 1.52496e-20)
(1.07724 -0.0055176 0)
(0.546 0.24874 3.66003e-20)
(0.716875 0.0948702 -9.75711e-21)
(1.1001 0.10589 0)
(1.05877 0.0486828 0)
(1.16409 -0.0631068 0)
(1.25504 -0.0530514 0)
(1.0365 0.0110711 4.80375e-21)
(-0.0430359 0.0408648 3.08751e-20)
(1.35846 0.0551163 2.2534e-21)
(1.44814 -0.114305 -9.77902e-20)
(1.0982 -0.0769415 -8.2669e-21)
(0.197565 0.241118 0)
(1.00705 0.133032 0)
(0.639343 -0.0109483 -1.06989e-21)
(0.532033 0.0104231 -5.37943e-20)
(0.0657014 0.038335 4.41572e-20)
(0.949665 0.00462155 2.26079e-21)
(0.793982 -0.279312 0)
(0.749135 -0.0855559 0)
(1.07159 -0.152966 0)
(0.543214 0.517894 1.79453e-20)
(-0.010721 0.0275757 -2.96048e-20)
(1.01827 0.0943012 -7.9827e-21)
(-0.0324578 -0.0421578 7.56092e-20)
(1.13187 -0.0697904 2.5363e-21)
(1.17246 0.310991 5.00641e-20)
(1.10754 -0.0743072 8.92111e-21)
(0.639525 0.0221458 1.20237e-19)
(1.12469 0.252632 2.80898e-21)
(0.880988 0.271808 0)
(0.559567 0.272939 0)
(0.863706 0.207322 9.91016e-22)
(-0.25887 0.284427 0)
(0.6208 0.0314825 4.39906e-21)
(0.624527 -0.429689 -3.79289e-21)
(0.234363 0.0502512 -1.05257e-19)
(1.13358 -0.213666 2.75658e-20)
(1.03783 0.36615 1.06543e-20)
(0.984634 0.0171302 0)
(1.26097 0.0559485 -8.17887e-22)
(0.662183 0.0127675 0)
(1.0202 -0.00990103 -5.13848e-22)
(0.533228 -0.000894465 0)
(0.718332 0.13115 0)
(0.988609 -0.0273641 -8.17992e-21)
(1.44663 0.169451 -1.13951e-20)
(1.08962 -0.0787861 4.50513e-21)
(0.534827 -0.503195 0)
(1.13313 -0.142143 1.74904e-21)
(0.809762 0.382254 7.27419e-20)
(-0.0454646 0.0170127 1.04926e-21)
(1.20808 -0.0737429 5.90759e-21)
(1.21654 0.0156021 -5.11811e-21)
(1.1419 -0.187575 6.41643e-22)
(0.813325 0.0123232 -9.31416e-21)
(0.0552663 0.0200842 3.35579e-20)
(-0.0222054 0.00957001 -6.11196e-20)
(-0.189942 0.327708 0)
(-0.0853384 0.389274 0)
(1.21503 -0.615215 3.71175e-20)
(1.13162 -0.0330501 -1.56946e-21)
(0.927464 -0.475728 -5.14143e-20)
(1.16054 0.330585 4.60431e-21)
(1.37655 0.197608 2.92435e-20)
(0.606366 0.423637 0)
(0.247646 0.41932 -1.17536e-19)
(0.600166 0.486719 0)
(0.1418 0.211843 0)
(1.13391 -0.467736 0)
(-0.0473841 0.100275 2.60531e-22)
(1.175 -0.0152566 0)
(0.822204 -0.219564 -1.50483e-20)
(0.599659 0.699161 2.04445e-20)
(1.32669 0.0128544 8.58725e-21)
(-0.0320867 -0.0712961 -1.42612e-19)
(0.805729 -0.0752004 -4.15127e-20)
(0.450236 0.14533 -1.27226e-20)
(1.20752 0.0751238 0)
(1.36774 0.359086 2.84199e-20)
(1.2288 0.572006 3.06473e-21)
(0.148483 -0.0182887 -1.93472e-20)
(0.998601 0.150014 2.62397e-20)
(0.975695 -0.0314028 1.17784e-21)
(0.917388 0.00447007 -5.96842e-22)
(0.0275651 -0.0270871 0)
(0.654209 -0.656263 -2.93754e-20)
(0.617082 0.20445 0)
(0.137296 0.0408643 0)
(-0.0398164 0.0447899 0)
(0.00600112 -0.0180192 -5.47759e-20)
(1.23224 -0.037862 -6.86452e-21)
(-0.0317652 0.060408 0)
(-0.0239423 0.0556286 0)
(1.46401 0.12093 -6.37987e-20)
(-0.0291597 -0.0810248 6.43008e-20)
(0.115466 0.237094 -1.02456e-19)
(0.378723 0.016991 0)
(0.172025 -0.280082 8.12569e-20)
(1.16375 -0.230765 0)
(0.9979 -0.277685 0)
(0.0279303 -0.0366087 1.35573e-19)
(1.14449 0.0219843 -2.85153e-22)
(1.12179 0.343994 3.08621e-20)
(0.254345 0.0296547 4.29155e-20)
(0.410005 -0.525735 -3.4236e-20)
(1.33296 0.0752598 0)
(1.22395 0.204968 1.94989e-20)
(1.2244 0.214481 -2.3952e-20)
(0.103041 0.0905293 -2.36729e-20)
(-0.0725385 0.099713 0)
(1.06911 -0.0523433 -1.8611e-20)
(1.10364 -0.211883 -1.36634e-20)
(0.588588 -0.404775 0)
(1.09754 -0.14368 -2.50554e-20)
(0.0146513 0.374247 0)
(0.586241 0.0560009 0)
(1.29196 -0.0283081 3.98821e-21)
(0.989807 0.0257549 5.77662e-22)
(1.08576 0.752239 -1.8928e-20)
(0.228117 -0.383579 1.29761e-19)
(1.11073 0.0549162 -8.97945e-22)
(1.20723 0.0681832 -2.82495e-21)
(-0.0393282 0.09795 2.81658e-20)
(0.792413 0.739094 3.11183e-20)
(1.36433 -0.336976 -1.54298e-20)
(-0.213388 0.174163 3.93341e-20)
(1.18752 0.0128589 0)
(0.462366 0.147763 -9.75196e-21)
(0.925971 -0.646895 3.42127e-21)
(0.904491 0.646256 -1.62889e-20)
(0.646564 -0.0119588 -8.0395e-20)
(1.13214 -0.0178955 -1.27321e-20)
(1.07464 -0.0781398 7.18164e-21)
(1.17308 0.052752 5.06626e-21)
(1.10697 0.116261 6.76863e-21)
(1.13383 -0.112194 0)
(0.910295 0.113341 1.23346e-20)
(0.888738 0.461858 0)
(1.40215 0.0902448 2.55175e-21)
(1.16976 0.103121 3.48516e-21)
(0.750425 0.265599 0)
(0.515025 0.111112 1.00388e-19)
(0.899652 0.718877 -7.25703e-22)
(1.07398 0.287248 -2.37014e-20)
(1.0393 -0.00612075 1.32966e-20)
(0.418963 0.49805 0)
(1.31423 -0.454269 0)
(1.01692 -0.119128 8.14462e-21)
(1.26892 0.509038 0)
(-0.0281618 0.0467289 -3.6876e-20)
(1.29733 -0.399812 -1.83558e-20)
(1.17201 0.514748 0)
(0.456426 0.221808 1.71482e-19)
(1.12629 0.320685 -1.10486e-19)
(0.821649 -0.638904 -2.42158e-20)
(1.18175 0.0331262 3.42715e-21)
(0.9158 0.155104 7.3623e-20)
(1.08611 0.166174 5.9736e-20)
(1.07695 0.710422 1.66938e-21)
(0.911505 -0.436049 6.23304e-20)
(1.44687 0.174748 3.22622e-20)
(1.12454 -0.00574553 -1.97122e-21)
(0.0357006 -0.0530158 1.22563e-19)
(1.10184 -0.703927 3.63623e-20)
(0.882419 -0.722894 4.82087e-20)
(0.254364 -0.332605 0)
(0.973623 -0.148535 7.1865e-20)
(0.365154 0.31341 -4.45102e-19)
(-0.156142 0.354385 2.33675e-20)
(0.217858 0.0480916 1.83746e-20)
(0.764591 -0.0470295 -9.31777e-20)
(1.08516 0.535176 0)
(0.98388 0.218755 8.57897e-20)
(1.08603 0.0260962 4.74374e-21)
(0.918499 0.447266 -9.37801e-20)
(0.79883 -0.734901 -7.46099e-21)
(0.936443 0.0217872 -4.94288e-20)
(0.983592 0.494511 0)
(1.28754 0.0231249 -2.27776e-21)
(1.40107 -0.497862 1.6341e-20)
(1.23292 -0.322912 1.18343e-20)
(-0.0770111 0.309466 4.22008e-20)
(0.19658 0.00802164 -1.83302e-20)
(0.975948 -0.11867 -5.82212e-20)
(0.356255 0.531961 0)
(0.927435 0.0140751 3.93848e-20)
(1.16185 0.642293 7.22917e-20)
(-0.114935 0.142294 1.76867e-19)
(-0.050627 0.123401 -2.35674e-20)
(-0.115145 0.0352906 4.66826e-20)
(1.09843 0.0152589 -6.54015e-21)
(1.17381 -0.462292 0)
(1.07917 -0.732071 -3.54267e-20)
(0.703443 0.352941 0)
(0.0480709 0.148646 -1.32465e-19)
(1.09525 0.0505269 5.27531e-21)
(-0.0490231 -0.0310245 -3.56941e-20)
(1.0493 0.0529736 -1.21307e-20)
(0.0937393 0.0206252 4.7876e-20)
(0.843262 0.131379 0)
(1.25791 0.0103181 1.85869e-20)
(0.0444115 0.0673191 -2.08631e-20)
(-0.136894 0.396731 -5.01572e-20)
(-0.275716 0.41255 0)
(0.133999 -0.00218663 0)
(1.24205 -0.0238353 -6.27973e-21)
(0.453015 0.0011934 1.93631e-19)
(1.28934 -0.723106 -3.35019e-20)
(1.12625 -0.190456 5.2408e-20)
(1.06713 0.246378 -3.43312e-20)
(0.372784 -0.562422 1.3898e-19)
(1.56337 0.285826 -2.95547e-20)
(0.135552 -0.0316283 4.81609e-20)
(0.210287 0.311384 1.98496e-19)
(0.179961 -0.012979 -1.78782e-19)
(0.949462 -0.490048 -4.24022e-20)
(1.46054 0.393421 2.99308e-20)
(0.575897 -0.683485 4.76021e-20)
(1.10455 -0.0711078 -7.46397e-21)
(0.335428 0.243941 7.15632e-20)
(1.18396 0.297102 -4.31826e-20)
(0.666588 0.646236 -4.18294e-20)
(1.37195 -0.619078 0)
(1.4246 0.526894 3.10512e-20)
(1.06312 -0.524051 -1.31635e-20)
(1.39651 0.613725 -8.86769e-20)
(1.17517 0.00248828 0)
(-0.0463006 0.0782527 0)
(1.25961 0.737049 0)
(1.30512 -0.0310535 -1.14969e-21)
(0.747169 -0.302358 -2.0611e-19)
(0.481747 -0.0811446 0)
(-0.0412122 0.111862 -2.38601e-20)
(1.02658 -0.241292 9.58208e-20)
(-0.172149 0.195992 0)
(0.324116 0.0283535 1.23842e-20)
(1.14717 0.021332 0)
(1.42121 0.282428 0)
(1.19019 0.0323686 -3.67023e-21)
(0.365483 -0.292048 0)
(1.00946 0.145559 4.11568e-20)
(1.31211 0.290464 0)
(-0.0506846 0.154611 1.09259e-21)
(0.817316 -0.396315 0)
(1.52662 0.342267 -4.46238e-20)
(1.23826 0.371485 4.64204e-21)
(0.848026 0.653642 -1.01508e-20)
(1.00583 0.152618 -9.45923e-20)
(0.967087 -0.200731 -4.65493e-20)
(1.4605 0.297514 2.63051e-20)
(1.01265 0.138081 0)
(0.56741 -0.0708085 0)
)
;

boundaryField
{
    FrontBack
    {
        type            empty;
    }
    Top
    {
        type            noSlip;
    }
    In
    {
        type            fixedValue;
        value           uniform (1 0 0);
    }
    Bottom
    {
        type            noSlip;
    }
    Out
    {
        type            zeroGradient;
    }
    circle
    {
        type            noSlip;
    }
}


// ************************************************************************* //
