/*--------------------------------*- C++ -*----------------------------------*\
| =========                 |                                                 |
| \\      /  F ield         | OpenFOAM: The Open Source CFD Toolbox           |
|  \\    /   O peration     | Version:  2412                                  |
|   \\  /    A nd           | Website:  www.openfoam.com                      |
|    \\/     M anipulation  |                                                 |
\*---------------------------------------------------------------------------*/
FoamFile
{
    version     2.0;
    format      ascii;
    arch        "LSB;label=32;scalar=64";
    class       surfaceScalarField;
    location    "538";
    object      phi;
}
// * * * * * * * * * * * * * * * * * * * * * * * * * * * * * * * * * * * * * //

dimensions      [0 3 -1 0 0 0 0];

oriented        oriented;

internalField   nonuniform List<scalar> 
1171
(
-0.9279305628271617
0.9279305628773448
0.7872842056295444
-1.098762015942229
0.3114778100965758
-0.1949155360686934
-0.7665985105774482
0.9615140466845681
0.07206944042328783
-0.1171650295206902
-0.2117798561436049
0.3289448863835668
-0.787284217377005
0.06933615613560642
0.7179480612257502
0.8109827510442533
-0.1774075441490086
-0.6335752068015582
0.8743368276226421
-1.043529364303598
0.1691925366323727
-0.2847711945109943
-0.09766409874910263
0.3824352928338872
-0.03591396388153285
0.5483959755222116
-0.5124820115477765
-0.5049729412573242
0.8275779852262994
-0.3226050440317715
-0.4019362292518391
1.045801851744007
-0.1714650242412979
0.3958672810109445
0.04804813052877079
-0.4439154101207454
1.046400527147354
-0.0005986757937527251
0.4457265186543847
-0.04985923483146875
1.057001968386101
-0.01060143830570914
0.5776600791535911
-0.7725756208710023
-0.7244257791385221
0.557183867504435
0.1672419117300322
0.2215145208313961
-0.7264874544905927
0.5503679550789951
-0.9227209618394755
0.3723530076932073
-1.094172109390311
0.6863874317110098
0.4077846775561568
-0.5953522801486556
0.5594383092697447
0.01814011582506018
-0.2568819406650986
0.2387418259432638
-0.02458378793025037
-0.5224833067096655
0.5470670951275092
0.3999305575592308
-0.4975946624144685
-0.9187432197467389
0.9414226016029874
-0.02267938188714586
1.067665029742604
-0.01066305970919152
0.9351949241968588
-1.116959705871038
0.1817647817663076
1.067299500671078
0.0003655328838866496
-0.664325194695122
-0.06010058602187111
1.262137080750389
-0.8643901099298054
-0.3977469708151062
0.1485562855605623
-0.1089206642862402
-0.3259586878365939
0.4348793517498793
-0.2857509860206934
0.1910707285808156
0.09468025691654816
-0.5833892329913996
-0.5153727773791654
1.014080652289526
-0.07888572746060332
0.00993983792852394
0.8254339581596731
-0.8353737961462178
0.5718401103881308
0.6902969678811687
0.4394753075449273
-0.03038665165448811
0.4303172094063027
-0.8076689899412296
-0.1026044932381282
0.9102734832742427
0.5027008934789776
0.2537813188397694
-0.7564822123142619
0.003882444042015515
0.5290562318722493
-0.5329386752704863
-0.4898658853104949
-0.6043062225009971
-0.4229075433524341
-0.6940521628511206
-0.02733666420889777
0.2702191556597314
-0.2428824924583335
-0.9248609332700627
-0.005177542100872968
0.9300384753033836
0.3079743155071068
0.07446097113024677
0.7624023462138474
0.04858040954953393
-0.5330794744642871
-0.06227280734057666
0.04633884680311109
-0.854007836117194
0.07605548420868818
0.8620718229959986
-0.9381273072318485
-0.3474026635181799
-0.04125911184494881
0.3886617751559369
-0.6824057530912346
-0.2424551844016404
-0.631345930549161
0.7074014166945823
0.6090963090915457
0.2184816830233719
-0.5428686698538329
0.9462045662271672
-0.7794255079282915
-0.1667790583511138
0.02244620834308787
-0.01527825757065716
-0.00716795010006911
-0.4029274298117174
-0.09466723235817411
-0.241774906361343
0.8508712204961077
0.04651330539958404
0.334784707235084
-0.3812980131606474
-0.460426628390196
0.9631275265599143
0.6800901610852591
-0.782694652510047
0.3188488505629373
-0.01655773676340622
-0.3022911141370672
0.9306728210898797
-0.9306728211099966
-0.7830316615314149
0.1109331201157095
-0.3227129800209205
-0.7500522460295066
0.7599920818092865
-0.09052412734115277
-0.1427682836025159
0.2332924101667564
0.8649741603002049
-0.03954020560201567
1.054361323578234
-0.8005799979575857
0.1860021161584154
-0.3155376679272318
0.1295355520061058
0.8593226395172293
-0.09692029211646486
-0.6117909837549115
-0.03935517919647634
0.6511461629150186
0.1238577168164399
-0.2311163236383022
0.1072586080672517
0.8056557155026061
-0.9830632558868366
-0.4353040115952483
0.3295853194023546
0.1057186928297104
0.5316273874295265
-0.5562111734592217
1.022125048410892
-0.4562643657961352
-0.5658606826343014
0.5992175060339893
-0.7193315221256064
0.06672256351659109
0.6526089582308428
0.1028404334135042
0.5705269875443325
0.05473887692263463
-0.6252658642996893
0.1942832346059045
-0.0833501123499984
-0.4931661007425121
0.1457634379106331
0.0503675391534027
-0.886845538691775
0.8364779996179724
-0.4744351823290236
-0.7134610438340981
0.0491358479557385
0.4365932606649063
-0.006276054602608954
0.2999048764938019
-0.8552553060945846
0.5553504297964866
0.4157162227048029
0.5842837773808245
0.5605701397268206
-0.5142312882788912
-0.3653621514185194
0.03512380881575233
0.3302383394767255
0.6813645819270745
0.2493082386536929
-0.5664154767994766
0.5702979216702013
0.1106345712705663
0.8749918802302172
0.01026461638792847
-0.6220556022223275
-0.7493288562173213
0.799696396731523
0.5311718031699786
0.07138647125367832
0.3013353577816967
-0.372721828801313
-0.1676204028468844
0.4419034077930096
0.08715281425751499
0.8758234259976401
-0.797411656792313
-0.07841176912524334
0.6354937785337379
0.3107107864330664
-0.430264093462206
0.5755295741845835
-0.5041431025317535
0.4171638906050907
0.133204069386561
-0.04691197711208919
-0.5895611995980675
-0.138158239153293
0.7277194387596712
-0.1496905372457831
-0.7809822868748294
-0.6110424092894119
0.3606820810598458
0.2503603269878182
0.6222936192268779
-0.6120290024636311
0.2384207635325024
1.011492552519919
0.04286877216697602
-0.7493288535990614
0.2220639667129816
-0.1996177625048395
0.6800901596446494
0.8021417678759264
-0.8021417679556347
0.8377096871418065
-0.8333281789731795
-0.004381508086388773
-0.4453787493188192
0.8610949716298927
-0.1476411431238972
-0.3455249603912882
0.7347188245259112
-0.6684730302947051
-0.06624579430317838
-0.7315964382497938
0.1420352387956084
0.1387432068314932
-0.6718226811851232
0.7826946403569054
-0.950315043267322
-0.3649622410484786
0.2889073922470051
0.07605484719207765
0.1459136427817558
-1.009539003840224
0.8636253610905241
0.4807890707635281
-0.04131376330835082
-0.3081782895298729
0.5864444962155267
-0.2782662065342029
-0.738308433747404
0.8842220749200613
-0.1571318901710927
0.7347076153879549
-0.8387704720974344
0.1040628567038237
0.977952248473812
-0.5419005776445608
-0.4360516709132454
0.7552297931928109
-0.06487173689681777
-0.03472272610037457
0.1879076365016891
-0.1531849108911781
-0.7757338481813004
-0.8456061868035258
0.07900767012027014
-0.7500522466736214
0.5140852499207735
-0.5553443651459955
0.0899128624272079
0.7189662419519578
-0.8088791042310138
0.7537103491589969
0.174220231937974
0.5028776411353253
0.4971223588387567
-0.05215964898030219
-0.6057968376625184
0.6579564872408304
0.8804073293288349
-0.004583899907490109
-0.7552297931742755
0.7996963968060146
0.191065565587957
-0.4479475031801546
0.01995317959573954
0.001161997529577184
-0.02111517277564456
0.5893112941705271
-0.4384187988967865
-0.1508924947340539
0.7179480682668667
0.01412842777102201
-0.1108985703751369
0.4375228836410149
0.1517884117536878
-0.01359212081636183
-0.00620161210713287
0.01979373225082828
-0.03377195694376893
-0.0009507759360465797
0.2433735263775975
-0.2599312535808361
-0.9592736585278776
0.001953545506467531
-0.1595772617319149
-0.1215887189371761
0.09466467296631767
0.7213526268063475
0.7290284675721251
-0.1447446904398244
0.6609496808312347
-0.57103681971301
-0.2118479999158594
0.3978501160285434
0.6954396618716309
0.02250840636764646
0.2416108398584606
-1.074939016732607
-0.950315044962473
0.3016982632019963
0.7599920795752635
-0.2086996574473974
0.06593137606782246
-0.7233061734182331
0.9095547538091556
-0.186248580388866
0.4162974593025981
-0.0276356907766931
0.7716062652081345
0.280668478666415
0.3722556818870365
0.07347082838031656
-0.6586930237103447
0.6586930236889241
0.2147461193735219
0.6955273656136749
-0.05490187549002958
0.3896865882703089
0.3799774792329563
-0.01385385311841735
0.03380702017101189
0.4494042314137049
0.031384836302789
-0.7383084342612766
0.5341230010579725
0.2005958258027526
0.3057975876103945
-0.1178899513199002
-0.6954396631877973
0.1799040035496475
0.7296507510578962
-0.01023184466974905
-0.813669730102343
0.8239015747586237
0.6962852578328543
-0.7920792491867775
0.09579399141842485
-0.7537103561583485
-0.1502720773676749
0.211280759523329
-0.06100868309589228
0.07727904164406622
-0.1795849384741711
-0.112717668703321
0.2923026083736872
-0.007045369396268594
-0.006546759565150793
0.7065896710013715
-0.7168215232341784
0.8847353387133804
0.07677870294642387
-0.3158865549963655
-0.5172551300197464
0.8331416848613454
0.1033816262752575
-0.10338162342592
0.3240312056163322
0.4748329605735186
0.6157230188421638
-1.090555979355486
-0.1941314003126294
-0.5856720534776085
0.779803453809237
0.01315046329730322
0.2201419539989498
0.3771862453013426
-0.2533285167291408
1.013070549874069
-0.5382375857883775
0.6646226412713465
0.9945948410348596
-0.3788718186373973
0.2295450989288633
0.8842220733491454
0.7127570500871624
0.213698904797535
0.7277237001501656
-0.780982287442529
0.3413069891014033
-0.2761463173531757
0.2446386873801856
0.03150762845819002
0.8474126505348544
-0.01098660092809857
-0.8364260493451805
-0.7021556153891295
0.7025211504601886
0.5546212526285882
-0.7021556139761986
-0.712757050097078
0.7025211519636123
-0.03478808014710506
0.9055344902485931
-0.02079915479448904
-0.6813645718031517
0.6123608213626021
0.06900375043168608
0.5387918358849491
0.5369788955170463
-1.075770731384825
0.4917962984657172
0.5212742525792786
0.54275799089389
0.4595475301011105
-1.002305520937388
0.4979109677132453
0.4966838746781239
0.6123608143516875
-0.5255473212795759
-0.4651056487346589
-0.5564696577257972
-0.5193032097849666
-0.1198042335012518
-0.01220555661227162
0.01220555553359608
0.5128465978679853
0.5229822094358311
-1.042285419102503
0.5752538328200171
-0.2739184757855174
-0.8855039147275653
0.3436033365710451
-0.6330293927648861
0.3905742069349036
0.002419099950657078
-0.8299023560889043
0.8274832560625062
0.4208501702918089
-0.01731804374566753
0.8647306939827653
-0.9472324807691557
-0.8343274427147519
0.05466190526500987
0.7796655373339257
0.5630912824014253
-0.438581571334332
-0.1245097109949125
0.6500184507902151
-0.7289041787967292
0.8854314307191766
-0.8325516698703351
-0.05287976109610357
-0.00926298835119293
-0.7881486652546342
-0.1096532336745245
0.7140124832782332
-0.6043592495959692
-0.9359865637984639
0.9267235757428268
-0.7284467563643644
0.6918248244385058
0.03662193188066788
-0.8102250301930863
0.03884567850710345
0.7713793515926485
0.06168272161244975
0.0416989013571084
0.4331089444458213
0.0618010384804159
-0.8513720525342605
0.7895710141665366
-0.642734384781888
0.5905747380026168
0.890208032567718
0.07001751210831077
-0.9602255446381998
0.05588058692058436
-0.04743348331053242
0.3776718268039873
-0.381332173967677
0.06579450867130543
0.8423374707352653
-0.8399183682212144
-0.7334463327669342
-0.8109447826113699
0.02279611756918429
-0.1638934313950356
-0.8528479624750884
0.02029629821949784
0.624383899028893
0.03656578054516905
0.03204503013539952
0.5310462566717766
-0.8064060463147223
0.8452517213533938
0.5658606813535371
-0.8472203964628792
-0.8659690536413567
0.03956543273461406
-0.03738616142518723
0.8380948271199549
-0.8007086657536094
-0.02536470035232459
-0.7708324957271657
0.5443520533353648
0.1519332001175657
-0.03168877955950998
0.8964194741280153
0.9813854794271976
0.8620351020852469
-0.8417388015005572
0.1474790338457054
-0.1474790322021498
-0.1186882924767996
-0.4825662140421781
0.04398464548206899
0.2706634351785237
0.03103482766419428
0.3863841134700816
0.8710547723445924
0.003988398353217753
-0.01103377655725253
0.6586105771612351
0.3413894228202599
0.7835461099126225
-0.5833892306852032
-0.7780715924156337
-0.8116952697397509
-0.6798417744728722
0.6798417744638713
-0.1677397720735423
-0.1549732109402481
0.6017842621001304
-0.8122314221578248
0.2104471600271312
-0.4937233455823399
-0.5690139186930258
0.2782130872419021
-0.9722652496861907
-0.9018980098873943
0.8490182560861291
-0.8144084871109403
0.837204603955882
0.6487261611026014
0.1343345371027214
-0.7830606981817866
-0.7750733366567092
-0.1459279478388946
0.724252131129102
-0.5783241832481117
0.03084323473877117
-0.0149557261083041
0.01850376455724329
-0.003548039639590619
-0.3553007762120974
-0.1272654426378384
0.8799973468623262
0.7437499795507859
-0.2452901175498437
-0.4984598614234062
0.6192402630261881
0.6852757796403008
-0.4705296588276734
-0.0006633916223579093
-0.2850875934561614
0.02571152147679779
0.7460054482556262
-0.771716969934056
-0.3235390908396275
-0.07243646102670188
0.07566645171837615
-0.9600988820674008
0.1236728314046252
-0.6778968888346409
0.05169757751612354
0.6411392033648792
-0.6928367808834849
-0.7567156700315396
0.07881878119448503
0.5880706142968096
-0.6605070754130364
0.1567607505334518
-0.3363456877134053
-0.7706850780612202
-0.004388258541077002
0.371229086424646
0.6014745225708079
-0.02594495151269209
0.02314970882501245
-0.02314970830872911
-0.01840718086834101
-0.05060221650042022
-0.2255441062633138
0.02293384039318322
-0.01894541421419024
-0.7341192947640132
0.279302109135379
0.6801912242025793
-0.6897196220354602
0.009528397638281698
-0.5967916796102867
0.6484892619719648
0.6530286517762007
-0.06495803951041323
-0.6316199178874193
-0.1250957489050572
-1.050193004789573
0.01109470490155701
0.1363843268602226
-0.7084077717008519
-0.7412731458706773
-0.7631546609454456
0.3654076881844287
-0.4128320354815063
0.4669168706782422
-0.0540848356541863
-0.6726417458840175
-0.03576602591462659
0.5015355117348602
0.7306800102757043
-0.2333693779843481
0.1117806583464592
0.9644871375996619
0.4459893280515601
0.1343184165300121
-0.5803077445003336
-0.6781423753920697
0.005500627879639368
-0.04455558997651111
0.0295998733068071
0.6367189575937268
-0.7748771963284318
-0.002155515453795044
0.002155515597502998
-0.6009075289182718
0.6481604077919685
-0.0472528787570223
-0.6460973419108349
-0.1131362159192883
-0.671585435421104
0.05300570917156205
0.6049507833178227
-0.1371216127240551
-0.8175133832001426
-0.5580015223841455
0.5656816629831398
-0.007680140501789272
0.6333769390563592
-0.6238485363318872
0.3223186126827094
0.2142101661585433
-0.5365287788447154
-0.1045541899743332
-0.6021598511010251
-0.09067692808383371
-0.1549182045973836
-0.5049958093301972
0.4041254619957295
-0.4987926925957447
0.1267167977483095
0.6782840621917983
-0.8050008600051134
0.5992175060384276
-0.3694544165226809
-0.04337761519453637
0.07854882833266408
-0.5835446341512135
0.5518526765705036
-0.04049647806169913
-0.5113561983577897
-0.3123326465606237
0.3048665086682169
0.007466136936369484
0.4541378841427516
0.1211159486035323
0.05086880031976797
-0.3158752806889437
0.1567736693877951
0.1591016111075141
0.23360793843315
-0.01154396514295283
-0.2949041028439042
-0.3121567609410179
0.3629809190719129
-0.05082416020450213
0.7882954740705295
-0.6272710765304222
-0.01882626504803284
0.4993377227491554
0.2805600915242281
-0.525850211411404
0.5775001316968985
-0.5775001316983133
-0.2897483292464755
-0.586458944227612
-0.2955592118614086
-0.5864589440346244
-0.5948178612556322
-0.8385118076355068
0.1700387808401278
-0.5832864404039088
0.8211483438237176
-0.003491686052285502
0.1190972525358798
0.482377268723541
0.09670092869346684
0.185458829337265
-0.03631815064273096
-0.1491406801752109
-0.01760476696146003
0.5942082531403011
-0.9462532720051567
0.4289981456473561
-0.001643314393823986
0.002526812405530618
-0.0008834991428230061
-0.6432822220414718
-0.1317170723124002
-0.4669498327270598
0.6012682475744914
-0.5037585891621317
-0.3237158075137588
-0.2598288427494604
-0.2712562820891928
-0.1120023267539521
0.112002326390426
0.1525279639386198
0.05875279068765905
0.1965535315005822
0.4553729130886423
-0.5732351354310308
0.1062853061167596
0.2429953695875907
0.4662366314615964
0.5337633677422853
0.6414435443234756
0.085055169256776
-0.003805801836849854
-0.08124937051898026
-0.2768555189433995
-0.5406578641681139
-0.550202441599806
0.1141393863978976
-0.1261067954804447
0.01196740858575151
-0.1058383791940862
-0.3860214375601113
-0.04465186856199189
0.6496026327820176
-0.4986643100155586
-0.1446179120762598
-0.3389940654559296
0.2919437367151325
0.1233601946086492
-0.6068028462332488
-0.2040579146587373
-0.2617673990717021
0.001836128226279522
-0.4221657058504628
0.322646770054328
0.09951893536637411
-0.09311050814245847
0.2916220309445464
-0.8959282517027986
-0.458023956342422
0.6319978677007899
-0.7729487312973828
0.6683945412778813
0.3422531049193324
-0.125588360417856
0.2253927431834697
-0.09980438186469363
0.02464072900804208
-0.5862732930275318
0.02928944726010822
0.5569838460675512
-0.9007187848843266
0.5469351763204745
-0.6656234688696419
-0.09723501207347232
0.1093741241557772
-0.1093741210098688
-0.3165386709384092
0.3637562277612128
0.01391560468326392
0.02946581249279502
0.05558936623902969
0.5052268507339118
0.6615578274520961
-0.7399695942379333
0.03062782151801571
0.02365692114084526
-0.0005072047632437092
-0.007042809014035425
0.007042808338928592
-0.4166464950990113
0.5377624449154337
0.01524733767306042
-0.01524733781781163
-0.7922282930747568
-0.0605994728035792
0.1222822010675259
-0.4553270068775518
0.5616123144618608
0.4510363433976573
-0.4982892260144713
0.1498472952362871
-0.149847294094652
0.03547323046353357
-0.001666212726799165
-0.04162545446623513
-0.9768015801414468
0.5407499077747023
-0.4707313233655934
0.04169890435074055
0.5144610983354435
0.03107035162961441
-0.5455314497112823
-0.6159539531571123
0.1172896424424728
-0.3296731849479324
0.01343259509957275
0.316240590626329
-0.1543640944773037
-0.07900527342388436
-0.5407867121407375
-0.04548658696940831
0.1363843252936068
-0.0407260866288014
0.03857057729998484
0.08130802423923769
-0.08130802809353059
-0.5378083396030068
0.4869841904260926
-0.4144266568825012
0.1613392265470378
0.6222068833113105
-0.09793047578524851
-0.004645949536998628
0.004645949637804448
0.5329592033518918
-0.07575659163118593
0.00599249989677682
0.02701020091105339
0.03465608480718584
0.6855189066101737
-0.7612754980775512
-0.6566385956764491
0.6378123275031102
-0.1069751225834495
0.3128817370394977
0.7461775530623725
-0.01840718283890152
-0.2672223682872956
0.1493324100401345
-0.7446659926843197
0.4843671029047801
-0.4237222621656613
-0.1014928631697225
0.003565338169205741
-0.01441642646152346
0.01912802131403314
0.4113623127576565
-0.1216445430689231
-0.3897116540908491
0.6288543347627703
0.01924838430312237
0.01071002458230263
-0.01071002451375261
-0.3555388258291839
-0.0824354315888938
-0.560593929152297
0.5571022433213384
-0.2383060335547369
0.4647999452428443
-0.1510931610714494
0.728753237079599
0.6730270379244007
-0.040726085857915
-0.6156170181694168
0.5621284672977963
0.2891793949566703
-0.2869068993701617
-0.00227249683128402
0.544701815881433
0.09338283228277362
-0.03895848059575978
0.1968455551413047
-0.1578870751654466
0.1202665007904643
-0.1202665038914018
-0.8587622493188585
0.002368265733908075
-0.1132034224362755
0.1402136247599201
-0.1319866617284308
0.131986661104614
0.02365691516427647
-0.0230531240181136
0.6707258288690797
0.0589249215948013
-0.3231093694182712
-0.06291206872526448
-0.4712268581496167
-0.04981467010121276
-0.1517050004330769
0.1517049993371098
-0.04577614730392801
0.1432519812286525
-0.1432519804035824
0.1366629423765849
-0.1366629444776606
-0.3156382123931924
-0.1146258811521328
0.2265823732940739
0.1030029466207289
0.03486068113792695
-0.8211065332688198
-0.1977210803517709
0.170316966475874
0.02074860454175618
-0.2654049688033887
0.125758605404049
-0.1257586046854906
-0.4140584625551906
-0.08473423217954619
0.2365199298869138
0.002221899627367917
0.04058193672241472
-0.5432174382910936
0.578005518439518
-0.02659105938605619
-0.01918509015231082
-0.02864842657412161
0.02698221979510422
0.006595326922571301
-0.1842818137846773
0.1776864867559534
-0.1082272843815248
-0.2281184044978413
-0.1448123170232296
0.1448123161418337
0.07295166668070197
-0.07295166703263355
-0.01944370303935177
-0.1086744398343704
0.1281181435482436
0.2420844887338641
-0.1827970954378166
-0.02707978257195659
0.02657258726973174
-0.138741112600726
0.625725304509051
-0.03905064760355957
0.422871194539191
-0.042571021983552
0.06236476206850303
-0.1534634912691434
0.153463489755115
-0.6363340307172971
0.3089090206696762
-0.07936392153065415
-0.2346820790348663
0.003565758701363122
-0.1218807373629541
0.1624626729294235
0.1950640685517716
0.09723854371392862
0.09592960754186941
-0.0612735224305038
0.07257452497671861
0.04156486248978657
0.06386442357034111
0.1064525383643282
-0.09577383180638344
0.2075544739477062
0.01286553511515393
-0.1147192573871868
-0.1012288789347893
0.09777598633201187
0.003452893683908416
0.01294689628628263
-0.02332263042035006
0.0378511060482751
-0.03785110609053503
0.07496481737091819
-0.05478838776599777
0.05478838745763202
-0.224558505064079
-0.05235449637178868
0.01145238467601065
-0.1030908110036242
0.0163964405912777
0.1083206666372786
-0.1083206661455532
0.2945830026571911
-0.271568499194481
0.163341218502483
-0.05077389591690918
-0.2207946031688248
-0.0175471603204076
0.0175471606027098
0.3673451087387292
0.2852638554662108
-0.5274862110107744
-0.09399729210627907
-0.03210950296204376
0.52868434131788
0.2134360787711082
-0.1699838246194849
-0.380893588868012
0.07648235113746073
-0.1478106104356382
0.1873565528171094
-0.03954594260642862
-0.06675579993296828
0.06675580021227029
0.8226599041953773
-0.5606675782737968
-0.004506636490319649
0.01745353139829322
-0.01998434349272799
-0.2866902815415431
-0.01749337782407329
-0.01282564718214013
-0.1317897045225605
-0.572022522406671
0.55596108799407
-0.5693448614840341
-0.006892687808468814
0.1029790186352005
-0.001758484798111285
0.016800545171907
-0.1677949541763338
-0.3365978595748636
0.2335070486533868
-0.05454426424124448
0.03510056263664631
0.131722660169189
0.1731438484998787
0.336569443035371
0.2767041238959288
-0.2784626082220966
-0.06265829662245166
-0.1549676241926194
-0.221249478945152
0.07484821034836975
-0.01098378770761357
0.2141407618263718
-0.1973402161532266
-0.08628392328609445
0.158858447657859
-0.3551346966143797
0.2086609689102308
-0.192264528159236
0.08960232784448349
-0.4793139857418049
0.1745309083889061
0.1698911312203185
-0.2561750505857095
0.07260698089473575
-0.1943090586085437
0.1768156803111903
0.017437935988287
0.1414205124371219
-0.03954106352002479
0.06617834269377139
0.4667808601178042
0.02030394629894733
-0.07719324044196445
0.05540892336995981
0.1257972030888063
-0.260795418993772
-0.2308791724901694
0.5597178802097683
0.1577924760000809
0.0787274534992926
0.07559449009371075
-0.0309140672870456
-0.0103239315420407
0.008051428799156084
-0.03279449824595009
0.1712039931696964
-0.1780966805039325
-0.05806521636652669
0.02206594367329329
-0.1467724148268345
-0.05288854424856591
0.1494892681118161
0.2770842168842901
-0.03864048375554259
0.01665828966402002
-0.2557540850216447
-0.1313597701555481
0.2356856404126448
0.1790674775512349
0.129841542866399
0.02187623765903777
0.08906749981139608
0.05216167730960944
0.4530651733795115
0.01631842305582956
0.09707344043666462
0.04377828708994221
0.07165056862239218
-0.1154288568974095
-0.2422223574072235
-0.2009437094613453
-0.01985089129283391
-0.202229771754196
0.2756049807569428
)
;

boundaryField
{
    FrontBack
    {
        type            empty;
    }
    Top
    {
        type            calculated;
        value           uniform 0;
    }
    In
    {
        type            calculated;
        value           uniform -1;
    }
    Bottom
    {
        type            calculated;
        value           uniform 0;
    }
    Out
    {
        type            calculated;
        value           nonuniform List<scalar> 10(1.034554289095393 1.064339157552471 1.021575306464375 1.019185219269811 0.9965264267632686 1.015987084343471 1.035828806917411 1.062737264268394 0.867248456676819 0.8820181560799201);
    }
    circle
    {
        type            calculated;
        value           uniform 0;
    }
}


// ************************************************************************* //
