/*--------------------------------*- C++ -*----------------------------------*\
| =========                 |                                                 |
| \\      /  F ield         | OpenFOAM: The Open Source CFD Toolbox           |
|  \\    /   O peration     | Version:  2412                                  |
|   \\  /    A nd           | Website:  www.openfoam.com                      |
|    \\/     M anipulation  |                                                 |
\*---------------------------------------------------------------------------*/
FoamFile
{
    version     2.0;
    format      ascii;
    arch        "LSB;label=32;scalar=64";
    class       volScalarField;
    location    "1298.5";
    object      p;
}
// * * * * * * * * * * * * * * * * * * * * * * * * * * * * * * * * * * * * * //

dimensions      [0 2 -2 0 0 0 0];

internalField   nonuniform List<scalar> 
808
(
-0.03600587723062103
0.04502012467982226
-0.01173168276009727
0.03492656037925611
-0.3040827457779769
-0.05470324420568479
-0.01458916713885026
-0.02395217250569644
-0.2003615643543439
-0.08580428940220451
-0.009673041094490962
-0.2580410580070404
-0.03059164528716982
-0.01299429777666272
-0.1206948067428289
-0.01404676251471154
-0.138902686267201
-0.01358123146994775
-0.01237100847172811
-0.05705140081716203
-0.005969130276217719
0.1183452258104209
-0.06081878179709912
-0.0735370908810435
0.1765917047313724
-0.0994753878167606
-0.1554751784160804
-0.02030526829958862
-0.01735980473131266
-0.02595892098794433
-0.02017472672178338
-0.05997531276912657
-0.02291379804096553
-0.01682133539726571
-0.1013506628269714
0.3439340666918612
-0.03858434359350078
-0.01672739725402287
-0.02329633322260056
-0.02656452903962204
-0.09209735135246432
-0.1292521265371089
-0.05077346083688598
-0.02070468179208048
-0.05451302011494236
-0.03984680357403519
-0.01232238362538501
-0.187856221300646
-0.02761514972727209
-0.2077303426078713
-0.0161860511858405
-0.06909846712527255
-0.05948106862028699
-0.0145539763020043
-0.1902378542772947
-0.02900386174812403
-0.01054814106383724
-0.01397181095522525
-0.1025762021661847
-0.04072434166919121
-0.09878658041452697
-0.1288113042985032
-0.0134390145325831
-0.1308625611285861
-0.01702555127316163
-0.05058405829338736
-0.1679089090932931
-0.03565137189411588
-0.01483238211450241
-0.4465148100207773
-0.0269902782543335
-0.3081628367221436
-0.02202788918586867
-0.02045751223268553
-0.06762744530223729
-0.01735166463793397
-0.04358260027951998
-0.3587282606293483
-0.03550467473875547
0.0422041695934596
-0.09031833988094133
-0.01728251542584339
0.05682005359151685
0.04333134315081481
-0.01656617358849324
-0.05335988087583528
-0.5493668661743606
-0.2226650040402786
-0.05350222379041496
-0.1114363846047669
-0.05813560002301336
-0.1352221347318082
0.04078657244012828
-0.02377069939223491
-0.0605266192991502
-0.1208225235894635
-0.03848772844974017
-0.05186954066794013
-0.1184464988983935
-0.1410393137142482
-0.05214355618213851
-0.04846560650161329
-0.05572330510513112
-0.04583850837678902
-0.05797936567380959
-0.07320746102426119
-0.04115641180508604
-0.01115618702561586
-0.0411227380001218
-0.1269300493317898
-0.05130066612978301
0.08341935123669882
-0.04317251382931826
-0.00796259076154102
-0.02781420777160807
0.180065255968751
-0.03992566597139643
-0.2738446117186943
-0.02034557712828717
-0.05496857861057711
-0.0283184171244039
-0.04783648311499766
0.01253951170403873
-0.05020967942253668
-0.03397393357139991
-0.2139677997304867
-0.04303785925284274
-0.004969597637523221
-0.07789263200983584
-0.06751998105368638
-0.1494601286688253
-0.02099800477014507
-0.07669798633775193
-0.04105414470764485
-0.02277067940476184
-0.01666201041856332
-0.006353995887140064
-0.007440770913589392
-0.05319232009575694
-0.05104885758905715
-0.20803885410025
-0.05824314334564911
-0.008561497925718508
-0.02278866571576391
-0.1447378089908386
-0.002205496876630206
-0.07791310748607491
-0.02388044471809999
-0.001201425346243838
-0.01025753374239075
-0.03392427983038236
0.09565938120758172
-0.03988767073713709
0.2527739595629486
-0.2628875464022739
-0.1302584715576525
-0.03718685907193651
-0.09126071108784835
-0.009108511522825838
-0.1116949722880545
-0.1849211704880326
-0.212962922485057
-0.1841333284817428
0.05530406378734941
-0.06181037203854449
-0.02030912543558884
-0.06801683015645199
-0.174078235119524
-0.02392296214696032
-0.01859590288359365
-0.05343142851296782
-0.01797158861368603
-0.005933667204068805
-0.1107758912659245
-0.02282527137840189
-0.04678981135368783
-0.06875177724264289
-0.1642153266554591
-0.03373508959731852
-0.3962753077952427
-0.0178021863906979
-0.2222999612177755
-0.04554315918988581
0.030418694958535
-0.1048348279133454
-0.01413274516910697
-0.04158718242913476
-0.1061447045905928
-0.01772880801507454
-0.09733840797940084
-0.204392844610971
-0.07314479933848461
-0.02375422581574558
-0.05001033276121002
-0.04391919305159455
-0.2034008462343874
-0.02188853574830881
-0.01898412069942718
-0.01137717738299695
-0.0545609957606079
-0.05217464995211438
-0.02246627053200425
-0.02081669252080962
-0.2472089930224925
0.1280538712836572
-0.200329339654861
-0.2080645827452112
-0.01177155526258928
-0.01161715366631338
-0.0677294395608502
-0.009456202136673607
-0.5139276980079853
-0.1242504989524233
-0.01899908786425978
-0.001526157979352592
-0.02428949693060934
-0.2873633531449212
-0.2734478192592472
-0.007180630862653171
-0.01780440414599542
-0.002264510504360126
-0.343902676745942
-0.0282981885002068
-0.02918841849151169
-0.01252522998891773
-0.0197581579604327
0.05105769307614497
-0.1110946440416791
-0.01375166786352176
-0.02074348209174808
-0.04289600257655679
-0.01821519241808338
-0.01616810032067162
-0.02336695052896498
-0.06679799501862337
-0.01184258650873921
-0.01905811098605346
-0.00857883642032751
-0.0009508076458649082
-0.02953877754618416
-0.001589698884191732
-0.002279112031244525
-0.00609852051020921
-0.02560794113623584
-0.008035220081859439
0.001605699979742102
-0.004128048248597429
0.001122778162990782
0.00247759602258201
-0.008517703738149581
-0.1408742799487647
-0.003028666406493207
-0.001051739141986063
-0.04830283650916234
-0.02146869847892825
-0.02491038970023092
-0.01433689043492711
-0.006086965347668629
-0.02090505251732565
-0.03727341357100059
-0.0141317109025096
-0.01275057161950354
-0.0119956599459118
0.006255347074998877
-0.01018903649904969
-0.01224741262356176
-0.01124939104355613
-0.01071702163930606
-0.0100157950711246
-0.01125882658997202
-0.01410600599065338
-0.3099583041798865
0.06113872182416002
-0.01527192248079569
-0.01676764297216965
-0.01299606945463465
-0.01247750579502121
-0.008678932378097989
-0.09857768935849927
0.00882854037087177
-0.01388041619638789
-0.0147576500103847
-0.0108318848910008
-0.05344156345302697
-0.00949515240809594
-0.0139328105697782
-0.00915516844830932
-0.00106594611484718
-0.009728772903097295
-0.0107275446410734
-0.02489404317673636
-0.01629028765785628
-0.01198659581971116
-0.01330826241107285
-0.00834666032153618
-0.01307664291258195
-0.01145456266261566
-0.05716233383381839
-0.01290193544837412
-0.01153716690512744
-0.008696999588063815
-0.01491959862463844
-0.0140762886962256
-0.01574679363143311
-1.381490272010331
-0.09817725142506735
-0.01288935973943154
0.0227518324298975
-0.1661169940463222
-0.09318657790068366
-0.01134108306989812
-0.01408404917635871
-0.2571486060689275
-0.03100947112234528
-0.02066816809601508
-0.01092613859515456
-0.01972225177815982
-0.01115367057803838
-0.03068774809256144
-0.4164201872322673
-0.01223302291292255
-0.01409740274103322
-0.004880994714605534
-0.01046904036642366
-0.009420376828384125
-0.01434321882326072
-0.009532643381041227
-0.02617845675882879
-0.01127668267681289
-0.1605163129498433
0.01738754288628269
-0.00777119697123257
0.002930468854335741
0.01288688287439105
-0.0472624211442228
0.03001593991556979
-0.01279194295264221
-0.1362451736040203
0.2819032727842209
-0.007364817797152466
-0.01312839801984819
-0.008427712383415173
-0.03327576328445434
-0.1221691056113623
-0.01317265793268684
-0.01237988111570974
-0.01703568430732602
-0.01362261101337404
-0.04095327961135574
-0.2135340271525792
-0.01149148618470955
-0.04105629134073615
-0.03993291734128138
-0.1653680730858929
-0.1647863392915293
-0.145113410835451
-0.2591723254414933
-0.006923301230324017
-0.02130290405917042
-0.01452176475499237
-0.01281118852973086
-0.03281423118176823
-0.02438099031141161
-0.01447684644363992
-0.01504983924185828
-1.084189050810779
-0.005038850724689748
-0.01374578671622585
-0.01844258056102622
-0.01850064075261532
0.003042802675080977
-0.01398472926886621
-0.02803945010119485
-0.1665275408171566
-0.01358109836606278
-0.02208759918523359
-0.0139383497351478
0.001813993931262707
-0.1792039431554201
-0.01338859949267428
-0.1431770793007435
-0.01605507718219943
0.009540291915074134
-0.01453448394108925
-0.02309578710912896
-0.01576383564590101
0.005138073783604854
-0.2787915468807998
-0.02550423955404579
-0.01609220492343968
-0.006737226040422474
-0.009404123476338915
-0.03062834463394642
-0.0143784107784689
-0.02043076689356527
-0.02137573631470998
0.01101084023986385
-0.1014042337310489
-0.02216317271826808
0.009201904420708222
-0.05052491912706116
0.1570235961258751
-0.1025657717912027
-0.3226552864444207
-0.03033931074848784
-0.02539453354939997
0.1487187918648894
0.08786952513237466
-0.003268859868568588
0.05006969627891305
-0.01572287653421079
-0.0146155060252418
0.00221823391094569
0.01202429164764903
-0.06731521852521999
-0.005479052366180564
-0.05775394237196024
-0.02229226838769445
-0.0157086825709564
-0.03652387298966594
-0.0329201212470455
-0.006645543524356535
-0.01493984120509572
-0.03952327903754802
0.03679457793982265
-0.03887307322949086
-0.01351648753014565
-0.1159519315162297
-0.03195513181194462
-0.03845427117856942
-0.6792750502295981
0.01791954282293267
-0.01106602469427555
-0.005272129628789125
0.1632218635673425
-0.08492704313308977
-0.03496273466300703
-0.2479020376159529
-0.01654276248056079
-0.01662061407215818
0.06068635859716096
-0.1858132684747099
-0.2255305961050209
-0.1983644738149872
-0.6883028473957584
0.006905609331855894
-0.01788092003202299
-0.01639677800545328
-0.07962102740229916
0.1175652441769722
-0.02125856364279898
-0.2492238388598065
-0.03492168049233686
-0.006440460973209641
0.2764170607037646
-0.0112607184071559
-0.09422481822627872
-0.1483840394276324
-0.004769562950032753
-0.04036669274677857
-0.04619043209461528
-0.2060132683413491
-0.008924176535757002
-0.04247428522021551
-0.002656162771638975
-0.5526876934876334
-0.2011874445365081
-0.1751287726705004
-0.02273728259542089
-0.006914173549573601
-0.05973680350264065
-0.05846228838264639
-0.01515006453978608
-0.06732711753158743
0.003072828072796137
-0.01839221277052685
-0.09550290650851592
-0.2662078884903915
-0.007876178800955595
-0.02623612399039595
-0.02212029204360652
-0.07399959021160835
-0.09146817807989943
-0.08755785293672158
-0.01149462284814755
-0.9290056681898993
0.1603653908264692
-0.08014084355641557
-0.2583390758590877
-0.04272461939500242
-0.01034486295038906
-0.2498247259219375
-0.1826951542173677
-0.03356870802933384
-0.1262124683297663
-0.01857353928466121
0.562396637429476
-0.02380956960552334
-0.228902010102002
-0.02627122946294302
-0.005226980748115823
-0.01186000402680485
-1.256913414742533
-0.1842838961505857
-0.2348927308657737
0.005421127009985787
-0.03686197897167132
-0.2519921396321349
-0.06521762138242554
-0.05083662885391735
-0.1412464850495265
-0.1933278802492278
-0.06755429255799944
-1.232702334112921
-0.1444714414649327
-0.5183529765140309
0.07836311233651105
-0.007084166499039238
-0.02204991457596487
-0.04233890738927783
-0.04104788096915885
-0.02882732813767909
-0.1322087700369879
0.07954252495171185
-0.003217137264395899
-0.009703866278998611
-0.5815577467867713
-0.866223919002021
-0.1870994597454345
-0.008121366868870189
-0.1363919447020454
0.001065711984613681
-0.0007653416074776219
-0.001925332406583095
-0.06001393115551319
-0.2399791097290732
-0.01344665147459796
-0.1234505057940549
-0.1545669802452093
-0.01323690883504063
-0.0360357091062143
0.02156953999648172
-0.0571405771104946
-0.06943588279680844
-0.5044911875094205
-0.2463179107386208
-0.08128979575148175
-0.07212594754929519
-0.01995602924801085
-0.1218130786129311
-0.1537864104721578
-0.07559152978297154
0.02476645554265011
-0.08405885590447885
-0.04777441853299604
-0.01492175321615124
-0.108610322588058
-0.2714691495702005
-0.05643230543963321
-0.01856030965901596
0.0009744199235003011
-0.01006397080282913
-0.01116390693206265
-0.2178424256193554
-0.01496101792594011
-0.2234226363699237
-0.01048139497462967
-0.0653165116307885
-0.003569445535577505
-0.02318981691593338
-0.3764601671458512
-0.9060295506603224
-0.01132684680484842
-1.052061111359389
-0.6154081795224522
-0.01075078749217777
-0.6530522016252766
-0.1751948075562068
-0.005606850269825769
-0.1307939624252494
-0.01709780897765416
-0.1211081102590372
-0.06780853421583097
-0.07530230877190859
-0.005231274288188004
-0.002753367702705655
-1.333191227486252
-0.01108099069380676
-0.1872724122413328
0.0005033277618685014
-1.015604289654767
-1.229374170180227
-0.08216641458594943
0.02032052018715126
0.1642532277471507
-0.004778404279463473
-0.02302830913908522
-0.004245362430157051
-0.2532158159058652
0.3662194322599381
-0.04074548049087293
-0.2098078369761421
-0.01494781714087605
-0.6590534299174767
-0.07558291029104555
0.1916444043333381
-0.2838002230349863
-0.04969440113011631
-0.06856718729030256
-0.01587656952257679
-0.02174185969674975
-0.5732218769071245
-0.1442584592858098
-0.08614785031050007
-0.1277296627420164
-0.5583467190728486
-0.04406157940055621
-0.9113640170178017
-0.0004601092469073482
-0.2368504268900457
-1.044859620324765
0.1699757451863504
0.2927085099820216
-0.1818354658670479
-0.1942762105135365
-0.2059380780369625
-0.0684583276775341
0.02305764907127748
0.0504901110237559
0.004162403450879178
-0.1652742817145123
0.02519121730019473
-1.351634772856807
-0.08485000457498192
-0.4714354132929954
-0.3284666478929659
-0.2034651817016984
-0.1752163332481191
-0.01692093855225428
-0.01545261627201997
-0.1056537757469142
0.1700379951212068
0.3858900911984033
-0.2205947439026883
-0.1416913960927128
-0.2411282261749888
-0.06230242807485781
-0.1511118263341269
-0.1623412340299922
-0.1251948952442193
-0.1212555368288116
0.4672905806738495
-0.2681719177880695
0.430045421970563
-0.6014941066524221
0.07007668379105771
-0.2048000019795138
-0.06584437435101835
-0.07346568574849817
-0.8751420957767545
-0.2230756803685513
-0.1890794190799114
-0.345335555308299
-0.4559396436415702
0.5706989897520047
-0.2047205532565561
-0.0002479680207746121
-0.07134719168305365
0.342863387967933
-0.03801737155856132
-0.1287855344147613
-0.1781832710859033
-0.06376330410179988
-0.01651757033623795
-0.1931837727315333
0.1920621765604597
-0.01276742978824699
-0.09583580048503447
-0.1674664212502959
-0.3124800802400551
-0.3146586880377122
-0.06538401266866449
-0.010266046539768
-0.07645476173682511
-0.6578218725146574
-0.6665370680083851
-0.3391520650780291
-0.05746329930434638
-0.05241169690468676
-0.0255086626484264
-0.06718547214897391
-0.05837905738189796
-0.3573726501974066
-0.9535387199177822
-0.01008482434584671
-0.0825271970299727
-1.133654209007875
-1.028024530801133
-0.1033355740439899
-0.03801058846156192
-0.07041738737463746
0.3913112674024253
-0.3458259163889181
-0.05101029638199915
-0.5959260377386252
-0.1235530622050508
-0.2543260371353609
-0.2087996873788616
0.4744619709920755
-0.6251260573484398
0.07218781350194649
-0.02964192335129106
-0.5554301360042917
-0.05099270974890203
-0.3590986112679215
0.1060131327249925
-0.1893198576165059
-0.05954583953506733
-0.1372082429974935
-0.364257523468452
-0.08958824547758423
0.5137357478262401
0.08494063552709376
0.4714515094536635
-0.1104357457838103
-0.1986124969330994
-0.5237566862467459
-0.1294255293321617
0.02732194917018821
-0.05318443766679519
0.1035562011695897
-0.3097562076354358
0.2361449464367322
0.009337464147635895
-0.003304745391662549
-0.5156325438624145
-0.186664364834854
-0.08610155639678443
0.5813571148471747
0.1381132349661598
0.346919764901136
0.2258336965921926
-0.5586930566210415
-0.2098976497323293
-0.219854077444301
-0.2388325035132201
-0.05996884975282704
-0.6971760729211913
-0.1955157582058882
0.3066751276043288
-0.20722438177853
-0.0111129647269636
-0.1732592715738479
-0.009067357294318144
-0.1572150271142535
-0.4328725885440349
-0.07695850733758103
-0.1965140307340721
-0.07176064678097953
-0.09114491515633341
-0.1450992548114542
-0.07364986210033796
-0.4562007715787187
-0.4171994035128092
-0.0270240478496214
-0.07379316001556599
0.3259948487357212
-0.2456328621597693
-0.1851461218316773
0.5260143804269853
-0.2079493082753676
0.0170063740080062
-0.4472646631664655
0.04511957061721261
-0.06262558537229333
-0.1526391273155645
-0.5800636507465426
0.1627375137959015
-0.583253070134763
-0.531629243641308
-0.1069839124013235
-0.5046780119232992
-0.03749558998093364
-0.1411428796104465
-0.4076912478191348
-0.01635308411228982
0.2859619479048899
0.4893617566062199
-0.1578150702901586
-0.008745331785927703
-0.0707072442757022
0.5253761762789679
-0.03355172564453983
-0.4366780283731355
-0.03283379601000205
0.4600679744408312
-0.01435119590242425
-0.5407392451855172
-0.2441343143371081
0.175229623430762
-0.3084353093438462
-0.177405031727623
0.052563311810993
0.03404894665037712
0.05377355077129818
-0.2972967184719935
-0.1568272969734233
0.4127182758318869
)
;

boundaryField
{
    FrontBack
    {
        type            empty;
    }
    Top
    {
        type            zeroGradient;
    }
    In
    {
        type            zeroGradient;
    }
    Bottom
    {
        type            zeroGradient;
    }
    Out
    {
        type            fixedValue;
        value           uniform 0;
    }
    circle
    {
        type            zeroGradient;
    }
}


// ************************************************************************* //
