/*--------------------------------*- C++ -*----------------------------------*\
| =========                 |                                                 |
| \\      /  F ield         | OpenFOAM: The Open Source CFD Toolbox           |
|  \\    /   O peration     | Version:  2412                                  |
|   \\  /    A nd           | Website:  www.openfoam.com                      |
|    \\/     M anipulation  |                                                 |
\*---------------------------------------------------------------------------*/
FoamFile
{
    version     2.0;
    format      ascii;
    arch        "LSB;label=32;scalar=64";
    class       volScalarField;
    location    "32.4";
    object      p;
}
// * * * * * * * * * * * * * * * * * * * * * * * * * * * * * * * * * * * * * //

dimensions      [0 2 -2 0 0 0 0];

internalField   nonuniform List<scalar> 
808
(
0.115567
0.0237104
0.065077
0.11532
-0.242015
0.0201724
0.0132405
0.0327254
-0.142097
-0.0351507
0.062723
-0.158783
0.0337051
0.0173806
-0.170255
0.0278376
-0.162404
0.0166869
0.0464293
0.00776683
0.0448081
0.39277
0.0875608
-0.00539825
0.469733
-0.129496
-0.0687407
0.00991451
0.0110314
0.0243176
0.0132133
0.0160972
0.0289707
0.00920854
-0.0976583
0.630273
0.0229392
0.0304557
0.0240578
0.0270032
-0.0621574
-0.0674527
0.0481754
0.038942
-0.132496
0.104372
0.0265297
0.000792303
0.0249734
-0.184488
0.016372
0.0116855
0.0589508
0.00200734
-0.0621272
0.0226225
0.0129304
0.0529931
-0.0331417
0.0161602
-0.303332
-0.00644898
0.0387815
-0.199828
0.0424549
0.0594191
-0.31004
0.0320967
0.0568132
-0.292048
0.0292876
-0.325663
0.0250355
0.0247381
0.177433
0.0311966
-0.000307637
-0.0415031
0.0211305
0.331461
-0.0877486
0.021673
0.0405899
0.268633
0.0377021
-0.0184647
-0.370375
-0.0817975
0.0308361
-0.130329
0.0359567
-0.113465
0.269448
0.174125
0.0550412
-0.323616
0.0319348
-0.093726
-0.122093
-0.281419
0.0203465
0.00674935
0.039555
-0.0107792
-0.0908466
0.0735253
-0.148783
-0.0293165
0.0200072
0.0187699
-0.0461384
0.349585
0.0264358
0.00161898
0.0292436
0.4565
0.0181192
-0.279498
0.0299104
0.0552706
-0.260539
0.0477641
0.0193399
0.0557623
0.130035
-0.0274557
0.101942
0.0302902
0.023198
0.0821458
-0.368799
0.0350359
-0.0507734
0.145103
0.0313937
0.0180303
0.0238434
-0.00809297
0.0263131
0.0117265
-0.251092
0.0441907
0.0623372
0.0288195
-0.005245
-0.0258192
0.0932525
0.153679
-0.201983
-0.0438404
0.0280165
0.359772
0.0316879
0.546885
-0.264808
-0.0660127
0.0221984
-0.152753
0.0354419
-0.0826981
-0.315947
-0.258737
-0.330528
0.0233981
0.0749441
0.0351288
0.024659
-0.350574
0.0221665
0.0447555
0.0397917
0.176813
-0.0362423
0.113879
0.0231958
0.067134
0.0855837
-0.170626
0.0280604
-0.352795
0.0442073
-0.107574
0.0209723
0.260402
-0.131295
0.13298
0.0327589
-0.166641
0.0429982
-0.118332
-0.250543
-0.0690901
0.029616
0.0774959
0.0210065
-0.223525
0.0284867
0.0368237
0.0123723
0.097589
0.064244
0.034756
0.0305247
-0.32254
0.386176
-0.235031
-0.314122
0.00979749
0.06692
0.0271733
0.0142666
-0.401686
-0.384348
0.0244818
0.0269589
0.0226236
-0.334145
-0.0120209
0.0250346
0.0339342
0.00819965
-0.0616634
0.0344111
0.0341949
0.00891146
0.0296435
0.141748
-0.423831
-0.00968178
0.0138488
0.133935
0.0168592
0.019394
0.0118757
-0.0687993
0.0534977
0.0167837
0.0113964
0.020916
0.0249114
0.0157695
0.00883517
0.000891476
0.0104264
0.00490456
-0.00641503
0.00858375
0.0138067
-0.0127629
-0.0069827
-0.325987
-0.00284649
-0.0176106
-0.0958019
-0.00183629
0.0212353
0.0309025
-0.00142763
0.0260131
0.145816
-0.0224584
0.0158026
0.0169332
0.0593655
0.0493281
0.0106779
-0.0203429
0.0133209
-0.0148014
0.0509124
0.0210218
-0.397451
0.29308
0.0239716
-0.104707
0.0188811
0.0254695
0.0149323
-0.268079
0.269876
0.0140027
0.0612384
-0.00461137
0.0834309
-0.215072
0.0133982
0.00122055
-0.0419893
-0.0196445
0.0340354
0.0256404
0.0217623
0.00526244
0.0224426
-0.0253064
0.0220125
0.0554294
0.0751271
-0.0294414
-0.0219307
-0.004358
0.0170653
0.0220077
0.0287178
-0.515545
-0.0663284
0.0772038
-0.0211573
-0.195671
-0.148753
-0.023769
0.0253136
-0.320869
0.124586
0.152426
0.0268424
0.0234957
-0.0148724
0.00720402
-0.229355
0.0305357
-0.00431536
0.0339947
0.0263052
0.00410929
0.0307644
0.0125302
-0.00749998
0.00414234
-0.285494
0.0382629
0.0411501
0.055598
0.0175305
0.0222881
0.247936
-0.0130764
-0.176881
0.55133
0.134101
0.00890071
0.0330614
-0.0836761
-0.0248041
0.0308805
0.0334325
-0.0130696
0.0172381
-0.0414174
-0.207436
0.0506616
0.123215
-0.0168772
-0.270087
-0.322942
-0.410819
-0.327474
0.0461545
0.028005
0.0126347
-0.0210908
-0.0346428
0.00983407
0.0226457
-0.00109362
-0.5085
0.0848659
0.0190633
0.0464067
-0.193219
0.0626374
-0.0271838
0.109488
-0.357729
0.0774857
0.0113762
0.0635055
0.0725898
-0.295437
0.0304777
-0.273254
0.0124489
0.0646645
0.0493623
0.0215421
0.0437993
-0.166927
-0.341626
0.00981451
0.00406839
-0.231101
0.0132435
0.0123231
0.0227696
-0.0142867
0.0133216
-0.298143
0.0291005
0.0288717
0.0245159
-0.364362
-0.195003
0.0811647
-0.0188856
-0.0604167
-0.0411824
0.4218
-0.142141
0.0253855
-0.0868271
0.025731
0.0439432
0.0276786
0.0650547
-0.00449407
0.0847906
-0.0457582
-0.0112505
-0.00515375
-0.00683779
-0.0113738
-0.00931974
0.0338868
0.111544
-0.049736
0.0263595
0.00759022
0.0421383
-0.0109721
0.0361267
-0.384111
-0.0986587
0.0150628
0.0306037
-0.126383
-0.356654
-0.015202
-0.0941081
0.0340928
0.0268303
-0.231619
-0.25931
0.266277
-0.314352
-0.458986
-0.146714
-0.107006
0.0135005
-0.396587
0.354835
-0.0821674
-0.313344
0.015592
0.112673
0.56407
0.00840237
0.00261097
0.0699813
-0.116591
-0.00138699
-0.266536
-0.225393
-0.00847055
0.0604544
-0.0536925
-0.26916
-0.318912
-0.159252
0.0223081
0.0390468
0.108396
-0.0108627
-0.0801618
0.0954106
-0.0707328
0.0239737
-0.191836
-0.269365
-0.0182071
-0.0109519
0.0233809
0.0271628
0.0761289
-0.0263681
0.0247082
-0.46515
0.45271
-0.289808
-0.293781
-0.0135177
0.00538404
-0.279665
-0.260377
0.116114
-0.335987
-0.0718761
0.86841
0.0251482
-0.352336
0.016323
0.0208761
0.0364007
-0.466843
-0.266888
-0.314336
-0.00658172
-0.147221
-0.358395
0.00863992
-0.0042792
0.127934
-0.3212
0.0485465
-0.503899
-0.289116
-0.350309
0.0372241
0.0424929
0.0236768
0.122054
0.122636
0.000494436
-0.292265
0.302993
-0.058379
-0.0115426
-0.438086
-0.499907
-0.33551
0.0409758
-0.348096
-0.0532014
0.0226355
-0.022418
-0.195372
-0.240194
0.0268687
-0.313639
-0.228667
0.0143578
0.00717752
-0.245838
0.00992478
0.0545116
-0.38283
-0.347093
-0.104801
0.120159
0.029147
-0.332522
-0.257801
-0.388899
-0.00973708
0.0625633
0.118519
0.00285616
-0.423883
-0.262188
0.122388
0.0237531
-0.021887
0.0437296
0.0332334
-0.298091
0.0508394
-0.28095
0.0424811
-0.181809
0.0495283
0.00385502
-0.329478
-0.415879
-0.000933135
-0.480199
-0.462744
0.047862
-0.026979
-0.256778
-0.0176075
-0.303668
0.0327379
0.104343
0.0572615
-0.154835
-0.0427501
0.0781446
-0.402675
0.0190846
-0.309822
0.0220122
-0.329991
-0.465387
0.0924775
0.297586
0.449673
0.0353398
0.00256745
0.0034699
-0.339005
0.658697
0.0296297
-0.155986
0.0173149
-0.0877262
0.0762701
0.507452
-0.335892
-0.0278419
-0.0203561
0.0258161
0.01809
-0.412899
-0.278551
-0.347443
-0.249925
-0.287896
0.0111027
-0.371682
-0.0228388
-0.221925
-0.263077
0.546043
0.615778
-0.234042
0.102816
-0.266374
-0.0173933
0.113475
0.442552
0.0640425
-0.32138
0.105014
-0.461328
0.00141407
-0.16055
0.0140687
-0.283327
-0.224709
0.00486989
0.00364172
-0.32049
0.437001
0.693813
-0.350848
-0.263436
-0.336043
-0.0361276
-0.273395
-0.254174
-0.114656
-0.321495
0.781441
-0.306584
0.739916
-0.41834
0.325848
-0.318873
0.0230534
0.201093
-0.457449
0.2047
-0.211981
-0.271639
-0.29941
0.888098
-0.274472
0.205825
0.141726
0.641224
0.118881
-0.235067
-0.2325
-0.165104
0.0195981
0.123223
0.508626
0.0173987
0.0041858
-0.256909
0.159542
-0.132256
-0.36086
0.0474677
-0.168739
-0.176992
-0.110331
-0.369295
0.0207943
0.100726
0.0172333
0.0975934
0.105534
-0.295873
-0.308813
0.055431
0.0357503
-0.417248
-0.466481
0.213321
0.216776
0.0892011
0.695961
-0.0912864
-0.171722
-0.338177
-0.266337
-0.0699546
0.114134
0.781599
-0.405532
0.365151
0.0117563
-0.384895
0.17586
-0.034337
0.377994
-0.110448
0.0329944
-0.327269
-0.0951938
0.179588
0.814701
0.334735
0.782977
-0.388941
-0.261712
-0.420898
0.19862
0.288906
0.0811672
0.409125
0.117435
0.506063
0.304743
0.0637468
-0.200366
0.0157329
-0.229205
0.895648
0.415197
0.680047
0.523588
-0.22232
-0.364891
-0.26121
-0.302238
0.0666932
-0.417514
0.0879494
0.619188
-0.382669
0.00824654
-0.30519
0.207719
-0.298611
-0.329176
-0.158415
-0.246356
-0.273987
-0.341864
-0.336794
-0.122619
-0.420288
-0.148611
-0.205439
0.171434
0.648266
-0.17478
-0.318446
0.849289
-0.316975
0.27926
-0.196134
0.373476
0.0849206
-0.392038
-0.35377
0.476292
-0.289483
-0.279451
0.178864
-0.23267
-0.00166532
-0.263048
-0.0780503
0.0500329
0.569629
0.78861
-0.260634
0.223895
-0.268169
0.835008
0.00648758
-0.271719
-0.000641602
0.765832
0.229075
-0.279198
-0.25418
0.450917
-0.17249
0.0667936
0.383667
0.274382
0.294798
-0.209185
-0.231836
0.698387
)
;

boundaryField
{
    FrontBack
    {
        type            empty;
    }
    Top
    {
        type            zeroGradient;
    }
    In
    {
        type            zeroGradient;
    }
    Bottom
    {
        type            zeroGradient;
    }
    Out
    {
        type            fixedValue;
        value           uniform 0;
    }
    circle
    {
        type            zeroGradient;
    }
}


// ************************************************************************* //
