/*--------------------------------*- C++ -*----------------------------------*\
| =========                 |                                                 |
| \\      /  F ield         | OpenFOAM: The Open Source CFD Toolbox           |
|  \\    /   O peration     | Version:  2412                                  |
|   \\  /    A nd           | Website:  www.openfoam.com                      |
|    \\/     M anipulation  |                                                 |
\*---------------------------------------------------------------------------*/
FoamFile
{
    version     2.0;
    format      ascii;
    arch        "LSB;label=32;scalar=64";
    class       volVectorField;
    location    "19.4";
    object      U;
}
// * * * * * * * * * * * * * * * * * * * * * * * * * * * * * * * * * * * * * //

dimensions      [0 1 -1 0 0 0 0];

internalField   nonuniform List<vector> 
808
(
(0.892619 -0.0113914 0)
(1.0214 -0.0368937 0)
(1.1562 -0.0329117 0)
(1.07 0.0105549 -2.36082e-21)
(1.47934 -0.285813 0)
(0.956412 -0.0265893 0)
(1.13227 -0.0556985 -1.43705e-22)
(1.12895 -0.0445862 0)
(1.35297 -0.226255 2.53367e-20)
(1.23017 -0.0891516 -8.55107e-21)
(1.18077 -0.000851634 7.30505e-21)
(1.38355 -0.253632 0)
(1.00039 -0.0463656 0)
(0.739625 -0.0236092 0)
(0.898202 0.0784559 1.56297e-20)
(1.07895 -0.0352803 0)
(0.788703 0.0346472 -4.94882e-21)
(0.984889 -0.0372735 -4.50358e-23)
(1.1668 0.000946217 0)
(1.11657 0.000636661 0)
(1.19339 -0.0109987 -1.01943e-20)
(0.928509 0.122067 1.13382e-19)
(1.07564 0.0140123 -1.3518e-20)
(1.17779 -0.0369724 0)
(0.949616 0.180247 0)
(1.34823 0.0771575 -2.79449e-20)
(1.28294 -0.17381 8.5511e-21)
(0.952999 -0.0254121 -6.78873e-22)
(1.07016 -0.0241696 0)
(1.03667 0.0392783 -2.78649e-22)
(0.975405 -0.028899 1.62455e-24)
(1.12402 -0.0164322 0)
(1.04564 0.0373352 0)
(1.06837 -0.0218009 7.3189e-22)
(1.30261 -0.0732868 8.42415e-21)
(0.742381 -0.118872 1.11575e-19)
(0.873174 -0.0299346 -3.9685e-21)
(1.02174 0.0292043 1.17161e-21)
(1.19919 0.055705 -1.68513e-21)
(1.09161 0.0224495 0)
(1.25879 -0.0669669 -1.6061e-20)
(1.27571 -0.13186 0)
(1.00971 -0.0010295 -7.381e-21)
(1.11857 -0.0376919 6.72622e-21)
(1.25483 -0.015203 0)
(1.01109 0.0177417 -2.02484e-20)
(0.99078 0.0385881 1.62922e-21)
(1.25509 -0.249238 6.26006e-21)
(1.18024 0.0520749 -3.19475e-21)
(1.40743 -0.176228 -3.66031e-20)
(1.12694 -0.0587644 1.16606e-21)
(1.14869 -0.0700544 0)
(1.12122 0.000268241 6.57396e-21)
(1.1378 -0.0134309 0)
(1.31533 0.24081 3.47484e-21)
(1.07573 0.0424922 -1.29773e-21)
(1.19086 0.00127626 0)
(1.21407 -0.0293294 3.54117e-21)
(1.23464 -0.0936207 9.17898e-21)
(1.14743 0.0286415 2.2492e-22)
(-0.322767 0.214548 0)
(1.21665 -0.214468 -7.02626e-21)
(1.2098 -0.0363012 0)
(1.42332 -0.0784675 -2.81902e-20)
(1.14055 -0.0323279 -7.49362e-21)
(1.04215 -0.0290405 -7.19572e-21)
(1.35936 -0.116126 2.94578e-20)
(0.63802 0.0181234 0)
(1.13493 -0.0366797 0)
(1.44797 -0.353276 0)
(0.889084 0.0318254 -1.50467e-22)
(1.25694 -0.139791 -4.11864e-20)
(1.00933 0.0547421 0)
(1.05829 -0.0391044 -2.08194e-21)
(1.12628 -0.337502 -5.64239e-20)
(1.11659 -0.0447967 -7.5862e-21)
(1.14507 0.0195062 4.17976e-22)
(1.31253 0.495737 2.45106e-20)
(1.10732 -0.0471727 0)
(1.01117 0.278567 -1.88698e-19)
(1.36085 0.0476454 1.63859e-20)
(0.733482 0.0184257 0)
(0.840205 0.0307078 -8.48025e-21)
(0.969198 -0.110911 4.23211e-21)
(1.11164 -0.0480235 6.21503e-21)
(1.18904 0.00923474 1.47829e-21)
(1.29235 -0.235894 0)
(1.34141 0.287796 0)
(1.08948 0.000590149 -9.94822e-21)
(1.38149 0.11421 3.1754e-20)
(1.07807 -0.0198344 1.05899e-20)
(1.32143 -0.120613 -1.43949e-21)
(0.964537 0.0253634 1.76956e-20)
(1.00416 -0.0231068 0)
(1.11704 0.0187346 1.50757e-21)
(1.3108 -0.0450165 -7.47855e-20)
(0.754603 0.0157185 -2.44888e-21)
(1.37489 -0.0363049 0)
(1.32373 -0.0882421 0)
(1.42904 -0.0808291 -4.61085e-20)
(1.10057 -0.0512681 -1.90249e-21)
(1.12454 0.00731422 3.07081e-24)
(0.950559 0.0209737 9.36974e-21)
(1.18133 -0.00377045 -4.91405e-22)
(1.30639 0.0189065 -2.31229e-20)
(1.00231 0.00674378 1.33473e-20)
(1.47899 -0.0351692 0)
(0.926766 0.0655863 0)
(1.09953 0.0295649 2.49935e-21)
(1.20547 -0.21962 -6.95399e-21)
(1.26519 0.00651014 1.08744e-20)
(1.04541 0.0451242 -1.2498e-19)
(1.1601 0.0376077 -8.45259e-22)
(1.23562 0.12462 1.82586e-21)
(0.79219 0.0185115 0)
(0.917834 -0.0497065 7.64279e-20)
(1.14776 0.0181421 -2.8021e-21)
(1.44245 -0.263043 -1.82915e-20)
(1.12449 -0.0434184 -5.00413e-21)
(0.926293 0.0172965 2.42132e-21)
(-0.454515 0.0122006 0)
(0.864356 -0.0169918 2.36703e-21)
(0.802858 0.0224379 0)
(1.06249 0.00302981 -8.19943e-23)
(1.01187 0.0290463 0)
(1.30462 0.324239 5.46631e-21)
(1.03564 -0.0531616 -2.99688e-20)
(1.39772 0.113125 -1.80464e-22)
(1.14969 -0.0646955 0)
(1.09245 -0.0222182 0)
(0.638893 -0.0226994 0)
(1.13064 -0.0407915 -2.56042e-21)
(1.24505 -0.051085 9.18656e-21)
(1.06555 0.112155 -3.4847e-20)
(0.851624 -0.0246032 0)
(1.10416 0.0217835 -6.89822e-22)
(1.10068 0.124004 3.74671e-21)
(1.17196 0.0458674 -8.86514e-22)
(0.992142 0.0326384 2.51835e-21)
(1.12762 0.00544134 -2.57434e-24)
(-0.0217371 0.0321931 0)
(1.09608 -0.0232562 -1.17906e-20)
(1.07882 0.0111561 3.2897e-21)
(0.723767 0.0258342 -2.44738e-21)
(1.25625 0.173184 3.67673e-21)
(1.12307 0.179742 2.7682e-21)
(1.04855 0.0171454 1.57089e-20)
(0.991083 0.0261538 0)
(1.21478 -0.0952089 -3.12934e-20)
(1.08471 0.0803142 0)
(0.939933 0.0322751 4.99152e-21)
(0.967233 0.278022 1.50808e-19)
(0.968413 0.0358825 0)
(0.818073 0.0939662 0)
(-0.103875 0.0151621 -6.25374e-20)
(1.33869 0.140974 -1.06503e-20)
(0.675389 -0.02293 0)
(1.43573 0.0675181 0)
(1.12876 0.0541582 0)
(1.35318 0.112554 1.22078e-20)
(-0.0474739 -0.119792 0)
(-0.0583369 0.0386294 2.96621e-20)
(1.02734 -0.0430484 8.63537e-20)
(1.00486 0.0389341 5.33046e-22)
(0.862764 0.000529735 0)
(1.0403 -0.0474761 7.41021e-21)
(0.892195 0.0217986 0)
(0.769639 -0.0289552 -9.33158e-20)
(1.03472 0.0485057 5.47338e-21)
(1.13695 -0.0388713 2.48839e-21)
(1.09557 0.00909274 4.96864e-21)
(1.01347 0.0688562 -1.23677e-20)
(0.820377 0.164959 -2.75582e-21)
(1.14002 -0.351186 5.5314e-22)
(0.914134 -0.0260178 0)
(1.06938 0.000179825 -1.24849e-20)
(0.875331 0.00930434 -1.0974e-20)
(1.38028 -0.166462 2.18554e-21)
(0.68871 0.0291637 0)
(1.05518 -0.14363 0)
(1.13299 -0.0447261 3.17015e-21)
(1.38324 0.219414 8.41751e-21)
(1.11648 0.0150171 3.25911e-21)
(1.03626 0.0177598 1.92278e-20)
(0.653471 0.0860759 -6.5591e-20)
(0.814253 0.00361461 1.98859e-20)
(1.13845 -0.0194567 3.33683e-21)
(1.37865 -0.0633247 -5.05265e-21)
(1.11993 -0.0389716 -4.59658e-21)
(1.31629 -0.0420981 4.32965e-21)
(-0.105199 0.0457533 4.52265e-20)
(1.26924 -0.0274839 0)
(0.612005 -0.0174083 0)
(1.06302 -0.0273083 -5.98476e-21)
(1.0999 0.0113383 3.60565e-21)
(0.0182652 0.0752376 0)
(0.879589 -0.0245923 2.96923e-22)
(1.13933 -0.0545284 -2.13543e-21)
(0.965922 0.0220427 7.10761e-22)
(1.07853 0.0410574 -7.58326e-21)
(1.00732 0.0192627 2.66235e-21)
(1.05419 -0.0470564 1.8837e-21)
(1.04483 0.0291362 0)
(0.348003 -0.0423671 0)
(1.04746 -0.0638199 0)
(1.11875 0.111322 -2.50258e-20)
(-0.0478641 -0.120935 4.63348e-20)
(1.07778 0.0344983 -5.54417e-24)
(1.1158 -0.0321148 0)
(0.758309 0.0213628 -4.74246e-21)
(1.10227 0.0405398 1.33331e-21)
(-0.00598393 -0.0401369 -1.52306e-19)
(0.835821 0.0241077 -5.39388e-20)
(0.626587 -0.0186391 0)
(0.906998 0.0552223 0)
(0.925617 0.0403166 5.64513e-21)
(1.02558 -0.113171 5.89188e-21)
(1.27098 0.39724 -3.9657e-21)
(1.07408 0.0332437 -4.12135e-23)
(1.20667 -0.0485457 -2.47593e-21)
(0.998163 0.0755525 0)
(1.35388 0.422702 -3.08885e-20)
(0.653991 -0.0245259 0)
(0.798626 -0.0210465 -2.39906e-21)
(1.05032 -0.0166332 4.93269e-22)
(0.577064 0.0139983 0)
(1.09983 -0.00633802 0)
(0.0496035 0.0479624 -4.50798e-20)
(1.18764 -0.107546 -2.91111e-21)
(0.718846 -0.0143787 8.16496e-22)
(0.990524 -0.00252109 0)
(0.534874 -0.0193452 0)
(0.754545 -0.0172201 -1.84771e-21)
(0.522293 -0.0189695 -4.39142e-22)
(1.35219 0.0504686 3.10717e-22)
(1.22628 -0.0209139 -2.78949e-21)
(0.693443 0.0171565 -1.63972e-21)
(1.12549 -0.00533684 1.81862e-23)
(1.11003 0.0140165 3.88341e-23)
(0.536953 0.0202595 4.62405e-21)
(1.21946 -0.00410639 3.51793e-22)
(1.17591 -0.0230812 0)
(0.920206 0.0723637 0)
(0.482374 0.0214085 0)
(1.04704 -0.00559652 0)
(1.14964 0.012939 7.30715e-24)
(1.04671 0.00353791 0)
(1.16043 -0.0142653 0)
(1.0313 0.0299056 0)
(1.12783 0.143374 0)
(-0.0272534 -0.0544796 4.68775e-20)
(1.20759 0.0273052 -3.09751e-24)
(1.12744 0.0645715 0)
(1.32073 0.0155167 1.43282e-20)
(1.16616 0.0506785 6.61897e-22)
(1.12358 0.0405373 2.49301e-22)
(1.13581 -0.0809265 3.62701e-21)
(1.1583 0.0173021 0)
(0.561796 -0.0167406 4.34974e-21)
(1.05103 0.0448607 1.20288e-20)
(1.28364 -0.110782 0)
(1.17256 0.00133461 -1.47494e-21)
(1.20078 0.0532571 1.89683e-21)
(0.646597 0.00423269 3.36019e-21)
(1.12377 0.022899 5.39595e-21)
(1.17261 -0.0038819 -3.76589e-21)
(1.07719 0.0377266 0)
(1.20308 0.133677 -9.59551e-21)
(1.19407 0.0678749 -9.16153e-22)
(0.694995 0.0375097 1.34055e-20)
(0.817629 -0.0835682 0)
(-0.0190572 -0.0231943 0)
(0.973488 0.111009 -1.80677e-20)
(1.1222 -0.0209668 0)
(1.33243 -0.0981332 3.49794e-20)
(1.22113 0.0387648 4.42315e-22)
(1.13045 0.0180085 3.62026e-21)
(1.19027 0.0422376 -1.71966e-21)
(1.3625 -0.0115478 1.06987e-19)
(1.02098 -0.327718 5.69659e-20)
(1.13468 -0.0500857 1.29563e-23)
(0.913996 -0.0725812 0)
(0.892535 -0.00744215 0)
(0.902722 0.00298013 -2.63828e-20)
(1.32553 -0.103983 -6.03897e-20)
(1.12465 -0.0371577 0)
(0.629008 0.16347 1.60856e-20)
(0.370805 -0.020564 0)
(0.756718 -0.10715 5.48556e-21)
(0.818546 0.102361 -1.87032e-20)
(0.806839 0.0274573 -3.52282e-21)
(1.18015 -0.0734545 0)
(1.27799 0.0417022 -5.15958e-22)
(1.17504 0.0157349 3.23632e-21)
(0.762392 -0.0921206 -4.85672e-21)
(1.16382 -0.0473188 -3.31951e-21)
(0.746724 -0.0803461 0)
(1.09236 0.073523 0)
(1.15825 -0.113566 4.08232e-21)
(0.860548 -0.105323 -5.54138e-21)
(1.30224 0.0827005 1.683e-21)
(1.11691 -0.0465018 -2.39907e-21)
(1.0019 -0.0366704 2.72104e-22)
(1.08516 -0.0256691 0)
(0.418731 -0.13954 1.38928e-20)
(1.3406 0.101918 -2.0329e-20)
(0.838779 -0.013754 -1.58039e-20)
(0.0414036 -0.210986 -3.55356e-21)
(1.42456 -0.130844 2.53019e-20)
(0.861124 0.0371471 6.03814e-20)
(1.27247 -0.0864029 -4.23693e-21)
(1.0976 -0.0446593 2.0615e-22)
(-0.0604124 -0.11511 -7.92281e-21)
(1.00053 -0.00643408 0)
(1.03291 -0.0875918 -1.5962e-20)
(0.855919 -0.0340032 4.38578e-21)
(1.1025 -0.0458205 2.47297e-21)
(0.852955 -0.0543695 1.46645e-22)
(0.506431 -0.0174813 -6.66666e-22)
(1.41903 -0.384786 -1.56089e-20)
(1.09423 0.043766 0)
(1.00987 0.0108135 3.30357e-22)
(1.12408 0.0342862 -2.12657e-21)
(1.23409 -0.0359316 0)
(0.756863 -0.0423749 -8.15617e-21)
(1.11916 0.0495041 2.51103e-21)
(0.721142 0.00564894 1.01209e-20)
(1.15888 -0.0543246 1.02475e-20)
(0.865279 -0.0883212 4.60038e-21)
(-0.0368327 -0.0619679 0)
(0.213696 0.000221713 3.56698e-21)
(1.12492 0.0234412 0)
(0.962478 -0.0168071 2.16736e-21)
(0.951671 0.0644776 0)
(1.13447 -0.00748454 1.20793e-21)
(1.0167 0.0272213 0)
(1.10105 -0.0726297 0)
(1.39443 -0.114281 2.11116e-20)
(0.798081 -0.0904626 0)
(1.08765 0.0203598 2.05438e-20)
(1.10298 -0.00738146 -2.04905e-23)
(1.04002 0.0401213 2.55554e-21)
(1.32356 -0.0541131 -1.99038e-20)
(1.24177 0.130081 -3.7055e-21)
(1.26448 -0.0716057 6.04829e-21)
(1.1204 0.049396 0)
(1.16075 -0.0591153 0)
(1.09688 0.0671982 1.74192e-21)
(1.24321 -0.0347479 0)
(1.38799 0.21607 -2.21909e-20)
(0.78888 0.0414706 1.83859e-21)
(1.02703 0.0175783 2.19882e-20)
(1.24539 0.00937387 -2.55268e-22)
(-0.00973801 -0.0212876 0)
(-0.0359333 -0.0874963 0)
(0.0430845 0.0948898 -4.1603e-20)
(-0.0576702 -0.106832 0)
(0.621277 0.123452 -7.6238e-21)
(1.17913 0.0485784 -1.56242e-21)
(1.1377 -0.0469752 -3.17442e-21)
(1.21806 -0.138045 -7.88309e-21)
(1.22858 -0.0557013 0)
(0.68381 -0.00770234 -3.75655e-22)
(1.13891 0.0814624 0)
(1.10324 0.018565 7.08827e-24)
(0.507556 -0.110107 0)
(0.657258 0.0799571 -4.46622e-22)
(1.14044 0.0787511 0)
(1.15278 0.0293295 0)
(0.617888 0.108548 4.29824e-20)
(0.480553 0.134012 -1.4957e-21)
(0.937821 0.0867826 1.73979e-21)
(1.01008 0.0177016 -8.90758e-21)
(0.195561 -0.0864302 0)
(1.20657 0.00583331 -1.93679e-20)
(1.2433 0.031972 -4.49726e-21)
(1.16195 -0.0384542 2.16498e-21)
(0.525812 0.0198895 1.26077e-20)
(-0.0518435 -0.0865735 -9.47104e-20)
(1.18165 0.0815035 0)
(-0.0322366 0.0330635 0)
(1.22279 0.0598742 -4.79502e-22)
(0.328148 0.00861258 -1.35674e-20)
(1.1316 0.0257499 -1.13134e-20)
(1.10877 -0.0462912 0)
(1.14192 -0.0351153 2.13515e-21)
(1.29061 -0.256252 2.98921e-20)
(0.551973 -0.0489191 -9.75492e-21)
(1.14725 -0.0420493 1.02416e-21)
(1.15381 -0.0702279 -3.99198e-23)
(0.44204 -0.246071 3.41527e-20)
(1.19401 -0.0827331 -1.11391e-20)
(1.14171 0.0293156 0)
(1.1804 0.094103 0)
(1.18306 -0.0950364 5.24e-21)
(1.21165 0.0440019 4.06435e-21)
(0.828915 -0.17665 -8.87251e-20)
(1.19374 -0.117754 -1.26816e-20)
(1.14213 0.0507238 2.35557e-21)
(0.499991 -0.000686547 1.03677e-20)
(0.342267 0.105308 -8.17083e-20)
(0.121413 -0.0282535 5.01245e-20)
(1.16964 0.187212 -6.44369e-21)
(1.23968 -0.497651 5.76627e-21)
(1.34806 0.0402052 -1.36494e-20)
(1.21214 -0.0649669 -6.2097e-21)
(0.939179 -0.237738 9.4216e-20)
(-0.319962 0.0175986 0)
(1.17826 0.00468015 -4.51615e-22)
(-0.205295 0.0382416 -2.63295e-20)
(1.20682 0.0885014 4.14942e-22)
(1.22243 -0.0713665 4.13897e-21)
(1.08168 0.036543 0)
(0.536544 -0.103854 0)
(1.17006 -0.0522505 0)
(1.29779 0.0986582 -1.49955e-21)
(1.24984 -0.0244241 -2.28288e-20)
(1.15476 -0.0502323 -4.60082e-21)
(0.45123 0.0132279 0)
(0.609748 0.00335836 0)
(0.625009 0.00482165 7.47437e-22)
(0.436915 -0.00963639 0)
(1.20391 0.0281263 0)
(1.02245 -0.0145758 2.35833e-20)
(0.297043 -0.261886 0)
(0.921239 0.0397483 0)
(1.10288 -0.0121293 0)
(1.16962 0.187461 -9.44996e-21)
(1.25454 0.0183702 7.81606e-21)
(0.967497 -0.0322555 5.73982e-21)
(1.30078 -0.402918 -1.1062e-19)
(0.595903 -0.249612 8.6874e-21)
(1.2395 0.118882 4.19066e-21)
(1.18272 0.00519481 0)
(-0.291677 0.00712277 0)
(-0.230521 0.143443 0)
(1.17332 -0.0365724 -7.89036e-21)
(1.32574 -0.290842 -2.69942e-20)
(1.33186 0.0537096 0)
(1.07778 0.0547763 -6.11054e-21)
(0.529584 -0.024772 0)
(1.51466 -0.163184 7.57261e-20)
(0.409364 0.514942 1.21769e-19)
(0.291416 -0.0528271 0)
(1.10647 -0.278844 1.1875e-19)
(0.12665 0.182335 0)
(-0.152469 -0.329867 1.56513e-20)
(1.31381 0.0552604 0)
(-0.209608 0.103422 3.05489e-21)
(0.983496 -0.0497485 0)
(1.29616 -0.133754 -1.59793e-20)
(-0.136573 -0.0112052 -7.74711e-21)
(1.12927 -0.0337355 -3.57953e-22)
(1.13504 0.0188268 -9.78968e-21)
(0.576711 -0.522913 -9.15313e-20)
(1.15921 0.0532477 -1.07124e-21)
(1.19581 -0.126891 2.98927e-21)
(1.17639 0.249332 -2.33911e-20)
(1.16765 -0.262983 -5.88268e-21)
(1.17156 -0.0195063 -1.02024e-21)
(-0.0845802 0.0944898 -6.12704e-20)
(0.0144496 0.0726417 -6.48384e-21)
(1.3296 0.148172 2.54625e-21)
(1.05772 -0.0494608 0)
(0.557099 0.156479 -1.24333e-21)
(1.40938 -0.444172 8.41633e-20)
(0.947829 -0.0794159 -6.20843e-20)
(1.40764 0.165524 6.44435e-20)
(1.08207 -0.0404218 1.99417e-21)
(1.15394 -0.022817 1.03166e-20)
(1.06192 -0.00717762 0)
(1.17834 -0.0251694 0)
(1.27472 -0.117437 6.18309e-21)
(1.08757 -0.0196992 -4.56104e-21)
(1.15405 -0.209859 6.64995e-21)
(1.1074 0.0566758 -3.84093e-21)
(1.41693 -0.0193893 -4.57082e-20)
(0.413214 0.0267461 0)
(1.16105 -0.0938993 4.86353e-21)
(1.29989 0.0376762 0)
(1.1287 0.0618563 -1.65058e-21)
(1.14588 0.0271777 0)
(1.04128 -0.00871818 1.20939e-20)
(1.24011 0.043468 1.3875e-20)
(1.0615 -0.00669995 0)
(0.0548411 -0.029407 1.60098e-19)
(0.884074 -0.216664 -7.38979e-20)
(1.27629 0.0228812 -2.96625e-20)
(-0.10699 -0.0355214 3.87383e-20)
(1.19191 0.0242097 2.83308e-22)
(0.730195 0.0349211 -3.13762e-21)
(-0.0919807 -0.0182749 -4.03858e-20)
(-0.0195828 -0.0103462 -2.49347e-20)
(1.02032 -0.02956 0)
(-0.0315511 -0.0412594 0)
(1.17289 0.0505789 0)
(0.112347 -0.109542 0)
(1.11742 -0.0311818 0)
(0.139488 0.0280603 0)
(1.12866 0.03854 0)
(1.13528 0.027149 0)
(1.39624 0.0789525 1.50137e-21)
(0.580318 -0.2878 -2.19026e-20)
(-0.131528 0.101156 0)
(1.15319 -0.0900617 6.46157e-20)
(1.29452 0.0735075 1.10501e-21)
(1.26289 0.0504129 0)
(-0.0383344 -0.04332 0)
(1.16628 0.0145408 2.89091e-21)
(1.17702 -0.00788883 -1.89961e-21)
(1.16282 0.388098 0)
(0.271705 -0.0799108 6.30393e-20)
(1.12262 0.0637785 1.26836e-21)
(0.237344 -0.0519395 -5.41608e-20)
(-0.0593066 0.0408893 -2.86474e-20)
(-0.0351727 0.0484309 7.51608e-20)
(0.110976 -0.0329996 4.11682e-21)
(0.977575 0.0409879 2.95251e-21)
(1.15076 0.0567354 -3.07268e-22)
(1.02407 -0.007513 0)
(1.07042 -0.0692672 -2.10402e-20)
(1.23855 0.024129 -8.40088e-21)
(-0.0108018 -0.0391892 9.64647e-20)
(0.98058 -0.0732512 -5.92661e-20)
(0.765775 0.103888 3.44897e-21)
(1.17704 0.0819843 -1.22825e-21)
(0.0753929 -0.0314281 3.4649e-20)
(0.248737 -0.0380897 -4.90151e-20)
(0.420436 -0.0601612 -5.71639e-20)
(1.27076 0.0777311 -3.99586e-21)
(-0.0559508 -0.0416781 0)
(1.07597 0.173803 -6.65162e-22)
(1.08185 -0.126164 1.51839e-20)
(1.1395 -0.138441 -1.46408e-20)
(1.2582 0.0469315 0)
(1.52023 -0.223476 7.51065e-20)
(1.14226 0.0352627 -2.2721e-21)
(-0.0172971 -0.049227 -3.33988e-20)
(0.247449 0.0784838 0)
(0.893087 0.0396286 -1.12383e-21)
(1.13139 0.0192809 -3.27632e-22)
(0.775241 -0.0755943 2.76953e-20)
(1.171 0.0137364 -4.4292e-22)
(1.11871 0.0544952 0)
(1.15123 -0.170536 -1.51489e-20)
(-0.0836636 -0.0602097 -6.81008e-20)
(1.30632 -0.0241368 2.19009e-20)
(1.09973 0.175288 -8.68904e-21)
(1.10133 0.0628198 4.39282e-21)
(-0.0443396 -0.069808 1.57969e-20)
(-0.019627 0.0222394 -5.67673e-20)
(0.726283 0.0883919 0)
(0.671997 0.132516 0)
(1.15147 0.104122 -1.80945e-20)
(1.05124 0.0702217 1.31143e-20)
(1.09571 0.0258402 0)
(0.556805 0.0317065 5.19826e-20)
(0.702197 0.0867982 -1.01147e-20)
(1.09808 0.111337 0)
(1.08844 0.060495 0)
(1.27681 0.0469316 0)
(1.18276 -0.00114615 0)
(1.15319 0.087212 3.23155e-21)
(-0.0428157 0.0427551 3.12861e-20)
(1.23483 0.0105533 5.78803e-21)
(1.42001 -0.18882 -8.5862e-20)
(1.18367 0.0536715 -4.83887e-21)
(-0.0073999 0.153364 0)
(1.13327 -0.0725886 0)
(0.621656 -0.00850869 6.78545e-22)
(0.518416 0.008552 -5.38833e-20)
(0.0664007 0.0363855 4.40615e-20)
(0.935336 0.0162719 -5.65973e-22)
(0.747582 -0.274015 0)
(0.683559 -0.0916192 0)
(1.13592 0.0190786 0)
(0.536149 0.509512 1.64972e-20)
(-0.0119605 0.00416481 -2.72959e-20)
(1.13167 0.0650936 -2.00481e-21)
(-0.0239885 -0.07774 6.40157e-20)
(1.14236 -0.0437964 1.3909e-21)
(1.16918 0.31566 4.4615e-20)
(1.11298 -0.0868965 7.71098e-21)
(0.281293 0.0728301 8.02383e-20)
(1.11927 0.168257 1.01543e-21)
(1.02084 -0.0451388 0)
(0.551374 0.268306 0)
(0.888743 -0.0142399 4.60895e-21)
(-0.185651 0.0677936 0)
(0.605026 0.0290414 1.71683e-21)
(0.607205 -0.420194 -3.21309e-21)
(0.230982 0.048734 -1.04441e-19)
(1.12652 -0.228551 3.09057e-20)
(1.03487 0.36191 1.05022e-20)
(0.97955 0.0166658 0)
(1.2031 0.0173756 1.81111e-22)
(0.626387 0.013659 0)
(0.987325 -0.00686181 -9.24191e-22)
(0.443744 -0.020566 0)
(0.711713 0.125112 0)
(1.0041 -0.0222893 -2.90231e-21)
(1.429 0.18314 -1.16257e-20)
(1.12538 -0.0463285 1.12379e-21)
(0.525048 -0.495307 0)
(1.13588 -0.155382 1.82725e-21)
(0.801718 0.374566 7.2377e-20)
(-0.0403088 0.0207206 1.0575e-21)
(1.23855 -0.010163 1.09127e-20)
(1.22551 0.0440666 -1.06688e-20)
(1.18192 -0.0776598 6.06097e-22)
(0.788424 0.00800348 -3.24717e-21)
(0.0585089 0.0183322 3.37706e-20)
(-0.0168952 -0.0495347 -5.37734e-20)
(-0.180491 0.0870144 0)
(-0.172076 0.199369 0)
(1.19043 -0.618165 3.26461e-20)
(1.15807 -0.0276179 9.95543e-22)
(0.892724 -0.467146 -4.41533e-20)
(1.07194 0.117138 8.78565e-22)
(1.35185 0.206416 2.98131e-20)
(0.598046 0.416598 0)
(0.2448 0.411586 -1.17976e-19)
(0.593056 0.476171 0)
(-0.0311014 0.0997096 0)
(1.12617 -0.481723 0)
(-0.0408758 -0.00745585 -9.70795e-23)
(1.1956 -0.0141837 0)
(0.770397 0.0327724 -3.82575e-21)
(0.590551 0.687366 2.00906e-20)
(1.27352 0.0666413 5.33032e-21)
(-0.0355798 -0.113874 -1.11854e-19)
(0.489909 -0.138464 8.07872e-22)
(0.442723 0.142609 -1.25796e-20)
(1.20768 0.10104 0)
(1.35093 0.360151 2.99072e-20)
(1.21565 0.564764 3.59094e-21)
(0.150178 -0.0139893 -1.99194e-20)
(0.973363 0.132243 2.77078e-20)
(0.932204 -0.0205041 -3.52701e-22)
(0.893794 0.0234427 6.86113e-23)
(-0.00648953 -0.0392113 0)
(0.649457 -0.658114 -3.01462e-20)
(0.61277 0.196172 0)
(0.0788326 -0.0974187 0)
(-0.0434756 0.0426148 0)
(-0.00158655 -0.111879 -4.27e-20)
(1.25042 0.000528625 -1.25292e-20)
(-0.035544 0.0370762 0)
(-0.0272618 0.0240379 0)
(1.45436 0.128088 -6.21811e-20)
(-0.0399177 -0.0929608 5.04927e-20)
(0.11414 0.231137 -1.02406e-19)
(0.372911 0.0160463 0)
(0.170362 -0.282075 8.14211e-20)
(1.09459 -0.240778 0)
(0.998016 -0.286911 0)
(0.00552301 -0.103381 1.06026e-19)
(1.1533 0.0422865 -8.44642e-23)
(1.12087 0.34235 2.9814e-20)
(0.25315 0.0278158 4.27204e-20)
(0.405487 -0.521109 -3.66996e-20)
(1.24973 0.0949652 0)
(1.19691 0.198289 1.98413e-20)
(1.2035 0.215645 -2.43746e-20)
(0.102092 0.084679 -2.36162e-20)
(-0.0600806 -0.0301127 0)
(1.07068 -0.0581782 -1.95043e-20)
(1.10437 -0.224742 -1.52221e-20)
(0.584522 -0.40938 0)
(1.09796 -0.150733 -2.57516e-20)
(-0.10219 0.177116 0)
(0.557341 0.040594 0)
(1.40552 0.0201451 3.47493e-20)
(0.984167 0.0330738 3.21878e-22)
(1.07142 0.741195 -1.9242e-20)
(0.226435 -0.382134 1.31463e-19)
(1.10441 0.0402902 4.05704e-22)
(1.20898 0.0820361 -7.06216e-22)
(-0.042835 0.0318725 2.71074e-20)
(0.781105 0.728239 3.17676e-20)
(1.35292 -0.370714 -1.3432e-20)
(-0.109688 0.0870047 6.93938e-20)
(1.11751 0.0326066 0)
(0.147155 0.063561 -6.41368e-21)
(0.90232 -0.638428 2.89806e-21)
(0.891997 0.637254 -1.49747e-20)
(0.553685 -0.0353586 -6.42869e-20)
(1.14961 -0.00364042 -1.41819e-21)
(1.07588 -0.0840269 6.75336e-21)
(1.16981 0.0454268 -5.08206e-22)
(1.1053 0.123065 5.05796e-21)
(1.13345 -0.128025 0)
(0.88605 0.111515 1.27852e-20)
(0.876563 0.455716 0)
(1.29087 0.0534554 2.23094e-21)
(1.16852 0.1186 8.71287e-22)
(0.739931 0.26216 0)
(0.508271 0.108979 9.96093e-20)
(0.888174 0.708312 -9.61714e-22)
(1.07393 0.290677 -2.28968e-20)
(1.04296 -0.0103128 1.18124e-20)
(0.413684 0.486552 0)
(1.30019 -0.475171 0)
(0.628707 0.0443368 5.19531e-21)
(1.25324 0.503167 0)
(-0.0253896 0.0450479 -3.80057e-20)
(1.28715 -0.417012 -9.27934e-21)
(1.15985 0.509222 0)
(0.452231 0.212124 1.71185e-19)
(1.10961 0.315504 -1.09815e-19)
(0.817536 -0.644836 -2.57874e-20)
(1.17029 0.0385666 -2.07579e-21)
(0.898701 0.150942 7.34346e-20)
(1.08614 0.16998 5.55078e-20)
(1.06366 0.700726 1.83501e-21)
(0.906022 -0.441727 6.51182e-20)
(1.42114 0.200668 3.35476e-20)
(1.13342 0.0107075 -5.46217e-22)
(0.00346347 -0.0663311 9.43383e-20)
(1.08593 -0.705477 2.72064e-20)
(0.873851 -0.723607 5.28644e-20)
(0.252471 -0.338789 0)
(0.972518 -0.149631 7.31715e-20)
(0.361085 0.30251 -4.44293e-19)
(-0.0969322 0.0889806 2.36242e-20)
(0.217481 0.0309429 1.93635e-20)
(0.681933 -0.0591232 -7.56855e-20)
(1.07395 0.527304 0)
(0.988989 0.221009 8.31946e-20)
(1.08775 0.0320883 3.65265e-21)
(0.90599 0.439294 -9.33157e-20)
(0.784768 -0.728735 -8.30475e-21)
(0.92828 0.0198743 -4.9578e-20)
(0.973833 0.487284 0)
(1.16182 0.0235349 -6.84327e-21)
(1.38488 -0.516416 1.34719e-20)
(1.23036 -0.34257 9.51067e-21)
(-0.227717 0.190975 3.06665e-20)
(0.194664 -0.00225996 -1.82933e-20)
(0.975268 -0.120603 -5.87167e-20)
(0.350478 0.520479 0)
(0.915365 0.012809 3.95026e-20)
(1.1474 0.633879 7.142e-20)
(-0.0721471 -0.0332005 1.45954e-19)
(-0.0587001 0.0140237 -2.25285e-20)
(-0.0834632 -0.0854797 4.00696e-20)
(1.09906 0.0260708 -4.9208e-21)
(1.13539 -0.463102 0)
(1.07015 -0.738548 -4.17008e-20)
(0.696461 0.345131 0)
(0.0298121 -0.0351777 -1.08296e-19)
(1.11578 0.0408708 2.4021e-21)
(-0.0380083 -0.100436 -2.94747e-20)
(1.04723 0.0577296 -1.21506e-20)
(0.0985382 0.0247987 4.93269e-20)
(0.824744 0.126128 0)
(1.35832 -0.0152321 4.46809e-20)
(0.0272762 0.029813 -2.19863e-20)
(-0.199872 0.163428 -3.64256e-20)
(-0.208821 0.154092 0)
(0.0823764 -0.0205675 0)
(1.31831 -0.0138318 -1.31405e-20)
(0.383221 -0.0111752 1.5628e-19)
(1.27092 -0.729884 -2.33288e-20)
(0.901884 0.0221446 3.8911e-20)
(1.06841 0.251111 -3.23775e-20)
(0.369708 -0.563119 1.40134e-19)
(1.53361 0.290759 -3.00343e-20)
(0.0751999 -0.0815506 3.6788e-20)
(0.207381 0.299901 1.98145e-19)
(0.102814 -0.0518916 -1.37227e-19)
(0.944595 -0.496589 -4.34496e-20)
(1.44103 0.391607 3.06969e-20)
(0.569266 -0.680648 4.88538e-20)
(1.10753 -0.0840165 -6.87281e-21)
(0.204391 0.0377108 5.88819e-20)
(1.1622 0.291498 -4.31738e-20)
(0.658577 0.635295 -4.20208e-20)
(1.34207 -0.625975 0)
(1.40263 0.519864 3.08679e-20)
(1.05608 -0.531801 -1.26336e-20)
(1.37717 0.605948 -8.8136e-20)
(1.18162 0.0170259 0)
(-0.0495339 0.0504045 0)
(1.24292 0.727378 0)
(1.18534 -0.00157405 -6.43885e-21)
(0.743492 -0.306435 -2.07992e-19)
(0.476901 -0.0880629 0)
(-0.053134 0.0458412 -2.29784e-20)
(1.02255 -0.248438 9.84124e-20)
(-0.244159 0.151921 0)
(0.321398 0.0198397 1.23586e-20)
(1.14744 0.0282888 0)
(1.39644 0.280124 0)
(1.19173 0.0372855 2.22293e-21)
(0.362404 -0.297876 0)
(1.01144 0.150216 3.93008e-20)
(1.29262 0.290336 0)
(-0.0782019 0.0270237 1.89422e-22)
(0.8137 -0.401299 0)
(1.50481 0.347633 -4.56882e-20)
(1.23446 0.369729 3.46128e-21)
(0.836721 0.642378 -1.01539e-20)
(1.0089 0.158344 -9.17678e-20)
(0.970364 -0.206749 -4.79937e-20)
(1.43916 0.301283 2.68966e-20)
(0.962018 0.101455 0)
(0.563887 -0.0761013 0)
)
;

boundaryField
{
    FrontBack
    {
        type            empty;
    }
    Top
    {
        type            noSlip;
    }
    In
    {
        type            fixedValue;
        value           uniform (1 0 0);
    }
    Bottom
    {
        type            noSlip;
    }
    Out
    {
        type            zeroGradient;
    }
    circle
    {
        type            noSlip;
    }
}


// ************************************************************************* //
