/*--------------------------------*- C++ -*----------------------------------*\
| =========                 |                                                 |
| \\      /  F ield         | OpenFOAM: The Open Source CFD Toolbox           |
|  \\    /   O peration     | Version:  2412                                  |
|   \\  /    A nd           | Website:  www.openfoam.com                      |
|    \\/     M anipulation  |                                                 |
\*---------------------------------------------------------------------------*/
FoamFile
{
    version     2.0;
    format      ascii;
    arch        "LSB;label=32;scalar=64";
    class       surfaceScalarField;
    location    "1437";
    object      phi;
}
// * * * * * * * * * * * * * * * * * * * * * * * * * * * * * * * * * * * * * //

dimensions      [0 3 -1 0 0 0 0];

oriented        oriented;

internalField   nonuniform List<scalar> 
1171
(
-0.9279365171238864
0.9279365170516632
0.787416121919907
-1.099099235108527
0.3116831130396788
-0.1916510160664778
-0.7648437874704266
0.9564948039532909
0.07206346932646686
-0.1167592838638325
-0.2121741358991029
0.3289334205257152
-0.7874161131648497
0.06947542711786656
0.7179406860604606
0.8116797160892726
-0.1778031705283142
-0.6338765453929857
0.8743736776815743
-1.04405425136007
0.1696805737294951
-0.2853167680453333
-0.09728776268896684
0.3826045311108861
-0.03602257565162334
0.5488323070137414
-0.5128097314637871
-0.5029384029445766
0.8245024049627798
-0.3215640025751847
-0.4020760648569403
1.046043916999889
-0.1716702325351504
0.3935027897620126
0.04803721963550742
-0.4415400083349952
1.04609955788764
-5.563871709535342e-05
0.4434847012694428
-0.04998189684071401
1.056776658505563
-0.01067709957166504
0.5783517891509961
-0.770002807062597
-0.7243982008908634
0.5569063692089529
0.1674918316934456
0.2195963152429707
-0.722534720035385
0.5506018715735672
-0.9228747549207038
0.372272882701617
-1.09417021131094
0.68644204320011
0.407728168370474
-0.595506237379792
0.5594836663201899
0.01812487209995163
-0.2568982341345898
0.2387733600508928
-0.02377963577994804
-0.5212489977314775
0.5450286359887199
0.4003616823076594
-0.497649452782173
-0.9188628929298148
0.941463472923345
-0.02260058009306043
1.067503947597293
-0.01072728841636298
0.9349437203721134
-1.116729315949896
0.1817855956121434
1.067010960860856
0.0004929862392442823
-0.664457870663596
-0.05994032289856141
1.262343938843639
-0.8642364780726434
-0.3981074607183453
0.1481480664532487
-0.1092105783184115
-0.3264473531586004
0.435657931676797
-0.2856822342849478
0.1911185887829065
0.09456364624533523
-0.5835772398552468
-0.5155220010231936
1.014011248771895
-0.07906752437895256
0.009935633424478049
0.8254545218350631
-0.8353901553185455
0.5718742392190619
0.6904696988787795
0.4396217341898187
-0.03022288976231269
0.4305845699940419
-0.8078113261193045
-0.1025188107873928
0.9103301369100172
0.502285831968128
0.2536859475005694
-0.7559717796078361
0.006167232782339973
0.5268929584941566
-0.5330601904105795
-0.4898852946630304
-0.604284918933841
-0.4228138265294358
-0.6939154870116859
-0.02702843981906614
0.2700898757325272
-0.243061435485616
-0.924704899710899
-0.005075641845897782
0.9297805415089641
0.3086362223749191
0.0739683012056824
0.7621054330062104
0.0495742806699408
-0.533158981823696
-0.06234724974879188
0.04616584881619017
-0.8539771798544851
0.07478382044810677
0.8632734823711513
-0.938057302912579
-0.3470424311963528
-0.0415497894160265
0.3885922197830602
-0.6821340301242712
-0.242570874061011
-0.6326901418593739
0.7074739619636942
0.611694479516925
0.212807920627529
-0.5430326104329876
0.9458283487865748
-0.7792139150719349
-0.1666144338490367
0.01815281858553591
-0.01770503673763872
-0.0004477873077746743
-0.4031886536043957
-0.09446079922511834
-0.2408996584640344
0.8525941404276333
0.04648248303426206
0.3356723295046473
-0.382154812352888
-0.4603513668412068
0.9626371969296094
0.68027334265497
-0.7827921600008289
0.3205928726423121
-0.01781840972250772
-0.3027744663921184
0.9307221129391122
-0.9307221129440352
-0.7819153761654457
0.1104506478319835
-0.3226247880486141
-0.7499899338729092
0.7599255637784119
-0.08987158963772951
-0.1433056514331746
0.233177240807617
0.865002319614065
-0.03954780293630362
1.054187729593412
-0.8005017837796153
0.1861464932560301
-0.3155881103833205
0.1294416175826017
0.8592476607648072
-0.09714222973570484
-0.6117465374993036
-0.03902326673347908
0.6507698041892817
0.1237128137002048
-0.2310651344977646
0.1073523195479012
0.8056971522043491
-0.983500323948056
-0.4353471411943931
0.3296377785115187
0.1057093630192582
0.5315681263797983
-0.5553477602216089
1.021975568360376
-0.45619610813313
-0.5657794603272952
0.5991617471775129
-0.7193963726349476
0.06686052225484679
0.652535850923785
0.1032758777894458
0.5700965794140265
0.05525556788716093
-0.6253521473263596
0.194026484376778
-0.08357583676328437
-0.4930654699382138
0.1460230378308549
0.05027778501426375
-0.8867006034000334
0.8364228184167232
-0.4732117942768286
-0.7134376465888439
0.04897978004530384
0.4371661429160125
-0.006581572489802943
0.299823554260692
-0.8552269607492222
0.5554034060474697
0.4157233937756029
0.5842766063116256
0.5604565041139449
-0.5142906555658364
-0.3670753515498859
0.03565443664324791
0.3314209149344038
0.6813640675077103
0.2493580448196555
-0.56552609971572
0.5716933417208261
0.1107187904252511
0.8751725736149748
0.01016471370836428
-0.6219112474378228
-0.749239988643304
0.7995177705338631
0.5310733208932397
0.07013090146954237
0.3023765683006993
-0.3725074696370777
-0.167535140928692
0.4420526189588701
0.08484031502432865
0.8765535160670359
-0.8007641864089403
-0.07578932980866068
0.6353131109175397
0.3105152388533736
-0.4302170935610014
0.5745574897657957
-0.5044265894030442
0.4172222733304325
0.1333795940720706
-0.04682091869708224
-0.593467538644829
-0.1373161784517052
0.7307837171892074
-0.1497747700971542
-0.7809473448438186
-0.6109828133380948
0.3607276465872541
0.2502551675404216
0.6221081170122534
-0.6119434014135166
0.2390618305832969
1.011221640267379
0.04296608864096398
-0.7492399946263828
0.2328803769242197
-0.2147275677195029
0.6802733461633177
0.8018865059472897
-0.8018865060317506
0.8377208344806568
-0.8332654531215812
-0.004455381443578068
-0.445387807623058
0.8611111986062648
-0.1474387504438946
-0.345626721159529
0.7347014989350145
-0.6684627556972809
-0.06623874315652248
-0.7325474067307669
0.1390798717898243
0.1387174473914566
-0.6718764278293213
0.7827921632426831
-0.9503273040799426
-0.3674677208655119
0.2919095804740852
0.07555813609602688
0.1459514397916916
-1.00975101288754
0.863799573074631
0.4813047766532977
-0.04168304241449444
-0.3081743485311445
0.5864887708791235
-0.2783144223840339
-0.7384353418034338
0.8843867887950952
-0.1571057966355614
0.7325530403158081
-0.8438107970872361
0.1112577561668171
0.9763925448192131
-0.5409480751482831
-0.4354444697671445
0.7550655804291315
-0.06500486490162964
-0.03191909684977737
0.1864136538719111
-0.1544945555482515
-0.7757848992341089
-0.8448946848913937
0.08005089838464698
-0.7499899361684566
0.5137472460567009
-0.5552970358248743
0.09405840299593064
0.7200295858840052
-0.814087988944614
0.7536953861135443
0.1742411188508254
0.5028937716570097
0.4971062283564728
-0.04958574145219064
-0.6098463629162442
0.6594321052005342
0.8843522463274837
-0.007798731041704012
-0.7550655804286384
0.7995177631098505
0.1911124240599867
-0.4480106644808017
0.01900871372586497
0.002890732108893953
-0.02189944935883442
0.5886194161204745
-0.4381823939114731
-0.1504370221247064
0.717940682298874
0.01196845519266403
-0.1123416493976236
0.4370744849849338
0.1515449328158684
-0.01558073629635285
-0.005431654257099785
0.02101239151605534
-0.03188581278097001
-3.325521842921053e-05
0.2437206738166248
-0.2615390838724768
-0.9589923078867387
0.00147063905639453
-0.1594745447607439
-0.1237470566261735
0.09439037788237743
0.721737537206028
0.7290496387921465
-0.1447730305169835
0.6681030808429451
-0.5740446817143671
-0.2117156428968013
0.3978621348184636
0.6954692465269536
0.02247143576162683
0.2416825753694858
-1.074948036706509
-0.9503273000957815
0.3020546557157887
0.7599255600772203
-0.2087306571013899
0.0654250116469888
-0.7232081792360483
0.9107506412256057
-0.1875424621538699
0.4157757845497116
-0.02718356710028543
0.7714179460480118
0.2806036231310309
0.3727633040823077
0.07072137599171294
-0.6586902179141491
0.6586902179500391
0.2145981600036941
0.6957319735336377
-0.05539482221192268
0.3910671378441301
0.3802631124389506
-0.01590740674570956
0.03491613480186825
0.449171018163911
0.03213376434725383
-0.7384353373146167
0.5341023292364125
0.2005991656593499
0.3048035366647825
-0.1183898936188409
-0.6954692457628188
0.1802546653975318
0.7304959772232398
-0.01013656624452415
-0.8137295115114399
0.8238660778204485
0.696296420685746
-0.7921011952208827
0.09580477462140936
-0.7536953817103768
-0.1494937577405791
0.210838110844575
-0.06134435200323904
0.07712524242887206
-0.1798896926889898
-0.1116830001903908
0.2915726936637907
-0.01005754010398736
-0.005523188625149255
0.7063539217241913
-0.7164904900589868
0.8850936239356968
0.07140117808135139
-0.3105700664029439
-0.52109010019792
0.8316601670917769
0.1025272137300782
-0.102527213654157
0.3275640213798176
0.4792447756391318
0.6086777487300395
-1.087922524723227
-0.1941461057185507
-0.5855933853285835
0.7797394910563302
0.012083403543078
0.2210938368659286
0.3771140953286197
-0.2534012839211234
1.013383110201884
-0.5341383351672446
0.6650516789396685
0.9931332926107491
-0.3844555424364605
0.2296753505844478
0.8843867939327843
0.7127165629164276
0.2137021780462767
0.7277612942238177
-0.7809473449744299
0.3413097829983183
-0.2806347129522418
0.2508596754824745
0.02977503167629017
0.8514929250828058
-0.01501220694763743
-0.836480718166869
-0.7020394624940666
0.702532448979439
0.5546121917682452
-0.7020394634812135
-0.7127165629525224
0.7025324499447861
-0.03395797986061875
0.9038456783929281
-0.01875205505090293
-0.6813640641243123
0.6122971886033913
0.06906687549709496
0.5388824059929244
0.5380932539968608
-1.076975659933262
0.4910969749332599
0.5222861345484738
0.5455748232871779
0.4594209696773767
-1.004995793036529
0.4978476108970681
0.4952856814437207
0.6122971862527047
-0.5256633552426861
-0.4658989579982231
-0.5557778770583056
-0.518080092513686
-0.1237812160054583
-0.0125098436380756
0.01250984462209363
0.5104935840306818
0.5236096906865222
-1.041689783374757
0.5747285852719036
-0.2723520144736409
-0.884166760018829
0.34321868324353
-0.6327233504068418
0.3901524768885138
0.0004915431615958305
-0.8302458298641716
0.8297542865365234
0.4208752848904515
-0.02073039907184672
0.8722233250133462
-0.9432602095798294
-0.8353907961610545
0.05722989295970683
0.7781609030845174
0.55148714591325
-0.4362277229641613
-0.115259422542185
0.6499592193124667
-0.7290267437493875
0.883309232421215
-0.8303258162437203
-0.05298341612058537
-0.01092957916317461
-0.78983460825869
-0.110426133709089
0.7161325384594699
-0.6057064047394242
-0.938735973237032
0.927806395112769
-0.7364608102528135
0.6898729081460087
0.04658790205603525
-0.8028591061377995
0.03151031361531272
0.7713487926066842
0.06166379109602674
0.04086341974782703
0.4332031397101048
0.05995097654909587
-0.8498602143437372
0.7899092375892919
-0.6431360837557043
0.593550340585194
0.8908478094058754
0.07126888020364301
-0.962116689925221
0.05545701182650141
-0.04873025932343457
0.3801511792379953
-0.3813099561038912
0.06572184756516805
0.8414610711556059
-0.8409695254414116
-0.7314579229157191
-0.8077273803974143
0.01789277134911088
-0.1677937430015872
-0.8495078822489482
0.01918206555316095
0.6252030581804012
0.04290001575910829
0.01979336162243528
0.5316937791248663
-0.8108817479442294
0.8423920628732487
0.5657794552341374
-0.8509762264056348
-0.8674670941118938
0.03637858486906344
-0.03846588320883663
0.835912542011972
-0.7974466588214044
-0.01975359237808465
-0.7699238039377083
0.544326458962501
0.1519699564521788
-0.02503079857902278
0.8972541252124607
0.9850362851946987
0.8605875018762497
-0.8414054348574634
0.1473473664086263
-0.1473473691702033
-0.1182732831168454
-0.4735318314374934
0.0373041079003978
0.2714360289536749
0.03061862699253032
0.3847317651398341
0.8775005333361156
0.003716709181712737
-0.01377426208693159
0.6586162226222457
0.3413837774045032
0.7834973902526373
-0.5835772436438612
-0.7780303426499898
-0.81245886396656
-0.6799318696757252
0.6799318696428275
-0.1679060384030771
-0.1547187643643122
0.601508173487755
-0.8116664316015144
0.210158258107389
-0.4937947247457664
-0.5689241385124587
0.2781837652397746
-0.9720992498190699
-0.9000870572767781
0.8471036418582532
-0.819805539843848
0.837698313206188
0.6485558625608729
0.1345620916695724
-0.7831179542138331
-0.7658709617213781
-0.1460453742778406
0.724988201761801
-0.5789428273724624
0.02258652415225581
-0.01460144488993672
0.01757301546876422
-0.002971569164128818
-0.3540289554412971
-0.1195028762176992
0.879691939389629
0.737309607713681
-0.2392871640278206
-0.4980224431546271
0.6220501828761612
0.6853913885530802
-0.4707932331417778
-0.0006923796073571627
-0.2849898600005378
0.0209236432468954
0.7441955540843579
-0.7651191974005924
-0.3235433864828522
-0.07144275017326268
0.07556485291965206
-0.96319822553429
0.1267175084835623
-0.6771043385134369
0.05318465117094826
0.6409672263931576
-0.6941518774087644
-0.756939216574822
0.07983487799941778
0.5891475364011398
-0.6605902865310755
0.1559533390623077
-0.3358430396646974
-0.7720657170688933
0.006194755458035821
0.3712259128811375
0.601014498934257
-0.02645700821166277
0.02401811247766079
-0.02401811537882251
-0.01794149967096529
-0.05299900583406882
-0.22763569977946
0.01889644296581407
-0.01517970622483901
-0.7291657019647257
0.2794089351031452
0.678639503235188
-0.6905414970997227
0.01190199399139683
-0.5982991435419781
0.6514837908119658
0.6537795273728612
-0.06463199288326779
-0.6315797544119574
-0.125359465508877
-1.049572602611711
0.01123561338672033
0.1361117640762335
-0.7082420621048069
-0.7420058903317633
-0.7636478281398652
0.3655403660910003
-0.4104498949334253
0.470725371676624
-0.06027547722408182
-0.678473609496924
-0.02976845242308142
0.4998967028505611
0.7306796883074366
-0.2334835220595206
0.1097364686210172
0.9570034711336689
0.4457518268462169
0.133365495633702
-0.5791173224523138
-0.6783242041630053
-0.0001494126166001914
-0.0445112355017539
0.02990980807173853
0.6376446671633933
-0.7749608474124633
-0.002911755031660218
0.00291175345762152
-0.6000243741638743
0.6489250589590891
-0.04890068440837853
-0.6585308525744297
-0.1136886079445878
-0.6718172180829928
0.04949072097989734
0.6099413855429979
-0.1374103599166808
-0.8178625925029643
-0.5574073531137634
0.5701161192950767
-0.01270876313070685
0.6337355403896511
-0.6218335518809808
0.3222081063562883
0.2139337802829827
-0.5361418866926064
-0.1043612215880598
-0.6030402347650994
-0.09111164443796835
-0.1542725488508081
-0.5079166310012422
0.4043151641200112
-0.498775962464122
0.1260357849006654
0.6785871257659518
-0.8046229108344651
0.599161747167556
-0.3748388570511853
-0.03561103693039838
0.06133057046147018
-0.5692471993350215
0.5516960452567249
-0.0402953358019125
-0.5114007098363423
-0.3123101681451838
0.3049198842002744
0.007390286155471729
0.451367999594823
0.123360579254283
0.05073929265029634
-0.3158467683733209
0.1567824904344615
0.159064278310187
0.2526563922466196
-0.01977599793785311
-0.297521831190296
-0.3139869277577331
0.3667377233136733
-0.05275078885896267
0.7917691889620511
-0.6295438012015036
-0.02898705094245441
0.4995433466875098
0.2832561084669706
-0.5225432865423928
0.577452784869573
-0.5774527848708749
-0.2897863372820935
-0.5865159167432703
-0.2955138900146849
-0.5865159169298749
-0.5965763247438419
-0.8384899973270294
0.1700272395789971
-0.5922396861075682
0.8212322815119677
-0.003600987029320738
0.1197177739502575
0.4812967249887964
0.09669610240969677
0.1852623415184303
-0.03610979384979214
-0.1491525480192336
-0.02212357577870322
0.5923513211838902
-0.9440181633578955
0.4229280616691006
-0.0005210467804962365
-0.0001129313069827239
0.0006339774030525768
-0.643574826299498
-0.1319861885865831
-0.4653356281631709
0.598701121406749
-0.5037090180926596
-0.3147085402587322
-0.2545386456089982
-0.2721558389135915
-0.1119211926444521
0.111921194547518
0.1532208933061134
0.05761723108506542
0.1964979635887762
0.4509493800528883
-0.5710857764776974
0.1057501502777277
0.2503386057078164
0.4661424243383039
0.5338575761772977
0.6442896264200153
0.0801335806081908
0.002894154806404265
-0.08302773974693478
-0.2769060627938086
-0.5409565295110584
-0.5455228903104599
0.1142339704208262
-0.1261777999438103
0.01194383011128729
-0.1060058595133675
-0.385922053554731
-0.04599049095299301
0.6559318802190348
-0.499139978188874
-0.1444348481417137
-0.3324135730527439
0.2888961226919508
0.1250773067329784
-0.6038131391655189
-0.2040158245441872
-0.2619681221951172
0.0004290443881941977
-0.4212920965910876
0.321666857414607
0.09962523895938342
-0.08879917634191622
0.2916370560879334
-0.8959219755411807
-0.4578603051397481
0.6338083021518821
-0.7729775079928174
0.6686162864655604
0.3423368728240671
-0.1264919585573132
0.2256242534623844
-0.09913229555469311
0.02965022923719372
-0.5861882805308921
0.02914062568530419
0.5570476546536117
-0.9007069250959098
0.5469773577327259
-0.6652506410696477
-0.09691452047826747
0.1089257908668676
-0.1089257929025079
-0.316539157016618
0.3626513747304901
0.01749980146073279
0.0218480783124356
0.05828551835012525
0.5046163121645958
0.6649944638702364
-0.7407837946841809
0.02473880514656889
0.02181158133493638
0.002206525522314417
-0.006365376114670794
0.006365377593788187
-0.4122501674063837
0.535610748324596
0.01531245775299601
-0.01531245769901972
-0.7924280721581928
-0.05981711917365783
0.1214809026622981
-0.4507893148037634
0.5565394662495905
0.4492913000638533
-0.4981919867649094
0.1497998764911706
-0.1497998792460433
0.04379986797986597
-0.008883735927073661
-0.04087429349510784
-0.9772375531856684
0.5417930809678609
-0.4725256422131169
0.04086341645687296
0.5146920841014681
0.03075003961842853
-0.5454421238376729
-0.6159608634552388
0.1168208811747824
-0.3297272926378286
0.01352770605516051
0.316199584966864
-0.1536499375050847
-0.07983359491226166
-0.5407808242499392
-0.04540746067356258
0.1361117614991342
-0.04161415721871783
0.03870241224955574
0.08196749676627466
-0.08196749556653064
-0.535770812356146
0.4830200249683179
-0.4144704306318733
0.1613199268373771
0.6221774634407313
-0.09782060220713963
-0.006445107036798836
0.006445108559394137
0.5330029456726584
-0.07211936152060174
0.006398562166462746
0.02718596461289372
0.03449804215882891
0.6890106939507714
-0.7611300553182256
-0.6634585275136392
0.6344714742017735
-0.1098742706866833
0.3130301332847586
0.745926709400073
-0.01794149790916155
-0.2663850344786066
0.1479951342682327
-0.7446626404116919
0.4841553740247284
-0.4223323836856673
-0.1012687867412831
0.00354563016907324
-0.0147041784848005
0.02179059776227495
0.4123968776997481
-0.1216930119979904
-0.3897076941251308
0.629068485138503
0.01887523050859615
0.009686316415132078
-0.009686317606722269
-0.3573390597519868
-0.08482143599186782
-0.5606005293495909
0.5569995423271233
-0.238174966346875
0.4647957573430747
-0.1506651962694113
0.7290169849824019
0.6721861976901029
-0.04161415697208699
-0.6153283772728642
0.5598445485486974
0.2851738686096291
-0.2825448384276983
-0.002629034393637433
0.5456723056349381
0.09341595114406928
-0.03874295469104518
0.1971479925165908
-0.1584050376796313
0.120710462479846
-0.1207104600047294
-0.8587104765204494
0.002452507060383141
-0.1129221196370621
0.1401080832987267
-0.1319413188046129
0.1319413212740718
0.02181158847007774
-0.02438661213306569
0.6712889443593846
0.05920703719105914
-0.3231237502650346
-0.06279830399845064
-0.4712772643298315
-0.04723969505726088
-0.151745055271446
0.1517450583405701
-0.03922787071739968
0.1432561202474757
-0.1432561231594568
0.1369054941104741
-0.1369054914831306
-0.3157274311118622
-0.1144896624911782
0.2265572584001241
0.1030805207528297
0.03484440120898394
-0.8211772451629918
-0.1972274800882677
0.1702863886340516
0.02082603859665256
-0.2653387588432468
0.1257970181581846
-0.1257970207336989
-0.4141145075160418
-0.08466145641698031
0.2364684484868321
0.002304912768149127
0.04035334121815743
-0.5437694106545705
0.5777273905339083
-0.02357659380898636
-0.01565128034834566
-0.02709077732173378
0.01820704972291124
0.006543760617874923
-0.1842439968144401
0.177700235789653
-0.1075675915277551
-0.228275448683969
-0.1448051195918015
0.1448051225690451
0.07284326809162418
-0.07284326643892997
-0.01937178935818317
-0.1086920828484102
0.1280638709445489
0.2389142317060058
-0.1828685588682133
-0.02176721982521175
0.02397373617561726
-0.1345052992136655
0.617525321814696
-0.03907792142197724
0.422034157275727
-0.04103856259486455
0.06205095076919526
-0.1535819812741506
0.1535819844439388
-0.6361100225830576
0.3088591169109403
-0.07918376899181805
-0.2346945764734914
0.003629433644766164
-0.1228002843790806
0.1631536261384344
0.1939196395875342
0.09765304686866465
0.09463459554549575
-0.06013655245334358
0.07266498784967421
0.04156898128800388
0.06389919615892868
0.1063871857363443
-0.09712609697522122
0.2068625566044935
0.01259804637085739
-0.112305827533267
-0.1027237522620752
0.09760227913111716
0.005121470287041808
0.01212528567243516
-0.02216333229258695
0.03773323249502245
-0.03773323221075072
0.0743477010188896
-0.05487232750504095
0.05487232795185347
-0.2245274778761268
-0.05025487570686708
0.01160552255448874
-0.103170030339461
0.01619503994422679
0.1083851342220484
-0.108385135774217
0.2935448760943576
-0.2713948556532142
0.1638272631639969
-0.05035907483562725
-0.2210357866077516
-0.01739687672177967
0.01739687585117299
0.3672842523757221
0.285251598316355
-0.527443073556685
-0.09397638168150579
-0.03220141656438076
0.5286041728908857
0.2118234382660735
-0.1687319827364576
-0.3822262815272757
0.07656964114783636
-0.1477455439076697
0.1873479254022567
-0.03960238055543802
-0.06681616446115532
0.06681616323608459
0.8224963505312408
-0.5605451700079409
-0.002041047648384828
0.01416633054965611
-0.0200201356546476
-0.2867049430983392
-0.01745911779729751
-0.01286378602774732
-0.1318024673703423
-0.5720620236910603
0.5559387196089305
-0.5687429795350224
-0.006939947985522835
0.1005091307554499
-0.001836918014632604
0.01667648134117743
-0.1677656786655067
-0.336625987787663
0.2334559569901834
-0.05448184332535486
0.03511005074001574
0.1319042497229516
0.1730156290037515
0.3374920719323328
0.2766890218428193
-0.2785259411731992
-0.0640213254354647
-0.1548007003279386
-0.2211668623131709
0.07481821511473027
-0.01091902214860842
0.2141817243670257
-0.1975052436941507
-0.08623649657670691
0.1589014857346597
-0.3548092000518752
0.2087641005907392
-0.1925690602296274
0.08966779244826191
-0.4793754877530483
0.1744841423709055
0.1699699697890648
-0.2562064731810229
0.07247126455291598
-0.1943128375107039
0.1768537201719236
0.01741188731081455
0.1414896015434649
-0.03955987679461795
0.06628399281021519
0.4667189533043665
0.02033636328925718
-0.07657561035971973
0.05689226132677865
0.1254039055865133
-0.2607692302128696
-0.2309166283745444
0.5596981225434469
0.1576887106907748
0.07877973283688762
0.075737785474685
-0.0310001903457615
-0.002442847416637587
-0.0001862058783970193
-0.03270934395709956
0.1711736294858008
-0.1781135781764733
-0.05478501526157297
0.02193271572783146
-0.1467000363197831
-0.05282324815309877
0.1520775615706066
0.277088974770452
-0.03988940811035097
0.01576419099834844
-0.2554590103569113
-0.1300884806678906
0.2356918051203696
0.1792405995797041
0.129618513021875
0.02161265170734529
0.08898594251252578
0.05198650868857195
0.4526298034041502
0.01771949675976643
0.09714220411169805
0.04362837688666638
0.07176129559164286
-0.1153896703000171
-0.2421914753043059
-0.2008532519336146
-0.02018254227972804
-0.2022865110631765
0.2756415545064511
)
;

boundaryField
{
    FrontBack
    {
        type            empty;
    }
    Top
    {
        type            calculated;
        value           uniform 0;
    }
    In
    {
        type            calculated;
        value           uniform -1;
    }
    Bottom
    {
        type            calculated;
        value           uniform 0;
    }
    Out
    {
        type            calculated;
        value           nonuniform List<scalar> 10(1.036671797561524 1.064545761246561 1.021676835044105 1.020133745367038 0.9975142225828282 1.01336577395569 1.034103273659769 1.06271886316955 0.8672391212935052 0.8820298068299333);
    }
    circle
    {
        type            calculated;
        value           uniform 0;
    }
}


// ************************************************************************* //
