/*--------------------------------*- C++ -*----------------------------------*\
| =========                 |                                                 |
| \\      /  F ield         | OpenFOAM: The Open Source CFD Toolbox           |
|  \\    /   O peration     | Version:  2412                                  |
|   \\  /    A nd           | Website:  www.openfoam.com                      |
|    \\/     M anipulation  |                                                 |
\*---------------------------------------------------------------------------*/
FoamFile
{
    version     2.0;
    format      ascii;
    arch        "LSB;label=32;scalar=64";
    class       volScalarField;
    location    "36";
    object      p;
}
// * * * * * * * * * * * * * * * * * * * * * * * * * * * * * * * * * * * * * //

dimensions      [0 2 -2 0 0 0 0];

internalField   nonuniform List<scalar> 
808
(
0.130818
0.027558
-0.0138404
0.130291
-0.214645
0.0272001
0.022974
0.0267937
-0.104936
-0.0012549
0.00744197
-0.124508
0.0240292
0.022641
-0.326575
0.0214426
-0.357734
0.0265059
0.0225706
0.027446
0.0195428
0.381877
0.0746907
0.0131804
0.460862
-0.187157
-0.0432867
0.0107204
0.0331348
0.0228593
0.0248694
0.0362478
0.0247313
0.0223114
-0.0510008
0.633972
0.0237675
0.0271144
0.0297618
0.0177731
-0.0235584
-0.0429388
0.0401391
0.0236349
-0.208823
0.091347
0.0291407
0.02252
0.0235773
-0.140607
0.0247922
0.033434
0.0483134
0.0189362
-0.0855237
0.0210825
0.00771201
0.013944
-0.000316053
0.0212289
-0.330474
0.0166775
0.0361917
-0.12794
0.0206892
0.0501989
-0.214358
0.019733
0.0208884
-0.268063
0.0281588
-0.305601
0.0277392
0.0293035
0.19541
0.0248147
0.0139236
-0.076059
0.0198156
0.315373
-0.129621
0.0238514
0.0410196
0.282824
0.0306787
-0.00645039
-0.345997
-0.106843
0.0416134
-0.223524
0.0542654
-0.0789147
0.257931
0.160572
0.0427541
-0.146053
0.0141829
-0.140729
-0.0799708
-0.149892
0.0239605
0.0206322
0.0538209
0.000286718
-0.0427796
0.0618438
-0.245594
0.00914098
0.0236621
0.0422025
-0.0426189
0.334288
0.0284197
0.0391483
0.0218981
0.457938
0.029437
-0.251402
0.0242562
0.070678
-0.206469
0.042642
0.02715
0.0718072
0.113463
-0.0514096
0.119606
0.0309268
0.0478904
0.0702288
-0.212488
0.0242289
-0.0191512
0.125216
0.0283207
0.0247954
0.0835968
0.0234332
0.0330653
0.0271901
-0.292334
0.0605035
0.0117297
0.027056
-0.0328948
0.101092
0.108587
0.167785
0.0113121
0.0497512
0.0267071
0.346417
0.0450298
0.541142
-0.297484
-0.103353
0.0250988
-0.241777
0.0580207
-0.122895
-0.293557
-0.291023
-0.253775
0.0335736
0.0643406
0.0255726
0.0368885
-0.26226
0.0245072
0.0241468
0.0537162
0.160968
0.0763032
0.133217
0.0296424
0.0833121
0.0730814
-0.12243
0.031667
-0.335816
0.0234544
-0.145626
0.0324942
0.272621
-0.405278
0.119935
0.0256074
-0.0982381
0.0304153
-0.0601715
-0.293403
-0.0346196
0.0254915
0.0949202
0.0330845
-0.284937
0.0253146
0.0275166
-0.000605207
0.0818533
0.0797229
0.0250587
0.0251027
-0.316665
0.379848
-0.27033
-0.288283
0.010145
-0.0299819
0.028185
-0.0167053
-0.389827
-0.163805
0.0274413
-0.0478849
0.027712
-0.314124
-0.0398101
-0.0333683
0.040399
-0.0267915
-0.0887707
0.0313302
0.0294103
0.0081758
0.0274861
0.127756
-0.179347
0.0228541
0.0274873
0.119829
0.027289
0.0287883
0.0218678
-0.120919
-0.0202811
0.00701352
-0.0031038
-0.0332278
0.0117991
-0.00870604
-0.00919108
-0.0152819
0.00402243
-0.000334159
0.00761874
-0.00561164
-0.00259186
-0.000882961
0.100257
-0.29866
0.0133635
0.0357262
-0.0514901
0.020951
0.0156926
0.0370234
0.00145563
0.0281865
0.127979
0.0662152
-0.00093587
0.012153
-0.0161205
0.0167051
0.0279855
0.0290763
0.0600543
0.017406
0.0042135
-0.0480682
-0.389728
0.278115
0.0305725
-0.0148376
0.019933
0.0141784
0.0199281
-0.100431
0.285903
0.0375348
-0.0494291
-0.0256426
0.0986844
-0.135805
0.0350938
0.0465608
0.0172268
0.0223378
0.0617796
0.032063
0.0350132
0.00229953
-0.00147476
0.0308977
0.0290303
-0.0289458
0.0592874
0.0772044
0.0434735
0.00818158
0.0295443
-0.0267216
0.018141
-0.482772
-0.0986265
0.000916789
-0.0925594
-0.138913
-0.396524
0.0794165
0.0298026
-0.289563
0.140137
0.168157
0.028305
0.0302754
0.040399
0.0061109
-0.203423
0.0518063
0.0051094
0.0324261
0.0354827
0.0135437
0.0418613
0.00486732
0.0169594
0.0315055
-0.283523
-0.187632
0.0183234
-0.103191
-0.0201104
0.0180573
0.234876
0.0651801
-0.117959
0.554902
-0.030273
0.00897542
0.033637
-0.031886
-0.050115
-0.0117216
0.0389583
0.0317702
0.0540483
-0.0396885
-0.25588
-0.00123782
0.107802
-0.0311582
-0.282031
-0.290892
-0.209811
-0.286673
-0.0505166
0.0330726
0.0414496
0.0482977
-0.00881383
0.0131244
0.0458761
0.0128798
-0.47947
-0.0738393
0.0431775
0.0124686
-0.0647229
-0.041807
0.020683
0.124989
-0.319395
-0.0135399
-0.0296917
-0.0137316
0.00772616
-0.28316
0.0184553
-0.304815
0.0086026
0.00449668
0.0134636
0.0216894
0.0259046
0.00996983
-0.330862
0.0170619
0.0378168
0.00847856
0.0649174
0.00908587
0.0317964
0.023367
0.00194431
0.0713959
0.051311
0.0117274
0.0253973
-0.0803295
-0.166199
0.063507
0.00867429
-0.0593641
0.00271206
0.434564
-0.196758
-0.0100657
-0.0647273
0.0166936
0.0291548
0.0322989
0.103062
0.0125164
-0.0941722
-0.0304108
0.0210598
-0.00322857
-0.00573765
-0.00998984
-0.00975989
0.0169835
0.127511
0.0393161
0.0133961
0.0207914
0.0204816
-0.0406871
0.0330906
-0.352726
0.0592346
0.0680513
-0.0141841
-0.2168
-0.27723
0.00337283
-0.0660235
-0.0665658
0.036959
-0.239588
-0.192432
0.216268
-0.308674
-0.430142
-0.110759
-0.182829
-0.0859886
-0.186186
0.35915
0.012891
-0.291757
0.0177868
-0.0105259
0.590548
0.0181532
0.0303692
0.0464995
0.0518977
0.00232323
-0.40866
-0.29522
0.0602368
0.0769827
0.0587615
-0.240541
-0.283279
-0.247099
0.027661
0.0520115
0.0962198
0.00319305
0.0349511
0.0819117
0.107257
0.0319815
-0.103017
-0.286899
0.0563741
-0.070268
0.0285063
0.0105174
0.0924462
-0.0510343
0.010619
-0.449107
0.460368
-0.0979401
-0.285626
-0.00458013
-0.0276347
-0.290095
-0.285116
0.133045
-0.318624
-0.109827
0.875268
0.0216756
-0.348736
0.0177247
-0.133081
-0.0228558
-0.425485
-0.321576
-0.282262
0.0280139
-0.0862201
-0.350654
-0.00694374
-0.016336
0.101297
-0.29655
0.0315508
-0.479769
-0.317052
-0.377254
-0.20585
-0.0493602
0.00995235
0.109508
0.139298
-0.0226639
-0.277732
0.317275
0.0621139
0.0151298
-0.424723
-0.478376
-0.316423
-0.0149608
-0.337831
0.0463033
0.123383
0.109475
-0.0808985
-0.203981
0.00654563
-0.283671
-0.292811
0.00456572
0.0120588
-0.261138
-0.00414838
0.0364955
-0.363482
-0.293177
-0.0424054
0.103979
0.0366205
-0.310309
-0.296878
-0.0624808
-0.190571
0.0412657
0.103371
0.0145122
-0.124502
-0.285352
0.104119
0.0400078
-0.130872
0.0233918
0.058746
-0.322027
-0.00436428
-0.233891
0.0671849
-0.470598
0.0261105
-0.000161338
-0.355718
-0.449127
0.0054065
-0.442946
-0.442184
0.0306208
-0.0834629
-0.289401
0.0343248
-0.277285
0.0223332
0.0813782
0.0797706
-0.476807
0.0785645
0.0157904
-0.456409
0.00289726
-0.30483
0.0270554
-0.2823
-0.506126
0.11223
0.274523
0.45051
-0.0249347
0.00255226
-0.000241421
-0.331713
0.652862
0.0250841
-0.223466
0.0364648
-0.0391683
0.0946701
0.489105
-0.359896
-0.0355349
-0.0395185
0.0274888
0.0230864
-0.445307
-0.277929
-0.280574
-0.373372
-0.248903
0.0123248
-0.328098
0.00616692
-0.264446
-0.3207
0.505756
0.590102
-0.330139
0.126526
-0.286687
-0.00096481
-0.216737
0.399844
-0.130404
-0.305761
-0.202283
-0.508657
-0.022132
-0.194439
-0.0219316
-0.300193
-0.268716
0.00187368
0.00195125
-0.314936
0.468388
0.681839
-0.287772
-0.30145
-0.309946
-0.0566091
-0.293222
-0.293928
-0.20222
-0.30574
0.75391
-0.328988
0.762823
-0.393887
0.339902
-0.290331
0.00778387
0.178678
-0.495757
0.249433
-0.280033
-0.3041
-0.33281
0.877865
-0.284187
0.222694
0.161533
0.658908
0.138442
-0.415336
-0.27958
-0.0691475
0.00972378
0.0816622
0.545047
0.015367
-0.0195453
-0.291707
0.10905
-0.105781
-0.154216
0.0165226
-0.456722
-0.13072
-0.165265
-0.358202
0.0119249
0.119242
0.0073875
0.0802772
0.121216
-0.321649
-0.362986
-0.0685278
0.0142928
-0.46701
-0.510977
0.170792
0.1991
0.105081
0.67013
-0.0642643
-0.419156
-0.384311
-0.286383
-0.0443364
0.0833389
0.76912
-0.44933
0.393888
0.00465588
-0.4214
0.159997
-0.0818785
0.399603
-0.158583
0.0210491
-0.326335
-0.0552607
0.215948
0.829927
0.344902
0.76344
-0.281575
-0.281447
-0.403326
0.166955
0.275982
0.0667407
0.383292
0.16111
0.507311
0.277402
-0.103359
-0.170532
0.0381662
-0.427431
0.893762
0.421155
0.647741
0.521536
-0.271045
-0.288215
-0.289644
-0.2856
0.0528153
-0.38153
0.122145
0.601536
-0.311435
0.0183787
-0.282147
0.191814
-0.313103
-0.359797
-0.0728995
-0.27606
-0.368525
-0.313435
-0.333905
-0.0491174
-0.4063
-0.112286
-0.352559
0.151375
0.675276
-0.218409
-0.313557
0.831071
-0.312678
0.300461
-0.231371
0.412502
0.104933
-0.242419
-0.39299
0.44121
-0.254812
-0.320123
0.204613
-0.277262
0.00118933
-0.28976
-0.122627
0.00615599
0.583781
0.791318
-0.290931
0.23887
-0.3575
0.830954
0.00770711
-0.308278
-0.002895
0.77849
0.214716
-0.316619
-0.289228
0.469034
-0.207756
0.0401834
0.349715
0.262254
0.307246
-0.249316
-0.341464
0.698547
)
;

boundaryField
{
    FrontBack
    {
        type            empty;
    }
    Top
    {
        type            zeroGradient;
    }
    In
    {
        type            zeroGradient;
    }
    Bottom
    {
        type            zeroGradient;
    }
    Out
    {
        type            fixedValue;
        value           uniform 0;
    }
    circle
    {
        type            zeroGradient;
    }
}


// ************************************************************************* //
