/*--------------------------------*- C++ -*----------------------------------*\
| =========                 |                                                 |
| \\      /  F ield         | OpenFOAM: The Open Source CFD Toolbox           |
|  \\    /   O peration     | Version:  2412                                  |
|   \\  /    A nd           | Website:  www.openfoam.com                      |
|    \\/     M anipulation  |                                                 |
\*---------------------------------------------------------------------------*/
FoamFile
{
    version     2.0;
    format      ascii;
    arch        "LSB;label=32;scalar=64";
    class       surfaceScalarField;
    location    "36";
    object      phi;
}
// * * * * * * * * * * * * * * * * * * * * * * * * * * * * * * * * * * * * * //

dimensions      [0 3 -1 0 0 0 0];

oriented        oriented;

internalField   nonuniform List<scalar> 
1171
(
-0.945554
0.945554
0.77171
-1.07159
0.299884
-0.20204
-0.835567
1.03761
0.0544459
-0.0704317
-0.272395
0.342826
-0.77171
0.0757228
0.695988
0.903983
-0.190756
-0.713227
0.828406
-1.03881
0.2104
-0.348036
-0.0412616
0.389298
-0.00175412
0.596178
-0.594424
-0.634731
1.0681
-0.433364
-0.418468
0.99759
-0.169185
0.277608
0.0885604
-0.366168
0.986083
0.0115071
0.350296
-0.0726885
1.0076
-0.0215178
0.759942
-0.961983
-0.784963
0.61329
0.171673
0.245378
-0.880109
0.559953
-0.91549
0.355537
-1.07909
0.66694
0.412151
-0.641182
0.639427
0.0366558
-0.257578
0.220922
0.0117098
-0.650988
0.639278
0.461009
-0.50227
-0.856978
0.913495
-0.0565167
1.02108
-0.0134805
0.931256
-1.08971
0.158455
1.04554
-0.0244582
-0.695897
-0.089066
1.27287
-0.872071
-0.400799
0.188562
-0.0722959
-0.404026
0.476322
-0.275659
0.182216
0.093443
-0.595409
-0.476185
0.989884
-0.0586275
-0.0204623
0.864601
-0.844138
0.503187
0.769683
0.523882
0.0204147
0.440594
-0.781397
-0.110493
0.891891
0.609931
0.242475
-0.852406
-0.0331397
0.682251
-0.649111
-0.507824
-0.571267
-0.391442
-0.69827
0.0223579
0.246209
-0.268567
-0.94665
-0.0357142
0.982364
0.364986
0.0243118
0.859976
0.0440074
-0.599759
-0.0414226
0.0430295
-0.824427
0.150765
0.967525
-1.11829
-0.408042
0.0233377
0.384704
-0.717704
-0.228946
-0.799569
0.950334
0.646626
0.42147
-0.574009
1.00038
-0.821186
-0.179193
0.0208498
-0.0997529
0.078903
-0.453111
-0.0491587
-0.340033
0.986659
-0.00467114
0.421238
-0.416567
-0.524079
1.13401
0.705193
-0.815687
0.373747
-0.0574824
-0.316264
0.77513
-0.77513
-0.957443
0.0441831
-0.316578
-0.69283
0.672368
-0.0385376
-0.144514
0.183052
0.878933
-0.014332
1.0601
-0.817627
0.219181
-0.316908
0.0977274
0.97257
-0.112595
-0.674537
-0.0585329
0.73307
0.151606
-0.234871
0.0832642
0.804931
-0.995688
-0.445732
0.312028
0.133704
0.667095
-0.655386
0.890304
-0.403405
-0.486899
0.498862
-0.695085
0.0380409
0.657044
0.120165
0.671122
0.0381307
-0.709253
0.13915
-0.0949673
-0.516978
0.108936
0.0371317
-0.90496
0.867828
-0.562427
-0.758026
0.0621294
0.491762
-0.0511676
0.273849
-0.832269
0.558419
0.424251
0.575749
0.600009
-0.556979
-0.369076
-0.00480787
0.373883
0.54468
0.230449
-0.69213
0.65899
0.0877352
0.880654
0.00704102
-0.681578
-0.765053
0.802185
0.612589
0.132487
0.324267
-0.456754
-0.157486
0.54201
0.140241
0.714787
-0.897011
0.182224
0.658667
0.341712
-0.430754
0.717893
-0.585406
0.409076
0.150876
-0.0590368
-0.590735
-0.254468
0.845203
-0.117812
-0.657317
-0.614336
0.366435
0.247901
0.662182
-0.65514
0.304289
1.04917
0.0109343
-0.765053
-0.0718866
0.0927364
0.705193
0.787581
-0.787581
0.842831
-0.828973
-0.0138579
-0.45556
0.879811
-0.195187
-0.321791
0.761219
-0.669072
-0.0921478
-0.907606
0.316871
0.109011
-0.70877
0.815687
-0.973173
-0.190427
0.146388
0.0440384
0.108971
-1.00053
0.891558
0.536664
-0.0127816
-0.29188
0.597533
-0.305653
-0.657354
0.766325
-0.159004
0.739053
-0.673697
-0.0653558
1.06837
-0.575832
-0.492541
0.728545
-0.0682875
-0.0297089
0.027625
0.00208396
-0.799449
-0.712783
-0.122784
-0.69283
0.57853
-0.555192
0.154578
0.581819
-0.736397
0.778911
0.166643
0.492808
0.507192
-0.11607
-0.625953
0.742023
0.793863
-0.0790763
-0.728545
0.802185
0.179073
-0.436651
0.00406206
-0.0268217
0.0227596
0.68114
-0.443383
-0.237757
0.695988
-0.00983319
0.0262698
0.557349
0.123791
-0.00433519
0.00365906
0.000676132
-0.000586807
-0.0291221
0.151896
-0.209379
-0.946586
0.048638
-0.1444
-0.0385304
0.138226
0.793976
0.74348
-0.167731
0.434016
-0.279439
-0.165323
0.384504
0.64642
0.0495674
0.230236
-1.05921
-0.973173
0.313818
0.672368
-0.164606
0.0200918
-0.842614
0.990319
-0.147705
0.489298
-0.104594
0.799541
0.304915
0.337408
0.0128884
-0.68057
0.68057
0.230363
0.661528
-0.015379
0.436617
0.460943
0.0527264
-0.0486644
0.547276
-0.0106119
-0.657354
0.569213
0.192007
0.0134353
0.0141897
-0.64642
0.147247
0.843072
0.00693305
-0.716683
0.70975
0.758968
-0.823587
0.0646193
-0.778911
-0.041815
0.0557779
-0.0139628
0.0845101
-0.124896
-0.108393
0.233289
-0.00996676
0.00563157
0.732314
-0.725381
0.936127
0.10148
-0.352235
-0.630463
0.982698
0.000373425
-0.000373425
0.14158
0.431547
0.58654
-1.01809
-0.185469
-0.563609
0.749078
-0.0150964
0.198148
0.387147
-0.23554
1.13793
-0.706387
0.838954
0.955183
-0.368643
0.19196
0.766325
0.597141
0.259196
0.654299
-0.657317
0.31943
0.0277433
0.0019067
-0.02965
0.843776
0.204306
-1.04808
-0.575623
0.551165
0.54444
-0.575623
-0.597141
0.551165
-0.0250343
1.0961
-0.159975
-0.54468
0.465384
0.0792964
0.517962
0.708759
-1.22672
0.40476
0.733174
0.777977
0.448669
-1.22665
0.336781
0.618402
0.465384
-0.53175
-0.586367
-0.630336
-0.320592
-0.0918781
-0.00408083
0.00408083
0.482006
0.599873
-0.920465
0.69833
-0.374062
-0.984115
0.408283
-0.693822
0.464877
-0.0170026
-0.864964
0.881967
0.451601
-0.0938581
0.937634
-1.1518
-0.97907
0.12715
0.85192
0.545092
-0.22039
-0.324702
0.795214
-0.853842
1.10439
-0.874162
-0.230225
-0.173693
-0.723317
-0.153837
0.775541
-0.621705
-1.1134
0.939712
-0.426028
0.672859
-0.246831
-0.830004
0.0736069
0.756397
0.00484078
-0.00446736
0.424726
0.0474182
-0.977147
0.929728
-0.765328
0.649258
0.970713
0.233278
-1.20399
-0.00835687
0.000159622
0.373724
-0.358448
0.04154
0.900832
-0.917835
-0.728524
-0.972372
0.249055
-0.083943
-0.95245
0.0782879
0.491383
-0.057367
0.324377
0.220715
-0.591093
0.6647
0.486899
-0.958822
-0.880127
0.215975
0.17845
0.506739
-0.685188
-0.0704831
-0.550075
0.580953
0.178015
0.0843549
0.853279
1.06686
0.990627
-0.912339
0.0476897
-0.0476897
-0.0980367
-0.381681
0.161291
0.328832
-0.0150131
0.327575
0.782796
-0.0185855
0.00861879
0.657686
0.342314
0.797723
-0.595409
-0.768059
-0.480882
-0.494648
0.494648
-0.204996
-0.111582
0.719944
-0.926994
0.20705
-0.510261
-0.547589
0.343506
-1.04178
-0.93507
0.704846
-0.512426
0.761481
0.696103
0.150065
-0.846168
-0.727713
-0.170879
0.817914
-0.647035
0.152274
-0.0146501
0.00425895
0.0103912
-0.173291
-0.20839
1.06345
0.789931
-0.449637
-0.340294
0.465229
0.738555
-0.508193
0.00966268
-0.285321
0.0730601
0.785625
-0.858685
-0.345673
-0.106338
0.135147
-1.03231
-0.0157692
-0.776929
0.0447252
0.737691
-0.782416
-0.821929
0.0449994
0.666262
-0.7726
0.239051
-0.363947
-0.552931
-0.174782
0.371987
0.730855
-0.0129615
0.00745188
-0.00745188
-0.000421769
0.0640599
-0.0363166
-0.0179375
-0.00064803
-0.610298
0.315324
0.837278
-0.781698
-0.0555804
-0.664039
0.708764
0.749848
-0.0835855
-0.672764
-0.149165
-1.1406
0.0204241
0.0272656
-0.537238
-0.826601
-0.903957
0.503158
-0.112827
0.0749932
0.0378339
-0.326761
-0.210478
0.425221
0.712132
-0.0472913
0.00876093
1.20709
0.523454
0.207924
-0.731378
-0.468389
0.141629
-0.0126333
-0.00201687
0.663405
-0.917872
0.00572434
-0.00572434
-0.739577
0.712266
0.0273105
-0.144012
-0.108743
-0.695804
0.164066
0.577957
-0.0569115
-0.866683
-0.207584
0.0460293
0.161555
0.685254
-0.740834
0.352111
0.263615
-0.615726
-0.163196
-0.677728
-0.104688
-0.216123
-0.0435185
0.464999
-0.514157
0.205606
0.71931
-0.924916
0.498862
-0.0831029
-0.0297243
0.359609
-0.403127
0.599192
-0.0950229
-0.504169
-0.283857
0.302995
-0.0191378
0.624583
0.0737463
0.0721194
-0.309056
0.166103
0.142953
-0.235932
0.164046
-0.276311
-0.123676
0.0117362
0.11194
0.823185
-0.249859
0.105847
0.550361
0.25815
-0.707786
0.419434
-0.419434
-0.208112
-0.398845
-0.218352
-0.398845
-0.700833
-0.849506
0.180435
-0.0885681
0.733636
0.0439995
0.124707
0.606148
0.109785
0.120765
0.00786382
-0.128628
-0.0425388
0.683663
-0.974918
0.344455
-0.0649188
0.0983759
-0.0334571
-0.730621
-0.172259
-0.623624
0.831548
-0.530844
-0.0880746
-0.315052
-0.331277
-0.0821852
0.0821852
0.0485017
0.00727619
0.141189
0.239039
-0.74929
0.125666
-0.0630121
0.470175
0.529825
0.721378
0.0410542
-0.0175907
-0.0234636
-0.295127
-0.571556
-0.613307
0.111819
-0.117262
0.00544247
-0.132195
-0.416814
-0.0573388
0.635296
-0.563621
-0.166999
-0.187827
0.0661618
0.223498
-0.489916
-0.197132
-0.195471
-0.0139073
-0.490592
0.438636
0.0519558
-0.194855
0.292603
-0.86387
-0.53758
0.592757
-0.857536
0.69434
0.436777
-0.0304438
0.0560013
-0.0255575
-0.0320703
-0.637294
0.00465863
0.632635
-0.892566
0.636805
-0.734842
-0.270073
0.00875484
-0.00875484
-0.299393
0.402551
-0.0288274
0.0370398
0.00401447
0.599627
0.673632
-0.491409
0.0102181
0.00805411
-0.000602231
0.0046447
-0.0046447
-0.496676
0.570423
0.0127561
-0.0127561
-0.771313
-0.0108384
0.0156792
-0.564839
0.690505
0.649456
-0.622146
0.0700778
-0.0700778
-0.0563016
0.00763719
0.00267687
-0.987785
0.495244
-0.458843
-0.00446736
0.590163
0.0203657
-0.610528
-0.704085
0.140464
-0.318409
-0.0143632
0.332772
-0.0345944
-0.0126969
-0.604107
-0.0331871
0.0272656
0.00572649
-2.15408e-06
-0.00363261
0.00363261
-0.244623
0.356563
-0.46004
0.137755
0.659968
-0.12523
-0.00319292
0.00319292
0.508216
-0.269201
0.00838141
0.0185107
0.000177339
0.512899
-0.7821
-0.560687
0.666534
-0.0562913
0.328601
0.761326
-0.000421769
-0.0955153
0.109705
-0.637387
0.553876
-0.398995
-0.113923
-0.0231538
-0.0254556
-0.0355282
0.450331
-0.0879618
-0.416207
0.680008
-0.000563864
0.0067408
-0.0067408
-0.11193
-0.00558366
-0.57419
0.61819
-0.138837
0.509571
-0.209608
0.969551
0.728663
0.00572649
-0.860808
0.754933
0.119007
-0.0892355
-0.0297717
0.471678
0.0958029
-0.0122131
0.0671605
-0.0549474
0.0085805
-0.0085805
-0.7557
0.0223881
-0.0462214
0.0647322
-0.0877211
0.0877211
0.00805411
-0.00361469
0.707435
0.135637
-0.319582
-0.0972323
-0.516763
-0.0688202
-0.0675245
0.0675245
-0.0797651
0.0814885
-0.0814885
0.026637
-0.026637
-0.352071
-0.0786826
0.243003
0.0690254
0.0459502
-0.750102
-0.0677499
0.162964
0.0161095
-0.251541
0.0808209
-0.0808209
-0.463101
-0.0510569
0.234477
-0.0135557
0.00209388
-0.632136
0.657171
-0.0409517
-0.0388134
0.0828739
-0.0752367
-0.0114107
-0.156871
0.168281
-0.152688
-0.211259
-0.0824577
0.0824577
0.0563194
-0.0563194
-0.0308755
-0.0948477
0.125723
-0.00652676
-0.186129
-0.0206093
0.020007
-0.192122
0.548684
-0.0258658
0.498384
0.00518421
-0.00450808
-0.0515377
0.0515377
-0.730183
0.321862
-0.129902
-0.211025
-0.0238459
-0.0167269
0.0188208
0.204508
0.0287814
0.00189366
-0.00171632
0.0819713
0.0298478
0.0545605
0.108403
0.00406279
0.00469814
0.00101646
0.00341476
0.00673884
0.00864863
-0.0153875
0.00131331
0.00462035
0.0290592
-0.0290592
0.0504336
-0.0410908
0.0410908
-0.192345
-0.00109332
0.0221067
-0.0754064
0.0180565
0.0763811
-0.0763811
0.256463
-0.241091
0.0884031
-0.0682983
-0.172793
-0.0175224
0.0175224
0.404028
0.253016
-0.517394
-0.0814343
-0.0358272
0.541783
0.0763471
-0.0667339
-0.430354
0.0962494
-0.155955
0.172436
-0.0164812
-0.0465333
0.0465333
0.857576
-0.595036
-0.0136445
0.0149578
-0.00553583
-0.28384
-0.00066755
0.00526336
-0.047658
-0.622115
0.56782
-0.676163
0.0149332
0.209403
0.0159868
0.0249007
-0.161491
-0.336069
0.260663
-0.0581358
0.0272602
0.167904
0.135091
0.258755
0.268038
-0.252051
0.00673669
-0.115937
-0.225388
0.0696725
-0.015112
0.163037
-0.138136
-0.0692053
0.151177
-0.412548
0.123246
-0.105189
0.0589193
-0.475127
0.1777
0.174529
-0.243734
0.00651401
-0.176676
0.176009
0.00443989
0.146737
-0.0283347
0.0514924
0.456723
0.0115368
0.0231082
-0.0107326
0.0392766
-0.241869
-0.202365
0.590166
0.172844
0.0616338
0.0811136
-0.0620411
0.0156742
-0.0454459
-0.0302785
0.168787
-0.153854
-0.01242
0.00636251
-0.10624
-0.0299394
-0.00772183
0.252766
0.00642297
-0.0595625
-0.315853
-0.0137902
0.216069
0.14191
0.179952
0.0578478
0.0998574
0.0618495
0.537778
-0.014371
0.100781
0.0453905
0.0641619
-0.109552
-0.264378
-0.199757
0.0269645
-0.22236
0.288888
)
;

boundaryField
{
    FrontBack
    {
        type            empty;
    }
    Top
    {
        type            calculated;
        value           uniform 0;
    }
    In
    {
        type            calculated;
        value           uniform -1;
    }
    Bottom
    {
        type            calculated;
        value           uniform 0;
    }
    Out
    {
        type            calculated;
        value           nonuniform List<scalar> 10(1.18274 1.04971 1.2167 1.06996 1.15743 0.938994 1.08188 1.05785 0.627546 0.617197);
    }
    circle
    {
        type            calculated;
        value           uniform 0;
    }
}


// ************************************************************************* //
