/*--------------------------------*- C++ -*----------------------------------*\
| =========                 |                                                 |
| \\      /  F ield         | OpenFOAM: The Open Source CFD Toolbox           |
|  \\    /   O peration     | Version:  2412                                  |
|   \\  /    A nd           | Website:  www.openfoam.com                      |
|    \\/     M anipulation  |                                                 |
\*---------------------------------------------------------------------------*/
FoamFile
{
    version     2.0;
    format      ascii;
    arch        "LSB;label=32;scalar=64";
    class       volVectorField;
    location    "36";
    object      U;
}
// * * * * * * * * * * * * * * * * * * * * * * * * * * * * * * * * * * * * * //

dimensions      [0 1 -1 0 0 0 0];

internalField   nonuniform List<vector> 
808
(
(0.897247 -0.0102786 0)
(1.01005 -0.0361601 0)
(1.22041 -0.0710553 0)
(1.06642 0.00970113 -2.75713e-21)
(1.46405 -0.271012 0)
(0.956119 -0.0284824 0)
(1.12448 -0.0287306 -5.13803e-21)
(1.11659 -0.0286013 0)
(1.33175 -0.211897 2.09216e-20)
(1.21699 -0.0847624 -2.16725e-22)
(1.31558 -0.0388658 2.77015e-21)
(1.36486 -0.234944 0)
(0.982613 -0.0289579 0)
(0.737325 -0.0174973 0)
(1.09253 0.0108064 2.23331e-20)
(1.0753 -0.013216 0)
(0.969845 0.0546425 -8.27243e-21)
(0.980795 -0.00903227 -1.28205e-22)
(1.33561 -0.00381246 0)
(1.11762 -0.00229177 0)
(1.31253 -0.0262979 -3.86573e-21)
(0.925723 0.128658 1.10642e-19)
(1.07253 0.00689863 -1.37307e-20)
(1.17226 -0.0473223 0)
(0.963725 0.195509 0)
(1.33963 0.00654457 -3.42844e-20)
(1.26626 -0.165965 3.79636e-21)
(0.994266 -0.0347397 -6.48185e-21)
(1.08506 -0.0191152 0)
(1.06166 0.0326519 -2.73397e-22)
(1.00919 -0.0301499 7.21834e-24)
(1.12101 -0.0189781 0)
(1.05264 0.05738 0)
(1.09982 -0.0435527 5.39755e-21)
(1.27832 -0.0773066 4.26796e-21)
(0.74531 -0.101801 1.12876e-19)
(0.863868 -0.0244349 -9.83912e-21)
(1.04658 0.0561581 8.82304e-22)
(1.17733 0.0455019 -4.10818e-21)
(1.10085 0.0392531 0)
(1.24512 -0.0810672 -6.85699e-21)
(1.26281 -0.128148 0)
(1.00133 -0.0129643 -8.34778e-21)
(1.1556 -0.0349822 7.44666e-21)
(1.24108 -0.212428 0)
(1.01058 0.0169815 -1.97682e-20)
(1.01414 0.0406053 2.42657e-21)
(1.24204 -0.2362 -8.08143e-22)
(1.16926 0.055416 -8.02493e-21)
(1.38176 -0.161294 -3.02216e-20)
(1.12558 -0.0119595 8.99628e-21)
(1.14379 -0.0682181 0)
(1.11454 -0.00460389 7.50178e-21)
(1.20206 -0.0430411 0)
(1.33575 0.215539 4.76653e-21)
(1.06924 0.0504911 -3.1087e-21)
(1.2826 -0.042624 0)
(1.27708 -0.152123 3.55369e-23)
(1.22241 -0.0940163 2.32645e-22)
(1.14834 0.0372502 -1.01347e-21)
(-0.111548 -0.187631 0)
(1.20835 -0.202389 -3.11938e-21)
(1.19084 -0.121726 0)
(1.38421 -0.0981027 -1.999e-20)
(1.17125 -0.060816 -7.18911e-21)
(1.03459 -0.028522 -8.66757e-21)
(1.30782 -0.0864076 1.90547e-20)
(0.654617 0.013679 0)
(1.19943 -0.0543166 0)
(1.43698 -0.333786 0)
(0.896216 0.0242152 -2.69485e-22)
(1.25467 -0.124107 -4.00369e-20)
(1.0013 0.0304305 0)
(1.0596 -0.050802 -4.89665e-21)
(1.11463 -0.323115 -5.93081e-20)
(1.14245 -0.0237168 -1.33011e-20)
(1.15108 0.0183998 -1.52188e-22)
(1.33963 0.503802 2.55716e-20)
(1.09801 -0.0359226 0)
(1.01662 0.29121 -1.82547e-19)
(1.35553 -0.0179542 1.73258e-20)
(0.760909 0.0134925 0)
(0.858176 0.0331474 -1.17481e-20)
(0.969127 -0.106075 4.46193e-21)
(1.14664 -0.0288653 1.02114e-20)
(1.1918 0.00093786 6.16937e-22)
(1.29568 -0.219889 0)
(1.35931 0.286433 0)
(1.0901 -0.00241861 -1.9547e-20)
(1.46228 0.0432532 3.6368e-20)
(1.07951 -0.022152 1.67086e-20)
(1.29992 -0.115851 -1.10192e-21)
(0.965612 0.0255793 1.70591e-20)
(1.00379 -0.026617 0)
(1.10917 0.00684034 1.60698e-21)
(1.20328 -0.0607714 -3.83528e-20)
(0.766377 0.0177518 -1.81566e-21)
(1.33471 -0.100891 0)
(1.29999 -0.0925259 0)
(1.38351 -0.0625595 -3.33929e-20)
(1.11039 -0.0253784 -5.02972e-21)
(1.12735 0.00381089 -1.89681e-22)
(0.948074 0.0235937 1.42473e-20)
(1.18702 -0.0128228 1.78924e-22)
(1.30876 -0.0149003 -9.84154e-21)
(0.999516 0.00111602 1.35192e-20)
(1.46038 -0.142078 0)
(0.851555 0.217238 0)
(1.09517 0.0332936 7.3774e-21)
(1.19266 -0.210216 -8.88041e-21)
(1.27711 -0.0284355 6.40846e-21)
(1.0471 0.0469236 -1.22094e-19)
(1.15938 0.04183 -3.16492e-21)
(1.14379 0.180128 6.25436e-21)
(0.804071 0.0241486 0)
(0.918726 -0.0422205 7.70192e-20)
(1.14623 0.0208235 -9.05831e-21)
(1.42785 -0.237798 -1.60108e-20)
(1.14359 -0.0547336 -7.41673e-21)
(0.93124 0.0135022 2.41124e-21)
(-0.253839 -0.10313 0)
(0.848658 -0.019261 1.73926e-21)
(0.796747 0.0249456 0)
(1.06111 -0.000356492 -1.12966e-22)
(1.01471 0.0289492 0)
(1.32533 0.317351 7.80543e-21)
(1.03315 -0.0511962 -3.54896e-20)
(1.27247 0.229766 1.18194e-21)
(1.14253 -0.0660983 0)
(1.09064 -0.0231713 0)
(0.585441 0.0763038 0)
(1.13931 -0.040736 -3.64624e-21)
(1.23762 -0.0520195 3.4293e-21)
(1.07183 0.111613 -3.28579e-20)
(0.845478 -0.0269737 0)
(1.1035 0.0224275 -2.13569e-21)
(0.889386 -0.147371 3.97801e-21)
(1.08155 -0.0635535 -4.27216e-21)
(0.993781 0.035111 5.2103e-21)
(1.13017 0.00464658 1.59016e-22)
(0.036469 0.155009 0)
(1.0918 -0.0240729 -1.85028e-20)
(1.02623 -0.156206 3.35241e-22)
(0.709871 0.0247988 -4.38338e-21)
(1.27318 0.165946 2.7815e-21)
(0.915973 0.114596 5.58266e-21)
(1.04456 0.0185433 1.93108e-20)
(0.990212 0.0271738 0)
(1.09631 -0.227185 1.91987e-21)
(0.971933 0.150594 0)
(0.94008 0.0287216 9.31384e-21)
(0.969965 0.290304 1.46075e-19)
(0.973627 0.0357765 0)
(0.82055 0.112746 0)
(-0.070527 0.195061 -7.40893e-20)
(1.35327 0.120573 -1.34325e-20)
(0.691147 -0.021449 0)
(1.4987 -0.0472665 0)
(1.02824 -0.210459 0)
(1.36813 0.0587129 1.58267e-20)
(-0.0436711 -0.00972835 0)
(-0.0362403 0.190783 3.46707e-20)
(1.00923 -0.000578391 7.30151e-20)
(1.00819 0.039476 1.72254e-21)
(0.854025 -0.00245659 0)
(1.0394 -0.0489091 1.0797e-20)
(0.889222 0.0219444 0)
(0.730366 0.0239309 -7.8924e-20)
(1.02061 0.0485533 1.34805e-20)
(1.15834 -0.0494769 2.22894e-21)
(1.09285 0.010242 8.82231e-21)
(1.01588 0.0725908 -1.17954e-20)
(0.615941 0.102393 -5.55797e-21)
(1.12904 -0.339379 6.93976e-22)
(0.919886 -0.0199194 0)
(1.06719 0.0018265 -1.60155e-20)
(0.871071 0.0086657 -1.0971e-20)
(1.35156 -0.151207 1.67306e-21)
(0.687581 0.0182231 0)
(1.06984 -0.127609 0)
(1.12362 -0.0707387 2.5119e-21)
(1.40614 0.212536 1.07483e-20)
(1.11458 0.0154433 6.84079e-21)
(1.03598 0.0168926 2.04855e-20)
(0.941633 0.0156615 -1.0422e-19)
(0.812494 0.00454234 1.97943e-20)
(1.12588 -0.0168183 5.56196e-21)
(1.34202 -0.0774928 -3.04533e-21)
(1.12289 -0.0616673 -4.95142e-21)
(1.28895 -0.0576187 2.60943e-21)
(-0.0713547 0.19266 5.41363e-20)
(1.26119 -0.0590204 0)
(0.620944 -0.0189546 0)
(1.05722 -0.0279625 -7.89755e-21)
(1.09865 0.010283 1.08341e-20)
(0.150792 0.146733 0)
(0.878632 -0.0229999 4.82432e-22)
(1.10772 -0.0687727 -2.98106e-21)
(0.972369 0.00643347 3.82541e-22)
(1.0788 0.0337044 -7.35093e-21)
(1.00258 0.0224308 2.60675e-21)
(1.03769 -0.058 2.62968e-21)
(1.06813 0.0344084 0)
(0.379625 -0.0139452 0)
(1.05088 -0.0643927 0)
(1.18999 0.105574 -2.96354e-20)
(-0.0596515 0.0238113 4.65786e-20)
(1.07734 0.0127769 -7.77903e-24)
(1.20285 0.0806821 0)
(0.747242 0.0234955 -9.5268e-21)
(1.18953 0.0304271 -1.2105e-21)
(0.00725992 -0.0374633 -1.54478e-19)
(0.694763 0.0569431 -2.63892e-20)
(0.639531 -0.022192 0)
(0.993627 -0.000702002 0)
(0.934177 0.0197723 1.00089e-20)
(1.03952 -0.0861557 5.89759e-21)
(1.29334 0.4003 5.25461e-22)
(1.13534 -0.102114 3.74557e-22)
(1.15189 -0.141011 -4.5728e-21)
(1.00559 0.0371299 0)
(1.37701 0.427417 -4.00758e-20)
(0.658777 -0.00887313 0)
(0.802424 -0.0214816 -4.30626e-21)
(1.08346 -0.0276015 8.91467e-23)
(0.603788 0.0132542 0)
(1.10065 -0.00650799 0)
(-0.0129172 0.127539 -2.9241e-20)
(1.1682 -0.214673 -1.34892e-21)
(0.74128 -0.0167656 3.95035e-21)
(0.990253 -0.00466513 0)
(0.573422 -0.0131296 0)
(0.766445 -0.0174564 -4.5896e-21)
(0.55283 -0.023134 -1.14291e-21)
(1.34242 -0.025117 3.27782e-22)
(1.32624 0.156094 1.51582e-21)
(0.711065 0.0177549 -1.3903e-21)
(1.17251 -0.0557716 2.21774e-22)
(1.22012 -0.194261 -3.52965e-22)
(0.550845 0.0150814 3.62857e-21)
(1.26976 -0.121493 -7.11353e-22)
(1.18488 -0.143137 0)
(0.925408 -0.18844 0)
(0.505421 0.0172598 0)
(1.05159 -0.0330026 0)
(1.21299 -0.0331047 -3.40187e-21)
(1.06985 -0.184363 0)
(1.16028 -0.0753942 0)
(0.938794 -0.184473 0)
(0.969256 -0.0466177 0)
(-0.025146 -0.0254539 4.6206e-20)
(1.19184 -0.100202 1.83478e-21)
(0.854808 -0.138185 0)
(1.31926 -0.0490372 7.7834e-21)
(1.14531 -0.0319846 1.87351e-21)
(1.11177 0.058482 2.04766e-21)
(1.09117 -0.0116659 5.96564e-21)
(1.08748 -0.11303 0)
(0.583164 -0.0127618 9.0722e-21)
(1.05363 0.0408714 1.14722e-20)
(1.19206 -0.132116 0)
(1.29022 0.0244343 1.70589e-21)
(1.15088 0.0444899 2.84431e-21)
(0.783951 0.318746 9.10794e-21)
(1.1825 0.0271299 2.11977e-21)
(1.17018 0.145772 -6.46301e-21)
(1.06442 0.205454 0)
(1.08269 0.0545123 -2.40538e-20)
(1.13818 0.144775 -2.2805e-21)
(0.613135 -0.328332 5.30906e-22)
(0.978691 0.0603289 0)
(-0.00277328 -0.0200308 0)
(0.97263 0.116221 -1.74841e-20)
(1.19225 -0.00727144 0)
(1.18808 -0.0889126 4.40921e-21)
(1.18028 0.0873543 3.97103e-22)
(1.20478 0.0763365 6.21342e-21)
(1.08218 0.0860693 -2.59697e-21)
(1.30519 -0.0274444 5.22969e-20)
(1.01197 -0.314136 5.98696e-20)
(1.07647 -0.0270245 -5.75632e-22)
(0.980935 -0.027898 0)
(1.01304 0.232099 0)
(0.907543 0.0023094 -3.31533e-20)
(1.24884 -0.260558 -4.32227e-20)
(1.11947 0.0879692 0)
(0.568215 -0.110291 1.21818e-20)
(0.547716 0.386061 0)
(0.699065 0.0454288 6.05687e-21)
(0.658518 -0.168266 -1.52691e-20)
(0.82961 0.0219861 -6.22658e-21)
(1.07016 -0.0326777 0)
(1.31081 0.201057 -4.63235e-22)
(1.20573 0.194906 -1.55183e-21)
(0.672738 -0.220338 -6.73771e-21)
(1.08446 0.0690925 -5.24636e-21)
(0.763826 -0.209957 0)
(1.09268 0.0638853 0)
(0.987822 -0.0888606 1.43225e-20)
(0.748575 -0.132206 -6.11852e-21)
(1.24308 0.0714272 3.74827e-21)
(1.11599 0.031082 -5.02759e-21)
(1.07941 0.162242 -3.10112e-22)
(1.1377 0.0272884 0)
(0.425803 -0.138718 1.36329e-20)
(1.34048 0.0372249 -2.15392e-20)
(0.783847 -0.245915 -8.17859e-22)
(0.434971 0.174455 -9.62993e-21)
(1.39107 -0.125448 1.89989e-20)
(1.05766 -0.0896128 9.7119e-20)
(1.10855 0.0222817 -1.46358e-20)
(1.08018 -0.0125835 -7.05513e-22)
(-0.0903969 0.0450866 -7.97668e-21)
(1.00033 -0.00743925 0)
(1.03439 -0.0839755 -1.66271e-20)
(0.839113 -0.0349492 1.08736e-20)
(1.1116 -0.0540441 5.81636e-21)
(0.779026 -0.266167 2.59469e-21)
(0.516519 -0.0195088 3.91055e-22)
(1.4068 -0.370113 -1.57616e-20)
(1.15656 -0.000366677 0)
(1.05567 0.00824897 -2.86233e-21)
(1.15438 0.0200985 -2.82654e-21)
(1.13682 0.175452 0)
(0.700162 0.261203 -5.42334e-21)
(1.13051 0.0131643 4.22487e-21)
(0.744005 -0.278237 4.82968e-21)
(1.11837 -0.042399 -6.33145e-21)
(0.818669 0.126355 4.13635e-21)
(-0.0405414 0.112955 0)
(0.70098 0.144085 5.45555e-20)
(1.2073 0.0227078 0)
(1.1007 0.312411 2.88139e-20)
(1.04352 0.33511 0)
(1.11828 -0.0228334 3.83334e-21)
(1.01483 0.0258151 0)
(0.933941 0.155026 0)
(1.35974 -0.105484 1.40852e-20)
(0.793331 -0.0765034 0)
(1.2457 -0.122519 -8.18373e-21)
(1.15302 -0.0327829 4.09709e-22)
(1.07514 0.0135095 3.39665e-21)
(1.22232 -0.14388 -4.53874e-21)
(1.25197 0.106767 -6.14022e-21)
(1.30407 -0.200008 -9.89267e-22)
(1.14921 -0.0256223 0)
(1.12987 -0.00932269 0)
(1.07885 -0.0027338 3.07709e-21)
(1.18756 -0.0479962 0)
(1.44936 0.214399 -2.79177e-20)
(0.883231 -0.187796 -5.88256e-21)
(1.02737 0.0126572 2.14219e-20)
(1.28341 -0.0211433 -1.19919e-22)
(-0.013275 0.0577359 0)
(-0.0305395 -0.0188191 0)
(-0.0508977 0.182722 -3.47474e-20)
(-0.100878 0.0254813 0)
(0.7804 -0.109049 5.81899e-21)
(1.16265 0.0276755 -2.8878e-21)
(1.16277 0.0358973 -6.96961e-21)
(1.16154 -0.0136575 -1.70333e-21)
(1.1518 -0.0497155 0)
(0.696775 -0.0255188 -2.86551e-21)
(1.093 0.0128657 0)
(1.12862 -0.0176114 2.90718e-21)
(0.52213 -0.107951 0)
(0.862937 -0.0181471 3.89107e-22)
(1.06649 0.0584281 0)
(1.19031 0.0363606 0)
(0.486757 -0.0732749 1.39037e-20)
(0.606513 0.205782 -2.75498e-22)
(0.706342 0.0348766 5.37432e-21)
(1.01097 0.0183232 -1.06541e-20)
(0.187139 0.0116793 0)
(1.27051 -0.205002 6.78386e-21)
(1.26523 0.0979665 -3.1888e-21)
(1.24901 -0.234534 -1.7489e-22)
(0.663695 0.227183 8.01829e-22)
(-0.0597479 0.0921742 -9.76851e-20)
(1.11194 0.10225 0)
(-0.0317072 0.0421193 0)
(1.17398 0.135594 3.68897e-21)
(0.427598 0.418663 -8.62705e-22)
(1.19146 0.0738932 -5.01075e-21)
(1.10243 -0.029725 0)
(1.21654 -0.00463123 5.70278e-21)
(1.11884 -0.195504 -1.83305e-21)
(0.583845 -0.0226887 -9.76537e-21)
(1.12288 -0.0256229 -3.14405e-21)
(1.13716 -0.00810588 -5.39394e-22)
(0.0357379 -0.213821 9.91978e-22)
(1.23159 0.0551267 -2.13743e-20)
(1.14883 0.0350772 0)
(1.10311 0.0864378 0)
(1.12773 -0.0310141 -1.64942e-21)
(1.21097 0.0863003 2.88184e-21)
(0.40625 -0.267545 -1.58118e-21)
(1.18524 -0.113714 -2.00173e-20)
(1.12497 0.0667208 5.95553e-21)
(0.531772 0.00181171 1.48025e-20)
(0.0438624 -0.0625851 -3.08382e-20)
(0.277826 -0.459252 8.873e-21)
(1.18032 0.185356 -6.819e-21)
(1.22697 -0.482202 4.60986e-21)
(1.39701 0.00177152 -7.08157e-21)
(1.14459 -0.0375231 1.9547e-21)
(0.931357 -0.223245 9.58493e-20)
(-0.218746 -0.350558 0)
(1.25174 -0.0864114 9.13176e-22)
(0.266699 -0.158868 -2.38782e-20)
(1.15396 0.13768 -3.19209e-21)
(1.10739 -0.124773 6.71751e-21)
(1.09178 0.0319876 0)
(0.381928 0.203977 0)
(1.16598 -0.0535665 0)
(1.39383 0.271054 -1.24715e-20)
(1.25848 -0.03667 -1.24227e-20)
(1.11506 -0.0285926 4.87231e-21)
(0.476825 0.0158265 0)
(0.633028 0.010095 0)
(0.623199 -0.00420286 4.34574e-22)
(0.43976 -0.0118973 0)
(1.19819 0.121593 0)
(1.01841 -0.0136444 2.79282e-20)
(0.186491 0.26104 0)
(0.924768 0.044734 0)
(1.18857 -0.00508667 0)
(1.18217 0.175401 -5.08376e-21)
(1.28739 0.0267763 6.49225e-21)
(0.955233 -0.0297519 7.99385e-21)
(1.29867 -0.391311 -1.08056e-19)
(0.260347 -0.0268306 -5.87466e-21)
(1.11546 -0.00846385 8.41483e-21)
(1.171 0.109727 0)
(-0.196487 -0.585098 0)
(-0.26366 0.159831 0)
(1.126 -0.0393864 3.09532e-21)
(1.31012 -0.277302 -2.01688e-20)
(1.39187 0.100589 0)
(1.07404 0.0178574 -1.03811e-20)
(0.604731 -0.299202 0)
(1.48345 -0.146267 6.32217e-20)
(0.41945 0.533404 1.07075e-19)
(0.316091 -0.0124724 0)
(1.10998 -0.269764 1.15986e-19)
(0.0966044 -0.323247 0)
(-0.0141377 -0.247993 -1.59301e-20)
(1.42733 0.0801092 0)
(-0.185449 0.094512 1.74548e-21)
(0.984053 -0.0513811 0)
(1.15979 -0.0886655 -2.11543e-22)
(-0.166768 0.144213 -7.77072e-21)
(1.10969 -0.0357695 2.22837e-21)
(1.20389 0.0345547 2.98289e-21)
(0.567357 -0.496727 -9.40628e-20)
(1.05929 0.00664081 -2.84648e-21)
(1.18484 -0.123562 6.39901e-21)
(1.18858 0.249363 -1.89431e-20)
(1.10734 -0.0841347 1.35027e-20)
(1.13433 -0.0322347 5.79371e-22)
(0.200711 -0.261628 -8.63317e-20)
(0.135117 0.200347 -8.10159e-21)
(1.15676 0.106912 4.6977e-21)
(1.05845 -0.0483323 0)
(0.514442 0.234211 -7.4741e-21)
(1.39857 -0.427891 7.98872e-20)
(0.953835 -0.0378827 -5.8817e-20)
(1.48723 0.138394 8.72692e-20)
(1.09029 -0.0337168 5.27212e-21)
(1.18875 0.0697087 1.74284e-20)
(1.05981 -0.010016 0)
(1.1791 -0.0329636 0)
(1.14491 -0.0220782 -6.56417e-21)
(1.08768 -0.0216843 -4.47288e-21)
(0.986367 -0.0911461 -1.38321e-20)
(1.07858 0.0574997 -8.22888e-21)
(1.38074 -0.0671951 -2.4964e-20)
(0.453416 0.0371384 0)
(1.14123 0.0718771 1.67016e-20)
(1.36182 0.00566853 0)
(1.09221 0.0699542 -3.87558e-21)
(1.14114 0.00840921 0)
(1.04153 -0.00970161 1.55139e-20)
(1.23158 0.0168372 1.43872e-20)
(1.00911 0.215613 0)
(0.0674181 -0.0256518 1.61029e-19)
(0.881528 -0.201724 -7.51739e-20)
(1.13235 -0.0754547 -1.29852e-20)
(-0.140183 0.13661 4.23072e-20)
(1.19988 0.0311513 1.33096e-22)
(0.689269 0.261735 7.71285e-21)
(-0.102025 0.177898 -4.40825e-20)
(-0.0274064 0.106922 -2.84001e-20)
(1.01843 -0.0276438 0)
(-0.0313158 -0.0341621 0)
(1.19077 -0.0940367 0)
(0.11158 -0.088323 0)
(1.10286 -0.0277176 0)
(0.165222 0.0402865 0)
(1.12733 0.052075 0)
(1.24411 0.0180418 0)
(1.34869 0.153751 -1.02911e-21)
(0.580642 -0.285266 -2.09031e-20)
(-0.0835002 0.25454 0)
(1.14615 -0.0685375 6.11944e-20)
(1.14254 -0.0552299 5.3245e-21)
(1.17595 -0.0766148 0)
(-0.0339114 -0.0411674 0)
(1.15194 -0.00850476 1.37886e-21)
(1.15164 -0.0264614 -9.70065e-22)
(1.18051 0.395664 0)
(0.269556 -0.00269564 6.17227e-20)
(1.12115 0.049797 1.20293e-21)
(0.249823 -0.0501819 -5.39988e-20)
(-0.0626393 0.0450831 -3.25529e-20)
(-0.0396482 0.0511133 8.43288e-20)
(0.512902 -0.212789 4.69083e-20)
(0.980668 0.138128 -7.25643e-21)
(1.14205 0.0728777 -4.82772e-21)
(1.02293 -0.00875973 0)
(1.06957 -0.0653702 -2.3602e-20)
(1.2782 0.0324267 -6.97787e-21)
(-0.00905009 0.027728 1.00499e-19)
(0.973719 -0.0695129 -6.08387e-20)
(0.682321 0.307561 1.0485e-20)
(1.0862 0.037743 -2.31837e-21)
(0.0924146 -0.0263875 3.52672e-20)
(0.266738 -0.0339885 -4.95663e-20)
(0.447725 -0.00523531 -5.59879e-20)
(1.26452 0.228263 -3.69569e-21)
(-0.049165 -0.0346389 0)
(1.0383 0.270353 1.59859e-21)
(0.969461 0.100904 3.75925e-20)
(1.05009 0.0307271 -3.62426e-20)
(1.20601 -0.0615625 0)
(1.49967 -0.206794 6.89172e-20)
(1.13965 0.0617676 -2.33867e-21)
(-0.0135055 -0.0020465 -3.35044e-20)
(0.34672 0.115654 0)
(0.90283 0.0237718 -7.11905e-22)
(1.13956 0.0197161 1.4763e-21)
(0.983274 -0.347274 9.82582e-21)
(1.15077 -0.0101167 -1.41049e-22)
(1.11957 0.0404763 0)
(1.15847 -0.157389 -1.51636e-20)
(-0.143621 0.0780023 -6.44249e-20)
(1.28553 -0.0408453 9.57201e-21)
(1.10658 0.169673 -8.88054e-21)
(1.06686 0.0496479 9.4112e-21)
(-0.0416722 -0.0408386 1.56651e-20)
(-0.0229957 0.0526708 -6.69979e-20)
(0.476391 0.0532049 0)
(0.694031 -0.119285 0)
(1.15523 0.0928134 -1.58532e-20)
(1.05283 0.0643847 1.24657e-20)
(1.10298 -0.0155313 0)
(0.371618 0.108623 2.54327e-20)
(0.746033 0.0981278 -1.14712e-20)
(1.10244 0.106407 0)
(1.06868 0.0239815 0)
(1.31386 0.0178438 0)
(1.289 0.0357155 0)
(1.09225 -0.0813256 4.2684e-21)
(-0.0434782 0.0449608 3.55542e-20)
(1.29741 0.100652 5.22397e-22)
(1.39524 -0.158503 -7.58447e-20)
(1.19483 -0.0939848 -7.21118e-21)
(0.199457 0.0468555 0)
(1.10249 0.192294 0)
(0.62932 -0.010263 -5.28436e-22)
(0.548095 0.011001 -6.03091e-20)
(0.0700516 0.0382872 4.90762e-20)
(0.950053 0.014391 2.65415e-21)
(0.754489 -0.271566 0)
(0.698975 -0.0857025 0)
(1.20485 -0.10695 0)
(0.549773 0.525907 2.61537e-20)
(-0.0181324 0.0634828 -3.18042e-20)
(0.967169 -0.0326817 -6.19376e-21)
(-0.0197815 0.0279684 6.34397e-20)
(1.09523 -0.0668399 2.94626e-21)
(1.18449 0.315994 3.61285e-20)
(1.10793 -0.0854809 1.01755e-20)
(0.613739 -0.169728 1.12579e-19)
(1.03454 0.167033 4.55481e-21)
(1.10025 0.110607 0)
(0.568167 0.276769 0)
(0.864812 0.234049 1.72593e-21)
(-0.252692 0.219811 0)
(0.621319 0.031359 3.0154e-21)
(0.602921 -0.414367 -2.8881e-21)
(0.241861 0.0508527 -1.15596e-19)
(1.12346 -0.217115 3.56712e-20)
(1.04694 0.375597 9.96759e-21)
(0.981894 0.0245173 0)
(1.29025 -0.111903 -5.91663e-22)
(0.654377 0.0133402 0)
(1.00097 -0.014011 -5.37322e-22)
(0.470291 -0.00708713 0)
(0.716129 0.146569 0)
(0.991489 -0.0256599 -4.82023e-21)
(1.45834 0.162077 -1.60015e-20)
(1.06519 -0.0561191 5.20356e-21)
(0.518965 -0.48593 0)
(1.12957 -0.149498 3.36563e-21)
(0.81285 0.394843 6.96533e-20)
(-0.0450909 0.0183921 1.18664e-21)
(1.19148 -0.0634109 9.00748e-21)
(1.20896 0.0121088 -1.0934e-20)
(1.11153 -0.12667 6.95547e-22)
(0.804035 0.0143167 -5.38056e-21)
(0.0586033 0.0204838 3.80269e-20)
(-0.0188893 0.079307 -5.66298e-20)
(-0.229181 0.197101 0)
(-0.109425 0.289008 0)
(1.1818 -0.605387 3.10824e-20)
(1.13143 -0.0256772 -5.65336e-22)
(0.891728 -0.462228 -4.10911e-20)
(1.10664 0.271104 -5.51695e-21)
(1.39291 0.193199 3.5627e-20)
(0.614012 0.429692 0)
(0.251116 0.430252 -1.11726e-19)
(0.604599 0.502881 0)
(0.204465 0.131665 0)
(1.11426 -0.464559 0)
(-0.0486518 0.161805 -1.95448e-22)
(1.19236 -0.0288028 0)
(0.970942 0.0471032 -3.78577e-20)
(0.607889 0.712621 2.11273e-20)
(1.4142 0.16411 1.79014e-20)
(-0.0445938 -0.0103756 -1.11617e-19)
(0.898865 0.225336 -5.13962e-20)
(0.459722 0.147395 -1.3971e-20)
(1.20765 0.0712353 0)
(1.38098 0.357589 3.71137e-20)
(1.24041 0.578619 9.45e-21)
(0.156563 -0.0163061 -2.22242e-20)
(1.03634 0.145204 3.27999e-20)
(0.953941 -0.0258343 1.10611e-21)
(0.923613 0.0127852 -4.11037e-22)
(0.0144229 -0.0138957 0)
(0.639227 -0.63418 -3.18074e-20)
(0.616851 0.221415 0)
(0.0242816 0.0149401 0)
(-0.0484152 0.0744936 0)
(-0.0392457 0.0169441 -4.19233e-20)
(1.2246 -0.0310615 -1.04081e-20)
(-0.0241238 0.0940593 0)
(-0.0345179 0.100502 0)
(1.46107 0.109405 -8.3202e-20)
(-0.0329052 -0.0385784 5.07464e-20)
(0.117198 0.248049 -9.99788e-20)
(0.391709 0.020241 0)
(0.1673 -0.263003 8.307e-20)
(1.10337 -0.231814 0)
(0.988984 -0.27305 0)
(-0.0152279 -0.00108394 1.04698e-19)
(1.14357 0.0218587 -1.12525e-22)
(1.13358 0.351583 2.75516e-20)
(0.262573 0.030037 4.75452e-20)
(0.398993 -0.507327 -4.09054e-20)
(1.36513 0.0582732 0)
(1.24671 0.201966 2.257e-20)
(1.24115 0.211996 -2.77215e-20)
(0.103823 0.105526 -2.34524e-20)
(-0.061226 0.160442 0)
(1.06729 -0.0557833 -1.93382e-20)
(1.09537 -0.212488 -1.75597e-20)
(0.578731 -0.384658 0)
(1.09451 -0.143343 -2.75119e-20)
(0.0334627 0.258192 0)
(0.63536 0.0643531 0)
(1.38779 -0.0470086 1.57026e-20)
(0.97937 0.0172335 3.97441e-22)
(1.09589 0.762608 -1.37044e-20)
(0.221855 -0.367443 1.37278e-19)
(1.07918 0.0416248 -1.75152e-21)
(1.20838 0.0637478 1.00511e-22)
(-0.0484647 0.149801 3.15038e-20)
(0.802171 0.74959 2.50331e-20)
(1.33797 -0.351232 -1.39292e-20)
(-0.243329 -0.120439 3.92513e-20)
(1.19283 0.0390234 0)
(0.493953 0.0100515 -1.16492e-20)
(0.895585 -0.628981 2.60513e-21)
(0.915466 0.653897 -2.37393e-20)
(0.579708 -0.0230056 -6.5158e-20)
(1.13295 -0.01656 -5.38518e-21)
(1.0739 -0.0836279 8.15626e-21)
(1.16693 0.0690795 1.6619e-21)
(1.1087 0.117595 3.94616e-21)
(1.12951 -0.124262 0)
(0.930654 0.112835 1.45026e-20)
(0.900663 0.46664 0)
(1.36918 0.178002 5.81894e-21)
(1.17148 0.101613 -1.24001e-22)
(0.762923 0.268093 0)
(0.526541 0.112374 1.10268e-19)
(0.908692 0.730382 -5.17719e-22)
(1.08499 0.293867 -2.11591e-20)
(1.04163 -0.0101313 1.40351e-20)
(0.422472 0.515793 0)
(1.28669 -0.457624 0)
(0.954627 -0.213139 7.75064e-21)
(1.28215 0.512407 0)
(-0.0286747 0.0631217 -4.24831e-20)
(1.27419 -0.403489 -3.78522e-21)
(1.18169 0.521561 0)
(0.455924 0.241321 1.68704e-19)
(1.14126 0.32268 -1.23537e-19)
(0.805476 -0.620685 -2.76966e-20)
(1.17565 0.0647111 1.01057e-22)
(0.932433 0.156173 8.32704e-20)
(1.09304 0.169127 5.16375e-20)
(1.08796 0.718959 -6.16962e-22)
(0.896005 -0.42232 6.7739e-20)
(1.45948 0.160205 4.3023e-20)
(1.12332 -0.00188248 -9.09878e-22)
(0.0192507 -0.0226811 9.69646e-20)
(1.07473 -0.689745 2.18311e-20)
(0.862279 -0.704345 5.79606e-20)
(0.247832 -0.305873 0)
(0.970713 -0.1418 7.54549e-20)
(0.367595 0.333395 -4.37855e-19)
(-0.16689 0.226246 1.74083e-20)
(0.246125 0.0677513 2.22577e-20)
(0.703113 -0.0513095 -7.63696e-20)
(1.09491 0.543996 0)
(0.991821 0.225995 8.06976e-20)
(1.08699 0.0264053 3.55534e-21)
(0.925474 0.458734 -8.98006e-20)
(0.774639 -0.713633 -9.50115e-21)
(0.932928 0.0319334 -4.95454e-20)
(0.990376 0.504827 0)
(1.31421 0.199838 -1.83813e-20)
(1.37163 -0.500431 1.26192e-20)
(1.21786 -0.326803 9.41532e-21)
(-0.0957939 0.119648 4.52583e-20)
(0.1949 0.0327357 -1.82635e-20)
(0.9702 -0.111951 -5.88116e-20)
(0.362079 0.548111 0)
(0.924706 0.026335 3.9478e-20)
(1.17398 0.648293 8.42151e-20)
(-0.147075 0.0805129 1.37268e-19)
(-0.051832 0.181259 -2.65868e-20)
(-0.0973347 0.0920556 4.14713e-20)
(1.09644 0.014874 -4.75704e-21)
(1.1332 -0.454158 0)
(1.05601 -0.717562 -4.72562e-20)
(0.706749 0.367728 0)
(-0.0255917 0.101004 -9.61918e-20)
(1.08339 0.0337381 5.08262e-21)
(-0.0343865 0.0473507 -2.85789e-20)
(1.05019 0.0533531 -1.25011e-20)
(0.0985777 0.0333555 5.50943e-20)
(0.862433 0.132998 0)
(1.32362 -0.0696516 2.44028e-20)
(0.0671818 0.0940701 -2.52708e-20)
(-0.164442 0.218277 -5.37654e-20)
(-0.28989 0.253865 0)
(0.106863 0.00169578 0)
(1.28936 -0.0479616 -5.79905e-21)
(0.405498 -0.00348214 1.5785e-19)
(1.25768 -0.712054 -1.73261e-20)
(1.04499 -0.308243 3.91167e-20)
(1.07777 0.252964 -2.99503e-20)
(0.361882 -0.536832 1.44055e-19)
(1.57828 0.276792 -3.56802e-20)
(0.076212 -0.00201297 3.7531e-20)
(0.212129 0.332424 1.9516e-19)
(0.122212 0.00653855 -1.40742e-19)
(0.935954 -0.478177 -4.46599e-20)
(1.47535 0.392971 3.6128e-20)
(0.558598 -0.660498 5.15367e-20)
(1.10407 -0.0795576 -8.10025e-21)
(0.173342 0.171029 5.10894e-20)
(1.20243 0.297819 -4.88719e-20)
(0.673145 0.661099 -3.92673e-20)
(1.33267 -0.611852 0)
(1.44018 0.52897 3.47699e-20)
(1.044 -0.51437 -1.2161e-20)
(1.41029 0.618001 -1.05833e-19)
(1.19563 0.0206799 0)
(-0.0525719 0.117588 0)
(1.27156 0.744522 0)
(1.3139 0.0581146 1.88599e-22)
(0.73577 -0.286194 -2.10404e-19)
(0.478434 -0.0628397 0)
(-0.0448878 0.159764 -2.6678e-20)
(1.02075 -0.238667 1.03357e-19)
(-0.266186 -0.031926 0)
(0.323342 0.0498318 1.23406e-20)
(1.15875 0.0331335 0)
(1.43911 0.278996 0)
(1.20274 0.0585559 -1.08218e-22)
(0.359356 -0.269334 0)
(1.01477 0.151419 3.76759e-20)
(1.32817 0.289034 0)
(-0.0537386 0.194813 -7.73192e-23)
(0.808082 -0.379881 0)
(1.53996 0.336709 -5.38009e-20)
(1.25181 0.377111 -4.58672e-22)
(0.855427 0.666908 -9.55514e-21)
(1.01353 0.15667 -8.9033e-20)
(0.964071 -0.195257 -4.99596e-20)
(1.47523 0.294691 3.16741e-20)
(1.06104 0.12649 0)
(0.565898 -0.0538037 0)
)
;

boundaryField
{
    FrontBack
    {
        type            empty;
    }
    Top
    {
        type            noSlip;
    }
    In
    {
        type            fixedValue;
        value           uniform (1 0 0);
    }
    Bottom
    {
        type            noSlip;
    }
    Out
    {
        type            zeroGradient;
    }
    circle
    {
        type            noSlip;
    }
}


// ************************************************************************* //
