/*--------------------------------*- C++ -*----------------------------------*\
| =========                 |                                                 |
| \\      /  F ield         | OpenFOAM: The Open Source CFD Toolbox           |
|  \\    /   O peration     | Version:  2412                                  |
|   \\  /    A nd           | Website:  www.openfoam.com                      |
|    \\/     M anipulation  |                                                 |
\*---------------------------------------------------------------------------*/
FoamFile
{
    version     2.0;
    format      ascii;
    arch        "LSB;label=32;scalar=64";
    class       volVectorField;
    location    "0.8";
    object      cellDisplacement;
}
// * * * * * * * * * * * * * * * * * * * * * * * * * * * * * * * * * * * * * //

dimensions      [0 1 0 0 0 0 0];

internalField   nonuniform List<vector> 
256
(
(0.0021786 -0.0031523 0)
(0.00421209 -0.00575079 0)
(0.00638038 -0.00770365 0)
(0.00881666 -0.0089595 0)
(0.0115238 -0.00940078 0)
(0.0144162 -0.0089362 0)
(0.0172295 -0.0074913 0)
(0.0196355 -0.00514186 0)
(0.009758 -0.013782 0)
(0.0157122 -0.0204581 0)
(0.0220989 -0.0251461 0)
(0.0291868 -0.0277594 0)
(0.0369388 -0.0280662 0)
(0.0450091 -0.0258543 0)
(0.0526594 -0.0210384 0)
(0.0589634 -0.0138933 0)
(0.0202419 -0.0280442 0)
(0.0298051 -0.0374443 0)
(0.040127 -0.0436249 0)
(0.0515592 -0.0465495 0)
(0.0638494 -0.0458334 0)
(0.0763627 -0.0412262 0)
(0.0880137 -0.0327585 0)
(0.097065 -0.020894 0)
(0.0334967 -0.0454696 0)
(0.0464182 -0.0563138 0)
(0.0604306 -0.0628443 0)
(0.0758122 -0.0650788 0)
(0.0920955 -0.0625443 0)
(0.108358 -0.0550235 0)
(0.123015 -0.0426529 0)
(0.134031 -0.0262351 0)
(0.0494407 -0.0655736 0)
(0.0654887 -0.0766378 0)
(0.0829034 -0.0824474 0)
(0.101851 -0.0830823 0)
(0.121597 -0.0780544 0)
(0.140857 -0.0671672 0)
(0.157668 -0.0507379 0)
(0.169807 -0.0299633 0)
(0.0679777 -0.0877946 0)
(0.0869568 -0.0979503 0)
(0.107553 -0.102103 0)
(0.129587 -0.100294 0)
(0.152183 -0.0921491 0)
(0.173647 -0.0775157 0)
(0.191819 -0.0569845 0)
(0.20452 -0.0320549 0)
(0.089102 -0.111569 0)
(0.110808 -0.119755 0)
(0.134221 -0.121331 0)
(0.158941 -0.116392 0)
(0.183707 -0.104573 0)
(0.206648 -0.08593 0)
(0.225527 -0.0612992 0)
(0.238157 -0.0324609 0)
(0.112823 -0.136266 0)
(0.137035 -0.141517 0)
(0.162951 -0.139699 0)
(0.189781 -0.130964 0)
(0.216069 -0.115045 0)
(0.239792 -0.0922155 0)
(0.2587 -0.0635596 0)
(0.270897 -0.0310212 0)
(0.139269 -0.161232 0)
(0.165743 -0.162646 0)
(0.193696 -0.15668 0)
(0.222097 -0.143576 0)
(0.249235 -0.123216 0)
(0.273049 -0.0960984 0)
(0.291469 -0.0635115 0)
(0.302673 -0.027559 0)
(0.168622 -0.185708 0)
(0.197034 -0.18244 0)
(0.226593 -0.171643 0)
(0.255906 -0.15368 0)
(0.283194 -0.128624 0)
(0.306439 -0.0971899 0)
(0.323698 -0.0608641 0)
(0.333476 -0.0217464 0)
(0.201238 -0.208813 0)
(0.231248 -0.200066 0)
(0.261801 -0.183808 0)
(0.291309 -0.160557 0)
(0.317935 -0.130626 0)
(0.339826 -0.0949615 0)
(0.355299 -0.0551236 0)
(0.363202 -0.0131975 0)
(0.237637 -0.229279 0)
(0.268711 -0.214285 0)
(0.299526 -0.191996 0)
(0.328304 -0.163175 0)
(0.353328 -0.12833 0)
(0.373036 -0.0886508 0)
(0.386101 -0.0456681 0)
(0.391784 -0.0012594 0)
(0.278481 -0.245323 0)
(0.309838 -0.223288 0)
(0.339856 -0.194544 0)
(0.366775 -0.160014 0)
(0.389136 -0.120514 0)
(0.405741 -0.0771779 0)
(0.41574 -0.0315489 0)
(0.418723 0.0147833 0)
(0.324482 -0.25422 0)
(0.3549 -0.224414 0)
(0.382615 -0.188948 0)
(0.406145 -0.149029 0)
(0.424534 -0.105466 0)
(0.437061 -0.059334 0)
(0.443306 -0.0118157 0)
(0.443158 0.0358082 0)
(0.375734 -0.251403 0)
(0.403085 -0.213556 0)
(0.426145 -0.172084 0)
(0.444316 -0.127824 0)
(0.457271 -0.0814448 0)
(0.464773 -0.0337001 0)
(0.466712 0.0145659 0)
(0.463118 0.0625096 0)
(0.425293 -0.228106 0)
(0.445604 -0.185322 0)
(0.461623 -0.140753 0)
(0.473196 -0.094828 0)
(0.480212 -0.0479901 0)
(0.482604 -0.000689962 0)
(0.480347 0.0466168 0)
(0.473465 0.0934746 0)
(-0.00211844 -0.0210522 0)
(0.00113643 -0.0212075 0)
(0.00398242 -0.0198604 0)
(0.0059035 -0.0173671 0)
(0.00657585 -0.0140263 0)
(0.00601141 -0.0103262 0)
(0.00446121 -0.00663975 0)
(0.00227153 -0.00311823 0)
(-0.00518691 -0.0624897 0)
(0.003914 -0.0626156 0)
(0.0118495 -0.059064 0)
(0.0173833 -0.0524927 0)
(0.0197532 -0.0437066 0)
(0.0189553 -0.0338694 0)
(0.0154451 -0.0238155 0)
(0.00988438 -0.0139083 0)
(-0.00701114 -0.101884 0)
(0.00718823 -0.101714 0)
(0.019538 -0.0963333 0)
(0.0283362 -0.0865127 0)
(0.0326238 -0.0735803 0)
(0.0323037 -0.058972 0)
(0.0278993 -0.0438349 0)
(0.0201852 -0.0286717 0)
(-0.00764054 -0.139519 0)
(0.011026 -0.138745 0)
(0.027241 -0.131787 0)
(0.0390489 -0.119469 0)
(0.0453869 -0.103407 0)
(0.0461134 -0.0852332 0)
(0.0417133 -0.0662155 0)
(0.0329318 -0.046885 0)
(-0.00708753 -0.175455 0)
(0.0155517 -0.174032 0)
(0.0351967 -0.165667 0)
(0.0498092 -0.151434 0)
(0.0583162 -0.13309 0)
(0.060505 -0.112309 0)
(0.0568154 -0.0904296 0)
(0.0479715 -0.0680144 0)
(-0.00526536 -0.209939 0)
(0.0208967 -0.207738 0)
(0.0436205 -0.198126 0)
(0.0608926 -0.182446 0)
(0.0716382 -0.162462 0)
(0.0756403 -0.139883 0)
(0.0732677 -0.116046 0)
(0.0651972 -0.0914721 0)
(-0.00210896 -0.243035 0)
(0.027239 -0.239959 0)
(0.052768 -0.229291 0)
(0.0725787 -0.212519 0)
(0.0856518 -0.191428 0)
(0.0917339 -0.167676 0)
(0.0911487 -0.142583 0)
(0.0845991 -0.116674 0)
(0.00259558 -0.274938 0)
(0.0347747 -0.27082 0)
(0.0628984 -0.259226 0)
(0.0851712 -0.241648 0)
(0.100624 -0.219825 0)
(0.109026 -0.195384 0)
(0.110655 -0.169621 0)
(0.106229 -0.143008 0)
(0.00899309 -0.30555 0)
(0.0437829 -0.300392 0)
(0.0743301 -0.287966 0)
(0.0989975 -0.269767 0)
(0.116912 -0.247498 0)
(0.127842 -0.222724 0)
(0.132036 -0.196701 0)
(0.130289 -0.169873 0)
(0.017481 -0.33499 0)
(0.0546057 -0.328689 0)
(0.0874337 -0.315475 0)
(0.114468 -0.296791 0)
(0.134909 -0.274234 0)
(0.148571 -0.249333 0)
(0.155659 -0.223308 0)
(0.157045 -0.196572 0)
(0.0284031 -0.363152 0)
(0.067696 -0.35568 0)
(0.10269 -0.341683 0)
(0.132065 -0.322548 0)
(0.155145 -0.299768 0)
(0.171709 -0.274782 0)
(0.181974 -0.248815 0)
(0.186871 -0.222261 0)
(0.0424305 -0.389898 0)
(0.0835967 -0.381103 0)
(0.120604 -0.366249 0)
(0.15233 -0.346637 0)
(0.178146 -0.323624 0)
(0.19785 -0.298482 0)
(0.21161 -0.272401 0)
(0.220375 -0.245831 0)
(0.0600944 -0.414709 0)
(0.102892 -0.404396 0)
(0.141791 -0.388572 0)
(0.175872 -0.36834 0)
(0.204587 -0.344887 0)
(0.227727 -0.319393 0)
(0.245361 -0.292891 0)
(0.258424 -0.265793 0)
(0.0823032 -0.436765 0)
(0.126358 -0.424729 0)
(0.166969 -0.407729 0)
(0.203428 -0.386617 0)
(0.23527 -0.362317 0)
(0.262203 -0.335839 0)
(0.284177 -0.308163 0)
(0.301947 -0.279667 0)
(0.109294 -0.454163 0)
(0.154077 -0.440214 0)
(0.196179 -0.421735 0)
(0.235007 -0.399323 0)
(0.270118 -0.373618 0)
(0.301172 -0.345345 0)
(0.328082 -0.315188 0)
(0.351204 -0.283502 0)
(0.139432 -0.462023 0)
(0.184047 -0.446132 0)
(0.226889 -0.425944 0)
(0.267547 -0.401654 0)
(0.305627 -0.373495 0)
(0.340764 -0.34174 0)
(0.37262 -0.306694 0)
(0.400887 -0.268694 0)
)
;

boundaryField
{
    walls
    {
        type            cellMotion;
        value           uniform (0 0 0);
    }
    cylinder
    {
        type            cellMotion;
        value           nonuniform List<vector> 
16
(
(0.425293 -0.228106 0)
(0.445604 -0.185322 0)
(0.461623 -0.140753 0)
(0.473196 -0.094828 0)
(0.480212 -0.0479901 0)
(0.482604 -0.000689962 0)
(0.480347 0.0466168 0)
(0.473465 0.0934746 0)
(0.139432 -0.462023 0)
(0.184047 -0.446132 0)
(0.226889 -0.425944 0)
(0.267547 -0.401654 0)
(0.305627 -0.373495 0)
(0.340764 -0.34174 0)
(0.37262 -0.306694 0)
(0.400887 -0.268694 0)
)
;
    }
    outlet
    {
        type            cellMotion;
        value           nonuniform List<vector> 0();
    }
    inlet
    {
        type            cellMotion;
        value           uniform (0 0 0);
    }
    frontAndBack
    {
        type            empty;
    }
    procBoundary0to1
    {
        type            processor;
        value           nonuniform List<vector> 
16
(
(0.0211088 -0.00210213 0)
(0.0625428 -0.00513844 0)
(0.102 -0.00693362 0)
(0.139604 -0.00754389 0)
(0.175586 -0.00696234 0)
(0.210031 -0.00513561 0)
(0.243168 -0.00195125 0)
(0.27503 0.00273743 0)
(0.305673 0.00916033 0)
(0.335071 0.017608 0)
(0.363243 0.0285394 0)
(0.389959 0.0425016 0)
(0.41476 0.0601421 0)
(0.436796 0.0822869 0)
(0.454178 0.109273 0)
(0.462023 0.139432 0)
)
;
    }
    procBoundary0to2
    {
        type            processor;
        value           nonuniform List<vector> 
16
(
(-0.00516568 -0.0196357 0)
(-0.0139517 -0.0588744 0)
(-0.0209836 -0.0969837 0)
(-0.0263552 -0.133881 0)
(-0.0300991 -0.169684 0)
(-0.0322204 -0.204346 0)
(-0.0326241 -0.23802 0)
(-0.031212 -0.270724 0)
(-0.027726 -0.302544 0)
(-0.0219313 -0.33333 0)
(-0.0133363 -0.363101 0)
(-0.00138917 -0.391692 0)
(0.0147229 -0.418664 0)
(0.0357833 -0.443121 0)
(0.0625159 -0.463107 0)
(0.0934746 -0.473465 0)
)
;
    }
}


// ************************************************************************* //
