/*--------------------------------*- C++ -*----------------------------------*\
| =========                 |                                                 |
| \\      /  F ield         | OpenFOAM: The Open Source CFD Toolbox           |
|  \\    /   O peration     | Version:  2412                                  |
|   \\  /    A nd           | Website:  www.openfoam.com                      |
|    \\/     M anipulation  |                                                 |
\*---------------------------------------------------------------------------*/
FoamFile
{
    version     2.0;
    format      ascii;
    arch        "LSB;label=32;scalar=64";
    class       surfaceScalarField;
    location    "0.8";
    object      meshPhi;
}
// * * * * * * * * * * * * * * * * * * * * * * * * * * * * * * * * * * * * * //

dimensions      [0 3 -1 0 0 0 0];

internalField   nonuniform List<scalar> 
480
(
0.00072471
-0.00178052
-0.000811943
0.000729658
-0.00235407
0.000821972
-0.00317548
0.000890166
-0.00383345
0.000969952
-0.00418878
0.00108361
-0.00418839
0.0012511
-0.00367477
-0.00267812
0.00226502
-0.00393779
-0.00247313
0.00237356
-0.00504806
0.00261444
-0.00648143
0.00278025
-0.00744787
0.00299586
-0.00786883
0.00332817
-0.00770988
0.00380239
-0.0066931
-0.00487051
0.00395641
-0.0062642
-0.00427409
0.0042284
-0.00762094
0.00464332
-0.00947737
0.00489662
-0.0107692
0.0051737
-0.011159
0.0057009
-0.0107103
0.00639656
-0.00920333
-0.00665286
0.00583526
-0.00867906
-0.00629625
0.00612455
-0.0100034
0.00669785
-0.0118159
0.00717252
-0.0132706
0.00753288
-0.0137805
0.00819495
-0.0130915
0.00900526
-0.0111031
-0.00800092
0.0080659
-0.0111984
-0.00865916
0.00831436
-0.0125137
0.00882162
-0.0140907
0.00951156
-0.0152722
0.0101101
-0.0157885
0.0108236
-0.014998
0.0116162
-0.0125728
-0.00897822
0.0107407
-0.0135686
-0.0114098
0.0110972
-0.0149549
0.0114468
-0.0164345
0.0121242
-0.0172428
0.0128903
-0.0174034
0.0135675
-0.0163177
0.0142393
-0.0135586
-0.00963136
0.0138269
-0.0156209
-0.0145258
0.0143262
-0.0169472
0.0146796
-0.018313
0.0152295
-0.0189032
0.015883
-0.018657
0.0164223
-0.0171826
0.0169284
-0.0141842
-0.0100681
0.017343
-0.0173424
-0.0180635
0.0178875
-0.0185133
0.0182609
-0.0196066
0.0186558
-0.0198857
0.0190505
-0.0192736
0.0193651
-0.0174869
0.0196948
-0.0143416
-0.0102123
0.0213694
-0.0186435
-0.0221737
0.0217982
-0.0195563
0.0220556
-0.0202399
0.0222422
-0.0201535
0.0223411
-0.0191866
0.0223864
-0.0171672
0.0225089
-0.0140116
-0.0100018
0.0259074
-0.0192987
-0.0269484
0.0260581
-0.0198991
0.0260863
-0.0201366
0.0259855
-0.0196661
0.0257539
-0.0184273
0.0254892
-0.0163121
0.0253427
-0.0132833
-0.00953283
0.0309578
-0.0190916
-0.0323426
0.0306589
-0.0193528
0.0302917
-0.0190986
0.0297974
-0.0182732
0.0292005
-0.0168606
0.0286141
-0.0148019
0.0281782
-0.012067
-0.00877586
0.0363962
-0.0176779
-0.0382274
0.035476
-0.0175451
0.0345537
-0.016819
0.0335886
-0.0157176
0.0326176
-0.0142838
0.0317258
-0.0124607
0.0310581
-0.0102216
-0.00757312
0.0420936
-0.0150022
-0.0445048
0.0404345
-0.0144799
0.0388171
-0.0133345
0.0373164
-0.012076
0.0359367
-0.0107659
0.0347617
-0.00930985
0.0339357
-0.00766286
-0.0057259
0.048169
-0.0109252
-0.0512703
0.0455678
-0.0102085
0.0430976
-0.00891363
0.0409075
-0.00771241
0.0390302
-0.00660387
0.037558
-0.00552064
0.0365557
-0.00435888
-0.00305702
0.0539648
-0.00466248
-0.0579127
0.0501835
-0.00411623
0.0467509
-0.00334989
0.0437945
-0.00265219
0.041396
-0.00201393
0.0396099
-0.00139653
0.038474
-0.000767349
-0.000116978
0.0516041
-0.0564478
0.0471359
0.0432989
0.0401702
0.0377935
0.036194
0.0353838
0.00179007
-0.00195537
0.00196011
-0.000529793
0.00200695
0.00095983
0.00197441
0.00223393
0.00171689
0.00287387
0.0013239
0.00282561
0.000959122
0.00255331
0.00242851
0.00528589
-0.00359755
0.00571199
-0.00109967
0.0057776
0.00149215
0.00566633
0.00369477
0.00503127
0.0049334
0.0040341
0.00511377
0.00298915
0.00473863
0.00430391
0.00848662
-0.00494721
0.00902254
-0.00170754
0.00910849
0.00163528
0.00892162
0.00451232
0.00811525
0.00626064
0.00680091
0.00675906
0.00521455
0.00639311
0.0056708
0.0112891
-0.00602295
0.011771
-0.00225975
0.0120411
0.00161308
0.0118295
0.00491777
0.0109846
0.00704871
0.00954809
0.0078664
0.00759771
0.00759263
0.00669431
0.0138642
-0.00673721
0.0142633
-0.0026641
0.0146917
0.00150108
0.01451
0.00504581
0.0137164
0.00743544
0.0123007
0.00854138
0.0101729
0.00842976
0.00751236
0.0163149
-0.00704305
0.0168002
-0.00283425
0.0171893
0.00138349
0.0170592
0.0049898
0.0163973
0.00754962
0.0151083
0.00889414
0.0129482
0.00894865
0.00812077
0.0187115
-0.00704651
0.0192925
-0.00278424
0.0196065
0.00132371
0.019563
0.00485889
0.0190838
0.00747213
0.0179286
0.00892284
0.0158593
0.00911003
0.00850376
0.0212169
-0.00686134
0.0217011
-0.00266619
0.0219956
0.00129208
0.0220618
0.00466122
0.0217352
0.00719446
0.0207452
0.00868452
0.0189734
0.00905117
0.00870859
0.0237497
-0.00635273
0.0240869
-0.00232025
0.0243841
0.0014077
0.0245461
0.00453986
0.0243933
0.00693292
0.0237382
0.00842697
0.0224886
0.00893782
0.0088429
0.0262407
-0.00567656
0.0265022
-0.00189073
0.0268386
0.00159056
0.0271334
0.00451294
0.0272574
0.00675761
0.0271028
0.00820327
0.0265613
0.00878309
0.00882318
0.028706
-0.00482994
0.0289866
-0.00138187
0.0294374
0.00178644
0.0299664
0.0044521
0.0304835
0.00649454
0.0309493
0.00780911
0.0312233
0.00836693
0.00847307
0.0311802
-0.00359978
0.0315538
-0.000693432
0.0322189
0.00195286
0.0330998
0.00416251
0.0341437
0.00584739
0.0353093
0.00692549
0.0363694
0.00743681
0.00764971
0.0337177
-0.00213186
0.0342357
7.83525e-05
0.0352057
0.00203632
0.0365495
0.00362173
0.0382331
0.00478755
0.0401386
0.00557524
0.0419813
0.00604822
0.00634116
0.0362555
-0.000598384
0.0370231
0.000808907
0.038391
0.00200751
0.04028
0.00295041
0.0426385
0.00363386
0.0453147
0.0041332
0.0480578
0.00453521
0.0048465
0.0384206
0.000851622
0.0395017
0.00147706
0.0413098
0.00201901
0.043753
0.00246278
0.0467649
0.00282292
0.0502275
0.00310268
0.0539433
0.00336399
0.00359349
0.0361227
0.0375796
0.039696
0.0423758
0.0455255
0.0490274
0.0527285
)
;

boundaryField
{
    walls
    {
        type            calculated;
        value           uniform 0;
    }
    cylinder
    {
        type            calculated;
        value           nonuniform List<scalar> 
16
(
9.52745e-12
-1.88171e-11
-1.21524e-11
1.6776e-11
-5.95619e-12
3.27514e-12
9.87054e-12
-8.03828e-12
8.03875e-12
-9.87027e-12
-3.27399e-12
5.95697e-12
-1.67745e-11
1.21528e-11
1.88197e-11
-9.52623e-12
)
;
    }
    outlet
    {
        type            calculated;
        value           nonuniform List<scalar> 0();
    }
    inlet
    {
        type            calculated;
        value           uniform 0;
    }
    frontAndBack
    {
        type            empty;
    }
    procBoundary0to1
    {
        type            processor;
        value           nonuniform List<scalar> 
16
(
0.00153211
0.00452589
0.00736879
0.0101086
0.0127089
0.0150873
0.0174717
0.0200851
0.0227736
0.0254184
0.0280541
0.0307369
0.0334703
0.0360539
0.0380404
0.0353572
)
;
    }
    procBoundary0to2
    {
        type            processor;
        value           nonuniform List<scalar> 
16
(
-0.00157653
-0.00469953
-0.00771545
-0.0106314
-0.0133778
-0.0158437
-0.0182557
-0.0208516
-0.0234975
-0.0260841
-0.0286279
-0.0311546
-0.0336901
-0.0361274
-0.0380772
-0.0353717
)
;
    }
}


// ************************************************************************* //
