/*--------------------------------*- C++ -*----------------------------------*\
| =========                 |                                                 |
| \\      /  F ield         | OpenFOAM: The Open Source CFD Toolbox           |
|  \\    /   O peration     | Version:  2412                                  |
|   \\  /    A nd           | Website:  www.openfoam.com                      |
|    \\/     M anipulation  |                                                 |
\*---------------------------------------------------------------------------*/
FoamFile
{
    version     2.0;
    format      ascii;
    arch        "LSB;label=32;scalar=64";
    class       pointVectorField;
    location    "0.8";
    object      pointDisplacement;
}
// * * * * * * * * * * * * * * * * * * * * * * * * * * * * * * * * * * * * * //

dimensions      [0 1 0 0 0 0 0];

internalField   nonuniform List<vector> 
578
(
(0 0 0)
(0 0 0)
(0 0 0)
(0 0 0)
(0 0 0)
(0 0 0)
(0 0 0)
(0 0 0)
(0 0 0)
(0.00587317 -0.0082788 0)
(0.00794012 -0.0107636 0)
(0.0120805 -0.0147601 0)
(0.0166038 -0.017401 0)
(0.0216038 -0.0185658 0)
(0.0269659 -0.0180918 0)
(0.0323333 -0.0158626 0)
(0.0371424 -0.0119243 0)
(0.0406026 -0.00659561 0)
(0.0148241 -0.0208327 0)
(0.0188617 -0.0249275 0)
(0.0269221 -0.0316766 0)
(0.0357314 -0.0357866 0)
(0.0453762 -0.0370761 0)
(0.0555396 -0.0352745 0)
(0.0655214 -0.0302512 0)
(0.0742013 -0.0221759 0)
(0.0801838 -0.0117365 0)
(0.0264866 -0.0369594 0)
(0.0324776 -0.0418268 0)
(0.0441866 -0.0500749 0)
(0.0569756 -0.0545476 0)
(0.0708267 -0.0550292 0)
(0.0851715 -0.0511874 0)
(0.098954 -0.0429457 0)
(0.110561 -0.0306605 0)
(0.118217 -0.0154176 0)
(0.0407059 -0.0561545 0)
(0.0487011 -0.0610181 0)
(0.0638059 -0.0695867 0)
(0.0802468 -0.0733915 0)
(0.0978414 -0.0722202 0)
(0.115738 -0.0657281 0)
(0.132497 -0.0539231 0)
(0.146164 -0.0374174 0)
(0.154798 -0.0176862 0)
(0.0573719 -0.0778752 0)
(0.0674577 -0.0820166 0)
(0.0857245 -0.0898159 0)
(0.105476 -0.0920139 0)
(0.126313 -0.0884269 0)
(0.147089 -0.0787514 0)
(0.166025 -0.0631252 0)
(0.180989 -0.0424498 0)
(0.190026 -0.0185336 0)
(0.0764283 -0.101545 0)
(0.0887041 -0.104301 0)
(0.109888 -0.11032 0)
(0.132582 -0.110064 0)
(0.156119 -0.103384 0)
(0.179069 -0.0900694 0)
(0.199441 -0.0704516 0)
(0.215042 -0.0457088 0)
(0.224007 -0.0179003 0)
(0.097886 -0.126566 0)
(0.112436 -0.127316 0)
(0.136261 -0.130614 0)
(0.161486 -0.127132 0)
(0.187144 -0.116775 0)
(0.211582 -0.0994648 0)
(0.232701 -0.0757651 0)
(0.248357 -0.0470889 0)
(0.256849 -0.0156691 0)
(0.121842 -0.15231 0)
(0.138714 -0.150457 0)
(0.164868 -0.150175 0)
(0.192149 -0.142765 0)
(0.219321 -0.128229 0)
(0.244569 -0.106663 0)
(0.265789 -0.0788547 0)
(0.280971 -0.046411 0)
(0.288602 -0.011662 0)
(0.148492 -0.1781 0)
(0.167666 -0.17305 0)
(0.195782 -0.168391 0)
(0.224596 -0.156428 0)
(0.252638 -0.137298 0)
(0.278015 -0.111296 0)
(0.298702 -0.0794182 0)
(0.312865 -0.0434134 0)
(0.319254 -0.00562253 0)
(0.17813 -0.203137 0)
(0.199537 -0.1943 0)
(0.22919 -0.184526 0)
(0.258932 -0.167451 0)
(0.287122 -0.14339 0)
(0.311888 -0.112857 0)
(0.331354 -0.0770304 0)
(0.343953 -0.0377212 0)
(0.348775 0.00281496 0)
(0.211221 -0.226397 0)
(0.234715 -0.213152 0)
(0.265349 -0.197572 0)
(0.295272 -0.174906 0)
(0.322761 -0.145682 0)
(0.346074 -0.11064 0)
(0.363604 -0.0710894 0)
(0.374128 -0.0287959 0)
(0.377071 0.0141626 0)
(0.248432 -0.246467 0)
(0.273679 -0.228081 0)
(0.304519 -0.206053 0)
(0.33366 -0.177444 0)
(0.359433 -0.143007 0)
(0.380355 -0.103656 0)
(0.395192 -0.0607416 0)
(0.403116 -0.0159015 0)
(0.403827 0.0290611 0)
(0.290562 -0.261225 0)
(0.316948 -0.23684 0)
(0.34685 -0.20781 0)
(0.373902 -0.173129 0)
(0.3967 -0.133738 0)
(0.414163 -0.090596 0)
(0.425497 -0.0449391 0)
(0.430257 0.00183475 0)
(0.428376 0.0482775 0)
(0.338127 -0.267231 0)
(0.364597 -0.235905 0)
(0.391756 -0.199732 0)
(0.414872 -0.159437 0)
(0.433124 -0.115897 0)
(0.445954 -0.0699387 0)
(0.452994 -0.0225259 0)
(0.454093 0.0253054 0)
(0.449325 0.0724989 0)
(0.388262 -0.257952 0)
(0.412571 -0.219509 0)
(0.434238 -0.177822 0)
(0.451415 -0.133764 0)
(0.463818 -0.0879177 0)
(0.471262 -0.0408618 0)
(0.473638 0.00677988 0)
(0.470928 0.0543596 0)
(0.463205 0.101227 0)
(0.414087 -0.249 0)
(0.436499 -0.207213 0)
(0.454708 -0.163431 0)
(0.468537 -0.118075 0)
(0.477855 -0.0715814 0)
(0.48257 -0.0243988 0)
(0.482638 0.0230188 0)
(0.478057 0.0702148 0)
(0.468873 0.116734 0)
(0 0 0)
(0 0 0)
(0 0 0)
(0 0 0)
(0 0 0)
(0 0 0)
(0 0 0)
(0 0 0)
(0 0 0)
(0.00587317 -0.0082788 0)
(0.00794012 -0.0107636 0)
(0.0120805 -0.0147601 0)
(0.0166038 -0.017401 0)
(0.0216038 -0.0185658 0)
(0.0269659 -0.0180918 0)
(0.0323333 -0.0158626 0)
(0.0371424 -0.0119243 0)
(0.0406026 -0.00659561 0)
(0.0148241 -0.0208327 0)
(0.0188617 -0.0249275 0)
(0.0269221 -0.0316766 0)
(0.0357314 -0.0357866 0)
(0.0453762 -0.0370761 0)
(0.0555396 -0.0352745 0)
(0.0655214 -0.0302512 0)
(0.0742013 -0.0221759 0)
(0.0801838 -0.0117365 0)
(0.0264866 -0.0369594 0)
(0.0324776 -0.0418268 0)
(0.0441866 -0.0500749 0)
(0.0569756 -0.0545476 0)
(0.0708267 -0.0550292 0)
(0.0851715 -0.0511874 0)
(0.098954 -0.0429457 0)
(0.110561 -0.0306605 0)
(0.118217 -0.0154176 0)
(0.0407059 -0.0561545 0)
(0.0487011 -0.0610181 0)
(0.0638059 -0.0695867 0)
(0.0802468 -0.0733915 0)
(0.0978414 -0.0722202 0)
(0.115738 -0.0657281 0)
(0.132497 -0.0539231 0)
(0.146164 -0.0374174 0)
(0.154798 -0.0176862 0)
(0.0573719 -0.0778752 0)
(0.0674577 -0.0820166 0)
(0.0857245 -0.0898159 0)
(0.105476 -0.0920139 0)
(0.126313 -0.0884269 0)
(0.147089 -0.0787514 0)
(0.166025 -0.0631252 0)
(0.180989 -0.0424498 0)
(0.190026 -0.0185336 0)
(0.0764283 -0.101545 0)
(0.0887041 -0.104301 0)
(0.109888 -0.11032 0)
(0.132582 -0.110064 0)
(0.156119 -0.103384 0)
(0.179069 -0.0900694 0)
(0.199441 -0.0704516 0)
(0.215042 -0.0457088 0)
(0.224007 -0.0179003 0)
(0.097886 -0.126566 0)
(0.112436 -0.127316 0)
(0.136261 -0.130614 0)
(0.161486 -0.127132 0)
(0.187144 -0.116775 0)
(0.211582 -0.0994648 0)
(0.232701 -0.0757651 0)
(0.248357 -0.0470889 0)
(0.256849 -0.0156691 0)
(0.121842 -0.15231 0)
(0.138714 -0.150457 0)
(0.164868 -0.150175 0)
(0.192149 -0.142765 0)
(0.219321 -0.128229 0)
(0.244569 -0.106663 0)
(0.265789 -0.0788547 0)
(0.280971 -0.046411 0)
(0.288602 -0.011662 0)
(0.148492 -0.1781 0)
(0.167666 -0.17305 0)
(0.195782 -0.168391 0)
(0.224596 -0.156428 0)
(0.252638 -0.137298 0)
(0.278015 -0.111296 0)
(0.298702 -0.0794182 0)
(0.312865 -0.0434134 0)
(0.319254 -0.00562253 0)
(0.17813 -0.203137 0)
(0.199537 -0.1943 0)
(0.22919 -0.184526 0)
(0.258932 -0.167451 0)
(0.287122 -0.14339 0)
(0.311888 -0.112857 0)
(0.331354 -0.0770304 0)
(0.343953 -0.0377212 0)
(0.348775 0.00281496 0)
(0.211221 -0.226397 0)
(0.234715 -0.213152 0)
(0.265349 -0.197572 0)
(0.295272 -0.174906 0)
(0.322761 -0.145682 0)
(0.346074 -0.11064 0)
(0.363604 -0.0710894 0)
(0.374128 -0.0287959 0)
(0.377071 0.0141626 0)
(0.248432 -0.246467 0)
(0.273679 -0.228081 0)
(0.304519 -0.206053 0)
(0.33366 -0.177444 0)
(0.359433 -0.143007 0)
(0.380355 -0.103656 0)
(0.395192 -0.0607416 0)
(0.403116 -0.0159015 0)
(0.403827 0.0290611 0)
(0.290562 -0.261225 0)
(0.316948 -0.23684 0)
(0.34685 -0.20781 0)
(0.373902 -0.173129 0)
(0.3967 -0.133738 0)
(0.414163 -0.090596 0)
(0.425497 -0.0449391 0)
(0.430257 0.00183475 0)
(0.428376 0.0482775 0)
(0.338127 -0.267231 0)
(0.364597 -0.235905 0)
(0.391756 -0.199732 0)
(0.414872 -0.159437 0)
(0.433124 -0.115897 0)
(0.445954 -0.0699387 0)
(0.452994 -0.0225259 0)
(0.454093 0.0253054 0)
(0.449325 0.0724989 0)
(0.388262 -0.257952 0)
(0.412571 -0.219509 0)
(0.434238 -0.177822 0)
(0.451415 -0.133764 0)
(0.463818 -0.0879177 0)
(0.471262 -0.0408618 0)
(0.473638 0.00677988 0)
(0.470928 0.0543596 0)
(0.463205 0.101227 0)
(0.414087 -0.249 0)
(0.436499 -0.207213 0)
(0.454708 -0.163431 0)
(0.468537 -0.118075 0)
(0.477855 -0.0715814 0)
(0.48257 -0.0243988 0)
(0.482638 0.0230188 0)
(0.478057 0.0702148 0)
(0.468873 0.116734 0)
(0 0 0)
(0 0 0)
(0 0 0)
(0 0 0)
(0 0 0)
(0 0 0)
(0 0 0)
(0 0 0)
(-0.00663237 -0.0405526 0)
(-0.00057696 -0.0418981 0)
(0.00522473 -0.0407527 0)
(0.00979932 -0.0372593 0)
(0.0124315 -0.0319477 0)
(0.0128492 -0.0255107 0)
(0.0112315 -0.0186675 0)
(0.00800969 -0.0118517 0)
(-0.011805 -0.080099 0)
(-0.000283038 -0.0822287 0)
(0.0106274 -0.0799905 0)
(0.0192938 -0.0736582 0)
(0.0245488 -0.0641228 0)
(0.0259352 -0.0525689 0)
(0.0236724 -0.040144 0)
(0.018366 -0.027565 0)
(-0.0155136 -0.118108 0)
(0.000886088 -0.120515 0)
(0.0162547 -0.117197 0)
(0.0285564 -0.108577 0)
(0.0363709 -0.0957901 0)
(0.039133 -0.0803397 0)
(0.037034 -0.0635965 0)
(0.0307082 -0.0464304 0)
(-0.0178057 -0.154676 0)
(0.0029622 -0.156983 0)
(0.0222619 -0.152604 0)
(0.0378383 -0.142135 0)
(0.0481602 -0.126895 0)
(0.0526054 -0.108553 0)
(0.0513157 -0.0885863 0)
(0.0448925 -0.0679306 0)
(-0.0186728 -0.189896 0)
(0.00602761 -0.191832 0)
(0.0288258 -0.186432 0)
(0.0473933 -0.174459 0)
(0.0601821 -0.1574 0)
(0.0665486 -0.13698 0)
(0.0665867 -0.11471 0)
(0.0608516 -0.0915447 0)
(-0.0180543 -0.223873 0)
(0.0101973 -0.225205 0)
(0.0361415 -0.218814 0)
(0.0574777 -0.205632 0)
(0.0727067 -0.187253 0)
(0.081188 -0.165404 0)
(0.0829765 -0.141591 0)
(0.0785926 -0.116753 0)
(-0.0158327 -0.256715 0)
(0.0156346 -0.257221 0)
(0.044431 -0.249855 0)
(0.0683661 -0.235704 0)
(0.0860212 -0.216391 0)
(0.096779 -0.193618 0)
(0.100668 -0.168859 0)
(0.0981953 -0.143031 0)
(-0.0118287 -0.288472 0)
(0.0225478 -0.287954 0)
(0.0539577 -0.279628 0)
(0.0803604 -0.26468 0)
(0.100439 -0.244717 0)
(0.113619 -0.221394 0)
(0.119915 -0.196148 0)
(0.119836 -0.169857 0)
(-0.00578424 -0.319134 0)
(0.0312281 -0.317431 0)
(0.0650491 -0.308154 0)
(0.0938174 -0.292525 0)
(0.116333 -0.272101 0)
(0.132074 -0.24848 0)
(0.141049 -0.223053 0)
(0.143785 -0.196664 0)
(0.00266837 -0.348671 0)
(0.0420595 -0.34565 0)
(0.0781169 -0.335402 0)
(0.109173 -0.319146 0)
(0.134156 -0.29836 0)
(0.152596 -0.274558 0)
(0.164495 -0.249092 0)
(0.170407 -0.222782 0)
(0.0140435 -0.376985 0)
(0.0555454 -0.372477 0)
(0.0936568 -0.361196 0)
(0.12693 -0.344297 0)
(0.154428 -0.323165 0)
(0.175721 -0.299189 0)
(0.190797 -0.273648 0)
(0.200218 -0.247363 0)
(0.028984 -0.403762 0)
(0.0722675 -0.397542 0)
(0.11223 -0.385094 0)
(0.147654 -0.367464 0)
(0.177736 -0.345889 0)
(0.20208 -0.321617 0)
(0.220641 -0.295815 0)
(0.233942 -0.269258 0)
(0.0482483 -0.428332 0)
(0.0929271 -0.420162 0)
(0.134511 -0.406367 0)
(0.172017 -0.387826 0)
(0.204787 -0.365555 0)
(0.232442 -0.340627 0)
(0.25486 -0.314092 0)
(0.272463 -0.286655 0)
(0.0725037 -0.449301 0)
(0.118028 -0.438976 0)
(0.160906 -0.423609 0)
(0.200397 -0.40386 0)
(0.235951 -0.380481 0)
(0.26718 -0.354296 0)
(0.293891 -0.326155 0)
(0.316325 -0.296658 0)
(0.101234 -0.463199 0)
(0.146755 -0.450638 0)
(0.190331 -0.43351 0)
(0.23143 -0.412168 0)
(0.269595 -0.38703 0)
(0.30444 -0.35856 0)
(0.335682 -0.327256 0)
(0.363228 -0.293535 0)
(0.116734 -0.468873 0)
(0.16213 -0.455173 0)
(0.205964 -0.43709 0)
(0.247815 -0.414797 0)
(0.287279 -0.38851 0)
(0.323976 -0.358481 0)
(0.357553 -0.325 0)
(0.387687 -0.288388 0)
(0 0 0)
(0 0 0)
(0 0 0)
(0 0 0)
(0 0 0)
(0 0 0)
(0 0 0)
(0 0 0)
(-0.00663237 -0.0405526 0)
(-0.00057696 -0.0418981 0)
(0.00522473 -0.0407527 0)
(0.00979932 -0.0372593 0)
(0.0124315 -0.0319477 0)
(0.0128492 -0.0255107 0)
(0.0112315 -0.0186675 0)
(0.00800969 -0.0118517 0)
(-0.011805 -0.080099 0)
(-0.000283038 -0.0822287 0)
(0.0106274 -0.0799905 0)
(0.0192938 -0.0736582 0)
(0.0245488 -0.0641228 0)
(0.0259352 -0.0525689 0)
(0.0236724 -0.040144 0)
(0.018366 -0.027565 0)
(-0.0155136 -0.118108 0)
(0.000886088 -0.120515 0)
(0.0162547 -0.117197 0)
(0.0285564 -0.108577 0)
(0.0363709 -0.0957901 0)
(0.039133 -0.0803397 0)
(0.037034 -0.0635965 0)
(0.0307082 -0.0464304 0)
(-0.0178057 -0.154676 0)
(0.0029622 -0.156983 0)
(0.0222619 -0.152604 0)
(0.0378383 -0.142135 0)
(0.0481602 -0.126895 0)
(0.0526054 -0.108553 0)
(0.0513157 -0.0885863 0)
(0.0448925 -0.0679306 0)
(-0.0186728 -0.189896 0)
(0.00602761 -0.191832 0)
(0.0288258 -0.186432 0)
(0.0473933 -0.174459 0)
(0.0601821 -0.1574 0)
(0.0665486 -0.13698 0)
(0.0665867 -0.11471 0)
(0.0608516 -0.0915447 0)
(-0.0180543 -0.223873 0)
(0.0101973 -0.225205 0)
(0.0361415 -0.218814 0)
(0.0574777 -0.205632 0)
(0.0727067 -0.187253 0)
(0.081188 -0.165404 0)
(0.0829765 -0.141591 0)
(0.0785926 -0.116753 0)
(-0.0158327 -0.256715 0)
(0.0156346 -0.257221 0)
(0.044431 -0.249855 0)
(0.0683661 -0.235704 0)
(0.0860212 -0.216391 0)
(0.096779 -0.193618 0)
(0.100668 -0.168859 0)
(0.0981953 -0.143031 0)
(-0.0118287 -0.288472 0)
(0.0225478 -0.287954 0)
(0.0539577 -0.279628 0)
(0.0803604 -0.26468 0)
(0.100439 -0.244717 0)
(0.113619 -0.221394 0)
(0.119915 -0.196148 0)
(0.119836 -0.169857 0)
(-0.00578424 -0.319134 0)
(0.0312281 -0.317431 0)
(0.0650491 -0.308154 0)
(0.0938174 -0.292525 0)
(0.116333 -0.272101 0)
(0.132074 -0.24848 0)
(0.141049 -0.223053 0)
(0.143785 -0.196664 0)
(0.00266837 -0.348671 0)
(0.0420595 -0.34565 0)
(0.0781169 -0.335402 0)
(0.109173 -0.319146 0)
(0.134156 -0.29836 0)
(0.152596 -0.274558 0)
(0.164495 -0.249092 0)
(0.170407 -0.222782 0)
(0.0140435 -0.376985 0)
(0.0555454 -0.372477 0)
(0.0936568 -0.361196 0)
(0.12693 -0.344297 0)
(0.154428 -0.323165 0)
(0.175721 -0.299189 0)
(0.190797 -0.273648 0)
(0.200218 -0.247363 0)
(0.028984 -0.403762 0)
(0.0722675 -0.397542 0)
(0.11223 -0.385094 0)
(0.147654 -0.367464 0)
(0.177736 -0.345889 0)
(0.20208 -0.321617 0)
(0.220641 -0.295815 0)
(0.233942 -0.269258 0)
(0.0482483 -0.428332 0)
(0.0929271 -0.420162 0)
(0.134511 -0.406367 0)
(0.172017 -0.387826 0)
(0.204787 -0.365555 0)
(0.232442 -0.340627 0)
(0.25486 -0.314092 0)
(0.272463 -0.286655 0)
(0.0725037 -0.449301 0)
(0.118028 -0.438976 0)
(0.160906 -0.423609 0)
(0.200397 -0.40386 0)
(0.235951 -0.380481 0)
(0.26718 -0.354296 0)
(0.293891 -0.326155 0)
(0.316325 -0.296658 0)
(0.101234 -0.463199 0)
(0.146755 -0.450638 0)
(0.190331 -0.43351 0)
(0.23143 -0.412168 0)
(0.269595 -0.38703 0)
(0.30444 -0.35856 0)
(0.335682 -0.327256 0)
(0.363228 -0.293535 0)
(0.116734 -0.468873 0)
(0.16213 -0.455173 0)
(0.205964 -0.43709 0)
(0.247815 -0.414797 0)
(0.287279 -0.38851 0)
(0.323976 -0.358481 0)
(0.357553 -0.325 0)
(0.387687 -0.288388 0)
)
;

boundaryField
{
    walls
    {
        type            fixedValue;
        value           uniform (0 0 0);
    }
    cylinder
    {
        type            solidBodyMotionDisplacement;
        value           nonuniform List<vector> 
34
(
(0.414087 -0.249 0)
(0.414087 -0.249 0)
(0.436499 -0.207213 0)
(0.436499 -0.207213 0)
(0.454708 -0.163431 0)
(0.454708 -0.163431 0)
(0.468537 -0.118075 0)
(0.468537 -0.118075 0)
(0.477855 -0.0715814 0)
(0.477855 -0.0715814 0)
(0.48257 -0.0243988 0)
(0.48257 -0.0243988 0)
(0.482638 0.0230188 0)
(0.482638 0.0230188 0)
(0.478057 0.0702148 0)
(0.478057 0.0702148 0)
(0.468873 0.116734 0)
(0.468873 0.116734 0)
(0.116734 -0.468873 0)
(0.116734 -0.468873 0)
(0.16213 -0.455173 0)
(0.16213 -0.455173 0)
(0.205964 -0.43709 0)
(0.205964 -0.43709 0)
(0.247815 -0.414797 0)
(0.247815 -0.414797 0)
(0.287279 -0.38851 0)
(0.287279 -0.38851 0)
(0.323976 -0.358481 0)
(0.323976 -0.358481 0)
(0.357553 -0.325 0)
(0.357553 -0.325 0)
(0.387687 -0.288388 0)
(0.387687 -0.288388 0)
)
;
        solidBodyMotionFunction oscillatingRotatingMotion;
        oscillatingRotatingMotionCoeffs
        {
            origin          ( 0 0 0 );
            axis            ( 0 0 1 );
            omega           1.5;
            amplitude       ( 0 0 30 );
        }
    }
    outlet
    {
        type            fixedValue;
        value           nonuniform List<vector> 0();
    }
    inlet
    {
        type            fixedValue;
        value           uniform (0 0 0);
    }
    frontAndBack
    {
        type            empty;
    }
    procBoundary0to1
    {
        type            processor;
    }
    procBoundary0to2
    {
        type            processor;
    }
}


// ************************************************************************* //
