/*--------------------------------*- C++ -*----------------------------------*\
| =========                 |                                                 |
| \\      /  F ield         | OpenFOAM: The Open Source CFD Toolbox           |
|  \\    /   O peration     | Version:  2412                                  |
|   \\  /    A nd           | Website:  www.openfoam.com                      |
|    \\/     M anipulation  |                                                 |
\*---------------------------------------------------------------------------*/
FoamFile
{
    version     2.0;
    format      ascii;
    arch        "LSB;label=32;scalar=64";
    class       surfaceScalarField;
    location    "980";
    object      phi;
}
// * * * * * * * * * * * * * * * * * * * * * * * * * * * * * * * * * * * * * //

dimensions      [0 3 -1 0 0 0 0];

oriented        oriented;

internalField   nonuniform List<scalar> 
12640
(
0.00550115
6.60304e-06
-0.00550076
0.00550099
1.62414e-07
0.00550095
3.90968e-08
0.00550095
5.9883e-09
0.00550095
2.50397e-09
0.00550095
1.02361e-09
0.00550095
1.13821e-09
0.00550095
3.78966e-10
0.00550095
5.05247e-10
0.00550096
-3.33757e-10
0.00550096
8.23795e-12
0.00550096
-4.90822e-10
0.00550096
-3.05315e-10
0.00550096
-2.51022e-10
0.00550096
-5.12454e-10
0.00550096
-1.37728e-10
0.00550096
-2.71789e-10
0.00550096
-2.27679e-12
0.00550096
-3.46965e-10
0.00550096
1.92377e-10
0.00550096
-1.50808e-10
0.00550096
3.88915e-10
0.00550096
3.27298e-11
0.00550096
3.17645e-10
0.00550096
1.25139e-10
0.00550096
5.7808e-10
0.00550096
1.83549e-10
0.00550097
5.13956e-10
0.00550097
4.30058e-10
0.00550097
5.52829e-10
0.00550097
5.81811e-10
0.00550097
7.07726e-10
0.00550097
5.94254e-10
0.00550097
8.82194e-10
0.00550097
7.62658e-10
0.00550097
1.02051e-09
0.00550097
1.13312e-09
0.00550097
1.37287e-09
0.00550097
1.20808e-09
1.52357e-09
0.00550097
0.0187228
6.12418e-06
-0.0187223
0.0187226
3.55515e-07
0.0187225
1.24773e-07
0.0187225
2.21321e-08
0.0187225
2.09007e-08
0.0187225
1.19215e-08
0.0187225
1.21912e-08
0.0187225
8.88695e-09
0.0187226
8.24207e-09
0.0187226
6.46649e-09
0.0187226
6.21159e-09
0.0187226
5.14562e-09
0.0187226
4.70535e-09
0.0187226
4.86432e-09
0.0187226
4.45978e-09
0.0187226
5.00928e-09
0.0187226
4.67983e-09
0.0187226
5.09748e-09
0.0187226
4.97937e-09
0.0187226
5.82047e-09
0.0187226
5.24456e-09
0.0187226
6.09364e-09
0.0187226
5.9899e-09
0.0187226
6.48103e-09
0.0187226
6.15129e-09
0.0187226
6.95607e-09
0.0187226
6.52831e-09
0.0187226
7.46713e-09
0.0187226
7.00754e-09
0.0187226
7.66401e-09
0.0187226
7.65512e-09
0.0187226
8.74868e-09
0.0187226
8.66153e-09
0.0187226
9.26421e-09
0.0187226
9.59231e-09
0.0187226
9.5449e-09
0.0187226
1.09725e-08
0.0187226
1.43507e-08
0.0187226
1.2737e-08
1.02954e-08
0.0187226
0.0369692
5.65265e-06
-0.0369688
0.0369691
5.47771e-07
0.036969
2.21065e-07
0.036969
1.88368e-08
0.036969
2.37455e-08
0.036969
5.37611e-09
0.036969
6.50724e-09
0.036969
1.45401e-09
0.036969
1.36337e-09
0.036969
-8.67728e-10
0.036969
-8.25348e-10
0.036969
-1.82017e-09
0.036969
-1.58826e-09
0.036969
-1.0592e-09
0.036969
-1.25275e-09
0.036969
-4.27239e-10
0.036969
-5.02524e-10
0.036969
8.15831e-10
0.036969
2.85377e-10
0.0369691
1.83161e-09
0.0369691
1.29274e-09
0.0369691
2.7914e-09
0.0369691
2.23187e-09
0.0369691
3.47873e-09
0.0369691
3.29094e-09
0.0369691
4.1867e-09
0.0369691
3.72829e-09
0.0369691
4.94332e-09
0.0369691
4.76578e-09
0.0369691
5.60126e-09
0.0369691
5.46114e-09
0.0369691
6.56184e-09
0.0369691
6.79141e-09
0.0369691
7.39182e-09
0.0369691
8.41697e-09
0.0369691
7.31802e-09
0.0369691
1.02329e-08
0.0369691
1.37172e-08
0.0369691
8.14479e-09
1.49999e-08
0.0369691
0.0617541
5.15242e-06
-0.0617536
0.061754
7.56624e-07
0.0617538
3.65682e-07
0.0617538
4.62402e-08
0.0617538
4.72356e-08
0.0617538
1.37103e-08
0.0617539
1.81568e-08
0.0617539
8.70082e-09
0.0617539
7.74672e-09
0.0617539
4.07258e-09
0.0617539
4.5099e-09
0.0617539
2.65489e-09
0.0617539
2.53395e-09
0.0617539
3.30108e-09
0.0617539
2.95487e-09
0.0617539
4.76305e-09
0.0617539
4.60494e-09
0.0617539
6.29735e-09
0.061754
6.00046e-09
0.061754
8.46217e-09
0.061754
7.47708e-09
0.061754
9.88145e-09
0.061754
9.55878e-09
0.061754
1.11475e-08
0.061754
1.09206e-08
0.061754
1.28377e-08
0.061754
1.23677e-08
0.061754
1.41181e-08
0.061754
1.39979e-08
0.061754
1.47857e-08
0.061754
1.59409e-08
0.061754
1.72944e-08
0.061754
1.82649e-08
0.061754
1.83863e-08
0.061754
2.45611e-08
0.061754
2.13522e-08
0.061754
2.12929e-08
0.061754
2.43193e-08
0.061754
2.68996e-08
2.92892e-08
0.061754
0.0950054
4.65045e-06
-0.0950049
0.0950052
9.50472e-07
0.0950051
5.05654e-07
0.0950051
5.65022e-08
0.0950051
4.51106e-08
0.0950051
1.1204e-08
0.0950051
-1.35559e-09
0.0950051
-5.91273e-09
0.0950051
-8.7836e-09
0.0950051
-1.19904e-08
0.0950051
-1.24168e-08
0.0950052
-1.23313e-08
0.0950052
-1.14963e-08
0.0950052
-1.05777e-08
0.0950052
-9.96952e-09
0.0950052
-6.72571e-09
0.0950052
-6.87411e-09
0.0950052
-5.35088e-09
0.0950052
-2.84329e-09
0.0950052
-1.14589e-09
0.0950052
-1.33927e-09
0.0950053
2.16782e-10
0.0950053
2.58524e-09
0.0950053
3.70502e-09
0.0950053
3.26304e-09
0.0950053
6.19545e-09
0.0950053
6.30395e-09
0.0950053
7.72305e-09
0.0950053
8.14716e-09
0.0950053
1.04456e-08
0.0950053
1.04765e-08
0.0950053
1.23739e-08
0.0950053
1.20537e-08
0.0950053
1.96155e-08
0.0950053
1.15159e-08
0.0950053
2.12898e-08
0.0950053
2.33181e-08
0.0950053
1.6269e-08
0.0950053
2.41194e-08
2.03162e-08
0.0950053
0.139173
4.16928e-06
-0.139172
0.139172
1.15288e-06
0.139172
6.75522e-07
0.139172
1.37681e-07
0.139172
8.40893e-08
0.139172
1.45336e-08
0.139172
2.41778e-08
0.139172
4.05736e-10
0.139172
-9.32254e-09
0.139172
-1.05775e-08
0.139172
-8.87193e-09
0.139172
-1.14331e-08
0.139172
-8.32976e-09
0.139172
-8.61018e-09
0.139172
-6.01188e-09
0.139172
-3.09199e-09
0.139172
-3.07998e-09
0.139172
3.36879e-10
0.139172
1.8556e-09
0.139172
5.69136e-09
0.139173
5.38922e-09
0.139173
9.07289e-09
0.139173
1.04035e-08
0.139173
1.33264e-08
0.139173
1.3014e-08
0.139173
1.56072e-08
0.139173
1.77956e-08
0.139173
1.81979e-08
0.139173
2.14438e-08
0.139173
2.17887e-08
0.139173
2.53383e-08
0.139173
3.11808e-08
0.139173
2.72296e-08
0.139173
2.10211e-08
0.139173
4.26219e-08
0.139173
3.53221e-08
0.139173
2.88724e-08
0.139173
3.60176e-08
0.139173
4.51057e-08
4.24069e-08
0.139173
0.19736
3.7054e-06
-0.19736
0.19736
1.33063e-06
0.19736
8.08325e-07
0.19736
1.9881e-07
0.19736
9.80542e-08
0.19736
1.11862e-08
0.19736
4.44228e-09
0.19736
-3.30287e-08
0.19736
-2.39355e-08
0.19736
-3.39323e-08
0.19736
-3.34409e-08
0.19736
-3.45197e-08
0.19736
-3.32758e-08
0.19736
-2.8433e-08
0.19736
-2.77216e-08
0.19736
-2.43925e-08
0.19736
-2.07246e-08
0.19736
-1.67897e-08
0.19736
-1.41375e-08
0.19736
-1.04497e-08
0.19736
-8.69908e-09
0.19736
-5.26753e-09
0.19736
-2.97729e-09
0.19736
9.53372e-11
0.19736
3.12497e-09
0.19736
5.60157e-09
0.19736
5.51649e-09
0.19736
1.03897e-08
0.19736
1.163e-08
0.19736
1.2951e-08
0.19736
1.5884e-08
0.19736
1.36401e-08
0.19736
3.16848e-08
0.19736
1.63302e-08
0.19736
3.26902e-08
0.197361
2.86837e-08
0.197361
2.74729e-08
0.197361
3.51241e-08
0.197361
2.97259e-08
4.10697e-08
0.197361
0.273494
3.30344e-06
-0.273493
0.273494
1.51507e-06
0.273494
9.52503e-07
0.273493
3.32007e-07
0.273493
1.5284e-07
0.273493
5.76072e-08
0.273493
1.29846e-08
0.273493
-9.43651e-09
0.273493
-1.55671e-08
0.273494
-4.04302e-08
0.273494
-3.4612e-08
0.273494
-3.59974e-08
0.273494
-3.36761e-08
0.273494
-3.23945e-08
0.273494
-2.57233e-08
0.273494
-2.36193e-08
0.273494
-1.93872e-08
0.273494
-1.54005e-08
0.273494
-1.11013e-08
0.273494
-5.38339e-09
0.273494
-3.65881e-09
0.273494
1.80475e-09
0.273494
5.63797e-09
0.273494
8.76856e-09
0.273494
1.22563e-08
0.273494
1.36588e-08
0.273494
1.96491e-08
0.273494
2.14416e-08
0.273494
2.45811e-08
0.273494
2.70923e-08
0.273494
3.76551e-08
0.273494
2.44973e-08
0.273494
3.3585e-08
0.273494
4.27105e-08
0.273494
3.90622e-08
0.273494
5.48228e-08
0.273494
4.05923e-08
0.273494
7.14509e-08
0.273494
4.99138e-08
6.5628e-08
0.273494
0.372523
2.94345e-06
-0.372523
0.372523
1.64118e-06
0.372523
1.09258e-06
0.372523
4.24209e-07
0.372523
2.17714e-07
0.372523
8.1119e-08
0.372523
6.51958e-09
0.372523
-4.4671e-08
0.372523
-5.13839e-08
0.372523
-6.03682e-08
0.372523
-5.35268e-08
0.372523
-6.52955e-08
0.372523
-6.36457e-08
0.372523
-5.82487e-08
0.372523
-5.47132e-08
0.372523
-4.93734e-08
0.372523
-4.35338e-08
0.372523
-3.78888e-08
0.372523
-3.44678e-08
0.372523
-2.7594e-08
0.372523
-2.19858e-08
0.372523
-1.54292e-08
0.372523
-1.2673e-08
0.372523
-8.01346e-09
0.372523
-3.21836e-09
0.372523
1.32737e-09
0.372523
3.98223e-09
0.372523
1.0038e-08
0.372523
1.29677e-08
0.372523
6.33486e-09
0.372523
2.00906e-08
0.372523
2.69857e-08
0.372523
4.25891e-08
0.372523
3.38467e-08
0.372523
2.28229e-08
0.372523
2.9535e-08
0.372523
5.62318e-08
0.372523
4.08012e-08
0.372523
6.03565e-08
5.55347e-08
0.372523
0.500678
2.654e-06
-0.500677
0.500678
1.80064e-06
0.500677
1.22046e-06
0.500677
5.99184e-07
0.500677
3.21309e-07
0.500677
1.18518e-07
0.500677
3.34355e-08
0.500677
8.31138e-09
0.500677
-5.67146e-08
0.500677
-4.93974e-08
0.500677
-7.18004e-08
0.500677
-6.64681e-08
0.500677
-6.91641e-08
0.500677
-6.63643e-08
0.500677
-6.23032e-08
0.500678
-5.41012e-08
0.500678
-4.7107e-08
0.500678
-4.3475e-08
0.500678
-3.53744e-08
0.500678
-3.17734e-08
0.500678
-2.01595e-08
0.500678
-1.68778e-08
0.500678
-9.30764e-09
0.500678
-6.5363e-09
0.500678
-1.45916e-10
0.500678
7.71462e-09
0.500678
1.19622e-08
0.500678
1.65738e-08
0.500678
1.78906e-08
0.500678
3.11827e-08
0.500678
2.18182e-08
0.500678
5.18225e-08
0.500678
2.1957e-08
0.500678
5.59712e-08
0.500678
6.51294e-08
0.500678
4.26437e-08
0.500678
6.00485e-08
0.500678
7.02291e-08
0.500678
7.33179e-08
6.61958e-08
0.500678
0.66578
2.37841e-06
-0.665779
0.665779
1.89973e-06
0.665779
1.34353e-06
0.665779
7.34041e-07
0.665779
4.101e-07
0.665779
1.95464e-07
0.665779
7.15288e-08
0.665779
-1.81041e-08
0.665779
-3.3089e-08
0.665779
-7.93134e-08
0.665779
-8.51586e-08
0.665779
-1.0194e-07
0.665779
-9.80457e-08
0.665779
-9.26164e-08
0.665779
-8.76573e-08
0.665779
-8.4145e-08
0.665779
-7.57732e-08
0.665779
-6.85214e-08
0.665779
-6.24053e-08
0.665779
-5.07083e-08
0.665779
-4.76159e-08
0.66578
-3.61572e-08
0.66578
-3.04167e-08
0.66578
-2.36807e-08
0.66578
-1.54005e-08
0.66578
-1.13296e-08
0.66578
-4.97202e-09
0.66578
4.30954e-09
0.66578
1.52416e-08
0.66578
1.0902e-08
0.66578
2.4834e-08
0.66578
1.09846e-08
0.66578
4.56161e-08
0.66578
3.63629e-08
0.66578
3.98262e-08
0.66578
4.26388e-08
0.66578
6.04948e-08
0.66578
5.2824e-08
0.66578
7.52554e-08
8.7147e-08
0.66578
0.87763
2.18797e-06
-0.87763
0.87763
1.99283e-06
0.87763
1.45349e-06
0.87763
8.84446e-07
0.87763
5.43071e-07
0.87763
2.95896e-07
0.87763
1.04435e-07
0.87763
6.94053e-08
0.87763
-4.99665e-08
0.87763
-4.96433e-08
0.87763
-7.80933e-08
0.87763
-1.05159e-07
0.87763
-1.19169e-07
0.87763
-9.41413e-08
0.87763
-9.86873e-08
0.87763
-9.58558e-08
0.87763
-9.04515e-08
0.87763
-8.29606e-08
0.87763
-7.20191e-08
0.87763
-6.6547e-08
0.87763
-5.44715e-08
0.87763
-4.89342e-08
0.87763
-3.78096e-08
0.87763
-2.98767e-08
0.87763
-2.31711e-08
0.87763
-1.77136e-08
0.87763
-1.81762e-08
0.87763
1.48488e-08
0.87763
1.30395e-08
0.87763
5.74926e-09
0.87763
7.52961e-09
0.87763
5.37564e-08
0.87763
3.30458e-09
0.87763
7.57473e-08
0.87763
4.70305e-08
0.877631
5.09357e-08
0.877631
7.9954e-08
0.877631
8.02402e-08
0.877631
7.76441e-08
7.72685e-08
0.877631
1.14849
2.00777e-06
-1.14849
1.14849
2.00039e-06
1.14849
1.54468e-06
1.14849
1.0264e-06
1.14849
6.63449e-07
1.14849
3.94832e-07
1.14849
2.50493e-07
1.14849
5.22768e-08
1.14849
2.86278e-08
1.14849
-4.1492e-08
1.14849
-7.33812e-08
1.14849
-1.24668e-07
1.14849
-1.10703e-07
1.14849
-1.04784e-07
1.14849
-1.26514e-07
1.14849
-1.17091e-07
1.14849
-1.07839e-07
1.14849
-1.03345e-07
1.14849
-9.58339e-08
1.14849
-8.48526e-08
1.14849
-7.82723e-08
1.14849
-6.67825e-08
1.14849
-5.80293e-08
1.14849
-5.17522e-08
1.14849
-3.87407e-08
1.14849
-2.39909e-08
1.14849
-3.72111e-08
1.14849
-1.79621e-08
1.14849
1.55735e-08
1.14849
-6.65776e-09
1.14849
4.91165e-09
1.14849
-3.39926e-09
1.14849
6.49655e-08
1.14849
2.77695e-09
1.14849
5.45879e-08
1.14849
6.08106e-08
1.14849
8.00706e-08
1.14849
9.45552e-08
1.14849
1.02155e-07
8.68974e-08
1.14849
1.49366
1.8306e-06
-1.49366
1.49366
1.94329e-06
1.49366
1.65871e-06
1.49366
1.12923e-06
1.49366
8.18983e-07
1.49366
5.37695e-07
1.49366
3.03371e-07
1.49366
1.3276e-07
1.49366
9.85738e-08
1.49366
-1.99394e-08
1.49366
-5.84467e-08
1.49366
-6.21245e-08
1.49366
-1.43041e-07
1.49366
-1.15158e-07
1.49366
-9.00766e-08
1.49366
-1.37423e-07
1.49366
-1.25096e-07
1.49366
-1.14989e-07
1.49366
-1.10541e-07
1.49366
-9.98423e-08
1.49366
-9.59632e-08
1.49366
-8.39332e-08
1.49366
-7.68238e-08
1.49366
-6.24754e-08
1.49366
-4.32421e-08
1.49366
-8.06972e-08
1.49366
-4.13922e-08
1.49366
7.38188e-09
1.49366
-4.48466e-08
1.49366
-7.62161e-09
1.49366
1.1706e-08
1.49366
-2.53122e-08
1.49366
5.50151e-08
1.49366
4.72109e-08
1.49366
3.36295e-08
1.49366
3.79892e-08
1.49366
1.02943e-07
1.49366
5.82341e-08
1.49366
1.29962e-07
8.01956e-08
1.49366
1.93222
1.62578e-06
-1.93222
1.93222
1.90333e-06
1.93222
1.70019e-06
1.93222
1.2268e-06
1.93222
9.1075e-07
1.93222
6.87894e-07
1.93222
3.92099e-07
1.93222
2.77884e-07
1.93222
1.63607e-07
1.93222
4.50298e-08
1.93222
2.96591e-09
1.93222
-5.95422e-08
1.93222
-6.69085e-08
1.93222
-1.14883e-07
1.93222
-1.18076e-07
1.93222
-1.1834e-07
1.93222
-1.0027e-07
1.93222
-1.18527e-07
1.93222
-1.13633e-07
1.93222
-1.09466e-07
1.93222
-1.01352e-07
1.93222
-9.47797e-08
1.93222
-8.52612e-08
1.93222
-9.62057e-08
1.93222
-6.69033e-08
1.93222
-5.17157e-08
1.93222
-3.35952e-08
1.93222
-5.20092e-08
1.93222
-2.04833e-08
1.93222
-2.86857e-08
1.93222
2.66283e-09
1.93222
-1.72834e-08
1.93222
3.84652e-09
1.93222
7.37547e-08
1.93222
1.09219e-08
1.93222
6.8725e-08
1.93222
1.02824e-07
1.93222
4.77457e-08
1.93222
8.29075e-08
1.13578e-07
1.93222
2.48792
1.4455e-06
-2.48792
2.48792
1.75318e-06
2.48792
1.61137e-06
2.48792
1.27813e-06
2.48792
1.06246e-06
2.48792
7.5267e-07
2.48792
5.56291e-07
2.48792
3.19346e-07
2.48792
2.50033e-07
2.48792
1.60457e-07
2.48792
3.06405e-08
2.48792
4.1724e-08
2.48792
-2.58593e-08
2.48792
-9.29359e-08
2.48792
-7.86167e-08
2.48792
-1.29798e-07
2.48792
-1.02974e-07
2.48792
-8.63332e-08
2.48792
-1.1439e-07
2.48792
-1.00158e-07
2.48792
-1.12005e-07
2.48792
-9.41792e-08
2.48792
-1.15419e-07
2.48792
-8.79759e-08
2.48792
-4.51259e-08
2.48792
-7.50513e-08
2.48792
-3.20013e-08
2.48792
-6.14442e-08
2.48792
-7.89523e-08
2.48792
-2.1383e-09
2.48792
-4.63152e-08
2.48792
-2.29445e-08
2.48792
6.03774e-08
2.48792
1.00931e-08
2.48792
4.1721e-08
2.48792
-9.73094e-09
2.48792
8.18936e-08
2.48792
8.33559e-08
2.48792
6.1591e-08
7.27494e-08
2.48792
3.19029
1.25869e-06
-3.19029
3.19029
1.52064e-06
3.19029
1.50356e-06
3.19029
1.31455e-06
3.19029
1.07165e-06
3.19029
8.74052e-07
3.19029
6.17446e-07
3.19029
4.80752e-07
3.19029
3.00559e-07
3.19029
2.69737e-07
3.19029
1.60723e-07
3.19029
7.66377e-08
3.19029
-1.12607e-08
3.19029
-6.59828e-09
3.19029
-2.31987e-09
3.19029
-8.27316e-08
3.19029
-6.53986e-08
3.19029
-5.08563e-08
3.19029
-1.03974e-07
3.19029
-8.81549e-08
3.19029
-8.84558e-08
3.19029
-6.78365e-08
3.19029
-1.12388e-07
3.19029
-8.3054e-08
3.19029
-4.62547e-08
3.19029
-9.94352e-08
3.19029
-6.08467e-08
3.19029
-1.06034e-08
3.19029
-4.12629e-08
3.19029
-5.12583e-08
3.19029
-6.70593e-08
3.19029
2.45545e-08
3.19029
-1.57967e-08
3.19029
3.08377e-08
3.19029
-2.51002e-08
3.19029
-3.10503e-09
3.19029
5.20207e-09
3.19029
5.89404e-08
3.19029
6.26213e-08
1.43244e-08
3.19029
4.07604
1.03559e-06
-4.07603
4.07604
1.3296e-06
4.07604
1.35316e-06
4.07604
1.28218e-06
4.07604
1.00623e-06
4.07604
9.39938e-07
4.07604
6.67648e-07
4.07604
5.31633e-07
4.07604
4.66661e-07
4.07604
2.94377e-07
4.07604
2.09195e-07
4.07604
1.7887e-07
4.07603
8.58283e-08
4.07603
5.53586e-08
4.07603
-2.98292e-08
4.07603
1.77781e-08
4.07603
-3.72161e-08
4.07603
-5.32488e-08
4.07603
-7.30821e-09
4.07603
-8.35094e-08
4.07603
-3.76582e-08
4.07603
-1.08708e-07
4.07603
-5.19313e-08
4.07603
-5.22615e-08
4.07603
-8.36252e-08
4.07603
-7.23794e-09
4.07603
-5.23544e-08
4.07603
-3.59048e-08
4.07603
-6.59442e-08
4.07603
-2.24358e-08
4.07603
-1.17647e-08
4.07603
-8.09801e-08
4.07603
-5.93489e-09
4.07603
6.75477e-09
4.07603
-9.62667e-08
4.07603
9.21128e-09
4.07603
-7.27568e-08
4.07603
1.64504e-08
4.07603
-2.38163e-09
-6.33829e-09
4.07603
5.19073
8.8002e-07
-5.19073
5.19073
1.1086e-06
5.19073
1.28905e-06
5.19073
1.04189e-06
5.19073
9.81831e-07
5.19073
8.79511e-07
5.19073
6.26077e-07
5.19073
5.96249e-07
5.19073
4.43397e-07
5.19073
3.65133e-07
5.19073
2.15585e-07
5.19073
1.84262e-07
5.19073
1.43294e-07
5.19073
8.60041e-08
5.19073
8.11683e-08
5.19073
1.32983e-08
5.19073
1.8619e-08
5.19073
-7.33153e-09
5.19073
-6.38556e-09
5.19073
-9.67033e-08
5.19073
1.86748e-08
5.19073
-6.55396e-08
5.19073
-5.47364e-08
5.19073
-6.28308e-08
5.19073
-3.59136e-08
5.19073
-7.09407e-08
5.19073
-4.05944e-08
5.19073
-4.64042e-08
5.19073
-3.19723e-08
5.19073
1.13877e-08
5.19073
-6.01736e-08
5.19073
-3.34403e-08
5.19073
-8.06174e-08
5.19073
2.18137e-08
5.19073
-1.01706e-07
5.19073
-6.82707e-08
5.19073
1.25526e-08
5.19073
-1.20586e-07
5.19073
-1.16142e-09
-2.78938e-08
5.19073
6.591
8.1851e-07
-6.591
6.591
9.3656e-07
6.591
1.14507e-06
6.591
9.02374e-07
6.591
8.19395e-07
6.591
7.4557e-07
6.591
6.46958e-07
6.591
6.13373e-07
6.591
3.76424e-07
6.591
3.42004e-07
6.591
2.72596e-07
6.591
2.73205e-07
6.591
1.00001e-07
6.591
1.14189e-07
6.591
1.77101e-07
6.591
-1.86928e-08
6.591
9.93302e-08
6.591
2.93339e-08
6.591
7.23068e-09
6.591
-7.29359e-08
6.591
5.72665e-08
6.591
-1.81487e-08
6.591
-2.91629e-08
6.591
-8.48186e-08
6.591
5.68954e-08
6.591
-1.1292e-07
6.591
-1.22526e-08
6.591
4.25452e-08
6.591
-7.48182e-08
6.591
-1.5359e-08
6.591
-8.35994e-09
6.591
3.50859e-08
6.591
-1.0273e-07
6.591
-3.63686e-08
6.591
-2.797e-08
6.591
-2.30597e-09
6.591
2.57527e-08
6.591
-1.2555e-07
6.591
5.50739e-08
-6.51512e-08
6.591
7.34555
7.71239e-07
-7.34555
7.34555
9.62102e-07
7.34555
9.46145e-07
7.34555
9.31953e-07
7.34555
8.10063e-07
7.34555
6.2422e-07
7.34555
5.96908e-07
7.34555
5.40116e-07
7.34555
4.36357e-07
7.34555
4.33687e-07
7.34555
2.56999e-07
7.34555
2.80972e-07
7.34555
1.73891e-07
7.34555
2.7068e-07
7.34555
1.03014e-07
7.34555
1.65705e-07
7.34555
3.40562e-08
7.34555
1.26989e-07
7.34555
3.74428e-08
7.34555
4.62481e-08
7.34555
6.49287e-08
7.34555
7.81867e-08
7.34555
-1.96791e-09
7.34555
1.06021e-07
7.34555
-6.56653e-09
7.34555
8.24898e-08
7.34555
-5.44401e-08
7.34555
8.15734e-08
7.34555
1.87568e-08
7.34555
9.70309e-08
7.34555
-2.00736e-08
7.34555
4.72286e-08
7.34555
1.81383e-08
7.34555
4.40084e-08
7.34555
9.61474e-08
7.34555
-9.43487e-09
7.34555
-5.20631e-08
7.34555
2.49868e-08
7.34555
2.73922e-08
4.82309e-08
7.34555
7.12186
7.07843e-07
-7.12186
7.12186
9.78103e-07
7.12186
8.59471e-07
7.12186
6.8927e-07
7.12186
6.90049e-07
7.12186
6.78787e-07
7.12186
6.52382e-07
7.12186
4.82416e-07
7.12186
4.8527e-07
7.12186
3.87072e-07
7.12186
3.51816e-07
7.12186
2.67959e-07
7.12186
2.2687e-07
7.12186
2.06354e-07
7.12186
2.49169e-07
7.12186
1.51538e-07
7.12186
8.44886e-08
7.12186
2.09897e-07
7.12186
9.58128e-08
7.12186
2.08802e-07
7.12186
9.73319e-09
7.12186
1.26606e-07
7.12186
2.1699e-08
7.12186
1.603e-07
7.12186
1.11111e-07
7.12186
3.66946e-08
7.12186
1.07994e-07
7.12186
1.20771e-07
7.12186
1.19418e-07
7.12186
8.00015e-08
7.12186
9.57167e-08
7.12186
5.22925e-08
7.12186
1.14431e-07
7.12186
4.37025e-09
7.12186
4.04827e-08
7.12186
8.42753e-08
7.12186
1.40145e-07
7.12186
4.10268e-08
7.12186
-2.90452e-08
9.18129e-08
7.12186
6.78186
6.15793e-07
-6.78186
6.78186
9.09826e-07
6.78186
7.31824e-07
6.78186
6.36289e-07
6.78186
6.70788e-07
6.78186
5.36717e-07
6.78186
6.19386e-07
6.78186
4.24041e-07
6.78186
5.03211e-07
6.78186
4.28707e-07
6.78186
3.18535e-07
6.78186
3.43023e-07
6.78186
1.90731e-07
6.78186
3.54664e-07
6.78186
1.5787e-07
6.78186
2.74089e-07
6.78186
1.65515e-07
6.78186
1.79753e-07
6.78186
1.06971e-07
6.78186
1.35498e-07
6.78186
1.63831e-07
6.78186
1.9587e-07
6.78186
1.31455e-07
6.78186
1.57825e-07
6.78186
6.52487e-08
6.78186
2.03004e-07
6.78186
3.13688e-08
6.78186
2.25228e-07
6.78186
1.07046e-07
6.78186
1.69826e-07
6.78186
1.01187e-07
6.78186
7.11471e-08
6.78186
1.93867e-07
6.78186
4.15107e-08
6.78186
1.67053e-07
6.78186
6.9454e-08
6.78186
1.2664e-07
6.78186
7.27131e-08
6.78186
-4.03637e-08
1.73752e-07
6.78186
6.37286
5.38326e-07
-6.37286
6.37286
6.77182e-07
6.37286
5.54478e-07
6.37286
6.00336e-07
6.37286
4.91833e-07
6.37286
5.3634e-07
6.37286
4.91601e-07
6.37286
4.9869e-07
6.37286
3.76987e-07
6.37286
4.43937e-07
6.37286
2.72981e-07
6.37286
3.84567e-07
6.37286
2.16212e-07
6.37286
2.96503e-07
6.37286
2.03166e-07
6.37286
2.07767e-07
6.37286
2.60837e-07
6.37286
1.26908e-07
6.37286
1.80423e-07
6.37286
2.71791e-07
6.37286
4.73275e-08
6.37286
1.4209e-07
6.37286
2.02992e-07
6.37286
7.97827e-08
6.37286
1.47814e-07
6.37286
1.71478e-07
6.37286
1.00588e-07
6.37286
2.07346e-07
6.37286
6.8554e-08
6.37286
2.12924e-07
6.37286
7.58402e-08
6.37286
1.7871e-07
6.37286
8.85003e-08
6.37286
1.23392e-07
6.37286
1.04515e-07
6.37286
1.68373e-07
6.37286
5.25674e-08
6.37286
9.95759e-08
6.37286
3.63182e-08
1.43181e-07
6.37286
5.9281
5.18326e-07
-5.9281
5.9281
5.33817e-07
5.9281
2.8885e-07
5.9281
5.31779e-07
5.9281
4.20976e-07
5.9281
5.21642e-07
5.9281
4.38378e-07
5.9281
4.78491e-07
5.9281
3.37708e-07
5.9281
3.81947e-07
5.9281
4.65553e-07
5.9281
2.17801e-07
5.9281
3.57491e-07
5.9281
2.81592e-07
5.9281
2.43033e-07
5.9281
1.1039e-07
5.9281
1.79101e-07
5.9281
3.36394e-07
5.9281
1.75266e-07
5.9281
2.46879e-07
5.9281
9.58052e-08
5.9281
1.70977e-07
5.9281
1.62595e-08
5.9281
1.8376e-07
5.9281
2.66003e-07
5.9281
1.50977e-07
5.9281
1.32705e-07
5.9281
8.13182e-08
5.9281
2.47045e-07
5.9281
2.83505e-08
5.9281
1.40782e-07
5.9281
2.14673e-07
5.9281
9.7109e-08
5.9281
1.54076e-07
5.9281
8.28441e-08
5.9281
1.87677e-07
5.9281
4.42129e-08
5.9281
2.40135e-07
5.9281
3.47596e-08
9.02417e-08
5.9281
5.47077
4.56335e-07
-5.47077
5.47077
1.78119e-07
5.47077
3.24838e-07
5.47077
4.51263e-07
5.47077
4.04014e-07
5.47077
3.55681e-07
5.47077
4.56775e-07
5.47077
4.20128e-07
5.47077
3.93811e-07
5.47077
2.03026e-07
5.47077
3.23963e-07
5.47077
3.76929e-07
5.47077
1.85215e-07
5.47077
3.49497e-07
5.47077
2.3589e-07
5.47077
1.52508e-07
5.47077
1.98349e-07
5.47077
1.58152e-07
5.47077
2.68627e-07
5.47077
1.30043e-07
5.47077
1.81993e-07
5.47077
4.65605e-08
5.47077
1.63013e-07
5.47077
1.32394e-07
5.47077
1.90134e-07
5.47077
1.22997e-07
5.47077
2.78481e-08
5.47077
2.1496e-07
5.47077
4.59701e-08
5.47077
1.2568e-07
5.47077
2.71693e-07
5.47077
1.0598e-07
5.47077
9.7871e-08
5.47077
7.10359e-08
5.47077
1.73675e-07
5.47077
1.18312e-07
5.47077
2.09377e-08
5.47077
5.44369e-08
5.47077
2.02785e-07
9.58783e-09
5.47077
5.01681
3.92512e-07
-5.01681
5.01681
1.26596e-07
5.01681
1.96045e-07
5.01681
3.3048e-07
5.01681
2.6877e-07
5.01681
3.81282e-07
5.01681
4.31339e-07
5.01681
4.26803e-07
5.01681
2.53949e-07
5.01681
4.36601e-07
5.01681
2.67774e-07
5.01681
2.26644e-07
5.01681
3.41307e-07
5.01681
1.56607e-07
5.01681
1.91616e-07
5.01681
1.77729e-07
5.01681
2.75157e-07
5.01681
8.41154e-08
5.01681
1.64731e-07
5.01681
1.66582e-07
5.01681
1.38089e-07
5.01681
1.42923e-07
5.01681
2.2902e-07
5.01681
4.68282e-08
5.01681
1.55315e-07
5.01681
1.56701e-07
5.01681
2.08736e-07
5.01681
4.59321e-08
5.01681
1.81483e-07
5.01681
1.66148e-07
5.01681
2.03597e-08
5.01681
2.26553e-07
5.01681
6.97398e-08
5.01681
7.27008e-08
5.01681
1.18647e-07
5.01681
2.1652e-07
5.01681
9.29704e-08
5.01681
9.69588e-08
5.01681
1.17606e-07
-2.02971e-08
5.01681
4.57689
8.23488e-08
-4.57689
4.57689
8.67487e-08
4.57689
7.61523e-08
4.57689
2.90195e-07
4.57689
3.50014e-07
4.57689
3.0144e-07
4.57689
3.32552e-07
4.57689
4.39772e-07
4.57689
2.40192e-07
4.57689
3.58453e-07
4.57689
2.24256e-07
4.57689
2.81923e-07
4.57689
8.11117e-08
4.57689
2.18567e-07
4.57689
2.10425e-07
4.57689
1.67932e-07
4.57689
1.6085e-07
4.57689
2.05254e-07
4.57689
1.40946e-07
4.57689
-1.82177e-08
4.57689
2.72783e-07
4.57689
1.16202e-07
4.57689
5.65128e-08
4.57689
1.09288e-07
4.57689
1.11384e-07
4.57689
8.36317e-08
4.57689
8.97895e-08
4.57689
2.4858e-07
4.57689
6.56439e-08
4.57689
1.4874e-07
4.57689
3.49983e-08
4.57689
1.77381e-07
4.57689
-8.23801e-09
4.57689
1.08724e-07
4.57689
1.32793e-07
4.57689
6.8206e-08
4.57689
6.24318e-08
4.57689
1.22525e-07
4.57689
8.83235e-09
1.54063e-07
4.57689
4.15791
1.18897e-07
-4.15791
4.15791
-1.09263e-07
4.15791
1.52533e-07
4.15791
2.4103e-07
4.15791
3.36168e-07
4.15791
2.80709e-07
4.15791
3.36807e-07
4.15791
2.97015e-07
4.15791
3.61111e-07
4.15791
2.46255e-07
4.15791
2.16722e-07
4.15791
1.08406e-07
4.15791
2.7943e-07
4.15791
1.40255e-07
4.15791
2.27343e-07
4.15791
1.19095e-07
4.15791
2.15104e-07
4.15791
1.32679e-07
4.15791
-3.89847e-08
4.15791
3.21664e-07
4.15791
-8.77969e-08
4.15791
2.75154e-07
4.15791
1.07178e-07
4.15791
3.2601e-08
4.15791
1.36295e-07
4.15791
4.17238e-08
4.15791
1.41357e-07
4.15791
2.21325e-08
4.15791
2.09254e-07
4.15791
1.25399e-07
4.15791
1.15185e-07
4.15791
2.48013e-08
4.15791
1.03744e-07
4.15791
7.67062e-08
4.15791
1.2851e-07
4.15791
5.8477e-08
4.15791
9.125e-08
4.15791
1.55115e-08
4.15791
1.25701e-07
3.30066e-08
4.15791
3.76401
-9.89644e-08
-3.76401
3.76401
-1.38411e-08
3.76401
2.65804e-08
3.76401
1.87661e-07
3.76401
2.59931e-07
3.76401
3.49719e-07
3.76401
1.93557e-07
3.76401
2.33941e-07
3.76401
3.18122e-07
3.76401
2.91549e-07
3.76401
5.64557e-08
3.76401
2.98759e-07
3.76401
1.51738e-07
3.76401
8.61089e-08
3.76401
7.87771e-08
3.76401
7.51778e-08
3.76401
2.34538e-07
3.76401
7.97945e-08
3.76401
1.6722e-07
3.76401
1.38337e-07
3.76401
4.58696e-08
3.76401
1.95132e-08
3.76401
1.0879e-07
3.76401
-3.81724e-08
3.76401
1.26301e-07
3.76401
1.35864e-07
3.76401
1.37358e-07
3.76401
9.10059e-08
3.76401
-4.40486e-08
3.76401
2.22397e-07
3.76401
2.4129e-09
3.76401
1.79376e-09
3.76401
9.92889e-08
3.76401
1.57094e-07
3.76401
-2.10051e-10
3.76401
8.15671e-08
3.76401
1.00929e-07
3.76401
1.02912e-07
3.76401
-4.35403e-08
1.488e-07
3.76401
3.39739
-8.01524e-08
-3.39739
3.39739
2.90903e-08
3.39739
-3.19102e-08
3.39739
2.81138e-07
3.39739
2.62904e-07
3.39739
1.45592e-07
3.39739
2.92619e-07
3.39739
2.57504e-07
3.39739
2.03818e-07
3.39739
1.52503e-07
3.39739
1.03394e-07
3.39739
2.25768e-07
3.39739
2.09679e-07
3.39739
7.90682e-08
3.39739
1.19498e-07
3.39739
8.53816e-08
3.39739
8.3746e-08
3.39739
5.02735e-08
3.39739
6.82459e-08
3.39739
1.10627e-07
3.39739
5.08194e-08
3.39739
9.55483e-08
3.39739
1.14503e-07
3.39739
8.77253e-08
3.39739
9.00276e-08
3.39739
6.72524e-08
3.39739
1.14747e-07
3.39739
6.94789e-10
3.39739
-5.1545e-09
3.39739
1.38535e-07
3.39739
1.02571e-07
3.39739
7.55517e-08
3.39739
3.56982e-08
3.39739
1.94947e-08
3.39739
1.71409e-07
3.39739
5.24701e-08
3.39739
-5.01159e-09
3.39739
1.6549e-07
3.39739
-1.00599e-07
7.86764e-08
3.39739
3.05884
-8.29055e-08
-3.05884
3.05884
-1.09486e-07
3.05884
1.7545e-07
3.05884
6.70058e-08
3.05884
1.84645e-07
3.05884
3.3708e-07
3.05884
7.22618e-08
3.05884
2.44239e-07
3.05884
2.39004e-07
3.05884
1.45262e-07
3.05884
1.21308e-07
3.05884
2.9172e-08
3.05884
1.63648e-07
3.05884
1.3546e-08
3.05884
1.99263e-07
3.05884
4.91899e-08
3.05884
1.26133e-09
3.05884
7.45595e-08
3.05884
1.30259e-07
3.05884
6.85743e-08
3.05884
5.36969e-08
3.05884
-5.62583e-09
3.05884
4.96547e-08
3.05884
1.2959e-07
3.05884
8.26394e-08
3.05884
-5.59399e-08
3.05884
1.32488e-07
3.05884
-1.37517e-09
3.05884
1.37987e-07
3.05884
6.68654e-08
3.05884
5.00041e-08
3.05884
-1.91364e-08
3.05884
-1.4939e-08
3.05884
1.78839e-07
3.05884
-7.96988e-08
3.05884
7.94608e-08
3.05884
1.72042e-07
3.05884
-5.21586e-08
3.05884
2.80371e-08
3.04196e-08
3.05884
2.74819
-1.16014e-07
-2.74819
2.74819
-8.28552e-08
2.74819
4.28111e-08
2.74819
2.90901e-07
2.74819
8.28126e-08
2.74819
2.45591e-07
2.74819
1.20025e-07
2.74819
1.79681e-07
2.74819
8.51933e-08
2.74819
8.47882e-08
2.74819
1.08937e-07
2.74819
2.10543e-07
2.74819
-6.19924e-08
2.74819
1.13753e-07
2.74819
1.10432e-07
2.74819
1.11238e-07
2.74819
8.50693e-09
2.74819
1.01249e-07
2.74819
-4.39402e-08
2.74819
-1.85766e-08
2.74819
1.21131e-07
2.74819
1.48279e-07
2.74819
2.57808e-09
2.74819
1.00569e-07
2.74819
-1.86155e-09
2.74819
8.29354e-09
2.74819
6.8067e-09
2.74819
1.95353e-07
2.74819
-7.35813e-08
2.74819
4.49051e-08
2.74819
7.46301e-08
2.74819
9.42383e-08
2.74819
8.61324e-09
2.74819
8.69969e-08
2.74819
-2.90699e-08
2.74819
1.43686e-07
2.74819
-7.53484e-08
2.74819
8.64001e-08
2.74819
2.57422e-08
5.18812e-08
2.74819
2.46462
-1.65485e-07
-2.46462
2.46462
-1.30068e-07
2.46462
1.65291e-07
2.46462
1.80688e-07
2.46462
4.26405e-08
2.46462
2.60349e-07
2.46462
3.2518e-08
2.46462
1.80143e-07
2.46462
-6.10173e-08
2.46462
1.57681e-07
2.46462
2.81607e-08
2.46462
3.31371e-08
2.46462
7.01959e-08
2.46462
2.41711e-07
2.46462
-6.94975e-08
2.46462
1.21617e-07
2.46462
-1.21158e-08
2.46462
8.40082e-08
2.46462
5.47532e-08
2.46462
-9.30566e-08
2.46462
1.68112e-07
2.46462
2.20008e-08
2.46462
-8.75831e-09
2.46462
9.28045e-08
2.46462
-4.31407e-08
2.46462
1.57701e-07
2.46462
-1.55519e-07
2.46462
2.90912e-08
2.46462
6.45224e-08
2.46462
8.63741e-08
2.46462
-4.34327e-08
2.46462
1.94656e-07
2.46462
-4.32773e-08
2.46462
1.22717e-07
2.46462
-9.78646e-08
2.46462
1.32209e-07
2.46462
-7.09605e-09
2.46462
-4.84844e-08
2.46462
9.18044e-08
9.43269e-08
2.46462
2.20686
-1.99862e-07
-2.20686
2.20686
6.00223e-08
2.20686
1.27811e-07
2.20686
-4.84933e-08
2.20686
2.4763e-07
2.20686
-2.93712e-09
2.20686
2.16804e-07
2.20686
-2.42182e-08
2.20686
2.35011e-08
2.20686
1.13914e-07
2.20686
7.85103e-08
2.20686
9.1856e-08
2.20686
-1.20079e-08
2.20686
6.66176e-08
2.20686
-6.35743e-09
2.20687
-5.8109e-09
2.20686
6.59097e-08
2.20687
-2.85985e-08
2.20686
1.52832e-07
2.20686
-5.83855e-08
2.20686
1.16618e-07
2.20687
-9.34315e-08
2.20686
8.67822e-08
2.20687
-3.69341e-09
2.20686
6.60248e-08
2.20686
7.39374e-08
2.20686
-1.01795e-09
2.20686
8.74643e-08
2.20686
-1.83417e-08
2.20686
7.63249e-09
2.20686
-2.85906e-08
2.20686
7.61459e-08
2.20686
1.26021e-07
2.20687
-1.01463e-07
2.20686
1.24937e-07
2.20687
-1.15311e-07
2.20686
1.85727e-07
2.20686
-2.31828e-08
2.20686
-7.1824e-08
1.42832e-07
2.20686
1.97342
-6.1197e-08
-1.97342