/*--------------------------------*- C++ -*----------------------------------*\
| =========                 |                                                 |
| \\      /  F ield         | OpenFOAM: The Open Source CFD Toolbox           |
|  \\    /   O peration     | Version:  2412                                  |
|   \\  /    A nd           | Website:  www.openfoam.com                      |
|    \\/     M anipulation  |                                                 |
\*---------------------------------------------------------------------------*/
FoamFile
{
    version     2.0;
    format      ascii;
    arch        "LSB;label=32;scalar=64";
    class       volVectorField;
    location    "980";
    object      U;
}
// * * * * * * * * * * * * * * * * * * * * * * * * * * * * * * * * * * * * * //

dimensions      [0 1 -1 0 0 0 0];

internalField   nonuniform List<vector> 
6400
(
(-99.4335 2.0034 2.09753e-21)
(-99.2782 5.90553 0)
(-98.9698 9.79862 0)
(-98.5088 13.6766 0)
(-97.8959 17.5335 1.67482e-20)
(-97.1321 21.3634 8.08268e-23)
(-96.2185 25.1603 2.49169e-24)
(-95.1565 28.9184 1.67465e-20)
(-93.9478 32.6319 1.67513e-20)
(-92.5943 36.2951 -5.00032e-24)
(-91.0979 39.9024 -2.31386e-27)
(-89.4612 43.4481 3.34997e-20)
(-87.6864 46.9268 1.65467e-22)
(-85.7765 50.3332 1.55546e-22)
(-83.7343 53.662 0)
(-81.563 56.908 0)
(-79.2659 60.0663 1.60928e-22)
(-76.8466 63.1319 3.33355e-20)
(-74.3088 66.1002 3.34963e-20)
(-71.6564 68.9666 0)
(-68.8935 71.7267 0)
(-66.0245 74.3761 -3.3496e-20)
(-63.0536 76.9109 -3.33342e-20)
(-59.9854 79.3271 -1.61752e-22)
(-56.8248 81.6209 0)
(-53.5766 83.7889 0)
(-50.2457 85.8277 -1.67217e-22)
(-46.8374 87.7342 -1.57187e-22)
(-43.3569 89.5054 -3.34926e-20)
(-39.8095 91.1386 1.84804e-27)
(-36.2007 92.6312 -5.08206e-24)
(-32.5361 93.981 -1.67448e-20)
(-28.8214 95.1859 -1.67499e-20)
(-25.0622 96.2441 2.54549e-24)
(-21.2643 97.1538 -8.02628e-23)
(-17.4337 97.9138 -1.67484e-20)
(-13.5762 98.5227 8.37356e-21)
(-9.69771 98.9797 0)
(-5.80431 99.2842 0)
(-1.90196 99.4355 -2.09337e-21)
(-98.3305 1.93528 -3.85174e-21)
(-98.1787 5.79409 -2.03021e-20)
(-97.8756 9.6441 -9.0617e-22)
(-97.4215 13.4792 4.15061e-20)
(-96.8172 17.2936 -2.71385e-20)
(-96.0636 21.0813 1.81208e-21)
(-95.1619 24.8365 -8.66354e-20)
(-94.1135 28.5534 -1.13773e-19)
(-92.9199 32.2262 1.46132e-19)
(-91.5831 35.8494 -1.7327e-19)
(-90.105 39.4173 0)
(-88.488 42.9244 -2.2392e-19)
(-86.7346 46.3654 -3.62408e-21)
(-84.8475 49.7348 3.62406e-21)
(-82.8295 53.0275 -3.62406e-21)
(-80.6838 56.2385 0)
(-78.4136 59.3628 1.73268e-19)
(-76.0226 62.3955 -2.31165e-19)
(-73.5144 65.3321 1.22619e-19)
(-70.8928 68.1679 -1.73268e-19)
(-68.1618 70.8985 1.73267e-19)
(-65.3258 73.5199 -1.15371e-19)
(-62.3891 76.0279 2.23915e-19)
(-59.3561 78.4187 -1.73267e-19)
(-56.2317 80.6885 0)
(-53.0205 82.834 -3.62399e-21)
(-49.7276 84.8517 3.62399e-21)
(-46.358 86.7386 -3.62398e-21)
(-42.9169 88.4917 2.31161e-19)
(-39.4097 90.1084 0)
(-35.8416 91.5861 1.73265e-19)
(-32.2183 92.9226 -1.4613e-19)
(-28.5454 94.1159 1.13768e-19)
(-24.8284 95.164 8.66325e-20)
(-21.0731 96.0654 1.81197e-21)
(-17.2854 96.8187 -5.94974e-20)
(-13.471 97.4226 -5.86955e-20)
(-9.63579 97.8764 -9.05981e-22)
(-5.78575 98.1792 2.3017e-20)
(-1.9268 98.3307 2.93883e-21)
(-97.0984 1.90368 0)
(-96.9488 5.71416 2.40365e-20)
(-96.6498 9.51595 0)
(-96.2017 13.3031 -4.80677e-20)
(-95.6052 17.0697 4.12843e-21)
(-94.8614 20.8099 -1.65107e-19)
(-93.9712 24.5181 -7.31012e-20)
(-92.9362 28.1885 9.6134e-20)
(-91.7579 31.8155 -1.92268e-19)
(-90.4381 35.3933 1.92267e-19)
(-88.9788 38.9166 -3.21956e-19)
(-87.3823 42.3799 1.8401e-19)
(-85.6512 45.7778 0)
(-83.7879 49.1052 -3.30212e-19)
(-81.7954 52.3568 3.38468e-19)
(-79.6768 55.5277 -3.38468e-19)
(-77.4354 58.613 -1.92266e-19)
(-75.0746 61.6079 1.92266e-19)
(-72.598 64.5079 -1.92265e-19)
(-70.0094 67.3083 1.92265e-19)
(-67.313 70.005 -1.92265e-19)
(-64.5127 72.5937 1.92265e-19)
(-61.6129 75.0705 -1.92264e-19)
(-58.6182 77.4315 1.92264e-19)
(-55.533 79.6732 3.21953e-19)
(-52.3623 81.792 -3.21953e-19)
(-49.1108 83.7846 3.30209e-19)
(-45.7835 85.6481 0)
(-42.3857 87.3795 -2.0052e-19)
(-38.9225 88.9762 3.38465e-19)
(-35.3993 90.4357 -1.92263e-19)
(-31.8215 91.7558 1.92262e-19)
(-28.1947 92.9343 -9.61311e-20)
(-24.5244 93.9696 6.48445e-20)
(-20.8162 94.86 2.9483e-27)
(-17.076 95.6041 1.00259e-19)
(-13.3094 96.2008 4.80654e-20)
(-9.52234 96.6491 0)
(-5.72057 96.9485 -2.40326e-20)
(-1.90998 97.0983 0)
(-95.7246 1.87923 0)
(-95.577 5.63582 3.4971e-21)
(-95.2821 9.38381 -3.4971e-21)
(-94.8403 13.1173 6.99394e-21)
(-94.2522 16.8306 6.9939e-21)
(-93.5187 20.518 1.54539e-19)
(-92.6411 24.1737 -6.66994e-20)
(-91.6206 27.7921 0)
(-90.4589 31.3677 0)
(-89.1576 34.8949 5.4039e-19)
(-87.7189 38.3683 3.79015e-19)
(-86.145 41.7826 -1.64644e-26)
(-84.4382 45.1324 -5.82353e-19)
(-82.6012 48.4126 -1.33399e-19)
(-80.6368 51.6182 -3.37051e-19)
(-78.5481 54.7442 -1.8935e-19)
(-76.3383 57.7858 0)
(-74.0108 60.7382 0)
(-71.5692 63.5971 0)
(-69.0172 66.3578 5.264e-19)
(-66.3588 69.0163 -5.264e-19)
(-63.5981 71.5683 0)
(-60.7393 74.01 0)
(-57.7868 76.3375 0)
(-54.7453 78.5474 1.33399e-19)
(-51.6193 80.6361 3.92999e-19)
(-48.4138 82.6005 -3.37049e-19)
(-45.1336 84.4375 4.70447e-19)
(-41.7838 86.1444 1.51993e-26)
(-38.3695 87.7184 -3.51035e-19)
(-34.8961 89.1571 -5.1241e-19)
(-31.369 90.4584 0)
(-27.7934 91.6202 0)
(-24.175 92.6407 9.46748e-20)
(-20.5193 93.5184 -2.79752e-20)
(-16.8319 94.2519 2.70192e-19)
(-13.1186 94.8401 6.99379e-21)
(-9.38513 95.282 -3.49689e-21)
(-5.63714 95.577 6.92963e-20)
(-1.88046 95.7246 0)
(-94.1953 1.85063 0)
(-94.05 5.54721 1.05833e-20)
(-93.7598 9.23532 -1.29594e-25)
(-93.3249 12.9092 -1.05831e-20)
(-92.7462 16.5631 0)
(-92.0244 20.1916 -3.85601e-19)
(-91.1607 23.7889 -1.17191e-19)
(-90.1565 27.3495 1.56976e-26)
(-89.0133 30.8679 7.92366e-19)
(-87.7328 34.3388 1.49719e-19)
(-86.317 37.7567 -6.86536e-19)
(-84.7681 41.1163 7.28867e-19)
(-83.0885 44.4126 5.79148e-19)
(-81.2808 47.6404 5.79148e-19)
(-79.3478 50.7948 0)
(-77.2925 53.8708 5.79147e-19)
(-75.1179 56.8637 0)
(-72.8275 59.769 7.28866e-19)
(-70.4249 62.5821 8.46635e-20)
(-67.9136 65.2987 -6.21478e-19)
(-65.2976 67.9147 5.36814e-19)
(-62.581 70.4259 8.46634e-20)
(-59.7678 72.8285 -8.13528e-19)
(-56.8625 75.1188 0)
(-53.8695 77.2933 -5.79145e-19)
(-50.7935 79.3486 0)
(-47.6391 81.2816 0)
(-44.4113 83.0893 -5.79144e-19)
(-41.115 84.7688 -4.23316e-20)
(-37.7552 86.3176 8.55858e-19)
(-34.3373 87.7333 -2.34383e-19)
(-30.8665 89.0137 2.11658e-20)
(-27.348 90.1569 -7.86404e-27)
(-23.7874 91.1611 7.48597e-20)
(-20.1901 92.0247 3.85597e-19)
(-16.5616 92.7464 -2.89571e-19)
(-12.9077 93.3251 -1.05829e-20)
(-9.23377 93.7599 3.2831e-27)
(-5.54566 94.0501 -1.58209e-19)
(-1.84899 94.1954 0)
(-92.4957 1.81736 -7.49866e-21)
(-92.353 5.44725 -1.26273e-19)
(-92.068 9.06881 2.37549e-19)
(-91.641 12.6764 2.12819e-25)
(-91.0726 16.2644 2.99939e-20)
(-90.3639 19.8274 4.2174e-19)
(-89.5158 23.3597 -1.13339e-19)
(-88.5297 26.8561 0)
(-87.4071 30.3111 -8.43479e-19)
(-86.1497 33.7193 -8.43479e-19)
(-84.7594 37.0755 7.83491e-19)
(-83.2385 40.3746 -7.23503e-19)
(-81.5892 43.6114 -5.99874e-20)
(-79.8142 46.7809 1.07016e-18)
(-77.916 49.8783 1.13014e-18)
(-75.8977 52.8988 5.99874e-20)
(-73.7624 55.8378 -1.19975e-19)
(-71.5134 58.6906 -8.43476e-19)
(-69.154 61.453 -1.07015e-18)
(-66.6881 64.1206 0)
(-64.1193 66.6893 0)
(-61.4517 69.1552 1.07015e-18)
(-58.6893 71.5145 8.43475e-19)
(-55.8364 73.7635 -1.19974e-19)
(-52.8974 75.8987 5.99872e-20)
(-49.8768 77.917 -1.01017e-18)
(-46.7794 79.815 -1.07015e-18)
(-43.6098 81.5901 -5.99872e-20)
(-40.373 83.2393 1.19974e-19)
(-37.0739 84.7601 -9.0346e-19)
(-33.7176 86.1503 8.43472e-19)
(-30.3094 87.4076 0)
(-26.8544 88.5302 0)
(-23.358 89.5162 1.13339e-19)
(-19.8256 90.3642 -4.21736e-19)
(-16.2627 91.0729 -5.05081e-19)
(-12.6746 91.6412 -7.27675e-27)
(-9.06703 92.0681 -2.97531e-19)
(-5.44546 92.3531 1.12932e-19)
(-1.8155 92.4957 -7.49837e-21)
(-90.61 1.78036 -1.01384e-20)
(-90.4702 5.33626 3.33573e-19)
(-90.191 8.88398 -3.31036e-19)
(-89.7727 12.418 3.96938e-19)
(-89.2159 15.9329 0)
(-88.5216 19.4232 7.12768e-19)
(-87.6908 22.8836 1.29372e-18)
(-86.7248 26.3086 0)
(-85.6251 29.6932 8.11058e-20)
(-84.3933 33.0319 -8.11058e-20)
(-83.0314 36.3197 -1.62212e-19)
(-81.5415 39.5515 -1.26332e-18)
(-79.9259 42.7223 -1.62212e-19)
(-78.187 45.8272 4.25833e-19)
(-76.3275 48.8615 -1.32412e-18)
(-74.3504 51.8204 1.62211e-19)
(-72.2586 54.6995 -1.58774e-18)
(-70.0554 57.4942 1.62211e-19)
(-67.7442 60.2002 2.58744e-18)
(-65.3285 62.8134 0)
(-62.8121 65.3298 0)
(-60.1988 67.7454 -2.58744e-18)
(-57.4927 70.0566 1.62211e-19)
(-54.698 72.2597 1.26332e-18)
(-51.8189 74.3514 1.62211e-19)
(-48.86 76.3285 9.99696e-19)
(-45.8256 78.1879 -1.0141e-19)
(-42.7207 79.9267 -1.62211e-19)
(-39.5498 81.5423 1.58774e-18)
(-36.318 83.0321 -1.62211e-19)
(-33.0302 84.394 -8.11054e-20)
(-29.6914 85.6257 8.11054e-20)
(-26.3069 86.7253 0)
(-22.8818 87.6913 -1.29372e-18)
(-19.4214 88.522 -7.12763e-19)
(-15.9311 89.2162 5.80952e-19)
(-12.4162 89.7729 -3.15829e-19)
(-8.88213 90.1911 2.49923e-19)
(-5.33439 90.4703 -1.68052e-19)
(-1.77843 90.61 -1.01382e-20)
(-88.5219 1.7395 -2.64037e-20)
(-88.3853 5.21347 6.41109e-20)
(-88.1125 8.67943 4.06078e-19)
(-87.7038 12.132 -3.30661e-19)
(-87.1599 15.5659 0)
(-86.4816 18.9758 -1.57908e-18)
(-85.6699 22.3564 -1.79031e-18)
(-84.7262 25.7025 0)
(-83.6518 29.009 -2.11227e-19)
(-82.4484 32.2708 -1.83553e-18)
(-81.1179 35.4829 2.04675e-18)
(-79.6623 38.6402 1.53386e-18)
(-78.0839 41.7379 2.04675e-18)
(-76.385 44.7713 -1.53386e-18)
(-74.5684 47.7356 1.6243e-18)
(-72.6369 50.6264 -2.11227e-19)
(-70.5933 53.4391 1.95632e-18)
(-68.4408 56.1693 1.6243e-18)
(-66.1829 58.813 -1.53386e-18)
(-63.8229 61.366 0)
(-61.3644 63.8244 0)
(-58.8114 66.1843 1.53386e-18)
(-56.1677 68.4422 -2.04675e-18)
(-53.4373 70.5946 -1.11141e-18)
(-50.6246 72.6381 -2.11226e-19)
(-47.7338 74.5696 -2.04675e-18)
(-44.7694 76.3861 1.53386e-18)
(-41.736 78.0849 -1.62429e-18)
(-38.6382 79.6632 -1.53386e-18)
(-35.4809 81.1187 -1.62429e-18)
(-32.2688 82.4492 1.83552e-18)
(-29.007 83.6525 -2.11226e-19)
(-25.7005 84.7268 0)
(-22.3543 85.6705 1.57907e-18)
(-18.9737 86.482 1.7903e-18)
(-15.5638 87.1603 0)
(-12.1299 87.7041 4.3627e-19)
(-8.67726 88.1127 -5.11685e-19)
(-5.21128 88.3854 -1.13043e-20)
(-1.73727 88.5219 -2.64032e-20)
(-86.2144 1.69434 0)
(-86.0814 5.07776 -5.30721e-19)
(-85.8157 8.45338 -1.06144e-18)
(-85.4177 11.816 1.14615e-18)
(-84.8879 15.1603 -1.14615e-18)
(-84.2273 18.4813 9.76729e-19)
(-83.4368 21.7738 7.10559e-19)
(-82.5176 25.0327 2.29229e-18)
(-81.4712 28.2531 -2.02612e-18)
(-80.2992 31.4298 1.95345e-18)
(-79.0033 34.5581 -1.68729e-18)
(-77.5857 37.6331 -2.66169e-19)
(-76.0484 40.6501 -1.95345e-18)
(-74.3939 43.6044 0)
(-72.6246 46.4915 -1.42112e-18)
(-70.7434 49.3069 -5.32337e-19)
(-68.753 52.0462 -2.29228e-18)
(-66.6567 54.7053 -1.95345e-18)
(-64.4576 57.2801 0)
(-62.1591 59.7665 -2.29228e-18)
(-59.7647 62.1608 2.29228e-18)
(-57.2782 64.4592 0)
(-54.7034 66.6583 1.95345e-18)
(-52.0443 68.7545 2.29228e-18)
(-49.3048 70.7448 -5.32336e-19)
(-46.4894 72.6259 2.48578e-18)
(-43.6023 74.3951 0)
(-40.6479 76.0495 1.95345e-18)
(-37.6309 77.5867 -2.66168e-19)
(-34.5559 79.0043 2.21961e-18)
(-31.4275 80.3001 -1.95345e-18)
(-28.2507 81.472 2.55844e-18)
(-25.0304 82.5183 -2.29228e-18)
(-21.7714 83.4374 -1.24289e-18)
(-18.4789 84.2278 -9.76722e-19)
(-15.1579 84.8883 1.14614e-18)
(-11.8135 85.418 -1.14614e-18)
(-8.45089 85.8159 1.06143e-18)
(-5.07526 86.0815 5.30715e-19)
(-1.6918 86.2144 0)
(-83.6703 1.64445 0)
(-83.5412 4.92804 3.0096e-19)
(-83.2833 8.20404 -9.30932e-20)
(-82.8971 11.4674 -2.75648e-18)
(-82.3829 14.7131 2.75648e-18)
(-81.7418 17.9361 0)
(-80.9746 21.1314 1.39002e-18)
(-80.0826 24.2942 -5.18772e-18)
(-79.067 27.4194 2.40767e-18)
(-77.9296 30.5025 2.78005e-18)
(-76.672 33.5384 0)
(-75.2962 36.5227 0)
(-73.8042 39.4507 6.50473e-19)
(-72.1985 42.3178 -6.50473e-19)
(-70.4815 45.1197 -6.50473e-19)
(-68.6557 47.852 1.30094e-18)
(-66.7241 50.5105 1.7572e-18)
(-64.6897 53.0911 0)
(-62.5554 55.5899 0)
(-60.3248 58.003 2.40767e-18)
(-58.0011 60.3266 -2.40767e-18)
(-55.5879 62.5572 0)
(-53.0891 64.6913 0)
(-50.5084 66.7257 -3.05814e-18)
(-47.8498 68.6572 1.30094e-18)
(-45.1175 70.4829 -6.50471e-19)
(-42.3155 72.1998 -6.50471e-19)
(-39.4484 73.8055 6.50471e-19)
(-36.5203 75.2973 0)
(-33.536 76.673 0)
(-30.5 77.9305 -2.78004e-18)
(-27.417 79.0679 -2.40766e-18)
(-24.2916 80.0833 5.1877e-18)
(-21.1288 80.9752 -1.39002e-18)
(-17.9335 81.7423 0)
(-14.7105 82.3834 -2.43123e-18)
(-11.4648 82.8974 2.43123e-18)
(-8.20139 83.2836 9.30935e-20)
(-4.92537 83.5414 -3.00957e-19)
(-1.64176 83.6703 0)
(-80.8721 1.58945 0)
(-80.7473 4.76323 0)
(-80.4981 7.92968 7.18798e-19)
(-80.1247 11.0839 1.43759e-18)
(-79.6278 14.221 -1.43759e-18)
(-79.0081 17.3362 3.85551e-19)
(-78.2665 20.4247 -1.86049e-19)
(-77.4043 23.4817 3.64628e-18)
(-76.4228 26.5025 -1.52561e-25)
(-75.3234 29.4824 -2.87518e-18)
(-74.1078 32.4168 -7.71101e-19)
(-72.778 35.3013 0)
(-71.336 38.1313 2.50308e-18)
(-69.784 40.9026 -2.50308e-18)
(-68.1243 43.6107 0)
(-66.3597 46.2516 7.711e-19)
(-64.4927 48.8213 2.50308e-18)
(-62.5262 51.3156 -2.50308e-18)
(-60.4634 53.7308 -7.711e-19)
(-58.3073 56.0631 0)
(-56.0613 58.3091 0)
(-53.7289 60.4651 -7.71099e-19)
(-51.3136 62.5278 4.04528e-18)
(-48.8192 64.4942 -4.04527e-18)
(-46.2496 66.3611 7.71099e-19)
(-43.6086 68.1257 0)
(-40.9004 69.7852 4.04527e-18)
(-38.1291 71.3372 -4.04527e-18)
(-35.299 72.7791 0)
(-32.4145 74.1088 -4.04527e-18)
(-29.48 75.3243 2.87517e-18)
(-26.5 76.4236 1.03421e-25)
(-23.4792 77.405 -2.10407e-18)
(-20.4222 78.2672 -5.8505e-19)
(-17.3337 79.0086 3.85549e-19)
(-14.2185 79.6282 1.43758e-18)
(-11.0813 80.125 -1.43758e-18)
(-7.92711 80.4983 -1.53733e-18)
(-4.76065 80.7475 0)
(-1.58685 80.8721 0)
(-77.8023 1.52894 -1.10807e-19)
(-77.6823 4.58227 -3.5695e-19)
(-77.4425 7.62852 0)
(-77.0833 10.663 0)
(-76.6053 13.6811 4.43229e-19)
(-76.0091 16.678 -4.4323e-19)
(-75.2958 19.6493 -2.54982e-18)
(-74.4663 22.5902 4.62851e-18)
(-73.522 25.4963 0)
(-72.4643 28.3631 0)
(-71.2949 31.1862 -4.62851e-18)
(-70.0156 33.9612 1.0154e-25)
(-68.6283 36.6838 -1.55381e-18)
(-67.1352 39.3498 6.18232e-18)
(-65.5386 41.9552 0)
(-63.8409 44.4959 0)
(-62.0448 46.968 -3.32673e-18)
(-60.153 49.3676 3.32673e-18)
(-58.1684 51.6912 0)
(-56.0942 53.935 0)
(-53.9335 56.0957 0)
(-51.6896 58.1698 0)
(-49.366 60.1543 -3.32672e-18)
(-46.9663 62.046 3.32672e-18)
(-44.4942 63.8421 0)
(-41.9534 65.5397 0)
(-39.348 67.1362 -7.95522e-18)
(-36.6819 68.6293 5.09963e-18)
(-33.9593 70.0165 -1.16999e-25)
(-31.1842 71.2957 6.18231e-18)
(-28.3611 72.4651 0)
(-25.4943 73.5226 0)
(-22.5882 74.4669 -2.85558e-18)
(-19.6472 75.2963 7.76904e-19)
(-16.6759 76.0096 -4.43227e-19)
(-13.679 76.6056 4.43227e-19)
(-10.6609 77.0836 0)
(-7.62638 77.4427 -1.0383e-19)
(-4.58012 77.6824 5.78561e-19)
(-1.52679 77.8024 -1.10807e-19)
(-74.444 1.46255 -2.5914e-19)
(-74.3292 4.38408 4.65978e-19)
(-74.0998 7.29884 0)
(-73.7561 10.2024 4.93761e-19)
(-73.2987 13.0901 -4.93761e-19)
(-72.7283 15.9577 -9.8752e-19)
(-72.0457 18.8007 1.97504e-18)
(-71.2521 21.6147 -3.72782e-18)
(-70.3485 24.3954 -1.97504e-18)
(-69.3365 27.1385 9.8752e-19)
(-68.2176 29.8397 3.72781e-18)
(-66.9935 32.4949 -4.14623e-18)
(-65.6662 35.1 -4.14623e-18)
(-64.2375 37.651 -7.87405e-18)
(-62.7098 40.1439 0)
(-61.0854 42.5749 0)
(-59.3668 44.9403 -1.97504e-18)
(-57.5567 47.2364 3.95007e-18)
(-55.6579 49.4596 8.29246e-18)
(-53.6732 51.6066 -1.97504e-18)
(-51.6057 53.674 -1.97504e-18)
(-49.4587 55.6587 2.47771e-25)
(-47.2354 57.5575 1.22425e-17)
(-44.9393 59.3676 -1.97504e-18)
(-42.5739 61.0861 0)
(-40.1428 62.7105 0)
(-37.6499 64.2381 7.87403e-18)
(-35.0989 65.6667 4.14623e-18)
(-32.4938 66.9941 4.14623e-18)
(-29.8385 68.2181 -3.72781e-18)
(-27.1373 69.337 9.87517e-19)
(-24.3942 70.3489 -1.97503e-18)
(-21.6135 71.2524 3.7278e-18)
(-18.7995 72.046 1.97503e-18)
(-15.9565 72.7285 -9.87517e-19)
(-13.0889 73.2989 -4.93758e-19)
(-10.2011 73.7563 4.93758e-19)
(-7.29758 74.0999 1.96851e-18)
(-4.38281 74.3293 -4.65975e-19)
(-1.46128 74.444 2.59139e-19)
(-70.7806 1.38994 2.52727e-19)
(-70.6715 4.1677 0)
(-70.4534 6.93903 5.7989e-19)
(-70.1266 9.69966 -1.69245e-18)
(-69.6918 12.4453 -1.06533e-18)
(-69.1494 15.1718 3.8104e-25)
(-68.5005 17.8749 1.06533e-18)
(-67.7459 20.5504 0)
(-66.8869 23.1943 4.45022e-18)
(-65.9247 25.8024 -6.58088e-18)
(-64.8609 28.3707 2.13066e-18)
(-63.6971 30.8952 4.04364e-18)
(-62.435 33.3721 1.91298e-18)
(-61.0767 35.7976 6.1743e-18)
(-59.6242 38.1679 0)
(-58.0798 40.4793 -2.13066e-18)
(-56.4458 42.7283 -4.63911e-18)
(-54.7248 44.9114 -1.10311e-17)
(-52.9194 47.0252 -1.91184e-17)
(-51.0324 49.0666 2.13066e-18)
(-49.0667 51.0323 2.13066e-18)
(-47.0253 52.9193 6.76977e-18)
(-44.9115 54.7247 -1.3175e-18)
(-42.7284 56.4457 4.26132e-18)
(-40.4794 58.0797 -2.13066e-18)
(-38.168 59.6241 0)
(-35.7977 61.0766 -1.91297e-18)
(-33.3722 62.4349 -6.17429e-18)
(-30.8953 63.697 -4.04363e-18)
(-28.3708 64.8608 2.13066e-18)
(-25.8025 65.9247 2.31955e-18)
(-23.1944 66.8868 -4.45021e-18)
(-20.5505 67.7459 0)
(-17.875 68.5005 1.06533e-18)
(-15.1719 69.1494 -9.8587e-26)
(-12.4454 69.6917 -1.06533e-18)
(-9.69974 70.1266 2.75777e-18)
(-6.93911 70.4534 -2.65612e-18)
(-4.16777 70.6715 0)
(-1.39001 70.7806 -2.52727e-19)
(-66.7966 1.31081 0)
(-66.6936 3.93223 5.56332e-19)
(-66.4878 6.54757 -4.61378e-19)
(-66.1795 9.15281 2.12272e-18)
(-65.7691 11.7439 1.11266e-18)
(-65.2574 14.317 1.11266e-18)
(-64.645 16.8679 1.74598e-19)
(-63.9329 19.3929 -2.39993e-18)
(-63.1223 21.8879 -4.24543e-18)
(-62.2143 24.3492 -3.79818e-19)
(-61.2104 26.7729 2.22533e-18)
(-60.1121 29.1554 -2.22533e-18)
(-58.9211 31.4929 0)
(-57.6393 33.7819 -4.45065e-18)
(-56.2686 36.0187 4.45065e-18)
(-54.8111 38.2001 4.45065e-18)
(-53.2691 40.3225 -4.1044e-19)
(-51.645 42.3827 8.49086e-18)
(-49.9412 44.3776 1.29415e-17)
(-48.1605 46.3041 -9.2505e-18)
(-46.3055 48.1592 9.2505e-18)
(-44.379 49.94 -4.04021e-18)
(-42.3842 51.6438 -8.49086e-18)
(-40.324 53.268 -8.9013e-18)
(-38.2016 54.81 4.45065e-18)
(-36.0203 56.2675 -4.79984e-18)
(-33.7835 57.6383 -4.45065e-18)
(-31.4946 58.9202 0)
(-29.1571 60.1113 -2.22532e-18)
(-26.7747 61.2096 2.22532e-18)
(-24.3509 62.2136 3.79818e-19)
(-21.8897 63.1216 4.24542e-18)
(-19.3946 63.9324 6.85056e-18)
(-16.8697 64.6445 -9.07588e-18)
(-14.3188 65.257 1.11266e-18)
(-11.7458 65.7688 1.11266e-18)
(-9.15464 66.1792 -2.12271e-18)
(-6.5494 66.4876 -6.51285e-19)
(-3.93406 66.6935 5.5633e-19)
(-1.31265 66.7965 0)
(-62.4773 1.22498 2.81371e-19)
(-62.3811 3.67689 8.82705e-19)
(-62.1886 6.12312 -1.07906e-18)
(-61.9003 8.5599 1.20267e-18)
(-61.5165 10.9835 -1.20267e-18)
(-61.0379 13.3901 0)
(-60.4651 15.7762 -4.31624e-18)
(-59.7991 18.1378 2.06526e-18)
(-59.0409 20.4716 6.90728e-18)
(-58.1917 22.7737 4.31623e-18)
(-57.2528 25.0407 4.65631e-18)
(-56.2255 27.2692 0)
(-55.1116 29.4556 -9.31261e-18)
(-53.9127 31.5965 0)
(-52.6307 33.6888 0)
(-51.2675 35.7291 -1.38145e-17)
(-49.8252 37.7143 4.50194e-18)
(-48.3062 39.6413 -9.31261e-18)
(-46.7126 41.5072 4.50194e-18)
(-45.047 43.3092 4.13052e-18)
(-43.312 45.0443 -1.31344e-17)
(-41.5102 46.71 4.50194e-18)
(-39.6443 48.3037 9.3126e-18)
(-37.7174 49.8229 -4.81066e-18)
(-35.7323 51.2652 4.81066e-18)
(-33.692 52.6285 8.63245e-18)
(-31.5999 53.9107 0)
(-29.459 55.1098 9.3126e-18)
(-27.2727 56.2238 0)
(-25.0443 57.2512 -4.6563e-18)
(-22.7773 58.1903 -4.31622e-18)
(-20.4752 59.0397 -2.40533e-18)
(-18.1416 59.798 -6.56719e-18)
(-15.7799 60.4641 4.31622e-18)
(-13.3939 61.037 0)
(-10.9873 61.5158 3.45363e-18)
(-8.56374 61.8998 -3.45363e-18)
(-6.12697 62.1882 1.07906e-18)
(-3.68074 62.3808 -1.44544e-18)
(-1.22884 62.4772 2.81371e-19)
(-57.8097 1.13227 8.35927e-19)
(-57.7206 3.401 -2.75162e-18)
(-57.5426 5.66448 0)
(-57.2759 7.91922 -4.3345e-18)
(-56.9208 10.1617 6.54196e-18)
(-56.478 12.3886 -4.40984e-25)
(-55.9481 14.5964 -2.20747e-18)
(-55.3319 16.7816 -4.41494e-18)
(-54.6304 18.941 1.60891e-19)
(-53.8447 21.0712 4.54498e-18)
(-52.9759 23.1689 4.2097e-19)
(-52.0254 25.2308 4.41494e-18)
(-50.9948 27.2539 8.50809e-18)
(-49.8855 29.2349 9.08995e-18)
(-48.6993 31.1709 -9.08995e-18)
(-47.438 33.0588 4.09315e-18)
(-46.1035 34.8957 3.39712e-25)
(-44.698 36.6788 3.83307e-18)
(-43.2235 38.4054 0)
(-41.6824 40.0727 0)
(-40.077 41.6782 0)
(-38.4098 43.2195 0)
(-36.6834 44.6942 4.99679e-18)
(-34.9005 46.0999 8.50808e-18)
(-33.0637 47.4345 -1.2923e-17)
(-31.1759 48.696 9.08994e-18)
(-29.2401 49.8825 -9.08994e-18)
(-27.2592 50.992 -8.50808e-18)
(-25.2362 52.0228 4.41493e-18)
(-23.1744 52.9735 -9.25083e-18)
(-21.0768 53.8425 -4.54497e-18)
(-18.9467 54.6284 4.124e-18)
(-16.7874 55.3302 -4.41493e-18)
(-14.6022 55.9466 -2.20746e-18)
(-12.3944 56.4767 1.75287e-25)
(-10.1676 56.9198 2.28791e-18)
(-7.92513 57.2751 -8.04452e-20)
(-5.67041 57.5421 0)
(-3.40694 57.7203 1.64788e-18)
(-1.13823 57.8096 2.67805e-19)
(-52.7818 1.03256 2.71092e-19)
(-52.7005 3.10397 1.54341e-18)
(-52.5381 5.17059 1.05112e-18)
(-52.2946 7.22924 -2.22682e-25)
(-51.9704 9.27674 -5.49547e-25)
(-51.5661 11.3099 -1.0615e-17)
(-51.0824 13.3257 4.20445e-18)
(-50.5198 15.3209 0)
(-49.8794 17.2925 0)
(-49.162 19.2374 4.54526e-18)
(-48.3689 21.1527 -3.9384e-18)
(-47.5011 23.0353 -1.26134e-17)
(-46.5601 24.8824 8.4089e-18)
(-45.5474 26.6912 -8.14284e-18)
(-44.4644 28.4588 -4.73838e-19)
(-43.3128 30.1825 2.07782e-19)
(-42.0944 31.8597 -2.07781e-19)
(-40.8112 33.4878 8.14284e-18)
(-39.465 35.0642 0)
(-38.058 36.5865 0)
(-36.5922 38.0525 0)
(-35.0701 39.4597 0)
(-33.4939 40.8062 -8.14284e-18)
(-31.866 42.0897 8.40889e-18)
(-30.189 43.3083 -1.70256e-17)
(-28.4655 44.4601 4.73838e-19)
(-26.698 45.5434 8.14284e-18)
(-24.8894 46.5564 8.40889e-18)
(-23.0424 47.4977 -1.26133e-17)
(-21.1599 48.3657 1.23473e-17)
(-19.2448 49.1591 -4.54525e-18)
(-17.3 49.8768 4.07142e-18)
(-15.3285 50.5175 0)
(-13.3333 51.0804 4.20444e-18)
(-11.3177 51.5645 -1.99833e-18)
(-9.28452 51.969 1.4659e-25)
(-7.23706 52.2935 1.34901e-25)
(-5.17845 52.5373 1.05111e-18)
(-3.11185 52.7001 -4.92298e-19)
(-1.04046 52.7816 7.80019e-19)
(-47.3831 0.925804 0)
(-47.3102 2.78535 -9.93625e-19)
(-47.1644 4.64059 0)
(-46.9458 6.48868 0)
(-46.6549 8.32676 -3.97451e-18)
(-46.292 10.152 -1.04524e-19)
(-45.8578 11.9616 3.89637e-18)
(-45.3528 13.7527 3.97451e-18)
(-44.7779 15.5227 0)
(-44.134 17.2687 -7.58369e-18)
(-43.422 18.988 -7.94901e-18)
(-42.643 20.6781 7.94901e-18)
(-41.7984 22.3364 7.949e-18)
(-40.8892 23.9601 -1.5627e-19)
(-39.917 25.547 -2.09048e-19)
(-38.8833 27.0944 3.65318e-19)
(-37.7896 28.6001 7.58368e-18)
(-36.6376 30.0616 -7.949e-18)
(-35.4291 31.4768 -7.949e-18)
(-34.1661 32.8435 7.949e-18)
(-32.8503 34.1595 -7.949e-18)
(-31.4839 35.4229 0)
(-30.0689 36.6316 0)
(-28.6076 37.7839 0)
(-27.1021 38.8779 -3.65318e-19)
(-25.5549 39.912 -1.53764e-17)
(-23.9682 40.8845 1.57417e-17)
(-22.3446 41.7939 -7.949e-18)
(-20.6866 42.639 -7.94899e-18)
(-18.9967 43.4182 7.94899e-18)
(-17.2774 44.1306 7.58368e-18)
(-15.5315 44.7749 0)
(-13.7617 45.3501 -3.9745e-18)
(-11.9707 45.8554 3.89636e-18)
(-10.1612 46.29 -7.6882e-18)
(-8.33599 46.6533 0)
(-6.49796 46.9446 0)
(-4.64992 47.1635 0)
(-2.7947 47.3097 9.93624e-19)
(-0.93518 47.3829 0)
(-41.6043 0.811104 1.3204e-18)
(-41.5404 2.44386 -1.92671e-20)
(-41.4124 4.07285 0)
(-41.2206 5.69555 5.28162e-18)
(-40.9652 7.30947 -7.70717e-20)
(-40.6467 8.91212 0)
(-40.2654 10.501 0)
(-39.8221 12.0737 -6.87421e-18)
(-39.3174 13.6278 1.40116e-17)
(-38.7521 15.1609 -1.40116e-17)
(-38.127 16.6706 1.38575e-17)
(-37.4431 18.1546 -6.85166e-18)
(-36.7015 19.6107 -1.38575e-17)
(-35.9033 21.0364 1.38575e-17)
(-35.0497 22.4298 -7.0058e-18)
(-34.1421 23.7885 1.54143e-19)
(-33.1819 25.1106 1.09046e-19)
(-32.1704 26.3939 1.37484e-17)
(-31.1094 27.6366 -1.41657e-17)
(-30.0004 28.8366 1.42748e-17)
(-28.8452 29.9922 1.37484e-17)
(-27.6454 31.1016 -2.10174e-17)
(-26.4031 32.1629 1.40116e-17)
(-25.12 33.1747 -1.41206e-17)
(-23.7982 34.1353 1.38574e-17)
(-22.4397 35.0433 -7.00579e-18)
(-21.0466 35.8973 1.54142e-19)
(-19.6211 36.6959 -1.54143e-19)
(-18.1653 37.4379 6.85165e-18)
(-16.6815 38.1223 1.54142e-19)
(-15.1719 38.7478 -1.40116e-17)
(-13.639 39.3135 1.40116e-17)
(-12.0851 39.8187 -7.13738e-18)
(-10.5125 40.2625 0)
(-8.92366 40.6441 0)
(-7.3211 40.9631 -3.50289e-18)
(-5.70725 41.219 1.72419e-18)
(-4.0846 41.4113 0)
(-2.45565 41.5397 -1.73218e-18)
(-0.822914 41.6041 8.75723e-19)
(-35.8146 0.698068 -4.15421e-19)
(-35.7596 2.10361 1.68751e-18)
(-35.6494 3.5059 -1.68751e-18)
(-35.4843 4.90279 -1.66169e-18)
(-35.2645 6.29211 3.37503e-18)
(-34.9903 7.67174 3.56706e-20)
(-34.6621 9.03953 6.75005e-18)
(-34.2805 10.3934 -3.25203e-18)
(-33.846 11.7312 -7.13424e-20)
(-33.3593 13.051 -1.35001e-17)
(-32.8212 14.3506 6.75005e-18)
(-32.2325 15.6281 6.75005e-18)
(-31.5941 16.8815 -1.35714e-17)
(-30.907 18.1088 6.75005e-18)
(-30.1722 19.3083 -6.75005e-18)
(-29.3909 20.4779 0)
(-28.5643 21.616 -6.64674e-18)
(-27.6937 22.7208 1.34681e-17)
(-26.7803 23.7905 2.03215e-17)
(-25.8256 24.8236 -2.01468e-17)
(-24.8312 25.8184 -6.85334e-18)
(-23.7984 26.7733 6.6787e-18)
(-22.7289 27.687 -6.82138e-18)
(-21.6244 28.558 6.64674e-18)
(-20.4866 29.3849 0)
(-19.3171 30.1666 -6.75004e-18)
(-18.1179 30.9017 6.75004e-18)
(-16.8907 31.5892 7.13421e-20)
(-15.6375 32.228 6.75004e-18)
(-14.3602 32.817 6.75004e-18)
(-13.0607 33.3555 -1.35001e-17)
(-11.7411 33.8426 1.35714e-17)
(-10.4034 34.2774 -1.0248e-17)
(-9.04969 34.6594 6.75004e-18)
(-7.68199 34.988 -6.78571e-18)
(-6.30244 35.2626 3.37502e-18)
(-4.91318 35.4829 1.66168e-18)
(-3.51634 35.6484 -1.68751e-18)
(-2.11408 35.759 1.68751e-18)
(-0.708558 35.8144 0)
(-30.6367 0.598397 4.43032e-19)
(-30.5896 1.80073 8.80341e-19)
(-30.4953 3.00028 8.91792e-19)
(-30.354 4.19521 1.76068e-18)
(-30.1659 5.38366 1.78358e-18)
(-29.9313 6.56382 -3.48863e-18)
(-29.6505 7.73385 0)
(-29.324 8.89196 1.11263e-19)
(-28.9523 10.0364 -1.11263e-19)
(-28.5359 11.1653 -1.41313e-17)
(-28.0756 12.277 6.99693e-18)
(-27.572 13.3698 -7.04273e-18)
(-27.0258 14.4419 6.97726e-18)
(-26.438 15.4918 7.04273e-18)
(-25.8094 16.5178 -2.1174e-17)
(-25.141 17.5184 1.41312e-17)
(-24.4339 18.4919 0)
(-23.689 19.4369 6.54651e-20)
(-22.9077 20.3519 -1.402e-17)
(-22.091 21.2356 0)
(-21.2403 22.0865 0)
(-20.3568 22.9034 -6.54651e-20)
(-19.4419 23.6849 1.402e-17)
(-18.4971 24.43 0)
(-17.5237 25.1373 -4.57975e-20)
(-16.5233 25.8059 -6.99692e-18)
(-15.4974 26.4347 7.04272e-18)
(-14.4476 27.0228 -6.97725e-18)
(-13.3756 27.5691 -7.04272e-18)
(-12.2829 28.073 2.11739e-17)
(-11.1713 28.5336 4.57969e-20)
(-10.0425 28.9502 1.11263e-19)
(-8.89816 29.3221 -1.11263e-19)
(-7.74012 29.6489 0)
(-6.57014 29.9299 3.48862e-18)
(-5.39003 30.1647 -5.30493e-18)
(-4.20162 30.3531 -1.78358e-18)
(-3.00672 30.4947 -2.65247e-18)
(-1.80719 30.5892 8.80339e-19)
(-0.604867 30.6366 -4.43032e-19)
(-26.2438 0.513315 -4.51908e-19)
(-26.2034 1.54325 -9.09047e-19)
(-26.1226 2.5708 2.74498e-18)
(-26.0016 3.59438 -4.78022e-26)
(-25.8404 4.61243 -7.25147e-18)
(-25.6394 5.62336 1.8181e-18)
(-25.3988 6.62562 0)
(-25.1191 7.61767 -7.23055e-18)
(-24.8007 8.59796 -7.134e-20)
(-24.444 9.56501 7.23055e-18)
(-24.0497 10.5173 1.81686e-17)
(-23.6182 11.4534 -3.60668e-18)
(-23.1503 12.3718 7.30188e-18)
(-22.6468 13.2711 7.16591e-25)
(-22.1083 14.15 2.18048e-17)
(-21.5357 15.0071 -2.91067e-17)
(-20.93 15.841 7.27237e-18)
(-20.2919 16.6505 0)
(-19.6226 17.4343 -1.46038e-17)
(-18.923 18.1912 0)
(-18.1942 18.9201 0)
(-17.4374 19.6198 1.46038e-17)
(-16.6537 20.2893 0)
(-15.8443 20.9275 7.27237e-18)
(-15.0104 21.5334 1.45619e-17)
(-14.1535 22.1061 -7.26004e-18)
(-13.2747 22.6447 -6.11887e-25)
(-12.3754 23.1484 -7.30188e-18)
(-11.4571 23.6164 -1.82104e-17)
(-10.5211 24.048 -1.08962e-17)
(-9.56883 24.4425 -7.23053e-18)
(-8.60185 24.7994 7.13401e-20)
(-7.6216 25.118 7.23053e-18)
(-6.62959 25.3978 0)
(-5.62737 25.6385 5.46903e-18)
(-4.61647 25.8397 -2.09163e-20)
(-3.59845 26.001 3.61527e-18)
(-2.57488 26.1222 2.7093e-18)
(-1.54734 26.2032 -9.09045e-19)
(-0.517418 26.2437 4.51908e-19)
(-22.4909 0.440339 -4.67653e-19)
(-22.4563 1.32299 9.32926e-19)
(-22.387 2.2036 -9.21445e-19)
(-22.2832 3.08081 0)
(-22.1451 3.95327 0)
(-21.9728 4.81963 5.60709e-18)
(-21.7667 5.67857 -1.86585e-18)
(-21.527 6.52874 -3.73171e-18)
(-21.254 7.36885 1.11683e-17)
(-20.9484 8.1976 3.75076e-18)
(-20.6104 9.01371 -3.70484e-18)
(-20.2406 9.81592 -7.43654e-18)
(-19.8396 10.603 -1.4919e-17)
(-19.4081 11.3737 -1.49649e-17)
(-18.9466 12.1269 -7.43654e-18)
(-18.4559 12.8614 1.48731e-17)
(-17.9367 13.5761 -1.49649e-17)
(-17.3899 14.2698 0)
(-16.8162 14.9415 1.48731e-17)
(-16.2167 15.5902 0)
(-15.5921 16.2148 0)
(-14.9435 16.8145 -1.48731e-17)
(-14.2718 17.3882 0)
(-13.5782 17.9351 1.49649e-17)
(-12.8636 18.4543 9.18499e-20)
(-12.1292 18.9451 7.43653e-18)
(-11.376 19.4067 1.49649e-17)
(-10.6053 19.8384 7.43653e-18)
(-9.81832 20.2394 7.43653e-18)
(-9.01615 20.6093 1.11682e-17)
(-8.20008 20.9474 -1.12142e-17)
(-7.37137 21.2532 -3.70483e-18)
(-6.53129 21.5262 -3.7317e-18)
(-5.68114 21.766 -1.86585e-18)
(-4.82223 21.9723 -5.59364e-18)
(-3.95589 22.1447 0)
(-3.08344 22.2829 0)
(-2.20624 22.3868 -9.44406e-19)
(-1.32564 22.4561 9.32924e-19)
(-0.442998 22.4909 4.67653e-19)
(-19.2666 0.377473 4.74095e-19)
(-19.237 1.13359 0)
(-19.1776 1.88795 -1.89639e-18)
(-19.0887 2.63941 -9.5035e-19)
(-18.9704 3.38679 9.5035e-19)
(-18.8228 4.12895 -3.79277e-18)
(-18.6462 4.86475 7.61506e-18)
(-18.4408 5.59304 -7.61506e-18)
(-18.207 6.31271 0)
(-17.9451 7.02265 -3.77188e-18)
(-17.6556 7.72176 3.8014e-18)
(-17.3388 8.40896 -1.14165e-17)
(-16.9953 9.0832 1.13869e-17)
(-16.6256 9.74343 -3.86043e-18)
(-16.2303 10.3886 3.80139e-18)
(-15.8099 11.0178 0)
(-15.3652 11.63 1.51711e-17)
(-14.8967 12.2243 1.52301e-17)
(-14.4053 12.7997 -1.52301e-17)
(-13.8917 13.3554 0)
(-13.3567 13.8905 0)
(-12.801 14.4042 1.52301e-17)
(-12.2257 14.8956 0)
(-11.6314 15.3641 -1.51711e-17)
(-11.0193 15.8089 -1.51711e-17)
(-10.3901 16.2293 3.80139e-18)
(-9.74495 16.6247 -3.74236e-18)
(-9.08475 16.9945 3.80139e-18)
(-8.41055 17.3381 -1.14164e-17)
(-7.72337 17.6549 3.80139e-18)
(-7.02429 17.9445 -3.83091e-18)
(-6.31438 18.2064 0)
(-5.59473 18.4403 7.61504e-18)
(-4.86645 18.6457 -7.61504e-18)
(-4.13067 18.8224 3.79276e-18)