/*--------------------------------*- C++ -*----------------------------------*\
| =========                 |                                                 |
| \\      /  F ield         | OpenFOAM: The Open Source CFD Toolbox           |
|  \\    /   O peration     | Version:  2412                                  |
|   \\  /    A nd           | Website:  www.openfoam.com                      |
|    \\/     M anipulation  |                                                 |
\*---------------------------------------------------------------------------*/
FoamFile
{
    version     2.0;
    format      ascii;
    arch        "LSB;label=32;scalar=64";
    class       volVectorField;
    location    "18.1";
    object      U;
}
// * * * * * * * * * * * * * * * * * * * * * * * * * * * * * * * * * * * * * //

dimensions      [0 1 -1 0 0 0 0];

internalField   nonuniform List<vector> 
808
(
(0.8919 -0.0115833 0)
(1.02225 -0.0355068 0)
(1.19332 -0.00681493 0)
(1.07036 0.0102453 -2.35655e-21)
(1.47013 -0.288635 0)
(0.959471 -0.0297969 0)
(1.137 -0.0498296 -1.2407e-22)
(1.11222 -0.0357473 0)
(1.34233 -0.227521 2.32091e-20)
(1.22868 -0.0944522 -7.03112e-21)
(1.23116 -0.0649221 5.05551e-21)
(1.37253 -0.255842 0)
(0.991511 -0.0400784 0)
(0.73861 -0.0222977 0)
(0.958526 0.0567589 1.93473e-20)
(1.07189 -0.0279352 0)
(0.85233 0.0502892 -6.40661e-21)
(0.987391 -0.0322607 -4.3087e-23)
(1.23643 0.0218679 0)
(1.12061 -0.000606462 0)
(1.24972 -0.0546908 -7.05539e-21)
(0.928287 0.124656 1.10297e-19)
(1.0751 0.0120931 -1.15203e-20)
(1.179 -0.0454684 0)
(0.953536 0.187327 0)
(1.33893 0.0523492 -3.31441e-20)
(1.27602 -0.179258 7.07395e-21)
(0.961041 -0.0219709 -7.98898e-22)
(1.07288 -0.0251824 0)
(1.04209 0.0370912 -2.44261e-22)
(0.985109 -0.0275385 1.4873e-24)
(1.12621 -0.0195143 0)
(1.03659 0.036538 0)
(1.06999 -0.0190945 7.20049e-22)
(1.29922 -0.0860693 7.7184e-21)
(0.742183 -0.111278 1.115e-19)
(0.87226 -0.0284919 -2.40143e-21)
(1.01738 0.0393207 7.27084e-22)
(1.19044 0.051101 -9.44955e-22)
(1.08344 0.03827 0)
(1.259 -0.079868 -1.48414e-20)
(1.27229 -0.13878 0)
(1.00615 -0.00248349 -5.86596e-21)
(1.12897 -0.0446384 4.51636e-21)
(1.24023 -0.0677519 0)
(1.01136 0.0176744 -1.8138e-20)
(0.99257 0.038003 9.16067e-22)
(1.249 -0.251101 3.10681e-21)
(1.17557 0.0558879 -1.17289e-21)
(1.3961 -0.184663 -3.35282e-20)
(1.13455 -0.0443387 7.6872e-22)
(1.14903 -0.0736119 0)
(1.12006 -0.00254742 5.22652e-21)
(1.13949 -0.01385 0)
(1.32467 0.233796 4.71027e-21)
(1.07206 0.0474218 -4.50206e-22)
(1.18379 -0.0152158 0)
(1.20987 -0.0932974 2.49426e-21)
(1.23196 -0.100473 7.54741e-21)
(1.1507 0.0339609 6.52743e-22)
(-0.197274 0.0768483 0)
(1.21306 -0.214002 -5.8126e-21)
(1.18658 -0.0736122 0)
(1.41529 -0.106652 -2.5751e-20)
(1.14582 -0.0578346 -5.26323e-21)
(1.04014 -0.0300652 -5.8494e-21)
(1.32052 -0.124246 2.50275e-20)
(0.630754 0.0158961 0)
(1.15611 -0.0606457 0)
(1.4331 -0.351305 0)
(0.885095 0.0293189 -9.92135e-23)
(1.23572 -0.141515 -3.92842e-20)
(1.00115 0.0469935 0)
(1.05799 -0.0495929 -1.92196e-21)
(1.11965 -0.333742 -5.7399e-20)
(1.13318 -0.0464594 -4.55118e-21)
(1.15284 0.0198243 5.5832e-22)
(1.32154 0.499378 2.48774e-20)
(1.11031 -0.0420258 0)
(1.01431 0.284815 -1.8244e-19)
(1.36081 0.0222918 1.87817e-20)
(0.732597 0.0211842 0)
(0.841843 0.0356008 -5.68717e-21)
(0.968219 -0.108511 4.26343e-21)
(1.12948 -0.0494626 3.69149e-21)
(1.19822 0.00618577 1.6707e-21)
(1.27699 -0.234562 0)
(1.34928 0.289122 0)
(1.09317 -0.00177991 -8.49158e-21)
(1.4153 0.094354 3.69974e-20)
(1.08013 -0.021733 1.04922e-20)
(1.3151 -0.128933 -1.32156e-21)
(0.96493 0.0262733 1.68415e-20)
(1.00414 -0.0239742 0)
(1.11633 0.0161529 1.19531e-21)
(1.24877 -0.0803966 -6.1994e-20)
(0.754647 0.0224532 -8.07629e-22)
(1.36079 -0.0576889 0)
(1.31917 -0.101102 0)
(1.40696 -0.0923414 -4.03002e-20)
(1.10671 -0.0444921 -1.20558e-21)
(1.12949 0.00511494 3.02014e-23)
(0.953712 0.0223502 8.93965e-21)
(1.19169 -0.00793977 -6.56408e-22)
(1.32718 0.00492832 -2.24868e-20)
(1.00058 0.00674125 1.14207e-20)
(1.47137 -0.0658619 0)
(0.915309 0.0860479 0)
(1.09989 0.0336803 8.31957e-22)
(1.1989 -0.220907 -7.60808e-21)
(1.28415 -0.0103764 1.28851e-20)
(1.04793 0.0476497 -1.21743e-19)
(1.16106 0.0413292 -2.64446e-22)
(1.17943 0.146165 3.56915e-21)
(0.794103 0.0186744 0)
(0.917354 -0.0459339 7.60172e-20)
(1.15079 0.0203817 -1.5905e-21)
(1.42534 -0.261746 -1.69193e-20)
(1.12135 -0.053352 -3.8408e-21)
(0.92543 0.0149188 2.51013e-21)
(-0.342696 -0.0159653 0)
(0.862479 -0.0176554 2.13418e-21)
(0.804798 0.0232638 0)
(1.06372 0.00157832 -8.06606e-23)
(1.01246 0.0289106 0)
(1.31319 0.323161 7.3012e-21)
(1.03397 -0.0545604 -3.03434e-20)
(1.33698 0.16787 1.17631e-21)
(1.14838 -0.0687061 0)
(1.09162 -0.0236218 0)
(0.579646 -0.000279948 0)
(1.12195 -0.0398967 -2.00866e-21)
(1.24961 -0.0575123 8.53748e-21)
(1.06748 0.113206 -3.24472e-20)
(0.847022 -0.0229118 0)
(1.10728 0.0223919 -3.2084e-22)
(1.06385 0.00285158 3.68008e-21)
(1.1449 -0.00136246 -1.13809e-21)
(0.989952 0.035154 1.54457e-21)
(1.13308 0.00385563 -2.53189e-23)
(-0.00120197 0.0717913 0)
(1.0963 -0.0256616 -1.17163e-20)
(1.12711 -0.0217625 1.89202e-21)
(0.718102 0.0266254 -1.41263e-21)
(1.26308 0.17333 2.97272e-21)
(1.0436 0.109172 4.90071e-21)
(1.0495 0.0172764 1.56004e-20)
(0.99038 0.0260349 0)
(1.154 -0.141279 -1.90623e-20)
(1.04936 0.0688954 0)
(0.936463 0.0320568 2.82338e-21)
(0.968465 0.283754 1.45945e-19)
(0.96793 0.0367653 0)
(0.818244 0.10212 0)
(-0.0972433 0.0664289 -6.70454e-20)
(1.34672 0.138239 -1.28782e-20)
(0.67719 -0.023941 0)
(1.46822 0.0316738 0)
(1.112 -0.0406172 0)
(1.36274 0.0931499 1.48956e-20)
(-0.0417994 -0.0757413 0)
(-0.0539446 0.0879622 3.21012e-20)
(0.9831 -0.0411521 7.68179e-20)
(1.00577 0.0400778 2.37051e-22)
(0.861681 0.000290913 0)
(1.0354 -0.0480929 5.73446e-21)
(0.894736 0.0222377 0)
(0.715609 -0.0192035 -8.30271e-20)
(1.02691 0.0510977 2.42159e-21)
(1.13183 -0.0531985 1.84947e-21)
(1.09789 0.00791018 4.41183e-21)
(1.01475 0.070692 -1.14242e-20)
(0.711908 0.0760951 -4.87895e-21)
(1.13487 -0.349015 6.09193e-22)
(0.916205 -0.0249733 0)
(1.07052 -0.000414683 -1.24923e-20)
(0.875069 0.0102542 -9.62564e-21)
(1.3704 -0.171817 2.00651e-21)
(0.68941 0.0273054 0)
(1.04024 -0.141735 0)
(1.11588 -0.0510034 2.00876e-21)
(1.39259 0.218688 1.02188e-20)
(1.11944 0.0154451 2.66001e-21)
(1.03673 0.0165063 1.9308e-20)
(0.732789 0.0610354 -8.12995e-20)
(0.8147 0.00386292 1.79675e-20)
(1.13647 -0.0186829 2.06668e-21)
(1.37756 -0.0869443 -4.69404e-21)
(1.11291 -0.0530791 -3.72048e-21)
(1.31514 -0.0582975 4.02226e-21)
(-0.100441 0.0914525 4.88069e-20)
(1.27577 -0.0471783 0)
(0.604047 -0.0194011 0)
(1.06148 -0.0292815 -6.16531e-21)
(1.10305 0.0100389 2.27918e-21)
(0.0537452 0.097609 0)
(0.87712 -0.0232192 2.23569e-22)
(1.11534 -0.0540341 -1.93849e-21)
(0.971382 0.0147881 -4.20578e-22)
(1.07931 0.0383209 -6.84858e-21)
(1.00908 0.0203812 2.70859e-21)
(1.04176 -0.0484385 1.70998e-21)
(1.04626 0.0332432 0)
(0.337936 -0.0351494 0)
(1.04836 -0.063088 0)
(1.14028 0.112047 -2.80306e-20)
(-0.0461381 -0.0688195 4.51727e-20)
(1.06357 0.0119587 -9.97984e-25)
(1.18991 0.0404622 0)
(0.756031 0.0213794 -2.76997e-21)
(1.1398 0.00424225 9.43123e-22)
(-0.00375018 -0.0387118 -1.47116e-19)
(0.746527 0.0159115 -4.19847e-20)
(0.623259 -0.021132 0)
(0.972061 0.00573401 0)
(0.92263 0.0362711 4.43055e-21)
(1.00867 -0.108747 5.64644e-21)
(1.27915 0.399284 -6.28983e-22)
(1.10915 -0.0290159 5.98633e-24)
(1.15613 -0.0828335 -3.75161e-21)
(1.01227 0.0195921 0)
(1.36246 0.425498 -3.75221e-20)
(0.646331 -0.0196689 0)
(0.799636 -0.0204641 -2.23492e-21)
(1.05421 -0.010617 2.52215e-22)
(0.571549 0.0155581 0)
(1.09971 -0.00618564 0)
(0.00828308 0.0405824 -3.74897e-20)
(1.14457 -0.114704 -5.72548e-21)
(0.725289 -0.0115017 7.26337e-22)
(0.990949 -0.00274242 0)
(0.532501 -0.0180122 0)
(0.757715 -0.0171819 -1.81411e-21)
(0.52232 -0.0159442 -4.34519e-22)
(1.34403 0.0291964 3.48385e-22)
(1.25969 0.0627282 -2.04599e-21)
(0.696002 0.012998 -3.88399e-22)
(1.12047 -0.0226876 -2.37607e-23)
(1.15531 -0.0534682 -5.64096e-24)
(0.529736 0.0191414 1.25589e-21)
(1.19011 -0.04329 3.51083e-22)
(1.16382 -0.0492386 0)
(0.949169 -0.0266662 0)
(0.484418 0.0199892 0)
(1.03664 -0.00782186 0)
(1.15215 0.0105702 -6.39741e-22)
(1.07091 -0.0466223 0)
(1.13263 -0.0254022 0)
(1.0298 -0.0250719 0)
(1.06193 0.0321359 0)
(-0.0239429 -0.0398367 4.50086e-20)
(1.19689 0.0043635 5.25615e-22)
(1.07567 -0.00343774 0)
(1.34171 -0.016255 1.69686e-20)
(1.15219 0.00923728 3.86689e-22)
(1.11818 0.0518736 -1.18173e-21)
(1.1245 -0.0308047 3.51651e-21)
(1.15136 -0.00423778 0)
(0.558461 -0.0176398 4.14186e-21)
(1.05228 0.0438985 1.11112e-20)
(1.23167 -0.0707794 0)
(1.20917 -0.0101141 -9.99573e-22)
(1.17213 0.0391642 1.53355e-21)
(0.70631 0.16594 1.96009e-21)
(1.13591 0.0286036 3.04352e-21)
(1.19058 0.014528 -3.22672e-21)
(1.07188 0.0822623 0)
(1.14658 0.0826238 -1.44853e-20)
(1.16209 0.0793241 -2.21147e-21)
(0.701642 -0.106127 8.08781e-21)
(0.905169 0.0294149 0)
(-0.0156157 -0.0216212 0)
(0.974949 0.113918 -1.75189e-20)
(1.14228 -0.0191918 0)
(1.28394 -0.0876378 2.6587e-20)
(1.18372 0.050411 4.70463e-22)
(1.15817 0.0101966 3.10202e-21)
(1.15058 0.0576952 -1.35194e-21)
(1.338 -0.0402961 8.92296e-20)
(1.01611 -0.322569 5.79479e-20)
(1.11044 -0.0394507 -3.33728e-22)
(0.977086 -0.0111819 0)
(0.93796 0.0913451 0)
(0.902014 0.00185415 -2.61239e-20)
(1.29203 -0.139905 -5.47409e-20)
(1.13595 0.00722106 0)
(0.58758 -0.0156539 1.56513e-20)
(0.377296 0.170853 0)
(0.759276 -0.00805579 6.65271e-21)
(0.778177 -0.0438724 -1.82312e-20)
(0.808057 0.0279391 -2.67361e-21)
(1.14507 -0.0403357 0)
(1.27267 0.088817 -5.48793e-22)
(1.19176 0.0858613 2.25794e-21)
(0.743857 -0.0897713 -8.17458e-21)
(1.15903 0.00609152 -3.10553e-21)
(0.809574 -0.0680964 0)
(1.09294 0.0717272 0)
(1.08052 -0.0597573 7.9056e-21)
(0.80824 -0.0612338 -6.72039e-21)
(1.27365 0.0594177 3.50046e-21)
(1.12043 -0.0227471 -2.59937e-21)
(1.04297 0.0600513 2.59738e-22)
(1.10734 -0.0144044 0)
(0.413483 -0.137651 1.3406e-20)
(1.34458 0.0885506 -2.35933e-20)
(0.871266 -0.0730616 -9.44795e-21)
(0.0637694 0.0213206 -2.0726e-21)
(1.4137 -0.147547 2.31129e-20)
(0.927689 -0.0136676 7.5372e-20)
(1.21071 -0.0206276 -8.08829e-21)
(1.09466 -0.0242528 1.55599e-23)
(-0.0642038 -0.0591916 -7.71827e-21)
(1.00059 -0.00679837 0)
(1.03325 -0.0856913 -1.59939e-20)
(0.854946 -0.0333932 2.65394e-21)
(1.10274 -0.0531369 2.28293e-21)
(0.802548 -0.10537 -1.58849e-23)
(0.511403 -0.0166111 -5.84932e-22)
(1.40933 -0.384378 -1.53222e-20)
(1.1162 0.0369523 0)
(1.01269 0.00633784 6.4548e-22)
(1.13191 0.036364 -1.60016e-21)
(1.22467 0.0156637 0)
(0.77898 0.0595896 -7.78576e-21)
(1.12316 0.0377781 2.14441e-21)
(0.74082 -0.118715 1.62462e-20)
(1.14846 -0.0419866 8.56287e-21)
(0.861877 0.0193467 4.63102e-21)
(-0.0371694 -0.00389264 0)
(0.511938 0.0959652 2.93219e-20)
(1.15377 0.0278249 0)
(1.02781 0.168103 1.69035e-20)
(0.977554 0.222771 0)
(1.13001 -0.0093846 -7.83871e-22)
(1.01603 0.0269474 0)
(1.03971 0.00737409 0)
(1.38699 -0.125555 1.92838e-20)
(0.795026 -0.0841667 0)
(1.19141 -0.0970603 9.88473e-21)
(1.10105 -0.00899071 1.30487e-22)
(1.04901 0.0372821 1.92292e-21)
(1.28682 -0.0837584 -1.63097e-20)
(1.24689 0.121481 -6.07855e-21)
(1.25974 -0.116796 9.25656e-21)
(1.14079 0.029651 0)
(1.16886 -0.0431431 0)
(1.09515 0.0399877 1.80397e-21)
(1.22908 -0.0343363 0)
(1.40789 0.217921 -2.56214e-20)
(0.818311 -0.0895009 -8.59553e-22)
(1.02747 0.0164473 1.97423e-20)
(1.27618 -0.00184834 -3.4704e-22)
(-0.0119105 0.00750647 0)
(-0.0307464 -0.0582469 0)
(0.00144452 0.104769 -3.69859e-20)
(-0.0656449 -0.0595415 0)
(0.710924 -0.0520817 -7.47673e-21)
(1.17043 0.0429022 -1.13639e-21)
(1.15966 -0.0335562 -2.80302e-21)
(1.21034 -0.0813161 -5.41967e-21)
(1.20321 -0.0503808 0)
(0.694007 -0.00444359 -2.86517e-22)
(1.12734 0.0547507 0)
(1.10468 0.0201277 8.81411e-23)
(0.502049 -0.10873 0)
(0.781851 -0.0186145 -1.62133e-22)
(1.111 0.069937 0)
(1.14943 0.0330234 0)
(0.590621 0.0212209 3.63102e-20)
(0.572051 0.0872296 -1.63249e-21)
(0.893232 0.0431712 2.85406e-21)
(1.01113 0.0176112 -8.90081e-21)
(0.171516 -0.0587064 0)
(1.23743 -0.11257 -1.27472e-20)
(1.25571 0.0747229 -8.38694e-21)
(1.1802 -0.131379 4.67055e-22)
(0.645484 0.0661067 6.90527e-21)
(-0.0519976 -0.0266287 -9.37175e-20)
(1.14516 0.089606 0)
(-0.0337469 0.0395711 0)
(1.19571 0.103943 -2.07789e-21)
(0.356689 0.179127 -7.43079e-21)
(1.13871 0.0420901 -6.50415e-21)
(1.11031 -0.0436338 0)
(1.18102 -0.0492013 2.13935e-21)
(1.22468 -0.201741 1.82054e-20)
(0.54084 -0.0442717 -9.34825e-21)
(1.14311 -0.0367962 1.05872e-21)
(1.16753 -0.048036 -6.045e-23)
(0.106848 -0.222337 2.31102e-20)
(1.23756 -0.0425924 -9.51645e-21)
(1.14641 0.0364925 0)
(1.14096 0.0879064 0)
(1.17637 -0.0594734 4.168e-21)
(1.20688 0.0767552 7.57961e-21)
(0.712515 -0.207595 -4.94849e-20)
(1.19071 -0.122159 -1.41554e-20)
(1.13079 0.0598394 -6.21007e-22)
(0.495895 -0.00199608 6.67508e-21)
(0.168874 -0.00849213 -6.84454e-20)
(0.0849195 -0.312603 3.37479e-20)
(1.17425 0.187624 -6.57471e-21)
(1.23017 -0.493024 5.00193e-21)
(1.40025 0.0362296 -1.50391e-20)
(1.19641 -0.0501398 -4.93934e-21)
(0.934718 -0.231393 9.42738e-20)
(-0.393158 -0.158455 0)
(1.17858 -0.0317091 -4.50707e-22)
(-0.0137145 0.0295566 -2.24536e-20)
(1.17455 0.115164 1.79806e-21)
(1.16284 -0.072111 5.20556e-21)
(1.0826 0.0383584 0)
(0.523909 0.0342231 0)
(1.17301 -0.056399 0)
(1.33294 0.192263 -8.97156e-21)
(1.26595 -0.0335408 -2.59972e-20)
(1.14959 -0.0448281 -3.47121e-21)
(0.462007 0.00959576 0)
(0.625762 -0.00136537 0)
(0.639717 0.00632583 7.07357e-22)
(0.453557 -0.00746553 0)
(1.18533 0.0548947 0)
(1.02077 -0.0141569 2.38833e-20)
(0.114886 0.0526162 0)
(0.912892 0.0386917 0)
(1.11555 -0.0102063 0)
(1.17495 0.185179 -5.18893e-21)
(1.28068 0.0282681 1.25578e-20)
(0.964702 -0.0306953 4.4953e-21)
(1.28752 -0.399662 -1.06371e-19)
(0.471793 -0.117621 -4.28765e-21)
(1.20188 0.05623 5.32863e-21)
(1.2063 0.0113822 0)
(-0.300796 -0.127535 0)
(-0.224434 0.125576 0)
(1.162 -0.0366904 -7.09905e-21)
(1.3161 -0.291004 -2.33898e-20)
(1.36881 0.0938497 0)
(1.07571 0.0418558 -5.18143e-21)
(0.49583 -0.096834 0)
(1.50027 -0.170536 6.88877e-20)
(0.412994 0.521765 1.13093e-19)
(0.280254 -0.0404802 0)
(1.09445 -0.276419 1.14179e-19)
(0.0859831 -0.0732077 0)
(-0.292375 -0.266296 -2.90475e-22)
(1.38354 0.0788925 0)
(-0.173977 0.043235 1.72439e-21)
(0.983511 -0.0500641 0)
(1.24402 -0.0978596 -1.10963e-20)
(-0.135486 0.03326 -7.48882e-21)
(1.12301 -0.0312467 -4.92382e-22)
(1.18913 -0.0343845 -4.09076e-21)
(0.570948 -0.510682 -9.22046e-20)
(1.12795 0.0194552 -6.3699e-22)
(1.1919 -0.130421 3.684e-21)
(1.1828 0.251089 -1.92821e-20)
(1.13835 -0.161552 5.38863e-22)
(1.16191 -0.019652 -1.26861e-21)
(-0.0381552 -0.0608353 -6.8968e-20)
(0.0541514 0.108294 -7.19422e-21)
(1.2505 0.12077 2.59443e-21)
(1.05801 -0.0513519 0)
(0.490987 0.130614 -7.14829e-21)
(1.39626 -0.441361 8.00434e-20)
(0.923769 -0.070111 -5.81292e-20)
(1.43635 0.159861 7.77487e-20)
(1.09027 -0.04392 1.26368e-21)
(1.19929 -0.0239856 8.07116e-21)
(1.06156 -0.00749081 0)
(1.18544 -0.0309786 0)
(1.23663 -0.0749135 3.12361e-21)
(1.08702 -0.0208944 -4.53051e-21)
(1.11212 -0.117397 -1.32008e-22)
(1.09243 0.060051 -3.18507e-21)
(1.41884 -0.0568663 -4.30184e-20)
(0.424789 0.0342558 0)
(1.18384 -0.043838 5.77435e-21)
(1.34306 0.0408038 0)
(1.11034 0.0665469 -1.62824e-22)
(1.14505 0.0242332 0)
(1.04139 -0.00993951 1.2101e-20)
(1.23781 0.0343778 1.72304e-20)
(1.06087 0.0400237 0)
(0.0549782 -0.0285204 1.54856e-19)
(0.88241 -0.20991 -7.39412e-20)
(1.21563 -0.0547958 -2.50566e-20)
(-0.111781 0.0164799 3.95449e-20)
(1.2031 0.0311671 3.85175e-22)
(0.765718 0.0699443 -1.15472e-21)
(-0.0918906 0.0405754 -4.12238e-20)
(-0.0240711 0.0311519 -2.62164e-20)
(1.01865 -0.0299386 0)
(-0.0299084 -0.0355549 0)
(1.20509 -0.0111511 0)
(0.111678 -0.0999202 0)
(1.11505 -0.0281304 0)
(0.139944 0.0310027 0)
(1.12938 0.0498596 0)
(1.18452 0.053408 0)
(1.38098 0.122801 1.29755e-21)
(0.573563 -0.284136 -2.09317e-20)
(-0.117888 0.144211 0)
(1.12408 -0.0924874 6.04865e-20)
(1.24869 0.0224684 1.41853e-21)
(1.2556 -0.0278352 0)
(-0.036305 -0.0408045 0)
(1.16406 0.0103475 5.36766e-21)
(1.17113 -0.0124583 -2.68786e-21)
(1.16983 0.391947 0)
(0.247105 -0.0565018 5.94944e-20)
(1.12234 0.0589292 9.7348e-22)
(0.234193 -0.0510436 -5.23825e-20)
(-0.0611419 0.0459297 -3.091e-20)
(-0.0367219 0.0493623 8.01569e-20)
(0.325754 -0.140783 3.29087e-20)
(1.01283 0.0356173 1.08655e-21)
(1.145 0.0700706 4.08253e-21)
(1.02311 -0.00786155 0)
(1.06978 -0.0706467 -2.13147e-20)
(1.26438 0.0367237 -1.34972e-20)
(-0.00964175 -0.0139101 9.63138e-20)
(0.978873 -0.0718732 -5.93313e-20)
(0.694101 0.15827 1.17891e-20)
(1.14102 0.0368262 -2.03505e-21)
(0.0761124 -0.0297196 3.34493e-20)
(0.246722 -0.0370008 -4.74218e-20)
(0.403974 -0.0447095 -5.39437e-20)
(1.25939 0.159833 -7.83155e-21)
(-0.053302 -0.0357308 0)
(1.03685 0.200875 1.9859e-21)
(1.09524 -0.0615658 1.76641e-20)
(1.11602 -0.0450755 -1.70308e-20)
(1.2492 -0.0149332 0)
(1.51078 -0.228362 7.03425e-20)
(1.1278 0.0472044 -9.17707e-22)
(-0.0140368 -0.0293501 -3.26887e-20)
(0.275837 0.0941452 0)
(0.892123 0.0279153 5.30103e-22)
(1.13848 0.0208861 -9.50838e-22)
(0.813277 -0.172303 2.12948e-20)
(1.16622 0.00905144 -1.74315e-21)
(1.11882 0.0508197 0)
(1.13573 -0.169771 -1.45965e-20)
(-0.0957234 -0.0151103 -6.35279e-20)
(1.30939 -0.0393199 2.00389e-20)
(1.10323 0.175965 -8.77008e-21)
(1.08685 0.059921 3.64273e-21)
(-0.040956 -0.0538416 1.51623e-20)
(-0.0233814 0.0370008 -6.16383e-20)
(0.612227 0.0494996 0)
(0.735067 0.0706696 0)
(1.15412 0.1014 -1.45326e-20)
(1.05203 0.0704072 1.1615e-20)
(1.09499 0.00493005 0)
(0.44112 0.0261887 4.04644e-20)
(0.714044 0.092739 -1.09516e-20)
(1.0996 0.111119 0)
(1.07792 0.0450916 0)
(1.33973 0.0509612 0)
(1.21724 0.0295433 0)
(1.14388 0.0178412 3.09794e-21)
(-0.0429002 0.0442677 3.37593e-20)
(1.23339 0.0463297 3.28302e-21)
(1.39726 -0.189844 -7.94498e-20)
(1.21474 0.00870493 -4.78044e-21)
(0.0432154 0.0961099 0)
(1.14323 -0.00699689 0)
(0.632738 -0.0033168 6.04467e-22)
(0.525986 0.00964507 -5.72854e-20)
(0.0670558 0.0370684 4.66692e-20)
(0.946035 0.00873027 -1.32495e-21)
(0.739573 -0.271279 0)
(0.675239 -0.0896447 0)
(1.17989 -0.0064947 0)
(0.540817 0.515263 2.17209e-20)
(-0.0160598 0.0272729 -2.9101e-20)
(1.08651 0.0129025 -3.28882e-21)
(-0.0206166 -0.0382094 6.20873e-20)
(1.11486 -0.0533532 1.57197e-21)
(1.176 0.317807 3.67767e-20)
(1.11175 -0.0898561 7.94363e-21)
(0.320498 -0.0156501 9.00098e-20)
(1.06162 0.134635 2.92206e-21)
(1.11284 -0.0387701 0)
(0.556578 0.270998 0)
(0.916589 0.054954 4.10169e-21)
(-0.191461 0.104205 0)
(0.60803 0.0288403 1.29505e-21)
(0.600578 -0.414784 -2.98494e-21)
(0.233886 0.0494376 -1.10171e-19)
(1.12323 -0.226346 3.23902e-20)
(1.03976 0.368054 1.00435e-20)
(0.979422 0.0206302 0)
(1.23431 -0.0384352 7.71394e-23)
(0.635021 0.00492572 0)
(0.989367 -0.00114021 -8.74723e-22)
(0.436108 -0.0176638 0)
(0.712131 0.134519 0)
(0.999619 -0.0224315 -1.71125e-21)
(1.43783 0.177887 -1.4581e-20)
(1.09759 -0.0461407 1.93846e-21)
(0.519414 -0.48848 0)
(1.13275 -0.156002 2.1934e-21)
(0.805244 0.383001 7.01868e-20)
(-0.0420949 0.0205451 1.12837e-21)
(1.22509 -0.0236628 1.24341e-20)
(1.22031 0.032387 -1.34184e-20)
(1.13059 -0.0746448 6.10475e-22)
(0.789206 0.0081014 -1.55249e-21)
(0.0581143 0.0190376 3.60674e-20)
(-0.01747 -0.00438054 -5.39928e-20)
(-0.186762 0.109001 0)
(-0.173639 0.217162 0)
(1.17973 -0.612298 3.12189e-20)
(1.15283 -0.0276786 1.2379e-21)
(0.883427 -0.462373 -4.17284e-20)
(1.06239 0.195235 -5.37555e-21)
(1.36454 0.204281 3.34391e-20)
(0.603255 0.420959 0)
(0.247178 0.418828 -1.13958e-19)
(0.596936 0.487002 0)
(0.0294708 0.10139 0)
(1.11798 -0.47646 0)
(-0.0457559 0.0468687 -2.42031e-22)
(1.20048 -0.0236374 0)
(0.870992 0.0567759 -2.72031e-20)
(0.596627 0.696852 2.04892e-20)
(1.33952 0.143337 1.46025e-20)
(-0.0381092 -0.072583 -1.07108e-19)
(0.726119 0.0935705 -2.81062e-20)
(0.447688 0.144119 -1.32894e-20)
(1.20833 0.0943179 0)
(1.361 0.36035 3.47608e-20)
(1.22413 0.570233 7.37701e-21)
(0.150487 -0.0128339 -2.13373e-20)
(0.993421 0.139568 3.10313e-20)
(0.936414 -0.01595 -5.50696e-23)
(0.905714 0.0212017 4.6192e-22)
(-0.00266346 -0.0289682 0)
(0.642944 -0.64637 -3.07758e-20)
(0.613622 0.206906 0)
(0.0471955 -0.0660111 0)
(-0.0477835 0.0599316 0)
(-0.0174702 -0.0656223 -4.04728e-20)
(1.24192 -0.00634012 -1.42708e-20)
(-0.0303011 0.0626403 0)
(-0.0331091 0.0553729 0)
(1.45441 0.121923 -7.52573e-20)
(-0.0373923 -0.068597 4.85179e-20)
(0.115318 0.238023 -1.00543e-19)
(0.376748 0.0186909 0)
(0.168386 -0.272918 8.17134e-20)
(1.08162 -0.238165 0)
(0.993422 -0.282084 0)
(-0.00612692 -0.0663242 1.00904e-19)
(1.15187 0.0364528 -5.62442e-24)
(1.1267 0.346914 2.78016e-20)
(0.255414 0.0286315 4.52201e-20)
(0.401002 -0.512874 -3.85788e-20)
(1.28595 0.0849972 0)
(1.2114 0.200972 2.14544e-20)
(1.21461 0.215654 -2.63552e-20)
(0.102689 0.0936482 -2.3387e-20)
(-0.0616106 0.0284312 0)
(1.06918 -0.0588835 -1.94898e-20)
(1.09999 -0.221999 -1.59425e-20)
(0.580444 -0.397965 0)
(1.09594 -0.148566 -2.61016e-20)
(-0.0654912 0.196414 0)
(0.584686 0.0513644 0)
(1.4237 -0.0125004 3.44774e-20)
(0.977937 0.0238879 7.98556e-23)
(1.07965 0.749306 -1.5906e-20)
(0.223667 -0.374268 1.33459e-19)
(1.08015 0.0273754 -1.56794e-22)
(1.21079 0.0752396 9.19167e-22)
(-0.0488239 0.0739268 2.925e-20)
(0.788223 0.735897 2.78105e-20)
(1.34203 -0.36892 -1.32403e-20)
(-0.221249 -0.0454229 5.8209e-20)
(1.13254 0.0399548 0)
(0.240236 0.031294 -8.5257e-21)
(0.892823 -0.631379 2.69233e-21)
(0.899631 0.642959 -1.9716e-20)
(0.544695 -0.0338156 -6.19975e-20)
(1.14799 -0.00770698 1.38247e-21)
(1.07536 -0.085305 6.91773e-21)
(1.17067 0.0607252 -2.53343e-21)
(1.10655 0.122213 3.48412e-21)
(1.13121 -0.130473 0)
(0.89834 0.113606 1.3844e-20)
(0.884082 0.459333 0)
(1.33685 0.118627 6.64713e-21)
(1.17073 0.115233 -1.134e-21)
(0.746779 0.264131 0)
(0.513371 0.110136 1.05088e-19)
(0.895181 0.716669 -7.98821e-22)
(1.0793 0.29364 -2.13512e-20)
(1.04382 -0.0114802 1.17999e-20)
(0.416668 0.498302 0)
(1.28952 -0.471344 0)
(0.70277 -0.0434932 6.14659e-21)
(1.26256 0.506551 0)
(-0.027515 0.0550929 -4.0832e-20)
(1.2778 -0.414698 -6.36339e-21)
(1.16731 0.514538 0)
(0.452896 0.224426 1.68796e-19)
(1.11916 0.317966 -1.17114e-19)
(0.810237 -0.633973 -2.66133e-20)
(1.17566 0.056592 -3.60269e-21)
(0.908253 0.152783 7.86285e-20)
(1.08991 0.17099 5.09352e-20)
(1.07177 0.707396 3.94901e-22)
(0.899413 -0.433282 6.60583e-20)
(1.43657 0.189588 4.00815e-20)
(1.13132 0.00824362 -9.60874e-23)
(0.0063441 -0.0465875 9.11516e-20)
(1.07611 -0.697794 2.37654e-20)
(0.865681 -0.713936 5.52e-20)
(0.249564 -0.323676 0)
(0.971551 -0.14586 7.33563e-20)
(0.363239 0.315302 -4.38125e-19)
(-0.115143 0.11883 2.01666e-20)
(0.227444 0.045556 2.13257e-20)
(0.672649 -0.0575952 -7.30663e-20)
(1.08121 0.533996 0)
(0.991773 0.224507 7.99629e-20)
(1.08845 0.0307152 3.04052e-21)
(0.912474 0.447274 -9.04917e-20)
(0.775952 -0.719391 -8.86552e-21)
(0.928546 0.0257487 -4.91151e-20)
(0.979477 0.494592 0)
(1.23049 0.138314 -1.51692e-20)
(1.37398 -0.512875 1.27115e-20)
(1.22321 -0.339423 8.99655e-21)
(-0.208803 0.126057 3.4821e-20)
(0.19422 0.012781 -1.8163e-20)
(0.972473 -0.116548 -5.82572e-20)
(0.354706 0.53132 0)
(0.916825 0.0196765 3.91343e-20)
(1.15601 0.638968 7.85798e-20)
(-0.0923699 -0.00283723 1.35643e-19)
(-0.0608406 0.0673251 -2.43968e-20)
(-0.0815145 -0.0287291 3.96957e-20)
(1.09838 0.0246779 -4.011e-21)
(1.12449 -0.458503 0)
(1.06052 -0.729392 -4.44104e-20)
(0.699749 0.354639 0)
(0.0024723 0.00266001 -9.78556e-20)
(1.09351 0.0222055 1.41858e-21)
(-0.0340074 -0.0481437 -2.82267e-20)
(1.048 0.0568553 -1.23344e-20)
(0.0975659 0.0314707 5.2939e-20)
(0.834811 0.128888 0)
(1.36328 -0.0559857 4.20513e-20)
(0.0408019 0.0554194 -2.42134e-20)
(-0.202167 0.151175 -4.13574e-20)
(-0.213627 0.16088 0)
(0.0831976 -0.0141171 0)
(1.32179 -0.0351449 -1.15765e-20)
(0.378161 -0.00972466 1.50761e-19)
(1.25932 -0.722383 -1.95657e-20)
(0.948456 -0.096118 3.95566e-20)
(1.07367 0.253732 -2.98396e-20)
(0.364891 -0.549902 1.41188e-19)
(1.54844 0.288333 -3.34649e-20)
(0.0648519 -0.0521363 3.53177e-20)
(0.208968 0.313271 1.95375e-19)
(0.0966225 -0.0305546 -1.32323e-19)
(0.938845 -0.48889 -4.37855e-20)
(1.45224 0.393054 3.41874e-20)
(0.562086 -0.669601 4.98701e-20)
(1.10666 -0.0855665 -6.95244e-21)
(0.161255 0.0720192 5.26588e-20)
(1.17382 0.293996 -4.61557e-20)
(0.66367 0.645437 -4.02773e-20)
(1.32946 -0.620316 0)
(1.41412 0.523296 3.29683e-20)
(1.04806 -0.524891 -1.22708e-20)
(1.38774 0.610387 -9.8349e-20)
(1.19376 0.0231547 0)
(-0.0532503 0.0781857 0)
(1.25235 0.733693 0)
(1.22169 0.0391805 -3.64776e-21)
(0.738426 -0.297207 -2.07845e-19)
(0.476368 -0.0770025 0)
(-0.0540564 0.086636 -2.47863e-20)
(1.02077 -0.245424 9.92209e-20)
(-0.273106 0.0644906 0)
(0.321592 0.0328304 1.22715e-20)
(1.1562 0.03393 0)
(1.40937 0.280984 0)
(1.20262 0.0534644 3.858e-21)
(0.360044 -0.284895 0)
(1.0139 0.152551 3.72007e-20)
(1.3036 0.290874 0)
(-0.0781468 0.0781127 -1.675e-22)
(0.809836 -0.391649 0)
(1.51684 0.345664 -5.08812e-20)
(1.24187 0.373533 5.48999e-22)
(0.843054 0.651997 -9.74987e-21)
(1.01226 0.159594 -8.82041e-20)
(0.968417 -0.202273 -4.83267e-20)
(1.45108 0.300739 2.99482e-20)
(0.995746 0.113428 0)
(0.563876 -0.066036 0)
)
;

boundaryField
{
    FrontBack
    {
        type            empty;
    }
    Top
    {
        type            noSlip;
    }
    In
    {
        type            fixedValue;
        value           uniform (1 0 0);
    }
    Bottom
    {
        type            noSlip;
    }
    Out
    {
        type            zeroGradient;
    }
    circle
    {
        type            noSlip;
    }
}


// ************************************************************************* //
