/*--------------------------------*- C++ -*----------------------------------*\
| =========                 |                                                 |
| \\      /  F ield         | OpenFOAM: The Open Source CFD Toolbox           |
|  \\    /   O peration     | Version:  2412                                  |
|   \\  /    A nd           | Website:  www.openfoam.com                      |
|    \\/     M anipulation  |                                                 |
\*---------------------------------------------------------------------------*/
FoamFile
{
    version     2.0;
    format      ascii;
    arch        "LSB;label=32;scalar=64";
    class       volVectorField;
    location    "20.7";
    object      U;
}
// * * * * * * * * * * * * * * * * * * * * * * * * * * * * * * * * * * * * * //

dimensions      [0 1 -1 0 0 0 0];

internalField   nonuniform List<vector> 
808
(
(0.893585 -0.0106238 0)
(1.02429 -0.0357687 0)
(1.17726 0.0673681 0)
(1.06941 0.0102725 -2.4411e-21)
(1.47922 -0.294449 0)
(0.957025 -0.027486 0)
(1.147 -0.0566969 -1.11068e-22)
(1.13903 -0.0402834 0)
(1.35737 -0.232699 2.39334e-20)
(1.23685 -0.0938003 -8.20289e-21)
(1.13174 -0.0422722 7.93698e-21)
(1.38494 -0.264317 0)
(1.00741 -0.0472629 0)
(0.745715 -0.0260396 0)
(0.893342 0.0600739 1.53186e-20)
(1.09209 -0.0410702 0)
(0.78174 0.0120811 -4.60666e-21)
(0.996825 -0.0454663 -6.16356e-23)
(1.14187 0.0495722 0)
(1.11917 0.00216326 0)
(1.16353 -0.0635151 -1.10771e-20)
(0.930028 0.122289 1.14247e-19)
(1.07512 0.0142567 -1.43491e-20)
(1.17869 -0.0302191 0)
(0.947905 0.178123 0)
(1.32467 0.0676554 -2.59055e-20)
(1.2846 -0.179593 6.67114e-21)
(0.94716 -0.0285082 -1.35344e-21)
(1.08358 -0.0292424 0)
(1.03232 0.0433077 -2.34827e-22)
(0.975232 -0.0312906 2.27504e-24)
(1.12558 -0.0122563 0)
(1.04152 0.0279663 0)
(1.06742 -0.024099 1.1442e-21)
(1.31035 -0.0729244 8.64509e-21)
(0.741116 -0.120471 1.12577e-19)
(0.878988 -0.0310832 -5.83673e-21)
(1.01856 0.0297444 1.15609e-21)
(1.2031 0.0489658 -2.44849e-21)
(1.08842 0.0238635 0)
(1.2679 -0.0630974 -1.67253e-20)
(1.28003 -0.134742 0)
(1.01195 0.00254709 -8.29729e-21)
(1.10895 -0.0464652 7.86912e-21)
(1.20167 0.0224306 0)
(1.01069 0.0171303 -2.09599e-20)
(0.992508 0.0345066 1.63706e-21)
(1.25625 -0.255775 1.94877e-21)
(1.17719 0.0447481 -4.78524e-21)
(1.4134 -0.188963 -3.45767e-20)
(1.13654 -0.0673831 1.10232e-21)
(1.15055 -0.0741144 0)
(1.12128 0.000373504 7.39638e-21)
(1.12015 -0.0147539 0)
(1.3102 0.237443 3.58482e-21)
(1.06998 0.0364371 -1.7812e-21)
(1.17353 -0.0104905 0)
(1.15195 0.00136698 5.27983e-21)
(1.24018 -0.0961314 8.80512e-21)
(1.14046 0.032115 1.32947e-22)
(-0.361083 0.12409 0)
(1.21806 -0.218777 -5.48157e-21)
(1.16599 -0.00858013 0)
(1.44345 -0.0778538 -2.89923e-20)
(1.11162 -0.0380146 -9.20147e-21)
(1.04359 -0.0295928 -8.19563e-21)
(1.36603 -0.143516 3.11739e-20)
(0.641225 0.020028 0)
(1.11198 -0.0616523 0)
(1.44372 -0.361279 0)
(0.894547 0.0308955 -1.92491e-22)
(1.24444 -0.148788 -3.83132e-20)
(1.01397 0.0531377 0)
(1.05147 -0.0397792 -2.62413e-21)
(1.12675 -0.340877 -5.85435e-20)
(1.11819 -0.0611536 -8.03596e-21)
(1.14184 0.0246251 4.83417e-22)
(1.31176 0.490927 2.4729e-20)
(1.11053 -0.051049 0)
(1.01165 0.276573 -1.89471e-19)
(1.34169 0.0510834 1.47111e-20)
(0.73507 0.0220086 0)
(0.837622 0.0316464 -8.81271e-21)
(0.96872 -0.11188 4.33855e-21)
(1.10391 -0.0555128 6.49163e-21)
(1.18908 0.0152005 1.58436e-21)
(1.28073 -0.242809 0)
(1.34133 0.281602 0)
(1.08778 0.00266117 -1.09281e-20)
(1.36706 0.100952 2.87596e-20)
(1.08101 -0.0179465 1.13613e-20)
(1.32604 -0.126672 -1.38971e-21)
(0.964909 0.0257838 1.78258e-20)
(1.00435 -0.0220064 0)
(1.11548 0.0209401 1.6854e-21)
(1.35126 -0.0634709 -8.49604e-20)
(0.753097 0.0170741 -2.78568e-21)
(1.35111 -0.0163108 0)
(1.33474 -0.0892585 0)
(1.43887 -0.107938 -4.69381e-20)
(1.10523 -0.0580654 -2.32472e-21)
(1.12442 0.0107376 7.40974e-24)
(0.949007 0.0218957 9.88769e-21)
(1.18074 0.013185 -5.68349e-22)
(1.32125 0.0395934 -2.928e-20)
(1.0035 0.00704721 1.41411e-20)
(1.45111 0.00596486 0)
(0.869393 -0.0400176 0)
(1.09402 0.0285852 3.51268e-21)
(1.20584 -0.223208 -7.9708e-21)
(1.26568 0.0287559 1.12856e-20)
(1.04559 0.0456579 -1.25894e-19)
(1.15492 0.038085 -1.22758e-21)
(1.23178 0.0226332 2.28314e-21)
(0.787983 0.0161645 0)
(0.917245 -0.0500387 7.73949e-20)
(1.14373 0.0225652 -3.0561e-21)
(1.43824 -0.274945 -1.69853e-20)
(1.11998 -0.0376528 -6.14393e-21)
(0.927853 0.017697 2.47394e-21)
(-0.391149 0.0517636 0)
(0.865207 -0.015311 2.35709e-21)
(0.798289 0.0233193 0)
(1.06195 0.00331987 -8.60948e-23)
(1.01152 0.0284692 0)
(1.30248 0.320733 5.79394e-21)
(1.03593 -0.0552496 -3.13757e-20)
(1.33835 0.0370209 1.55048e-21)
(1.15211 -0.0612853 0)
(1.09314 -0.0222247 0)
(0.60858 -0.0721327 0)
(1.12673 -0.0372799 -3.54517e-21)
(1.25254 -0.0515055 9.65997e-21)
(1.06512 0.112621 -3.52103e-20)
(0.853152 -0.0192099 0)
(1.10101 0.0236497 -8.37903e-22)
(1.17148 0.160566 1.61176e-21)
(1.21047 0.0632542 1.45486e-22)
(0.989436 0.0306762 3.02994e-21)
(1.12589 0.00761516 -6.21182e-24)
(-0.0268558 0.00303279 0)
(1.09746 -0.0210663 -1.26674e-20)
(1.14155 0.122838 2.81385e-21)
(0.725219 0.0241846 -3.14772e-21)
(1.25355 0.166166 3.44102e-21)
(1.13661 0.112704 4.31409e-22)
(1.04785 0.0163748 1.63219e-20)
(0.991305 0.0264554 0)
(1.20646 0.0104648 -2.98675e-20)
(1.0407 0.00506426 0)
(0.939912 0.0318957 6.424e-21)
(0.967921 0.277204 1.5148e-19)
(0.967931 0.034586 0)
(0.817866 0.0923903 0)
(-0.117877 -0.0390981 -6.29582e-20)
(1.3322 0.134138 -1.0671e-20)
(0.675426 -0.0205828 0)
(1.41078 0.0701748 0)
(1.19332 0.146399 0)
(1.33949 0.108042 1.17985e-20)
(-0.0433397 -0.137986 0)
(-0.0630108 0.0114036 3.04571e-20)
(0.998261 -0.0734 8.04754e-20)
(1.00216 0.0379221 6.40927e-22)
(0.862722 0.00134 0)
(1.03487 -0.0334662 9.50303e-21)
(0.889732 0.0227256 0)
(0.753222 -0.0598486 -8.69644e-20)
(1.03309 0.0433388 8.07539e-21)
(1.11634 -0.0360775 3.17497e-21)
(1.0951 0.0103154 5.43237e-21)
(1.01319 0.0680216 -1.26245e-20)
(0.840932 0.0592439 -4.29475e-22)
(1.14072 -0.353571 6.41062e-22)
(0.912083 -0.0276989 0)
(1.06908 0.000755336 -1.30853e-20)
(0.875464 0.00933548 -1.15606e-20)
(1.39023 -0.178346 2.10995e-21)
(0.695819 0.0311893 0)
(1.03814 -0.150047 0)
(1.12437 -0.0187681 3.3227e-21)
(1.38185 0.212332 8.5527e-21)
(1.11388 0.0183873 3.70338e-21)
(1.0366 0.0191516 1.97275e-20)
(0.618937 0.0156473 -5.2461e-20)
(0.814 0.00268825 2.0683e-20)
(1.14042 -0.01934 4.6567e-21)
(1.40125 -0.07201 -5.37526e-21)
(1.10767 -0.0331769 -5.65408e-21)
(1.33534 -0.0398264 4.60617e-21)
(-0.120615 -0.0139625 4.57212e-20)
(1.27858 -0.0127514 0)
(0.614333 -0.0173936 0)
(1.06544 -0.0252657 -6.32737e-21)
(1.09838 0.0138205 3.9276e-21)
(0.0114502 0.0404697 0)
(0.877541 -0.0237373 3.54855e-22)
(1.13394 -0.0272561 -3.25033e-21)
(0.970233 0.0353418 1.62012e-21)
(1.07795 0.0411541 -7.80816e-21)
(1.00601 0.0186735 2.74918e-21)
(1.05467 -0.0348238 2.86717e-21)
(1.04036 0.0248665 0)
(0.322386 -0.0496038 0)
(1.04614 -0.0632448 0)
(1.12521 0.103251 -2.64017e-20)
(-0.0398372 -0.152005 4.44311e-20)
(1.09528 0.0316 -1.2833e-23)
(1.09295 0.0214328 0)
(0.755349 0.0190093 -5.90171e-21)
(1.1104 -0.0202551 1.77387e-21)
(-0.0112268 -0.0399926 -1.42355e-19)
(0.875459 -0.0105294 -5.92086e-20)
(0.624084 -0.0180164 0)
(0.885434 -0.00964395 0)
(0.934159 0.0478606 6.61726e-21)
(1.00765 -0.122529 5.43849e-21)
(1.27107 0.393394 -3.5538e-21)
(1.05991 0.018527 -1.68921e-22)
(1.17512 -0.00338895 -4.51673e-21)
(0.998904 0.00278961 0)
(1.35413 0.417543 -3.22362e-20)
(0.663467 -0.0256222 0)
(0.801296 -0.0226768 -3.38352e-21)
(1.04457 -0.0206438 4.09957e-22)
(0.577844 0.0148316 0)
(1.10011 -0.00607642 0)
(0.0840113 -0.0368528 -5.12337e-20)
(1.1228 0.0172245 -7.20379e-21)
(0.714753 -0.0161554 1.22759e-21)
(0.990441 -0.00203907 0)
(0.539039 -0.0191638 0)
(0.754312 -0.0175593 -2.63469e-21)
(0.523513 -0.0204022 -4.19242e-22)
(1.33579 0.0619018 2.53346e-22)
(1.19006 -0.0201057 -5.62793e-21)
(0.695434 0.0178064 -2.16216e-21)
(1.10784 -0.0119164 1.96192e-22)
(1.06003 0.0409177 1.59172e-22)
(0.542634 0.0173718 5.70153e-21)
(1.19993 0.0126174 7.08434e-22)
(1.15759 0.0195052 0)
(0.910121 0.0716918 0)
(0.488465 0.0207115 0)
(1.04244 -0.00668252 0)
(1.164 0.042941 -2.13151e-22)
(1.00862 0.0496638 0)
(1.16444 -0.000253227 0)
(1.05627 0.0712024 0)
(1.17033 0.138488 0)
(-0.0236731 -0.052536 4.41854e-20)
(1.24161 0.0713932 4.9951e-23)
(1.18031 0.0843135 0)
(1.35193 0.0604092 1.97331e-20)
(1.2085 0.0422444 4.63032e-22)
(1.11344 0.0366304 1.64427e-21)
(1.1915 -0.0593251 3.99276e-21)
(1.19472 0.065078 0)
(0.570544 -0.0175594 6.16009e-21)
(1.05017 0.0439386 1.22786e-20)
(1.25527 -0.0319117 0)
(1.14497 -0.0210933 -2.13535e-21)
(1.22479 0.0307853 2.67423e-21)
(0.450465 -0.0756879 -7.1807e-21)
(1.10889 0.0344586 5.69018e-21)
(1.17468 -0.070104 -4.01075e-21)
(1.01255 -0.0530398 0)
(1.26098 0.0842892 -7.97594e-21)
(1.14683 -0.0103375 -2.597e-21)
(0.759978 0.17258 1.10499e-20)
(0.772611 -0.040193 0)
(-0.0248521 -0.022466 0)
(0.975536 0.111166 -1.82433e-20)
(1.1205 -0.0427013 0)
(1.33864 -0.0670784 2.74735e-20)
(1.20243 0.00726255 8.61524e-22)
(1.14619 -0.0377489 3.85568e-21)
(1.2018 0.0153327 -2.34554e-21)
(1.38517 -0.0413561 1.23933e-19)
(1.02129 -0.329448 5.91074e-20)
(1.16299 -0.0420297 -3.92336e-22)
(0.910755 0.0172774 0)
(0.809809 -0.085685 0)
(0.904206 0.00451234 -2.74506e-20)
(1.25738 -0.00287149 -3.95354e-20)
(1.16011 -0.079444 0)
(0.682826 0.121158 6.16298e-21)
(0.29036 -0.222926 0)
(0.766401 -0.0501026 2.37874e-21)
(0.919694 0.144554 -7.33662e-21)
(0.810876 0.0293374 -4.07477e-21)
(1.23253 -0.0502184 0)
(1.23312 -0.0324942 -1.00493e-21)
(1.109 -0.034485 6.13164e-21)
(0.728276 0.0589415 -4.87922e-21)
(1.20571 -0.077409 -3.78474e-21)
(0.761991 0.0856736 0)
(1.09144 0.0735525 0)
(1.17514 -0.0660623 8.32479e-22)
(0.884972 -0.0110215 -2.40293e-21)
(1.30027 0.020872 3.50916e-21)
(1.14608 -0.0507475 -2.46131e-21)
(0.944389 -0.06061 7.71412e-22)
(1.1021 -0.0499969 0)
(0.411545 -0.138636 1.32925e-20)
(1.3291 0.101104 -1.8231e-20)
(0.907641 0.124147 -1.31224e-20)
(0.0821863 -0.203339 7.59342e-21)
(1.43706 -0.142426 2.53409e-20)
(0.801173 -0.000358964 4.91285e-20)
(1.29379 -0.0931452 -9.45978e-22)
(1.12936 -0.0382174 -3.07928e-22)
(-0.0525389 -0.161138 -7.59354e-21)
(1.00077 -0.0063928 0)
(1.03361 -0.0883749 -1.63157e-20)
(0.859152 -0.0331793 6.45049e-21)
(1.09926 -0.0491834 3.11698e-21)
(0.803061 0.0844886 -1.87106e-21)
(0.502689 -0.0175927 -3.45277e-22)
(1.41766 -0.39122 -1.53149e-20)
(1.1008 0.0655645 0)
(1.01032 0.0236212 5.72938e-23)
(1.12517 0.0417232 -2.14396e-21)
(1.30085 -0.0963239 0)
(0.764575 -0.104823 -5.59677e-21)
(1.13389 0.0556937 2.58939e-21)
(0.654718 0.143698 1.71948e-20)
(1.16987 -0.0464764 7.55264e-21)
(0.917376 -0.093495 2.759e-21)
(-0.0368144 -0.0958204 0)
(0.0718396 0.160746 -2.24723e-21)
(1.11446 0.04375 0)
(0.86438 -0.00179624 -1.38342e-20)
(0.796385 -0.067986 0)
(1.13578 -0.0025817 2.83024e-21)
(1.01698 0.0268119 0)
(1.17546 -0.108512 0)
(1.41098 -0.128765 2.2282e-20)
(0.798352 -0.0914771 0)
(1.05014 -0.0485018 2.81921e-20)
(1.09393 -0.0157115 -9.03211e-23)
(1.04863 0.0526147 2.57642e-21)
(1.30741 -0.00872074 -1.49905e-20)
(1.23619 0.129445 -3.61998e-21)
(1.19801 0.0392409 1.57956e-20)
(1.14666 0.0697788 0)
(1.18992 -0.0918381 0)
(1.13328 0.0670272 1.36056e-21)
(1.24453 -0.0161089 0)
(1.39159 0.20329 -2.28696e-20)
(0.682224 0.0916131 1.96065e-21)
(1.02696 0.018396 2.27324e-20)
(1.23615 0.0462425 -2.73661e-22)
(-0.00964781 -0.0300548 0)
(-0.0333131 -0.09105 0)
(0.111844 -0.00996612 -4.25492e-20)
(-0.0420358 -0.156742 0)
(0.563479 0.0886504 -1.33238e-20)
(1.18845 0.0501004 -2.0007e-21)
(1.14911 -0.0839586 -3.24439e-21)
(1.29254 -0.143496 -3.14706e-21)
(1.24426 -0.0344426 0)
(0.676953 -0.0118898 -8.23911e-22)
(1.18287 0.0746496 0)
(1.12712 0.0445793 2.11799e-22)
(0.496469 -0.110232 0)
(0.583163 -0.0231036 -6.05836e-22)
(1.17661 0.0631994 0)
(1.13148 0.0220647 0)
(0.809579 0.136126 6.51414e-20)
(0.47145 -0.0712643 -1.23433e-21)
(0.931992 0.0340173 -5.83885e-22)
(1.01014 0.0180165 -9.24564e-21)
(0.175174 -0.120115 0)
(1.15959 0.0150819 -3.22869e-20)
(1.20841 0.0279402 -2.44837e-21)
(1.06426 0.0368983 2.21974e-21)
(0.601793 -0.114907 1.05142e-20)
(-0.0500616 -0.125829 -9.18271e-20)
(1.18374 0.0456658 0)
(-0.0345314 0.0356203 0)
(1.19848 0.0255925 3.26908e-21)
(0.452373 -0.207338 -1.13157e-20)
(1.10036 0.0191057 -1.20075e-20)
(1.11608 -0.0483998 0)
(1.12669 -0.0711121 2.16385e-21)
(1.29297 -0.144964 2.85285e-20)
(0.52677 -0.0582485 -9.00369e-21)
(1.155 -0.0431862 -1.6079e-22)
(1.16565 -0.0945672 5.52015e-24)
(0.377296 0.0599102 1.57624e-20)
(1.20685 -0.130638 -4.22002e-21)
(1.129 0.0350964 0)
(1.19836 0.063045 0)
(1.21476 -0.0831071 5.24422e-21)
(1.17413 0.0448462 2.21277e-21)
(0.708494 -0.0315863 -7.21493e-20)
(1.19557 -0.121881 -1.47272e-20)
(1.12813 0.0421473 5.96625e-21)
(0.503834 -0.00227703 1.08039e-20)
(0.491049 0.0570469 -1.20109e-19)
(-0.1037 0.194425 3.80579e-20)
(1.16956 0.182803 -6.50129e-21)
(1.23856 -0.500904 4.95125e-21)
(1.35926 0.0728487 -1.78466e-20)
(1.23818 -0.0506692 -6.21462e-21)
(0.940085 -0.238786 9.55438e-20)
(-0.137733 0.183858 0)
(1.14471 0.00524364 -9.09475e-22)
(-0.077203 0.206902 -1.66842e-20)
(1.1949 0.0376858 -2.82894e-21)
(1.21888 -0.00740376 6.73996e-21)
(1.08901 0.0402888 0)
(0.6951 -0.236641 0)
(1.17105 -0.0501688 0)
(1.19624 0.0515578 5.45741e-21)
(1.25374 -0.011748 -2.49118e-20)
(1.17055 -0.0583016 -3.17029e-21)
(0.449891 0.0167778 0)
(0.602573 0.00842892 0)
(0.612525 0.0019493 6.46233e-22)
(0.428134 -0.0125334 0)
(1.16693 -0.00157714 0)
(1.02348 -0.0135265 2.46877e-20)
(0.521846 -0.263776 0)
(0.923396 0.0337899 0)
(1.09103 -0.0293297 0)
(1.16866 0.188239 -9.2881e-21)
(1.23669 0.0380427 8.11151e-21)
(0.971323 -0.0317688 6.80814e-21)
(1.2927 -0.406266 -1.05128e-19)
(0.704809 -0.139565 2.08093e-20)
(1.31853 0.112018 2.76979e-21)
(1.2399 -0.068171 0)
(-0.4477 0.0899466 0)
(-0.239798 -0.00838558 0)
(1.18134 -0.0290413 -5.85568e-21)
(1.32658 -0.295902 -2.23887e-20)
(1.29174 0.0885238 0)
(1.09449 0.0566871 -6.51311e-21)
(0.359101 -0.0394654 0)
(1.52049 -0.176427 7.2999e-20)
(0.40915 0.513826 1.22759e-19)
(0.267183 -0.0605949 0)
(1.09652 -0.281668 1.12852e-19)
(0.421259 0.234909 0)
(-0.13652 -0.0295643 1.18692e-20)
(1.27247 0.0871521 0)
(-0.0922625 -0.000886913 -1.23479e-21)
(0.983478 -0.0493238 0)
(1.31557 -0.0966818 -1.31208e-20)
(-0.135145 -0.0845158 -7.51509e-21)
(1.13325 -0.0274445 5.13175e-22)
(1.15174 -0.0740584 -1.1886e-20)
(0.576479 -0.52514 -9.22845e-20)
(1.19742 0.032184 -9.16912e-22)
(1.199 -0.12935 3.78186e-21)
(1.17598 0.245605 -2.33613e-20)
(1.1996 -0.161199 -1.16469e-20)
(1.17486 -0.0117745 -4.25445e-22)
(-0.177208 0.0162046 -4.89232e-20)
(0.00116621 0.0277137 -6.67077e-21)
(1.36247 0.0706401 2.00892e-21)
(1.05875 -0.0494078 0)
(0.502345 -0.0627303 -4.1243e-22)
(1.40576 -0.449804 7.87068e-20)
(0.927632 -0.0929151 -5.7263e-20)
(1.4011 0.152141 6.4251e-20)
(1.08064 -0.0463089 2.43674e-21)
(1.15488 -0.125907 7.06275e-21)
(1.0625 -0.00681968 0)
(1.17912 -0.0141383 0)
(1.32831 -0.106584 8.73314e-21)
(1.08766 -0.0190595 -4.53652e-21)
(1.22424 -0.24655 1.24181e-20)
(1.11529 0.0445504 -5.10359e-21)
(1.44435 -0.00279877 -5.16302e-20)
(0.436408 0.0227185 0)
(1.25034 -0.141687 -7.20945e-21)
(1.30272 0.089475 0)
(1.1341 0.0453127 -3.50102e-21)
(1.14378 0.0299579 0)
(1.04127 -0.00844509 1.26754e-20)
(1.23432 0.0461097 1.1623e-20)
(1.12837 -0.0811334 0)
(0.0485968 -0.030726 1.51094e-19)
(0.884485 -0.217597 -7.49401e-20)
(1.35172 0.0442427 -3.57664e-20)
(-0.103874 -0.0969235 3.8311e-20)
(1.18724 0.0269592 3.03718e-22)
(0.703779 -0.0719025 -2.90554e-21)
(-0.0964324 -0.0736041 -3.99471e-20)
(-0.0197276 -0.0254719 -2.48393e-20)
(1.01995 -0.0296936 0)
(-0.0291778 -0.037597 0)
(1.19896 0.155218 0)
(0.112183 -0.11135 0)
(1.12157 -0.0304356 0)
(0.126777 0.0258604 0)
(1.11482 0.041982 0)
(1.12879 0.132407 0)
(1.32811 0.0559848 -4.2927e-21)
(0.575258 -0.286341 -2.09687e-20)
(-0.17131 0.0175837 0)
(1.13565 -0.104164 5.95983e-20)
(1.3239 0.078815 -1.81346e-22)
(1.35563 0.133992 0)
(-0.0383968 -0.0413895 0)
(1.1637 0.020497 1.03804e-21)
(1.17633 0.00171451 -1.07269e-21)
(1.1627 0.385528 0)
(0.245924 -0.101075 5.71724e-20)
(1.12115 0.0648171 1.38605e-21)
(0.228937 -0.0522612 -5.14449e-20)
(-0.0599022 0.0436856 -2.99216e-20)
(-0.032125 0.0483297 7.81663e-20)
(0.291281 0.238408 5.7094e-21)
(1.01834 -0.0591941 2.7343e-21)
(1.13565 0.0456091 -4.58706e-21)
(1.02402 -0.00768632 0)
(1.07062 -0.071203 -2.18265e-20)
(1.21076 0.0626442 -8.71825e-21)
(-0.0101079 -0.0460212 9.40191e-20)
(0.981822 -0.0732604 -6.03127e-20)
(0.676555 -0.0853382 2.59615e-21)
(1.1749 0.0394199 -1.77599e-21)
(0.0673646 -0.0324742 3.22439e-20)
(0.238244 -0.0394649 -4.60998e-20)
(0.387357 -0.07763 -5.18275e-20)
(1.19035 0.0156333 8.48282e-21)
(-0.0560965 -0.0380445 0)
(1.00244 -0.000162512 3.80343e-21)
(1.15575 -0.205187 -1.34396e-21)
(1.19449 -0.231364 1.29592e-21)
(1.29523 0.0589716 0)
(1.52231 -0.233891 7.0046e-20)
(1.1438 0.0265253 -3.24098e-21)
(-0.0155265 -0.0516628 -3.23036e-20)
(0.272951 0.0543355 0)
(0.898065 0.036387 -2.39855e-21)
(1.12594 0.0241984 -1.93659e-22)
(0.579652 0.0510144 1.96425e-20)
(1.16899 0.0184581 2.69498e-22)
(1.11735 0.054732 0)
(1.1377 -0.176573 -1.42117e-20)
(-0.0685426 -0.13109 -6.56306e-20)
(1.31966 -0.0156171 2.53021e-20)
(1.10031 0.175255 -8.80665e-21)
(1.11867 0.0493683 5.83689e-21)
(-0.0415661 -0.0656677 1.48201e-20)
(-0.022128 0.0226294 -5.79831e-20)
(0.836368 0.0533539 0)
(0.792336 0.242117 0)
(1.14968 0.101182 -1.87376e-20)
(1.05092 0.0692954 1.34945e-20)
(1.11993 0.0435194 0)
(0.568653 -0.0590018 5.70619e-20)
(0.723294 0.0795588 -1.06436e-20)
(1.09745 0.108272 0)
(1.104 0.0554678 0)
(1.30734 0.143995 0)
(1.15121 0.0311764 0)
(1.23148 0.117004 2.36322e-21)
(-0.0428902 0.0444096 3.26786e-20)
(1.17936 -0.00655345 7.40335e-21)
(1.41793 -0.207118 -8.10463e-20)
(1.22957 0.107457 -3.62997e-21)
(-0.0680067 0.0729006 0)
(1.17874 -0.160664 0)
(0.615568 -0.0101267 3.17336e-22)
(0.531234 0.00715659 -5.58516e-20)
(0.0723364 0.0350599 4.54938e-20)
(0.93281 0.024744 2.60309e-24)
(0.738529 -0.273249 0)
(0.670183 -0.093245 0)
(1.17077 0.0906874 0)
(0.536456 0.509149 1.65173e-20)
(-0.013658 -0.000607549 -2.73971e-20)
(1.13959 0.054239 6.72782e-22)
(-0.0223751 -0.0905645 6.15212e-20)
(1.15156 -0.0303756 2.24626e-21)
(1.16818 0.312873 4.45582e-20)
(1.11505 -0.0905394 8.1524e-21)
(0.191604 0.0156784 6.427e-20)
(1.10502 0.0439394 8.61431e-22)
(1.0912 -0.14304 0)
(0.555155 0.269076 0)
(0.92128 -0.105952 3.65687e-21)
(-0.179603 -0.0311078 0)
(0.602725 0.0283448 1.97214e-21)
(0.604293 -0.418876 -3.032e-21)
(0.237789 0.0484286 -1.06752e-19)
(1.12494 -0.231791 3.34186e-20)
(1.03488 0.359506 1.05368e-20)
(0.978464 0.0165733 0)
(1.17833 0.0086613 4.42556e-22)
(0.62763 0.017838 0)
(0.977533 -0.0150322 -7.98985e-22)
(0.424968 -0.024399 0)
(0.710651 0.123334 0)
(1.00715 -0.0185718 -4.12077e-21)
(1.42777 0.175027 -1.15526e-20)
(1.14131 -0.0422401 1.45669e-21)
(0.523529 -0.494347 0)
(1.13604 -0.157695 2.38374e-21)
(0.800616 0.371617 7.26377e-20)
(-0.0363891 0.0218767 1.10099e-21)
(1.237 0.00278293 8.42227e-21)
(1.22037 0.0479202 -8.68917e-21)
(1.20631 -0.0175541 7.9019e-22)
(0.785185 0.0102668 -3.41221e-21)
(0.0646137 0.0175807 3.51725e-20)
(-0.0164994 -0.0681459 -5.25186e-20)
(-0.192063 -0.0261251 0)
(-0.212979 0.107383 0)
(1.18678 -0.619743 3.13595e-20)
(1.16073 -0.0239132 4.15149e-22)
(0.886474 -0.465951 -4.19022e-20)
(0.991151 -0.0581083 -8.62549e-21)
(1.35479 0.199799 3.07679e-20)
(0.599645 0.416994 0)
(0.244462 0.410027 -1.18699e-19)
(0.592121 0.472694 0)
(-0.0485227 0.0235376 0)
(1.12604 -0.485462 0)
(-0.0423783 -0.0381665 -2.55552e-22)
(1.19645 -0.00621089 0)
(0.841856 0.189315 -7.10412e-21)
(0.589912 0.685163 2.01155e-20)
(1.24392 0.104597 -1.7277e-21)
(-0.032658 -0.131566 -1.03919e-19)
(0.429986 0.00585112 2.07231e-20)
(0.448738 0.143156 -1.28148e-20)
(1.20311 0.100406 0)
(1.35185 0.354964 3.09995e-20)
(1.21536 0.561109 3.95276e-21)
(0.162513 -0.0158086 -2.09231e-20)
(0.989891 0.116635 2.92309e-20)
(0.926074 -0.0221648 -5.87137e-23)
(0.900261 0.0299524 -1.79764e-22)
(-0.0147441 -0.0397282 0)
(0.649157 -0.659721 -3.06098e-20)
(0.612306 0.193457 0)
(0.0879985 -0.14851 0)
(-0.0454908 0.0440254 0)
(0.0105888 -0.154977 -3.95959e-20)
(1.24389 0.0111064 -9.68239e-21)
(-0.0340113 0.0301769 0)
(-0.029703 0.0170154 0)
(1.44497 0.118813 -6.1463e-20)
(-0.0395596 -0.0959556 4.68994e-20)
(0.113919 0.229516 -1.0288e-19)
(0.386726 0.0140412 0)
(0.170063 -0.283387 8.18797e-20)
(1.08145 -0.243418 0)
(0.999 -0.289144 0)
(0.0105018 -0.128675 9.84324e-20)
(1.15046 0.0443013 -1.31041e-22)
(1.12147 0.339042 2.98255e-20)
(0.2622 0.0267846 4.39151e-20)
(0.404918 -0.520912 -3.78359e-20)
(1.25028 0.0840142 0)
(1.20731 0.189901 2.05675e-20)
(1.21005 0.210465 -2.52645e-20)
(0.101959 0.0826171 -2.37046e-20)
(-0.0617757 -0.07232 0)
(1.07148 -0.0575094 -1.98911e-20)
(1.10419 -0.227194 -1.64353e-20)
(0.584075 -0.411444 0)
(1.09818 -0.153041 -2.65504e-20)
(-0.159295 0.0845181 0)
(0.577407 0.0313278 0)
(1.43822 0.0548015 4.31437e-20)
(0.987843 0.0297386 4.43816e-22)
(1.07013 0.737559 -1.93097e-20)
(0.226291 -0.382568 1.32804e-19)
(1.11076 0.0255035 5.77128e-22)
(1.20522 0.0802466 -1.14575e-21)
(-0.0451389 0.0158457 2.77165e-20)
(0.781401 0.727074 3.20161e-20)
(1.35272 -0.378626 -1.30066e-20)
(0.00651774 0.00445236 9.16714e-20)
(1.09571 0.0407503 0)
(0.0957786 -0.0180801 -5.83023e-21)
(0.89849 -0.637502 2.73468e-21)
(0.893986 0.637013 -1.49933e-20)
(0.534445 -0.0403365 -5.99e-20)
(1.14931 0.000582293 -3.76723e-21)
(1.07702 -0.0848921 7.06544e-21)
(1.15173 0.0429001 1.09715e-21)
(1.10465 0.122467 5.30755e-21)
(1.13288 -0.130265 0)
(0.897902 0.106396 1.34539e-20)
(0.881056 0.455966 0)
(1.20599 0.0545487 -2.1252e-21)
(1.16592 0.117075 1.41355e-21)
(0.747119 0.262451 0)
(0.517362 0.1089 1.01808e-19)
(0.887547 0.705763 -1.03887e-21)
(1.07415 0.288897 -2.29057e-20)
(1.04307 -0.0107752 1.22476e-20)
(0.412877 0.483074 0)
(1.29915 -0.480294 0)
(0.504681 0.013279 3.92961e-21)
(1.25593 0.500588 0)
(-0.0218865 0.0441673 -3.98686e-20)
(1.2863 -0.420627 -5.24358e-21)
(1.1588 0.50527 0)
(0.451733 0.208812 1.719e-19)
(1.11569 0.313743 -1.12385e-19)
(0.817858 -0.647297 -2.65469e-20)
(1.15249 0.0407905 -2.04275e-21)
(0.908312 0.14938 7.58075e-20)
(1.08636 0.16868 5.56169e-20)
(1.0641 0.698452 1.81931e-21)
(0.906065 -0.443694 6.66353e-20)
(1.41221 0.193299 3.38515e-20)
(1.13231 0.0124417 -8.55138e-22)
(-0.0041539 -0.0684028 8.63673e-20)
(1.08396 -0.706922 2.40296e-20)
(0.873186 -0.724925 5.49735e-20)
(0.252354 -0.341826 0)
(0.972478 -0.149755 7.45334e-20)
(0.360477 0.298849 -4.46125e-19)
(-0.0850761 -0.0399575 2.54057e-20)
(0.235646 0.0276505 2.0548e-20)
(0.665099 -0.061936 -7.09473e-20)
(1.07317 0.523928 0)
(0.990506 0.220287 8.3466e-20)
(1.08658 0.0330603 3.89131e-21)
(0.90442 0.436329 -9.36528e-20)
(0.782878 -0.72845 -8.66892e-21)
(0.925954 0.0193438 -4.99505e-20)
(0.9726 0.484021 0)
(1.10003 0.0603153 -4.81152e-21)
(1.38335 -0.521077 1.25216e-20)
(1.23082 -0.346834 8.9245e-21)
(-0.293088 0.0981724 2.94254e-20)
(0.194367 -0.00615171 -1.83644e-20)
(0.976344 -0.120855 -5.93317e-20)
(0.349613 0.517574 0)
(0.912956 0.012327 3.97993e-20)
(1.14934 0.631971 7.23484e-20)
(-0.0474802 -0.11231 1.4055e-19)
(-0.0641233 -0.0165281 -2.29213e-20)
(-0.0797118 -0.134535 3.8864e-20)
(1.09791 0.0268237 -5.27835e-21)
(1.1287 -0.464034 0)
(1.06987 -0.741146 -4.44026e-20)
(0.695555 0.342573 0)
(0.0512101 -0.118652 -1.03514e-19)
(1.12865 0.0340406 3.30684e-21)
(-0.0364 -0.127 -2.79864e-20)
(1.04741 0.0572219 -1.20538e-20)
(0.107809 0.0254788 5.17642e-20)
(0.837814 0.123495 0)
(1.38749 -0.00329833 5.04696e-20)
(0.0308048 0.0177088 -2.33318e-20)
(-0.263996 0.0469743 -3.49376e-20)
(-0.212822 0.0174679 0)
(0.0704931 -0.0218282 0)
(1.34625 -4.10505e-05 -1.45295e-20)
(0.368533 -0.0138512 1.46097e-19)
(1.26888 -0.732504 -1.96995e-20)
(0.820718 -0.00565166 2.37743e-20)
(1.06871 0.249971 -3.2439e-20)
(0.369536 -0.564598 1.41295e-19)
(1.5313 0.281152 -3.1068e-20)
(0.065443 -0.0967516 3.35096e-20)
(0.206901 0.296265 1.98956e-19)
(0.0861226 -0.0612078 -1.25415e-19)
(0.944695 -0.498803 -4.41233e-20)
(1.4427 0.386196 3.15574e-20)
(0.568661 -0.681186 4.96059e-20)
(1.10803 -0.0841003 -7.06302e-21)
(0.215324 -0.0412691 5.64833e-20)
(1.17094 0.288126 -4.47964e-20)
(0.657758 0.632395 -4.22859e-20)
(1.33768 -0.628458 0)
(1.40629 0.515963 3.15407e-20)
(1.05593 -0.534155 -1.25423e-20)
(1.37845 0.602421 -8.95219e-20)
(1.17366 0.0295286 0)
(-0.0502218 0.0445183 0)
(1.24254 0.724101 0)
(1.1318 0.0213446 -8.62335e-21)
(0.743162 -0.307896 -2.0986e-19)
(0.475866 -0.0907212 0)
(-0.0556223 0.0299129 -2.34983e-20)
(1.02124 -0.249666 1.01192e-19)
(-0.345562 0.0822744 0)
(0.320976 0.0166846 1.24065e-20)
(1.13568 0.0344087 0)
(1.40142 0.272995 0)
(1.1812 0.0379247 2.18745e-21)
(0.361849 -0.300501 0)
(1.01255 0.149968 3.95182e-20)
(1.29743 0.285535 0)
(-0.0891835 -0.0101774 -2.73031e-22)
(0.813692 -0.402987 0)
(1.50307 0.340343 -4.69461e-20)
(1.23495 0.365285 3.1017e-21)
(0.835167 0.638569 -1.02038e-20)
(1.00946 0.158379 -9.21361e-20)
(0.970213 -0.207979 -4.92869e-20)
(1.43997 0.29478 2.76223e-20)
(0.970498 0.0791846 0)
(0.563408 -0.0780545 0)
)
;

boundaryField
{
    FrontBack
    {
        type            empty;
    }
    Top
    {
        type            noSlip;
    }
    In
    {
        type            fixedValue;
        value           uniform (1 0 0);
    }
    Bottom
    {
        type            noSlip;
    }
    Out
    {
        type            zeroGradient;
    }
    circle
    {
        type            noSlip;
    }
}


// ************************************************************************* //
