/*--------------------------------*- C++ -*----------------------------------*\
| =========                 |                                                 |
| \\      /  F ield         | OpenFOAM: The Open Source CFD Toolbox           |
|  \\    /   O peration     | Version:  2412                                  |
|   \\  /    A nd           | Website:  www.openfoam.com                      |
|    \\/     M anipulation  |                                                 |
\*---------------------------------------------------------------------------*/
FoamFile
{
    version     2.0;
    format      ascii;
    arch        "LSB;label=32;scalar=64";
    class       volScalarField;
    location    "1654.5";
    object      yPlus;
}
// * * * * * * * * * * * * * * * * * * * * * * * * * * * * * * * * * * * * * //

dimensions      [0 0 0 0 0 0 0];

internalField   uniform 0;

boundaryField
{
    FrontBack
    {
        type            empty;
    }
    Top
    {
        type            calculated;
        value           nonuniform List<scalar> 
15
(
142.2899777418356
133.5849197091041
138.0651337602345
144.4051676419791
159.7666993125709
131.3674960011085
140.1343783185092
135.3548959455991
153.4551875303347
135.7267604312078
136.0904289822305
136.7716702563801
125.2668819907736
132.913660584406
123.955653402156
)
;
    }
    In
    {
        type            calculated;
        value           uniform 0;
    }
    Bottom
    {
        type            calculated;
        value           nonuniform List<scalar> 
15
(
155.5672346204288
158.1192324989218
141.0873338706618
142.0428671772539
141.1782666243395
148.4270390051826
142.7018046825936
143.1467052231357
143.4216365529942
134.0602086566339
125.7264129302945
141.5564709972388
122.4048126033994
123.4858293890249
124.1304013866052
)
;
    }
    Out
    {
        type            calculated;
        value           uniform 0;
    }
    circle
    {
        type            calculated;
        value           nonuniform List<scalar> 
32
(
56.06527060784745
22.0695650868671
65.25818816968238
24.97950808167263
19.90031674649286
56.18903057679916
56.64521684840892
23.78189684829409
22.26778871587138
65.49960667899846
39.84036999027183
62.9483234914911
50.57288514919754
16.85410753367222
23.03933452752663
17.94335004740123
39.26277752596427
59.76467676836218
61.02806267545576
24.65194088497281
65.76069295917625
63.79276089320651
63.05430494691831
59.90160518645012
64.12732326136151
45.96240102721335
66.42348450250074
32.0702593115553
37.98163920175919
55.73297101044321
21.0672183300449
43.13752310586784
)
;
    }
}


// ************************************************************************* //
