/*--------------------------------*- C++ -*----------------------------------*\
| =========                 |                                                 |
| \\      /  F ield         | OpenFOAM: The Open Source CFD Toolbox           |
|  \\    /   O peration     | Version:  2412                                  |
|   \\  /    A nd           | Website:  www.openfoam.com                      |
|    \\/     M anipulation  |                                                 |
\*---------------------------------------------------------------------------*/
FoamFile
{
    version     2.0;
    format      ascii;
    arch        "LSB;label=32;scalar=64";
    class       volScalarField;
    location    "19.5";
    object      p;
}
// * * * * * * * * * * * * * * * * * * * * * * * * * * * * * * * * * * * * * //

dimensions      [0 2 -2 0 0 0 0];

internalField   nonuniform List<scalar> 
808
(
0.111254
0.00994638
0.0488557
0.111252
-0.228489
0.00942966
-0.00200761
0.019628
-0.129817
-0.0336833
0.0352482
-0.145344
0.015996
0.00539751
-0.214596
0.0141175
-0.216732
0.0101385
0.0416523
0.00165313
0.0409696
0.389248
0.0751559
-0.012461
0.467818
-0.169117
-0.0651885
0.000326113
0.00837581
0.0165066
0.00548022
0.0114766
0.0225548
0.00424749
-0.0919873
0.63143
0.0085538
0.024553
0.0146826
0.0183805
-0.0609656
-0.0669159
0.0342397
0.0202785
-0.209631
0.0926296
0.0193898
0.00607493
0.0108221
-0.170042
0.00320991
0.00800104
0.0450453
0.00285162
-0.0678879
0.00801202
0.00757391
0.0367543
-0.029199
0.0020621
-0.299924
-0.00314056
0.0269297
-0.186643
0.0248511
0.0450225
-0.275232
0.0235775
0.0342899
-0.277982
0.0187409
-0.310767
0.0153742
0.0133537
0.182594
0.0146289
-0.0114012
-0.0457515
0.00461453
0.327167
-0.1211
0.0152103
0.0333995
0.271049
0.0203247
-0.0320193
-0.352727
-0.0862422
0.0209411
-0.168232
0.0317643
-0.109347
0.264485
0.165164
0.0413167
-0.265008
0.021117
-0.140856
-0.116435
-0.239454
0.00855475
-0.00415293
0.0327252
-0.0249194
-0.101207
0.0605875
-0.248216
0.00311758
0.00525511
0.024865
-0.069653
0.344675
0.0128889
0.0119928
0.0220921
0.456353
0.00785697
-0.26514
0.0153161
0.0497284
-0.280174
0.0331069
0.00784213
0.0502389
0.119026
-0.0322531
0.0995258
0.00250603
0.0229463
0.0692147
-0.302241
0.0168246
-0.0561626
0.136323
0.0166641
0.00573494
0.0622136
0.0023342
0.0152976
0.00278178
-0.245116
0.0397161
0.0639756
0.0164353
-0.0138199
0.035982
0.0887781
0.151601
-0.178823
0.00602306
0.0142763
0.356518
0.0235476
0.545722
-0.253655
-0.0827905
0.0108913
-0.213046
0.0589602
-0.105942
-0.295065
-0.249324
-0.301044
0.0127337
0.0612204
0.0189243
0.0152451
-0.312238
0.0090005
0.0259119
0.0323747
0.16791
0.0457768
0.118791
0.0132654
0.0631561
0.0731021
-0.157725
0.0199711
-0.336322
0.0250716
-0.116023
0.0106738
0.260886
-0.231138
0.12099
0.0176243
-0.157826
0.0250989
-0.110178
-0.242019
-0.0756475
0.0154369
0.0745392
0.0113474
-0.225617
0.0156184
0.020803
0.00305789
0.0872126
0.058703
0.0179191
0.0232425
-0.310201
0.3843
-0.230829
-0.289611
0.0051054
0.0400889
0.014292
0.00513437
-0.384113
-0.296641
0.0128543
0.0140075
0.0154233
-0.318895
-0.0149235
0.00606407
0.0206743
0.0192368
-0.0637436
0.0198676
0.0192805
-0.000288938
0.024517
0.12959
-0.296351
0.0145192
0.00666997
0.12289
0.008494
0.00977444
0.00389393
-0.107196
0.0263258
0.00812577
0.000467615
0.00290109
0.0152784
0.0030838
0.00266546
0.00528017
0.0038538
0.000473848
-0.00125926
0.00492037
0.00315835
7.1967e-05
0.0443376
-0.302871
0.000512459
0.0058961
-0.114379
0.00461036
0.00251922
0.0213655
-0.000630719
0.0136554
0.136077
0.012239
0.0105832
0.00986921
-0.014442
0.0319354
0.00827526
0.00140345
0.0243981
0.00482026
0.0679192
0.0219362
-0.380594
0.287846
0.0172561
-0.105158
0.014586
0.0168968
0.0120178
-0.226122
0.274647
0.0112675
0.0381889
0.00575358
0.0787178
-0.248662
0.0129309
0.0665997
0.0132524
0.0279253
0.0720981
0.0188823
0.0266069
0.00991547
0.0154512
0.0268367
0.0191464
0.0463515
0.0636882
0.0193004
0.0294409
0.00561492
0.0132757
0.0115057
0.0145165
-0.492367
-0.0921776
0.0656649
-0.0134752
-0.180968
-0.260574
0.0214827
0.0147898
-0.29176
0.122252
0.15302
0.0131326
0.0122474
0.0212991
-0.00130661
-0.215886
0.0298188
-0.00122905
0.0262304
0.0333139
0.021254
0.0256439
0.0270979
-0.0167571
0.0292031
-0.265275
0.0671156
0.026727
-0.0182664
-0.0265008
0.00672344
0.242004
0.0297491
-0.165504
0.552315
0.0670073
0.000549839
0.0245597
-0.100814
-0.0362636
0.0153131
0.0273494
-0.0130996
0.0247038
-0.0663308
-0.211268
0.025586
0.112563
-0.0450131
-0.25468
-0.296419
-0.289673
-0.296768
0.0462722
0.019576
0.00781254
-0.00520098
-0.0515722
0.00114711
0.0210359
0.00118571
-0.486469
0.0585514
0.0159091
0.0287123
-0.198094
0.0611625
0.0111794
0.10636
-0.336575
0.0401509
-0.0276328
0.0294635
0.0845455
-0.271907
0.0143657
-0.263826
-0.00873482
0.0926463
0.032553
0.00506554
0.0222211
-0.172256
-0.327642
-0.00498795
0.00104963
-0.136517
0.0234235
-0.00649465
0.0132117
-0.0208516
-0.0115515
-0.303272
0.0304247
0.00672706
0.0158604
-0.268218
-0.23747
0.0760561
-0.00730061
-0.0988085
-0.0539907
0.425185
-0.234602
0.00647239
-0.117837
0.00810177
0.0240284
0.0213778
0.075449
-0.0135243
0.00749923
-0.0618373
-0.0191859
-0.00711762
-0.0095945
-0.0139876
-0.0134768
0.0221377
0.108399
0.0428702
0.0159225
0.00530856
0.035146
-0.0453986
0.0214264
-0.364823
0.0285494
0.0387281
0.017494
-0.195042
-0.283403
-0.0292986
-0.0838102
-0.0274609
0.0217833
-0.288681
-0.235486
0.254124
-0.303435
-0.437713
-0.173833
-0.116425
-0.0471783
-0.277362
0.355212
-0.0825922
-0.279883
6.02223e-06
0.0644223
0.572953
0.00899099
0.0052408
0.0632708
-0.0789827
-0.019359
-0.349315
-0.225634
0.0169853
0.0563067
0.0291598
-0.253916
-0.300525
-0.182385
0.0112375
0.0409524
0.09693
-0.0221738
-0.0771831
0.0828722
-0.00299004
0.0132779
-0.177699
-0.254764
0.0190527
-0.0581831
0.0114629
0.0124708
0.0727806
-0.0459116
0.0276378
-0.445372
0.45451
-0.239338
-0.267429
-0.0298435
0.0130977
-0.260364
-0.249087
0.114202
-0.317693
-0.123447
0.870135
0.00837557
-0.338482
-0.000438722
-0.0610393
-0.0145956
-0.4425
-0.255136
-0.297641
0.00673986
-0.166167
-0.343045
-0.0110542
-0.0272179
0.122967
-0.304999
0.0357441
-0.482434
-0.277169
-0.336247
-0.0266025
0.0191313
0.00160701
0.110896
0.123091
-0.0304226
-0.268343
0.306828
0.0113382
0.00681477
-0.419307
-0.478926
-0.321057
-0.0127782
-0.33174
0.0124459
0.0581717
0.0272785
-0.186516
-0.225196
0.013633
-0.2866
-0.23212
0.00623305
-0.00781968
-0.298746
-0.0108857
0.0422217
-0.364913
-0.302944
-0.0975487
0.113998
0.0193936
-0.311824
-0.251267
-0.27856
-0.0925999
0.0509786
0.108606
0.00424755
-0.306293
-0.250384
0.114129
0.019197
-0.106788
0.0339729
0.0380094
-0.285011
0.0305047
-0.261492
0.046109
-0.271685
0.0692748
-0.00563481
-0.31521
-0.403245
-0.00109885
-0.457048
-0.442235
0.0406037
-0.0376763
-0.24826
0.00526342
-0.276819
0.0185596
0.0980732
0.057285
-0.284134
0.0124355
0.0933696
-0.404256
0.0202072
-0.27588
0.015488
-0.306288
-0.45701
0.0962996
0.292286
0.449361
0.00883181
-0.000134455
-0.00291189
-0.324226
0.657155
0.014171
-0.171143
0.0142348
-0.0668087
0.0759711
0.502864
-0.320767
-0.0517514
-0.0402827
0.0257366
0.0135819
-0.399563
-0.258895
-0.276077
-0.259074
-0.268204
-0.00498428
-0.348746
-0.0110633
-0.223321
-0.269932
0.534604
0.608517
-0.242246
0.111723
-0.25305
-0.0276832
-0.026454
0.431128
-0.0378431
-0.303057
0.0107062
-0.457526
-0.0161126
-0.161671
0.00853555
-0.267947
-0.224016
-0.00426439
0.000453802
-0.307495
0.447926
0.690273
-0.314836
-0.25614
-0.31186
-0.0587261
-0.259786
-0.24826
-0.145546
-0.305225
0.772669
-0.293811
0.747197
-0.398558
0.329637
-0.299363
0.00597019
0.196347
-0.44804
0.221791
-0.226766
-0.265546
-0.293505
0.884344
-0.25809
0.20877
0.146255
0.646834
0.121277
-0.264508
-0.226816
-0.15847
0.0114785
0.11515
0.521258
0.00988645
-0.0115791
-0.249517
0.148372
-0.120885
-0.256829
0.0306583
-0.238333
-0.155863
-0.119296
-0.352485
0.00415502
0.100794
-0.00490496
0.0880736
0.105678
-0.284462
-0.313588
-0.0153482
0.021734
-0.416738
-0.461206
0.203912
0.212306
0.0861473
0.688158
-0.0794853
-0.300163
-0.339505
-0.254478
-0.0596876
0.108719
0.777613
-0.401072
0.375392
-0.00964707
-0.374198
0.170238
-0.0423605
0.385444
-0.123849
0.0171711
-0.315535
-0.0777444
0.193509
0.819244
0.336793
0.776743
-0.310452
-0.249035
-0.402081
0.192282
0.28525
0.069507
0.403055
0.134691
0.50635
0.298796
-0.017212
-0.185282
0.0222315
-0.265161
0.894508
0.41629
0.670315
0.523345
-0.227844
-0.310008
-0.251184
-0.277029
0.0545146
-0.396407
0.101617
0.614149
-0.337246
0.00709547
-0.27942
0.201365
-0.282399
-0.318209
-0.15027
-0.236314
-0.265162
-0.275279
-0.324188
-0.116277
-0.401562
-0.131718
-0.303119
0.1659
0.657123
-0.179549
-0.307441
0.843174
-0.305854
0.286664
-0.196813
0.387585
0.0851142
-0.310812
-0.347171
0.466942
-0.271095
-0.279419
0.188389
-0.236279
-0.0196325
-0.253167
-0.0843421
0.0312351
0.574136
0.789187
-0.251736
0.226182
-0.262329
0.833386
-0.010825
-0.269162
-0.021222
0.769552
0.223627
-0.27669
-0.245741
0.456718
-0.175223
0.0620932
0.375478
0.269943
0.297263
-0.211738
-0.259303
0.69842
)
;

boundaryField
{
    FrontBack
    {
        type            empty;
    }
    Top
    {
        type            zeroGradient;
    }
    In
    {
        type            zeroGradient;
    }
    Bottom
    {
        type            zeroGradient;
    }
    Out
    {
        type            fixedValue;
        value           uniform 0;
    }
    circle
    {
        type            zeroGradient;
    }
}


// ************************************************************************* //
