/*--------------------------------*- C++ -*----------------------------------*\
| =========                 |                                                 |
| \\      /  F ield         | OpenFOAM: The Open Source CFD Toolbox           |
|  \\    /   O peration     | Version:  2412                                  |
|   \\  /    A nd           | Website:  www.openfoam.com                      |
|    \\/     M anipulation  |                                                 |
\*---------------------------------------------------------------------------*/
FoamFile
{
    version     2.0;
    format      ascii;
    arch        "LSB;label=32;scalar=64";
    class       surfaceScalarField;
    location    "19.5";
    object      phi;
}
// * * * * * * * * * * * * * * * * * * * * * * * * * * * * * * * * * * * * * //

dimensions      [0 3 -1 0 0 0 0];

oriented        oriented;

internalField   nonuniform List<scalar> 
1171
(
-0.945499
0.945499
0.775138
-1.08566
0.310521
-0.20097
-0.762344
0.963314
0.0545007
-0.0678867
-0.277843
0.34573
-0.775138
0.0871719
0.687966
0.926916
-0.211785
-0.715131
0.829972
-1.0516
0.221633
-0.356533
-0.0387349
0.395268
-0.0035946
0.604555
-0.60096
-0.587813
0.968822
-0.381009
-0.42442
1.00901
-0.179038
0.219374
0.10182
-0.321194
0.971455
0.037555
0.262321
-0.0429467
1.00586
-0.034405
0.695396
-0.896366
-0.785716
0.611331
0.174385
0.227139
-0.814952
0.556763
-0.913455
0.356692
-1.081
0.672181
0.40882
-0.644614
0.64102
0.0304883
-0.249323
0.218835
0.0430866
-0.639899
0.596812
0.467241
-0.505976
-0.836872
0.878116
-0.0412443
0.98913
0.0167297
0.904642
-1.06071
0.156072
1.01143
-0.0222995
-0.697589
-0.0881269
1.26108
-0.852354
-0.408724
0.174558
-0.0780384
-0.410456
0.488495
-0.273676
0.18689
0.0867858
-0.605183
-0.480476
0.973308
-0.0686654
-0.0310881
0.887996
-0.856908
0.509102
0.751977
0.526516
0.0212932
0.445948
-0.791646
-0.106024
0.897669
0.582987
0.241436
-0.824423
0.0556992
0.59997
-0.655669
-0.510496
-0.570505
-0.382108
-0.678606
0.0264979
0.247289
-0.273787
-0.95765
-0.0353586
0.993008
0.374135
0.0211326
0.838762
0.0881535
-0.603076
-0.0415379
0.0347545
-0.8264
0.104443
0.935972
-1.04042
-0.406066
0.031545
0.374521
-0.717174
-0.240476
-0.740558
0.845002
0.72044
0.248382
-0.579667
1.00101
-0.820403
-0.180605
-0.154986
0.0562621
0.0987236
-0.459711
-0.0462652
-0.305604
1.02604
-0.00347013
0.43054
-0.42707
-0.518307
1.10129
0.71541
-0.821434
0.392882
-0.0699783
-0.322904
0.759692
-0.759692
-0.899316
0.041301
-0.319144
-0.697744
0.666656
-0.0348233
-0.145779
0.180603
0.888753
-0.000756632
1.0509
-0.80946
0.225284
-0.322036
0.0967521
0.961682
-0.12292
-0.673179
-0.0548387
0.728018
0.148958
-0.230091
0.0811331
0.796297
-1.00808
-0.439414
0.309136
0.130278
0.685518
-0.642431
0.864775
-0.392324
-0.472451
0.482667
-0.693984
0.0353136
0.658671
0.137259
0.665917
0.043624
-0.709541
0.137395
-0.0960944
-0.509695
0.103628
0.0369287
-0.905798
0.86887
-0.538079
-0.758952
0.0613633
0.500093
-0.0541447
0.275945
-0.833345
0.5574
0.424623
0.575377
0.599505
-0.56475
-0.389412
-0.00946447
0.398876
0.534046
0.225646
-0.676445
0.732145
0.0896365
0.883469
0.00668614
-0.679865
-0.764677
0.801605
0.611078
0.111384
0.344736
-0.45612
-0.154219
0.558087
0.0418821
0.868067
-0.847506
-0.0205606
0.662053
0.338956
-0.433213
0.697538
-0.586154
0.408926
0.147838
-0.0551212
-0.71097
-0.231733
0.942703
-0.120954
-0.638738
-0.613514
0.362317
0.251198
0.662392
-0.655706
0.310906
1.03526
0.0156396
-0.764677
-0.189168
0.0341822
0.71541
0.788224
-0.788224
0.844435
-0.830375
-0.0140603
-0.453842
0.878465
-0.193279
-0.316416
0.763847
-0.670893
-0.0929547
-0.933113
0.222143
0.109679
-0.712755
0.821434
-0.975653
-0.202043
0.186633
0.0154099
0.109538
-1.00078
0.891242
0.544253
-0.0177368
-0.288658
0.594576
-0.305918
-0.654695
0.764233
-0.15801
0.661291
-0.863486
0.202195
1.1228
-0.692388
-0.430413
0.733103
-0.068534
-0.0024299
0.00114185
0.00128806
-0.80049
-0.837481
0.0751368
-0.697744
0.576204
-0.544659
0.218902
0.62687
-0.845772
0.778737
0.166762
0.490517
0.509483
-0.0804806
-0.710093
0.790574
0.939727
-0.0716604
-0.733103
0.801605
0.181619
-0.430942
-0.0233985
0.00939004
0.0140085
0.675052
-0.42999
-0.245062
0.687966
-0.0588563
-0.17619
0.568657
0.106395
-0.0176064
0.00136503
0.0162413
0.00523195
-0.00766186
0.145339
-0.215317
-0.946235
0.0344761
-0.144629
-0.0567038
0.1361
0.795691
0.742032
-0.166655
0.577585
-0.358683
-0.163424
0.388707
0.639056
0.0489107
0.229479
-1.05985
-0.975653
0.319991
0.666656
-0.163542
0.0177626
-0.830167
1.02321
-0.19304
0.481376
-0.106854
0.800336
0.306016
0.277616
-0.0152958
-0.680861
0.680861
0.227151
0.670518
-0.0221243
0.452664
0.46637
0.0119008
-0.0352993
0.54253
0.00172333
-0.654695
0.571011
0.192836
-0.00717219
0.00831404
-0.639056
0.160363
0.862843
0.0277999
-0.717375
0.689575
0.760952
-0.821343
0.0603911
-0.778737
-0.0356062
0.0500195
-0.0144133
0.0865453
-0.116908
-0.102231
0.21914
-0.00794619
-0.00966016
0.755667
-0.727867
0.949751
0.0135634
-0.333327
-0.568618
0.901945
-0.00125069
0.00125069
0.177168
0.480158
0.508325
-0.988483
-0.194205
-0.549108
0.743313
-0.0193899
0.199992
0.380613
-0.231656
1.04252
-0.562364
0.833004
0.967053
-0.458728
0.187335
0.764233
0.585195
0.235712
0.642404
-0.638738
0.319139
-0.00935863
-0.00116271
0.0105213
0.92567
0.0554088
-0.981079
-0.55079
0.528491
0.546158
-0.55079
-0.585195
0.528491
0.0090723
0.966127
-0.0163761
-0.534046
0.447594
0.0864516
0.535845
0.635839
-1.17168
0.520257
0.522265
0.656672
0.527911
-1.18458
0.524838
0.442214
0.447594
-0.512939
-0.504371
-0.644183
-0.587469
-0.236616
-0.00729447
0.00729447
0.61843
0.538333
-1.1258
0.70036
-0.355625
-1.05546
0.363067
-0.696828
0.456352
-0.0594969
-0.91709
0.976587
0.453374
-0.109539
1.03521
-1.07389
-1.03822
0.139589
0.89863
0.31959
-0.220438
-0.0991517
0.736521
-0.805186
0.994619
-0.958296
-0.0363229
-0.0573029
-0.790203
-0.203885
0.887831
-0.683946
-1.06459
1.00729
-0.614847
0.549313
0.0655339
-0.683648
-0.0666474
0.750295
0.00386383
-0.00511452
0.423782
0.0792665
-0.945124
0.865857
-0.810596
0.730115
1.06711
0.123701
-1.19081
0.0288926
-0.0126872
0.411564
-0.3614
0.0393637
0.913474
-0.972971
-0.670085
-0.775533
-0.0146703
-0.152006
-0.935661
-0.0226353
0.412651
0.164933
-0.0100157
0.329606
-0.694681
0.628033
0.472451
-1.02663
-0.940889
0.0252376
0.0456348
0.619166
-0.664801
0.0409262
-0.62445
0.578923
0.182029
0.0755144
0.959695
1.14688
0.928394
-0.951029
0.0468918
-0.0468918
-0.073774
-0.0458246
-0.174614
0.337433
-0.0174426
0.21876
1.00062
0.00678417
-0.0147304
0.657391
0.342609
0.796533
-0.605183
-0.760549
-0.609392
-0.487246
0.487246
-0.208875
-0.110269
0.656051
-0.922476
0.266425
-0.474551
-0.534574
0.333132
-1.01174
-0.946183
0.90986
-0.682472
0.667801
0.660748
0.195451
-0.856199
-0.543858
-0.18718
0.857191
-0.67001
-0.0544385
0.00694111
0.00208783
-0.00902895
-0.0615794
0.0157548
0.989183
0.624129
-0.273875
-0.350254
0.524978
0.751919
-0.524768
0.0143905
-0.288066
-0.0318781
0.797001
-0.765123
-0.35099
-0.0784512
0.146214
-1.0632
0.0821199
-0.727024
0.11217
0.729197
-0.841367
-0.881941
0.154917
0.713143
-0.791594
0.234327
-0.351236
-0.561674
0.017816
0.367969
0.716078
-0.01854
-0.00252545
0.00252545
-0.00592943
0.024754
-0.0341126
-0.0162669
0.0230511
-0.396741
0.339645
0.762057
-0.81735
0.0552933
-0.679379
0.791549
0.800619
-0.0874759
-0.688118
-0.193824
-1.11873
0.0209685
0.0259234
-0.428619
-0.892002
-0.867394
0.45867
-0.154285
0.194168
-0.0398825
-0.297591
-0.131028
0.480999
0.711892
-0.0483701
-0.00833377
1.04538
0.537954
0.165618
-0.703572
-0.288671
-0.0089195
-0.0040352
0.0109763
0.720423
-0.952155
0.00489015
-0.00489015
-0.732925
0.768559
-0.0356346
-0.298687
-0.130873
-0.697562
0.173615
0.616959
-0.054996
-0.884742
-0.403691
0.219307
0.184384
0.742366
-0.687072
0.357872
0.252796
-0.610668
-0.17158
-0.699307
-0.14206
-0.19497
-0.230076
0.469988
-0.516253
0.183596
0.746614
-0.93021
0.482667
-0.184067
0.0297816
-0.0140456
-0.21603
0.594733
-0.0953389
-0.499394
-0.287028
0.307766
-0.0207386
0.57772
0.12264
0.101312
-0.313433
0.171461
0.141973
-0.119567
-0.0696005
-0.339582
0.133613
-0.122804
-0.0108087
0.915124
-0.199377
-0.0993105
0.552893
0.328424
-0.602299
0.398555
-0.398555
-0.204041
-0.394681
-0.222031
-0.394681
-0.732143
-0.852092
0.181199
-0.37399
0.734747
0.0500734
0.125755
0.590323
0.110227
0.119857
0.00968065
-0.129538
-0.154683
0.651215
-0.986523
0.417905
-0.0628011
0.0736776
-0.0108765
-0.757486
-0.177131
-0.591714
0.757331
-0.516554
-0.0741343
-0.141896
-0.340346
-0.0796641
0.0796641
0.049825
0.000194496
0.140826
0.124567
-0.703475
0.111761
-0.0639638
0.473031
0.526969
0.831427
0.020496
0.0112121
-0.0317081
-0.30027
-0.584472
-0.537984
0.115638
-0.120282
0.00464347
-0.156826
-0.411755
-0.152048
0.769007
-0.59004
-0.167447
-0.0178722
0.00472856
0.258757
-0.489711
-0.199194
-0.191685
-0.0236323
-0.470641
0.431684
0.0389565
-0.0725865
0.294792
-0.865297
-0.535156
0.614324
-0.882714
0.711134
0.439977
-0.0294419
0.0524121
-0.0229702
0.104477
-0.635356
-0.00918605
0.644542
-0.893091
0.653282
-0.727056
-0.0766625
0.00738952
-0.00738952
-0.299043
0.415187
-0.00362305
0.00173045
0.0187656
0.592538
0.570578
-0.591139
0.0111205
0.0008503
-0.00337575
0.00540683
-0.00540683
-0.471631
0.594271
0.0155523
-0.0155523
-0.780746
-0.0085255
0.0123893
-0.511356
0.623117
0.604689
-0.640324
0.0700324
-0.0700324
-0.0153371
-0.0199622
0.00830748
-1.07522
0.644803
-0.511513
-0.00511452
0.608472
0.00513301
-0.613605
-0.714147
0.124107
-0.314106
-0.0135415
0.327648
-0.0261927
-0.0221774
-0.609258
-0.0260983
0.0259234
0.00554969
-0.000659537
-0.00319289
0.00319289
-0.207483
0.196674
-0.473858
0.134779
0.661754
-0.113249
0.00461328
-0.00461328
0.508345
-0.160106
0.00864022
0.0185338
0.000292306
0.587015
-0.74712
-0.718801
0.61949
-0.0963267
0.332039
0.780869
-0.00592943
-0.0821111
0.0904252
-0.630924
0.547412
-0.293902
-0.105675
-0.0303352
-0.0261464
-0.00505485
0.468094
-0.0846774
-0.414716
0.710378
0.00188764
0.0032342
-0.0032342
-0.18769
-0.0829154
-0.57029
0.620363
-0.131673
0.509899
-0.183996
0.879392
0.806131
0.00554969
-0.748519
0.629941
0.0511314
0.000282779
-0.0514142
0.546904
0.0925654
-0.0115028
0.0638499
-0.0523471
0.00830988
-0.00830988
-0.738615
0.0231406
-0.0447313
0.0632652
-0.0853289
0.0853289
0.000850301
-0.00131615
0.751338
0.111505
-0.315763
-0.0959918
-0.519919
0.0332593
-0.0655963
0.0655963
-0.0470452
0.0821302
-0.0821302
0.0255995
-0.0255995
-0.357879
-0.075334
0.239043
0.0700931
0.0490396
-0.73497
-0.0635215
0.159696
0.021922
-0.236314
0.081994
-0.081994
-0.467373
-0.0488809
0.228567
-0.00973204
0.00235679
-0.667488
0.658415
-0.0101281
-0.0369171
0.0532312
-0.0731934
-0.0120979
-0.158207
0.170305
-0.148937
-0.202299
-0.0802696
0.0802696
0.0540419
-0.0540419
-0.027874
-0.0936317
0.121506
-0.0382182
-0.190275
-0.00209154
-0.00128421
-0.137826
0.334499
-0.0256222
0.485291
0.00927694
0.00696438
-0.049787
0.049787
-0.736242
0.315177
-0.127843
-0.206911
-0.0231801
-0.0161014
0.0184582
0.191812
0.027328
-0.00173169
0.002024
0.0855935
0.0300449
0.0563327
0.103364
-0.0174655
0.0091317
-0.00165595
0.00558564
0.00517155
0.00108299
-0.00625454
-0.0023839
0.0111646
0.0272534
-0.0272534
0.0477485
-0.0434843
0.0434843
-0.189939
0.01255
0.0309377
-0.0750637
0.0172896
0.0781726
-0.0781726
0.230768
-0.232862
0.0839248
-0.0661963
-0.166665
-0.0149055
0.0149055
0.407928
0.250742
-0.521303
-0.0806415
-0.0396404
0.542707
0.015013
-0.0547832
-0.451951
0.103824
-0.151654
0.168427
-0.0167729
-0.0481277
0.0481277
0.884693
-0.590028
-0.00506243
0.00267853
-0.00566479
-0.2874
-0.000136267
0.0050593
-0.045759
-0.630443
0.5688
-0.668829
0.0146734
0.117007
0.0158093
0.0241875
-0.157319
-0.332774
0.25771
-0.0546625
0.0267885
0.172479
0.135287
0.252019
0.261922
-0.246113
0.00451201
-0.11492
-0.220452
0.0670104
-0.0106777
0.158267
-0.134079
-0.0685438
0.154137
-0.416033
0.118543
-0.101254
0.0580533
-0.47277
0.173486
0.179677
-0.248221
0.00943289
-0.179082
0.178945
0.00382139
0.150316
-0.0279319
0.0478451
0.460499
0.0123479
0.0146259
-0.00237104
0.0371188
-0.237225
-0.202495
0.590849
0.167132
0.0614354
0.0742505
-0.0639072
0.0364329
-0.0878471
-0.0304578
0.16498
-0.150306
0.009571
-0.00634663
-0.106397
-0.0287656
0.0187027
0.251482
-0.0119742
-0.0367605
-0.309153
-0.00962739
0.219041
0.137544
0.177633
0.0570129
0.0958834
0.0632559
0.529282
-0.00791049
0.106248
0.0411355
0.0675723
-0.108708
-0.27056
-0.194557
0.0278918
-0.221287
0.281262
)
;

boundaryField
{
    FrontBack
    {
        type            empty;
    }
    Top
    {
        type            calculated;
        value           uniform 0;
    }
    In
    {
        type            calculated;
        value           uniform -1;
    }
    Bottom
    {
        type            calculated;
        value           uniform 0;
    }
    Out
    {
        type            calculated;
        value           nonuniform List<scalar> 10(1.17693 1.04878 1.14855 1.0471 1.16375 1.02968 1.15676 1.00913 0.602596 0.616712);
    }
    circle
    {
        type            calculated;
        value           uniform 0;
    }
}


// ************************************************************************* //
