/*--------------------------------*- C++ -*----------------------------------*\
| =========                 |                                                 |
| \\      /  F ield         | OpenFOAM: The Open Source CFD Toolbox           |
|  \\    /   O peration     | Version:  2412                                  |
|   \\  /    A nd           | Website:  www.openfoam.com                      |
|    \\/     M anipulation  |                                                 |
\*---------------------------------------------------------------------------*/
FoamFile
{
    version     2.0;
    format      ascii;
    arch        "LSB;label=32;scalar=64";
    class       volVectorField;
    location    "19.5";
    object      U;
}
// * * * * * * * * * * * * * * * * * * * * * * * * * * * * * * * * * * * * * //

dimensions      [0 1 -1 0 0 0 0];

internalField   nonuniform List<vector> 
808
(
(0.89269 -0.0113513 0)
(1.02152 -0.0369093 0)
(1.1552 -0.0284657 0)
(1.06996 0.010558 -2.34955e-21)
(1.47982 -0.286134 0)
(0.956302 -0.0264172 0)
(1.13264 -0.0558371 -1.54174e-22)
(1.13002 -0.0449227 0)
(1.35378 -0.22656 2.54987e-20)
(1.23062 -0.0891123 -8.84395e-21)
(1.17521 0.000139893 7.37493e-21)
(1.38422 -0.254102 0)
(1.00114 -0.0467688 0)
(0.739935 -0.0238636 0)
(0.894618 0.0785892 1.54476e-20)
(1.07995 -0.0358942 0)
(0.785149 0.0322284 -4.86941e-21)
(0.985541 -0.0379185 -4.60121e-23)
(1.16192 0.00268037 0)
(1.11649 0.000778175 0)
(1.1899 -0.0114867 -1.02919e-20)
(0.928608 0.121979 1.13449e-19)
(1.07565 0.0141313 -1.36315e-20)
(1.17777 -0.0361156 0)
(0.94932 0.179756 0)
(1.34738 0.0779436 -2.75826e-20)
(1.2834 -0.173844 8.69828e-21)
(0.952511 -0.0255827 -7.12749e-22)
(1.07055 -0.0242851 0)
(1.03599 0.0397994 -2.76443e-22)
(0.974673 -0.0289459 1.68036e-24)
(1.12397 -0.016029 0)
(1.04577 0.0374449 0)
(1.06813 -0.0220034 7.55966e-22)
(1.30329 -0.0725937 8.57147e-21)
(0.742323 -0.119372 1.1153e-19)
(0.873481 -0.0300877 -4.12267e-21)
(1.02171 0.0287907 1.19838e-21)
(1.19973 0.0554658 -1.73916e-21)
(1.09195 0.0224399 0)
(1.25927 -0.066023 -1.63888e-20)
(1.27613 -0.13162 0)
(1.01001 -0.000750186 -7.48744e-21)
(1.11733 -0.0381182 6.83021e-21)
(1.25269 -0.0107251 0)
(1.01103 0.0177069 -2.03545e-20)
(0.990667 0.0381856 1.67338e-21)
(1.25548 -0.24949 6.49297e-21)
(1.18034 0.0516255 -3.29493e-21)
(1.40837 -0.17647 -3.68372e-20)
(1.12687 -0.0601409 1.18453e-21)
(1.14876 -0.0701009 0)
(1.1213 0.00038755 6.66887e-21)
(1.13677 -0.0132447 0)
(1.31456 0.241037 3.43857e-21)
(1.07553 0.0417939 -1.30824e-21)
(1.18964 0.00119187 0)
(1.21051 -0.0245338 3.67433e-21)
(1.2351 -0.0933625 9.49337e-21)
(1.14687 0.0285801 2.43337e-22)
(-0.333588 0.215938 0)
(1.2169 -0.214707 -7.14719e-21)
(1.20852 -0.0324984 0)
(1.42491 -0.0769427 -2.85106e-20)
(1.13868 -0.0309099 -7.61497e-21)
(1.04232 -0.0290172 -7.29915e-21)
(1.36182 -0.117201 2.98853e-20)
(0.638427 0.0184255 0)
(1.13245 -0.0371397 0)
(1.44851 -0.353834 0)
(0.889512 0.0319304 -1.54447e-22)
(1.25735 -0.140197 -4.12278e-20)
(1.00993 0.0551232 0)
(1.05789 -0.0385164 -2.0934e-21)
(1.12664 -0.337892 -5.6335e-20)
(1.11589 -0.0457246 -7.68389e-21)
(1.1445 0.0197239 4.33944e-22)
(1.31202 0.495292 2.45031e-20)
(1.10739 -0.0475059 0)
(1.01104 0.278126 -1.88829e-19)
(1.35982 0.0491122 1.61879e-20)
(0.733395 0.0185606 0)
(0.839941 0.0303896 -8.67996e-21)
(0.969215 -0.111074 4.22435e-21)
(1.11042 -0.0482455 6.29337e-21)
(1.18857 0.00972635 1.50456e-21)
(1.29249 -0.236352 0)
(1.34099 0.287387 0)
(1.08916 0.000850347 -9.73044e-21)
(1.37883 0.114561 3.13258e-20)
(1.0781 -0.0195953 1.04106e-20)
(1.32207 -0.120494 -1.4515e-21)
(0.96455 0.0253646 1.77208e-20)
(1.00417 -0.0229907 0)
(1.11701 0.0189682 1.52916e-21)
(1.31616 -0.0441337 -7.62981e-20)
(0.754623 0.0155289 -2.53023e-21)
(1.37423 -0.0339999 0)
(1.32461 -0.0875842 0)
(1.43078 -0.0816853 -4.66148e-20)
(1.1006 -0.0518991 -1.93137e-21)
(1.12421 0.00755649 7.98946e-24)
(0.950322 0.0209878 9.2466e-21)
(1.18069 -0.00270137 -5.10178e-22)
(1.30621 0.02082 -2.37721e-20)
(1.00246 0.00676122 1.34561e-20)
(1.47773 -0.0305635 0)
(0.924624 0.0593972 0)
(1.09917 0.0293911 2.48581e-21)
(1.20582 -0.219753 -6.89255e-21)
(1.2642 0.00868027 1.09849e-20)
(1.04529 0.0450343 -1.25045e-19)
(1.15973 0.037422 -8.24414e-22)
(1.23859 0.117971 1.82161e-21)
(0.791892 0.0184472 0)
(0.91782 -0.0499035 7.64038e-20)
(1.14739 0.01826 -2.66551e-21)
(1.44312 -0.263796 -1.83636e-20)
(1.12427 -0.0423738 -5.07466e-21)
(0.92638 0.0174226 2.41886e-21)
(-0.458662 0.0158509 0)
(0.864539 -0.0168358 2.3741e-21)
(0.802512 0.0224547 0)
(1.06239 0.00309813 -8.11827e-23)
(1.01183 0.0290212 0)
(1.30406 0.324118 5.42693e-21)
(1.03575 -0.0532139 -2.98142e-20)
(1.39814 0.105956 -1.02701e-22)
(1.14988 -0.0642616 0)
(1.09253 -0.0221593 0)
(0.640468 -0.0266121 0)
(1.13096 -0.0407756 -2.61682e-21)
(1.2452 -0.0507499 9.39216e-21)
(1.06543 0.112133 -3.49277e-20)
(0.851987 -0.0244251 0)
(1.10386 0.0218409 -6.67766e-22)
(1.10711 0.131279 3.66187e-21)
(1.1748 0.0500737 -7.85908e-22)
(0.992069 0.0324164 2.51504e-21)
(1.12719 0.00562625 -6.69777e-24)
(-0.0232322 0.0284173 0)
(1.09615 -0.02294 -1.15931e-20)
(1.07997 0.019726 3.34104e-21)
(0.724065 0.0256936 -2.49998e-21)
(1.25575 0.172774 3.68366e-21)
(1.12742 0.179907 2.57143e-21)
(1.04848 0.0171199 1.56125e-20)
(0.991138 0.0261899 0)
(1.21736 -0.0861007 -3.16213e-20)
(1.08458 0.0775659 0)
(0.940052 0.0322832 5.07875e-21)
(0.967211 0.277677 1.50909e-19)
(0.968341 0.0357817 0)
(0.818072 0.0934324 0)
(-0.104965 0.00938524 -6.24963e-20)
(1.33791 0.140701 -1.05633e-20)
(0.675263 -0.0227395 0)
(1.43264 0.0698116 0)
(1.13348 0.0640464 0)
(1.35195 0.113395 1.20636e-20)
(-0.0474652 -0.123085 0)
(-0.0588855 0.0345451 2.96547e-20)
(1.02811 -0.0447782 8.67609e-20)
(1.00464 0.0388148 5.13502e-22)
(0.862828 0.000568143 0)
(1.04025 -0.0465947 7.53488e-21)
(0.891945 0.0217694 0)
(0.771525 -0.0312079 -9.37549e-20)
(1.03502 0.0481054 5.64543e-21)
(1.13611 -0.0376858 2.52919e-21)
(1.09543 0.00922922 4.88225e-21)
(1.01338 0.0687185 -1.24078e-20)
(0.828332 0.163566 -2.55993e-21)
(1.14033 -0.35142 5.48729e-22)
(0.913914 -0.0262039 0)
(1.06933 0.000265182 -1.23833e-20)
(0.875374 0.00925996 -1.10511e-20)
(1.38136 -0.166832 2.20378e-21)
(0.689059 0.0294193 0)
(1.05499 -0.144083 0)
(1.13344 -0.0426885 3.24119e-21)
(1.38267 0.219056 8.35456e-21)
(1.1162 0.0151546 3.18206e-21)
(1.03626 0.0179289 1.91859e-20)
(0.646939 0.0839666 -6.41618e-20)
(0.814227 0.00354629 1.99921e-20)
(1.13865 -0.0194343 3.45508e-21)
(1.38003 -0.0626184 -5.12749e-21)
(1.11962 -0.0375972 -4.68355e-21)
(1.31749 -0.0411056 4.39379e-21)
(-0.106277 0.0400138 4.51904e-20)
(1.26938 -0.0255939 0)
(0.612516 -0.0173022 0)
(1.0632 -0.0270964 -5.926e-21)
(1.09966 0.0115309 3.44346e-21)
(0.015754 0.0720379 0)
(0.879618 -0.0245838 3.0088e-22)
(1.14041 -0.0539488 -2.19938e-21)
(0.966185 0.0234048 8.3564e-22)
(1.07847 0.0412108 -7.61721e-21)
(1.00717 0.019171 2.66358e-21)
(1.05484 -0.0464684 1.94012e-21)
(1.04459 0.0284256 0)
(0.347023 -0.0431268 0)
(1.04734 -0.0638085 0)
(1.11795 0.11083 -2.49867e-20)
(-0.0473844 -0.125458 4.64027e-20)
(1.07963 0.035451 -6.34062e-24)
(1.11081 -0.0332633 0)
(0.758295 0.0212377 -4.76978e-21)
(1.10052 0.0389359 1.35219e-21)
(-0.00639752 -0.0401929 -1.52292e-19)
(0.842413 0.0226575 -5.50084e-20)
(0.626472 -0.018478 0)
(0.902887 0.0543846 0)
(0.926154 0.0409706 5.75669e-21)
(1.02542 -0.113945 5.89208e-21)
(1.27056 0.396928 -4.04222e-21)
(1.07127 0.0358088 -5.09567e-23)
(1.20749 -0.0439136 -2.52504e-21)
(0.998127 0.0747441 0)
(1.35345 0.422284 -3.07491e-20)
(0.654775 -0.024841 0)
(0.798688 -0.021232 -2.4519e-21)
(1.04986 -0.0170054 4.78245e-22)
(0.577156 0.0139364 0)
(1.09985 -0.00633045 0)
(0.0530002 0.0434133 -4.59454e-20)
(1.18686 -0.100959 -2.91967e-21)
(0.718417 -0.0145407 8.45425e-22)
(0.990502 -0.00247589 0)
(0.535065 -0.0193607 0)
(0.75436 -0.0171455 -1.88676e-21)
(0.522348 -0.019147 -4.40058e-22)
(1.35184 0.0523591 3.05541e-22)
(1.22195 -0.0256601 -2.9796e-21)
(0.693586 0.0173777 -1.72507e-21)
(1.12464 -0.00490214 3.64287e-23)
(1.10515 0.0194826 4.80147e-23)
(0.537689 0.0200639 4.82546e-21)
(1.21964 -0.00103303 3.74737e-22)
(1.17547 -0.0191462 0)
(0.918428 0.0780003 0)
(0.482614 0.0214246 0)
(1.04722 -0.00531696 0)
(1.14991 0.0144537 7.27798e-23)
(1.04366 0.00901494 0)
(1.16183 -0.0127732 0)
(1.03288 0.0350638 0)
(1.13313 0.147881 0)
(-0.0271916 -0.055088 4.69333e-20)
(1.20989 0.0315155 -6.11487e-23)
(1.1334 0.0694606 0)
(1.32147 0.0198354 1.48014e-20)
(1.16868 0.0525724 6.55924e-22)
(1.12325 0.0397017 3.29436e-22)
(1.13902 -0.0820022 3.65637e-21)
(1.16057 0.0207942 0)
(0.562234 -0.0167556 4.44396e-21)
(1.05092 0.0448751 1.20678e-20)
(1.28475 -0.10982 0)
(1.1692 0.000995018 -1.50931e-21)
(1.2032 0.0519797 1.95927e-21)
(0.633896 -0.00920721 2.29263e-21)
(1.12214 0.0231211 5.55624e-21)
(1.17188 -0.00820017 -3.80641e-21)
(1.07429 0.0303616 0)
(1.2087 0.13403 -9.51595e-21)
(1.19384 0.063025 -9.09232e-22)
(0.697629 0.0528028 1.3601e-20)
(0.811274 -0.0875221 0)
(-0.0195609 -0.0232084 0)
(0.97354 0.110893 -1.80833e-20)
(1.12075 -0.021757 0)
(1.33539 -0.0965911 3.48144e-20)
(1.22238 0.0373553 4.59127e-22)
(1.12985 0.0160012 3.65921e-21)
(1.19327 0.0406001 -1.77363e-21)
(1.36484 -0.0117183 1.09282e-19)
(1.02124 -0.3281 5.68764e-20)
(1.13745 -0.0492185 1.42752e-23)
(0.910641 -0.0711011 0)
(0.886059 -0.0168792 0)
(0.902785 0.0031128 -2.62029e-20)
(1.32328 -0.0970813 -5.94169e-20)
(1.12548 -0.0420429 0)
(0.635145 0.170056 1.56457e-20)
(0.36339 -0.0412526 0)
(0.758208 -0.109234 5.27171e-21)
(0.826148 0.112034 -1.82088e-20)
(0.806901 0.0275496 -3.59568e-21)
(1.1851 -0.0739065 0)
(1.2757 0.0353176 -5.35569e-22)
(1.17055 0.00895527 3.44262e-21)
(0.762482 -0.0846881 -4.53284e-21)
(1.16561 -0.0519491 -3.35936e-21)
(0.744903 -0.0721855 0)
(1.0923 0.0736012 0)
(1.16317 -0.114584 3.72782e-21)
(0.865305 -0.102756 -5.32535e-21)
(1.30383 0.0803853 1.65605e-21)
(1.11818 -0.0485858 -2.38041e-21)
(0.996601 -0.0433764 3.0059e-22)
(1.08458 -0.0279161 0)
(0.418587 -0.139585 1.39038e-20)
(1.33977 0.10269 -2.00701e-20)
(0.840517 -0.00279935 -1.60375e-20)
(0.0436388 -0.223224 -2.42457e-21)
(1.42583 -0.130616 2.55442e-20)
(0.854687 0.0377262 5.90977e-20)
(1.27683 -0.0901977 -3.87853e-21)
(1.09958 -0.0450334 1.79831e-22)
(-0.0596711 -0.120751 -7.93426e-21)
(1.00053 -0.00639594 0)
(1.03293 -0.0877346 -1.59396e-20)
(0.856171 -0.0340159 4.55617e-21)
(1.10218 -0.0458168 2.48658e-21)
(0.852954 -0.0444197 -4.20594e-23)
(0.506133 -0.0174557 -6.45849e-22)
(1.41945 -0.385161 -1.56055e-20)
(1.0935 0.0454975 0)
(1.00953 0.0114298 3.36242e-22)
(1.12361 0.0345229 -2.16286e-21)
(1.23822 -0.041093 0)
(0.756399 -0.0513657 -8.24654e-21)
(1.11983 0.0506512 2.53585e-21)
(0.716201 0.0198542 1.01357e-20)
(1.16015 -0.0547281 1.0212e-20)
(0.868426 -0.0940848 4.62213e-21)
(-0.036795 -0.066838 0)
(0.191366 0.00535597 1.88725e-21)
(1.12275 0.0242029 0)
(0.952069 -0.026988 5.83364e-22)
(0.943159 0.047002 0)
(1.13478 -0.0071134 1.37947e-21)
(1.01675 0.0272267 0)
(1.10867 -0.0782011 0)
(1.39577 -0.114459 2.13895e-20)
(0.79826 -0.0908482 0)
(1.07913 0.0226269 2.15793e-20)
(1.10243 -0.00829625 -3.23601e-23)
(1.03983 0.0411451 2.59915e-21)
(1.32475 -0.0503567 -1.97012e-20)
(1.24122 0.130571 -3.61839e-21)
(1.26125 -0.062582 6.30672e-21)
(1.12069 0.0520161 0)
(1.1618 -0.0615108 0)
(1.09875 0.0686444 1.72943e-21)
(1.24406 -0.0337538 0)
(1.38715 0.215261 -2.20892e-20)
(0.78183 0.0522337 1.97229e-21)
(1.02702 0.0176901 2.21002e-20)
(1.24326 0.0120419 -2.5837e-22)
(-0.00956584 -0.0232804 0)
(-0.0360125 -0.0891683 0)
(0.0492267 0.0889273 -4.20101e-20)
(-0.0560932 -0.112092 0)
(0.614491 0.131356 -7.9499e-21)
(1.18008 0.0489999 -1.60589e-21)
(1.1374 -0.0497638 -3.14412e-21)
(1.22191 -0.141473 -7.71472e-21)
(1.23087 -0.0546653 0)
(0.683167 -0.00800551 -4.04555e-22)
(1.14169 0.0819474 0)
(1.10408 0.0204437 -1.40069e-23)
(0.507204 -0.110184 0)
(0.647175 0.0793072 -4.69664e-22)
(1.14411 0.0781607 0)
(1.15193 0.0286068 0)
(0.631436 0.114381 4.48705e-20)
(0.476988 0.124834 -1.43329e-21)
(0.940762 0.0861241 1.53813e-21)
(1.01003 0.0177205 -8.8572e-21)
(0.195517 -0.0898661 0)
(1.20163 0.0134454 -2.03936e-20)
(1.24075 0.0294215 -4.34762e-21)
(1.1557 -0.0277472 2.26241e-21)
(0.524468 0.00993531 1.17559e-20)
(-0.0518121 -0.0919034 -9.4826e-20)
(1.18345 0.0794157 0)
(-0.0322996 0.0328752 0)
(1.22302 0.0557929 -2.77282e-22)
(0.331319 -0.0113328 -1.26508e-20)
(1.1295 0.0240995 -1.16527e-20)
(1.10893 -0.0466153 0)
(1.13875 -0.037071 2.08679e-21)
(1.29536 -0.253656 3.02054e-20)
(0.551097 -0.0496816 -9.75524e-21)
(1.14793 -0.0425672 9.66945e-22)
(1.1539 -0.0721015 -3.48102e-23)
(0.455751 -0.23014 3.34092e-20)
(1.19203 -0.0876401 -1.05889e-20)
(1.14079 0.0293293 0)
(1.18359 0.0931549 0)
(1.18491 -0.0967965 5.26604e-21)
(1.20975 0.0422879 3.92913e-21)
(0.827393 -0.166179 -8.90149e-20)
(1.19401 -0.117747 -1.24528e-20)
(1.14192 0.0496378 2.60729e-21)
(0.500285 -0.000716722 1.06313e-20)
(0.360061 0.107246 -8.50116e-20)
(0.110572 -0.00123009 4.97782e-20)
(1.1694 0.186967 -6.43821e-21)
(1.24011 -0.498071 5.8034e-21)
(1.34584 0.0421329 -1.40182e-20)
(1.21432 -0.0650894 -6.24057e-21)
(0.939458 -0.238133 9.41617e-20)
(-0.306274 0.0380656 0)
(1.17591 0.00618076 -4.81071e-22)
(-0.206562 0.0463862 -2.47967e-20)
(1.2077 0.0843545 2.39949e-22)
(1.22535 -0.0682449 4.21031e-21)
(1.08202 0.0367256 0)
(0.544822 -0.116735 0)
(1.16997 -0.0518784 0)
(1.28998 0.0917977 -6.8125e-22)
(1.24924 -0.0232751 -2.31607e-20)
(1.156 -0.0509731 -4.60834e-21)
(0.450848 0.0135524 0)
(0.60892 0.00373254 0)
(0.623913 0.00467516 7.42547e-22)
(0.435934 -0.00987509 0)
(1.20287 0.0252504 0)
(1.0226 -0.0145429 2.34611e-20)
(0.31933 -0.279467 0)
(0.921774 0.0390528 0)
(1.10148 -0.0123827 0)
(1.16929 0.187617 -9.57574e-21)
(1.25221 0.0189302 7.79487e-21)
(0.967856 -0.0323169 5.8444e-21)
(1.30101 -0.403273 -1.10725e-19)
(0.609329 -0.252456 9.98243e-21)
(1.24511 0.122086 4.14879e-21)
(1.18433 0.000500702 0)
(-0.301301 0.0196364 0)
(-0.23174 0.135457 0)
(1.17428 -0.036039 -7.82026e-21)
(1.3263 -0.291113 -2.72249e-20)
(1.32752 0.0542283 0)
(1.07902 0.0554556 -6.18301e-21)
(0.521334 -0.0225007 0)
(1.51575 -0.163557 7.61841e-20)
(0.409175 0.514542 1.22085e-19)
(0.290618 -0.0538366 0)
(1.10652 -0.27913 1.18863e-19)
(0.146059 0.198514 0)
(-0.14019 -0.315816 1.53568e-20)
(1.30783 0.0562815 0)
(-0.203979 0.10128 2.94018e-21)
(0.98349 -0.0496966 0)
(1.3002 -0.133819 -1.60004e-20)
(-0.136632 -0.0176961 -7.7687e-21)
(1.12986 -0.0335564 -3.09898e-22)
(1.13257 0.014246 -1.02368e-20)
(0.576992 -0.523667 -9.14549e-20)
(1.16259 0.052834 -1.07405e-21)
(1.19619 -0.126828 2.88011e-21)
(1.17604 0.24904 -2.35052e-20)
(1.17052 -0.26478 -6.38966e-21)
(1.1723 -0.0190886 -9.78364e-22)
(-0.0925571 0.0990588 -6.00085e-20)
(0.0117699 0.0682837 -6.47466e-21)
(1.33542 0.145441 2.5621e-21)
(1.05773 -0.0493687 0)
(0.559169 0.146595 -1.09233e-21)
(1.40985 -0.444633 8.43141e-20)
(0.947921 -0.0807247 -6.21782e-20)
(1.40572 0.165079 6.38305e-20)
(1.08152 -0.040716 2.02445e-21)
(1.15211 -0.0288438 1.00147e-20)
(1.06198 -0.00713078 0)
(1.178 -0.0242761 0)
(1.28023 -0.118838 6.42073e-21)
(1.0876 -0.0195963 -4.55931e-21)
(1.15967 -0.217994 7.17092e-21)
(1.1085 0.0561366 -3.95048e-21)
(1.41837 -0.0164957 -4.64945e-20)
(0.413907 0.0261275 0)
(1.16413 -0.0991648 4.10323e-21)
(1.29747 0.0403289 0)
(1.13006 0.0608524 -1.77868e-21)
(1.14578 0.0275373 0)
(1.04127 -0.0086225 1.19955e-20)
(1.23995 0.0440151 1.36006e-20)
(1.06489 -0.0132807 0)
(0.0544752 -0.0295265 1.60116e-19)
(0.88418 -0.217064 -7.38555e-20)
(1.28361 0.0283915 -3.03761e-20)
(-0.106705 -0.0415275 3.87678e-20)
(1.19104 0.0240342 2.8675e-22)
(0.727562 0.0276149 -3.23729e-21)
(-0.0922912 -0.0242843 -4.0417e-20)
(-0.019275 -0.0133995 -2.49284e-20)
(1.02039 -0.0295399 0)
(-0.0314768 -0.0413115 0)
(1.17287 0.0601985 0)
(0.112371 -0.110128 0)
(1.11778 -0.0313698 0)
(0.138745 0.02781 0)
(1.12783 0.0382249 0)
(1.13331 0.0311689 0)
(1.39353 0.0752929 1.21239e-21)
(0.580371 -0.287903 -2.19374e-20)
(-0.134277 0.0944828 0)
(1.15375 -0.0907036 6.47141e-20)
(1.29765 0.0765435 9.79611e-22)
(1.2687 0.0590515 0)
(-0.0384237 -0.0433179 0)
(1.1663 0.0151109 2.68331e-21)
(1.17736 -0.00722705 -1.81867e-21)
(1.16245 0.387755 0)
(0.271433 -0.0823059 6.30389e-20)
(1.12253 0.0641203 1.28596e-21)
(0.237023 -0.0520041 -5.41801e-20)
(-0.0592677 0.0407799 -2.86479e-20)
(-0.0349308 0.04838 7.51626e-20)
(0.108544 -0.0105876 4.27186e-21)
(0.977721 0.0357803 3.04631e-21)
(1.15018 0.05536 -5.83344e-22)
(1.02411 -0.0075067 0)
(1.07046 -0.0693103 -2.09562e-20)
(1.23579 0.0256768 -8.3781e-21)
(-0.0108121 -0.0408614 9.65881e-20)
(0.980746 -0.0732952 -5.92109e-20)
(0.763936 0.0914994 3.224e-21)
(1.17852 0.0828994 -1.21193e-21)
(0.0748992 -0.0315656 3.46431e-20)
(0.248239 -0.0382229 -4.90132e-20)
(0.419407 -0.0619795 -5.71627e-20)
(1.26734 0.0697512 -3.17595e-21)
(-0.0560837 -0.0417222 0)
(1.07476 0.164862 -4.40111e-22)
(1.08564 -0.131606 1.38676e-20)
(1.14309 -0.147865 -1.33716e-20)
(1.26048 0.0506415 0)
(1.52084 -0.223803 7.5312e-20)
(1.1428 0.0337659 -2.37728e-21)
(-0.017346 -0.0503629 -3.34578e-20)
(0.247307 0.0763182 0)
(0.893628 0.0401364 -1.29921e-21)
(1.13068 0.0195396 -3.54458e-22)
(0.764403 -0.0637857 2.74796e-20)
(1.17117 0.0142351 -3.50259e-22)
(1.11864 0.0546569 0)
(1.15127 -0.170915 -1.5153e-20)
(-0.082063 -0.0666711 -6.83816e-20)
(1.30694 -0.0227278 2.23959e-20)
(1.09958 0.175233 -8.68896e-21)
(1.10263 0.0621261 4.5181e-21)
(-0.0443328 -0.0703264 1.58112e-20)
(-0.0195786 0.0214733 -5.67063e-20)
(0.739052 0.0886845 0)
(0.672463 0.141259 0)
(1.15123 0.104117 -1.82481e-20)
(1.05119 0.0701663 1.31807e-20)
(1.09714 0.0290078 0)
(0.563235 0.0269659 5.30132e-20)
(0.702759 0.0860979 -1.01153e-20)
(1.09796 0.111199 0)
(1.08972 0.0606956 0)
(1.2754 0.0514782 0)
(1.17907 -0.000670212 0)
(1.15747 0.092361 3.21599e-21)
(-0.0428252 0.0427751 3.12866e-20)
(1.23168 0.00712059 6.07186e-21)
(1.42112 -0.1898 -8.62096e-20)
(1.18463 0.0587426 -4.81123e-21)
(-0.0122697 0.151528 0)
(1.13632 -0.0791405 0)
(0.621037 -0.00876952 6.56533e-22)
(0.518733 0.00842648 -5.38752e-20)
(0.0666947 0.0362771 4.40494e-20)
(0.934641 0.0169369 -5.25867e-22)
(0.747473 -0.27411 0)
(0.68323 -0.0918127 0)
(1.13563 0.0242242 0)
(0.535935 0.509206 1.63195e-20)
(-0.0118299 0.00265224 -2.72795e-20)
(1.13458 0.0669643 -1.77243e-21)
(-0.0240628 -0.0804826 6.41314e-20)
(1.14411 -0.0436381 1.42271e-21)
(1.16878 0.315398 4.48328e-20)
(1.11316 -0.0869419 7.63527e-21)
(0.274286 0.0742832 7.86124e-20)
(1.12163 0.165033 9.65892e-22)
(1.02038 -0.0524989 0)
(0.551323 0.268212 0)
(0.888403 -0.0227622 4.69635e-21)
(-0.185483 0.0607435 0)
(0.604718 0.0290371 1.75344e-21)
(0.607372 -0.420393 -3.22356e-21)
(0.231211 0.0486811 -1.04359e-19)
(1.1266 -0.228846 3.07553e-20)
(1.03462 0.361446 1.05138e-20)
(0.979499 0.0164821 0)
(1.19972 0.0196815 1.99391e-22)
(0.62619 0.0141411 0)
(0.986595 -0.00748612 -9.18137e-22)
(0.44307 -0.0209136 0)
(0.711636 0.124515 0)
(1.00451 -0.0220812 -3.01205e-21)
(1.42845 0.183019 -1.1497e-20)
(1.12748 -0.0460531 1.09205e-21)
(0.525241 -0.495595 0)
(1.13605 -0.155477 1.78149e-21)
(0.801469 0.373959 7.24326e-20)
(-0.0400072 0.0208062 1.05761e-21)
(1.23931 -0.00879985 1.06977e-20)
(1.22549 0.0449255 -1.04354e-20)
(1.18632 -0.0753679 6.15936e-22)
(0.788174 0.00819772 -3.36545e-21)
(0.0588652 0.0182587 3.37706e-20)
(-0.0167982 -0.0529398 -5.38338e-20)
(-0.181339 0.0792326 0)
(-0.173811 0.19348 0)
(1.19077 -0.618555 3.26997e-20)
(1.15848 -0.0273545 9.54685e-22)
(0.89284 -0.467318 -4.42552e-20)
(1.06871 0.103349 3.95841e-22)
(1.35134 0.206176 2.97292e-20)
(0.597875 0.416401 0)
(0.244666 0.411141 -1.1812e-19)
(0.592807 0.475424 0)
(-0.0351869 0.0954137 0)
(1.12659 -0.482206 0)
(-0.0406587 -0.0121926 -9.61136e-23)
(1.19541 -0.01327 0)
(0.769229 0.0411629 -4.15161e-21)
(0.59021 0.686769 2.00709e-20)
(1.26952 0.0651099 4.60564e-21)
(-0.0352789 -0.116989 -1.11911e-19)
(0.471344 -0.144099 3.24565e-21)
(0.442804 0.142563 -1.25665e-20)
(1.20738 0.101431 0)
(1.35045 0.359864 2.98072e-20)
(1.2152 0.564282 3.49206e-21)
(0.15085 -0.0141416 -1.99333e-20)
(0.973237 0.131016 2.76647e-20)
(0.93156 -0.0208899 -3.34253e-22)
(0.893644 0.0237916 3.41608e-23)
(-0.00714458 -0.0397335 0)
(0.649774 -0.658805 -3.00962e-20)
(0.612713 0.195454 0)
(0.0808401 -0.101917 0)
(-0.0433894 0.0417717 0)
(-4.57372e-05 -0.116632 -4.27398e-20)
(1.25051 0.00149032 -1.22832e-20)
(-0.0358031 0.03531 0)
(-0.02711 0.021933 0)
(1.45376 0.127953 -6.15495e-20)
(-0.0400087 -0.0943543 5.05077e-20)
(0.114071 0.230705 -1.02465e-19)
(0.373479 0.0158063 0)
(0.170442 -0.282611 8.13707e-20)
(1.09451 -0.24106 0)
(0.998309 -0.287291 0)
(0.00637837 -0.106704 1.0611e-19)
(1.15323 0.042712 -9.02783e-23)
(1.12061 0.34193 2.98618e-20)
(0.253536 0.0277194 4.26962e-20)
(0.405678 -0.521513 -3.65723e-20)
(1.24782 0.0948715 0)
(1.19673 0.197689 1.98241e-20)
(1.20327 0.21536 -2.43535e-20)
(0.102057 0.0841127 -2.36196e-20)
(-0.0600026 -0.035513 0)
(1.0708 -0.0581178 -1.95122e-20)
(1.10458 -0.225024 -1.51485e-20)
(0.584707 -0.410085 0)
(1.09807 -0.150957 -2.56935e-20)
(-0.107435 0.170661 0)
(0.556969 0.0394881 0)
(1.40633 0.0236773 3.55839e-20)
(0.984699 0.0330971 3.39274e-22)
(1.07092 0.740582 -1.93487e-20)
(0.226565 -0.382556 1.31289e-19)
(1.10551 0.039426 4.28284e-22)
(1.20872 0.082264 -7.90906e-22)
(-0.0427088 0.0287386 2.70935e-20)
(0.780763 0.727793 3.19044e-20)
(1.35348 -0.371251 -1.34161e-20)
(-0.0970885 0.0885962 7.13924e-20)
(1.11524 0.03275 0)
(0.139686 0.0605134 -6.29821e-21)
(0.902582 -0.638731 2.9075e-21)
(0.891722 0.636956 -1.48135e-20)
(0.553057 -0.0357096 -6.42807e-20)
(1.14977 -0.00320838 -1.66343e-21)
(1.07597 -0.0839733 6.70715e-21)
(1.16882 0.0445169 -4.05996e-22)
(1.10519 0.123081 5.12657e-21)
(1.13354 -0.128023 0)
(0.886055 0.11113 1.2786e-20)
(0.876432 0.455549 0)
(1.28341 0.0497662 1.81774e-21)
(1.16826 0.118682 9.75772e-22)
(0.739982 0.262079 0)
(0.508516 0.108918 9.95306e-20)
(0.887784 0.707747 -9.7321e-22)
(1.07366 0.290427 -2.29335e-20)
(1.0429 -0.0102909 1.17485e-20)
(0.41349 0.485764 0)
(1.30069 -0.475655 0)
(0.618059 0.0488566 5.06088e-21)
(1.25291 0.502853 0)
(-0.0250931 0.0444597 -3.80263e-20)
(1.28759 -0.417328 -9.456e-21)
(1.15941 0.508735 0)
(0.452176 0.211305 1.71241e-19)
(1.10945 0.31528 -1.09692e-19)
(0.817932 -0.645538 -2.57292e-20)
(1.16893 0.0378447 -2.09502e-21)
(0.898736 0.150762 7.33777e-20)
(1.08595 0.169857 5.56295e-20)
(1.06328 0.700261 1.88031e-21)
(0.906365 -0.442283 6.50353e-20)
(1.41982 0.200892 3.32974e-20)
(1.13353 0.010944 -5.81485e-22)
(0.00292325 -0.0674541 9.42785e-20)
(1.08631 -0.705954 2.73785e-20)
(0.874227 -0.72418 5.2708e-20)
(0.252613 -0.339731 0)
(0.972571 -0.149813 7.30916e-20)
(0.36095 0.301651 -4.44439e-19)
(-0.0948078 0.0797918 2.39705e-20)
(0.217933 0.0300224 1.93616e-20)
(0.681457 -0.0593576 -7.56887e-20)
(1.07354 0.52677 0)
(0.988926 0.220777 8.32631e-20)
(1.08765 0.0322477 3.68813e-21)
(0.905565 0.438713 -9.33875e-20)
(0.785106 -0.729192 -8.26837e-21)
(0.928137 0.0195539 -4.95727e-20)
(0.973469 0.486727 0)
(1.15439 0.019206 -6.68212e-21)
(1.38536 -0.51686 1.35013e-20)
(1.23076 -0.342981 9.51342e-21)
(-0.231698 0.190188 3.03541e-20)
(0.194672 -0.00324557 -1.82932e-20)
(0.975476 -0.120811 -5.8709e-20)
(0.350219 0.519774 0)
(0.915157 0.012428 3.94984e-20)
(1.14707 0.633515 7.12225e-20)
(-0.0696484 -0.0392569 1.46564e-19)
(-0.0588786 0.00939535 -2.25088e-20)
(-0.0834885 -0.0912613 4.01154e-20)
(1.09903 0.0262296 -4.97405e-21)
(1.13557 -0.46339 0)
(1.07063 -0.739166 -4.15282e-20)
(0.696247 0.344498 0)
(0.0322729 -0.0417494 -1.08832e-19)
(1.11766 0.0409063 2.49671e-21)
(-0.0381283 -0.104689 -2.95316e-20)
(1.0472 0.0577588 -1.21302e-20)
(0.099094 0.0245157 4.93562e-20)
(0.824948 0.125845 0)
(1.35969 -0.0124433 4.54495e-20)
(0.0267595 0.0276939 -2.19843e-20)
(-0.202712 0.158048 -3.6054e-20)
(-0.209802 0.147043 0)
(0.0816446 -0.020947 0)
(1.31966 -0.0119664 -1.34097e-20)
(0.382648 -0.0113919 1.56281e-19)
(1.2714 -0.730415 -2.35201e-20)
(0.895241 0.026719 3.80259e-20)
(1.06815 0.250906 -3.24438e-20)
(0.369943 -0.563873 1.40016e-19)
(1.53269 0.290359 -2.9962e-20)
(0.0750734 -0.0838875 3.67689e-20)
(0.207277 0.299022 1.98214e-19)
(0.102162 -0.0534524 -1.37144e-19)
(0.944897 -0.497115 -4.34112e-20)
(1.44053 0.391239 3.06206e-20)
(0.569595 -0.681239 4.8773e-20)
(1.10761 -0.0839421 -6.83144e-21)
(0.2072 0.0313812 5.92146e-20)
(1.16209 0.291183 -4.31565e-20)
(0.658275 0.634621 -4.20829e-20)
(1.34246 -0.626402 0)
(1.40224 0.519472 3.08292e-20)
(1.05649 -0.532294 -1.26478e-20)
(1.3767 0.605528 -8.78639e-20)
(1.1806 0.0174814 0)
(-0.0494121 0.048629 0)
(1.24241 0.726878 0)
(1.18035 -0.0030342 -6.78396e-21)
(0.74374 -0.306999 -2.07908e-19)
(0.47687 -0.0887873 0)
(-0.0532425 0.0428128 -2.29672e-20)
(1.02256 -0.248674 9.82555e-20)
(-0.248242 0.151486 0)
(0.321368 0.0189982 1.23585e-20)
(1.14634 0.0283424 0)
(1.39604 0.279687 0)
(1.19054 0.0366133 2.24352e-21)
(0.36249 -0.298688 0)
(1.01139 0.150082 3.93592e-20)
(1.29231 0.290047 0)
(-0.0787794 0.022228 1.81242e-22)
(0.813902 -0.4019 0)
(1.50407 0.347342 -4.55707e-20)
(1.23412 0.369296 3.52805e-21)
(0.836306 0.641675 -1.01669e-20)
(1.00875 0.158272 -9.18471e-20)
(0.970453 -0.207055 -4.79321e-20)
(1.43857 0.300958 2.68253e-20)
(0.960784 0.0995869 0)
(0.563869 -0.0767345 0)
)
;

boundaryField
{
    FrontBack
    {
        type            empty;
    }
    Top
    {
        type            noSlip;
    }
    In
    {
        type            fixedValue;
        value           uniform (1 0 0);
    }
    Bottom
    {
        type            noSlip;
    }
    Out
    {
        type            zeroGradient;
    }
    circle
    {
        type            noSlip;
    }
}


// ************************************************************************* //
