/*--------------------------------*- C++ -*----------------------------------*\
| =========                 |                                                 |
| \\      /  F ield         | OpenFOAM: The Open Source CFD Toolbox           |
|  \\    /   O peration     | Version:  2412                                  |
|   \\  /    A nd           | Website:  www.openfoam.com                      |
|    \\/     M anipulation  |                                                 |
\*---------------------------------------------------------------------------*/
FoamFile
{
    version     2.0;
    format      ascii;
    arch        "LSB;label=32;scalar=64";
    class       volScalarField;
    location    "1780";
    object      p;
}
// * * * * * * * * * * * * * * * * * * * * * * * * * * * * * * * * * * * * * //

dimensions      [0 2 -2 0 0 0 0];

internalField   nonuniform List<scalar> 
808
(
-0.03589092106955424
0.04512024127642567
-0.01188249567016147
0.03504556205754094
-0.3038313678072979
-0.05457719351555299
-0.01447453141707232
-0.02387303590271361
-0.2001270952382583
-0.0856449607069755
-0.009410804247229496
-0.2577836082386431
-0.03055728857517621
-0.01288534907164077
-0.1217828509245351
-0.01399449407665767
-0.1404271076929131
-0.01354879108323872
-0.01247845663748639
-0.05698106419391671
-0.005813660253168531
0.1183352416426365
-0.06078293219087154
-0.07340967456184051
0.1765040354505177
-0.09928062661116081
-0.155269398558382
-0.02029756279151809
-0.01736387464310023
-0.02602362860289234
-0.02015211400413604
-0.05988583326806068
-0.02296493745027206
-0.01682809900190642
-0.1011034321377052
0.3440974505224452
-0.03849048679848684
-0.0168153350201163
-0.0233046875596575
-0.02658190596217238
-0.09189232077105017
-0.1290135286622657
-0.0506992181320312
-0.02059102055918712
-0.05481998411790948
-0.03982042052326439
-0.01237063417898633
-0.1875760822190171
-0.02760474337045658
-0.2074398655179381
-0.01603445602116689
-0.06897108648666733
-0.05941958209892654
-0.01477313569119085
-0.190253964661884
-0.02900648855554649
-0.01064949495049223
-0.01428862809234861
-0.1023990448033825
-0.04071251578344322
-0.09616560367312439
-0.1286199799809442
-0.01335033339409963
-0.1302118857821146
-0.01689847656866784
-0.05051397838490859
-0.1670309755821696
-0.03567793233777548
-0.01483909017694262
-0.4462111802189524
-0.02701515693780015
-0.3081734008229975
-0.02203538534834522
-0.02030929056425707
-0.06725490029008346
-0.0173088532430673
-0.04356358123245972
-0.3593602854024555
-0.03538892363745292
0.04202561223377061
-0.09042977280727238
-0.01730377700100364
0.05679184796527018
0.04351066881982531
-0.01651580152744011
-0.05331463512387345
-0.5491455805422271
-0.2227465771146717
-0.05344290615592966
-0.111478558047407
-0.05803844113385964
-0.1349331651675747
0.0407808374845786
-0.02376627727251576
-0.06046588908251784
-0.1193213275070426
-0.03850760939309395
-0.05201233473232871
-0.1181659625937554
-0.139990209763946
-0.05203313352324653
-0.048448076030305
-0.05565259081959924
-0.04581784857843606
-0.0579572206534982
-0.07315830699167483
-0.04148066418984893
-0.01127511030087258
-0.0411281825141262
-0.1267160116648191
-0.05131222503760489
0.08338229553617173
-0.04317786711469213
-0.008131984343813766
-0.02784728491540132
0.1801694923394015
-0.03989351879431684
-0.273673183127649
-0.0202638208262839
-0.05488376445909664
-0.02674096246338602
-0.04775198231353023
0.01256897556824965
-0.05010840262016028
-0.0339568335419036
-0.2141282854659377
-0.04289815819959816
-0.005123618983351594
-0.07774852832866838
-0.06746766331142356
-0.1466523764571419
-0.02089071320217134
-0.07655309287619798
-0.04108351155692855
-0.02270494723479677
-0.01663698893589464
-0.006434376779391767
-0.00734958428134149
-0.05319102908416647
-0.05099728689380048
-0.2098568435157364
-0.05812926214492909
-0.008572658296631012
-0.02280293287904643
-0.1447290491104023
-0.002410302995505987
-0.07779692120942376
-0.0237221079689863
-0.001159298500269459
-0.01050833127102828
-0.03393809736061587
0.09558969260892028
-0.03983037297733936
0.2527621969101075
-0.2659071806760808
-0.130227390340415
-0.03708109749301124
-0.0912112709226269
-0.009212116341869681
-0.1116646562564551
-0.1863442627008456
-0.2149294657685525
-0.1827168268306998
0.05535768531681186
-0.06174811756586749
-0.02026657014710965
-0.06797509934494522
-0.1715999443647479
-0.02393743223851703
-0.0184670647958602
-0.05334837292953928
-0.01798207161765497
-0.00592271895327689
-0.1104518830851128
-0.0227214450480162
-0.04667440328640524
-0.06870060749399189
-0.1638680181717151
-0.03375886448682581
-0.3964345246676461
-0.01778770622179819
-0.2223332943875758
-0.0454899715247634
0.030579437542316
-0.1053011638578096
-0.01409373768416812
-0.04150869427038378
-0.1056813640680719
-0.0176668403166418
-0.09699113062101354
-0.2055947933486613
-0.07299801792166545
-0.02367511722741905
-0.04987919634109821
-0.04387720015900921
-0.2043661311090781
-0.02181015407621809
-0.01893019118177612
-0.01136982091238621
-0.05452731720659806
-0.05207602705835501
-0.02237953644168088
-0.0208575333543598
-0.2480298298283274
0.1280538551198735
-0.2004244241968192
-0.2079791135388934
-0.01178822235838868
-0.01161733999674144
-0.06773374195984014
-0.009521240247977951
-0.5152419310586545
-0.1221471645673665
-0.01890475335630589
-0.001202936728108498
-0.02430842499651571
-0.2873376853426514
-0.2738049138640104
-0.007065465906329342
-0.01759028039986787
-0.001998158989137092
-0.3442818299007617
-0.02823612769092327
-0.02912809318029864
-0.01248926607401689
-0.01978552424489628
0.05108962352818994
-0.1077931312876615
-0.01381586960370805
-0.02072327542927079
-0.04287510399773086
-0.01817990901849732
-0.01611361726079708
-0.02335739309834479
-0.06682075442855384
-0.01187328490113617
-0.01907847286489853
-0.008508058122853438
-0.0007889025377678858
-0.02956804948041547
-0.001543937805968513
-0.002303635146119931
-0.006080894472158425
-0.02562569707354469
-0.007993697571741112
0.001555770863902918
-0.004179613346270535
0.001175091661914817
0.002531958539653835
-0.008567600531557938
-0.1428633895403947
-0.003033017261063684
-0.001365089250587945
-0.04848207240413595
-0.02152324114551257
-0.02493367210933462
-0.01438240105165597
-0.006091931909601863
-0.02084781244096626
-0.03728620289537059
-0.01395166630937372
-0.01282207742340675
-0.01189409354878677
0.007003316969592989
-0.01028488535970649
-0.01192253578817555
-0.01129603813445341
-0.01079878803664642
-0.01009508622036249
-0.01156330489371731
-0.01414509841372249
-0.3116443530990396
0.06110774537234765
-0.0154738963290793
-0.01647589944588756
-0.01308771802351333
-0.01228536233479058
-0.008781447495365713
-0.09769696465384954
0.009210824132717357
-0.01370361042489689
-0.01474922925019942
-0.01080171770679172
-0.05333369375944046
-0.009921892158351122
-0.0138152450136551
-0.0093281976429864
-0.0005623528821789333
-0.009773682334933635
-0.01117686691006337
-0.02491410800518047
-0.01622102588266761
-0.01185712591253099
-0.01334772795212543
-0.007713786365013572
-0.01276025975920628
-0.01166302362794669
-0.05712479321291223
-0.01296724379521727
-0.01130618352019171
-0.008663903015716878
-0.01484120524259047
-0.01393594560724491
-0.01571983956892326
-1.379798216314766
-0.09816438240717348
-0.01322536001444061
0.02360756394560233
-0.165655124271978
-0.09262445514029746
-0.01137816190900304
-0.01404255397801488
-0.2541165041219487
-0.03087205590016544
-0.02049954119023429
-0.01083322522913221
-0.01959269832288306
-0.01090433923368902
-0.03068992819398808
-0.4160123810042956
-0.01233132683682907
-0.01410317027905683
-0.004903735622633996
-0.01065881631226382
-0.009810382694233264
-0.01435496615691444
-0.008900330199176321
-0.02602733573005948
-0.01129126077483531
-0.1617955873903954
0.01718652830810102
-0.007749653675897209
0.003144215065655073
0.0134073221790935
-0.04717146730813191
0.03001930073706488
-0.01293612190541501
-0.1357381548702324
0.2820191144220546
-0.007206595085558364
-0.01320191577958502
-0.008440327508467625
-0.03301303628620714
-0.1221590820166841
-0.01285129253217549
-0.01238276232329659
-0.01682966659701373
-0.01360719183636449
-0.04088465791981932
-0.2136417178343723
-0.0114950207755507
-0.04103327115129204
-0.04001315745480082
-0.164909218322172
-0.1658666852200241
-0.1395510693385738
-0.2542834405512894
-0.007357297176422604
-0.02131860603431767
-0.01418589773485569
-0.01258417707054611
-0.03275980691007695
-0.02438979828636651
-0.01449876415051184
-0.01502446810828717
-1.083139194805577
-0.005823975900582687
-0.01365556188248705
-0.01849197583310059
-0.02030466799072127
0.001557021134613498
-0.01420428766643999
-0.02791029547433551
-0.1633770881880257
-0.01357507146139607
-0.0222766745961585
-0.01377241976282149
0.001033369244533967
-0.1795960692231492
-0.01334996378489237
-0.1411010582304314
-0.01611350753006569
0.00827042318263156
-0.01463912852190278
-0.02300107877694155
-0.01557739483532021
0.004948556007596031
-0.2793615719518293
-0.02538894183001194
-0.01591065657739683
-0.003045868581272659
-0.009260768084986402
-0.03064488596243013
-0.01441877109634724
-0.02029277475262168
-0.02142744205393817
0.01324684617146559
-0.1012296394434948
-0.02218791756826322
0.009165390345540611
-0.05073807276652393
0.1578014501031091
-0.102586332367272
-0.3218686187830264
-0.03075216859687448
-0.02532578151116431
0.1490309057264234
0.08311187018870991
-0.003293414296631106
0.04924520608912399
-0.01567729710419523
-0.01470267437157382
0.002197669101409748
0.01204248246757991
-0.06721330985746878
-0.00580554190856963
-0.05775473541044022
-0.02208751347431161
-0.01572107634713545
-0.03653187992530175
-0.03291461455551461
-0.006636683705391304
-0.01506016559073606
-0.03938480218445951
0.03780993979134298
-0.03889982988760697
-0.01357501874241483
-0.1159382545334162
-0.03209741491632484
-0.03837018623586343
-0.6785196561601728
0.01944369031595002
-0.01089019597149317
-0.005374327446008759
0.1589162187817264
-0.08319151506808917
-0.03484278550918183
-0.247590255888888
-0.01673520451330897
-0.01664209268417923
0.06183124386290732
-0.185203103708607
-0.2274118307208889
-0.1990112643452895
-0.6877405079427373
0.004130202887826274
-0.01862406997836863
-0.01681494568103132
-0.07782504378510176
0.1176778350854962
-0.02097328492412474
-0.2439127941034019
-0.03481570613072308
-0.006415728819805564
0.2772739606684847
-0.01132276554104468
-0.09405006324927771
-0.1484941717752324
-0.004494624420619073
-0.04025889064843737
-0.04852866749021539
-0.2068931009477399
-0.008874696591508023
-0.04235173641472254
-0.002433114952821835
-0.551992955150309
-0.20039886641398
-0.1753062341999714
-0.02261740124956796
-0.006758925266353426
-0.05970866390125311
-0.05841041046918336
-0.01452598994041735
-0.06728594901473713
0.002997819280353036
-0.01843139626319472
-0.09490025366847447
-0.2661519996583432
-0.007378387396809562
-0.02645998433608394
-0.02215776572041627
-0.07394915815841444
-0.09134740204239231
-0.08752353419058455
-0.0117373059782696
-0.9291089462850879
0.1606006222631174
-0.07918552842142487
-0.2575701411675598
-0.04271127520617505
-0.01051250633266569
-0.2525576598793264
-0.1831571090396288
-0.03342725007499608
-0.1283994838023648
-0.01914234920488561
0.5627999327157893
-0.02371637854283153
-0.2303433195324895
-0.02627147618401514
-0.005627757899754585
-0.01200151885223589
-1.254885640575471
-0.1833536543892335
-0.2343892254327525
0.005401544763220099
-0.03703583111483728
-0.2541423340118459
-0.06516933074676268
-0.05077298598194101
-0.14155621907983
-0.1919271559881007
-0.06751129088478416
-1.231775850318033
-0.1422100349424043
-0.5176936937371732
0.07829791085335443
-0.006926827689826992
-0.02206398259091447
-0.04231027174102864
-0.04088401924452862
-0.02891978302996791
-0.1316000052308336
0.07971631893913181
-0.002552668670959031
-0.009758493500170943
-0.5823054778387179
-0.8659803666238443
-0.1867929657158208
-0.008274254186934346
-0.1386523940671521
0.001141200257630727
-0.0006006478057205847
-0.001764790407995571
-0.05986155934735613
-0.239641699635071
-0.01341441471670525
-0.1251038118203269
-0.1552459570772382
-0.01324411476324752
-0.03604329126247973
0.02168198023899184
-0.05707046561985261
-0.06939369402365561
-0.5044455639959379
-0.2389730832297646
-0.08104613807827199
-0.07216461400695025
-0.01998734194034362
-0.1241943409550433
-0.1519448157454085
-0.07439622826933996
0.02343335269548739
-0.08402752459323863
-0.04775544608635334
-0.01490001960077937
-0.1065125436461652
-0.2712787319524396
-0.05643330831124358
-0.01855984874244005
0.0002091188406734454
-0.01000229373210251
-0.01118600355167486
-0.2159799879687318
-0.01523144803131903
-0.2229833482687485
-0.01034276366185282
-0.06614088596541447
-0.003791496986234928
-0.02319407685956169
-0.376153630244761
-0.9065891153200601
-0.01134327591976402
-1.050602098446429
-0.6153498134068008
-0.01067829890890937
-0.6551816645382412
-0.1755064426842222
-0.005876775000432944
-0.1313445706701606
-0.01694947456524875
-0.121245046025378
-0.06766340643274843
-0.07685190431752337
-0.005087711908842695
-0.002482837593967374
-1.33543999894264
-0.01114219532585341
-0.1837574046839826
0.0004856794453967567
-1.013402225616572
-1.230804388422978
-0.08195144046149884
0.02003282615721821
0.1643173743316262
-0.004644854239792906
-0.02304720716814598
-0.004199245260063149
-0.2541944014426075
0.3662327940710615
-0.04066241552275739
-0.2099295697902051
-0.01486791008810797
-0.6568643160643979
-0.07540713481079689
0.1912977948220002
-0.2824631033438857
-0.0495943831829604
-0.06848390529841006
-0.01588834938564426
-0.02177452141957897
-0.5730459923578991
-0.1438617340105704
-0.08517057306825929
-0.1290696045764578
-0.5572639878336642
-0.04395397754346805
-0.9096540984001371
4.375288729756182e-05
-0.2368791758021474
-1.047108618216702
0.1684909942919615
0.2921127399788488
-0.1843358980504564
-0.1936267932045247
-0.2069120245169552
-0.06833885588698019
0.02245485785345746
0.0490947746846975
0.0036995002200047
-0.1676952970228072
0.02545712944747978
-1.353557905039863
-0.08478815854041859
-0.4719427342119101
-0.3292399281427545
-0.2023811154658925
-0.1755140402050553
-0.01690512558457785
-0.01547070526600242
-0.1076530179293147
0.1709432144285379
0.3857039316431229
-0.2159012453599526
-0.1389736821104686
-0.2385346835497316
-0.06223439364721346
-0.1493127574869959
-0.1619344159390928
-0.1252084869686793
-0.1238006591721161
0.4664526467651905
-0.2675773139814052
0.4309740944169828
-0.6012272946423437
0.07037569076572911
-0.2053973532384264
-0.06578021753127802
-0.07371256617598144
-0.8758750230749536
-0.221206048897649
-0.1895841028657983
-0.3452962348216864
-0.4560773977184335
0.5707056268141473
-0.2062241299842958
-6.383145144264346e-05
-0.07106254565200318
0.3435223292279814
-0.0378413010456622
-0.1317419808839029
-0.1785698614694216
-0.06346628117034339
-0.01654733348552455
-0.1940762725100827
0.1934558459754408
-0.01284951425105558
-0.09578292469924757
-0.1679490837474926
-0.3140917328468439
-0.3142895895337685
-0.0635916588049482
-0.01032723069380825
-0.07793788890209428
-0.6560190728818307
-0.6683037483594784
-0.3398080753277085
-0.05738911703970646
-0.05225289960623342
-0.02556587710092616
-0.06716989352222315
-0.0582089655552768
-0.3572154156989515
-0.9553289286053445
-0.01041553916500578
-0.08248715393391215
-1.135373018388609
-1.029290725637623
-0.1042874986237853
-0.03813627713702591
-0.07028698049060972
0.3907424465136914
-0.3451899194929273
-0.05029988890169252
-0.5967621335775047
-0.1214207362339076
-0.2539281978675584
-0.2093904112762894
0.4742991860260309
-0.6257707656393257
0.07306658595375333
-0.02967103753428424
-0.5557128487754345
-0.05106112942410563
-0.3601656146438957
0.1066582343079775
-0.1893527251769921
-0.05947734652191242
-0.1390415136710157
-0.3631307569642309
-0.08851358753289942
0.514308124539999
0.08514766801895615
0.471074925986937
-0.1039574890641172
-0.1988259547352736
-0.5239683389973584
-0.1300917769872577
0.02723616814694604
-0.05315235141222227
0.1030692045245723
-0.3080539865609386
0.2362294517970907
0.00888651360626054
-0.003313058537704975
-0.5147986316720856
-0.1863274008129217
-0.08167105039804756
0.5815430520565671
0.1382843250100695
0.3459393019840925
0.2258710099662777
-0.5597749769316234
-0.2028502820816709
-0.2217060056901018
-0.2360538726859994
-0.05992543723851419
-0.6962096654958551
-0.1945184023465705
0.3063706146432144
-0.2014245391889156
-0.01120619807035452
-0.1727776543464646
-0.009089591672102352
-0.1560594466498449
-0.4328496735054819
-0.07668202325346068
-0.1975013500272385
-0.07095326514053381
-0.0870782643744505
-0.1466678045300403
-0.07338812663188453
-0.4567772316750384
-0.4162071224319145
-0.02646364391385728
-0.07390489180634956
0.3270695970702227
-0.2456666102392249
-0.1859063129298015
0.5255983062827709
-0.2090600592442197
0.01757521353610218
-0.4476386518695674
0.04652712640223453
-0.06247024256850927
-0.1474649180419134
-0.5805228159747982
0.1618994924567184
-0.5822792478502737
-0.5322283235064597
-0.1062266993524985
-0.5055140788255076
-0.03751416578252073
-0.1386951893632989
-0.4086633437786313
-0.01633061522945825
0.2864338599898099
0.4895337730185726
-0.1575411314908408
-0.008500016522130305
-0.07380533119767731
0.5253780447896134
-0.03356610964757523
-0.4368946561713964
-0.03290463067865052
0.4605459180215848
-0.01439870527591094
-0.541162719665128
-0.2465601009139964
0.1757048552801118
-0.3085971049152848
-0.1776472261393899
0.05179660216865989
0.03401693110403065
0.05401005178864343
-0.2973865835811642
-0.1575110304855109
0.4127794711101897
)
;

boundaryField
{
    FrontBack
    {
        type            empty;
    }
    Top
    {
        type            zeroGradient;
    }
    In
    {
        type            zeroGradient;
    }
    Bottom
    {
        type            zeroGradient;
    }
    Out
    {
        type            fixedValue;
        value           uniform 0;
    }
    circle
    {
        type            zeroGradient;
    }
}


// ************************************************************************* //
