/*--------------------------------*- C++ -*----------------------------------*\
| =========                 |                                                 |
| \\      /  F ield         | OpenFOAM: The Open Source CFD Toolbox           |
|  \\    /   O peration     | Version:  2412                                  |
|   \\  /    A nd           | Website:  www.openfoam.com                      |
|    \\/     M anipulation  |                                                 |
\*---------------------------------------------------------------------------*/
FoamFile
{
    version     2.0;
    format      ascii;
    arch        "LSB;label=32;scalar=64";
    class       volVectorField;
    location    "23.8";
    object      U;
}
// * * * * * * * * * * * * * * * * * * * * * * * * * * * * * * * * * * * * * //

dimensions      [0 1 -1 0 0 0 0];

internalField   nonuniform List<vector> 
808
(
(0.89565 -0.0100539 0)
(1.02059 -0.0352663 0)
(1.23963 0.00189178 0)
(1.06795 0.00926314 -2.61602e-21)
(1.467 -0.288399 0)
(0.960997 -0.0300642 0)
(1.13996 -0.0413133 -2.29838e-21)
(1.1221 -0.0320653 0)
(1.3387 -0.227141 2.06729e-20)
(1.22741 -0.0960792 -3.00659e-21)
(1.26599 -0.0738189 4.17654e-21)
(1.36855 -0.255149 0)
(0.98868 -0.0344936 0)
(0.745786 -0.0204777 0)
(0.988664 0.0450329 1.99748e-20)
(1.08346 -0.0238547 0)
(0.882906 0.0503788 -6.78717e-21)
(0.986118 -0.0261179 -9.54869e-23)
(1.28493 0.0305724 0)
(1.12295 -0.00232419 0)
(1.27864 -0.0619833 -5.8287e-21)
(0.927985 0.125691 1.12398e-19)
(1.07469 0.0112354 -1.29976e-20)
(1.17836 -0.0483531 0)
(0.955488 0.190061 0)
(1.33108 0.0397454 -3.29676e-20)
(1.27299 -0.179843 3.87182e-21)
(0.968033 -0.0360024 -4.01958e-21)
(1.08621 -0.027801 0)
(1.05041 0.0405949 -2.25268e-22)
(0.990855 -0.0347089 4.95644e-24)
(1.12678 -0.0211276 0)
(1.04572 0.0489902 0)
(1.08446 -0.0397412 3.35816e-21)
(1.29598 -0.0895379 6.0282e-21)
(0.742457 -0.108222 1.13457e-19)
(0.875459 -0.0260117 -5.84638e-21)
(1.03404 0.0473512 8.57111e-22)
(1.18798 0.0475582 -2.36573e-21)
(1.08754 0.0406806 0)
(1.25767 -0.0838113 -1.1028e-20)
(1.27083 -0.140197 0)
(1.00703 -0.00353007 -7.31664e-21)
(1.14016 -0.0445032 5.93558e-21)
(1.22577 -0.0990359 0)
(1.01173 0.0176085 -1.95189e-20)
(1.00468 0.0401011 1.69514e-21)
(1.24638 -0.250558 -2.71047e-21)
(1.17477 0.0548295 -4.26407e-21)
(1.39157 -0.185428 -2.9864e-20)
(1.13707 -0.0363483 4.24037e-21)
(1.1485 -0.0746137 0)
(1.1197 -0.002362 6.53785e-21)
(1.16377 -0.0398805 0)
(1.3282 0.229856 4.41758e-21)
(1.07296 0.0486409 -1.63387e-21)
(1.2329 -0.0443879 0)
(1.21527 -0.123136 1.92782e-21)
(1.23031 -0.102349 3.22737e-21)
(1.15118 0.0353258 -3.20674e-23)
(-0.173209 -0.00127523 0)
(1.21191 -0.213265 -3.18145e-21)
(1.1855 -0.0910082 0)
(1.40994 -0.112893 -2.27646e-20)
(1.15409 -0.0593477 -6.43051e-21)
(1.04071 -0.0286666 -7.43099e-21)
(1.30812 -0.123737 2.22382e-20)
(0.643982 0.0168305 0)
(1.17219 -0.0634559 0)
(1.42879 -0.349648 0)
(0.895237 0.0277276 -1.78856e-22)
(1.23038 -0.140838 -3.7287e-20)
(1.00689 0.0406061 0)
(1.05746 -0.0502181 -3.28239e-21)
(1.1172 -0.331829 -6.0374e-20)
(1.14486 -0.0433158 -7.67033e-21)
(1.15516 0.0191665 2.86329e-22)
(1.3259 0.500624 2.50677e-20)
(1.10962 -0.0393088 0)
(1.01565 0.287164 -1.85805e-19)
(1.35782 0.0125203 1.77175e-20)
(0.750701 0.0184099 0)
(0.846731 0.0350004 -9.17766e-21)
(0.968318 -0.107934 4.47657e-21)
(1.13921 -0.0433973 5.88733e-21)
(1.20025 0.00338028 1.2808e-21)
(1.27348 -0.233236 0)
(1.35221 0.289016 0)
(1.09351 -0.00300661 -1.39581e-20)
(1.42898 0.0821214 3.6202e-20)
(1.08214 -0.0231525 1.40996e-20)
(1.31169 -0.130696 -1.15694e-21)
(0.964826 0.0263177 1.73368e-20)
(1.00403 -0.0242775 0)
(1.11385 0.0149145 1.46328e-21)
(1.22734 -0.0864187 -5.35989e-20)
(0.750164 0.0218187 -1.78931e-21)
(1.35183 -0.0624266 0)
(1.31662 -0.104353 0)
(1.39929 -0.0949511 -3.6348e-20)
(1.1152 -0.0386284 -2.72875e-21)
(1.13226 0.00372066 -6.5768e-23)
(0.952182 0.0228125 1.16991e-20)
(1.19397 -0.00988337 -3.36633e-22)
(1.32984 -0.00257672 -1.86233e-20)
(1.00194 0.00565525 1.28349e-20)
(1.465 -0.0789208 0)
(0.848558 0.115474 0)
(1.10024 0.0336166 3.63752e-21)
(1.19636 -0.220331 -9.1475e-21)
(1.28791 -0.0174891 1.06288e-20)
(1.0487 0.0483336 -1.23997e-19)
(1.16162 0.0408438 -1.46667e-21)
(1.16585 0.147006 5.27174e-21)
(0.788831 0.0214473 0)
(0.9174 -0.0446482 7.77379e-20)
(1.15042 0.0205667 -4.95815e-21)
(1.42017 -0.259991 -1.5479e-20)
(1.13501 -0.0551019 -5.81242e-21)
(0.930459 0.014459 2.56167e-21)
(-0.29388 -0.0267224 0)
(0.858297 -0.0180388 2.06082e-21)
(0.803256 0.0241881 0)
(1.0635 0.000465483 -9.87644e-23)
(1.01294 0.0288578 0)
(1.31678 0.322163 6.96055e-21)
(1.03371 -0.0544865 -3.39186e-20)
(1.30608 0.181762 1.7511e-21)
(1.14727 -0.069826 0)
(1.09261 -0.0234829 0)
(0.563831 0.0107939 0)
(1.13503 -0.0400528 -3.03266e-21)
(1.24975 -0.0594285 6.12872e-21)
(1.06889 0.113121 -3.36338e-20)
(0.84399 -0.0245379 0)
(1.10762 0.0224897 -1.12431e-21)
(1.01063 -0.0700245 3.89745e-21)
(1.14685 -0.0154298 -2.2164e-21)
(0.993836 0.0351389 3.14103e-21)
(1.1346 0.00276529 5.51357e-23)
(0.0108711 0.092681 0)
(1.0957 -0.0268694 -1.56919e-20)
(1.11714 -0.045288 1.05808e-21)
(0.716838 0.0249956 -2.73935e-21)
(1.26607 0.172664 3.16711e-21)
(0.974802 0.0726433 6.05723e-21)
(1.0467 0.0168353 1.781e-20)
(0.990254 0.0259837 0)
(1.13221 -0.158121 -9.72192e-21)
(1.00814 0.0760238 0)
(0.940942 0.0306588 5.67314e-21)
(0.969196 0.285926 1.48645e-19)
(0.973217 0.0361329 0)
(0.818431 0.105362 0)
(-0.0920664 0.094384 -6.70053e-20)
(1.34948 0.13519 -1.26732e-20)
(0.688836 -0.0229292 0)
(1.48014 0.0129151 0)
(1.11784 -0.0990829 0)
(1.36439 0.0843749 1.48156e-20)
(-0.0407309 -0.0575987 0)
(-0.0502912 0.11483 3.20848e-20)
(0.971301 -0.0380492 7.09953e-20)
(1.00918 0.03994 8.95468e-22)
(0.858802 -0.000169654 0)
(1.03439 -0.0475618 8.65112e-21)
(0.89436 0.0221271 0)
(0.699917 -0.0135915 -7.67382e-20)
(1.02725 0.0479893 7.40716e-21)
(1.14068 -0.054455 2.13776e-21)
(1.09706 0.00823754 6.63921e-21)
(1.01507 0.0711347 -1.19376e-20)
(0.651275 0.0403881 -6.03047e-21)
(1.13266 -0.347601 7.30902e-22)
(0.918657 -0.0242618 0)
(1.06922 -0.000772906 -1.46798e-20)
(0.873198 0.0100919 -1.06311e-20)
(1.36632 -0.172578 1.75656e-21)
(0.689941 0.0230481 0)
(1.03748 -0.140232 0)
(1.11601 -0.0606151 2.32913e-21)
(1.39603 0.217728 1.00697e-20)
(1.11887 0.0152978 4.73739e-21)
(1.03655 0.0163494 2.04143e-20)
(0.774986 0.0469823 -8.50569e-20)
(0.813337 0.00393114 1.93594e-20)
(1.1354 -0.0173687 3.93886e-21)
(1.37457 -0.093864 -4.01615e-21)
(1.1125 -0.0579814 -4.63531e-21)
(1.31303 -0.0634102 3.44135e-21)
(-0.0970326 0.114031 4.89116e-20)
(1.27581 -0.0538489 0)
(0.615196 -0.0206762 0)
(1.06067 -0.0297825 -7.34142e-21)
(1.10306 0.0096123 6.19188e-21)
(0.0772496 0.108258 0)
(0.877654 -0.0237255 3.59909e-22)
(1.10789 -0.0557758 -2.68779e-21)
(0.958336 0.0219082 6.51738e-22)
(1.07932 0.0377459 -7.33366e-21)
(1.00622 0.0203604 2.73989e-21)
(1.03748 -0.0499596 2.37097e-21)
(1.05566 0.0352125 0)
(0.337143 -0.031323 0)
(1.04887 -0.0629388 0)
(1.15147 0.110899 -2.81507e-20)
(-0.0476225 -0.0456915 4.33901e-20)
(1.07636 0.0255455 -8.32075e-24)
(1.20231 0.0800227 0)
(0.754861 0.0217878 -5.70161e-21)
(1.17208 -0.0247168 8.02667e-22)
(-0.00218648 -0.0382685 -1.42026e-19)
(0.717282 0.0152457 -3.62187e-20)
(0.634798 -0.0210561 0)
(0.965703 -0.0224727 0)
(0.93506 0.0318866 6.94012e-21)
(1.00527 -0.105999 5.40016e-21)
(1.28294 0.399824 -1.28517e-21)
(1.12738 -0.0709885 8.24545e-23)
(1.14273 -0.10414 -4.88579e-21)
(0.995403 -0.00294901 0)
(1.36633 0.426303 -3.65515e-20)
(0.658694 -0.0170009 0)
(0.79725 -0.0231009 -3.61968e-21)
(1.0575 -0.0290105 2.59858e-22)
(0.590177 0.0164674 0)
(1.10029 -0.00621027 0)
(0.00545992 0.0454532 -3.38822e-20)
(1.12575 -0.130931 -6.66994e-21)
(0.719907 -0.0171599 2.65823e-21)
(0.990284 -0.0030622 0)
(0.556655 -0.0169399 0)
(0.754745 -0.0195025 -3.55374e-21)
(0.536366 -0.0209508 -8.40362e-22)
(1.34106 0.0182215 3.2034e-22)
(1.30366 0.113627 -1.50175e-21)
(0.692576 0.0186555 -1.32981e-21)
(1.13521 -0.0424008 1.76121e-22)
(1.18554 -0.105054 -7.77005e-23)
(0.540963 0.0162981 3.54838e-21)
(1.23412 -0.0766928 5.1088e-23)
(1.18722 -0.0754125 0)
(0.908613 -0.0993419 0)
(0.489618 0.0185297 0)
(1.03829 -0.0263828 0)
(1.19615 0.00719064 -1.51608e-21)
(1.05699 -0.089275 0)
(1.15612 -0.0469394 0)
(0.989792 -0.0740683 0)
(1.03997 -0.0312999 0)
(-0.0229913 -0.0343395 4.29809e-20)
(1.23383 -0.0234253 7.91442e-22)
(1.01427 -0.0522727 0)
(1.34479 -0.0270166 1.41014e-20)
(1.16396 0.00293631 1.10037e-21)
(1.11754 0.0538359 2.33949e-22)
(1.13631 -0.00706432 5.05222e-21)
(1.1601 -0.0291981 0)
(0.577351 -0.0166899 7.32265e-21)
(1.05265 0.0437877 1.16105e-20)
(1.21226 -0.0709856 0)
(1.25017 -0.025712 -7.81105e-22)
(1.1681 0.0329444 2.21361e-21)
(0.705993 0.228327 2.38815e-21)
(1.1525 0.032876 3.07461e-21)
(1.20732 0.0388531 -5.35511e-21)
(1.0545 0.114665 0)
(1.13231 0.0532182 -2.0017e-20)
(1.13882 0.0867386 -3.16231e-21)
(0.632933 -0.189396 4.91066e-21)
(0.909464 0.0788501 0)
(-0.0135399 -0.0210488 0)
(0.974884 0.11479 -1.78485e-20)
(1.16907 -0.0241637 0)
(1.25873 -0.0765213 1.76714e-20)
(1.18239 0.0599081 5.75293e-22)
(1.20556 0.00594297 5.14834e-21)
(1.12842 0.0632502 -1.94334e-21)
(1.32837 -0.0467183 7.67985e-20)
(1.01422 -0.320386 6.095e-20)
(1.10542 -0.0311451 -4.88618e-22)
(1.0022 0.0206939 0)
(0.924569 0.15054 0)
(0.906383 0.00252007 -3.02263e-20)
(1.26774 -0.166259 -4.88646e-20)
(1.16739 0.0372979 0)
(0.527824 -0.104416 1.56084e-20)
(0.374872 0.253123 0)
(0.671573 0.0540946 7.82499e-21)
(0.736886 -0.113932 -1.84014e-20)
(0.822137 0.0262194 -4.32442e-21)
(1.13366 -0.0163206 0)
(1.2975 0.123674 -6.71084e-22)
(1.18932 0.127314 1.60774e-21)
(0.651636 -0.100957 -9.18499e-21)
(1.15515 0.0338081 -4.48046e-21)
(0.77908 -0.0789329 0)
(1.09276 0.0703055 0)
(1.02557 -0.0365437 1.14722e-20)
(0.755473 -0.0472487 -7.90459e-21)
(1.28077 0.054099 4.91942e-21)
(1.13301 -0.00816716 -4.18914e-21)
(1.05555 0.114395 2.13742e-22)
(1.13473 -0.0117869 0)
(0.412689 -0.137155 1.29812e-20)
(1.34525 0.0793818 -2.21416e-20)
(0.864556 -0.110443 -5.65153e-21)
(0.146367 0.10552 -2.52509e-21)
(1.40862 -0.150335 2.05718e-20)
(0.957402 -0.0387698 7.90736e-20)
(1.18519 0.0170468 -1.17133e-20)
(1.09998 -0.0213969 -4.14634e-22)
(-0.0693451 -0.0354775 -7.41574e-21)
(1.00074 -0.00718144 0)
(1.03339 -0.0852886 -1.66666e-20)
(0.851365 -0.0344497 6.46115e-21)
(1.11083 -0.055117 3.89888e-21)
(0.746374 -0.147828 3.10891e-22)
(0.503581 -0.021223 4.49299e-23)
(1.40625 -0.383378 -1.52708e-20)
(1.14136 0.029234 0)
(1.02238 0.0204324 -1.14947e-21)
(1.14337 0.0318801 -2.1815e-21)
(1.22379 0.0642844 0)
(0.681577 0.135099 -8.61542e-21)
(1.13261 0.0287764 3.08288e-21)
(0.668907 -0.179034 1.70891e-20)
(1.14432 -0.0370286 2.43635e-21)
(0.832344 0.0783778 5.54626e-21)
(-0.038346 0.0257327 0)
(0.606988 0.130312 3.88011e-20)
(1.17563 0.0331014 0)
(1.04681 0.229807 2.14118e-20)
(0.970326 0.262149 0)
(1.12841 -0.010354 1.64117e-21)
(1.01612 0.0268316 0)
(1.00238 0.0740565 0)
(1.38292 -0.128198 1.69305e-20)
(0.794122 -0.0816991 0)
(1.21262 -0.1318 5.29642e-21)
(1.12429 -0.0312688 1.97434e-22)
(1.06504 0.0306531 2.62151e-21)
(1.26862 -0.0967205 -1.16778e-20)
(1.2477 0.117474 -5.42176e-21)
(1.28145 -0.130907 9.35463e-21)
(1.1623 0.0134561 0)
(1.17014 -0.0316256 0)
(1.10447 0.0250145 2.30796e-21)
(1.22108 -0.0331834 0)
(1.41794 0.217168 -2.58119e-20)
(0.805708 -0.137378 -2.81923e-21)
(1.02717 0.0161081 2.12e-20)
(1.28592 -0.00659863 -2.77096e-22)
(-0.0127209 0.0221174 0)
(-0.0292883 -0.0463075 0)
(-0.00412752 0.106364 -3.47134e-20)
(-0.0726389 -0.0420076 0)
(0.697386 -0.112046 -5.52471e-21)
(1.17167 0.0376362 -1.90057e-21)
(1.17244 -0.0211941 -4.4728e-21)
(1.20278 -0.0529757 -3.96117e-21)
(1.19057 -0.0442197 0)
(0.67691 -0.0194973 -1.85388e-21)
(1.1283 0.0330911 0)
(1.1228 0.0149387 1.24852e-21)
(0.501652 -0.108258 0)
(0.808709 -0.0483578 -2.51887e-23)
(1.10053 0.0547348 0)
(1.15784 0.0410079 0)
(0.567608 -0.00459066 2.9596e-20)
(0.57457 0.0838578 -1.35908e-21)
(0.789788 0.0124679 4.06461e-21)
(1.01131 0.0179588 -1.00493e-20)
(0.164719 -0.0479509 0)
(1.2613 -0.153215 -8.36101e-21)
(1.25857 0.0869008 -6.65082e-21)
(1.19233 -0.160051 -3.02419e-22)
(0.676189 0.0955923 3.42795e-21)
(-0.0548438 0.00274076 -9.05754e-20)
(1.13279 0.0891536 0)
(-0.0336599 0.0414735 0)
(1.18478 0.114542 7.52736e-22)
(0.34995 0.261641 -3.68877e-21)
(1.15692 0.0573509 -6.75606e-21)
(1.11355 -0.0378518 0)
(1.19978 -0.0494846 3.54629e-21)
(1.17679 -0.18536 9.28396e-21)
(0.539951 -0.0414003 -8.9405e-21)
(1.13934 -0.0321013 -9.43705e-22)
(1.17093 -0.0325964 -2.42204e-22)
(-0.0179433 -0.19526 1.42299e-20)
(1.24626 -0.0149222 -1.12587e-20)
(1.14956 0.0364129 0)
(1.13159 0.0788997 0)
(1.17156 -0.0422566 1.8671e-21)
(1.20495 0.082936 6.01063e-21)
(0.581192 -0.210621 -2.86834e-20)
(1.18927 -0.123008 -1.88282e-20)
(1.13017 0.0608678 2.26535e-21)
(0.517341 -0.000469952 1.13381e-20)
(0.122935 -0.0361856 -5.69502e-20)
(0.0850544 -0.390432 2.302e-20)
(1.17615 0.187624 -6.63689e-21)
(1.22705 -0.490892 4.06524e-21)
(1.40938 0.0300282 -1.28444e-20)
(1.18587 -0.0420262 -2.21264e-21)
(0.933182 -0.228852 9.65762e-20)
(-0.355501 -0.224128 0)
(1.21356 -0.065243 -6.55841e-23)
(0.102202 0.0105927 -2.13055e-20)
(1.16599 0.119108 -6.51358e-22)
(1.14892 -0.0738238 6.79507e-21)
(1.09121 0.0361645 0)
(0.475569 0.104672 0)
(1.17322 -0.0577619 0)
(1.33992 0.222254 -1.01352e-20)
(1.26965 -0.0356596 -2.13867e-20)
(1.1446 -0.0388511 -1.19786e-22)
(0.454149 0.0170912 0)
(0.604729 0.0112732 0)
(0.602965 -0.00329617 5.68634e-22)
(0.421472 -0.0131466 0)
(1.18451 0.0848386 0)
(1.02026 -0.0145037 2.67026e-20)
(0.0661467 0.182989 0)
(0.916197 0.0401057 0)
(1.14999 -0.0218331 0)
(1.17623 0.183329 -6.59086e-21)
(1.28792 0.0300021 1.10271e-20)
(0.965519 -0.0298639 6.29474e-21)
(1.28423 -0.398169 -1.02343e-19)
(0.398393 -0.0579408 -6.0496e-21)
(1.18204 0.0172069 7.08339e-21)
(1.2275 0.0169826 0)
(-0.287964 -0.25732 0)
(-0.241366 0.109107 0)
(1.15451 -0.0335173 -2.73251e-21)
(1.31286 -0.290141 -1.76947e-20)
(1.38074 0.103628 0)
(1.08426 0.0328579 -7.54861e-21)
(0.492611 -0.145274 0)
(1.49509 -0.17139 6.33778e-20)
(0.414668 0.524825 1.13854e-19)
(0.278984 -0.0347386 0)
(1.09181 -0.275279 1.09852e-19)
(0.07838 -0.170619 0)
(-0.250157 -0.213308 -6.30107e-21)
(1.40446 0.0834914 0)
(-0.151874 0.0344631 1.55541e-21)
(0.983632 -0.0502483 0)
(1.22026 -0.0771374 -6.6316e-21)
(-0.145026 0.0508596 -7.2141e-21)
(1.12196 -0.0300601 8.61141e-22)
(1.21196 -0.0478551 -2.04807e-21)
(0.569012 -0.505946 -9.40225e-20)
(1.11328 0.0128381 -1.72758e-21)
(1.19037 -0.131227 5.74603e-21)
(1.1849 0.251273 -2.05106e-20)
(1.13995 -0.114805 5.12903e-21)
(1.15511 -0.0200959 -3.88312e-22)
(-0.021992 -0.128937 -7.03033e-20)
(0.0769818 0.128173 -7.29122e-21)
(1.21604 0.0992152 3.38191e-21)
(1.05923 -0.0512991 0)
(0.442157 0.122157 -8.71439e-21)
(1.39243 -0.439674 7.51855e-20)
(0.918035 -0.0653097 -5.48569e-20)
(1.44932 0.154588 7.87825e-20)
(1.09279 -0.0423748 2.86025e-21)
(1.22503 -0.014521 8.97263e-21)
(1.06115 -0.00799527 0)
(1.18702 -0.0330455 0)
(1.22173 -0.0492628 -1.14905e-22)
(1.08788 -0.0209434 -4.51426e-21)
(1.07883 -0.0872401 -4.98308e-21)
(1.09047 0.0554762 -5.42041e-21)
(1.41506 -0.0670173 -3.71102e-20)
(0.431792 0.0361411 0)
(1.19528 -0.00870062 8.70469e-21)
(1.35777 0.0379811 0)
(1.10805 0.0653714 -1.77657e-21)
(1.1448 0.0220713 0)
(1.0422 -0.009867 1.422e-20)
(1.23644 0.031975 1.52626e-20)
(1.0547 0.0740084 0)
(0.0558458 -0.0280503 1.50034e-19)
(0.881913 -0.207271 -7.57462e-20)
(1.1886 -0.0733075 -2.13619e-20)
(-0.120668 0.0416944 3.87661e-20)
(1.20618 0.0316812 3.07548e-22)
(0.679242 0.111331 1.82345e-21)
(-0.0943968 0.072098 -4.04073e-20)
(-0.0257328 0.0530228 -2.5957e-20)
(1.01839 -0.029767 0)
(-0.0293651 -0.0334967 0)
(1.21439 -0.0370405 0)
(0.111477 -0.0960929 0)
(1.11477 -0.0268941 0)
(0.142011 0.0326564 0)
(1.13017 0.0504211 0)
(1.21 0.0568571 0)
(1.37201 0.130316 -1.19294e-22)
(0.571994 -0.28312 -2.00652e-20)
(-0.115359 0.162242 0)
(1.11657 -0.0916993 5.70773e-20)
(1.239 -0.0167874 2.76249e-21)
(1.24028 -0.0515927 0)
(-0.0355459 -0.04003 0)
(1.16202 0.00731052 3.29783e-21)
(1.16693 -0.0140045 -1.76316e-21)
(1.17297 0.393337 0)
(0.240913 -0.0461157 5.65743e-20)
(1.12194 0.0570194 1.16211e-21)
(0.234236 -0.0507085 -5.07866e-20)
(-0.0613945 0.0470691 -3.08979e-20)
(-0.037178 0.0497085 8.01997e-20)
(0.402645 -0.168981 4.05802e-20)
(1.01427 0.0359222 -1.71571e-21)
(1.14517 0.070704 2.66484e-22)
(1.02362 -0.00789337 0)
(1.06943 -0.0703775 -2.32867e-20)
(1.27237 0.0379147 -1.18519e-20)
(-0.00983132 -0.00176202 9.3312e-20)
(0.977858 -0.0711479 -6.13077e-20)
(0.64804 0.189633 1.36821e-20)
(1.11551 0.0231188 -2.81688e-21)
(0.0773764 -0.0290109 3.2235e-20)
(0.247405 -0.0364386 -4.59422e-20)
(0.401555 -0.0374334 -5.12958e-20)
(1.25576 0.184332 -5.58211e-21)
(-0.0524204 -0.0333878 0)
(1.00346 0.213336 3.34407e-21)
(1.07691 -0.0124706 2.24709e-20)
(1.11112 -0.00778167 -2.16644e-20)
(1.24224 -0.0330734 0)
(1.50726 -0.228521 6.56031e-20)
(1.1359 0.0493912 -2.10017e-21)
(-0.0132147 -0.0207479 -3.13744e-20)
(0.293267 0.0994606 0)
(0.894183 0.0302471 -1.02569e-21)
(1.14225 0.020322 4.67122e-23)
(0.842427 -0.216397 1.63576e-20)
(1.16211 0.00703485 -9.48347e-22)
(1.11891 0.0496818 0)
(1.13242 -0.168743 -1.40622e-20)
(-0.106921 -0.000918104 -6.04305e-20)
(1.30784 -0.0448697 1.63181e-20)
(1.10381 0.175435 -8.80685e-21)
(1.0862 0.051755 6.19922e-21)
(-0.0398692 -0.0477955 1.4496e-20)
(-0.0244973 0.0434306 -6.17612e-20)
(0.568618 0.0384544 0)
(0.749435 0.0251103 0)
(1.15488 0.0997824 -1.60803e-20)
(1.0519 0.0692341 1.24892e-20)
(1.10587 0.016002 0)
(0.408757 0.0328009 3.49076e-20)
(0.721349 0.0944996 -1.09381e-20)
(1.1004 0.110733 0)
(1.08394 0.0364233 0)
(1.34488 0.0506182 0)
(1.25182 0.0403612 0)
(1.15382 -0.0258507 3.38256e-21)
(-0.0428496 0.0446502 3.37468e-20)
(1.25351 0.073716 2.82223e-21)
(1.39016 -0.18827 -7.36682e-20)
(1.23538 -0.0218245 -5.57659e-21)
(0.0692997 0.0653295 0)
(1.15334 0.0464152 0)
(0.610948 -0.0135467 -1.34684e-22)
(0.530967 0.00993239 -5.73688e-20)
(0.0679202 0.0372721 4.67677e-20)
(0.926464 0.0225456 1.14767e-21)
(0.738104 -0.270477 0)
(0.674225 -0.0887688 0)
(1.22254 -0.0279817 0)
(0.543067 0.517952 2.17101e-20)
(-0.0174943 0.0386046 -2.89802e-20)
(1.0489 -0.019131 -4.68381e-21)
(-0.0201207 -0.0193899 5.94093e-20)
(1.10719 -0.0523709 2.57875e-21)
(1.17873 0.318192 3.91193e-20)
(1.11085 -0.0905852 9.45897e-21)
(0.358404 -0.0583682 9.1663e-20)
(1.04749 0.124359 4.16434e-21)
(1.13562 -0.0234413 0)
(0.559428 0.272388 0)
(0.891314 0.106282 4.01496e-21)
(-0.20738 0.118908 0)
(0.609645 0.0286235 2.11652e-21)
(0.59875 -0.413147 -2.76834e-21)
(0.235891 0.0497442 -1.10459e-19)
(1.12257 -0.225102 3.6292e-20)
(1.04206 0.370434 1.02221e-20)
(0.979625 0.0220744 0)
(1.26671 -0.084376 -1.5468e-23)
(0.630798 0.0148888 0)
(0.981615 -0.0192432 -7.02993e-22)
(0.435948 -0.0159188 0)
(0.712549 0.138318 0)
(1.00032 -0.0219851 -3.40105e-21)
(1.44129 0.174991 -1.45395e-20)
(1.08729 -0.043844 3.83546e-21)
(0.517706 -0.486275 0)
(1.13171 -0.155604 3.21908e-21)
(0.806924 0.386456 7.10167e-20)
(-0.0425086 0.0200897 1.1286e-21)
(1.21762 -0.0295147 1.07148e-20)
(1.21745 0.0275421 -1.16794e-20)
(1.13472 -0.0764432 7.48445e-22)
(0.791211 0.0126202 -3.67075e-21)
(0.0584688 0.019271 3.60917e-20)
(-0.0185029 0.017854 -5.24379e-20)
(-0.207095 0.1103 0)
(-0.169829 0.220407 0)
(1.17665 -0.6101 2.99744e-20)
(1.1474 -0.0254643 3.7891e-22)
(0.881164 -0.460941 -3.93544e-20)
(1.06909 0.213211 -8.58078e-21)
(1.3709 0.202278 3.34005e-20)
(0.605909 0.423101 0)
(0.248236 0.421973 -1.14662e-19)
(0.59874 0.491513 0)
(0.0694511 0.0994609 0)
(1.11519 -0.474049 0)
(-0.0475524 0.0764517 -2.86608e-22)
(1.20086 -0.0278061 0)
(0.909415 0.0684676 -3.36428e-20)
(0.599449 0.701026 2.06724e-20)
(1.35887 0.164283 1.57906e-20)
(-0.0399167 -0.0551134 -1.02377e-19)
(0.786955 0.16328 -3.76341e-20)
(0.450627 0.144903 -1.33282e-20)
(1.20803 0.0896317 0)
(1.36589 0.359893 3.42239e-20)
(1.2282 0.57246 6.91851e-21)
(0.151789 -0.0132102 -2.12467e-20)
(1.00412 0.141495 3.11626e-20)
(0.932767 -0.027584 5.3045e-22)
(0.903259 0.0241123 -2.37835e-22)
(0.000157156 -0.0251205 0)
(0.640778 -0.641944 -3.17857e-20)
(0.614141 0.211299 0)
(0.0375747 -0.0537995 0)
(-0.0491725 0.0664022 0)
(-0.024087 -0.0465525 -3.85482e-20)
(1.23826 -0.00837975 -1.23163e-20)
(-0.0277017 0.0737306 0)
(-0.0349413 0.0700813 0)
(1.45208 0.119334 -7.58624e-20)
(-0.0359962 -0.0589072 4.6447e-20)
(0.115832 0.240933 -1.01211e-19)
(0.38008 0.0192545 0)
(0.167702 -0.269388 8.29995e-20)
(1.07906 -0.236973 0)
(0.991682 -0.279962 0)
(-0.0108532 -0.0501241 9.6231e-20)
(1.15022 0.0342585 -6.55666e-23)
(1.12917 0.348601 2.85279e-20)
(0.257313 0.0288939 4.53289e-20)
(0.399521 -0.510016 -4.08993e-20)
(1.30364 0.0781949 0)
(1.21944 0.201397 2.1445e-20)
(1.22073 0.214972 -2.63428e-20)
(0.102976 0.0973258 -2.35834e-20)
(-0.0620296 0.060484 0)
(1.06844 -0.0586986 -1.97515e-20)
(1.09818 -0.220336 -1.784e-20)
(0.579169 -0.393503 0)
(1.09532 -0.147619 -2.76329e-20)
(-0.0427648 0.198606 0)
(0.598685 0.0552442 0)
(1.42452 -0.0244364 2.94061e-20)
(0.973329 0.0269778 3.16274e-22)
(1.08356 0.752753 -1.62279e-20)
(0.222705 -0.371399 1.36892e-19)
(1.08269 0.035075 -7.3233e-22)
(1.21049 0.0729115 2.07427e-22)
(-0.050279 0.0950976 2.92027e-20)
(0.791662 0.739388 2.81205e-20)
(1.33841 -0.367265 -1.32289e-20)
(-0.216384 -0.0756842 5.14626e-20)
(1.15672 0.042392 0)
(0.289755 0.0161695 -9.18686e-21)
(0.890159 -0.629117 2.49699e-21)
(0.903497 0.645668 -1.97062e-20)
(0.544131 -0.0325829 -5.97653e-20)
(1.14358 -0.00906084 -2.14232e-21)
(1.07493 -0.0856955 7.86131e-21)
(1.17107 0.0622597 -8.43913e-22)
(1.10775 0.121523 4.06408e-21)
(1.13039 -0.130695 0)
(0.905564 0.113709 1.38272e-20)
(0.888121 0.46111 0)
(1.34902 0.140503 6.47398e-21)
(1.1715 0.113026 -2.55907e-22)
(0.750723 0.2651 0)
(0.516632 0.110664 1.05361e-19)
(0.898489 0.720282 -7.29781e-22)
(1.08136 0.294506 -2.1909e-20)
(1.04322 -0.0116025 1.32599e-20)
(0.418046 0.503245 0)
(1.28604 -0.469295 0)
(0.75009 -0.0831447 6.34689e-21)
(1.26733 0.507982 0)
(-0.0273423 0.0586867 -4.06552e-20)
(1.27471 -0.413192 -1.49766e-21)
(1.17087 0.516567 0)
(0.45335 0.229494 1.70197e-19)
(1.12442 0.319037 -1.17329e-19)
(0.807764 -0.629769 -2.79078e-20)
(1.17744 0.0600561 -2.27021e-21)
(0.91388 0.15352 7.8808e-20)
(1.09121 0.171073 5.29538e-20)
(1.07573 0.710329 4.97331e-22)
(0.89724 -0.429917 6.84402e-20)
(1.44273 0.182907 3.99526e-20)
(1.12965 0.00709079 -5.52472e-22)
(0.00894199 -0.0387773 8.75911e-20)
(1.07307 -0.694948 1.98635e-20)
(0.86302 -0.710353 5.86419e-20)
(0.248584 -0.317755 0)
(0.971131 -0.14449 7.59929e-20)
(0.364247 0.320605 -4.41683e-19)
(-0.127812 0.121302 1.86913e-20)
(0.233119 0.0517063 2.13371e-20)
(0.671744 -0.0566804 -7.05701e-20)
(1.08466 0.536721 0)
(0.992598 0.225635 8.18198e-20)
(1.08775 0.0303574 3.44358e-21)
(0.915495 0.450534 -9.15614e-20)
(0.773233 -0.716203 -9.54527e-21)
(0.929033 0.0279392 -4.99547e-20)
(0.982141 0.497524 0)
(1.2585 0.172117 -1.66168e-20)
(1.37053 -0.51103 1.18251e-20)
(1.22057 -0.337596 8.71512e-21)
(-0.193234 0.100172 3.61191e-20)
(0.194172 0.0188939 -1.83378e-20)
(0.971495 -0.114966 -5.93715e-20)
(0.356603 0.53596 0)
(0.917849 0.0221765 3.98034e-20)
(1.16036 0.641255 7.84699e-20)
(-0.105829 0.00295493 1.28984e-19)
(-0.060421 0.0962639 -2.44043e-20)
(-0.0860723 -0.00127431 3.83888e-20)
(1.09774 0.0229019 -4.60436e-21)
(1.12177 -0.456862 0)
(1.05734 -0.725849 -4.84193e-20)
(0.701317 0.358539 0)
(-0.00541477 0.0125694 -9.22377e-20)
(1.10009 0.034146 3.53264e-21)
(-0.033553 -0.0232631 -2.68656e-20)
(1.04873 0.056453 -1.2413e-20)
(0.0980645 0.0331561 5.27099e-20)
(0.841058 0.129877 0)
(1.3616 -0.0683071 3.62758e-20)
(0.0491329 0.0666313 -2.42258e-20)
(-0.204777 0.144307 -4.2898e-20)
(-0.238212 0.164582 0)
(0.0849199 -0.0118099 0)
(1.32021 -0.0417904 -9.32487e-21)
(0.37835 -0.00880883 1.45428e-19)
(1.25574 -0.719467 -1.51056e-20)
(0.968798 -0.149309 3.83012e-20)
(1.07537 0.25435 -3.08706e-20)
(0.363251 -0.544947 1.43989e-19)
(1.55552 0.285808 -3.35049e-20)
(0.0619133 -0.0402015 3.38243e-20)
(0.209707 0.318858 1.96874e-19)
(0.0961884 -0.021072 -1.2702e-19)
(0.936898 -0.485768 -4.49456e-20)
(1.45776 0.393217 3.39623e-20)
(0.559706 -0.665639 5.15052e-20)
(1.10591 -0.0856062 -7.76428e-21)
(0.154739 0.0836243 4.9455e-20)
(1.18041 0.294892 -4.62695e-20)
(0.666014 0.649751 -4.055e-20)
(1.32589 -0.618098 0)
(1.42016 0.52464 3.30123e-20)
(1.04535 -0.522056 -1.21509e-20)
(1.39308 0.612239 -9.79695e-20)
(1.19711 0.0237466 0)
(-0.0542661 0.0906377 0)
(1.25695 0.73641 0)
(1.25272 0.058472 -2.89285e-21)
(0.736843 -0.29356 -2.1149e-19)
(0.476422 -0.0725331 0)
(-0.0526136 0.107073 -2.47417e-20)
(1.02025 -0.243955 1.04053e-19)
(-0.290928 0.0185538 0)
(0.321837 0.0381138 1.239e-20)
(1.15983 0.0336079 0)
(1.4162 0.28065 0)
(1.20463 0.0564834 2.43109e-21)
(0.359305 -0.279763 0)
(1.01416 0.153051 3.83106e-20)
(1.3094 0.290609 0)
(-0.0758464 0.106118 -2.81584e-22)
(0.808609 -0.38785 0)
(1.52244 0.3438 -5.05884e-20)
(1.24502 0.374845 1.12176e-21)
(0.846007 0.656028 -9.83617e-21)
(1.01321 0.159718 -9.02761e-20)
(0.967206 -0.200435 -5.04174e-20)
(1.45676 0.299715 2.97976e-20)
(1.01286 0.116472 0)
(0.564075 -0.0620165 0)
)
;

boundaryField
{
    FrontBack
    {
        type            empty;
    }
    Top
    {
        type            noSlip;
    }
    In
    {
        type            fixedValue;
        value           uniform (1 0 0);
    }
    Bottom
    {
        type            noSlip;
    }
    Out
    {
        type            zeroGradient;
    }
    circle
    {
        type            noSlip;
    }
}


// ************************************************************************* //
