/*--------------------------------*- C++ -*----------------------------------*\
| =========                 |                                                 |
| \\      /  F ield         | OpenFOAM: The Open Source CFD Toolbox           |
|  \\    /   O peration     | Version:  2412                                  |
|   \\  /    A nd           | Website:  www.openfoam.com                      |
|    \\/     M anipulation  |                                                 |
\*---------------------------------------------------------------------------*/
FoamFile
{
    version     2.0;
    format      ascii;
    arch        "LSB;label=32;scalar=64";
    class       volVectorField;
    location    "0.2";
    object      cellDisplacement;
}
// * * * * * * * * * * * * * * * * * * * * * * * * * * * * * * * * * * * * * //

dimensions      [0 1 0 0 0 0 0];

internalField   nonuniform List<vector> 
256
(
(-0.00700927 -0.000389497 0)
(-0.00674186 -0.00142808 0)
(-0.0060849 -0.00223414 0)
(-0.00516467 -0.00269952 0)
(-0.00413887 -0.00279073 0)
(-0.0030342 -0.0024699 0)
(-0.00204207 -0.00190696 0)
(-0.00103495 -0.00105956 0)
(-0.0206983 -0.00118801 0)
(-0.0199554 -0.00410462 0)
(-0.0182151 -0.00643058 0)
(-0.0157821 -0.00789737 0)
(-0.0129564 -0.00834211 0)
(-0.0100849 -0.0078678 0)
(-0.00720157 -0.00647316 0)
(-0.00444795 -0.00441274 0)
(-0.0337104 -0.00199476 0)
(-0.0325314 -0.00655613 0)
(-0.029925 -0.0102781 0)
(-0.0262804 -0.0127482 0)
(-0.0220726 -0.0137832 0)
(-0.0176072 -0.0133315 0)
(-0.0132875 -0.0116645 0)
(-0.00901455 -0.00880235 0)
(-0.0460179 -0.00279952 0)
(-0.0444461 -0.00881372 0)
(-0.0411625 -0.013817 0)
(-0.0365907 -0.0173013 0)
(-0.0312402 -0.0189992 0)
(-0.0256616 -0.0189747 0)
(-0.0200482 -0.0172536 0)
(-0.0145682 -0.0140538 0)
(-0.0577401 -0.00362036 0)
(-0.0558572 -0.0109407 0)
(-0.0520387 -0.0171349 0)
(-0.0467409 -0.02162 0)
(-0.0405772 -0.0241465 0)
(-0.0339826 -0.0246151 0)
(-0.0274598 -0.0232539 0)
(-0.0209952 -0.0200815 0)
(-0.0688929 -0.00445499 0)
(-0.0667462 -0.0129604 0)
(-0.0625212 -0.0202617 0)
(-0.0567072 -0.0257564 0)
(-0.0498653 -0.0291196 0)
(-0.0426375 -0.0303704 0)
(-0.0353034 -0.0294999 0)
(-0.0280975 -0.0266965 0)
(-0.0795471 -0.00532792 0)
(-0.0772068 -0.0149175 0)
(-0.0726882 -0.0232637 0)
(-0.066482 -0.0297395 0)
(-0.0592247 -0.0340628 0)
(-0.0513966 -0.0360953 0)
(-0.0435474 -0.0360082 0)
(-0.035779 -0.0338489 0)
(-0.0897425 -0.00625067 0)
(-0.0872374 -0.0168321 0)
(-0.0825194 -0.0261639 0)
(-0.0760774 -0.0336261 0)
(-0.0684668 -0.0388843 0)
(-0.0603353 -0.0419123 0)
(-0.0520268 -0.0426781 0)
(-0.0438338 -0.0413635 0)
(-0.0995002 -0.00724855 0)
(-0.0968951 -0.0187448 0)
(-0.0920589 -0.0290093 0)
(-0.0854599 -0.0374272 0)
(-0.0777061 -0.0437202 0)
(-0.0692682 -0.0477153 0)
(-0.0606954 -0.0495325 0)
(-0.0522224 -0.0492682 0)
(-0.108867 -0.00833979 0)
(-0.106185 -0.0206834 0)
(-0.101296 -0.031824 0)
(-0.094665 -0.0412067 0)
(-0.0867849 -0.0484904 0)
(-0.0782431 -0.0536199 0)
(-0.0694903 -0.0565522 0)
(-0.0607686 -0.0574777 0)
(-0.117829 -0.00957909 0)
(-0.115116 -0.0226754 0)
(-0.110246 -0.0346518 0)
(-0.103623 -0.0449535 0)
(-0.0957774 -0.0533151 0)
(-0.0872035 -0.0595682 0)
(-0.0783097 -0.0637857 0)
(-0.0694653 -0.0660157 0)
(-0.1264 -0.010987 0)
(-0.123676 -0.0247742 0)
(-0.118861 -0.0375116 0)
(-0.112374 -0.0487298 0)
(-0.104626 -0.0581436 0)
(-0.0960719 -0.065652 0)
(-0.0871533 -0.0711956 0)
(-0.0780966 -0.0749133 0)
(-0.134507 -0.0126625 0)
(-0.131785 -0.027001 0)
(-0.127116 -0.0404365 0)
(-0.120817 -0.0525094 0)
(-0.113243 -0.0630343 0)
(-0.104799 -0.0718149 0)
(-0.0957958 -0.0788439 0)
(-0.0865446 -0.0841335 0)
(-0.142023 -0.0146017 0)
(-0.139318 -0.0294004 0)
(-0.134839 -0.0433769 0)
(-0.128772 -0.0563181 0)
(-0.121455 -0.0678996 0)
(-0.113088 -0.0780662 0)
(-0.104044 -0.0866449 0)
(-0.0944696 -0.0937097 0)
(-0.148559 -0.0169372 0)
(-0.145894 -0.0319128 0)
(-0.141597 -0.0463486 0)
(-0.135836 -0.0599715 0)
(-0.128723 -0.0726502 0)
(-0.120515 -0.0841615 0)
(-0.111316 -0.0944628 0)
(-0.101414 -0.103409 0)
(-0.153161 -0.0194717 0)
(-0.150515 -0.0343904 0)
(-0.146419 -0.0489778 0)
(-0.140913 -0.0630935 0)
(-0.134051 -0.0766016 0)
(-0.125897 -0.089372 0)
(-0.116531 -0.101282 0)
(-0.106042 -0.112216 0)
(-0.00104332 -0.00102656 0)
(-0.00188332 -0.00196327 0)
(-0.00242947 -0.00284678 0)
(-0.00274671 -0.00383167 0)
(-0.00272629 -0.00478228 0)
(-0.00234481 -0.00559194 0)
(-0.00167227 -0.00630212 0)
(-0.00074053 -0.00683395 0)
(-0.00444759 -0.00443951 0)
(-0.00643913 -0.00692776 0)
(-0.00779379 -0.0095737 0)
(-0.00831342 -0.0121943 0)
(-0.00796675 -0.0147336 0)
(-0.0067494 -0.0171047 0)
(-0.00470819 -0.0190563 0)
(-0.00199817 -0.0201803 0)
(-0.00883243 -0.00887887 0)
(-0.0116539 -0.0128622 0)
(-0.0132888 -0.0168332 0)
(-0.0137542 -0.0209231 0)
(-0.012896 -0.0248739 0)
(-0.0107037 -0.0283953 0)
(-0.00733114 -0.0312294 0)
(-0.00302366 -0.0330672 0)
(-0.014188 -0.0143939 0)
(-0.0172797 -0.0194586 0)
(-0.0189518 -0.0246949 0)
(-0.0190309 -0.0299206 0)
(-0.0174675 -0.0349484 0)
(-0.0142871 -0.039513 0)
(-0.00962649 -0.0431245 0)
(-0.00384479 -0.0452419 0)
(-0.0202328 -0.0206825 0)
(-0.0233357 -0.026785 0)
(-0.0246318 -0.0329123 0)
(-0.0241511 -0.0391385 0)
(-0.0217687 -0.0451173 0)
(-0.0175129 -0.0503881 0)
(-0.01161 -0.0544868 0)
(-0.00448353 -0.0570118 0)
(-0.0269448 -0.0277688 0)
(-0.0296024 -0.0345569 0)
(-0.0303616 -0.0415548 0)
(-0.0290909 -0.0485244 0)
(-0.0257585 -0.0551635 0)
(-0.0204297 -0.0610491 0)
(-0.013327 -0.0655813 0)
(-0.00495639 -0.0681616 0)
(-0.034067 -0.0353779 0)
(-0.0361034 -0.0428567 0)
(-0.0360202 -0.0504212 0)
(-0.0338418 -0.0580253 0)
(-0.0294891 -0.065232 0)
(-0.0230402 -0.0714723 0)
(-0.0147855 -0.0761887 0)
(-0.00525811 -0.0789584 0)
(-0.0415764 -0.0435467 0)
(-0.0426545 -0.0514472 0)
(-0.0416238 -0.0595867 0)
(-0.0383808 -0.0676293 0)
(-0.0329218 -0.0751542 0)
(-0.0253589 -0.081664 0)
(-0.0159896 -0.08655 0)
(-0.00539864 -0.0892219 0)
(-0.0492681 -0.0520818 0)
(-0.0492723 -0.0604368 0)
(-0.0470688 -0.0689092 0)
(-0.0426735 -0.0772794 0)
(-0.0360617 -0.0850576 0)
(-0.0273693 -0.091645 0)
(-0.0169401 -0.0964784 0)
(-0.00534166 -0.0991757 0)
(-0.0571329 -0.0610511 0)
(-0.0557988 -0.0696877 0)
(-0.052334 -0.078466 0)
(-0.0466712 -0.087015 0)
(-0.0388574 -0.0948279 0)
(-0.0290454 -0.101395 0)
(-0.0175932 -0.106179 0)
(-0.00508956 -0.108662 0)
(-0.0649735 -0.0703963 0)
(-0.0622031 -0.0792915 0)
(-0.0572923 -0.0882165 0)
(-0.0502916 -0.096797 0)
(-0.0412462 -0.10456 0)
(-0.0303292 -0.11096 0)
(-0.0179273 -0.115486 0)
(-0.00456815 -0.11785 0)
(-0.0727164 -0.0801441 0)
(-0.0682791 -0.0892231 0)
(-0.0618228 -0.0982148 0)
(-0.0534163 -0.106695 0)
(-0.0431093 -0.114206 0)
(-0.0311242 -0.120283 0)
(-0.0178436 -0.12454 0)
(-0.00375774 -0.126584 0)
(-0.080085 -0.0903137 0)
(-0.0738372 -0.0995388 0)
(-0.0657094 -0.108457 0)
(-0.0558338 -0.116659 0)
(-0.0442439 -0.123774 0)
(-0.0313071 -0.129395 0)
(-0.0172291 -0.133181 0)
(-0.00252641 -0.134941 0)
(-0.0867755 -0.100901 0)
(-0.0784806 -0.110194 0)
(-0.0686238 -0.118874 0)
(-0.057186 -0.126636 0)
(-0.044483 -0.133135 0)
(-0.0305972 -0.138124 0)
(-0.01593 -0.14138 0)
(-0.000765026 -0.142689 0)
(-0.0921172 -0.111768 0)
(-0.0816798 -0.120976 0)
(-0.0699548 -0.129216 0)
(-0.0571721 -0.136256 0)
(-0.043377 -0.141948 0)
(-0.0288247 -0.146139 0)
(-0.0137578 -0.148684 0)
(0.00155888 -0.149508 0)
(-0.0945324 -0.12207 0)
(-0.0821123 -0.130748 0)
(-0.0689014 -0.138166 0)
(-0.0550269 -0.144255 0)
(-0.0406225 -0.148954 0)
(-0.0258269 -0.152218 0)
(-0.0107826 -0.154017 0)
(0.00436561 -0.154332 0)
)
;

boundaryField
{
    walls
    {
        type            cellMotion;
        value           uniform (0 0 0);
    }
    cylinder
    {
        type            cellMotion;
        value           nonuniform List<vector> 
16
(
(-0.153161 -0.0194717 0)
(-0.150515 -0.0343904 0)
(-0.146419 -0.0489778 0)
(-0.140913 -0.0630935 0)
(-0.134051 -0.0766016 0)
(-0.125897 -0.089372 0)
(-0.116531 -0.101282 0)
(-0.106042 -0.112216 0)
(-0.0945324 -0.12207 0)
(-0.0821123 -0.130748 0)
(-0.0689014 -0.138166 0)
(-0.0550269 -0.144255 0)
(-0.0406225 -0.148954 0)
(-0.0258269 -0.152218 0)
(-0.0107826 -0.154017 0)
(0.00436561 -0.154332 0)
)
;
    }
    outlet
    {
        type            cellMotion;
        value           nonuniform List<vector> 0();
    }
    inlet
    {
        type            cellMotion;
        value           uniform (0 0 0);
    }
    frontAndBack
    {
        type            empty;
    }
    procBoundary2to0
    {
        type            processor;
        value           nonuniform List<vector> 
16
(
(0.000322396 -0.00691866 0)
(0.000998981 -0.0206078 0)
(0.00168696 -0.0334575 0)
(0.00239072 -0.0457826 0)
(0.00311977 -0.0574205 0)
(0.0038906 -0.0686296 0)
(0.00471369 -0.0792594 0)
(0.00561757 -0.0895278 0)
(0.00661054 -0.0992945 0)
(0.00774374 -0.108742 0)
(0.00903011 -0.11772 0)
(0.0105446 -0.126362 0)
(0.0123166 -0.134466 0)
(0.014415 -0.142032 0)
(0.016855 -0.14857 0)
(0.0194717 -0.153161 0)
)
;
    }
    procBoundary2to3
    {
        type            processor;
        value           nonuniform List<vector> 
16
(
(-0.00697765 0.000692629 0)
(-0.020596 0.00184772 0)
(-0.0335513 0.00277052 0)
(-0.0458212 0.00349472 0)
(-0.0575624 0.00405018 0)
(-0.0687413 0.00445036 0)
(-0.0794718 0.00470308 0)
(-0.0897315 0.00480848 0)
(-0.0995973 0.00475176 0)
(-0.109057 0.00450442 0)
(-0.118139 0.00404177 0)
(-0.126823 0.00328955 0)
(-0.135074 0.00218835 0)
(-0.142763 0.000554868 0)
(-0.149526 -0.00162939 0)
(-0.154332 -0.00436561 0)
)
;
    }
}


// ************************************************************************* //
