/*--------------------------------*- C++ -*----------------------------------*\
| =========                 |                                                 |
| \\      /  F ield         | OpenFOAM: The Open Source CFD Toolbox           |
|  \\    /   O peration     | Version:  2412                                  |
|   \\  /    A nd           | Website:  www.openfoam.com                      |
|    \\/     M anipulation  |                                                 |
\*---------------------------------------------------------------------------*/
FoamFile
{
    version     2.0;
    format      ascii;
    arch        "LSB;label=32;scalar=64";
    class       surfaceScalarField;
    location    "0.2";
    object      meshPhi;
}
// * * * * * * * * * * * * * * * * * * * * * * * * * * * * * * * * * * * * * //

dimensions      [0 3 -1 0 0 0 0];

internalField   nonuniform List<scalar> 
480
(
0.00483835
0.000935302
0.00530588
0.0053599
0.00553261
0.0093722
0.00544291
0.0121593
0.00492784
0.0130825
0.00403155
0.0121108
0.00318616
0.0102972
0.00905658
0.00293808
0.0141485
0.00169855
0.015348
0.00931888
0.0159781
0.0162997
0.0157889
0.0213132
0.014456
0.0232978
0.0122067
0.0223032
0.00995173
0.0197567
0.0176069
0.00921129
0.0228362
0.00231198
0.0243734
0.0121257
0.0253129
0.0212044
0.0251428
0.0279171
0.0234449
0.0310514
0.020586
0.0306772
0.0174524
0.0280771
0.0253654
0.0162823
0.0309308
0.00280954
0.032524
0.014023
0.0336722
0.0244648
0.0336257
0.0324156
0.0319821
0.0366558
0.0290791
0.0372106
0.0255051
0.0349738
0.0321612
0.0241863
0.0384948
0.0031791
0.0400174
0.0152439
0.0412915
0.0265055
0.0414678
0.035301
0.0401515
0.0404672
0.037576
0.0419328
0.0339751
0.0403011
0.0377223
0.0328366
0.0455825
0.0034342
0.0469787
0.0158663
0.0483327
0.0274639
0.0487963
0.0366995
0.047981
0.0425352
0.0459567
0.0448146
0.0426959
0.043873
0.0417957
0.0420449
0.0522066
0.00357334
0.0534702
0.0159826
0.0549008
0.0275305
0.0557057
0.0368783
0.055497
0.0431125
0.0541936
0.0460084
0.0515446
0.0457487
0.0442687
0.0516248
0.0583997
0.00357588
0.0595576
0.0155967
0.0610895
0.0267468
0.0622859
0.0359082
0.0627943
0.0422893
0.0623221
0.0456284
0.0605135
0.0459958
0.0452379
0.0615699
0.0642009
0.00345858
0.0653044
0.0147805
0.066982
0.0252461
0.0686494
0.0339822
0.0698856
0.0402669
0.0703083
0.0437821
0.0696408
0.0447246
0.0446573
0.0718229
0.0696968
0.00323484
0.0708112
0.0135135
0.0726884
0.0230391
0.0748204
0.0310989
0.0767701
0.037036
0.0782124
0.0406059
0.0788722
0.0419661
0.0424616
0.0822592
0.0749143
0.00290015
0.0761117
0.0118959
0.078196
0.0202715
0.0807986
0.0274317
0.083568
0.032785
0.0861666
0.0362049
0.088326
0.0378785
0.038824
0.0931133
0.0798817
0.00261762
0.0812153
0.0101865
0.0836056
0.0171464
0.0868026
0.0230948
0.0905196
0.0276625
0.0944389
0.0307611
0.0983477
0.0325647
0.0338378
0.104593
0.0845172
0.00221846
0.0861203
0.00815442
0.089009
0.0135559
0.0929994
0.0181616
0.0978606
0.0217898
0.103304
0.0244316
0.109018
0.0262321
0.0277223
0.116747
0.0887453
0.00181973
0.0908009
0.00583255
0.0943814
0.00951221
0.0993966
0.0127007
0.105569
0.0153056
0.112608
0.017379
0.120181
0.0190048
0.0204469
0.129446
0.0923825
0.00163069
0.0949861
0.00352928
0.0993932
0.00530058
0.105449
0.00691296
0.112927
0.00833691
0.121515
0.00957429
0.130964
0.0106503
0.0116211
0.141762
0.0942504
0.0974908
0.102628
0.109454
0.117787
0.127321
0.137803
0.149142
0.00318761
-0.00633754
0.00383739
-0.008069
0.00458639
-0.0101912
0.00489996
-0.0114087
0.0047296
-0.0109654
0.00448135
-0.00912688
0.00428148
-0.00640003
-0.00304627
0.00979445
-0.0129108
0.0117097
-0.0158218
0.0136021
-0.0192045
0.0144266
-0.0207976
0.014077
-0.0198207
0.0134008
-0.0165415
0.0127832
-0.0115488
-0.00543604
0.0170561
-0.0196415
0.0198636
-0.0231594
0.0223214
-0.0269314
0.0234276
-0.0283978
0.0230464
-0.0267825
0.0220822
-0.022292
0.0211633
-0.0155461
-0.00736223
0.0249889
-0.026098
0.0282081
-0.029734
0.0307699
-0.0333515
0.031906
-0.0342545
0.0315222
-0.0319456
0.030412
-0.0265467
0.0293284
-0.0185226
-0.00884032
0.033452
-0.0319653
0.0367086
-0.0353872
0.0390288
-0.0384674
0.0399866
-0.0386891
0.0395502
-0.0356869
0.0383394
-0.0295236
0.0371666
-0.0206193
-0.00998073
0.0422919
-0.0368583
0.045277
-0.0398117
0.0471366
-0.0421884
0.0477426
-0.0416273
0.0471401
-0.0379847
0.0458212
-0.0313261
0.0445914
-0.0219325
-0.0107721
0.0513846
-0.0405683
0.0538703
-0.0429496
0.0551055
-0.0445051
0.0552257
-0.043236
0.0543322
-0.039069
0.0528621
-0.032065
0.0515721
-0.0225027
-0.0112394
0.0606762
-0.0429666
0.0624201
-0.0445926
0.0629412
-0.0453308
0.0624507
-0.0434247
0.061153
-0.0388658
0.0594767
-0.0317884
0.0581111
-0.0223833
-0.011357
0.0700129
-0.0438321
0.0708343
-0.0447174
0.0705522
-0.0446594
0.0694096
-0.0422555
0.0676485
-0.0374806
0.0657076
-0.0305106
0.0642307
-0.0215305
-0.0110718
0.0794297
-0.0432031
0.079133
-0.0434096
0.0779541
-0.0426155
0.0760927
-0.0397573
0.0738116
-0.034883
0.0715874
-0.0282506
0.0699687
-0.0199612
-0.0103475
0.0890855
-0.0411168
0.0874127
-0.0406987
0.0851259
-0.0391883
0.0824123
-0.0359606
0.0795919
-0.0311947
0.0770947
-0.0250958
0.0753347
-0.0177048
-0.00918269
0.0991516
-0.0372921
0.0958044
-0.0363422
0.0921839
-0.0342568
0.0885001
-0.0309003
0.0850796
-0.0264452
0.0822844
-0.0211308
0.0803895
-0.0148468
-0.00756108
0.109744
-0.03119
0.104512
-0.0299161
0.0993988
-0.0276405
0.0945502
-0.0245047
0.0904038
-0.0206958
0.087193
-0.0163509
0.0850786
-0.0112596
-0.00548509
0.120734
-0.022507
0.113519
-0.0211909
0.106745
-0.0191651
0.100617
-0.0167562
0.0955222
-0.0139286
0.0916907
-0.0106376
0.0892467
-0.00695896
-0.00302821
0.13137
-0.0113318
0.122034
-0.0102963
0.113527
-0.00898875
0.106081
-0.00760913
0.0999478
-0.00604171
0.0954305
-0.00426727
0.0926375
-0.00240714
-0.000499292
0.137099
0.126027
0.116223
0.107897
0.101253
0.0964964
0.0937321
)
;

boundaryField
{
    walls
    {
        type            calculated;
        value           uniform 0;
    }
    cylinder
    {
        type            calculated;
        value           nonuniform List<scalar> 
16
(
2.08407e-11
-2.55895e-11
-8.48939e-12
1.54423e-11
-4.34913e-11
3.15057e-11
4.87881e-11
-2.46991e-11
2.46986e-11
-4.87869e-11
-3.15045e-11
4.34906e-11
-1.54429e-11
8.48888e-12
2.55902e-11
-2.08398e-11
)
;
    }
    outlet
    {
        type            calculated;
        value           nonuniform List<scalar> 0();
    }
    inlet
    {
        type            calculated;
        value           uniform 0;
    }
    frontAndBack
    {
        type            empty;
    }
    procBoundary2to0
    {
        type            processor;
        value           nonuniform List<scalar> 
16
(
0.00431346
0.0128291
0.0211451
0.0292124
0.0369502
0.0442895
0.0511937
0.0576512
0.0636911
0.0693626
0.0746769
0.0796468
0.0842428
0.0883594
0.0916985
0.0930081
)
;
    }
    procBoundary2to3
    {
        type            processor;
        value           nonuniform List<scalar> 
16
(
-0.00478294
-0.0139863
-0.0225828
-0.0306347
-0.038195
-0.0453075
-0.0519876
-0.0582533
-0.0641229
-0.0696466
-0.0748232
-0.0796939
-0.08422
-0.0882674
-0.0915991
-0.0929717
)
;
    }
}


// ************************************************************************* //
