/*--------------------------------*- C++ -*----------------------------------*\
| =========                 |                                                 |
| \\      /  F ield         | OpenFOAM: The Open Source CFD Toolbox           |
|  \\    /   O peration     | Version:  2412                                  |
|   \\  /    A nd           | Website:  www.openfoam.com                      |
|    \\/     M anipulation  |                                                 |
\*---------------------------------------------------------------------------*/
FoamFile
{
    version     2.0;
    format      ascii;
    arch        "LSB;label=32;scalar=64";
    class       pointVectorField;
    location    "0.2";
    object      pointDisplacement;
}
// * * * * * * * * * * * * * * * * * * * * * * * * * * * * * * * * * * * * * //

dimensions      [0 1 0 0 0 0 0];

internalField   nonuniform List<vector> 
578
(
(0 0 0)
(0 0 0)
(0 0 0)
(0 0 0)
(0 0 0)
(0 0 0)
(0 0 0)
(0 0 0)
(0 0 0)
(-0.0138391 0.000243097 0)
(-0.0136205 -0.00178032 0)
(-0.0127668 -0.00355668 0)
(-0.0113252 -0.00482547 0)
(-0.00951854 -0.00544245 0)
(-0.00755675 -0.00537574 0)
(-0.00558756 -0.0046819 0)
(-0.00367427 -0.00345969 0)
(-0.00267509 -0.00266672 0)
(-0.0271561 0.000360615 0)
(-0.0267414 -0.00346321 0)
(-0.0251731 -0.00684841 0)
(-0.0225644 -0.0093472 0)
(-0.0192833 -0.0107026 0)
(-0.015686 -0.0108398 0)
(-0.0120481 -0.00984158 0)
(-0.00848632 -0.00784091 0)
(-0.00660101 -0.0065498 0)
(-0.0397906 0.000368861 0)
(-0.0391922 -0.00504306 0)
(-0.0370313 -0.00987119 0)
(-0.0335033 -0.0135435 0)
(-0.0290573 -0.0157169 0)
(-0.0241548 -0.0162823 0)
(-0.0191568 -0.0153151 0)
(-0.0142335 -0.0129515 0)
(-0.0115541 -0.0114365 0)
(-0.0517994 0.000281807 0)
(-0.0510295 -0.00654541 0)
(-0.04839 -0.0126807 0)
(-0.0441464 -0.0174745 0)
(-0.0387996 -0.0205251 0)
(-0.0328757 -0.0216934 0)
(-0.0267974 -0.0210355 0)
(-0.0207757 -0.0186721 0)
(-0.0173932 -0.0172007 0)
(-0.0632467 0.000106362 0)
(-0.0623217 -0.00799579 0)
(-0.0593035 -0.0153278 0)
(-0.0545147 -0.0211985 0)
(-0.0484849 -0.0251678 0)
(-0.0417779 -0.0270726 0)
(-0.0348564 -0.0269459 0)
(-0.0279749 -0.0248963 0)
(-0.0239624 -0.0237018 0)
(-0.0741746 -0.000157706 0)
(-0.0731096 -0.00941674 0)
(-0.0698022 -0.0178536 0)
(-0.0646116 -0.0247596 0)
(-0.0580823 -0.029676 0)
(-0.0507932 -0.0324205 0)
(-0.0432336 -0.0330049 0)
(-0.0356947 -0.0315276 0)
(-0.0311191 -0.0308185 0)
(-0.0846333 -0.00051741 0)
(-0.0834435 -0.0108334 0)
(-0.0799234 -0.0202964 0)
(-0.074453 -0.0282017 0)
(-0.0675746 -0.0340833 0)
(-0.0598687 -0.0377466 0)
(-0.0518391 -0.0391838 0)
(-0.0438106 -0.0384884 0)
(-0.0387161 -0.0384331 0)
(-0.0946519 -0.000985652 0)
(-0.0933527 -0.0122703 0)
(-0.0896871 -0.0226892 0)
(-0.0840393 -0.0315592 0)
(-0.0769391 -0.0384188 0)
(-0.0689562 -0.0430644 0)
(-0.0605944 -0.0454691 0)
(-0.052209 -0.0457234 0)
(-0.0466351 -0.0464697 0)
(-0.104263 -0.00158415 0)
(-0.102869 -0.0137552 0)
(-0.0991171 -0.0250665 0)
(-0.0933795 -0.0348686 0)
(-0.0861646 -0.0427142 0)
(-0.0780125 -0.0483919 0)
(-0.0694369 -0.051863 0)
(-0.0608082 -0.0532189 0)
(-0.0547675 -0.0548813 0)
(-0.11348 -0.00234443 0)
(-0.112006 -0.0153203 0)
(-0.108218 -0.0274593 0)
(-0.102466 -0.0381599 0)
(-0.0952227 -0.0469935 0)
(-0.0870134 -0.0537522 0)
(-0.0783237 -0.0583881 0)
(-0.0695222 -0.060967 0)
(-0.0630157 -0.0636553 0)
(-0.122304 -0.00331012 0)
(-0.120761 -0.0170046 0)
(-0.116981 -0.0299034 0)
(-0.111284 -0.0414618 0)
(-0.104109 -0.0512864 0)
(-0.0959301 -0.0591722 0)
(-0.087196 -0.0650549 0)
(-0.0782688 -0.0689846 0)
(-0.0712561 -0.072797 0)
(-0.130706 -0.0045445 0)
(-0.129097 -0.0188567 0)
(-0.125365 -0.0324305 0)
(-0.119798 -0.0447962 0)
(-0.112773 -0.0556041 0)
(-0.104694 -0.064662 0)
(-0.0959653 -0.0718791 0)
(-0.0869092 -0.0772758 0)
(-0.0793173 -0.0823167 0)
(-0.138596 -0.00613222 0)
(-0.136912 -0.0209169 0)
(-0.133269 -0.0350531 0)
(-0.127892 -0.0481589 0)
(-0.121079 -0.0599389 0)
(-0.113154 -0.070203 0)
(-0.104441 -0.0788426 0)
(-0.0952241 -0.0858344 0)
(-0.0869395 -0.0922173 0)
(-0.145721 -0.00815572 0)
(-0.143952 -0.0232137 0)
(-0.140416 -0.0377589 0)
(-0.135265 -0.0515019 0)
(-0.128702 -0.0642074 0)
(-0.120952 -0.0756918 0)
(-0.112249 -0.0858316 0)
(-0.10282 -0.0945546 0)
(-0.093679 -0.102414 0)
(-0.151396 -0.0106041 0)
(-0.149534 -0.0256791 0)
(-0.146108 -0.0404068 0)
(-0.141194 -0.0545959 0)
(-0.134885 -0.0680762 0)
(-0.127301 -0.0806926 0)
(-0.118571 -0.0923154 0)
(-0.108834 -0.102838 0)
(-0.0985235 -0.112352 0)
(-0.154117 -0.0119474 0)
(-0.152204 -0.026996 0)
(-0.148825 -0.0417847 0)
(-0.144013 -0.0561709 0)
(-0.137814 -0.0700161 0)
(-0.130287 -0.0831871 0)
(-0.121506 -0.0955569 0)
(-0.111555 -0.107006 0)
(-0.100529 -0.117426 0)
(0 0 0)
(0 0 0)
(0 0 0)
(0 0 0)
(0 0 0)
(0 0 0)
(0 0 0)
(0 0 0)
(0 0 0)
(-0.0138391 0.000243097 0)
(-0.0136205 -0.00178032 0)
(-0.0127668 -0.00355668 0)
(-0.0113252 -0.00482547 0)
(-0.00951854 -0.00544245 0)
(-0.00755675 -0.00537574 0)
(-0.00558756 -0.0046819 0)
(-0.00367427 -0.00345969 0)
(-0.00267509 -0.00266672 0)
(-0.0271561 0.000360615 0)
(-0.0267414 -0.00346321 0)
(-0.0251731 -0.00684841 0)
(-0.0225644 -0.0093472 0)
(-0.0192833 -0.0107026 0)
(-0.015686 -0.0108398 0)
(-0.0120481 -0.00984158 0)
(-0.00848632 -0.00784091 0)
(-0.00660101 -0.0065498 0)
(-0.0397906 0.000368861 0)
(-0.0391922 -0.00504306 0)
(-0.0370313 -0.00987119 0)
(-0.0335033 -0.0135435 0)
(-0.0290573 -0.0157169 0)
(-0.0241548 -0.0162823 0)
(-0.0191568 -0.0153151 0)
(-0.0142335 -0.0129515 0)
(-0.0115541 -0.0114365 0)
(-0.0517994 0.000281807 0)
(-0.0510295 -0.00654541 0)
(-0.04839 -0.0126807 0)
(-0.0441464 -0.0174745 0)
(-0.0387996 -0.0205251 0)
(-0.0328757 -0.0216934 0)
(-0.0267974 -0.0210355 0)
(-0.0207757 -0.0186721 0)
(-0.0173932 -0.0172007 0)
(-0.0632467 0.000106362 0)
(-0.0623217 -0.00799579 0)
(-0.0593035 -0.0153278 0)
(-0.0545147 -0.0211985 0)
(-0.0484849 -0.0251678 0)
(-0.0417779 -0.0270726 0)
(-0.0348564 -0.0269459 0)
(-0.0279749 -0.0248963 0)
(-0.0239624 -0.0237018 0)
(-0.0741746 -0.000157706 0)
(-0.0731096 -0.00941674 0)
(-0.0698022 -0.0178536 0)
(-0.0646116 -0.0247596 0)
(-0.0580823 -0.029676 0)
(-0.0507932 -0.0324205 0)
(-0.0432336 -0.0330049 0)
(-0.0356947 -0.0315276 0)
(-0.0311191 -0.0308185 0)
(-0.0846333 -0.00051741 0)
(-0.0834435 -0.0108334 0)
(-0.0799234 -0.0202964 0)
(-0.074453 -0.0282017 0)
(-0.0675746 -0.0340833 0)
(-0.0598687 -0.0377466 0)
(-0.0518391 -0.0391838 0)
(-0.0438106 -0.0384884 0)
(-0.0387161 -0.0384331 0)
(-0.0946519 -0.000985652 0)
(-0.0933527 -0.0122703 0)
(-0.0896871 -0.0226892 0)
(-0.0840393 -0.0315592 0)
(-0.0769391 -0.0384188 0)
(-0.0689562 -0.0430644 0)
(-0.0605944 -0.0454691 0)
(-0.052209 -0.0457234 0)
(-0.0466351 -0.0464697 0)
(-0.104263 -0.00158415 0)
(-0.102869 -0.0137552 0)
(-0.0991171 -0.0250665 0)
(-0.0933795 -0.0348686 0)
(-0.0861646 -0.0427142 0)
(-0.0780125 -0.0483919 0)
(-0.0694369 -0.051863 0)
(-0.0608082 -0.0532189 0)
(-0.0547675 -0.0548813 0)
(-0.11348 -0.00234443 0)
(-0.112006 -0.0153203 0)
(-0.108218 -0.0274593 0)
(-0.102466 -0.0381599 0)
(-0.0952227 -0.0469935 0)
(-0.0870134 -0.0537522 0)
(-0.0783237 -0.0583881 0)
(-0.0695222 -0.060967 0)
(-0.0630157 -0.0636553 0)
(-0.122304 -0.00331012 0)
(-0.120761 -0.0170046 0)
(-0.116981 -0.0299034 0)
(-0.111284 -0.0414618 0)
(-0.104109 -0.0512864 0)
(-0.0959301 -0.0591722 0)
(-0.087196 -0.0650549 0)
(-0.0782688 -0.0689846 0)
(-0.0712561 -0.072797 0)
(-0.130706 -0.0045445 0)
(-0.129097 -0.0188567 0)
(-0.125365 -0.0324305 0)
(-0.119798 -0.0447962 0)
(-0.112773 -0.0556041 0)
(-0.104694 -0.064662 0)
(-0.0959653 -0.0718791 0)
(-0.0869092 -0.0772758 0)
(-0.0793173 -0.0823167 0)
(-0.138596 -0.00613222 0)
(-0.136912 -0.0209169 0)
(-0.133269 -0.0350531 0)
(-0.127892 -0.0481589 0)
(-0.121079 -0.0599389 0)
(-0.113154 -0.070203 0)
(-0.104441 -0.0788426 0)
(-0.0952241 -0.0858344 0)
(-0.0869395 -0.0922173 0)
(-0.145721 -0.00815572 0)
(-0.143952 -0.0232137 0)
(-0.140416 -0.0377589 0)
(-0.135265 -0.0515019 0)
(-0.128702 -0.0642074 0)
(-0.120952 -0.0756918 0)
(-0.112249 -0.0858316 0)
(-0.10282 -0.0945546 0)
(-0.093679 -0.102414 0)
(-0.151396 -0.0106041 0)
(-0.149534 -0.0256791 0)
(-0.146108 -0.0404068 0)
(-0.141194 -0.0545959 0)
(-0.134885 -0.0680762 0)
(-0.127301 -0.0806926 0)
(-0.118571 -0.0923154 0)
(-0.108834 -0.102838 0)
(-0.0985235 -0.112352 0)
(-0.154117 -0.0119474 0)
(-0.152204 -0.026996 0)
(-0.148825 -0.0417847 0)
(-0.144013 -0.0561709 0)
(-0.137814 -0.0700161 0)
(-0.130287 -0.0831871 0)
(-0.121506 -0.0955569 0)
(-0.111555 -0.107006 0)
(-0.100529 -0.117426 0)
(0 0 0)
(0 0 0)
(0 0 0)
(0 0 0)
(0 0 0)
(0 0 0)
(0 0 0)
(0 0 0)
(-0.00344875 -0.00358129 0)
(-0.00463688 -0.00532196 0)
(-0.00532679 -0.00711063 0)
(-0.00544717 -0.00888842 0)
(-0.00495679 -0.0105598 0)
(-0.00387816 -0.0120252 0)
(-0.00228668 -0.0131091 0)
(-0.000356839 -0.0136534 0)
(-0.00784356 -0.00827225 0)
(-0.00979949 -0.0115491 0)
(-0.0107951 -0.0148827 0)
(-0.0107417 -0.0181861 0)
(-0.00958841 -0.0212857 0)
(-0.00738121 -0.0239585 0)
(-0.00427078 -0.0258978 0)
(-0.000585853 -0.0268452 0)
(-0.0129949 -0.0138992 0)
(-0.0153012 -0.0184642 0)
(-0.0162657 -0.023098 0)
(-0.0157963 -0.0276738 0)
(-0.0138469 -0.0319419 0)
(-0.0104939 -0.0355775 0)
(-0.00596082 -0.0381801 0)
(-0.000698953 -0.0394025 0)
(-0.018768 -0.0203326 0)
(-0.0210602 -0.0259687 0)
(-0.0217009 -0.0316732 0)
(-0.0206133 -0.0372895 0)
(-0.0177666 -0.0425023 0)
(-0.0132646 -0.0468902 0)
(-0.00739436 -0.0499792 0)
(-0.000705137 -0.0513782 0)
(-0.0250412 -0.0274547 0)
(-0.0269937 -0.0339592 0)
(-0.0270688 -0.0405412 0)
(-0.0252005 -0.0469957 0)
(-0.0213737 -0.0529401 0)
(-0.0157242 -0.057888 0)
(-0.00859639 -0.061323 0)
(-0.00060757 -0.0628184 0)
(-0.0316922 -0.0351471 0)
(-0.0330336 -0.0423568 0)
(-0.032338 -0.0496409 0)
(-0.0295524 -0.0567465 0)
(-0.0246847 -0.0632404 0)
(-0.0178987 -0.0685844 0)
(-0.00958301 -0.0722337 0)
(-0.000402299 -0.0737637 0)
(-0.0386142 -0.0433164 0)
(-0.0391114 -0.0510876 0)
(-0.0374755 -0.0589262 0)
(-0.0336648 -0.0665212 0)
(-0.0277066 -0.0733915 0)
(-0.0197957 -0.0789795 0)
(-0.0103584 -0.0827404 0)
(-8.07926e-05 -0.084252 0)
(-0.0457058 -0.0518873 0)
(-0.0451655 -0.060106 0)
(-0.0424444 -0.0683621 0)
(-0.0375146 -0.076291 0)
(-0.0304309 -0.0833911 0)
(-0.0214156 -0.0890947 0)
(-0.0109173 -0.0928659 0)
(0.000372837 -0.0943141 0)
(-0.0528806 -0.0608246 0)
(-0.0511276 -0.069386 0)
(-0.0471934 -0.0779287 0)
(-0.0410699 -0.0860562 0)
(-0.0328352 -0.0932417 0)
(-0.0227371 -0.0989337 0)
(-0.0112403 -0.102633 0)
(0.000981848 -0.103977 0)
(-0.0600378 -0.070117 0)
(-0.0569149 -0.078927 0)
(-0.0516523 -0.0876351 0)
(-0.0442691 -0.0958107 0)
(-0.0348701 -0.102946 0)
(-0.023723 -0.108514 0)
(-0.0112932 -0.112052 0)
(0.00178034 -0.113251 0)
(-0.0670521 -0.0797743 0)
(-0.0624052 -0.0887481 0)
(-0.055709 -0.0974922 0)
(-0.0470168 -0.105575 0)
(-0.0364514 -0.112512 0)
(-0.0243043 -0.117825 0)
(-0.0110222 -0.121122 0)
(0.00281367 -0.122135 0)
(-0.0737359 -0.0898155 0)
(-0.0674158 -0.09887 0)
(-0.0591968 -0.107518 0)
(-0.0491501 -0.115344 0)
(-0.0374438 -0.121924 0)
(-0.0243733 -0.126857 0)
(-0.0103367 -0.129818 0)
(0.00414598 -0.130593 0)
(-0.0797982 -0.100247 0)
(-0.0716636 -0.109277 0)
(-0.0618372 -0.117668 0)
(-0.0504337 -0.125061 0)
(-0.0376541 -0.131115 0)
(-0.0237619 -0.135526 0)
(-0.00910943 -0.138053 0)
(0.00586207 -0.138536 0)
(-0.0847629 -0.110971 0)
(-0.0746824 -0.119826 0)
(-0.0632299 -0.127756 0)
(-0.0505494 -0.134503 0)
(-0.0368148 -0.139844 0)
(-0.0222722 -0.143587 0)
(-0.00721937 -0.145569 0)
(0.00801843 -0.145703 0)
(-0.0876043 -0.121403 0)
(-0.0756544 -0.129789 0)
(-0.0627554 -0.136983 0)
(-0.0490409 -0.142861 0)
(-0.0346547 -0.147321 0)
(-0.0197912 -0.150269 0)
(-0.00464886 -0.151638 0)
(0.010566 -0.151395 0)
(-0.0885355 -0.126714 0)
(-0.075689 -0.134781 0)
(-0.0621137 -0.141551 0)
(-0.0479401 -0.146958 0)
(-0.0333049 -0.150949 0)
(-0.0183489 -0.153487 0)
(-0.00321623 -0.154546 0)
(0.0119474 -0.154117 0)
(0 0 0)
(0 0 0)
(0 0 0)
(0 0 0)
(0 0 0)
(0 0 0)
(0 0 0)
(0 0 0)
(-0.00344875 -0.00358129 0)
(-0.00463688 -0.00532196 0)
(-0.00532679 -0.00711063 0)
(-0.00544717 -0.00888842 0)
(-0.00495679 -0.0105598 0)
(-0.00387816 -0.0120252 0)
(-0.00228668 -0.0131091 0)
(-0.000356839 -0.0136534 0)
(-0.00784356 -0.00827225 0)
(-0.00979949 -0.0115491 0)
(-0.0107951 -0.0148827 0)
(-0.0107417 -0.0181861 0)
(-0.00958841 -0.0212857 0)
(-0.00738121 -0.0239585 0)
(-0.00427078 -0.0258978 0)
(-0.000585853 -0.0268452 0)
(-0.0129949 -0.0138992 0)
(-0.0153012 -0.0184642 0)
(-0.0162657 -0.023098 0)
(-0.0157963 -0.0276738 0)
(-0.0138469 -0.0319419 0)
(-0.0104939 -0.0355775 0)
(-0.00596082 -0.0381801 0)
(-0.000698953 -0.0394025 0)
(-0.018768 -0.0203326 0)
(-0.0210602 -0.0259687 0)
(-0.0217009 -0.0316732 0)
(-0.0206133 -0.0372895 0)
(-0.0177666 -0.0425023 0)
(-0.0132646 -0.0468902 0)
(-0.00739436 -0.0499792 0)
(-0.000705137 -0.0513782 0)
(-0.0250412 -0.0274547 0)
(-0.0269937 -0.0339592 0)
(-0.0270688 -0.0405412 0)
(-0.0252005 -0.0469957 0)
(-0.0213737 -0.0529401 0)
(-0.0157242 -0.057888 0)
(-0.00859639 -0.061323 0)
(-0.00060757 -0.0628184 0)
(-0.0316922 -0.0351471 0)
(-0.0330336 -0.0423568 0)
(-0.032338 -0.0496409 0)
(-0.0295524 -0.0567465 0)
(-0.0246847 -0.0632404 0)
(-0.0178987 -0.0685844 0)
(-0.00958301 -0.0722337 0)
(-0.000402299 -0.0737637 0)
(-0.0386142 -0.0433164 0)
(-0.0391114 -0.0510876 0)
(-0.0374755 -0.0589262 0)
(-0.0336648 -0.0665212 0)
(-0.0277066 -0.0733915 0)
(-0.0197957 -0.0789795 0)
(-0.0103584 -0.0827404 0)
(-8.07926e-05 -0.084252 0)
(-0.0457058 -0.0518873 0)
(-0.0451655 -0.060106 0)
(-0.0424444 -0.0683621 0)
(-0.0375146 -0.076291 0)
(-0.0304309 -0.0833911 0)
(-0.0214156 -0.0890947 0)
(-0.0109173 -0.0928659 0)
(0.000372837 -0.0943141 0)
(-0.0528806 -0.0608246 0)
(-0.0511276 -0.069386 0)
(-0.0471934 -0.0779287 0)
(-0.0410699 -0.0860562 0)
(-0.0328352 -0.0932417 0)
(-0.0227371 -0.0989337 0)
(-0.0112403 -0.102633 0)
(0.000981848 -0.103977 0)
(-0.0600378 -0.070117 0)
(-0.0569149 -0.078927 0)
(-0.0516523 -0.0876351 0)
(-0.0442691 -0.0958107 0)
(-0.0348701 -0.102946 0)
(-0.023723 -0.108514 0)
(-0.0112932 -0.112052 0)
(0.00178034 -0.113251 0)
(-0.0670521 -0.0797743 0)
(-0.0624052 -0.0887481 0)
(-0.055709 -0.0974922 0)
(-0.0470168 -0.105575 0)
(-0.0364514 -0.112512 0)
(-0.0243043 -0.117825 0)
(-0.0110222 -0.121122 0)
(0.00281367 -0.122135 0)
(-0.0737359 -0.0898155 0)
(-0.0674158 -0.09887 0)
(-0.0591968 -0.107518 0)
(-0.0491501 -0.115344 0)
(-0.0374438 -0.121924 0)
(-0.0243733 -0.126857 0)
(-0.0103367 -0.129818 0)
(0.00414598 -0.130593 0)
(-0.0797982 -0.100247 0)
(-0.0716636 -0.109277 0)
(-0.0618372 -0.117668 0)
(-0.0504337 -0.125061 0)
(-0.0376541 -0.131115 0)
(-0.0237619 -0.135526 0)
(-0.00910943 -0.138053 0)
(0.00586207 -0.138536 0)
(-0.0847629 -0.110971 0)
(-0.0746824 -0.119826 0)
(-0.0632299 -0.127756 0)
(-0.0505494 -0.134503 0)
(-0.0368148 -0.139844 0)
(-0.0222722 -0.143587 0)
(-0.00721937 -0.145569 0)
(0.00801843 -0.145703 0)
(-0.0876043 -0.121403 0)
(-0.0756544 -0.129789 0)
(-0.0627554 -0.136983 0)
(-0.0490409 -0.142861 0)
(-0.0346547 -0.147321 0)
(-0.0197912 -0.150269 0)
(-0.00464886 -0.151638 0)
(0.010566 -0.151395 0)
(-0.0885355 -0.126714 0)
(-0.075689 -0.134781 0)
(-0.0621137 -0.141551 0)
(-0.0479401 -0.146958 0)
(-0.0333049 -0.150949 0)
(-0.0183489 -0.153487 0)
(-0.00321623 -0.154546 0)
(0.0119474 -0.154117 0)
)
;

boundaryField
{
    walls
    {
        type            fixedValue;
        value           uniform (0 0 0);
    }
    cylinder
    {
        type            solidBodyMotionDisplacement;
        value           nonuniform List<vector> 
34
(
(-0.154117 -0.0119474 0)
(-0.154117 -0.0119474 0)
(-0.152204 -0.026996 0)
(-0.152204 -0.026996 0)
(-0.148825 -0.0417847 0)
(-0.148825 -0.0417847 0)
(-0.144013 -0.0561709 0)
(-0.144013 -0.0561709 0)
(-0.137814 -0.0700161 0)
(-0.137814 -0.0700161 0)
(-0.130287 -0.0831871 0)
(-0.130287 -0.0831871 0)
(-0.121506 -0.0955569 0)
(-0.121506 -0.0955569 0)
(-0.111555 -0.107006 0)
(-0.111555 -0.107006 0)
(-0.100529 -0.117426 0)
(-0.100529 -0.117426 0)
(-0.0885355 -0.126714 0)
(-0.0885355 -0.126714 0)
(-0.075689 -0.134781 0)
(-0.075689 -0.134781 0)
(-0.0621137 -0.141551 0)
(-0.0621137 -0.141551 0)
(-0.0479401 -0.146958 0)
(-0.0479401 -0.146958 0)
(-0.0333049 -0.150949 0)
(-0.0333049 -0.150949 0)
(-0.0183489 -0.153487 0)
(-0.0183489 -0.153487 0)
(-0.00321623 -0.154546 0)
(-0.00321623 -0.154546 0)
(0.0119474 -0.154117 0)
(0.0119474 -0.154117 0)
)
;
        solidBodyMotionFunction oscillatingRotatingMotion;
        oscillatingRotatingMotionCoeffs
        {
            origin          ( 0 0 0 );
            axis            ( 0 0 1 );
            omega           1.5;
            amplitude       ( 0 0 30 );
        }
    }
    outlet
    {
        type            fixedValue;
        value           nonuniform List<vector> 0();
    }
    inlet
    {
        type            fixedValue;
        value           uniform (0 0 0);
    }
    frontAndBack
    {
        type            empty;
    }
    procBoundary2to0
    {
        type            processor;
    }
    procBoundary2to3
    {
        type            processor;
    }
}


// ************************************************************************* //
