/*--------------------------------*- C++ -*----------------------------------*\
| =========                 |                                                 |
| \\      /  F ield         | OpenFOAM: The Open Source CFD Toolbox           |
|  \\    /   O peration     | Version:  2412                                  |
|   \\  /    A nd           | Website:  www.openfoam.com                      |
|    \\/     M anipulation  |                                                 |
\*---------------------------------------------------------------------------*/
FoamFile
{
    version     2.0;
    format      ascii;
    arch        "LSB;label=32;scalar=64";
    class       volVectorField;
    location    "1264";
    object      U;
}
// * * * * * * * * * * * * * * * * * * * * * * * * * * * * * * * * * * * * * //

dimensions      [0 1 -1 0 0 0 0];

internalField   nonuniform List<vector> 
808
(
(0.7562739043914553 -0.01751714622472142 0)
(1.031534073663462 -0.01258954780238852 0)
(1.111597915171111 -0.003995232711819325 -1.718172654840366e-20)
(1.085127168017687 0.01258036817761011 0)
(1.361880039647028 0.01270906499983952 -3.812673570775031e-19)
(1.038741752083421 -0.009431617632998747 -7.326140819725198e-20)
(1.014552827112083 -0.02083552557941329 -2.439737680820548e-20)
(1.079225973767503 -0.005137311603687494 9.042947467032818e-21)
(1.253509101256602 -0.02181196250722593 6.253444702136869e-20)
(1.085313925828404 0.009302660713228952 0)
(1.00750710765158 -0.0102850134515923 0)
(1.304617268967969 -0.05467563799471634 -3.457419016083646e-19)
(1.086421736351671 -0.001940221611249785 2.044050249326565e-20)
(0.6751982882148064 0.006357775680767828 0)
(1.275053884314301 -0.1199693082788924 0)
(1.081814060921623 -0.0004477227651103843 -3.869316449284695e-20)
(1.224074377664117 -0.1479563483916733 -9.54138818498079e-20)
(1.074242317643409 -0.0003747793570602853 3.20795294130378e-20)
(0.9887709551297897 0.004215880041792124 0)
(1.026736380745595 0.009600424908281981 0)
(1.033036443862603 -0.01419426283480473 0)
(0.9875919724225636 0.04528450784451589 0)
(1.051063278597062 -0.006080047120857885 5.816700182656874e-20)
(1.053833439304461 0.008707156966427671 0)
(0.9335441713215027 0.1990074870389018 4.565533265053317e-19)
(1.161221758463621 -0.08752127015147289 0)
(1.185247549814187 -0.01999337296636736 1.538039332147366e-19)
(1.077224008261154 0.00967820973270184 5.236593241533525e-20)
(1.083694966054454 0.002041220588008302 5.125372862330346e-21)
(1.071770418065623 0.03092555914338539 0)
(1.075262576537915 0.002750321224978922 -1.183905383847995e-20)
(1.033341352110483 0.006643924599466832 -1.872001548734697e-19)
(1.060075926297825 0.01450523681358284 -2.3513220225108e-20)
(1.088738187394687 0.005621667076346528 -2.938663153926284e-20)
(1.121713898834475 0.03743138734633197 0)
(0.7548734173355932 -0.1213140104068618 -4.550433618816266e-19)
(0.9547456129972 -0.005795831468853212 0)
(1.068769229364093 0.02223925823198503 0)
(1.068802073559348 0.007215142484767076 0)
(1.073795761074547 0.008684059628096931 -2.817869140389523e-20)
(1.093309667393881 0.02352246588951807 1.077458546536826e-19)
(1.150652516488301 0.00220187385542826 2.112315282069676e-19)
(1.095776312813467 -0.0022860637784117 0)
(1.015162100002216 -0.009369274479848312 0)
(1.128898801635849 -0.09326036545719674 -1.632720591759895e-19)
(1.044067655861801 -0.01171618941677958 -8.389049622431538e-20)
(1.05816617305542 0.02665852364935631 -2.67649320573986e-20)
(1.229993830977184 -0.112658054905445 -5.558041757614179e-20)
(1.067487637358915 0.01202999926337637 -4.066675192570255e-20)
(1.25733960991586 0.01490432617380309 0)
(0.9971330822588018 -0.01912952406374553 2.212440004840711e-21)
(1.044746737747776 -0.002305276950250672 0)
(1.08741986849125 -0.002157741411540394 0)
(0.9987658033024492 0.007898910925339198 -1.891176155088914e-20)
(1.251650260444852 0.03266214364620867 -2.393371741830276e-19)
(1.063435193746177 0.01812796086065223 5.866499113214646e-20)
(0.9902143162146172 0.01150587828179489 0)
(1.015142698521147 -0.006926530870770126 2.537483412867266e-20)
(1.107481466866682 -0.001386429718549189 -1.15360983592087e-19)
(1.061246493156454 0.03126096711099543 0)
(-0.08477451663325446 -0.01117353530125964 7.725566675430506e-20)
(1.154216181632839 -0.0524559299875267 -1.84464149472098e-19)
(1.004158418951036 -0.00577374877348753 -2.786954095011499e-20)
(1.188179609376984 0.06607398156189848 -1.203093406765127e-19)
(0.9970524495010794 -0.009919802001268232 3.102222294098443e-20)
(1.084136529250235 -0.005456829054035358 0)
(1.248699789560688 0.09221180318172753 0)
(0.6960779493440516 0.003160899725102129 -7.423830540399362e-20)
(0.9882948773570107 -0.01505847727674234 -3.231772718396336e-20)
(1.457655667766155 -0.0201409315458872 4.391471969562806e-19)
(1.060561670167323 0.00760288399072835 -6.524632224059048e-20)
(1.366020116470278 0.09277347976498028 2.83570809756265e-19)
(1.05487497681022 0.006789131226968267 -1.950282491953717e-22)
(1.080933770975543 -0.01401133858095392 -2.39898118290851e-22)
(1.163402912058083 -0.2356089914205008 0)
(1.022233497221597 -0.01511868411466891 0)
(1.01738622670891 0.01809231634787194 -2.988648993538368e-20)
(1.388433315175694 0.3489098269629334 4.233721821199226e-19)
(1.097444098143976 -0.04241821390943661 9.596075511874328e-20)
(1.046533511796789 0.2106399913590786 2.405635360775642e-19)
(1.122749444732559 -0.06136698182814448 1.181034385102276e-19)
(0.9219830205365307 0.005182305236427412 0)
(0.9753528943399181 0.01853724192647154 0)
(1.003992028988132 -0.04849317922257869 3.172590768255063e-21)
(1.010019523868597 -0.01375202409683872 7.820630566409389e-21)
(1.030686639997151 0.02679347060231319 1.350063093186949e-20)
(1.526530093063708 0.03351242394405338 3.210427319468404e-19)
(1.290753954710569 0.06996783730582282 5.641326250311709e-19)
(1.072515738167429 0.003075901939320261 -8.803466959111191e-20)
(1.194121912228624 -0.09646991687842461 0)
(1.033902933193457 0.001757334676582186 1.286952675992714e-19)
(1.165053909972623 0.02045421849358631 -3.122035821296916e-19)
(1.0015096650071 0.03253676055688212 0)
(0.9996280234807234 0.001997057966035948 0)
(1.044247062140724 -0.00010330105293626 8.018684344068118e-20)
(1.218392453577283 0.1056970771048125 4.057764806412903e-19)
(1.011150128317403 0.006963723898779101 0)
(1.08917874655141 -0.06810095912989474 -1.067948789050806e-19)
(1.151379658800684 0.03578740727737829 0)
(1.216112897205873 0.09042470570881721 -1.900761709523157e-19)
(1.108317236101708 -0.02890234482540193 -7.82515657664605e-20)
(1.027607222449612 0.01191835458567625 0)
(1.085201173111762 -0.004593638601866135 0)
(1.019571329536126 0.02646354576673992 7.825841505707964e-20)
(1.074053416782072 0.05651099535418917 -9.485630780264686e-21)
(1.103703258201706 -0.004235283680935734 6.447045027902311e-20)
(1.105893117509488 -0.0919020843260667 1.50456456931092e-19)
(0.9634273818005923 0.001418157123737394 0)
(1.066066606309838 0.03132273566495669 3.681246729222572e-20)
(1.167979642278606 -0.07690584266357026 2.254409270034744e-19)
(1.052662899371092 0.04725119771555906 -2.845675244031561e-20)
(1.022996802812776 0.06803996654339499 3.641011428318779e-20)
(1.090252853398598 0.02611906823707897 0)
(1.017085234919117 0.01402678421807158 0)
(1.02897956803515 0.009362696070943611 7.839806331823576e-20)
(0.9485337756555096 -0.03232474233350291 0)
(1.052959586610225 -0.005432152360189205 -7.384887535634907e-21)
(1.340480485343739 0.05556982088298884 -1.539478579607006e-19)
(1.079660637153497 -0.01318215579809261 2.664890533199606e-20)
(0.7440784689727207 -0.001738757499267363 0)
(0.5843648241574824 0.1869407326284797 -1.130188764609447e-19)
(0.7060666235504922 -0.002479047325661938 0)
(0.6988498242872566 0.01464154468039484 0)
(1.077754119500515 0.003591638944745106 -6.443474674305361e-22)
(0.9906520574361733 0.01446316971424697 0)
(1.280211468255955 0.1219647849842937 2.554595081743534e-19)
(1.012227481316174 -0.02790785778970373 -7.367406707260742e-21)
(1.043337987664336 0.01636825269715807 1.425670345561622e-21)
(1.058584006875174 -0.01220623770605433 0)
(1.126502788338561 -0.009163373409529926 -5.138762100913288e-20)
(1.270501471335559 0.126103376187159 -2.238908708837923e-19)
(1.089054959401484 -0.01088461615453587 -8.61340686633583e-20)
(1.071040639967546 0.02608876777324725 -1.067992459004194e-19)
(1.041051672339006 0.04679903856927376 7.449127386756572e-20)
(1.02255215274155 -0.003628489529607793 -3.477860803299744e-20)
(1.061010686236628 0.02369116011783038 5.688137343326617e-21)
(1.13887747635545 0.004172314317215325 1.036148514481276e-20)
(1.039460349898413 -0.01373192139898048 -4.756401445201559e-22)
(1.087420982478457 0.03474307435214207 0)
(1.028417275626799 0.01368569158303733 0)
(0.783638463879016 -0.0802511153126899 -1.821954020331341e-19)
(1.030302459035592 -0.001889482633201248 -6.525435669808965e-20)
(1.132910754700206 -8.965750507490029e-05 -1.250598406407062e-20)
(0.7034705749589135 0.006553100160730069 7.115162063188248e-20)
(1.175442144574393 0.01889072763349139 -1.974688243222612e-19)
(1.136229747602233 0.003121073166988931 5.270241933581739e-21)
(1.129024525588683 -0.01006435134385553 3.361433831051469e-20)
(1.000933308084105 -0.002970742177024309 -6.682758588062939e-20)
(1.100656220262547 -0.05712495027024311 0)
(0.9898742124989593 0.004486766689837943 0)
(1.057844876503656 0.007020471144535347 0)
(1.006048111945532 0.1892799386408955 -2.359890957631865e-19)
(0.7792923761085434 0.01243834477258906 0)
(0.8570492283102646 0.1027180528965519 -8.200424492524587e-20)
(0.09681386175579933 0.03179337535812701 -2.975333506788055e-19)
(1.171897857253136 -0.03196683298145287 -2.295163953617689e-20)
(0.6712527853999769 -0.007345753680540807 2.454291463474885e-20)
(1.163480104781198 -0.1017694584946347 6.946625835693902e-20)
(1.127073140447038 0.0008385009857557663 -5.872238878250966e-21)
(1.153587379529609 -0.04999416544161973 2.230322351883298e-20)
(0.07820377695810848 -0.2020359738763222 0)
(0.2428268661404335 0.06258324179699866 0)
(1.261013775114776 0.1042102944411276 1.849989427074993e-19)
(1.021209602128964 0.0198451148119578 0)
(0.7376855506161261 -0.006258822559885545 0)
(1.074933321510046 -0.01143055216779054 2.740323506907144e-20)
(0.9749163333681994 0.002884767072153885 0)
(1.295995623217674 0.1184839671797943 -1.467507727445043e-19)
(1.057351398828742 0.01095466504772028 0)
(0.9927768332354034 -0.00725066104642328 0)
(1.065203941179599 0.008242150501130122 0)
(1.00624937281689 0.02091298276970791 2.206629853648957e-20)
(0.9329438490293038 0.008743943678088787 1.291603080844844e-20)
(1.175783859556544 -0.1994663776438889 0)
(1.005054529418274 -0.005201323445626163 8.050959902578603e-20)
(1.059201845798577 0.006283053864939811 0)
(0.7745760211786635 -0.003311328208989538 0)
(1.217748778965564 0.02593420523357633 1.61639003722089e-20)
(0.7050406567062603 0.001367711162378851 0)
(1.432620704074183 0.08370307658431522 -5.097245642914652e-20)
(0.9947292121701327 -0.005243627983322417 1.670053370690377e-20)
(1.274376086476175 -0.004186146220540776 -3.009474095710872e-19)
(1.059765593218189 0.009017179603310436 1.32467584369857e-19)
(1.000906759023864 -0.01353363106313493 0)
(1.209409029853732 -0.1459805114742179 2.05397445372146e-19)
(0.7331714369163032 0.0137849776299493 0)
(1.0982697988241 -0.004916967030053996 0)
(1.156524736058749 0.06638292577490022 1.88371644462003e-20)
(1.006359815397087 -0.006539934162241642 -3.046352139173826e-20)
(1.123077700457311 0.05133588144270885 -1.714942903525961e-19)
(0.135548549769733 -0.09408838313883658 0)
(1.073653033931208 0.03873492473567205 0)
(0.6616681342717169 -0.00287228092057058 -4.920531442889922e-22)
(1.012097520085907 -0.01960964793924162 9.008822634738465e-20)
(1.061512399471668 0.0008732597784009623 0)
(1.080661560811786 -0.1394011604796364 3.775893078284246e-19)
(1.002648436510713 -0.006129717579251709 -3.287077335628395e-21)
(1.003085767205758 -0.004019553550910145 1.076023167481895e-21)
(1.09401137560379 -0.009190391795107167 0)
(1.020770794012138 0.02027128999481832 -6.665995669848101e-20)
(1.106686046291905 -0.001604803388697581 6.321589993371686e-22)
(1.074422843030842 -0.01074287167325775 6.64435137699289e-20)
(1.085628649205647 0.0221707080868074 0)
(1.32537833213376 0.1553822566495494 0)
(1.002084232124236 0.0005517480826754354 4.407022457327923e-20)
(1.319520872829651 -0.1335899218969015 1.606850768291541e-19)
(0.006685190178256431 -0.1536936612316935 -2.303489037744689e-19)
(1.071102157876368 -0.005361885497136662 0)
(1.111243871663952 -0.00469776457644766 1.167016511866959e-20)
(0.7267641549569669 0.01780003689634582 0)
(1.05803162403313 0.01080326724418594 0)
(0.8610886762077953 0.1612041497728229 4.589319613388418e-19)
(1.284766334282849 0.1227597412882706 1.885053234753801e-19)
(0.6541961756311422 -0.003104791188104797 -6.531957313295714e-20)
(1.039757699277905 0.005238694347605078 -3.636810910796543e-21)
(1.054834963728583 -0.0002046858308901601 6.441646639493042e-20)
(1.361911982218197 0.1164174484448399 6.548621216559693e-19)
(1.336992790798802 0.2520204049317748 0)
(1.057780388485367 0.009913576645655522 0)
(0.9986056508169663 -0.004078180126143138 1.372265232975367e-20)
(0.993375041410029 -0.002039717832447935 2.392477665715226e-21)
(1.38493529540976 0.199256446472508 4.329703005906696e-19)
(0.681853531666291 0.0005134788868606339 9.964045768720285e-20)
(1.005710616205325 -0.002188369376935786 -6.020034823839844e-20)
(1.098142902444321 0.01315556514051912 2.560947433021061e-20)
(0.6694512049652025 0.004951920727747491 0)
(1.066084463571696 -0.0120282512652356 0)
(1.009499627278607 0.1363177022766284 -1.416560909965388e-19)
(1.087779227481558 0.002621394031356184 -2.58676545976302e-20)
(0.9819072639397477 8.732908734684234e-05 3.311290765422581e-20)
(0.9912118021508072 0.005996688307242869 0)
(0.6381220018596663 -0.001103239754992199 0)
(0.976719910331917 -0.001267791909021207 0)
(0.6420160708639958 -0.00141531488716647 2.647087381527996e-21)
(1.087442223188846 -0.05567702825712365 1.216121646121216e-19)
(1.109536744674042 -0.005821175022243221 1.143524202784877e-21)
(0.9579974594862923 -0.000855430480722381 3.878803018220919e-20)
(1.017205872548802 0.01042950079410654 1.736702861399568e-20)
(1.065416016395746 0.008216776288925308 -2.387023441804733e-21)
(0.6347935334653249 0.008866384903591304 -3.614440619157566e-20)
(1.005639472256409 0.01101488362641868 -6.19382303154868e-22)
(1.037845709497087 0.008493390913280274 5.308688040302571e-21)
(0.9857418924462557 -0.004343370811560976 0)
(0.609994828660095 -0.0004406315031957213 0)
(1.069020172873287 0.02251686970584245 0)
(1.016070197017363 -0.01683864755409383 1.033325016219276e-20)
(1.022855050538163 -0.005916446381560193 0)
(0.9932319412905388 0.01371798891292225 -9.791060189693501e-21)
(1.009325214367754 0.004213286763096831 0)
(1.134790776722746 0.002215382045885892 -1.226786363069122e-20)
(0.03094213825686242 -0.1407634159659684 -3.938365314717711e-20)
(1.034306805746161 -0.01778796100113797 -6.099478453219303e-22)
(1.043438082243484 0.007833118007456378 0)
(1.08493073911009 0.07035438146124322 8.423710344647919e-20)
(0.9674733378872719 -0.001201439349773 3.110416711845389e-20)
(1.020078246915566 0.01680838033229945 -2.234279221873972e-20)
(1.006086162155476 -0.002322418197850845 2.395920763615329e-20)
(1.038980608118452 -0.007661563590313718 0)
(0.6409395249583706 -0.004087617180013975 0)
(1.025981192091296 0.02449943547800853 -7.975879015293376e-20)
(1.086930256239252 -0.0001934895756228047 5.099798767771948e-20)
(1.012236078213935 0.007430769859631282 0)
(0.9809513112090669 -0.0003800081301134232 -1.932123927995018e-21)
(0.8549591314856239 0.009771139197776134 -1.127846720565427e-20)
(1.013965311082349 0.002768205498597373 -9.5165700657858e-21)
(1.022619518016394 0.001683022649468491 1.859639545936678e-20)
(0.981992497170374 0.0006991221339059987 0)
(1.007842655741421 0.01071143088029953 3.211462981638287e-20)
(1.110530271615509 -0.001600927411922237 0)
(0.9347170764743552 0.01205642556436283 -3.211069380907333e-20)
(0.9534367088882327 6.440545881724222e-05 0)
(0.9006663853205046 0.2019520124638889 4.944630484949398e-20)
(1.011174552590127 0.06750165546824775 0)
(0.9907211516929861 0.004793100319760213 -2.287636358784362e-20)
(1.057464205377514 -0.04894735460815276 -2.78062630375249e-20)
(0.9940188304955616 -5.39532881920459e-05 3.249946111059734e-20)
(1.006694083073324 0.005717111317059528 0)
(0.9804293139765636 0.0005560525011577887 -3.011797824576692e-20)
(1.178779280674328 0.1004221943954709 -3.374405639987156e-19)
(1.068261520409333 -0.2639292483455293 0)
(0.9945116688442855 0.0005775175139077368 -2.263641161947332e-20)
(0.9742986637467174 0.003868339023054754 4.751159018720016e-21)
(0.9594289256270541 -0.002005752300591803 1.02697706544654e-21)
(0.7460053440192392 -0.001066820785048269 0)
(1.118770766494789 -0.06898815589153758 0)
(1.004199678570991 -0.0005036584767575109 -2.243205306673641e-20)
(0.9078519215073889 0.007280968650254632 -1.082052170710435e-20)
(0.8404587564489809 -0.0007973080315064067 3.833569343003739e-21)
(1.011981917570103 -0.006040898654482781 0)
(0.9622610680652998 0.01335053387972213 1.509469220074683e-20)
(1.005650764250516 -0.0001926341275862725 -2.240490380414995e-20)
(1.0265855953548 -0.001701298693738335 -2.47742082800923e-20)
(1.113869288894172 -0.00422101864369299 -4.905826701755955e-21)
(1.115957734682772 -0.005107112438573698 0)
(1.009601155428075 0.001708933524271899 0)
(1.023277485108237 -0.003043215187489852 0)
(0.9456647680245565 0.007344109767724961 -1.992696394200704e-20)
(1.017866973113252 0.01332689506280436 5.636183667025111e-20)
(1.087920723146326 -0.002823897298045401 -2.362078485965162e-20)
(1.038369434529233 -0.002185297749894444 0)
(1.109067670717291 -0.002636933837903107 1.831211204650673e-21)
(0.9944017979300754 0.0009915798654909584 -2.244548173853593e-20)
(0.9797948558466778 -0.0008855184750663812 0)
(1.009948582468726 0.002340142103074176 4.695631957936714e-20)
(1.362858777433548 -0.3139111316494364 -1.119225937615639e-18)
(1.120624056642761 -0.04470751526500341 -1.112177118583615e-19)
(0.9727408092323543 0.01154667112668469 4.4913607288997e-20)
(0.7682354456067186 0.01044376384217975 -3.599450295536676e-20)
(1.223660616224646 0.04916698955507504 0)
(1.215394187173049 -0.1295609928650812 -1.483209615029616e-19)
(1.085771351021885 -0.004414325470851213 0)
(1.008816015461127 0.0004556548140912627 2.288249396750188e-20)
(-0.2003732775894751 -0.1034898454291627 0)
(0.9939696719110322 -0.004672217900088143 0)
(1.012325628890471 -0.02303294730673636 3.879444048958796e-20)
(0.706382391409981 -0.01942784889027781 0)
(1.096792025351708 -0.01492825285218955 2.349723671903489e-21)
(1.038912872493793 0.003746402359258994 1.502457741412472e-20)
(0.6332186692205283 0.00414474850212689 0)
(1.445950546070778 -0.1241700398971798 0)
(0.9857792400438776 0.002063474969429125 -1.067186791839017e-20)
(1.069650835112146 -0.01507325347849318 0)
(1.037841091448227 0.0005377725859072579 2.045180112691198e-20)
(1.084676084379848 -0.001916869292315969 0)
(1.011957694134282 -0.006327076704592083 -1.22353868151069e-21)
(1.006034859824304 0.003314309092663944 0)
(1.008224134496988 0.003482233597919882 -1.231241418406016e-21)
(1.004289815933255 -0.02023795428767963 0)
(1.036078796083216 -0.007720901530313061 1.809356589743334e-20)
(-0.1969922709055751 0.04296844182253701 2.818686413340892e-19)
(0.8063220909259139 0.03048794384024171 5.981122762665253e-20)
(1.005048523499851 0.00217166672201163 0)
(1.121527723265396 0.01145541620838037 -1.217431776878009e-20)
(1.109536940998475 0.004031384119916929 9.364366105837899e-21)
(1.054172000637149 -0.01276786214153749 -1.32983552500204e-19)
(0.9987717153735013 0.01040355656316051 -3.725429451206592e-22)
(1.084316543382728 -0.006095212687267755 0)
(1.188850529328797 0.0502513562783342 0)
(0.8350462003451178 -0.07447854246879247 4.608115576368377e-19)
(1.089810801980136 -0.005196027870232185 0)
(1.033771586408063 0.007906478433333301 -7.719217541636396e-21)
(1.042578352171197 0.005375308698345545 5.637704745019659e-21)
(1.052971307340866 -0.05832999332183085 -7.595163345669258e-21)
(1.139449720132894 -0.002202062675262038 1.724962356960858e-19)
(1.080584871475862 0.002799634690241727 0)
(0.994369897244312 0.001968714197589748 0)
(0.9981810549380632 -0.02617668806377475 -2.432192382684185e-21)
(0.9907584023615461 0.003593048431326915 0)
(1.030395737720748 -0.03651220957342512 6.523196403018349e-20)
(1.291648780762993 -0.09854499056023247 0)
(1.041033287852801 0.0006814768258124017 -3.987578647119992e-21)
(0.986187303157493 0.0168760801273998 -9.097577883291668e-20)
(1.033833483817846 0.04320063420620429 -2.318330837516387e-21)
(-0.07716626170385187 0.1913530995420804 -1.739551501971402e-19)
(-0.06943369317711343 -0.2846028527538123 -1.298553150039151e-19)
(0.8773028247329591 0.1158989147668392 0)
(0.2763086496791684 -0.02532184130847065 -2.984280414272872e-19)
(1.008714458400252 -0.007099431875936023 -9.430817775582043e-21)
(1.063969681550678 0.002710524368175207 -2.062137492653196e-20)
(0.9923140038255053 -0.02182191372319399 3.09176233692312e-20)
(1.027064895250075 -0.02982473113514152 2.685271117502819e-21)
(1.009744503305307 -0.03042637855954537 -6.717822892863196e-20)
(0.9888155396442421 0.004892517044185297 -3.492743674296566e-20)
(0.9937489407456516 0.004942198445121945 0)
(1.024404589325212 -0.002159013800089039 -3.481005583509955e-21)
(1.930759321898923 -0.156467166093474 1.065252645722834e-18)
(1.048213823440402 -0.0118521737107434 0)
(0.9967443907713677 0.007817250175400544 1.486337646966113e-20)
(1.003605786453126 -0.0005519922145480402 3.99310933025844e-20)
(1.170980004337571 0.1588057149343386 0)
(1.006833665951798 -0.02052052115603079 4.033542940834351e-21)
(0.953472882893635 0.003680160008337901 0)
(1.037846030402502 0.04172083371273127 0)
(1.299312014890016 0.1490788804734475 2.202821706690587e-19)
(1.076231022056207 -0.001208600828017303 2.332690870994495e-20)
(1.0160215661082 0.03085458223397453 4.457676510960133e-20)
(1.078275761521104 0.004068965545777967 -2.245908642812904e-20)
(1.058109692756597 -0.02377342551423405 -4.250035281218762e-21)
(-0.3898353945030377 -0.04337425672819007 0)
(0.9994662329670367 0.01247864598713011 0)
(0.1252679798694039 0.05379981705396519 -9.475676917091918e-20)
(1.005834079870505 0.02046394751091163 -3.987739409406489e-20)
(1.007111031709367 -0.02586203992462819 0)
(1.000977577327798 0.005317594824224317 -4.872320833144261e-21)
(1.082011267753595 -0.04233938879032274 0)
(0.9941372404571368 -0.01895567791322107 -8.134364960252521e-21)
(1.099464955548798 -0.04962678059850972 0)
(1.442462967201038 0.1691541093622095 0)
(1.054793425667401 -0.01188125479074154 0)
(0.9916712957335634 -0.02477050697725851 -4.156223640700212e-20)
(0.9911051842058977 -0.02264975851673679 -3.402162428309771e-21)
(1.017208479323343 -0.02179809487865195 -2.172056148519929e-20)
(0.9966685393246157 0.01700251447546555 -5.381885484518043e-20)
(0.9960734211181936 0.009475947212746534 -1.448541896626531e-20)
(0.9954445573554954 -0.0274224119896705 0)
(1.001571133130299 0.02431760869000168 1.872353258496037e-20)
(1.042227368270722 -0.02310518920993414 0)
(1.110804260091075 -0.0364426445293314 2.520134416367789e-19)
(0.9952603499764761 0.01658592794252604 4.455672082888236e-20)
(0.6150435293288604 -0.008694506596601289 0)
(1.156195185254515 0.1599748570710144 7.959764994261128e-22)
(0.8244046454019553 -0.08000339544139945 0)
(1.13874591668218 0.0725373314844955 -2.803414357332173e-19)
(1.314213758092373 -0.3884526407824033 1.276002030954164e-19)
(1.071530201973924 0.06714129485259836 -1.259777424694818e-20)
(1.011694355066476 -0.03026500577620105 0)
(0.9551251009613515 -0.214591123525891 0)
(0.5502614885643173 0.1780254375535036 0)
(1.014921786242772 0.01350626438880432 1.050278249211483e-21)
(0.7113677862670705 -0.01375982762890814 0)
(0.9986853380149507 0.01625767148286729 3.433524753295016e-20)
(1.02613683569785 -0.0005747509364316053 -2.663200895133754e-20)
(1.079037024265199 -0.008013246774208487 2.629551690762101e-21)
(1.054398012335895 -0.02456028916658878 2.527881047955788e-20)
(1.042938624183548 0.01138629956990572 0)
(1.055664522327863 0.02110447984916367 -8.859452853957773e-21)
(1.050917380121972 0.03614031880084152 -1.762978714406286e-20)
(0.9838606778320734 -0.02218896001716895 0)
(0.6248800738035876 0.005116861121105504 9.171594414119927e-20)
(0.894163389451081 -0.005950723690674497 -8.8470310296375e-20)
(0.9093582997737018 0.005224609074770831 1.450556571388927e-20)
(0.6296502252013488 -0.006437988074371942 1.411066115803506e-20)
(0.9808000744780917 -0.0002288238436896225 2.47564154200472e-20)
(1.004408183662082 -0.01755984022368906 -3.290692066222805e-20)
(0.9801553377416921 -0.02615690920828912 -2.727614170160567e-20)
(1.085640931339493 0.001560289698761154 0)
(1.019058747696024 0.00531056701408752 1.057211107041101e-20)
(1.132902035725977 0.04818788148031356 1.351766701946843e-19)
(1.031715855796718 0.04271813720804855 0)
(1.022527981802422 0.002617211617649712 0)
(1.581583088174804 -0.1681504681032024 4.354729643388771e-19)
(1.053077561444894 -0.03510846367540993 0)
(1.02157806205118 0.01046240238950826 -3.593099790947684e-20)
(1.08329282223866 0.003568839397983373 0)
(0.4931851403673398 0.00344681945702199 0)
(-0.01081266351724012 0.005587130354423091 0)
(0.9909938457166728 -0.02349086666747914 1.254933924190546e-20)
(1.300327599765625 -0.09682085602459874 3.660275636462742e-19)
(1.030875799180752 0.03714165141801668 0)
(1.022579902847452 0.003556854080481017 -2.176503748403258e-20)
(0.9298025364790927 -0.1617412345820061 -6.389310754417266e-21)
(1.255881020000034 0.07341097561209024 0)
(0.5983748877631223 0.7309117591212184 0)
(1.306341018711247 0.1406127528122596 1.036538624639087e-19)
(1.674211116062937 -0.02668688243455708 0)
(1.065939919935861 0.133909584986284 0)
(0.7285031519507557 -0.001428853319957203 3.98668636810958e-21)
(1.046531344253433 0.04767679851640042 0)
(0.7445014866566971 0.1121481068848661 1.380891781490979e-19)
(0.9968191823394711 -0.01627557687731629 3.586265087569428e-19)
(1.038537253838441 -0.03885091865108978 2.687970322828455e-20)
(-0.3727467512776123 -0.05626396253077448 0)
(1.072096330091575 -0.01616142451032818 0)
(1.085974759219764 -0.01282558759235187 0)
(0.6478466421274305 -0.5022295527641255 -2.497252394311449e-19)
(0.9905237629584023 -2.930590383895662e-06 0)
(1.092156403643537 -0.02206214944747055 6.890107958271084e-22)
(1.188582543131262 0.1207052863938979 -2.049878750965984e-19)
(1.099390414821005 -0.0425375412133581 0)
(1.005642166239252 -0.02071434650140197 0)
(0.7796826973755019 -0.1928808571727763 -1.656429600880022e-19)
(0.8892819475716754 -0.1425608369553435 1.457008166742927e-19)
(1.033906883463677 0.01217378199015742 -2.048083569084231e-20)
(1.023133164600647 -0.009119399907946916 -4.265458351062772e-20)
(0.8711843476080053 -0.0003206795817551695 4.452160408293506e-23)
(1.503216214798562 -0.1947672065099472 0)
(1.307000704427811 0.1094748755977493 3.008233512032315e-20)
(1.241120551070975 -0.07844554672491218 -3.249011278831771e-21)
(1.095840072764392 -0.01878570392505614 -4.015125060808939e-20)
(1.03809850134639 -0.01852078358852042 3.087076437156325e-20)
(1.09281012658811 -0.03914296006318946 9.579598130752483e-20)
(1.032443377744518 0.02045084778754421 0)
(1.051426374917465 -0.03399427005363492 0)
(1.115884703263265 -0.009007278474036753 0)
(1.100663340905906 -0.03711628233487464 0)
(0.9982537519684153 0.01076401080713822 0)
(1.154248563737731 0.07926817943069946 9.374696326504015e-20)
(1.342911630038651 -0.1604862274617282 0)
(1.041352132638342 -0.02661825715529011 -2.570857104495998e-22)
(1.048915145614736 0.05481484831479978 0)
(1.010062246236159 0.01415653174748277 -3.793103432042698e-20)
(1.03354029468451 -0.007763664605969163 9.389603867249835e-21)
(1.088975004986606 0.01337503172805839 -3.162085115265834e-20)
(1.08426581702278 -0.02884660683039268 0)
(1.073302496149861 -0.001141453391609774 0)
(1.100769905427098 0.09238879927745189 -1.396336236543926e-18)
(0.935023615772263 -0.1486923378706426 -7.110379303996383e-20)
(1.179227014436783 0.1149555465340169 1.141136207952213e-19)
(-0.4540877326168496 -0.03052523808213841 -2.921153231165938e-19)
(1.018449528837252 0.02971227404026344 -8.539407690212874e-20)
(1.00730444635181 -0.001078905691559637 0)
(-0.2429081393460299 -0.001457130563394434 3.580293407122136e-19)
(-0.03451447542038828 0.3218454182218122 7.730925390202831e-21)
(0.9952084474527197 -0.006302245334013002 8.899328537235304e-20)
(0.1830503499758211 -0.04443433971332043 1.286087926716629e-19)
(1.089257984793186 0.09174107250916652 1.433397746961936e-20)
(0.09335607197456232 -0.1084653112531593 -5.381919714706108e-20)
(1.108275564573406 0.003114965926167356 0)
(1.093720485073907 0.2488152026433768 0)
(1.02110132104897 0.02170970917218723 -1.672638102843601e-20)
(1.062674787142022 0.05810478249390247 0)
(1.024498161612279 0.02403089314721612 -8.326195477709618e-21)
(1.261135204807437 -0.5480974986064231 7.986659279730777e-19)
(-0.09644567316558657 -0.2372756220054908 2.072625383009897e-19)
(1.29933004343771 0.1105374987100826 -6.106329033895569e-19)
(1.124093315451963 0.00024440857891038 0)
(1.129287644988583 0.1080794495648284 0)
(0.5197232056782721 0.07587549969031254 2.400671146913912e-19)
(1.023144701448765 -0.02047884579498663 9.614557783115117e-20)
(1.005855282729531 -0.02314260575724269 0)
(1.212511832197251 0.2709863788360785 -9.820883311003454e-20)
(1.253828106547151 0.12537018143676 -1.489445173337364e-19)
(1.026487731449632 0.002954852856789711 1.596101983048952e-20)
(1.296008524937245 -0.08515803858689158 -4.945106888356062e-19)
(0.3101860946954373 -0.02428922615392712 2.918975010043499e-19)
(0.835264718577342 -0.1507435162549692 6.93993728932131e-19)
(1.047288797251142 0.06493796814611594 1.101367200452083e-19)
(1.039025177327713 0.0008560710008576097 1.379412219754637e-21)