/*--------------------------------*- C++ -*----------------------------------*\
| =========                 |                                                 |
| \\      /  F ield         | OpenFOAM: The Open Source CFD Toolbox           |
|  \\    /   O peration     | Version:  2412                                  |
|   \\  /    A nd           | Website:  www.openfoam.com                      |
|    \\/     M anipulation  |                                                 |
\*---------------------------------------------------------------------------*/
FoamFile
{
    version     2.0;
    format      ascii;
    arch        "LSB;label=32;scalar=64";
    class       volVectorField;
    location    "25.7";
    object      U;
}
// * * * * * * * * * * * * * * * * * * * * * * * * * * * * * * * * * * * * * //

dimensions      [0 1 -1 0 0 0 0];

internalField   nonuniform List<vector> 
808
(
(0.895409 -0.0112437 0)
(1.01887 -0.0361827 0)
(1.14006 -0.0566356 0)
(1.06777 0.010584 -2.4469e-21)
(1.48507 -0.282157 0)
(0.954994 -0.0237676 0)
(1.12897 -0.0546657 -2.25548e-21)
(1.14583 -0.0493518 0)
(1.35961 -0.224428 2.61779e-20)
(1.23004 -0.0854651 -8.19486e-21)
(1.14743 0.0328552 9.52412e-21)
(1.39041 -0.249865 0)
(1.00406 -0.0499061 0)
(0.743508 -0.0245197 0)
(0.876064 0.0842996 1.35799e-20)
(1.08993 -0.041259 0)
(0.764672 0.0219319 -4.16341e-21)
(0.989118 -0.0372092 -7.32367e-23)
(1.13929 -0.0228939 0)
(1.11372 0.00151333 0)
(1.17241 0.0140839 -1.32908e-20)
(0.92869 0.121151 1.15752e-19)
(1.07536 0.014394 -1.56642e-20)
(1.17524 -0.0311033 0)
(0.948098 0.176361 0)
(1.34878 0.0844151 -2.45216e-20)
(1.28613 -0.168163 8.62474e-21)
(0.955503 -0.0264585 -3.81376e-21)
(1.0731 -0.0274696 0)
(1.04102 0.0331559 -3.09503e-22)
(0.971989 -0.0223893 3.48307e-24)
(1.12177 -0.013946 0)
(1.06571 0.0330107 0)
(1.06665 -0.0227071 3.02934e-21)
(1.30326 -0.0638897 8.27971e-21)
(0.742767 -0.122721 1.12034e-19)
(0.875544 -0.0300978 -7.45598e-21)
(1.03265 0.0244115 1.58228e-21)
(1.20282 0.0545559 -2.82029e-21)
(1.1086 0.0322802 0)
(1.25687 -0.0563453 -1.529e-20)
(1.27675 -0.126021 0)
(1.01243 -0.00112515 -9.34068e-21)
(1.1171 -0.0344205 1.01117e-20)
(1.25559 0.00658456 0)
(1.01067 0.0171023 -2.23162e-20)
(0.999119 0.0359766 2.40472e-21)
(1.25846 -0.24618 7.08645e-21)
(1.17985 0.0492493 -6.06415e-21)
(1.41381 -0.167593 -3.7819e-20)
(1.12003 -0.0643733 4.82805e-21)
(1.14726 -0.0675849 0)
(1.12133 0.000942903 8.3339e-21)
(1.14928 -0.00212546 0)
(1.31083 0.241824 2.63841e-21)
(1.07726 0.0375843 -2.39095e-21)
(1.22091 0.0163795 0)
(1.22028 0.0108659 4.55226e-21)
(1.2355 -0.087237 8.79666e-21)
(1.14412 0.0246703 -3.65058e-22)
(-0.371399 0.290782 0)
(1.21829 -0.213789 -7.08668e-21)
(1.21466 -0.00814448 0)
(1.42501 -0.0586857 -2.86227e-20)
(1.13777 -0.0135203 -1.0898e-20)
(1.0437 -0.0285911 -9.12463e-21)
(1.3847 -0.10578 3.14455e-20)
(0.658141 0.0202646 0)
(1.12342 -0.0272453 0)
(1.45856 -0.352911 0)
(0.899948 0.0324697 -2.15656e-22)
(1.27288 -0.136667 -4.22604e-20)
(1.01572 0.0569192 0)
(1.05533 -0.0316527 -3.30317e-21)
(1.13038 -0.338738 -5.64233e-20)
(1.10999 -0.0436147 -1.30709e-20)
(1.13926 0.0176696 2.03241e-22)
(1.30923 0.492963 2.44272e-20)
(1.10351 -0.0458216 0)
(1.00969 0.275021 -1.93292e-19)
(1.35745 0.0566222 1.40329e-20)
(0.744766 0.0166232 0)
(0.842728 0.0270092 -1.1236e-20)
(0.969926 -0.111911 4.261e-21)
(1.10194 -0.0438399 1.04177e-20)
(1.182 0.0100778 1.16308e-21)
(1.30459 -0.235223 0)
(1.33795 0.285188 0)
(1.08622 0.00218266 -1.3014e-20)
(1.3666 0.118845 2.79753e-20)
(1.0775 -0.0178915 1.18774e-20)
(1.32407 -0.113089 -1.46876e-21)
(0.964692 0.0249006 1.83875e-20)
(1.00415 -0.0223619 0)
(1.11474 0.0198832 1.88641e-21)
(1.3466 -0.0153558 -7.92259e-20)
(0.756999 0.0187423 -3.24385e-21)
(1.37691 -0.0225786 0)
(1.32533 -0.0786731 0)
(1.44008 -0.0726659 -4.88119e-20)
(1.10352 -0.0510411 -3.7163e-21)
(1.12003 0.0082803 -5.73078e-23)
(0.947751 0.0201406 1.06167e-20)
(1.17379 -0.00123305 -2.38945e-22)
(1.28907 0.0250332 -2.06354e-20)
(1.00404 0.00580452 1.54042e-20)
(1.47198 -0.0214549 0)
(0.909165 0.0638355 0)
(1.09788 0.026986 4.94231e-21)
(1.20902 -0.217259 -6.88954e-21)
(1.25083 0.0147948 8.46038e-21)
(1.04394 0.0436654 -1.27459e-19)
(1.15788 0.035129 -1.83407e-21)
(1.26961 0.106562 1.22256e-21)
(0.795888 0.0182677 0)
(0.918217 -0.0514883 7.70605e-20)
(1.14428 0.0164007 -4.9808e-21)
(1.45433 -0.261701 -1.89053e-20)
(1.13458 -0.0351631 -7.4452e-21)
(0.928678 0.018123 2.37019e-21)
(-0.436609 0.0554741 0)
(0.861942 -0.0170478 2.41095e-21)
(0.799615 0.0215565 0)
(1.06075 0.00360826 -8.92695e-23)
(1.01149 0.0286502 0)
(1.30096 0.323158 4.35349e-21)
(1.03679 -0.0522864 -3.09318e-20)
(1.41614 0.0838125 -1.03924e-21)
(1.14956 -0.0603945 0)
(1.0941 -0.0209915 0)
(0.682609 -0.0259215 0)
(1.14495 -0.0384226 -3.75862e-21)
(1.24012 -0.0460665 8.55469e-21)
(1.06502 0.111426 -3.67661e-20)
(0.854716 -0.0286048 0)
(1.10135 0.0209642 -1.26834e-21)
(1.10222 0.170831 3.80293e-21)
(1.17295 0.0770532 -5.85343e-22)
(0.99634 0.0307674 3.82326e-21)
(1.12307 0.00611429 4.80422e-23)
(-0.0293039 0.00999812 0)
(1.0953 -0.0210458 -1.31813e-20)
(1.03573 0.0191414 4.03446e-21)
(0.723007 0.0242256 -3.84434e-21)
(1.25281 0.171025 4.09898e-21)
(1.13922 0.210729 1.54568e-21)
(1.04629 0.017478 1.65307e-20)
(0.991474 0.0265999 0)
(1.23321 -0.0909932 -3.18116e-20)
(1.11318 0.111744 0)
(0.947037 0.0321193 7.89352e-21)
(0.966776 0.275052 1.54398e-19)
(0.970051 0.0348165 0)
(0.818244 0.0898938 0)
(-0.111443 -0.0162038 -6.09274e-20)
(1.33363 0.139567 -9.23676e-21)
(0.680289 -0.0207057 0)
(1.41955 0.0789818 0)
(1.14994 0.0935233 0)
(1.34697 0.118077 1.04596e-20)
(-0.0485399 -0.145649 0)
(-0.0610335 0.0134477 2.86558e-20)
(1.05801 -0.03849 9.16024e-20)
(1.00542 0.0368085 1.0031e-21)
(0.861092 0.000198922 0)
(1.03904 -0.0434377 1.09612e-20)
(0.889437 0.0213835 0)
(0.805083 -0.0326534 -9.89739e-20)
(1.04118 0.0465235 9.88856e-21)
(1.14298 -0.0299367 3.50496e-21)
(1.09302 0.00994474 6.1781e-21)
(1.01288 0.0675018 -1.31757e-20)
(0.869664 0.199447 -1.53874e-21)
(1.14289 -0.351294 5.43234e-22)
(0.915089 -0.0260723 0)
(1.06803 0.0016113 -1.32361e-20)
(0.874171 0.00840739 -1.24352e-20)
(1.38545 -0.161568 2.22996e-21)
(0.688584 0.0294923 0)
(1.06806 -0.143197 0)
(1.1458 -0.0314178 4.88424e-21)
(1.37886 0.217285 7.30872e-21)
(1.11271 0.0146928 4.4627e-21)
(1.0359 0.0190737 1.94647e-20)
(0.620151 0.0898044 -5.60529e-20)
(0.812996 0.0030416 2.19277e-20)
(1.1398 -0.0197646 5.51975e-21)
(1.37757 -0.0463522 -5.04288e-21)
(1.1285 -0.0286178 -6.41643e-21)
(1.31562 -0.0295953 4.32134e-21)
(-0.112825 0.0169926 4.39077e-20)
(1.26214 -0.01458 0)
(0.627488 -0.0145768 0)
(1.06328 -0.02556 -6.25666e-21)
(1.09697 0.0121136 6.07421e-21)
(0.00443733 0.0597966 0)
(0.883019 -0.0251194 4.56345e-22)
(1.1611 -0.0509277 -3.02095e-21)
(0.961519 0.0338141 1.75032e-21)
(1.0779 0.041322 -8.27035e-21)
(1.00435 0.0189615 2.63305e-21)
(1.06429 -0.0447921 2.66484e-21)
(1.05608 0.0284263 0)
(0.357777 -0.0435483 0)
(1.04691 -0.0642556 0)
(1.11351 0.108076 -2.35131e-20)
(-0.0456481 -0.153838 4.75145e-20)
(1.09378 0.04401 -1.40784e-23)
(1.06265 -0.0875987 0)
(0.757593 0.0203277 -7.37205e-21)
(1.07145 0.0806735 1.92208e-21)
(-0.0059949 -0.0407901 -1.55988e-19)
(0.889816 0.0327919 -6.04665e-20)
(0.636219 -0.0159785 0)
(0.820604 0.109192 0)
(0.932746 0.0406604 7.49565e-21)
(1.03957 -0.113292 6.04702e-21)
(1.26801 0.395176 -6.0018e-21)
(1.03973 0.078963 -6.78876e-23)
(1.24279 -0.0201532 -2.33383e-21)
(0.969766 0.137463 0)
(1.3507 0.420104 -2.70297e-20)
(0.671471 -0.0257937 0)
(0.797897 -0.0245977 -3.51367e-21)
(1.05368 -0.0299317 1.52504e-22)
(0.598485 0.0130259 0)
(1.10049 -0.00625978 0)
(0.118192 0.0693453 -5.0703e-20)
(1.20705 -0.0938566 -4.84197e-22)
(0.715078 -0.016817 1.96282e-21)
(0.990099 -0.00233559 0)
(0.549444 -0.0182538 0)
(0.750319 -0.0203842 -2.95261e-21)
(0.538153 -0.0163728 -2.94511e-22)
(1.35127 0.0559372 2.59273e-22)
(1.20998 -0.0783162 -2.79426e-21)
(0.696098 0.0196861 -2.35323e-21)
(1.14762 -0.0137761 2.91624e-22)
(1.07537 0.0620906 6.39662e-23)
(0.549053 0.0157234 6.42589e-21)
(1.26307 0.0126196 6.78413e-22)
(1.20215 -0.0163881 0)
(0.865209 0.154626 0)
(0.48881 0.0198031 0)
(1.05916 -0.0212036 0)
(1.15682 0.0263054 3.60923e-22)
(1.01705 0.035027 0)
(1.2038 -0.0233036 0)
(1.00467 0.0644136 0)
(1.16629 0.185821 0)
(-0.0280993 -0.0617344 4.83305e-20)
(1.20626 0.0580122 -2.10744e-22)
(1.14705 0.109289 0)
(1.30043 0.0338439 9.50729e-21)
(1.17054 0.0708581 9.7408e-22)
(1.12544 0.034277 1.77135e-21)
(1.15613 -0.11547 4.6119e-21)
(1.16006 0.0259146 0)
(0.578009 -0.0169352 6.61341e-21)
(1.05016 0.0447748 1.28147e-20)
(1.30958 -0.132457 0)
(1.15907 0.020687 -2.14022e-21)
(1.22779 0.076197 2.81977e-21)
(0.597848 -0.0775534 3.20101e-21)
(1.12527 0.0151221 7.28225e-21)
(1.16444 -0.0131862 -5.37887e-21)
(1.08694 0.0163326 0)
(1.22971 0.154908 -8.68112e-21)
(1.21811 0.0826681 1.03492e-21)
(0.66457 0.109832 1.56673e-20)
(0.733847 -0.170339 0)
(-0.0195283 -0.0233658 0)
(0.972919 0.109687 -1.84774e-20)
(1.11321 -0.017309 0)
(1.34887 -0.0978164 3.41327e-20)
(1.25999 0.0457413 3.24125e-22)
(1.12444 0.0294154 5.17083e-21)
(1.22743 0.0526744 -2.65652e-21)
(1.37192 0.0116961 1.12412e-19)
(1.02391 -0.330068 5.69664e-20)
(1.14935 -0.0534266 3.30395e-22)
(0.85194 -0.112267 0)
(0.834682 -0.0681016 0)
(0.905616 0.00406393 -2.79415e-20)
(1.33344 -0.0973128 -6.07233e-20)
(1.126 -0.0657552 0)
(0.647238 0.239743 1.51043e-20)
(0.377998 -0.101054 0)
(0.705101 -0.172257 3.47833e-21)
(0.831764 0.17084 -1.78386e-20)
(0.81532 0.0263481 -4.72784e-21)
(1.19989 -0.102556 0)
(1.28938 0.0231014 -3.78095e-22)
(1.16267 -0.0272643 3.46511e-21)
(0.731009 -0.08691 -2.23663e-22)
(1.16393 -0.076049 -4.2963e-21)
(0.6773 -0.100547 0)
(1.09173 0.0736242 0)
(1.20108 -0.146818 1.53235e-21)
(0.877636 -0.136789 -3.51374e-21)
(1.33455 0.107492 -1.24126e-21)
(1.11453 -0.0627737 -3.43427e-21)
(0.965559 -0.0971001 1.53057e-22)
(1.07538 -0.0344464 0)
(0.423438 -0.140903 1.41963e-20)
(1.33574 0.105479 -1.71573e-20)
(0.802445 0.0199331 -1.86481e-20)
(0.0987087 -0.325966 -3.38535e-21)
(1.42945 -0.116747 2.58711e-20)
(0.834946 0.0506995 5.1496e-20)
(1.30453 -0.126687 -1.72799e-21)
(1.10145 -0.0510353 6.18027e-22)
(-0.0567284 -0.153577 -8.14093e-21)
(1.00015 -0.00628687 0)
(1.03303 -0.0882619 -1.61095e-20)
(0.853609 -0.0345234 8.23999e-21)
(1.10859 -0.0408313 3.92359e-21)
(0.873102 -0.0207289 -8.81614e-22)
(0.513257 -0.0224462 3.13816e-22)
(1.42549 -0.383709 -1.586e-20)
(1.08724 0.044943 0)
(1.0054 0.0243401 3.64403e-22)
(1.12667 0.0314503 -2.84966e-21)
(1.24146 -0.0616029 0)
(0.692111 -0.104893 -8.74322e-21)
(1.12257 0.0507043 3.18787e-21)
(0.671013 0.0884445 4.41006e-21)
(1.16292 -0.0581086 6.94786e-21)
(0.836126 -0.152067 4.78149e-21)
(-0.0379345 -0.095803 0)
(0.147543 -0.0594679 -1.73186e-21)
(1.11742 0.0139529 0)
(0.921056 -0.0968122 -2.83293e-21)
(0.918213 -0.0298189 0)
(1.13711 -0.00705308 4.09809e-21)
(1.01695 0.0272928 0)
(1.1226 -0.1277 0)
(1.3968 -0.105019 2.12847e-20)
(0.79994 -0.0934956 0)
(1.01504 0.0805277 2.88585e-20)
(1.11684 -0.0162541 9.56645e-23)
(1.04038 0.0374747 3.4245e-21)
(1.33687 -0.043871 -1.92448e-20)
(1.23845 0.132209 -1.95368e-21)
(1.25954 -0.0325365 3.55949e-21)
(1.10961 0.0564259 0)
(1.15876 -0.0621649 0)
(1.10153 0.0747603 1.89879e-21)
(1.24691 -0.0342657 0)
(1.38219 0.212295 -2.03395e-20)
(0.770885 0.119914 3.37966e-21)
(1.02677 0.0178834 2.41772e-20)
(1.22757 0.014075 -1.59188e-22)
(-0.00860346 -0.0373712 0)
(-0.037769 -0.103429 0)
(0.0985942 0.0851853 -4.61959e-20)
(-0.0466607 -0.140999 0)
(0.566545 0.222563 -7.20806e-21)
(1.18391 0.0493232 -2.14877e-21)
(1.13232 -0.0554182 -4.90945e-21)
(1.21723 -0.15831 -8.06698e-21)
(1.23438 -0.0584774 0)
(0.681918 -0.0165522 -1.71635e-21)
(1.1456 0.0868721 0)
(1.11178 0.0428665 -2.72007e-22)
(0.513168 -0.110903 0)
(0.598537 0.125333 -6.28787e-22)
(1.16066 0.0794621 0)
(1.1677 0.0262147 0)
(0.604035 0.166832 4.14889e-20)
(0.446753 0.150591 -1.04347e-21)
(0.94274 0.134764 1.1868e-21)
(1.00974 0.0178491 -9.27721e-21)
(0.214782 -0.100346 0)
(1.18189 0.0757343 -2.51043e-20)
(1.2324 0.00879458 -9.9182e-22)
(1.1404 0.0376428 3.48169e-21)
(0.457712 -0.0173669 1.19257e-20)
(-0.0534849 -0.123481 -9.63805e-20)
(1.19892 0.07252 0)
(-0.0315178 0.0299558 0)
(1.23352 0.0345 1.93402e-21)
(0.302695 -0.0675543 -1.28338e-20)
(1.13816 0.00999771 -1.52158e-20)
(1.10944 -0.0474875 0)
(1.11792 -0.0288403 3.25219e-21)
(1.31041 -0.268054 3.03884e-20)
(0.563043 -0.0489507 -1.00122e-20)
(1.14703 -0.0441494 -5.95274e-22)
(1.14895 -0.0716077 -1.67001e-22)
(0.542622 -0.252309 3.31673e-20)
(1.17407 -0.0990903 -1.26354e-20)
(1.13849 0.0242713 0)
(1.20113 0.0919881 0)
(1.18488 -0.109269 4.1029e-21)
(1.21286 0.0248047 8.9635e-22)
(0.831163 -0.158224 -9.3461e-20)
(1.19496 -0.113717 -1.31304e-20)
(1.14787 0.0430029 5.53364e-21)
(0.516237 -0.000896889 1.40515e-20)
(0.431948 0.178337 -8.12654e-20)
(0.146113 0.0864185 5.0234e-20)
(1.16758 0.18578 -6.38781e-21)
(1.24586 -0.499577 6.11916e-21)
(1.30933 0.0445109 -1.07762e-20)
(1.2146 -0.0681683 -4.86218e-21)
(0.94198 -0.240718 9.46854e-20)
(-0.241931 0.0943871 0)
(1.18683 0.0246611 -8.709e-22)
(-0.211822 0.0581816 -2.42718e-20)
(1.22358 0.0709352 -1.67366e-21)
(1.24741 -0.0642602 4.5052e-21)
(1.08757 0.0333338 0)
(0.505908 -0.157025 0)
(1.16678 -0.0480315 0)
(1.27911 0.046128 2.16883e-21)
(1.23874 -0.0170527 -1.82691e-20)
(1.15586 -0.0521912 -2.9821e-21)
(0.451961 0.016755 0)
(0.602235 0.0111985 0)
(0.604012 -0.00311635 4.9084e-22)
(0.423407 -0.0148441 0)
(1.22812 0.00416282 0)
(1.02281 -0.0142925 2.43354e-20)
(0.361982 -0.356194 0)
(0.942766 0.042976 0)
(1.1009 -0.00385965 0)
(1.16687 0.187128 -1.25624e-20)
(1.2371 0.0120365 3.8338e-21)
(0.968615 -0.0322499 7.79272e-21)
(1.31086 -0.404287 -1.1319e-19)
(0.632731 -0.291022 1.44978e-20)
(1.25142 0.145255 4.16064e-21)
(1.16585 0.0142431 0)
(-0.219031 0.0371214 0)
(-0.228592 0.14882 0)
(1.17512 -0.0337615 -5.15201e-21)
(1.33196 -0.289368 -2.82649e-20)
(1.30658 0.0294561 0)
(1.08307 0.0552698 -7.81829e-21)
(0.547181 0.00476052 0)
(1.52249 -0.156412 7.91058e-20)
(0.407946 0.512026 1.2691e-19)
(0.301294 -0.0566948 0)
(1.11613 -0.279825 1.21516e-19)
(0.136993 0.284591 0)
(-0.0205788 -0.342811 1.53218e-20)
(1.27383 0.0378402 0)
(-0.165863 0.16058 5.20922e-21)
(0.983567 -0.0496982 0)
(1.31393 -0.140628 -1.57499e-20)
(-0.145002 -0.0485072 -8.06375e-21)
(1.1329 -0.0326506 8.27037e-22)
(1.10687 0.0301326 -1.40126e-20)
(0.580054 -0.529383 -9.14955e-20)
(1.17835 0.0755293 -1.54764e-21)
(1.19758 -0.12386 3.15789e-21)
(1.17323 0.246958 -2.62141e-20)
(1.19115 -0.290837 -7.70822e-21)
(1.17453 -0.0208622 -2.14642e-22)
(-0.119436 0.170041 -5.53521e-20)
(-0.00368632 0.0511348 -6.20064e-21)
(1.35818 0.152709 3.20005e-21)
(1.05767 -0.0481047 0)
(0.590019 0.160337 2.6667e-21)
(1.4186 -0.44474 8.6293e-20)
(0.965669 -0.0819716 -6.42681e-20)
(1.39614 0.16424 5.67679e-20)
(1.07599 -0.0368653 3.89539e-21)
(1.14061 -0.0244315 1.15831e-20)
(1.06219 -0.00724942 0)
(1.1729 -0.0206882 0)
(1.28443 -0.133519 5.20518e-21)
(1.0885 -0.0187901 -4.55675e-21)
(1.17905 -0.247676 8.49289e-21)
(1.11681 0.057847 -5.37632e-21)
(1.41259 0.00305599 -4.50666e-20)
(0.414378 0.0212611 0)
(1.14971 -0.110115 6.44267e-21)
(1.27187 0.0351423 0)
(1.13712 0.054637 -3.3278e-21)
(1.1449 0.0282883 0)
(1.0406 -0.00840872 1.28215e-20)
(1.23945 0.0468456 1.0319e-20)
(1.04184 -0.0278816 0)
(0.0560553 -0.02964 1.63758e-19)
(0.885208 -0.219838 -7.42671e-20)
(1.30522 0.0702508 -3.06226e-20)
(-0.108926 -0.0719313 3.88709e-20)
(1.18304 0.0188556 1.7667e-22)
(0.647304 0.0290123 -4.18739e-21)
(-0.0960414 -0.054728 -4.05246e-20)
(-0.0174252 -0.0331514 -2.45138e-20)
(1.02119 -0.0288225 0)
(-0.0316985 -0.0433086 0)
(1.15887 0.0714878 0)
(0.112752 -0.114519 0)
(1.11885 -0.0319445 0)
(0.142083 0.0281877 0)
(1.1272 0.0319525 0)
(1.1121 0.0136327 0)
(1.39372 0.0523721 1.15304e-21)
(0.585507 -0.290347 -2.24539e-20)
(-0.149588 0.0705374 0)
(1.17411 -0.0857255 6.6896e-20)
(1.32645 0.115601 7.29631e-22)
(1.26066 0.0863273 0)
(-0.0389271 -0.0442254 0)
(1.16547 0.0161124 -1.11915e-22)
(1.17673 -0.00614546 -6.98403e-22)
(1.16002 0.385512 0)
(0.289971 -0.0903379 6.52394e-20)
(1.12214 0.0654631 1.56622e-21)
(0.240985 -0.0524252 -5.53525e-20)
(-0.0584589 0.0379148 -2.76756e-20)
(-0.0338036 0.0479896 7.30874e-20)
(0.029184 -0.000473759 -6.43405e-21)
(0.918823 0.0658647 3.94046e-21)
(1.15365 0.0469502 -4.79301e-21)
(1.02464 -0.00757579 0)
(1.07072 -0.0678865 -2.13902e-20)
(1.22244 0.0165891 -4.12069e-21)
(-0.0115579 -0.0537613 9.77062e-20)
(0.981181 -0.0734491 -5.9664e-20)
(0.788088 0.0803076 -2.50955e-21)
(1.20456 0.130827 2.30519e-22)
(0.0766291 -0.032079 3.55057e-20)
(0.252085 -0.0384147 -5.01563e-20)
(0.434783 -0.0647128 -5.91673e-20)
(1.27562 0.0317339 -7.81242e-22)
(-0.0568641 -0.0429853 0)
(1.08306 0.159582 -2.5739e-21)
(1.08041 -0.151237 1.4723e-20)
(1.16324 -0.169606 -1.41967e-20)
(1.25803 0.0899258 0)
(1.52544 -0.218046 7.74993e-20)
(1.16137 0.0385969 -3.46156e-21)
(-0.018785 -0.0605341 -3.41783e-20)
(0.241249 0.0671891 0)
(0.90678 0.0422874 -2.56458e-21)
(1.12633 0.0184457 5.31757e-22)
(0.781556 -0.0463248 2.85915e-20)
(1.1711 0.0154907 8.64066e-22)
(1.11822 0.0546687 0)
(1.16393 -0.169728 -1.55191e-20)
(-0.0736079 -0.100386 -7.24639e-20)
(1.30225 -0.0149088 2.12264e-20)
(1.09799 0.1738 -8.65118e-21)
(1.10804 0.0619291 6.14881e-21)
(-0.0450321 -0.0765836 1.62772e-20)
(-0.0179444 0.0147282 -5.4662e-20)
(0.784419 0.119031 0)
(0.642389 0.140534 0)
(1.15003 0.10426 -2.10597e-20)
(1.05068 0.0692263 1.44653e-20)
(1.10757 0.0442462 0)
(0.632562 0.0577387 5.82713e-20)
(0.703122 0.0821173 -9.73736e-21)
(1.09744 0.110396 0)
(1.09613 0.0616956 0)
(1.23894 0.052296 0)
(1.17792 -0.0198701 0)
(1.15828 0.114768 3.52827e-21)
(-0.0426638 0.0421222 3.02239e-20)
(1.25418 -0.016734 7.66549e-21)
(1.43543 -0.185115 -8.90664e-20)
(1.1678 0.0680713 -5.27985e-21)
(-0.0370226 0.167651 0)
(1.14688 -0.100317 0)
(0.615995 -0.0180861 -4.41554e-22)
(0.519481 0.00765801 -5.24748e-20)
(0.067772 0.0357861 4.29808e-20)
(0.927195 0.0224893 -1.63218e-22)
(0.754365 -0.275845 0)
(0.69149 -0.092453 0)
(1.11742 0.0213628 0)
(0.534554 0.50731 1.36547e-20)
(-0.010137 -0.00828628 -2.6605e-20)
(1.15259 0.100444 -1.36762e-21)
(-0.0257392 -0.100789 6.5792e-20)
(1.16291 -0.0436117 1.82741e-21)
(1.16611 0.313383 5e-20)
(1.11319 -0.0852011 8.06129e-21)
(0.256035 0.114435 7.26072e-20)
(1.15098 0.188444 1.06972e-22)
(0.97647 -0.0664203 0)
(0.550612 0.267604 0)
(0.830296 -0.0493917 5.12747e-21)
(-0.193657 0.0357195 0)
(0.603819 0.0289948 2.318e-21)
(0.611799 -0.423698 -3.33151e-21)
(0.231804 0.0484111 -1.01896e-19)
(1.12855 -0.229043 3.08736e-20)
(1.03287 0.358443 1.0818e-20)
(0.979851 0.0148883 0)
(1.19221 0.0615358 2.77386e-22)
(0.628469 0.017352 0)
(0.983537 -0.0243731 -6.06814e-22)
(0.452109 -0.0207323 0)
(0.711792 0.120347 0)
(1.00687 -0.0214375 -4.89525e-21)
(1.42471 0.182587 -9.81533e-21)
(1.14715 -0.0546244 1.04504e-21)
(0.528677 -0.49949 0)
(1.13703 -0.154165 1.89553e-21)
(0.800321 0.370137 7.38493e-20)
(-0.0385384 0.0206424 1.02823e-21)
(1.242 -0.00476347 8.60109e-21)
(1.22637 0.0477151 -7.65522e-21)
(1.22002 -0.0817973 7.48063e-22)
(0.794102 0.00842948 -5.05994e-21)
(0.0602781 0.017827 3.28212e-20)
(-0.0167864 -0.0755953 -5.42979e-20)
(-0.192421 0.0601641 0)
(-0.184875 0.184817 0)
(1.19785 -0.621375 3.34526e-20)
(1.15769 -0.0266856 2.09447e-22)
(0.899711 -0.470261 -4.54391e-20)
(1.07902 0.0654293 5.03731e-21)
(1.34816 0.204829 2.78858e-20)
(0.596669 0.415176 0)
(0.243783 0.408262 -1.20497e-19)
(0.591469 0.470701 0)
(-0.055023 0.0900126 0)
(1.13144 -0.483914 0)
(-0.0394858 -0.0382256 -1.15438e-23)
(1.19089 -0.00894493 0)
(0.703561 0.00361996 3.736e-21)
(0.588162 0.68309 1.99288e-20)
(1.23242 0.031283 -5.30777e-22)
(-0.0319298 -0.137062 -1.15229e-19)
(0.364782 -0.224955 9.2751e-21)
(0.442643 0.142262 -1.22551e-20)
(1.20595 0.102325 0)
(1.34775 0.358573 2.71929e-20)
(1.21256 0.561629 1.39659e-21)
(0.153635 -0.0157818 -1.9325e-20)
(0.969613 0.125726 2.60338e-20)
(0.938116 -0.0352571 7.35314e-22)
(0.900506 0.0258821 -2.0875e-22)
(-0.00694183 -0.0425892 0)
(0.653288 -0.664426 -2.9954e-20)
(0.612609 0.190672 0)
(0.109026 -0.118778 0)
(-0.0415528 0.0338416 0)
(0.0131721 -0.141846 -4.42798e-20)
(1.25197 0.00460406 -9.8885e-21)
(-0.0379426 0.0229711 0)
(-0.0247868 0.00730221 0)
(1.45128 0.12784 -5.43561e-20)
(-0.0393065 -0.104893 5.19106e-20)
(0.113612 0.227814 -1.03677e-19)
(0.375525 0.013893 0)
(0.171451 -0.286932 8.15172e-20)
(1.10543 -0.241875 0)
(1.00086 -0.288875 0)
(0.0171248 -0.124149 1.09655e-19)
(1.15235 0.0445973 -1.75484e-22)
(1.11849 0.339302 3.11918e-20)
(0.254781 0.0272129 4.16431e-20)
(0.408139 -0.525834 -3.59537e-20)
(1.23811 0.0956139 0)
(1.19479 0.195102 1.90688e-20)
(1.20157 0.214003 -2.34254e-20)
(0.101858 0.0801589 -2.38e-20)
(-0.0612146 -0.0642323 0)
(1.07161 -0.0567415 -1.95441e-20)
(1.10656 -0.225401 -1.52156e-20)
(0.58699 -0.415328 0)
(1.09885 -0.151523 -2.58688e-20)
(-0.124689 0.160934 0)
(0.550421 0.033223 0)
(1.38919 0.0407084 3.15827e-20)
(0.991715 0.0415877 4.83011e-22)
(1.06821 0.737084 -2.11844e-20)
(0.227997 -0.386478 1.30925e-19)
(1.12157 0.0468811 8.06257e-22)
(1.20738 0.0837941 -2.1081e-21)
(-0.0405338 0.00993478 2.62159e-20)
(0.77866 0.725077 3.40722e-20)
(1.36008 -0.370122 -1.36375e-20)
(0.0296052 0.209243 7.38092e-20)
(1.11649 0.0238836 0)
(0.105836 0.0725126 -5.3835e-21)
(0.908886 -0.642764 3.00485e-21)
(0.889888 0.635155 -1.23947e-20)
(0.563101 -0.0348888 -6.59092e-20)
(1.14823 -0.001565 -5.56088e-21)
(1.07607 -0.0828191 6.92294e-21)
(1.16907 0.0345906 1.57255e-21)
(1.10472 0.122926 6.31856e-21)
(1.13427 -0.125324 0)
(0.885257 0.108993 1.2308e-20)
(0.875202 0.454543 0)
(1.26306 0.0160615 -6.55729e-22)
(1.16693 0.118897 2.60085e-21)
(0.739518 0.261582 0)
(0.508942 0.108548 9.71726e-20)
(0.885506 0.704355 -1.03869e-21)
(1.07155 0.288378 -2.39549e-20)
(1.04188 -0.00937391 1.22859e-20)
(0.412442 0.480748 0)
(1.3072 -0.476299 0)
(0.6043 0.0950263 4.57862e-21)
(1.2508 0.501282 0)
(-0.0229159 0.0390388 -3.67533e-20)
(1.29321 -0.417282 -1.02531e-20)
(1.15694 0.50593 0)
(0.452157 0.205877 1.72938e-19)
(1.10804 0.314232 -1.06406e-19)
(0.821969 -0.650508 -2.55126e-20)
(1.16554 0.0278729 -3.9674e-22)
(0.898165 0.149909 7.11306e-20)
(1.08443 0.168767 5.89689e-20)
(1.06093 0.697612 2.6543e-21)
(0.910147 -0.446008 6.49977e-20)
(1.41382 0.202366 2.96256e-20)
(1.13349 0.0107548 -1.13515e-21)
(0.00421495 -0.0748249 9.6599e-20)
(1.09235 -0.709691 2.88341e-20)
(0.87893 -0.728898 5.20249e-20)
(0.254154 -0.346758 0)
(0.973305 -0.15118 7.36435e-20)
(0.360214 0.296059 -4.4881e-19)
(-0.0766215 0.0481064 2.70959e-20)
(0.217081 0.0243374 1.84347e-20)
(0.691146 -0.0593253 -7.75221e-20)
(1.07112 0.523654 0)
(0.987665 0.218648 8.56922e-20)
(1.08596 0.0326769 4.26587e-21)
(0.903337 0.435103 -9.52138e-20)
(0.790434 -0.734172 -8.07534e-21)
(0.928228 0.0170332 -5.00418e-20)
(0.971523 0.483306 0)
(1.13528 -0.039308 -6.03813e-22)
(1.39217 -0.517578 1.38616e-20)
(1.23467 -0.343306 9.89083e-21)
(-0.243447 0.214936 2.89627e-20)
(0.195042 -0.00997557 -1.84119e-20)
(0.977174 -0.122327 -5.92466e-20)
(0.348652 0.515311 0)
(0.91485 0.00945816 3.9872e-20)
(1.14497 0.631553 6.76315e-20)
(-0.052432 -0.0659587 1.55694e-19)
(-0.0593388 -0.0155402 -2.17164e-20)
(-0.0875356 -0.12345 4.07693e-20)
(1.09893 0.0264844 -5.83479e-21)
(1.14358 -0.465768 0)
(1.0762 -0.743333 -4.07027e-20)
(0.695183 0.340283 0)
(0.0583807 -0.0693469 -1.16799e-19)
(1.13402 0.0440708 3.42905e-21)
(-0.0403783 -0.132355 -3.05003e-20)
(1.04717 0.0576507 -1.20053e-20)
(0.101416 0.0211454 4.77539e-20)
(0.825036 0.124334 0)
(1.35212 0.0097334 4.40538e-20)
(0.0229863 0.0151486 -2.09321e-20)
(-0.21807 0.158635 -3.44013e-20)
(-0.231432 0.153576 0)
(0.0839719 -0.0222681 0)
(1.31174 0.00284376 -1.32954e-20)
(0.3893 -0.0111985 1.60145e-19)
(1.27863 -0.733794 -2.5062e-20)
(0.880557 0.0833163 3.82934e-20)
(1.06584 0.248848 -3.42261e-20)
(0.372491 -0.570269 1.40068e-19)
(1.52823 0.289046 -2.82613e-20)
(0.0840662 -0.0962638 3.77563e-20)
(0.206725 0.293267 2.00156e-19)
(0.108887 -0.0607715 -1.40617e-19)
(0.948263 -0.500405 -4.34798e-20)
(1.43764 0.389568 2.88051e-20)
(0.573568 -0.686821 4.85443e-20)
(1.1076 -0.0815257 -7.05765e-21)
(0.258054 0.0170219 6.38376e-20)
(1.16076 0.289756 -4.19163e-20)
(0.656515 0.630392 -4.30999e-20)
(1.35093 -0.628921 0)
(1.39987 0.517676 2.98661e-20)
(1.06112 -0.535194 -1.28627e-20)
(1.37399 0.603428 -8.26464e-20)
(1.17312 0.0138617 0)
(-0.0476059 0.0368091 0)
(1.2396 0.724155 0)
(1.1788 -0.0320817 -8.52559e-21)
(0.746442 -0.311143 -2.0885e-19)
(0.477419 -0.0937485 0)
(-0.0525682 0.0253034 -2.22265e-20)
(1.02376 -0.249483 9.90113e-20)
(-0.240787 0.182406 0)
(0.321498 0.0132198 1.24383e-20)
(1.14109 0.0237799 0)
(1.39349 0.277904 0)
(1.18361 0.0265424 4.24868e-22)
(0.363784 -0.304661 0)
(1.01038 0.148564 4.09619e-20)
(1.29021 0.288705 0)
(-0.0803558 -0.00127968 3.56297e-22)
(0.816158 -0.406151 0)
(1.50036 0.346278 -4.28714e-20)
(1.23152 0.366808 5.23829e-21)
(0.834091 0.637484 -1.04088e-20)
(1.00729 0.157129 -9.45393e-20)
(0.971169 -0.208533 -4.82594e-20)
(1.43521 0.299429 2.52383e-20)
(0.951574 0.0918244 0)
(0.564138 -0.0812359 0)
)
;

boundaryField
{
    FrontBack
    {
        type            empty;
    }
    Top
    {
        type            noSlip;
    }
    In
    {
        type            fixedValue;
        value           uniform (1 0 0);
    }
    Bottom
    {
        type            noSlip;
    }
    Out
    {
        type            zeroGradient;
    }
    circle
    {
        type            noSlip;
    }
}


// ************************************************************************* //
