/*--------------------------------*- C++ -*----------------------------------*\
| =========                 |                                                 |
| \\      /  F ield         | OpenFOAM: The Open Source CFD Toolbox           |
|  \\    /   O peration     | Version:  2412                                  |
|   \\  /    A nd           | Website:  www.openfoam.com                      |
|    \\/     M anipulation  |                                                 |
\*---------------------------------------------------------------------------*/
FoamFile
{
    version     2.0;
    format      ascii;
    arch        "LSB;label=32;scalar=64";
    class       surfaceScalarField;
    location    "1701.5";
    object      phi;
}
// * * * * * * * * * * * * * * * * * * * * * * * * * * * * * * * * * * * * * //

dimensions      [0 3 -1 0 0 0 0];

oriented        oriented;

internalField   nonuniform List<scalar> 
1171
(
-0.927937009189084
0.9279370092413487
0.7873176437754802
-1.098825288021682
0.3115076438354085
-0.1943901885692048
-0.7659365145581528
0.9603267033310506
0.07206299029982445
-0.1169498743961188
-0.2118444344341681
0.3287943102729079
-0.7873176540559257
0.06938309684573421
0.7179345571889082
0.8112213484733236
-0.1774805359094822
-0.6337408123545216
0.8744037492161025
-1.043645875929725
0.1692421266506775
-0.2849009523555712
-0.09744843446256127
0.3823493862639074
-0.0358644688961996
0.5484906359483237
-0.5126261669496167
-0.5037866996413503
0.8264098403501673
-0.322623140974844
-0.4018508331569991
1.045913152308338
-0.1715094046295683
0.3954591834750794
0.04766724166247367
-0.4431264226015246
1.046346092522883
-0.0004329414330096358
0.4450043899626138
-0.04954520427481803
1.056993105283595
-0.01064701221747123
0.5774959181914385
-0.7718861122875598
-0.7244708690421615
0.557165045686233
0.1673058235141958
0.2219193664544863
-0.7257060594983306
0.5505401286524889
-0.9228126947392262
0.3722725673760027
-1.094163231926373
0.6863718047748394
0.4077914270340051
-0.5953782343113833
0.5595137555089326
0.0182839676143185
-0.2570698602526085
0.2387858937393574
-0.02457725615763738
-0.5217487895705782
0.5463260473007867
0.4000460694962223
-0.4974945100486665
-0.9187564101267024
0.941396015975171
-0.02263960592633135
1.067583665959715
-0.01059056009816223
0.9351423277308275
-1.116908667435116
0.1817663398595381
1.067194237752231
0.0003894299738192419
-0.664370088697899
-0.0601007843430453
1.262212551366039
-0.864335289954167
-0.3978772613844329
0.1484378299668551
-0.1088707324888703
-0.3262212809137837
0.4350920128659639
-0.2857634121563387
0.1909487524940095
0.09481465907220783
-0.5834190609934271
-0.5154062219612934
1.014051114744152
-0.07890878603788216
0.009948680181701789
0.8254309579466604
-0.8353796382378772
0.5718733409758948
0.6903392079902586
0.439619897443895
-0.03022608703504708
0.4302721573383632
-0.8076616205583849
-0.1025803206020316
0.9102419413275393
0.5026282143993291
0.2537016689692788
-0.7563298834082326
0.00435977582913725
0.5281629501934505
-0.5325227248198561
-0.4898499831931186
-0.6043132510496917
-0.4228930305479568
-0.6940156366961205
-0.02722001461277637
0.2700844792110927
-0.2428644660697981
-0.9248091558731174
-0.005146703549908846
0.9299558593075993
0.3081603455581727
0.07418903662057709
0.7624127337064805
0.04880861852579085
-0.5331295909365376
-0.06224864410338139
0.04632315474297432
-0.8539847772662053
0.07550635254582602
0.8624010082491925
-0.937907360870446
-0.3473424300013605
-0.04144864251696802
0.3887910718873278
-0.6823469724509632
-0.2424621903153617
-0.631409064930054
0.706915418114978
0.6093162783159498
0.2170935681645365
-0.5428522636700748
0.9461359400525854
-0.7794169577695185
-0.1667189824001062
0.02255444107760752
-0.01734727322000965
-0.005207166643650498
-0.4029459302367439
-0.09454857939496217
-0.2415221830910119
0.850838464606788
0.04620793931980446
0.3352471072889742
-0.3814550474385742
-0.4602285170078678
0.9628567362371286
0.6801054931274166
-0.7826858162692901
0.3194867472579668
-0.01723167622677497
-0.3022550726555666
0.9306853044563063
-0.9306853044888648
-0.7828516487945343
0.1107014927463575
-0.3225459317186001
-0.7500458507656916
0.7599945265420491
-0.09021854183933725
-0.142905506190403
0.2331240467306073
0.864998513758326
-0.03956756231666632
1.054270458881459
-0.8005687832308793
0.1859434121047924
-0.3154282914291607
0.1294848798593684
0.8594282089970889
-0.09701547390453072
-0.6118392894990836
-0.03925684981921535
0.6510961392633227
0.1238673253716264
-0.2312065506391605
0.1073392268180799
0.8056864679097663
-0.983167000416056
-0.4354849839617908
0.3296815556218584
0.1058034295237438
0.531337565664297
-0.5559148224613647
1.022096179993895
-0.456245126178463
-0.5658510538824705
0.5992031484540135
-0.719362084641595
0.06680816768552286
0.6525539165295924
0.1030983311209567
0.5705038592817022
0.05486759351203194
-0.6253714525168291
0.1940980075514439
-0.08339650768226113
-0.4932896230714713
0.14594719264394
0.05034999572096184
-0.8868527924568235
0.8365027968505125
-0.4740815599040144
-0.713493644247154
0.04912355501426983
0.4367448265924995
-0.006472673101664133
0.2998487298090539
-0.8552388760218032
0.5553901464013999
0.4157122346578422
0.5842877655119422
0.560529103880676
-0.5142059478327152
-0.365694678413385
0.03467282093370959
0.3310218534823752
0.6813799697942839
0.2493053346503403
-0.5659625423519701
0.5703223197866071
0.110523539276213
0.8750695733400377
0.0102322166879091
-0.6220715093388869
-0.7493348891636588
0.7996848859770731
0.5312470022021033
0.07106907131171672
0.301793843894535
-0.372862914797526
-0.1676129762359955
0.4414922229868858
0.08667071242028199
0.8763478697770986
-0.7975686964195993
-0.0787791732807423
0.6354430668292247
0.3106928711262074
-0.4301659447033888
0.5754174554738886
-0.5043483853080181
0.4172010144420668
0.1333391151641409
-0.04690391063181873
-0.5906335275747103
-0.1377041994805173
0.7283377271060092
-0.1497158195735805
-0.7809694878235187
-0.6110219338362833
0.3607733358864277
0.2502485962404173
0.6222757021058533
-0.6120434859369001
0.2385757720245242
1.011377549398966
0.04289291049214636
-0.7493348851822772
0.2249633498181466
-0.2024089093681416
0.6801054945217682
0.8020964705298155
-0.802096470675087
0.8377292361603772
-0.8333418834432119
-0.004387352627205764
-0.4453879670484857
0.861100196796913
-0.1476129577185944
-0.3456766690835524
0.7347055592130807
-0.6684549075966838
-0.0662506516981792
-0.7312490371437602
0.1406155102388006
0.1386763247497167
-0.6718059157726484
0.7826858178802087
-0.9502987941927209
-0.3654628795353973
0.2902150719648319
0.07524780379113738
0.1459559142190834
-1.009534547077239
0.8635786329071045
0.4809672297515766
-0.04134733243703499
-0.3081935674656697
0.5864906071448966
-0.2782970394335948
-0.7383127940325031
0.8842687063298258
-0.1571412586856291
0.7343899899536479
-0.8405303687232817
0.1061403785441921
0.9775485779833897
-0.5419517124602838
-0.4355968656893436
0.7551925633593445
-0.06490646678076131
-0.03373883830028953
0.1878200587217501
-0.154081220596578
-0.7757422848364911
-0.8462935714394137
0.08035705094542311
-0.7500458528777314
0.5140034174588393
-0.5554520651542082
0.08995266364708865
0.7197064083962749
-0.8096590718514618
0.7537222257527474
0.1742148040211814
0.5028763306337565
0.4971236693300586
-0.05095163415200833
-0.6063859050882993
0.6573375404576495
0.8817780945256752
-0.005430221331399858
-0.7551925633317621
0.7996848851656371
0.1909958541101271
-0.4480657116742396
0.02064296850479937
0.001512173981869289
-0.0221551363459035
0.5891127825894484
-0.4384857734814896
-0.1506270082234526
0.71793456448472
0.01380332903008994
-0.1119035796818449
0.4372095291084044
0.1519032531431508
-0.01396196877132532
-0.005735014970994153
0.01969698319175418
-0.03342753990940787
-0.0003113035990350266
0.2431400720165667
-0.2603717430657411
-0.9592377303654244
0.001842998952202807
-0.1595528452027261
-0.1223228165872925
0.0945762097066993
0.7213345597179033
0.7290488803842868
-0.1447611141070761
0.6617377144287105
-0.5717850517170457
-0.2117903460710345
0.3977337564966464
0.695419883664575
0.02251468077428198
0.2416046799619421
-1.074946563113524
-0.950298792727029
0.3016876688446311
0.7599945223606371
-0.2086163290165298
0.06571082137952092
-0.7231775594547771
0.9098227345793144
-0.1866451751862294
0.4161946465290471
-0.02740358238987855
0.7715963325003685
0.2806379119405833
0.3717927388668607
0.07321164519367623
-0.6586889186626845
0.6586889186388049
0.2146901201245474
0.6955518201964171
-0.05485759159219182
0.3901047093350841
0.3802344234174244
-0.01470619659452227
0.03534914774462108
0.4494807990336535
0.03148642650820693
-0.7383127946616699
0.5341375966448746
0.2005679631975766
0.3062827088471637
-0.1184626577086453
-0.695419884877894
0.1800672457991203
0.7297554895285794
-0.01019743164742559
-0.8137011489365285
0.8238985805863399
0.6962692024195688
-0.7921055106088135
0.09583630832981591
-0.7537222327022067
-0.1499076902348754
0.2109882031502282
-0.06108051400320663
0.07718730557498893
-0.179884362086792
-0.1123051408779284
0.2921895051457474
-0.008204142402345498
-0.005757836996463218
0.7065357242104922
-0.7167331641425186
0.8845191890138319
0.07580750988769049
-0.3144082034132014
-0.5178958737067721
0.832304077050795
0.1030241324263722
-0.1030241279060177
0.3248878927549892
0.4763637647010553
0.6136565773703556
-1.090020342105262
-0.1941434697422502
-0.5856616816811117
0.7798051514561677
0.01275020035605389
0.220373850530774
0.3773092999624266
-0.25344196571665
1.012741439141951
-0.5363776710133116
0.6641932907155823
0.9943454990204871
-0.3806889180037539
0.2296963396667058
0.8842687048252514
0.7127592997874795
0.2136682293955776
0.7277277885885723
-0.7809694881887518
0.341311082301666
-0.2766887062213125
0.2447964607776101
0.03189224105434323
0.8485620470262684
-0.01361786349739094
-0.8349441831233726
-0.7021122886634917
0.7025017199821751
0.5546120314145179
-0.7021122885661258
-0.7127592998151224
0.7025017199571428
-0.03462496690323238
0.9044360875887303
-0.01991690183529751
-0.6813799588143307
0.6123547918313955
0.06902516696171127
0.5388620664816528
0.5372071729888611
-1.076069239425227
0.4922339736260503
0.5205074666874665
0.5430231331568907
0.4598186951197129
-1.00284182821102
0.4986875103054502
0.4956579902074814
0.6123547843034194
-0.5255723536684486
-0.4651802030469924
-0.5562462141475004
-0.5196838229682837
-0.1208239640980475
-0.01222927895988759
0.01222927749932234
0.5123683726210343
0.5229835053960606
-1.042667328242608
0.5755501631051594
-0.2737563203260876
-0.8853581595844191
0.3434064464585022
-0.6329422520165092
0.3904800594405703
0.002004729277710388
-0.8306375481314733
0.8286328186761616
0.420855300795328
-0.01746767443718189
0.8660297213592143
-0.9458172640510233
-0.8348549902722986
0.05544481013728022
0.7794101799111968
0.5595247247107251
-0.4377237987711754
-0.1218009256639226
0.649963616039848
-0.728872402444906
0.8843489522634643
-0.8325611487100494
-0.05178780392541529
-0.009079714979977236
-0.788488978075783
-0.1097044107929708
0.714915952247241
-0.6052115414481043
-0.9362401467558533
0.9271604317101683
-0.7311895855759286
0.6915858638653586
0.03960372158389393
-0.8085415041502252
0.03752952161179728
0.7710119824244904
0.06163557304803654
0.04138855602402434
0.4331878389112598
0.06146830456532548
-0.8509378309032999
0.7894695264425751
-0.6423646619290981
0.5914130251821946
0.8906942625402725
0.06995126939748748
-0.960645531986166
0.05583926832431058
-0.04748045389454804
0.3785023025082268
-0.3812318379533332
0.0658035471696307
0.8422686195628853
-0.8402638898881646
-0.7327340007851457
-0.8091591821559314
0.02067020386578103
-0.1648936898347835
-0.8522538509232583
0.01969270617604369
0.6250492058914376
0.03668850722489707
0.02886910654266689
0.5306556166202301
-0.8067272364372415
0.8442567540161644
0.5658510535587964
-0.8481052224855895
-0.8662888799960109
0.03814720262650564
-0.03920891437380933
0.8378747625769793
-0.7986658482753024
-0.02362103044345296
-0.7719429164910402
0.5443525007111097
0.1519166925139442
-0.03114752419311869
0.8971772454840395
0.9826052396741085
0.8615283865222744
-0.8418356796965287
0.1473671758942852
-0.1473671742380542
-0.1187052991647561
-0.4818337198983023
0.04410992040667141
0.2709314984433234
0.03075616994779918
0.3855960650488144
0.8735562135661272
0.003018936058973606
-0.01122308833852365
0.658615966807199
0.3413840331758247
0.783514226694597
-0.5834190591448434
-0.7780541032434034
-0.8122837148268592
-0.6798621165990449
0.6798621165754477
-0.1677258200044353
-0.1548201125701975
0.60161591479245
-0.8121472932506804
0.2105313784103955
-0.4936959515952443
-0.569004825459183
0.2782366835693469
-0.972252320168574
-0.9016752444464019
0.8498874456691105
-0.8161377253056192
0.8368079279474093
0.6486922971510786
0.1344250996453039
-0.7831173967550281
-0.7726799915650878
-0.1458897370000708
0.7243831743372816
-0.5784934372282782
0.02811902840505308
-0.01527315154749439
0.01859820905927368
-0.003325058886779883
-0.3552378986007151
-0.1265958288439396
0.8798525953050558
0.7413269400789652
-0.2436085036520653
-0.4977184353120748
0.6195260030151082
0.6852409279814842
-0.4705508085509636
-0.0007832240566309663
-0.2849801899681467
0.02598142053852214
0.7447092873992833
-0.7706907083126335
-0.3235600258951681
-0.07204234004745802
0.07551764349780098
-0.9601223915950973
0.1251782074052171
-0.6777221982747433
0.051876856331021
0.6412949719253976
-0.6931718282037174
-0.7568885202952322
0.07916632199494948
0.5883131551004691
-0.6603554952644051
0.1564098345133535
-0.3362941983125102
-0.770999522279315
-0.001680469169493936
0.3712502193495202
0.6015683540727265
-0.02615090194421114
0.0240356215105518
-0.0240356209393725
-0.01796429993276095
-0.05155358695808338
-0.2251351174318549
0.02068520846744156
-0.01766624664907869
-0.734311013804871
0.2793368323538756
0.6797533139072793
-0.6901035976006961
0.01035028348447635
-0.5976995145977091
0.6495763753881123
0.653074722083901
-0.06476157134278207
-0.6317524827975289
-0.1251360328608152
-1.049942167303585
0.01114064013789809
0.1362265331890505
-0.7083295933227401
-0.7414568851212281
-0.7632275517263348
0.3653502885628949
-0.4130721379406537
0.4690455834443103
-0.05597344703614793
-0.6758504020763789
-0.03247919133399495
0.501089177425983
0.7306789452710306
-0.2330375652847775
0.1107147484979183
0.9618028590833797
0.4457953741889454
0.1342797084331384
-0.5800750824977318
-0.6784101876104187
0.002559783776895455
-0.04443269651690648
0.02915955130077635
0.6370300735928849
-0.7747342734284751
-0.002442871487917035
0.002442871092611542
-0.6006258307167194
0.6482213412212869
-0.0475955101826555
-0.6495410782970887
-0.1132639424247495
-0.6716593467744841
0.0507526131253905
0.6065849301160329
-0.1371574957969739
-0.8175490855408049
-0.5556263942719367
0.5665784429571185
-0.01095204746181716
0.6342117586430617
-0.6238614698792012
0.3222493902330601
0.2141947414167192
-0.5364441316706162
-0.1044268143590653
-0.6025294660851996
-0.09064236127861323
-0.1548304608321164
-0.5048737818480467
0.404175935189225
-0.4987245125192104
0.1265129443324911
0.6783347692704008
-0.8048477137615323
0.5992031484564739
-0.3711858265204003
-0.04188631050979868
0.07375050148478743
-0.5786242759566348
0.5518698458697738
-0.04041919445690405
-0.5114506513002754
-0.312200065617129
0.3047482427840892
0.007451822070335898
0.4534178766899621
0.1221322852679044
0.05054525347702543
-0.3157600437637674
0.156654237406433
0.1591058061708069
0.2393216076617757
-0.01435825528467934
-0.2959264092841496
-0.3130721010415683
0.3661899503339984
-0.05311785037440251
0.7893714980230041
-0.6281115197964456
-0.02142955782811173
0.4994129713562755
0.2808819281850458
-0.524490438283591
0.5774886510596232
-0.5774886510627801
-0.2897598777510298
-0.5864756657946829
-0.2955418870020243
-0.5864756657198478
-0.5952952493891973
-0.8385077319542995
0.1700528277202842
-0.5840016149043736
0.8211786699663296
-0.003582218096314613
0.1195190019055138
0.4820493510248291
0.09668643488371496
0.1853033545750641
-0.03622931910014139
-0.1490740379404005
-0.01742316023859577
0.5940919937268989
-0.945931904626946
0.4280360337605724
-0.0005012337010202878
0.00167668032387036
-0.001175449890869833
-0.6432550105594034
-0.1317663525363421
-0.4662539719908109
0.6005336793470706
-0.5037805649855702
-0.3207545943400963
-0.2578697043208081
-0.2714988976298128
-0.1120573158417945
0.1120573159125619
0.1526584257406248
0.05832977061951141
0.1964439915984283
0.4546873397310023
-0.5729368740490319
0.1066829052581163
0.2442952143500804
0.4661653627073957
0.53383463620098
0.6419582859079698
0.08295388802018305
-0.001364428080585439
-0.08158946685144165
-0.2768320316601005
-0.5407170536613541
-0.5487713366796216
0.1140623460677394
-0.12604283820879
0.01198049155054881
-0.1059479820173097
-0.3860958642586058
-0.0442587734115704
0.6508436787636964
-0.4987311456825302
-0.1445238649687962
-0.3381018659361807
0.2915765222151217
0.123126192752891
-0.6042642440669076
-0.2039551339451167
-0.261639752871442
0.001267995238756907
-0.421977454257399
0.3221783085376686
0.09979914493839737
-0.09149429466323845
0.2916098619559308
-0.8959231144195997
-0.4580656347561023
0.6334205183578974
-0.772910972196701
0.668484157788942
0.3426242543100831
-0.1260836589924431
0.2257097140086145
-0.09962605382817578
0.02571490595428285
-0.5862490108630625
0.02932119720712626
0.5569278140967339
-0.9007317630200171
0.546805559741374
-0.6655108590865991
-0.09604445582697414
0.1091627178131125
-0.1091627135173059
-0.3165432691844097
0.3640965987151036
0.01440571301568327
0.02729809889163494
0.05565579087794154
0.5050960991962002
0.6619843027100825
-0.7407634736786972
0.02881029214103071
0.02357578124923092
0.0004598507294362224
-0.00683707727905145
0.006837076769177016
-0.4158489984081432
0.5379812827553846
0.01518777445715786
-0.01518777467429124
-0.7922382520024744
-0.06028489456272047
0.1219204712642593
-0.4538456970912613
0.5605286017070136
0.4503671087761338
-0.4979626239247978
0.1497615523878519
-0.1497615515233346
0.03826703241073294
-0.002917883657763221
-0.04126590989114522
-0.9771750188005776
0.541578151404717
-0.4718224378704092
0.04138855799223509
0.5144346307087792
0.03103229194480416
-0.5454669222398418
-0.6158737812702266
0.117142633305464
-0.3297894825141605
0.01344565969828895
0.3163438234976499
-0.1539264204291144
-0.0791111399134329
-0.5407468611156264
-0.04550215906898707
0.1362265326190755
-0.0411062851023086
0.0386634202864015
0.081625254285769
-0.08162525997885739
-0.5388229058931051
0.4857050670087068
-0.4143676613391283
0.1613376113930107
0.6221766152250349
-0.09802573308524556
-0.005437439039204781
0.005437440049389901
0.5329735359186518
-0.07360862963784565
0.006138584943502932
0.027063814517472
0.03455147543368205
0.6865328787417403
-0.7601415080755364
-0.6591354195723068
0.6377058561803663
-0.1077258755170129
0.3127648086197947
0.7461784746119093
-0.01796430223767419
-0.2671849073670508
0.1487222420922716
-0.7446759962692229
0.4843771533755917
-0.4227633734323748
-0.1014391644377965
0.003605634916862416
-0.01451832568642283
0.01932076072996715
0.4117208469612437
-0.1216782725529398
-0.3897723780452607
0.6289165929536323
0.01906635636548375
0.01054363518105812
-0.01054363549462817
-0.3567801264388553
-0.08413557603601912
-0.560648618771408
0.5570664010446252
-0.2383888104436264
0.4648123222821989
-0.1509801848335698
0.7284760997963908
0.6732583206342041
-0.04110628544529012
-0.6152121540777556
0.5613547406612514
0.2885984566600548
-0.2865905565187762
-0.002007901956776412
0.5462115553433115
0.0933864518422818
-0.03888675122824834
0.1970831081455768
-0.1581963578421562
0.1205119987800263
-0.1205120028121416
-0.8587647047630416
0.002394381559551798
-0.1130474856259601
0.1401113020769479
-0.1320476684226751
0.1320476682838704
0.02357577224445701
-0.02340173011956463
0.6710217641726645
0.05873372434157965
-0.323194014656339
-0.06290185077964595
-0.4712379565569983
-0.04950340898163027
-0.1517924912899341
0.1517924906051101
-0.04332244917714656
0.1431811066235298
-0.1431811063164399
0.1368273626965562
-0.1368273650962998
-0.3155848022208885
-0.1145811426322993
0.2266715320096243
0.1030100235560051
0.03486613152273083
-0.8211142409373348
-0.1974423872158767
0.1703743908052081
0.02062146681587854
-0.2655676390156129
0.1256973066391701
-0.1256973063805316
-0.414036507813327
-0.08468800708543768
0.2366315928750959
0.00215430320987265
0.04051896615679507
-0.5432128708122478
0.5778378377070237
-0.02430178761340423
-0.01902066686376493
-0.02865239580411484
0.02573451367473046
0.006580459030052562
-0.1841841919849181
0.1776037326550152
-0.1079718682111215
-0.2283223325715753
-0.144883318937688
0.1448833185706112
0.07299711990522559
-0.07299711990442957
-0.01949506014563374
-0.1087020217085706
0.1281970825017296
0.2420313031135813
-0.1827151879186717
-0.02548522859356448
0.02594509042871711
-0.1386091988701637
0.6243142694306234
-0.03906018532830796
0.4219193911228792
-0.04202163136655409
0.06171861350813269
-0.1535821148568011
0.1535821135739681
-0.6361896758783966
0.3090225734279995
-0.07932623434934302
-0.2347848019403083
0.003578252614446189
-0.1223458702908623
0.1628648348372997
0.1946050477243196
0.09758445867854365
0.09539143879540833
-0.06083996256530032
0.0725106089759838
0.04155173990869409
0.06382666790041777
0.1065477171283266
-0.09570715618287638
0.2064218953464795
0.0129864952202893
-0.1133734181600444
-0.1019022120463327
0.09797195040559445
0.003930262173881684
0.01303214389522174
-0.02295526648911846
0.03788691235928666
-0.03788691233383281
0.07473723517404189
-0.05472796229816947
0.0547279619655278
-0.2245776021544936
-0.05165480536066231
0.01146087434857368
-0.1031179490064293
0.01631535678827093
0.1082601992423296
-0.1082601989855117
0.2944041881700917
-0.2716234436750011
0.1636515775386696
-0.05061128354914308
-0.2210121612106165
-0.01760324178794702
0.01760324194223972
0.3672800285177011
0.2852738919229145
-0.5273751471675796
-0.09400023273075174
-0.03204260309594324
0.5286176464428611
0.2133789259495266
-0.1696004486139108
-0.3814821854020862
0.07650267371096801
-0.1478889749356887
0.1874490213452581
-0.03956004646322933
-0.06670845768586163
0.06670845770749906
0.8226811483092106
-0.5606720313107428
-0.00347863529619487
0.01651077616337929
-0.0199903602662481
-0.2865864660272108
-0.01748380259171097
-0.01283564368271896
-0.1317315683717916
-0.5719899746944436
0.5559259607530612
-0.5691981222017475
-0.006909176304906833
0.1025710499739673
-0.001789621798932087
0.01675474888651447
-0.1678793349608567
-0.3366871868471774
0.2335692378244973
-0.05460527040015342
0.03511021149977163
0.1317171787777811
0.1730310636915539
0.3360926560099203
0.2768320747308123
-0.2786216962361079
-0.0632387858366032
-0.1548692912426188
-0.2213391385333219
0.07488894682335101
-0.01106227953938838
0.214260596812397
-0.1975058473522377
-0.08627041774695268
0.1587810259204202
-0.3550033838267673
0.2088076426668625
-0.1924922854903843
0.08962478309864731
-0.4793971658785937
0.1746133814738051
0.1697839042522358
-0.2560543214242919
0.07243617214550661
-0.1942161784157448
0.1767323752431695
0.01743710853935712
0.1413439169662902
-0.03954020053588848
0.06629467567478638
0.4666788595341752
0.02028367447686156
-0.07585534267600083
0.05610926837207142
0.1255929811087479
-0.2608991820709652
-0.2308837628647702
0.5597081163480228
0.1578891588622529
0.07874243381669337
0.07579314221564246
-0.03092407137361855
-0.008390509689631773
0.006382597913942381
-0.03279101858424047
0.1712824669735536
-0.1781916427708241
-0.05653457836228547
0.02246643725673292
-0.1466796575181628
-0.05287226270413741
0.1498873214325038
0.2770930936807592
-0.03885793051119109
0.01734400363529474
-0.2557259053134784
-0.1307659420884868
0.2355874511287984
0.1792276213833151
0.1297949498110278
0.02176831458197165
0.08913689997736642
0.05206698054701253
0.4530291185666773
0.0169167541164267
0.09694851823013408
0.04385330403659822
0.0715828099251317
-0.1154361151443083
-0.2421012569634196
-0.2009959293117267
-0.02001622933518404
-0.2023040756235948
0.2757421400893948
)
;

boundaryField
{
    FrontBack
    {
        type            empty;
    }
    Top
    {
        type            calculated;
        value           uniform 0;
    }
    In
    {
        type            calculated;
        value           uniform -1;
    }
    Bottom
    {
        type            calculated;
        value           uniform 0;
    }
    Out
    {
        type            calculated;
        value           nonuniform List<scalar> 10(1.035257106087853 1.064434420202107 1.021426417196286 1.019194975895179 0.9970258685696446 1.015341812946644 1.035351877373955 1.062700777013146 0.8672485241165673 0.882017552811563);
    }
    circle
    {
        type            calculated;
        value           uniform 0;
    }
}


// ************************************************************************* //
