/*--------------------------------*- C++ -*----------------------------------*\
| =========                 |                                                 |
| \\      /  F ield         | OpenFOAM: The Open Source CFD Toolbox           |
|  \\    /   O peration     | Version:  2412                                  |
|   \\  /    A nd           | Website:  www.openfoam.com                      |
|    \\/     M anipulation  |                                                 |
\*---------------------------------------------------------------------------*/
FoamFile
{
    version     2.0;
    format      ascii;
    arch        "LSB;label=32;scalar=64";
    class       surfaceScalarField;
    location    "273.5";
    object      phi;
}
// * * * * * * * * * * * * * * * * * * * * * * * * * * * * * * * * * * * * * //

dimensions      [0 3 -1 0 0 0 0];

oriented        oriented;

internalField   nonuniform List<scalar> 
1171
(
-0.9279401620205032
0.9279401620309383
0.7873809300662297
-1.098986610775671
0.3116056808069621
-0.1928356760727237
-0.7650986647072713
0.9579343406998729
0.0720598243166506
-0.116758822632492
-0.212033482320356
0.3287923046632967
-0.7873809242628994
0.06944934678479017
0.7179315774809171
0.8115531690294073
-0.1776690941017741
-0.633884074994281
0.8744218106752332
-1.043897912790378
0.1694761021155388
-0.2851607423130371
-0.09727096620408782
0.3824317085199847
-0.03591623689062312
0.5486981692752052
-0.5127819323793622
-0.5028201549105018
0.824948684981226
-0.3221285299241181
-0.4019195611834787
1.046028703277992
-0.1716068855517414
0.3943233388591902
0.04767653733697583
-0.4419998765357345
1.046204352595759
-0.0001756481094461406
0.4439491642210167
-0.0496258347460842
1.056887947046064
-0.01068359064146658
0.5778241636419497
-0.7706598368800909
-0.724458331342822
0.5570334802372974
0.1674248510963376
0.2209993380393656
-0.7238194940748165
0.5506473539891896
-0.9228833893277161
0.3722360352797263
-1.094162272504525
0.6863981338958934
0.4077641386065244
-0.59545199463748
0.55953575234353
0.01827405866331994
-0.257073858813734
0.2387998003338981
-0.02419110370951846
-0.5211793380625955
0.545370441199482
0.4002513047844557
-0.4975222686253865
-0.9188143546488495
0.9414164679303231
-0.02260211324930453
1.067508794075605
-0.01062084542751922
0.9350218311268598
-1.116797919811603
0.1817760886757977
1.067058832008457
0.0004499637405463392
-0.664433716512987
-0.06002462321093969
1.262310048416495
-0.8642614633488473
-0.3980485850771317
0.1482444793635152
-0.109008424102492
-0.326452602593062
0.4354610267207159
-0.2857301480368356
0.1909738522670729
0.09475629571641433
-0.5835090390956252
-0.5154775778115206
1.014017253317707
-0.07899542488646111
0.009946386732991395
0.8254407203251167
-0.8353871070473649
0.5718891976038523
0.6904208549102887
0.4396897398480872
-0.03014910599725333
0.4304004124695749
-0.8077299883763892
-0.1025394505969925
0.9102694389409068
0.502429955874528
0.253657207177114
-0.7560871630218844
0.005433903048572756
0.5271547712933317
-0.5325886746680597
-0.489859432140315
-0.6043028338684345
-0.4228481606594935
-0.6939497591901078
-0.02707391674450688
0.2700246422104375
-0.242950725359029
-0.9247348292525677
-0.005098482230056629
0.9298333114940787
0.3084743194079205
0.07395739063750177
0.76227181753312
0.0492813495477341
-0.533167958205532
-0.06228404084971584
0.04624033134108865
-0.8539703135660667
0.07490181156533283
0.8629734259173705
-0.9378752374592302
-0.34717052984215
-0.04158435725574255
0.3887548872950624
-0.6822179636101984
-0.2425168660309706
-0.6320492136892585
0.7069510259007247
0.6105580934680146
0.2143905902792077
-0.5429310495112677
0.9459573915025883
-0.7793168961280937
-0.1666404953471315
0.02052131252251443
-0.01878469455801177
-0.001736617980275444
-0.4030712440215537
-0.09445102589758651
-0.2411033237023661
0.8516614129710931
0.04619658760259752
0.3356650249274852
-0.3818616124488931
-0.4601927840153081
0.9626227397427247
0.680193186471287
-0.7827326286122998
0.3203125558543177
-0.01783084794352947
-0.3024817072098737
0.9307078470021972
-0.9307078469984542
-0.7823213138375136
0.1104731050394261
-0.3225065849401527
-0.7500160883538272
0.7599624735353214
-0.08991030056815953
-0.1431621137314948
0.2330724144983498
0.8650114581927311
-0.03957073874705961
1.054189011633204
-0.8005318046602233
0.1860136940141228
-0.3154543702138269
0.1294406760560924
0.8593928654471863
-0.09712104694243774
-0.6118187345995556
-0.03909892269047863
0.6509176573007379
0.1237976004181923
-0.2311802286142351
0.1073826282083717
0.8057065834669243
-0.9833756780261289
-0.4355021090095423
0.3297048017564896
0.1057973070598727
0.5313140701450045
-0.555505172189759
1.022024128948539
-0.4562121954483148
-0.5658119334816222
0.5991759575685552
-0.7193911264607613
0.06687089243344775
0.6525202339846982
0.103305699293524
0.5702998615331344
0.05511324229458995
-0.6254131038551138
0.1939774577994172
-0.08350434760365368
-0.493238718490672
0.1460681885952388
0.05030735805896746
-0.8867844440448749
0.8364770859793095
-0.4735027897420516
-0.7134831497112265
0.0490494300630893
0.4370165626497919
-0.006616151642361501
0.2998118760926702
-0.8552262317061181
0.5554143556402731
0.4157152839614404
0.584284716014168
0.5604751633908246
-0.5142348276493437
-0.3665091494236911
0.03492628827744691
0.3315828615940705
0.6813790582828727
0.2493287923846778
-0.5655491098539828
0.5709830056746925
0.1105639597861101
0.8751559239840142
0.01018460964348735
-0.6220033493367353
-0.7492931307388041
0.7996004844083393
0.5312009307307665
0.07047303586632031
0.3022887873029318
-0.3727618232464542
-0.1675721708772249
0.4415375372659849
0.08561725686748134
0.8766937091590632
-0.7991642236828652
-0.07752948546095714
0.6353571500505041
0.3106002390404801
-0.4301451618860923
0.5749570516433131
-0.5044840148250913
0.4172280518667019
0.1334193024149152
-0.04686081593546219
-0.5924934160488352
-0.1373028767078696
0.7297962927413371
-0.1497557956220589
-0.7809520472790182
-0.610993873632948
0.3607928428907661
0.2502010308260543
0.6221878922636913
-0.6120032852409529
0.2388819991385626
1.011249355100511
0.04293965396222897
-0.7492931289234391
0.2301528014739112
-0.2096314843733046
0.6801931827408796
0.8019753854329749
-0.8019753854133889
0.8377350318406921
-0.8333126432665071
-0.0044223885629271
-0.4453923746158913
0.8611076615300243
-0.1475163494600745
-0.3457223748287562
0.7346980169204214
-0.6684501838664488
-0.06624783306141775
-0.7317004714829279
0.1392070493976009
0.138664349582646
-0.6718323116551085
0.7827326132221455
-0.9503047840946621
-0.3666321410065259
0.2916157707280803
0.07501637155783984
0.1459744191313593
-1.009637067654609
0.863662648530116
0.4812125987098259
-0.04152285885814225
-0.3081915111394944
0.5865105475233459
-0.2783190364092251
-0.7383742943355713
0.8843487161864996
-0.1571290107071218
0.7333625110624964
-0.8429317608539184
0.1095692498969584
0.9768054358103765
-0.5414978425296221
-0.4353075932461442
0.7551145731486519
-0.06496988216313675
-0.03239922651704377
0.1870903884768049
-0.154691162108177
-0.7757671925565744
-0.8459545728698977
0.08085590932605884
-0.7500160896235565
0.5138426377827197
-0.5554269975971996
0.09191566959323474
0.7202152719723306
-0.812130941591512
0.7537155206219057
0.1742246480200597
0.5028828181485976
0.4971171818529244
-0.04971478912717817
-0.6082730835721132
0.6579878723663919
0.8836554077831092
-0.0069616975708984
-0.7551145731495096
0.7996004801571838
0.1910194963599801
-0.4480933558106349
0.0201243800552464
0.002405417079314462
-0.0225297972969329
0.5887850375304677
-0.438371119198231
-0.1504139184624547
0.7179315728895633
0.01278176202917147
-0.1125920630630488
0.4370003706054079
0.1517846674703458
-0.01492839553936143
-0.005384766221574855
0.02031316151431299
-0.0325401935969255
0.0001409507316403869
0.243297163357537
-0.2611280094290113
-0.959104393575217
0.001612290948445402
-0.1595039134236745
-0.1233349851127881
0.0944462036400098
0.7215194165917211
0.7290584838684717
-0.1447737711178826
0.6651344787225808
-0.5732188108104367
-0.2117278121914247
0.3977415110221761
0.6954346416017898
0.02249693129954611
0.2416387881453411
-1.074951440404343
-0.9503047882937529
0.3018581634229346
0.7599624739074349
-0.2086325727801127
0.06547045813044089
-0.7231317091241385
0.9103947195265089
-0.1872630103694075
0.4159458691684402
-0.02719097932052663
0.7715071992512
0.2806088736640562
0.3721075704822576
0.07184160488559574
-0.6586875894944517
0.658687589496041
0.2146197100783326
0.6956497347636286
-0.05509036568359237
0.3907554004048088
0.3803706602346901
-0.0156430530603751
0.03576742711770689
0.4493707757809122
0.03184181712203103
-0.7383742929740079
0.5341284032060488
0.2005696093729015
0.3057723164476925
-0.1186819160528858
-0.6954346385270177
0.1802352552116847
0.730159465555099
-0.0101521580436163
-0.8137290416972055
0.8238811997363009
0.6962746973547386
-0.7921151994673293
0.0958405020880882
-0.7537155213171047
-0.1495341961187551
0.2107741995647261
-0.06124000349881373
0.0771166073115914
-0.1800241803690727
-0.1118145519365668
0.2918387318954832
-0.009616877554626591
-0.005311519150361645
0.7064230581142082
-0.7165752151303701
0.8846899365719835
0.07324440744843136
-0.3118793733252396
-0.5197204671530872
0.8315998404099973
0.1026193275503197
-0.1026193281139275
0.3265420427476178
0.478462297086297
0.6103046815262274
-1.08876697854839
-0.1941505277366321
-0.5856237239960136
0.779774251730614
0.01223875509681761
0.2208336593464161
0.377272212734109
-0.2534746126578072
1.012890492458699
-0.5344281939757017
0.6643984070238936
0.9936506566112342
-0.3833459752104619
0.229755860872783
0.8843487173685312
0.7127418334759766
0.2136701162399518
0.7277463533655475
-0.7809520455467154
0.3413124224184325
-0.2787600703261525
0.2476224244038919
0.03113764709535059
0.8505108430511019
-0.01553089720894324
-0.8349799458899214
-0.7020582453643669
0.7025082101535266
0.5546076287701719
-0.7020582443774315
-0.7127418334646296
0.702508211711386
-0.03423503415121833
0.9036319314761261
-0.01894199416180767
-0.6813790619659359
0.6123239563367364
0.06905510563988639
0.5389054233832115
0.5377381202658154
-1.076643543667086
0.4919016094376245
0.5209888835388056
0.544363967003537
0.4597587078608169
-1.004122674867624
0.4986574125905444
0.4949932450596706
0.6123239585502097
-0.5256282562818861
-0.4655575749912497
-0.5559166893563101
-0.5191006970313566
-0.1227164914651353
-0.01238121808257852
0.01238121810720202
0.5112478635498995
0.5232826922162616
-1.042383389234198
0.5753010163618067
-0.2730122299283838
-0.8847210989245857
0.3432232579282152
-0.6327967583585722
0.3902798913323579
0.001085625768321712
-0.8308038128686648
0.8297181871458489
0.4208669730927243
-0.01909079038036967
0.869601633303025
-0.9439285859072508
-0.8353600906119084
0.05666639691239212
0.7786936937457771
0.5540043448513903
-0.4366133683048117
-0.1173909766319009
0.6499345097121713
-0.7289299330714488
0.8833400949606556
-0.8315022660956104
-0.05183782882649221
-0.009870908629038479
-0.7892933139941773
-0.1100735013749105
0.7159239626719646
-0.605850461290919
-0.9375477526341464
0.9276768428367197
-0.7350012466519041
0.6906551486302359
0.044346098031199
-0.8050308397984853
0.03403577522246487
0.7709950645797179
0.06162765303465267
0.04099167927344513
0.4332311767570781
0.06058848714859975
-0.8502192423689447
0.7896307552407074
-0.6425484846685056
0.592833692872173
0.8909977877167357
0.07054708525414329
-0.9615448729144835
0.05563769931893926
-0.04808592341341025
0.3796687778927019
-0.3812229319785477
0.06576856176643719
0.8418535304174624
-0.8407679024643352
-0.7317864354881277
-0.8076263286154348
0.01833301495298034
-0.1667355451001805
-0.8506644543196968
0.01916219021319219
0.6254320013228214
0.03970247958405988
0.02304113655643076
0.5309632124418108
-0.8088588503906966
0.8428946249186972
0.5658119414088737
-0.8498945991865113
-0.8670006647696367
0.03663126658196789
-0.03972462298947048
0.8368305960759934
-0.7971059730722536
-0.02094626341307481
-0.771511058797053
0.5443401098143503
0.1519345956701578
-0.02797174537017386
0.8975733799301362
0.9843432425089764
0.8608400811799007
-0.8416778898119985
0.1473058816564836
-0.1473058814102812
-0.118504780942132
-0.4774961243151841
0.04088276036488708
0.2712976412206319
0.03056052221432853
0.3848893140438979
0.8766271164563676
0.003012573241714228
-0.01262944054849741
0.6586191051909998
0.3413808948046194
0.7834916706243573
-0.5835090357362815
-0.7780348763174132
-0.8126368691474672
-0.6799061007026784
0.6799061007133831
-0.1678061423430353
-0.1547004368790555
0.6014837346228655
-0.8118770909049414
0.2103933562913449
-0.4937296285273455
-0.5689617621731851
0.2782229704984668
-0.9721727331043348
-0.9008121805564347
0.8489743533962989
-0.8187095603585602
0.8370425737896378
0.6486106891162662
0.1345333967394084
-0.7831440858627341
-0.7682907718449825
-0.1459459088687989
0.7247337680511708
-0.5787878592185807
0.02418506316703558
-0.0151057379792984
0.01816384576755559
-0.003058107881407202
-0.3546176100355137
-0.1228785164030889
0.8797067045787574
0.7382644308199499
-0.2407468207753568
-0.4975176102784287
0.6208734569731974
0.6852967203004421
-0.4706770063495522
-0.0007946238426320877
-0.2849355225102486
0.02371859402072807
0.7438384212398018
-0.7675570152048815
-0.3235620451052804
-0.07156546479108099
0.07547152838134438
-0.9616084604352321
0.1266285159185027
-0.6773436947422556
0.05258694834650548
0.641211360055286
-0.6937983084312681
-0.7569947664936283
0.07965107176049191
0.5888274222916665
-0.6603928870642999
0.1560286130069899
-0.3360527896999916
-0.7716702282157923
0.003379456339203668
0.3712482202501759
0.6013518038506929
-0.02639475292177736
0.02444481537134092
-0.02444481505178106
-0.01776596642219549
-0.05262557994808345
-0.2261344901634056
0.01896812613669775
-0.01595556922427897
-0.731967751500727
0.2793877266931119
0.6790156105468339
-0.6904927151965092
0.01147710466406538
-0.5984161540848731
0.6510031055763116
0.6534355618752226
-0.06460813672219477
-0.6317327751681348
-0.1252619900210048
-1.04964631753664
0.0112076515590482
0.1360982279818879
-0.7082491608063696
-0.7418062784478455
-0.7634614522055844
0.3654128712770013
-0.4119455748800934
0.470870254055652
-0.05892467872206945
-0.678609366673536
-0.02963979413480521
0.5003094338661671
0.7306789135056624
-0.2331056164578016
0.1097706308412664
0.9582290064679589
0.4456813920773466
0.1338280783773758
-0.5795094704692374
-0.6785146339344096
-9.473037381454961e-05
-0.04446420229994459
0.02935844727879389
0.6374706525140016
-0.774773530472543
-0.002800778986538184
0.002800779310679121
-0.6002056099666029
0.6485841647042423
-0.04837855484109638
-0.6554734952183576
-0.1135269420053018
-0.6717700012459803
0.04899230586095824
0.6089955703708009
-0.1372954354983291
-0.8177159124272948
-0.5553007170347509
0.5686823681617382
-0.01338165176840752
0.6343731558345755
-0.6228960484152596
0.3221965234923745
0.2140638539538832
-0.5362603774366395
-0.1043356303096589
-0.6029486099550811
-0.09084969633922819
-0.1545242172456298
-0.5063084240479754
0.404266696867753
-0.4987177214942545
0.1261893747072256
0.6784785325939835
-0.8046679072565757
0.599175957571757
-0.3737655734449872
-0.03818000873878129
0.06548602226066484
-0.5717944479771655
0.5517942956518908
-0.04032442526780359
-0.5114698703541627
-0.3121916069875674
0.3047759858383103
0.007415620881780398
0.4521013400551894
0.1231996796001157
0.05048694945685654
-0.3157486257830512
0.1566608214822288
0.1590878042616004
0.2484526331603432
-0.01829984512285002
-0.2971716479976353
-0.3139386723680937
0.3679992523392629
-0.05406058085093667
0.7910269194977635
-0.6291815196485281
-0.02629197572538712
0.4995111228732029
0.2821638739428555
-0.5229106909958953
0.5774656141421738
-0.5774656141445597
-0.2897777836453973
-0.5865036385915245
-0.2955205603649581
-0.5865036385335425
-0.5961319994268962
-0.838498091891356
0.1700479069104778
-0.5882987733071288
0.8212179930870835
-0.003632696779982883
0.1198169070597465
0.4815348969377107
0.09668414710440217
0.1852115184414053
-0.03613058197307541
-0.1490809361067057
-0.01961638940856797
0.5932074703948783
-0.9448673831507387
0.4251469179548007
0.0001890495819011203
0.0003910345439781633
-0.0005800834346336042
-0.643395992898085
-0.1318949178308594
-0.4654855639784296
0.5993136451299375
-0.5037563603370367
-0.3164266933119245
-0.2553677710900816
-0.271921185656913
-0.1120171762973992
0.1120171759795347
0.1529792062982167
0.05779498609636978
0.1964191657656945
0.4525704181059593
-0.5719182410286652
0.1064326769512045
0.2478114794636567
0.466122729880214
0.5338772701679154
0.6433206551621642
0.08069794696953614
0.001673268083631363
-0.08237121382657901
-0.2768563125700451
-0.540859599923794
-0.546557681212623
0.1141090647454618
-0.1260780008503677
0.01196893609068222
-0.1060274021032055
-0.3860467955879899
-0.0449044971276965
0.6539000623625241
-0.4989588616783341
-0.1444371312017388
-0.3352113658439633
0.2901292723637293
0.1239458264969538
-0.6028586069649801
-0.2039367312589731
-0.261751858742556
0.0006238473594167631
-0.4215605750372752
0.3217181367777128
0.09984243838446442
-0.08944633766009945
0.291617229699581
-0.8959200604983498
-0.4579882635262882
0.6342836743728131
-0.7729247271402475
0.668589096829908
0.3426694836333496
-0.1265090199035088
0.2258127447685613
-0.09930372489998772
0.02810705806347401
-0.5862086354150889
0.02924903613180473
0.5569595992373584
-0.9007268070675394
0.5468289765918718
-0.6653337574853301
-0.09589302930272788
0.1089507746958757
-0.1089507748880361
-0.3165432446033803
0.3635829055053979
0.01608587854239441
0.02360431701877318
0.05709360845217574
0.5048061783826537
0.6636200591871859
-0.7411495436886653
0.02600972733831274
0.0226887540559731
0.001756061171827147
-0.006513315843387344
0.006513315677508016
-0.4137661281523008
0.5369658067133939
0.01522002007641549
-0.01522002005885816
-0.7923338850441753
-0.05991362892365248
0.1215412842917589
-0.4516845486527527
0.5581172246246253
0.4495365945838668
-0.4979151514349651
0.1497403164300918
-0.1497403160947475
0.04209873745287514
-0.006331311295095884
-0.04091820371550475
-0.9773815459621861
0.5420739545853629
-0.4726907980315093
0.04099167899107205
0.5145451017719563
0.03088034895184462
-0.5454254507776403
-0.6158774383000291
0.1169185786999712
-0.3298131583874779
0.01349097154477249
0.3163221870091276
-0.1536030634399603
-0.07950255233236087
-0.5407447013600299
-0.04546392662930672
0.136098228749403
-0.04152650832124317
0.03872573486067917
0.08193623040833918
-0.08193622987657213
-0.5378516689357355
0.4837910953949284
-0.4143880248131538
0.1613277030024056
0.6221639676303526
-0.09797456933565615
-0.006280969667264417
0.006280969244541069
0.5329936294066064
-0.07189539017770886
0.006331445679252955
0.02714745787511544
0.03447837382768552
0.6881851164553777
-0.7600805067014534
-0.6623907280715982
0.6360987502761092
-0.1091079123854399
0.3128393891096029
0.7460585566452386
-0.01776596648897972
-0.2667762580455206
0.1480943425872585
-0.7446739330382185
0.4842771578800374
-0.4221033064273172
-0.1013323254464431
0.003595414277987913
-0.0146551165867772
0.02064138688923296
0.4122124767341074
-0.1217006042765453
-0.3897692590839247
0.6290183521435426
0.01889451195127327
0.01005108487513922
-0.01005108466073913
-0.357679694257063
-0.08528125118178645
-0.5606504595702654
0.5570177627433635
-0.238323567250554
0.4648099458825483
-0.1507767728199656
0.7286009372437929
0.6728585422400767
-0.04152651383653552
-0.6150739955158937
0.5602664791463146
0.2868081105485128
-0.2844245013422948
-0.002383608616538425
0.5466524067200846
0.09340246323460248
-0.03878420197972834
0.19722339438445
-0.1584391923133563
0.1207204459910792
-0.1207204458787132
-0.8587395454299274
0.002434434308906247
-0.1129148195289007
0.1400622773282189
-0.1320245227233889
0.1320245223475323
0.0226887426819856
-0.02404693627244486
0.6712917915337822
0.05886767590270543
-0.3231992229542962
-0.06284757238739398
-0.4712627073733127
-0.04840326396782098
-0.1518097994865122
0.1518097990861849
-0.040272480260862
0.1431843920714474
-0.1431843916422883
0.1369404884311364
-0.1369404885435606
-0.3156287739152691
-0.1145163879440508
0.226657839652006
0.1030469591004573
0.03485834427128534
-0.8211488168987986
-0.1972090634909801
0.1703585364927649
0.02066095842203785
-0.2655319584148917
0.1257168583529985
-0.1257168579707174
-0.4140642961142801
-0.08465342627061648
0.236604758685783
0.002195040218603403
0.04040972310632997
-0.543474302028791
0.5777093361980068
-0.02299254188023222
-0.01727993714044251
-0.02792052312581498
0.02158920268872071
0.006555916672454807
-0.1841677291460347
0.1776118125752727
-0.1076593604814791
-0.2283934353008891
-0.1448782620963033
0.1448782616644353
0.07294422987534926
-0.07294423014187125
-0.01945974320866142
-0.1087097000375239
0.1281694433669119
0.2405034307019177
-0.1827509226636472
-0.02295161553615797
0.02470767500135774
-0.1366050264040407
0.6203961192560139
-0.03907294572346167
0.4215121914470861
-0.04129718473381116
0.0616103465879846
-0.1536364915560306
0.1536364912131818
-0.6360847091181097
0.3089963060158842
-0.07924044465039995
-0.2347887794692315
0.003608557160190757
-0.1227791502189061
0.1631888734412122
0.194063094296807
0.09777563763887112
0.09477965422487075
-0.06030128064814885
0.07255509123455231
0.04155397460863675
0.06384388034463337
0.1065146585465817
-0.09632421735539903
0.2060948609859086
0.0128518309978329
-0.112279770792088
-0.1026108755202121
0.09787905523376036
0.004731820691245548
0.01263766267927687
-0.02240267007792123
0.03782986014327232
-0.03782986019218007
0.07444424385791523
-0.05476933796127209
0.05476933793450815
-0.2245620986726322
-0.05066942439836557
0.01153416227439027
-0.1031553222944804
0.01622005097867194
0.1082922473849078
-0.1082922471611568
0.2939055355112439
-0.2715386847757775
0.1638793261972525
-0.05041490137095032
-0.2211237809865937
-0.01753045362709384
0.01753045374946261
0.3672529723086428
0.2852672642610853
-0.5273565834884739
-0.09399017166987039
-0.03208783091863904
0.5285806799666283
0.2125829179077039
-0.1690006244177418
-0.3821201378290329
0.07654406004193388
-0.1478562058863377
0.1874430108854343
-0.0395868051423602
-0.06673827275704465
0.06673827295586686
0.8226026166898994
-0.5606131808407401
-0.002318865999661335
0.01495652949501727
-0.02000736661794325
-0.2865953614318631
-0.01746752863777635
-0.01285374350018593
-0.1317386080885029
-0.5720093299652955
0.5559161312764881
-0.5689122420452425
-0.006931555754412792
0.1013984982260547
-0.00182668521383955
0.01669599214901009
-0.1678635803354203
-0.336698972015439
0.2335436497948615
-0.05457411835362077
0.03511437229616308
0.1318045725172367
0.1729714206935622
0.3364860497877179
0.276822195267131
-0.2786488802988485
-0.06388515194235973
-0.15479078589723
-0.221297817463554
0.07487351803449842
-0.01102963549487087
0.2142777531964756
-0.1975817610145424
-0.08624793396227062
0.158803024364884
-0.3548483887593277
0.2088540892858139
-0.192634038425361
0.08965557444020467
-0.4794248321147491
0.1745892644058318
0.1698235631066547
-0.2560714946599906
0.07237698563795801
-0.1942196285162013
0.1767520998801209
0.01742460654077925
0.141378415386172
-0.03954932033141083
0.06634221331539444
0.4666514161100563
0.02029940405212358
-0.07561812937861255
0.05681212126550819
0.1254071626261969
-0.260884637363599
-0.2309016664646495
0.5596987435251016
0.1578376794860998
0.07876708175110272
0.07585731986997016
-0.03096531328771319
-0.00470032978685922
0.002316726637857457
-0.0327504691454901
0.1712662635060296
-0.1781978192114503
-0.05497674246284624
0.02238880217740834
-0.1466465054285276
-0.0528412083864695
0.1511180992596663
0.2770953231791471
-0.03945065437559973
0.01688888579886094
-0.2555844167868458
-0.1301719748276531
0.2355921312968243
0.1793076228074849
0.1296886775577073
0.02164371119285514
0.08909650126603103
0.05198322069214711
0.4528229577039061
0.01758367241191233
0.09698368158243809
0.04378010135632414
0.07163715383543767
-0.1154172554202149
-0.242089317180836
-0.2009513264815252
-0.02017245388382182
-0.2023295103788636
0.2757568693899872
)
;

boundaryField
{
    FrontBack
    {
        type            empty;
    }
    Top
    {
        type            calculated;
        value           uniform 0;
    }
    In
    {
        type            calculated;
        value           uniform -1;
    }
    Bottom
    {
        type            calculated;
        value           uniform 0;
    }
    Out
    {
        type            calculated;
        value           nonuniform List<scalar> 10(1.036265576538728 1.064533679805419 1.021474264350678 1.019646295969921 0.9974968287833977 1.014093942152026 1.034530555954329 1.062691390722109 0.8672433978133693 0.8820241989497186);
    }
    circle
    {
        type            calculated;
        value           uniform 0;
    }
}


// ************************************************************************* //
