/*--------------------------------*- C++ -*----------------------------------*\
| =========                 |                                                 |
| \\      /  F ield         | OpenFOAM: The Open Source CFD Toolbox           |
|  \\    /   O peration     | Version:  2412                                  |
|   \\  /    A nd           | Website:  www.openfoam.com                      |
|    \\/     M anipulation  |                                                 |
\*---------------------------------------------------------------------------*/
FoamFile
{
    version     2.0;
    format      ascii;
    arch        "LSB;label=32;scalar=64";
    class       volScalarField;
    location    "1868.5";
    object      p;
}
// * * * * * * * * * * * * * * * * * * * * * * * * * * * * * * * * * * * * * //

dimensions      [0 2 -2 0 0 0 0];

internalField   nonuniform List<scalar> 
808
(
-0.03291538474307298
0.04367232558969999
-0.01104564681289194
0.03805828178624399
-0.294764156612259
-0.05585030928809584
-0.0157987553972676
-0.02412288845742914
-0.1937813722405401
-0.08233644761967995
-0.01074506224070204
-0.2504567537055767
-0.0307115929765791
-0.01423920896465906
-0.1229406063552151
-0.01425257137095274
-0.1392077000993726
-0.01377714655238497
-0.01280427640800645
-0.05442251593680187
-0.008120988239997439
0.1164396939582804
-0.06375051409926916
-0.07014426604068912
0.174112464971432
-0.1007141466650228
-0.149858086362658
-0.02049150951349084
-0.01762871043060306
-0.02552913777578388
-0.02041187647665017
-0.05713870616369542
-0.02271869347766828
-0.01694904912634495
-0.09798788704345061
0.34505815649352
-0.04014559511333877
-0.01636840940883411
-0.02236572309863804
-0.02646959637089233
-0.0887918174384548
-0.1244452481124946
-0.05307662544138243
-0.02152498867733886
-0.05464138315006544
-0.04283653857823398
-0.01184446304138378
-0.1815141264605036
-0.02638046837383833
-0.2009566952599838
-0.01735249108654514
-0.06568424501635348
-0.06206050040592434
-0.01472314746723754
-0.1964224390459251
-0.0275994975732905
-0.01074415482605871
-0.01479805027720989
-0.09846142853793854
-0.03881749996793991
-0.111976450242462
-0.1236235811132634
-0.01462535544551566
-0.1271437360344039
-0.01764595645045476
-0.05285065085633286
-0.1613469031529099
-0.03534951219649141
-0.01541956747348282
-0.4353362456467513
-0.02600439992939554
-0.2964835849396122
-0.02122144842777985
-0.02122679839089224
-0.06243489856695512
-0.01826751314570562
-0.04152236825107036
-0.3672122641909112
-0.036692350290103
0.03832254814035509
-0.09257435549558121
-0.01669403675459788
0.05732683192398797
0.04632788057355489
-0.01762213933694455
-0.05113710242540732
-0.5355520750876883
-0.2297332160180267
-0.05093460618814086
-0.1139776391838475
-0.05522687613964104
-0.1303972574136803
0.03792248326963406
-0.02695420320255022
-0.06317994502054004
-0.1191250347089684
-0.03818047646983579
-0.05215665598869097
-0.1141902626919859
-0.1375994272000508
-0.05326667354340401
-0.0462570177712121
-0.05319003998281054
-0.04378671618312602
-0.05668735355610668
-0.07592940758123777
-0.03970981719025122
-0.01064122663383741
-0.03939291644785495
-0.1215134736424082
-0.04942071039298055
0.08093477213942842
-0.04157236559662542
-0.00769154542439922
-0.02749723077483547
0.1810728246354053
-0.03774510423723519
-0.2640874249803217
-0.02084523041435823
-0.05228572821406421
-0.04335259153805512
-0.04985216836055011
0.01439155800570817
-0.04730146908763676
-0.03711771389108325
-0.220806270588273
-0.03959417673937094
-0.004235258958834649
-0.07414299225488583
-0.07017019781268237
-0.1488872938492541
-0.02128788648155799
-0.07388223225202976
-0.0446818049074376
-0.0231189555831806
-0.01462999429693232
-0.006001009198498338
-0.007569915419023044
-0.0515711173803079
-0.04854715150974472
-0.2166551249175216
-0.05504227946906674
-0.008107752466224624
-0.02167417020090294
-0.1498811085830742
-0.002291880110540107
-0.07485002103524938
-0.02053593707425994
-3.575601202734634e-06
-0.01050211355675254
-0.03264676317730561
0.09276619588240168
-0.03757827824632051
0.2513130110257036
-0.261289894087129
-0.1345911131170818
-0.03817917361804968
-0.09089946479869697
-0.009127839188554346
-0.1153530036381205
-0.1660182465244119
-0.2165617720534782
-0.1763955794017934
0.05730211646238795
-0.06425279414705194
-0.02065983327835647
-0.06581575712219581
-0.1693238555867056
-0.02284392431773252
-0.01869170840809171
-0.05063468185476702
-0.02122427051209529
-0.007762399286254585
-0.1053309514198539
-0.02371580475898954
-0.04369650179440622
-0.07149486399877518
-0.1585975054645101
-0.03290956573151315
-0.3823603208899449
-0.0179299278174289
-0.2287355520778998
-0.04310197676772074
0.03346254608442322
-0.1064602990175588
-0.01702868427772364
-0.04366598517898718
-0.103856949571126
-0.01788312704726104
-0.09460939664484484
-0.2040507829879716
-0.07069293587838345
-0.02423914378368732
-0.04658499507979816
-0.04163217681707139
-0.2015909474727205
-0.02250759145758566
-0.01939387364406971
-0.0112416585868349
-0.0579277476586031
-0.04931252443527968
-0.02268123720643116
-0.02056940335865003
-0.2317538235788872
0.1266568480298096
-0.2085679550904255
-0.1865821081558334
-0.01171402779618637
-0.01121021669816409
-0.0662588702516409
-0.01044572611518167
-0.4894824684492624
-0.1258312159202893
-0.01974251664232279
-0.0004292316346314307
-0.02355784516696942
-0.2754933513032566
-0.2810018720853538
-0.007537174151734092
-0.01761772184598722
-0.001583174020930076
-0.3521904131359573
-0.02862918115612026
-0.02942063229667113
-0.01269038597483277
-0.0193816724137644
0.04811710846311618
-0.125128690936203
-0.01434135441332976
-0.02096999226488849
-0.04595013373311723
-0.01842523470314072
-0.01643675196446493
-0.02356233000215642
-0.06827003713011302
-0.01092327408563043
-0.01888846579488368
-0.008993342376913059
-0.001297434586994798
-0.02929286857025363
-0.002160372297346338
-0.001923200321794162
-0.00564817433064756
-0.02548584058279781
-0.008090776409305181
0.001593141496725116
-0.00416855106275461
0.001344608561792314
0.002331280281501381
-0.008956381039992146
-0.1287164858079596
-0.002902056391227262
-0.0002331831232915274
-0.0472080160145018
-0.02141571658205403
-0.0234732379493662
-0.01402489664766017
-0.006239151301022496
-0.02116472330499164
-0.04069400660707377
-0.01519321039553415
-0.01268330441389863
-0.01140242554629829
0.007043975525038187
-0.009596839230452167
-0.01309476988244618
-0.01147285403377498
-0.01001772092215221
-0.01025465413052279
-0.01133636405596293
-0.01349963492251067
-0.2894497268143005
0.05843318699679208
-0.01539509395479723
-0.01502757346268705
-0.01235083773826066
-0.01217589290685218
-0.008242224898208705
-0.09867901414928199
0.01338611395061541
-0.01431968945999519
-0.01362032877610868
-0.01052382201406502
-0.05047068957265793
-0.008336468680940085
-0.01375645571069141
-0.01017176459854369
-0.002144931920623489
-0.01170440464481762
-0.01131643611714136
-0.02415107307513364
-0.01540164967972642
-0.01241849952199735
-0.01351295586722535
-0.009583881156354394
-0.01276169080374757
-0.01093547439681011
-0.06037107365920915
-0.01357783110931822
-0.01222992654967568
-0.009249794502260548
-0.01544528856769519
-0.01393526598872981
-0.0156525489524823
-1.36314985989787
-0.1010569000384743
-0.01190339373827106
0.02523543992081947
-0.1604542712498006
-0.09306287360513257
-0.01234933408914976
-0.01423244103073266
-0.2340338041809586
-0.02775768296509403
-0.017235705517051
-0.01254674501489516
-0.02059869015072957
-0.01044204406127155
-0.03082185696687329
-0.406450408980508
-0.01206385734332185
-0.0140799479409658
-0.004362909984495655
-0.01100674389570553
-0.009882629736122438
-0.01379090326375957
-0.007249719335700505
-0.02751923835067083
-0.01186169451759705
-0.1741439637772247
0.0207471506224791
-0.007269368214970083
0.004156652296882605
0.01191408791379623
-0.04932773707780463
0.02709465682398357
-0.01306540544598267
-0.1320036800363966
0.2830277487631257
-0.008237000983347948
-0.01365889762040597
-0.007869130043214562
-0.0331318029635449
-0.1265559634099445
-0.0129319194112714
-0.01187418598046841
-0.01762731131126108
-0.01349347066468822
-0.04181678402527345
-0.2214898715044843
-0.008948549486890736
-0.04421406418058065
-0.03810040352759383
-0.1818979971981019
-0.1498533341678958
-0.1527657008260105
-0.2288466212988704
-0.002546359253072033
-0.02058427943097364
-0.01550308809334467
-0.01406041998048951
-0.03392786066366783
-0.024541127428486
-0.01389639140492776
-0.01487979262564835
-1.066144335735098
-0.003179979732440489
-0.01326158473869925
-0.01795055239193418
-0.02130207927736024
0.004668679167976919
-0.01450889052637769
-0.02484630097657439
-0.1519696575666946
-0.01359106465187373
-0.02083416734099013
-0.01468096887130394
9.329537265121979e-05
-0.1781169789410884
-0.01243135291118717
-0.1584295400865282
-0.01534828119384155
0.004318938393862599
-0.01391100072456711
-0.02444753745904352
-0.01640703698808534
0.007390262748909685
-0.2640406792733838
-0.02692381324218657
-0.01696983283085632
-0.01631455650538688
-0.01118632430115912
-0.02906502873181508
-0.01362887644440845
-0.02125757476398141
-0.02033650172199869
0.009328536324317028
-0.09683364786732546
-0.02098179032537591
0.00967672004698002
-0.05901483676779112
0.1839583818801747
-0.1073354743373749
-0.3149334482843957
-0.02946411128203964
-0.02601784886107645
0.1517334048917401
0.09155695298291669
-0.003899276047252997
0.05388705840230128
-0.01502247762554165
-0.01308431704446885
0.002799061630882806
0.007052959468582473
-0.06428982466019276
-0.004418258355849787
-0.05555118708830331
-0.02338110121139185
-0.01568208386530244
-0.03650802329555945
-0.0329349461686049
-0.006700840430907699
-0.01454596566681792
-0.03615912703022506
0.03020699211646435
-0.0385991269205772
-0.01396260145335071
-0.1205183720658138
-0.03070563422295097
-0.04030347130919121
-0.6662652508754665
0.01393278198405792
-0.01047540068354945
-0.005789473219831472
0.1873702393134461
-0.104204752469934
-0.03614992137746013
-0.2406970771490294
-0.01505160553228528
-0.01595569379664508
0.08153534001234565
-0.1791248287168866
-0.2328476306263151
-0.1838123382237228
-0.673735210514105
0.01002194783720143
-0.01773755487559461
-0.01520954078504063
-0.09766525910304182
0.1189380306854138
-0.02188013649446583
-0.2367280609690232
-0.03656483395014042
-0.007061170044618186
0.2801720601171512
-0.0107407266793968
-0.09013500153950758
-0.154093678105414
-0.004216545175012606
-0.04195265942029413
-0.04772117753390294
-0.1941112162528557
-0.00770107726609751
-0.03925287430781206
-0.003813979297894676
-0.5419024701541265
-0.1920858655844344
-0.1798069666364398
-0.02375860030948845
-0.009405608220197891
-0.06268394392990183
-0.05595280008356984
-0.0156403146294583
-0.07017717658258314
0.005087640135073616
-0.01742865810149129
-0.09443637691635424
-0.2792533611581309
-0.009887299568808296
-0.02463429443712988
-0.02113217838633146
-0.07699837649015401
-0.0883526777135596
-0.09037030869444938
-0.01137073535345228
-0.9039561848328295
0.1625925541895637
-0.082765997967728
-0.2493651636987524
-0.0409931172770421
-0.009013888506399432
-0.2491960478011694
-0.1994712456276669
-0.03024024291981994
-0.1132172741584469
-0.01805751179122397
0.5631521285336609
-0.02548145330579873
-0.2111321943045944
-0.02476028905341617
-0.003784212608375141
-0.01078883086627587
-1.242155288342708
-0.1802438143684653
-0.2251870012048766
0.005206246178677341
-0.0399640762602425
-0.2325996070828885
-0.0676216115019531
-0.05252526204614745
-0.1473497572726558
-0.1789520981478803
-0.07061863036045501
-1.210743091453826
-0.1619844801474555
-0.5459143509915219
0.08025082661899063
-0.005994560555586164
-0.02076109233331573
-0.04531341581349554
-0.03743048346874237
-0.02743927590435582
-0.1286647747212104
0.08195438605904136
-0.004121590766614966
-0.009940582608503183
-0.5588400500642827
-0.8454939083631593
-0.1728178770131523
-0.007556569161633458
-0.1216376801094951
0.0004646435999339723
-0.0003793094955440192
-0.002970003727003905
-0.06195338155067071
-0.2317602737215372
-0.01328524100277783
-0.1090647254229195
-0.1573133198300068
-0.01307177712217063
-0.03406680997539002
0.03038747725497302
-0.05926555292701187
-0.07275856122579386
-0.4900852035894505
-0.2204080811761871
-0.07921889438422781
-0.07643782361016044
-0.01916906459631211
-0.1101007093900378
-0.1672936201467194
-0.08280956554586566
0.02680121554262401
-0.08805599566685686
-0.05108115595968992
-0.01493311958714814
-0.1156960001063932
-0.2834073790111639
-0.06029363908554197
-0.01788201551755563
0.001259835713780115
-0.01022421730130615
-0.0104115555281525
-0.2398868151002287
-0.01398142811211569
-0.2150962489296922
-0.01076852741417351
-0.07431744889130622
-0.004178106372223272
-0.02327800713369894
-0.3956852652878695
-0.9333887245952214
-0.01122368109045884
-1.037324519023627
-0.5983568858617707
-0.01054262574764737
-0.6626996270665659
-0.1894353880149348
-0.004959431635828578
-0.1219767599783613
-0.01701465936389103
-0.1265424832843291
-0.06415948820844444
-0.07946944018971366
-0.005573924300055309
-0.003403155695856642
-1.348859933689348
-0.01148169447827671
-0.1858378917697479
0.001135323656066819
-1.00368027184494
-1.253167708365223
-0.07741555437595815
0.01553610836024108
0.1646986762200077
-0.00484231947538337
-0.02294645832281384
-0.004356264844190362
-0.2364565852223201
0.3653455957560029
-0.04264859996402697
-0.2155069935803341
-0.01529553734636207
-0.649482057589019
-0.0713659675130902
0.1881600088313161
-0.3068889528136572
-0.05119193398220399
-0.0708674970889888
-0.01579903498475834
-0.0213360235318589
-0.5980630878380625
-0.1554447027518364
-0.09665379244199128
-0.1167973149182717
-0.548288539958715
-0.04578496115202976
-0.8993643740047625
-0.0004698575960377537
-0.24583282809812
-1.057238272777799
0.1648362588187008
0.2890819771413773
-0.1704337141517852
-0.187716542500401
-0.2163416535582182
-0.06558829620675502
0.02565190201913746
0.04468056995382041
0.004791218598322784
-0.1517822700818659
0.0263701330486683
-1.370987627893006
-0.08788466077015282
-0.4815347071327226
-0.3364711448443767
-0.2223117401334863
-0.181867431175838
-0.01698174746134466
-0.01535078071897549
-0.09172652941855949
0.1745421266613053
0.3841471259386935
-0.2046668576339712
-0.1571732283188631
-0.2195058159778065
-0.06407145752717118
-0.164347842918209
-0.1743374374044769
-0.1285195352783396
-0.1093916688683231
0.4639725072838626
-0.2858452460697233
0.4331840027397588
-0.5865769518527745
0.07379541649526977
-0.1862651571064749
-0.06849203237883773
-0.07872368833406876
-0.8981940336760244
-0.2158529601641613
-0.1939756210324922
-0.357194401097123
-0.4689252966663931
0.5695027423015158
-0.2157883687592981
0.003365613599359594
-0.06655882967092462
0.3457372234606766
-0.03416183353619053
-0.1199095887585851
-0.1829755752644564
-0.06461187507468005
-0.0163116593324991
-0.2003097770647924
0.1970860131926108
-0.01260979050144745
-0.09954531218573305
-0.1780004750807331
-0.3202839831406873
-0.3063232657101238
-0.08477544759733041
-0.009570921638659642
-0.0808145362957795
-0.6480677520434538
-0.6766153426418132
-0.3225605143091377
-0.05972739457753683
-0.04879960368184443
-0.02417977295505714
-0.07094823884190359
-0.05413482161018445
-0.3707682116936687
-0.9662330934711713
-0.008614551259935941
-0.08612340787314213
-1.149589573000741
-1.047131004230718
-0.1099052456952958
-0.04252653998186364
-0.06720847516497787
0.3881927181540895
-0.3377341639763772
-0.05110381721040775
-0.6080672943867553
-0.1388327392253473
-0.2468695601373892
-0.2155773288168094
0.4730594802381857
-0.639954661518673
0.07723680529505653
-0.02815018259355995
-0.573169880160087
-0.0552912104912892
-0.3675792332650333
0.1104147920851501
-0.1948625659185538
-0.06203664345948767
-0.1240680615127333
-0.3560499414741884
-0.08330769852740293
0.5155938430071969
0.08756244146802866
0.46921641931557
-0.1229716246355481
-0.2087957732566353
-0.5064292854132634
-0.1357474435530285
0.02353108173610309
-0.05624410654404624
0.0989972338827559
-0.302105375983963
0.2365010933348716
0.004190406601429396
-0.002531019669980764
-0.5057296274731875
-0.1803078322528303
-0.1010742388374496
0.5811722300076765
0.1400437653260996
0.343022666957001
0.2249941465937086
-0.5691472765060688
-0.2041185692059898
-0.221177393048671
-0.2252788821098434
-0.06290936382193381
-0.6849260664090829
-0.1885928273224542
0.3039221005019477
-0.1985674927305008
-0.01127988500321796
-0.1598827525972139
-0.01251167611234224
-0.1724515046061388
-0.4501155996197248
-0.07628539546114971
-0.2087818929496628
-0.07745451034632768
-0.1101284881847006
-0.1303300010797531
-0.0722031903978846
-0.4375733336406751
-0.4084952185997041
-0.02310997970106735
-0.07855083921865955
0.3298802989569762
-0.2539407081096557
-0.1696200915440423
0.5238384130325292
-0.1916847731207378
0.02185394772979949
-0.4577659040526167
0.05076354947992432
-0.05877045767513667
-0.1518613809890813
-0.5953650363280303
0.157937266324764
-0.5727144353564241
-0.5436403518236645
-0.1009107334133279
-0.5152638285843333
-0.03574056298628382
-0.1572810060686815
-0.4166238770518325
-0.01600980878260504
0.2885688188986628
0.4899209454471189
-0.1691028799485368
-0.004821043311755513
-0.08389015326733519
0.5249528441475998
-0.03178527951789448
-0.4484056151057216
-0.03141352771807975
0.4618684573405423
-0.01812342185829999
-0.5533664050692265
-0.2406747655717916
0.178605095421119
-0.3174740102679765
-0.1838076087468231
0.0472360759128053
0.03060590002673081
0.05717999819093258
-0.3065953379165061
-0.1600499365926345
0.4128252795887216
)
;

boundaryField
{
    FrontBack
    {
        type            empty;
    }
    Top
    {
        type            zeroGradient;
    }
    In
    {
        type            zeroGradient;
    }
    Bottom
    {
        type            zeroGradient;
    }
    Out
    {
        type            fixedValue;
        value           uniform 0;
    }
    circle
    {
        type            zeroGradient;
    }
}


// ************************************************************************* //
