/*--------------------------------*- C++ -*----------------------------------*\
| =========                 |                                                 |
| \\      /  F ield         | OpenFOAM: The Open Source CFD Toolbox           |
|  \\    /   O peration     | Version:  2412                                  |
|   \\  /    A nd           | Website:  www.openfoam.com                      |
|    \\/     M anipulation  |                                                 |
\*---------------------------------------------------------------------------*/
FoamFile
{
    version     2.0;
    format      ascii;
    arch        "LSB;label=32;scalar=64";
    class       volScalarField;
    location    "10.7";
    object      p;
}
// * * * * * * * * * * * * * * * * * * * * * * * * * * * * * * * * * * * * * //

dimensions      [0 2 -2 0 0 0 0];

internalField   nonuniform List<scalar> 
808
(
0.100125
-0.000565928
0.0265561
0.101154
-0.220706
-0.00295098
-0.0112107
0.0151497
-0.129433
-0.0440582
0.0265601
-0.142359
0.0137321
-0.00907708
-0.330107
0.0122975
-0.342474
0.0108366
0.0225456
-0.013533
0.0292687
0.361386
0.049492
-0.0217087
0.438536
-0.201903
-0.0682349
0.00743081
0.0111323
0.00526413
0.0101099
-0.00148084
0.0167199
0.0085208
-0.10423
0.612272
-0.00426451
0.012675
0.00690173
0.0149629
-0.0728371
-0.0710316
0.0125006
0.00829894
-0.21823
0.0665029
0.00266988
0.00221296
-0.00413141
-0.16886
-0.00701399
-8.14319e-05
0.021392
0.00561055
-0.112054
-0.00593198
0.00619141
0.0279562
-0.0379315
-0.0123874
-0.311835
-0.00760417
0.0240708
-0.199608
0.0163602
0.0244887
-0.264536
0.017259
0.0148692
-0.269487
0.00949965
-0.298345
0.00598536
0.00118508
0.176821
-0.000962855
-0.030182
-0.093868
-0.0101257
0.293125
-0.149872
-0.00643515
0.0125387
0.259761
0.00326948
-0.0512304
-0.340628
-0.132059
0.00828463
-0.231079
0.0222708
-0.114726
0.234103
0.135598
0.0159618
-0.274266
0.0163869
-0.150224
-0.125051
-0.243329
-0.00663223
-0.020475
0.0215179
-0.0451579
-0.136396
0.0353728
-0.235917
0.0156655
-0.0071877
0.0216637
-0.100551
0.314269
0.00220551
0.0232842
0.0164627
0.437638
-0.00700669
-0.25441
-0.00270043
0.0405362
-0.300706
0.01632
-0.0013264
0.039876
0.0900064
-0.0759842
0.0898825
0.029582
0.0148098
0.0425834
-0.277441
0.00869774
-0.0704721
0.102428
0.000901962
-0.00898207
0.0399739
0.00357845
0.00689499
-0.0127044
-0.320669
0.0306147
0.0294859
0.0031549
-0.0565869
0.0581087
0.0771296
0.13933
-0.0824681
0.0100114
-0.00200844
0.324662
0.0140563
0.518989
-0.299484
-0.127308
-0.00315679
-0.240543
0.0310458
-0.147586
-0.292302
-0.313486
-0.275017
0.0031232
0.038155
0.00327288
0.00654979
-0.278852
-0.00356545
0.0203381
0.0213161
0.136635
0.0588521
0.113612
-0.00136769
0.0538807
0.0466837
-0.160222
-0.00184817
-0.322873
0.0161544
-0.168696
-0.004801
0.249811
-0.33123
0.0940141
-0.000941786
-0.178097
0.0151303
-0.124859
-0.301872
-0.094861
-0.000158723
0.0631696
-0.00276763
-0.309795
-0.000346855
0.0164869
0.00558348
0.0561942
0.0494047
0.014022
0.0175523
-0.294124
0.358611
-0.300569
-0.292693
0.00648754
0.027511
0.00292836
0.00772477
-0.369781
-0.292565
-0.00408148
0.00633691
-0.00298077
-0.303938
-0.0612837
0.00644286
0.0247808
0.00766674
-0.111492
0.0117034
0.0119593
0.00347871
0.0133643
0.102671
-0.317307
0.0382667
0.00981753
0.0951945
0.0107558
0.0100041
0.00979276
-0.130208
0.0209256
0.00788
0.00015933
0.00411817
0.0135639
0.00300876
0.000842502
0.0044301
0.00693884
0.00140998
0.000826036
0.00153724
0.00151468
0.00224521
0.0409921
-0.298141
0.00167026
0.00192017
-0.158787
0.00453819
-0.00753944
0.0193127
0.0011016
0.0108288
0.104522
0.0287205
0.00726714
0.0116216
0.0627341
0.0130027
0.0142133
0.016927
0.0273557
0.0193567
0.0380978
0.0286241
-0.36648
0.257347
0.0125964
-0.0663781
0.0169976
0.0124278
0.0141171
-0.251689
0.267005
0.0155659
0.0256521
0.0213975
0.066966
-0.175257
0.0158276
0.0525135
0.0841834
0.0272923
0.0440226
-0.0029467
0.0231427
0.02084
0.0252474
0.036679
0.0198903
0.0312821
0.034802
0.0311143
0.0296088
0.016783
0.0140795
0.022059
0.0131478
-0.476599
-0.125544
0.0316878
0.0722105
-0.183992
-0.305599
0.0245861
0.0126186
-0.29808
0.111109
0.141544
0.00107906
-0.00242205
0.0403192
0.00533888
-0.20991
0.0158669
0.00109453
0.0087257
0.0194109
0.0196159
0.00829575
0.0486594
-0.0211319
0.0228819
-0.288561
0.00162813
0.0133914
0.0153759
0.0642093
-0.0105628
0.21152
0.0247558
-0.174611
0.533499
0.0430337
0.00207259
0.00446847
-0.0863254
-0.0753198
0.0332469
0.0144913
-0.0148377
0.017359
-0.0720265
-0.279599
0.0482535
0.0831382
-0.075747
-0.284671
-0.295834
-0.315974
-0.295073
0.0551872
0.00586569
0.0034594
-0.0181141
-0.0498071
0.00810982
0.0114699
0.00309024
-0.470971
0.0499167
0.0202043
0.0188218
-0.313011
0.0528014
0.00823715
0.0956975
-0.307705
0.034236
-0.0496974
0.0386393
0.0426713
-0.289028
0.00824538
-0.326015
-0.0069521
0.0551447
0.0171624
-0.00766865
0.00643819
-0.0823363
-0.311971
-0.0130142
-0.00382963
0.0237657
0.00888199
-0.020992
0.0119038
-0.0234077
-0.0206806
-0.0878422
0.0235581
-0.00187911
-0.00164693
-0.333305
-0.132941
0.0382489
-0.00597384
-0.15078
-0.0437577
0.41321
-0.289737
0.00624292
-0.106039
0.00146465
0.0284092
0.00158804
0.0320916
-0.0243143
0.00015677
-0.085425
-0.0165787
-0.000704877
-0.00347241
-0.00587944
-0.00228315
0.0183444
0.100348
0.0560795
0.0136771
0.00857163
-0.00421996
-0.0846121
0.00439609
-0.353365
0.0109304
0.0333985
0.0138891
-0.22748
-0.328526
-0.0354137
-0.0831477
-0.0604459
0.00654827
-0.198788
-0.228118
0.208778
-0.286502
-0.423052
-0.277328
-0.0254885
-0.0942013
-0.315082
0.33772
-0.0497316
-0.30138
-0.0131619
0.0328388
0.563737
0.0075728
-0.00269955
0.0233396
-0.035102
-0.0311301
-0.329692
-0.313392
0.0376078
0.0450486
0.0669768
-0.246719
-0.277718
-0.258269
-0.00464777
0.0213959
0.0718405
-0.0380838
-0.0364287
0.0571315
0.0128034
0.0103732
-0.205966
-0.321082
-0.00228493
-0.10656
0.00461765
-0.0146587
0.0642355
-0.0768883
0.0186062
-0.429369
0.439553
-0.285276
-0.29448
-0.0511634
0.0137737
-0.297656
-0.284143
0.104701
-0.307191
-0.219659
0.849905
-0.00704346
-0.326074
-0.0115814
-0.112281
-0.010799
-0.427802
-0.310836
-0.281415
0.0086571
-0.272066
-0.329705
-0.033996
-0.0430828
0.0811651
-0.279215
0.00698544
-0.466359
-0.340961
-0.401207
-0.165454
0.0107911
-0.00907439
0.0840482
0.111442
-0.0555442
-0.28423
0.293395
0.0769983
0.0128713
-0.404075
-0.462842
-0.298876
0.00410477
-0.319186
0.0715966
0.0386065
0.00973613
-0.256133
-0.215652
0.0112028
-0.291248
-0.319799
0.00609597
-0.0241392
-0.214654
-0.0314779
0.0115757
-0.351124
-0.309766
-0.115673
0.0792506
0.0129605
-0.303746
-0.30689
-0.309451
-0.26092
0.0161159
0.0774894
0.00574126
-0.313473
-0.316564
0.0801969
0.00907817
-0.209507
0.0198215
0.0238484
-0.348354
0.016831
-0.249493
0.0274956
-0.345223
0.0253676
0.00180856
-0.380038
-0.470184
0.00303804
-0.442561
-0.426378
0.0202555
-0.0895376
-0.291319
0.00463352
-0.287269
0.0194873
0.0585829
0.0474963
-0.349062
0.0528934
0.0444702
-0.466535
0.0143185
-0.314203
-0.00577199
-0.294443
-0.523587
0.0908329
0.254925
0.430409
0.00706988
0.00224384
0.00171771
-0.310559
0.631383
-0.00204429
-0.240186
0.0163045
-0.0598385
0.0695078
0.469839
-0.384754
-0.0652762
-0.0651579
0.0244315
-0.000474529
-0.466521
-0.281251
-0.3197
-0.334082
-0.259061
-0.0196639
-0.336594
0.053123
-0.287523
-0.327738
0.495346
0.573918
-0.345445
0.109462
-0.292923
-0.0412974
-0.0741889
0.389904
-0.0613988
-0.295747
-0.0144475
-0.522635
-0.0479607
-0.21466
-0.0383722
-0.328641
-0.299958
0.0019306
0.00293676
-0.295966
0.442034
0.661702
-0.294538
-0.317517
-0.299609
-0.0801063
-0.321345
-0.297899
-0.211979
-0.295397
0.73925
-0.355089
0.73427
-0.384415
0.319977
-0.286406
-0.0187322
0.157422
-0.51424
0.22273
-0.305576
-0.328703
-0.355475
0.857266
-0.289882
0.198966
0.14029
0.633822
0.112483
-0.373031
-0.309998
-0.202851
0.0104272
0.0691215
0.515501
0.0112938
-0.0453484
-0.300855
0.101123
-0.118094
-0.316018
0.0152484
-0.357874
-0.147617
-0.172693
-0.338005
-0.0146406
0.0903476
-0.0193337
0.05486
0.0991214
-0.349027
-0.372143
-0.0421257
-0.0113238
-0.47937
-0.526408
0.159408
0.175628
0.0767167
0.654446
-0.076749
-0.323478
-0.3981
-0.315767
-0.0583862
0.0651232
0.749534
-0.46525
0.370358
-0.0257472
-0.441244
0.135556
-0.0925319
0.377964
-0.179296
-0.00591159
-0.303956
-0.0726812
0.192946
0.802744
0.323796
0.745941
-0.329735
-0.318402
-0.387367
0.15008
0.251521
0.0431013
0.365949
0.13701
0.485745
0.259724
-0.0348609
-0.179206
0.0191002
-0.341182
0.870664
0.400721
0.634551
0.499187
-0.282414
-0.309528
-0.29604
-0.291329
0.0267863
-0.384121
0.10215
0.582542
-0.318173
0.00896048
-0.289489
0.167557
-0.342318
-0.382536
-0.182889
-0.307759
-0.338316
-0.327921
-0.312902
-0.141256
-0.386224
-0.125947
-0.28138
0.128345
0.647021
-0.239184
-0.288851
0.813139
-0.290916
0.280618
-0.251758
0.384522
0.0750663
-0.303291
-0.411663
0.428183
-0.262189
-0.336886
0.185224
-0.291046
-0.0394365
-0.312046
-0.135248
0.0187539
0.560747
0.768047
-0.30915
0.217533
-0.331611
0.80894
-0.0276642
-0.329211
-0.0412908
0.752835
0.190181
-0.336478
-0.298345
0.446791
-0.22895
0.0191186
0.335583
0.237444
0.287198
-0.269483
-0.35708
0.676614
)
;

boundaryField
{
    FrontBack
    {
        type            empty;
    }
    Top
    {
        type            zeroGradient;
    }
    In
    {
        type            zeroGradient;
    }
    Bottom
    {
        type            zeroGradient;
    }
    Out
    {
        type            fixedValue;
        value           uniform 0;
    }
    circle
    {
        type            zeroGradient;
    }
}


// ************************************************************************* //
