/*--------------------------------*- C++ -*----------------------------------*\
| =========                 |                                                 |
| \\      /  F ield         | OpenFOAM: The Open Source CFD Toolbox           |
|  \\    /   O peration     | Version:  2412                                  |
|   \\  /    A nd           | Website:  www.openfoam.com                      |
|    \\/     M anipulation  |                                                 |
\*---------------------------------------------------------------------------*/
FoamFile
{
    version     2.0;
    format      ascii;
    arch        "LSB;label=32;scalar=64";
    class       volScalarField;
    location    "39.6";
    object      p;
}
// * * * * * * * * * * * * * * * * * * * * * * * * * * * * * * * * * * * * * //

dimensions      [0 2 -2 0 0 0 0];

internalField   nonuniform List<scalar> 
808
(
0.136165
0.0270691
0.0268641
0.135993
-0.186726
0.0238447
0.0164505
0.0489849
-0.0983081
-0.0112927
0.0256346
-0.111374
0.0432913
0.0217354
-0.281045
0.0350284
-0.294126
0.0284441
0.0306906
0.0256772
0.0440522
0.375893
0.0738789
0.0216994
0.449092
-0.121437
-0.0320836
0.016986
0.0228146
0.0221373
0.018357
0.035589
0.0270213
0.0122137
-0.0736907
0.631395
0.0252804
0.0245122
0.0430661
0.0285877
-0.0410401
-0.0313175
0.0439327
0.0284197
-0.0331237
0.0894037
0.0290623
0.0356827
0.0419568
-0.138239
0.0156426
0.0370226
0.0505159
0.0144273
-0.113336
0.0402231
0.0179264
0.0380606
-0.00496421
0.0350074
-0.303282
0.0266699
0.0496061
-0.17147
0.0408977
0.0549054
-0.245749
0.0365074
0.016314
-0.235634
0.0465626
-0.261518
0.0448319
0.0306818
0.206436
0.0258794
0.0113881
-0.102596
0.021882
0.302415
-0.0758438
0.0311072
0.0473116
0.285242
0.0218753
-0.00406901
-0.307632
-0.137793
0.0502581
-0.173711
0.056564
-0.0777438
0.247801
0.156022
0.0466834
-0.288775
0.0397956
-0.024678
-0.0903566
-0.239458
0.0222156
0.0211635
0.0604047
-0.000747752
-0.1135
0.0621902
-0.0165963
-0.0162596
0.0388597
0.0528239
-0.0449962
0.327834
0.0450651
0.0570157
0.0322784
0.457941
0.0360327
-0.219153
0.0332369
0.0758537
-0.381602
0.045756
0.0382803
0.0771095
0.112009
-0.0784716
0.125935
0.0957866
0.0478268
0.0725028
-0.268807
0.0499292
-0.0325502
0.118842
0.0371641
0.0358624
-0.0349926
-0.0132605
0.0442888
0.0293565
-0.367752
0.0666914
0.00695816
0.0453586
-0.0468763
-0.0382725
0.114104
0.172592
-0.0285164
-0.0280396
0.0438941
0.334989
0.0515215
0.532153
-0.32278
-0.10333
0.0270337
-0.111901
-0.0237548
-0.109418
-0.266844
-0.356701
-0.243747
0.0425235
0.0678452
0.0383428
0.043893
-0.245304
0.0423334
0.0510811
0.0597398
0.155853
-0.0447624
0.144533
0.0287786
0.0882366
0.0739144
-0.129394
0.0440114
-0.286863
0.0476432
-0.169316
0.0391461
0.278273
-0.177977
0.119481
0.0336473
-0.150241
0.0382097
-0.0975381
-0.32342
-0.0567768
0.0313351
0.100615
0.0384139
-0.352268
0.0275525
0.0517286
0.0186057
0.0770739
0.084881
0.0515127
0.0307277
-0.250947
0.373654
-0.33917
-0.273833
0.0159709
0.0447048
0.0447276
0.0272647
-0.333681
-0.316645
0.0270716
0.0285625
0.0378408
-0.265685
-0.069722
0.0357102
0.0586491
-0.000897349
-0.123005
0.0448391
0.0469131
0.0113066
0.0335667
0.127372
-0.375639
0.0596381
0.020591
0.117636
0.0256682
0.0296182
0.0162184
-0.0331093
0.0596195
0.0233692
0.0156259
0.0398338
0.0292671
0.02131
0.00420751
-0.011976
0.0159184
0.00166723
0.00489821
-0.0154797
0.00199433
0.00749729
-0.0396069
-0.272407
0.00150161
-0.0463375
-0.131212
-0.0125831
0.0434185
0.0247639
0.0033008
0.0367774
0.124303
0.0181585
0.0145032
0.0107921
0.0350517
0.0367968
0.00704166
0.00175191
0.0212703
0.0343327
-0.0390408
0.0295858
-0.328912
0.269889
0.00451502
-0.0204268
0.0282877
0.00680842
0.0154075
-0.263218
0.294384
0.0445419
0.0541168
0.00914415
0.104011
-0.0263138
0.0187109
-0.050731
0.000868611
-0.0518103
-0.0550228
0.0421179
0.0317123
0.0584373
0.0519949
0.00201037
0.0180814
0.0197542
0.0569397
-0.0243397
-0.0200959
0.0396043
0.0280074
0.0411966
0.029676
-0.448082
-0.0745322
0.0106119
-0.0125357
-0.154441
-0.072838
-0.0432376
0.0304869
-0.280675
0.145805
0.171902
0.0300941
0.027198
0.0361655
0.0100795
-0.177772
0.0237199
0.00186996
0.0351233
-0.0368404
-0.0826376
0.0377094
0.0204786
0.0123913
-0.0535228
-0.291474
-0.000474376
0.0559039
0.151893
0.170915
0.0241032
0.226152
-0.0547139
-0.143919
0.552916
0.0528236
0.0126738
0.0348894
-0.0194913
-0.0573632
0.0948525
0.0329806
-0.00244222
0.0335006
-0.0101373
-0.298038
0.0449266
0.104567
-0.0133799
-0.294951
-0.276773
-0.353829
-0.272382
0.0410606
0.0429692
0.0187245
-0.0500271
-0.00439343
0.0133839
0.0370071
0.00024821
-0.440876
0.0636602
0.0513384
0.0368184
-0.414102
0.036018
-0.0343195
0.129876
-0.260653
0.0940275
0.0219387
0.112156
0.0239897
-0.285756
0.0711893
-0.377033
0.0527685
-0.0454514
0.0373538
0.025015
0.0178136
-0.0250349
-0.271324
0.0230257
0.0151879
-0.127702
-0.00853995
0.0317623
0.0529761
-0.00389468
0.0418659
-0.0557963
0.0582119
0.0569422
0.0248559
-0.470972
-0.0603561
0.0432377
0.0226957
-0.0994874
-0.00739931
0.437059
-0.260173
0.0225835
-0.0710305
0.060259
0.057981
0.0334964
-0.098254
0.0209975
0.115588
-0.0371115
0.0140064
-0.00297402
-0.00660325
-0.00797047
-0.00718391
0.035708
0.134691
-0.165772
0.0293658
0.0157453
0.00415509
-0.0178704
0.0366068
-0.323843
-0.184361
-0.00129906
-0.00157578
-0.14352
-0.409605
0.00665103
-0.0512468
0.0315262
0.0416548
-0.0435466
-0.200969
0.214357
-0.240553
-0.392806
-0.329092
-0.0160933
-0.0181703
-0.428465
0.35879
-0.0237751
-0.29389
0.026641
0.0201454
0.584783
0.000488873
0.0304736
0.0296613
-0.0952878
0.011228
-0.155071
-0.343218
0.0664774
0.0828082
-0.0344816
-0.215886
-0.237222
-0.238771
0.0234879
0.00395172
0.0944829
0.00770156
-0.0343743
0.0827296
-0.10761
0.0513312
-0.188543
-0.38471
-0.0584061
-0.0318837
0.0477247
0.0143481
0.0968008
-0.0350214
-0.0335339
-0.394718
0.462193
-0.32068
-0.295643
-0.00826234
-0.0289671
-0.307733
-0.301412
0.13759
-0.273011
-0.139766
0.867727
0.0319351
-0.286623
0.0378776
-0.00494535
0.0788158
-0.402608
-0.30749
-0.243737
-0.022516
-0.293226
-0.291296
0.00658105
0.00583037
0.0817493
-0.231779
0.0332023
-0.434579
-0.397197
-0.462892
-0.0706042
-0.0107466
0.0502155
0.107202
0.143171
0.00330824
-0.282863
0.314936
0.0528419
0.00603059
-0.368537
-0.430205
-0.252826
0.0994972
-0.281498
0.0593247
-0.0589983
-0.0822947
-0.278508
-0.181072
0.0305168
-0.278525
-0.357645
0.0181282
0.0242131
0.0258937
0.0126512
0.0361597
-0.316676
-0.290293
-0.0928714
0.087379
0.0437809
-0.273661
-0.345712
-0.412368
-0.152972
0.0365196
0.0980804
0.00614554
-0.38461
-0.373439
0.094681
0.0381101
-0.0813035
0.039945
0.0210549
-0.407209
0.0454658
-0.216817
0.0101532
-0.183931
-0.0163883
0.00547786
-0.442111
-0.530805
0.00304104
-0.415611
-0.393283
0.0350531
-0.0934224
-0.315604
-0.0468053
-0.280489
0.0574935
0.0645833
0.0799837
-0.104567
0.014407
-0.00642487
-0.496462
-0.0194969
-0.314634
0.0363593
-0.271732
-0.575948
0.121554
0.261191
0.449811
0.0295796
0.00656351
0.00353296
-0.271531
0.6463
0.0331937
-0.234027
0.0393246
-0.0383177
0.1048
0.479312
-0.448443
-0.00835549
-0.0190931
0.0426884
0.0222403
-0.528822
-0.286703
-0.32101
-0.323402
-0.233139
0.0211503
-0.312215
0.119694
-0.310304
-0.344118
0.507035
0.585292
-0.382702
0.138065
-0.312876
0.00499068
0.0861567
0.399197
0.0610602
-0.264159
0.110537
-0.565107
-0.0136695
-0.233491
-0.0437206
-0.389754
-0.333516
0.00512006
0.0102944
-0.25758
0.463808
0.67542
-0.260207
-0.362812
-0.265238
-0.022668
-0.379166
-0.328933
-0.173262
-0.260379
0.754391
-0.411573
0.753445
-0.352241
0.345585
-0.249988
0.0160141
0.161445
-0.568469
0.243447
-0.30568
-0.369165
-0.3958
0.873766
-0.300532
0.226574
0.1698
0.654871
0.142299
-0.354551
-0.363327
-0.196712
0.0241248
0.0683455
0.535498
0.0221279
-0.0172183
-0.334579
0.103158
-0.0865231
-0.495038
0.0487506
-0.245259
-0.125023
-0.180848
-0.300934
0.0200127
0.122991
0.0411304
0.0721297
0.13322
-0.403907
-0.392661
0.0636908
0.0140765
-0.513296
-0.571732
0.162155
0.182479
0.109
0.667761
-0.0468912
-0.0374279
-0.423743
-0.371176
-0.0276524
0.0637112
0.764522
-0.506805
0.393793
0.0308247
-0.497623
0.144184
-0.0982782
0.402063
-0.17046
0.0271311
-0.263659
-0.0482512
0.216294
0.821311
0.348089
0.760781
-0.326013
-0.378489
-0.352916
0.151478
0.260505
0.0659975
0.372625
0.158888
0.503891
0.264166
0.0806681
-0.14965
0.0511623
-0.278293
0.887734
0.423514
0.648091
0.514183
-0.297032
-0.288564
-0.32385
-0.283697
0.0534455
-0.356566
0.126965
0.59448
-0.287116
0.0186072
-0.280368
0.181093
-0.403846
-0.437285
-0.170399
-0.367438
-0.333118
-0.326415
-0.272911
-0.125084
-0.350814
-0.099857
0.00364376
0.135844
0.667398
-0.252051
-0.242446
0.828813
-0.246972
0.306343
-0.272964
0.405198
0.108366
-0.288932
-0.456918
0.437447
-0.234353
-0.363286
0.211827
-0.308727
0.0092225
-0.36209
-0.144325
0.0499097
0.582071
0.785803
-0.352366
0.247125
-0.329232
0.825623
0.0232433
-0.360757
0.00755309
0.771997
0.201037
-0.368455
-0.331172
0.46989
-0.244393
0.0177463
0.341851
0.248268
0.31401
-0.287514
-0.335951
0.694155
)
;

boundaryField
{
    FrontBack
    {
        type            empty;
    }
    Top
    {
        type            zeroGradient;
    }
    In
    {
        type            zeroGradient;
    }
    Bottom
    {
        type            zeroGradient;
    }
    Out
    {
        type            fixedValue;
        value           uniform 0;
    }
    circle
    {
        type            zeroGradient;
    }
}


// ************************************************************************* //
