/*--------------------------------*- C++ -*----------------------------------*\
| =========                 |                                                 |
| \\      /  F ield         | OpenFOAM: The Open Source CFD Toolbox           |
|  \\    /   O peration     | Version:  2412                                  |
|   \\  /    A nd           | Website:  www.openfoam.com                      |
|    \\/     M anipulation  |                                                 |
\*---------------------------------------------------------------------------*/
FoamFile
{
    version     2.0;
    format      ascii;
    arch        "LSB;label=32;scalar=64";
    class       volVectorField;
    location    "0.6";
    object      cellDisplacement;
}
// * * * * * * * * * * * * * * * * * * * * * * * * * * * * * * * * * * * * * //

dimensions      [0 1 0 0 0 0 0];

internalField   nonuniform List<vector> 
256
(
(0.00202504 -0.00266931 0)
(0.00392547 -0.00484108 0)
(0.00589561 -0.00644033 0)
(0.00808878 -0.00745182 0)
(0.0104566 -0.00773573 0)
(0.0128668 -0.00720343 0)
(0.0151721 -0.00585454 0)
(0.0169852 -0.00372588 0)
(0.0090005 -0.0115521 0)
(0.0145005 -0.0171205 0)
(0.0202817 -0.0209622 0)
(0.0265488 -0.0229803 0)
(0.0332182 -0.0229787 0)
(0.0399787 -0.020792 0)
(0.0461746 -0.0163913 0)
(0.0509187 -0.0100351 0)
(0.018602 -0.0234421 0)
(0.0273313 -0.0312272 0)
(0.0365763 -0.0362523 0)
(0.0465837 -0.0384237 0)
(0.0570852 -0.037429 0)
(0.067437 -0.0330674 0)
(0.0767118 -0.0254363 0)
(0.0836414 -0.0150459 0)
(0.0306492 -0.0379279 0)
(0.0423141 -0.0468589 0)
(0.0547475 -0.0521243 0)
(0.0680423 -0.0535892 0)
(0.0817958 -0.0509564 0)
(0.0951626 -0.044054 0)
(0.106774 -0.0330767 0)
(0.115198 -0.018844 0)
(0.0450285 -0.0546326 0)
(0.0593222 -0.0636483 0)
(0.0745811 -0.068239 0)
(0.0907998 -0.0683024 0)
(0.107325 -0.0634984 0)
(0.12299 -0.0537231 0)
(0.136299 -0.0393606 0)
(0.145585 -0.021481 0)
(0.061573 -0.0730875 0)
(0.0782581 -0.0812609 0)
(0.0960607 -0.0843721 0)
(0.114721 -0.0823544 0)
(0.133426 -0.0749097 0)
(0.150864 -0.0620343 0)
(0.165306 -0.0442947 0)
(0.174936 -0.0229691 0)
(0.0802121 -0.0928497 0)
(0.0990515 -0.0993188 0)
(0.118994 -0.100192 0)
(0.139712 -0.0955399 0)
(0.160133 -0.0850786 0)
(0.178704 -0.0689247 0)
(0.19368 -0.0478319 0)
(0.20327 -0.0232806 0)
(0.100856 -0.113414 0)
(0.121601 -0.117401 0)
(0.143446 -0.115437 0)
(0.16574 -0.107643 0)
(0.187274 -0.093832 0)
(0.206489 -0.0742782 0)
(0.221481 -0.0498948 0)
(0.230687 -0.0223211 0)
(0.123532 -0.134291 0)
(0.145951 -0.135076 0)
(0.169284 -0.129708 0)
(0.192724 -0.118355 0)
(0.214901 -0.100938 0)
(0.234119 -0.0779142 0)
(0.248696 -0.0503521 0)
(0.257214 -0.0199612 0)
(0.148291 -0.154901 0)
(0.172083 -0.15183 0)
(0.196562 -0.142531 0)
(0.220623 -0.127253 0)
(0.242827 -0.10607 0)
(0.261608 -0.079578 0)
(0.275354 -0.0489762 0)
(0.282936 -0.0159735 0)
(0.175298 -0.174553 0)
(0.200183 -0.167028 0)
(0.225303 -0.153335 0)
(0.249432 -0.133843 0)
(0.271145 -0.108779 0)
(0.288932 -0.0789035 0)
(0.301455 -0.0454455 0)
(0.307779 -0.0100821 0)
(0.20484 -0.192398 0)
(0.230433 -0.179834 0)
(0.255699 -0.161324 0)
(0.27928 -0.13743 0)
(0.299814 -0.108472 0)
(0.316026 -0.0753546 0)
(0.32684 -0.0393173 0)
(0.331548 -0.00193923 0)
(0.237363 -0.207221 0)
(0.263185 -0.18901 0)
(0.287864 -0.165379 0)
(0.310063 -0.136913 0)
(0.328647 -0.10426 0)
(0.342592 -0.0682137 0)
(0.351183 -0.0300156 0)
(0.353994 0.00901898 0)
(0.273337 -0.217051 0)
(0.298546 -0.192727 0)
(0.321594 -0.163742 0)
(0.341357 -0.130961 0)
(0.357049 -0.0949471 0)
(0.368054 -0.0565333 0)
(0.373938 -0.0166771 0)
(0.374527 0.0234531 0)
(0.312614 -0.218752 0)
(0.335813 -0.187967 0)
(0.355662 -0.154043 0)
(0.371662 -0.117585 0)
(0.383484 -0.0791285 0)
(0.390865 -0.0392888 0)
(0.393628 0.00122121 0)
(0.391732 0.0416869 0)
(0.350726 -0.206079 0)
(0.369237 -0.17071 0)
(0.384191 -0.133696 0)
(0.395446 -0.0953952 0)
(0.402892 -0.0561754 0)
(0.406458 -0.0164146 0)
(0.40611 0.0235044 0)
(0.401851 0.0631969 0)
(-0.0010706 -0.0180411 0)
(0.00170699 -0.0179623 0)
(0.00405847 -0.0166456 0)
(0.00555198 -0.0143217 0)
(0.00602018 -0.0115019 0)
(0.00547844 -0.00850175 0)
(0.00406385 -0.00548421 0)
(0.00209554 -0.00262902 0)
(-0.00241945 -0.053498 0)
(0.00532508 -0.0530396 0)
(0.0119069 -0.0495148 0)
(0.0163444 -0.0435433 0)
(0.0181483 -0.0360873 0)
(0.0172883 -0.0279598 0)
(0.0140794 -0.0197127 0)
(0.00907687 -0.0116316 0)
(-0.00297057 -0.0870721 0)
(0.00910421 -0.0861506 0)
(0.0194003 -0.0808467 0)
(0.0265595 -0.0719699 0)
(0.0299576 -0.0609519 0)
(0.0294478 -0.048783 0)
(0.0254122 -0.0363072 0)
(0.0184913 -0.0239253 0)
(-0.00274072 -0.119051 0)
(0.0131159 -0.117491 0)
(0.0266868 -0.11069 0)
(0.0364611 -0.0996991 0)
(0.0416271 -0.085957 0)
(0.0419859 -0.070676 0)
(0.0379505 -0.0549328 0)
(0.0300794 -0.0390695 0)
(-0.00175753 -0.149491 0)
(0.0174713 -0.147314 0)
(0.0340065 -0.139316 0)
(0.0462499 -0.126707 0)
(0.0533061 -0.110922 0)
(0.0549513 -0.0933371 0)
(0.0515619 -0.0751169 0)
(0.0436705 -0.0566527 0)
(5.12196e-05 -0.178631 0)
(0.0222765 -0.175763 0)
(0.0415034 -0.166784 0)
(0.056134 -0.152983 0)
(0.0651845 -0.135744 0)
(0.0684506 -0.116517 0)
(0.0662731 -0.0965494 0)
(0.0591005 -0.0761859 0)
(0.00272521 -0.206512 0)
(0.0276819 -0.202985 0)
(0.0494222 -0.193271 0)
(0.0663024 -0.178521 0)
(0.077441 -0.160284 0)
(0.0826199 -0.13999 0)
(0.0820575 -0.118804 0)
(0.0762965 -0.0972083 0)
(0.00642369 -0.233312 0)
(0.0338492 -0.229105 0)
(0.0578806 -0.2187 0)
(0.0769813 -0.20331 0)
(0.0902836 -0.184428 0)
(0.0975641 -0.163447 0)
(0.0990265 -0.141554 0)
(0.0952167 -0.119226 0)
(0.0112674 -0.259081 0)
(0.0409663 -0.254182 0)
(0.0671487 -0.243171 0)
(0.0883879 -0.2273 0)
(0.103918 -0.208018 0)
(0.113507 -0.186689 0)
(0.11729 -0.164419 0)
(0.11592 -0.141754 0)
(0.0175282 -0.283879 0)
(0.0492335 -0.278177 0)
(0.0774034 -0.26661 0)
(0.100782 -0.250397 0)
(0.118616 -0.230917 0)
(0.130674 -0.209437 0)
(0.137091 -0.187045 0)
(0.138518 -0.16425 0)
(0.0253764 -0.30756 0)
(0.0589128 -0.301025 0)
(0.0889893 -0.288951 0)
(0.114462 -0.27248 0)
(0.134677 -0.252872 0)
(0.149384 -0.231361 0)
(0.158688 -0.208966 0)
(0.163252 -0.186125 0)
(0.0352447 -0.330025 0)
(0.0703907 -0.322603 0)
(0.102248 -0.310018 0)
(0.129814 -0.293291 0)
(0.152479 -0.273573 0)
(0.170011 -0.251993 0)
(0.182449 -0.22952 0)
(0.190462 -0.20659 0)
(0.0475434 -0.351031 0)
(0.0841327 -0.342646 0)
(0.117659 -0.329495 0)
(0.147287 -0.312469 0)
(0.17251 -0.292529 0)
(0.193037 -0.270687 0)
(0.208861 -0.247876 0)
(0.220621 -0.224541 0)
(0.0629503 -0.369907 0)
(0.100562 -0.360431 0)
(0.13554 -0.346608 0)
(0.167212 -0.329142 0)
(0.195074 -0.308825 0)
(0.218849 -0.286435 0)
(0.238482 -0.262764 0)
(0.254377 -0.238282 0)
(0.0814492 -0.385309 0)
(0.119716 -0.374598 0)
(0.155935 -0.35993 0)
(0.189562 -0.341779 0)
(0.220191 -0.320647 0)
(0.247483 -0.297149 0)
(0.271282 -0.271851 0)
(0.291726 -0.245131 0)
(0.102281 -0.393721 0)
(0.14038 -0.3818 0)
(0.177127 -0.366202 0)
(0.212168 -0.347077 0)
(0.245166 -0.32461 0)
(0.275803 -0.299016 0)
(0.303783 -0.270543 0)
(0.328838 -0.239464 0)
)
;

boundaryField
{
    walls
    {
        type            cellMotion;
        value           uniform (0 0 0);
    }
    cylinder
    {
        type            cellMotion;
        value           nonuniform List<vector> 
16
(
(0.350726 -0.206079 0)
(0.369237 -0.17071 0)
(0.384191 -0.133696 0)
(0.395446 -0.0953952 0)
(0.402892 -0.0561754 0)
(0.406458 -0.0164146 0)
(0.40611 0.0235044 0)
(0.401851 0.0631969 0)
(0.102281 -0.393721 0)
(0.14038 -0.3818 0)
(0.177127 -0.366202 0)
(0.212168 -0.347077 0)
(0.245166 -0.32461 0)
(0.275803 -0.299016 0)
(0.303783 -0.270543 0)
(0.328838 -0.239464 0)
)
;
    }
    outlet
    {
        type            cellMotion;
        value           nonuniform List<vector> 0();
    }
    inlet
    {
        type            cellMotion;
        value           uniform (0 0 0);
    }
    frontAndBack
    {
        type            empty;
    }
    procBoundary0to1
    {
        type            processor;
        value           nonuniform List<vector> 
16
(
(0.018017 -0.00108524 0)
(0.0533868 -0.00246969 0)
(0.0869367 -0.00304454 0)
(0.118864 -0.00284568 0)
(0.149315 -0.00187232 0)
(0.178431 -8.38608e-05 0)
(0.206344 0.00259669 0)
(0.23314 0.00628068 0)
(0.258957 0.0111532 0)
(0.283757 0.0173948 0)
(0.307482 0.0252768 0)
(0.329961 0.0351222 0)
(0.351 0.0474388 0)
(0.369882 0.0628245 0)
(0.385302 0.0813776 0)
(0.393721 0.102281 0)
)
;
    }
    procBoundary0to2
    {
        type            processor;
        value           nonuniform List<vector> 
16
(
(-0.00373015 -0.0169802 0)
(-0.0100433 -0.0509092 0)
(-0.0150563 -0.0836307 0)
(-0.018858 -0.115181 0)
(-0.0214963 -0.145568 0)
(-0.0229875 -0.174909 0)
(-0.0233028 -0.203239 0)
(-0.0223531 -0.230642 0)
(-0.0199933 -0.257168 0)
(-0.0160164 -0.282878 0)
(-0.0101165 -0.307725 0)
(-0.00197494 -0.331491 0)
(0.0090308 -0.353959 0)
(0.0234863 -0.374504 0)
(0.0417221 -0.391732 0)
(0.0631969 -0.401851 0)
)
;
    }
}


// ************************************************************************* //
