/*--------------------------------*- C++ -*----------------------------------*\
| =========                 |                                                 |
| \\      /  F ield         | OpenFOAM: The Open Source CFD Toolbox           |
|  \\    /   O peration     | Version:  2412                                  |
|   \\  /    A nd           | Website:  www.openfoam.com                      |
|    \\/     M anipulation  |                                                 |
\*---------------------------------------------------------------------------*/
FoamFile
{
    version     2.0;
    format      ascii;
    arch        "LSB;label=32;scalar=64";
    class       surfaceScalarField;
    location    "0.6";
    object      meshPhi;
}
// * * * * * * * * * * * * * * * * * * * * * * * * * * * * * * * * * * * * * //

dimensions      [0 3 -1 0 0 0 0];

internalField   nonuniform List<scalar> 
480
(
0.00162592
-0.00544787
-0.00149592
0.00188039
-0.00642381
0.00208281
-0.00726916
0.0022317
-0.00768705
0.00222983
-0.00758227
0.00224433
-0.00698149
0.00215075
-0.00590272
-0.00433733
0.00500075
-0.0108576
-0.00470111
0.00575879
-0.0125764
0.00632445
-0.0140527
0.00672403
-0.0145687
0.00679461
-0.014193
0.00689812
-0.0130558
0.00676336
-0.0110685
-0.00811411
0.0086244
-0.0161556
-0.00836605
0.00981254
-0.0182443
0.0106999
-0.0201233
0.0112691
-0.02065
0.0114654
-0.0199016
0.0116413
-0.0180866
0.0116558
-0.0151832
-0.0111195
0.0125905
-0.0212177
-0.0125406
0.0140646
-0.0234368
0.0152033
-0.0254185
0.0158823
-0.0257367
0.0162104
-0.0245691
0.0162616
-0.0220705
0.0163588
-0.0181804
-0.0131777
0.0170738
-0.0260998
-0.0173361
0.0186367
-0.028168
0.0198746
-0.0298993
0.0205971
-0.029879
0.0209778
-0.0282388
0.0208415
-0.0250763
0.020914
-0.020405
-0.0146199
0.0222532
-0.03049
-0.0227811
0.0237063
-0.0324164
0.0247525
-0.0335956
0.0253411
-0.0328771
0.0255763
-0.0305793
0.0254184
-0.0268721
0.0255181
-0.0217773
-0.0154823
0.0280326
-0.0339574
-0.0287563
0.0292554
-0.0356418
0.0299139
-0.0362868
0.0301374
-0.034925
0.030102
-0.0319793
0.0299887
-0.0277866
0.0300678
-0.022366
-0.015804
0.0342577
-0.0364521
-0.0352629
0.0351767
-0.0377511
0.0354544
-0.0378839
0.0352339
-0.0360344
0.0348965
-0.0325977
0.0346508
-0.0280113
0.0345136
-0.0223304
-0.0156592
0.0410914
-0.0378847
-0.0424694
0.0415005
-0.0387332
0.041323
-0.0382121
0.0407133
-0.0359381
0.0399944
-0.0322148
0.0393626
-0.0273715
0.0389111
-0.0215802
-0.0150048
0.0486639
-0.0379292
-0.0505284
0.0482883
-0.0383397
0.0474538
-0.0371954
0.046326
-0.0345015
0.0451281
-0.0306046
0.0440524
-0.0257726
0.0433058
-0.0201534
-0.0139026
0.0567033
-0.0360825
-0.059182
0.0553923
-0.0361317
0.0537001
-0.0345086
0.0518714
-0.0315778
0.0501634
-0.0277252
0.0487175
-0.0231661
0.0477103
-0.0180221
-0.0124057
0.0647684
-0.0320204
-0.0680837
0.0625051
-0.0315801
0.0599495
-0.0296962
0.0574079
-0.0268654
0.055174
-0.0233935
0.0533585
-0.019466
0.0520841
-0.0151662
-0.0105246
0.0730176
-0.0259864
-0.0774001
0.0696664
-0.0250723
0.0661959
-0.0230108
0.0628925
-0.0204598
0.0600981
-0.0176206
0.0579143
-0.0146685
0.0563577
-0.0114743
-0.00788405
0.0817624
-0.0180448
-0.0872553
0.0770122
-0.0170044
0.0724092
-0.0150347
0.0681871
-0.0129725
0.0646884
-0.0108605
0.0620713
-0.00878355
0.0602781
-0.00659724
-0.0041698
0.0900362
-0.00779
-0.0967269
0.0836384
-0.0069802
0.0777624
-0.00582869
0.0725874
-0.00469404
0.0683699
-0.00355945
0.0653068
-0.00242934
0.0633913
-0.00129686
-0.000145213
0.0882377
-0.0963588
0.0807334
0.0742162
0.0688204
0.0646602
0.0618367
0.0603617
0.00321585
-0.00202216
0.00348418
0.000144617
0.00341369
0.00205976
0.0031322
0.00334792
0.00283424
0.00404059
0.00237041
0.00404855
0.00174287
0.00331916
0.00252322
0.00940774
-0.00385381
0.0100537
6.61109e-05
0.00986416
0.00340616
0.00916424
0.00569041
0.0083519
0.00695923
0.00712349
0.00709854
0.00545631
0.00608712
0.00478701
0.0151245
-0.00538132
0.0159216
-0.000168808
0.0155849
0.00412252
0.0146773
0.00713216
0.0135649
0.00890414
0.0118754
0.00927644
0.0095764
0.00829478
0.00678456
0.0204147
-0.00646464
0.0212286
-0.000381205
0.0208118
0.00460718
0.0198678
0.00818428
0.0185811
0.0102828
0.0166608
0.0108188
0.0140652
0.0100205
0.00851936
0.0253593
-0.00715139
0.0261571
-0.000575548
0.0258404
0.00484968
0.0250142
0.00884113
0.0235797
0.0111709
0.0216217
0.0119308
0.0189757
0.0114633
0.0101318
0.0299173
-0.00752417
0.03072
-0.0007393
0.0306349
0.00488896
0.0300446
0.00910952
0.0287425
0.0117234
0.0269627
0.012862
0.0243289
0.0126881
0.0115197
0.0340296
-0.00763376
0.0348627
-0.000821592
0.0351671
0.00483793
0.0349372
0.00914618
0.0340701
0.0119784
0.0325574
0.0134123
0.0299884
0.0134815
0.0125796
0.037936
-0.00752766
0.0388061
-0.000819552
0.0395265
0.00476621
0.0397167
0.00901805
0.039236
0.0119092
0.0380268
0.0134871
0.0358834
0.0137922
0.0132385
0.0418686
-0.00703986
0.0428071
-0.000648785
0.0437769
0.00464375
0.0442973
0.00873887
0.0441747
0.0116321
0.0434125
0.0132862
0.0420732
0.0138063
0.0137015
0.0457655
-0.00633055
0.0467744
-0.00049762
0.0478747
0.00436118
0.0486984
0.00830138
0.0491116
0.0112036
0.0490921
0.0129477
0.0488409
0.0137519
0.01404
0.0494963
-0.00537529
0.0505333
-0.000200741
0.0517905
0.00416279
0.0530089
0.00780633
0.0541594
0.0105847
0.0552785
0.0123853
0.056312
0.0133672
0.0138661
0.0530932
-0.00399795
0.0541974
0.000409067
0.0556864
0.00417584
0.0574108
0.00737007
0.059495
0.00980961
0.0618946
0.011387
0.0642295
0.0123493
0.013002
0.0567118
-0.00217964
0.057975
0.00130362
0.0598312
0.00428976
0.0622599
0.00677461
0.0653538
0.00860936
0.0689446
0.00985494
0.0726011
0.0107595
0.011518
0.060342
-0.000269368
0.0618845
0.00205485
0.0642949
0.00404061
0.0675704
0.00567519
0.0716828
0.00690014
0.0764306
0.00781973
0.0814075
0.00861119
0.00936858
0.0635221
0.0014201
0.065402
0.00251355
0.0684149
0.00348386
0.072494
0.00431782
0.0775681
0.00501375
0.0834315
0.00556973
0.0897535
0.00607786
0.00657669
0.0614319
0.0638293
0.0673503
0.0718643
0.0772303
0.0832505
0.0896879
)
;

boundaryField
{
    walls
    {
        type            calculated;
        value           uniform 0;
    }
    cylinder
    {
        type            calculated;
        value           nonuniform List<scalar> 
16
(
1.61854e-11
-3.19704e-11
-2.06466e-11
2.84983e-11
-1.0121e-11
5.56231e-12
1.67673e-11
-1.36581e-11
1.36561e-11
-1.6769e-11
-5.56385e-12
1.0119e-11
-2.85002e-11
2.06452e-11
3.19705e-11
-1.61861e-11
)
;
    }
    outlet
    {
        type            calculated;
        value           nonuniform List<scalar> 0();
    }
    inlet
    {
        type            calculated;
        value           uniform 0;
    }
    frontAndBack
    {
        type            empty;
    }
    procBoundary0to1
    {
        type            processor;
        value           nonuniform List<scalar> 
16
(
0.00229672
0.00709143
0.0120828
0.0169546
0.0215903
0.02604
0.0303508
0.0345874
0.0388076
0.0430324
0.0472525
0.0514387
0.0555537
0.0594271
0.0626527
0.0602068
)
;
    }
    procBoundary0to2
    {
        type            processor;
        value           nonuniform List<scalar> 
16
(
-0.00262955
-0.0080722
-0.0136312
-0.0189676
-0.0239585
-0.0286333
-0.0330229
-0.0371839
-0.0411948
-0.0451036
-0.0489006
-0.0525965
-0.0562532
-0.0597887
-0.062817
-0.060247
)
;
    }
}


// ************************************************************************* //
