/*--------------------------------*- C++ -*----------------------------------*\
| =========                 |                                                 |
| \\      /  F ield         | OpenFOAM: The Open Source CFD Toolbox           |
|  \\    /   O peration     | Version:  2412                                  |
|   \\  /    A nd           | Website:  www.openfoam.com                      |
|    \\/     M anipulation  |                                                 |
\*---------------------------------------------------------------------------*/
FoamFile
{
    version     2.0;
    format      ascii;
    arch        "LSB;label=32;scalar=64";
    class       pointVectorField;
    location    "0.6";
    object      pointDisplacement;
}
// * * * * * * * * * * * * * * * * * * * * * * * * * * * * * * * * * * * * * //

dimensions      [0 1 0 0 0 0 0];

internalField   nonuniform List<vector> 
578
(
(0 0 0)
(0 0 0)
(0 0 0)
(0 0 0)
(0 0 0)
(0 0 0)
(0 0 0)
(0 0 0)
(0 0 0)
(0.00541082 -0.00694286 0)
(0.0073402 -0.00902762 0)
(0.0111334 -0.0123382 0)
(0.0151911 -0.0144678 0)
(0.0195708 -0.0153047 0)
(0.0241298 -0.0147019 0)
(0.0285586 -0.0125881 0)
(0.0323368 -0.0090281 0)
(0.0348658 -0.00434818 0)
(0.0136145 -0.0174119 0)
(0.0173439 -0.0208328 0)
(0.0246622 -0.0263987 0)
(0.0324906 -0.0296702 0)
(0.0408569 -0.0304744 0)
(0.0494353 -0.0285922 0)
(0.0575907 -0.023948 0)
(0.0643883 -0.01675 0)
(0.0687592 -0.00766391 0)
(0.0242472 -0.0308325 0)
(0.0297149 -0.034873 0)
(0.0402376 -0.0416322 0)
(0.0514861 -0.0451185 0)
(0.0633802 -0.0451237 0)
(0.0753802 -0.041402 0)
(0.0865407 -0.0339326 0)
(0.0956101 -0.0231195 0)
(0.101197 -0.00995572 0)
(0.0371259 -0.0467926 0)
(0.0443236 -0.0507855 0)
(0.0577418 -0.0577409 0)
(0.0720457 -0.0605884 0)
(0.0869986 -0.0591121 0)
(0.101833 -0.0530826 0)
(0.115329 -0.0425746 0)
(0.125994 -0.028205 0)
(0.132276 -0.0112671 0)
(0.0520964 -0.0648555 0)
(0.0610434 -0.0681828 0)
(0.0770602 -0.074408 0)
(0.0940488 -0.0758444 0)
(0.111581 -0.0722922 0)
(0.12867 -0.0635643 0)
(0.143891 -0.0498706 0)
(0.155563 -0.0320364 0)
(0.162101 -0.011604 0)
(0.0690385 -0.084554 0)
(0.0797741 -0.08666 0)
(0.0981004 -0.0913171 0)
(0.117384 -0.090643 0)
(0.137015 -0.0844959 0)
(0.155805 -0.0727572 0)
(0.172167 -0.0557849 0)
(0.18433 -0.0345998 0)
(0.190777 -0.0109333 0)
(0.0878834 -0.105411 0)
(0.100433 -0.10578 0)
(0.120785 -0.108119 0)
(0.14199 -0.104731 0)
(0.163236 -0.0955471 0)
(0.183176 -0.0805455 0)
(0.200119 -0.0602418 0)
(0.21231 -0.0358339 0)
(0.218389 -0.00917735 0)
(0.108618 -0.126932 0)
(0.12299 -0.125082 0)
(0.145087 -0.124438 0)
(0.167819 -0.117813 0)
(0.190185 -0.105213 0)
(0.210725 -0.0867538 0)
(0.227727 -0.0631149 0)
(0.239549 -0.0356305 0)
(0.245026 -0.00620607 0)
(0.131306 -0.148591 0)
(0.147472 -0.144061 0)
(0.17099 -0.139817 0)
(0.194823 -0.129486 0)
(0.217797 -0.113171 0)
(0.238394 -0.0911337 0)
(0.254975 -0.0642059 0)
(0.266077 -0.0338106 0)
(0.27074 -0.0018385 0)
(0.156088 -0.169787 0)
(0.173975 -0.162113 0)
(0.198557 -0.153709 0)
(0.223008 -0.139261 0)
(0.246038 -0.118998 0)
(0.26616 -0.0933362 0)
(0.281867 -0.063222 0)
(0.291907 -0.0301109 0)
(0.29551 0.00416408 0)
(0.183223 -0.189788 0)
(0.202703 -0.178485 0)
(0.227932 -0.165404 0)
(0.252461 -0.146498 0)
(0.274952 -0.122137 0)
(0.294012 -0.0928747 0)
(0.308342 -0.0597464 0)
(0.316929 -0.0241841 0)
(0.319212 0.012106 0)
(0.213099 -0.207604 0)
(0.233973 -0.192142 0)
(0.259327 -0.173903 0)
(0.283263 -0.150269 0)
(0.304487 -0.121766 0)
(0.321803 -0.0890652 0)
(0.334188 -0.0532109 0)
(0.340912 -0.0155481 0)
(0.341642 0.0224234 0)
(0.246228 -0.221738 0)
(0.268132 -0.201521 0)
(0.292836 -0.177721 0)
(0.31526 -0.149245 0)
(0.334318 -0.116757 0)
(0.349118 -0.0809696 0)
(0.358967 -0.0428391 0)
(0.363429 -0.00353557 0)
(0.362364 0.0356993 0)
(0.282864 -0.229812 0)
(0.305114 -0.204127 0)
(0.327953 -0.174607 0)
(0.347615 -0.14156 0)
(0.363428 -0.105626 0)
(0.374894 -0.0674425 0)
(0.381644 -0.0277889 0)
(0.383471 0.0124469 0)
(0.38037 0.052355 0)
(0.320947 -0.227377 0)
(0.342184 -0.19583 0)
(0.361304 -0.161544 0)
(0.376802 -0.125116 0)
(0.388417 -0.0870084 0)
(0.395957 -0.0476939 0)
(0.399286 -0.00769402 0)
(0.398343 0.0324439 0)
(0.393159 0.072168 0)
(0.340602 -0.22331 0)
(0.36085 -0.188849 0)
(0.377623 -0.15257 0)
(0.39076 -0.114822 0)
(0.400132 -0.0759682 0)
(0.405652 -0.0363826 0)
(0.407265 0.00355346 0)
(0.404955 0.0434553 0)
(0.398746 0.0829386 0)
(0 0 0)
(0 0 0)
(0 0 0)
(0 0 0)
(0 0 0)
(0 0 0)
(0 0 0)
(0 0 0)
(0 0 0)
(0.00541082 -0.00694286 0)
(0.0073402 -0.00902762 0)
(0.0111334 -0.0123382 0)
(0.0151911 -0.0144678 0)
(0.0195708 -0.0153047 0)
(0.0241298 -0.0147019 0)
(0.0285586 -0.0125881 0)
(0.0323368 -0.0090281 0)
(0.0348658 -0.00434818 0)
(0.0136145 -0.0174119 0)
(0.0173439 -0.0208328 0)
(0.0246622 -0.0263987 0)
(0.0324906 -0.0296702 0)
(0.0408569 -0.0304744 0)
(0.0494353 -0.0285922 0)
(0.0575907 -0.023948 0)
(0.0643883 -0.01675 0)
(0.0687592 -0.00766391 0)
(0.0242472 -0.0308325 0)
(0.0297149 -0.034873 0)
(0.0402376 -0.0416322 0)
(0.0514861 -0.0451185 0)
(0.0633802 -0.0451237 0)
(0.0753802 -0.041402 0)
(0.0865407 -0.0339326 0)
(0.0956101 -0.0231195 0)
(0.101197 -0.00995572 0)
(0.0371259 -0.0467926 0)
(0.0443236 -0.0507855 0)
(0.0577418 -0.0577409 0)
(0.0720457 -0.0605884 0)
(0.0869986 -0.0591121 0)
(0.101833 -0.0530826 0)
(0.115329 -0.0425746 0)
(0.125994 -0.028205 0)
(0.132276 -0.0112671 0)
(0.0520964 -0.0648555 0)
(0.0610434 -0.0681828 0)
(0.0770602 -0.074408 0)
(0.0940488 -0.0758444 0)
(0.111581 -0.0722922 0)
(0.12867 -0.0635643 0)
(0.143891 -0.0498706 0)
(0.155563 -0.0320364 0)
(0.162101 -0.011604 0)
(0.0690385 -0.084554 0)
(0.0797741 -0.08666 0)
(0.0981004 -0.0913171 0)
(0.117384 -0.090643 0)
(0.137015 -0.0844959 0)
(0.155805 -0.0727572 0)
(0.172167 -0.0557849 0)
(0.18433 -0.0345998 0)
(0.190777 -0.0109333 0)
(0.0878834 -0.105411 0)
(0.100433 -0.10578 0)
(0.120785 -0.108119 0)
(0.14199 -0.104731 0)
(0.163236 -0.0955471 0)
(0.183176 -0.0805455 0)
(0.200119 -0.0602418 0)
(0.21231 -0.0358339 0)
(0.218389 -0.00917735 0)
(0.108618 -0.126932 0)
(0.12299 -0.125082 0)
(0.145087 -0.124438 0)
(0.167819 -0.117813 0)
(0.190185 -0.105213 0)
(0.210725 -0.0867538 0)
(0.227727 -0.0631149 0)
(0.239549 -0.0356305 0)
(0.245026 -0.00620607 0)
(0.131306 -0.148591 0)
(0.147472 -0.144061 0)
(0.17099 -0.139817 0)
(0.194823 -0.129486 0)
(0.217797 -0.113171 0)
(0.238394 -0.0911337 0)
(0.254975 -0.0642059 0)
(0.266077 -0.0338106 0)
(0.27074 -0.0018385 0)
(0.156088 -0.169787 0)
(0.173975 -0.162113 0)
(0.198557 -0.153709 0)
(0.223008 -0.139261 0)
(0.246038 -0.118998 0)
(0.26616 -0.0933362 0)
(0.281867 -0.063222 0)
(0.291907 -0.0301109 0)
(0.29551 0.00416408 0)
(0.183223 -0.189788 0)
(0.202703 -0.178485 0)
(0.227932 -0.165404 0)
(0.252461 -0.146498 0)
(0.274952 -0.122137 0)
(0.294012 -0.0928747 0)
(0.308342 -0.0597464 0)
(0.316929 -0.0241841 0)
(0.319212 0.012106 0)
(0.213099 -0.207604 0)
(0.233973 -0.192142 0)
(0.259327 -0.173903 0)
(0.283263 -0.150269 0)
(0.304487 -0.121766 0)
(0.321803 -0.0890652 0)
(0.334188 -0.0532109 0)
(0.340912 -0.0155481 0)
(0.341642 0.0224234 0)
(0.246228 -0.221738 0)
(0.268132 -0.201521 0)
(0.292836 -0.177721 0)
(0.31526 -0.149245 0)
(0.334318 -0.116757 0)
(0.349118 -0.0809696 0)
(0.358967 -0.0428391 0)
(0.363429 -0.00353557 0)
(0.362364 0.0356993 0)
(0.282864 -0.229812 0)
(0.305114 -0.204127 0)
(0.327953 -0.174607 0)
(0.347615 -0.14156 0)
(0.363428 -0.105626 0)
(0.374894 -0.0674425 0)
(0.381644 -0.0277889 0)
(0.383471 0.0124469 0)
(0.38037 0.052355 0)
(0.320947 -0.227377 0)
(0.342184 -0.19583 0)
(0.361304 -0.161544 0)
(0.376802 -0.125116 0)
(0.388417 -0.0870084 0)
(0.395957 -0.0476939 0)
(0.399286 -0.00769402 0)
(0.398343 0.0324439 0)
(0.393159 0.072168 0)
(0.340602 -0.22331 0)
(0.36085 -0.188849 0)
(0.377623 -0.15257 0)
(0.39076 -0.114822 0)
(0.400132 -0.0759682 0)
(0.405652 -0.0363826 0)
(0.407265 0.00355346 0)
(0.404955 0.0434553 0)
(0.398746 0.0829386 0)
(0 0 0)
(0 0 0)
(0 0 0)
(0 0 0)
(0 0 0)
(0 0 0)
(0 0 0)
(0 0 0)
(-0.00433517 -0.0348956 0)
(0.0008787 -0.0356857 0)
(0.00575713 -0.0343453 0)
(0.00948513 -0.0310563 0)
(0.0115411 -0.0264007 0)
(0.0117553 -0.0210323 0)
(0.0102379 -0.0154156 0)
(0.00732233 -0.00984696 0)
(-0.0076376 -0.0688156 0)
(0.00225554 -0.0699861 0)
(0.0114414 -0.0674369 0)
(0.0185695 -0.0615149 0)
(0.0227749 -0.0531769 0)
(0.0237336 -0.0434731 0)
(0.0215754 -0.0332053 0)
(0.0167748 -0.0228977 0)
(-0.0099172 -0.101271 0)
(0.00412578 -0.102483 0)
(0.0170841 -0.098838 0)
(0.0272916 -0.0908438 0)
(0.0336715 -0.0796832 0)
(0.0357779 -0.0666246 0)
(0.0337226 -0.0526997 0)
(0.0280052 -0.0385789 0)
(-0.0112196 -0.132358 0)
(0.00652345 -0.133375 0)
(0.0228277 -0.128741 0)
(0.0358641 -0.119142 0)
(0.0444291 -0.105859 0)
(0.0479903 -0.0902585 0)
(0.0466384 -0.0735472 0)
(0.0408456 -0.0564765 0)
(-0.0115501 -0.162184 0)
(0.00951389 -0.162834 0)
(0.0288223 -0.157328 0)
(0.0444852 -0.146482 0)
(0.0552348 -0.131625 0)
(0.0604946 -0.114166 0)
(0.0603361 -0.0954155 0)
(0.0551854 -0.076168 0)
(-0.0108776 -0.190854 0)
(0.013189 -0.191003 0)
(0.0352291 -0.184731 0)
(0.0533512 -0.172921 0)
(0.06628 -0.156917 0)
(0.0734439 -0.138169 0)
(0.0748764 -0.118002 0)
(0.070967 -0.0972335 0)
(-0.00912308 -0.218455 0)
(0.0176768 -0.218006 0)
(0.0422167 -0.211042 0)
(0.0626563 -0.198479 0)
(0.0777649 -0.181667 0)
(0.086995 -0.162071 0)
(0.0903417 -0.140985 0)
(0.0881829 -0.119246 0)
(-0.00615772 -0.245077 0)
(0.0231345 -0.243944 0)
(0.0499693 -0.236313 0)
(0.0726082 -0.223145 0)
(0.0899036 -0.205792 0)
(0.101334 -0.185677 0)
(0.106869 -0.164062 0)
(0.106894 -0.141785 0)
(-0.00179539 -0.270776 0)
(0.0297575 -0.268851 0)
(0.0586957 -0.260555 0)
(0.0834378 -0.246891 0)
(0.102935 -0.229183 0)
(0.116692 -0.208794 0)
(0.12466 -0.18693 0)
(0.12723 -0.16441 0)
(0.00420312 -0.295532 0)
(0.0377718 -0.292679 0)
(0.0686418 -0.283708 0)
(0.0954151 -0.269629 0)
(0.117141 -0.251689 0)
(0.133348 -0.231173 0)
(0.143975 -0.209232 0)
(0.149406 -0.186634 0)
(0.0121441 -0.319219 0)
(0.0474904 -0.315319 0)
(0.0801416 -0.305664 0)
(0.108883 -0.291201 0)
(0.132862 -0.273073 0)
(0.151645 -0.252472 0)
(0.165144 -0.230485 0)
(0.173725 -0.207833 0)
(0.0224744 -0.341642 0)
(0.0593373 -0.336589 0)
(0.0936133 -0.326203 0)
(0.124255 -0.311332 0)
(0.150524 -0.292981 0)
(0.172012 -0.272214 0)
(0.188594 -0.250041 0)
(0.200602 -0.227159 0)
(0.0357682 -0.362363 0)
(0.0738074 -0.356014 0)
(0.109479 -0.344804 0)
(0.141925 -0.329439 0)
(0.170519 -0.310754 0)
(0.194865 -0.289635 0)
(0.214804 -0.266959 0)
(0.23058 -0.243389 0)
(0.0524217 -0.380373 0)
(0.0911818 -0.372568 0)
(0.127944 -0.360398 0)
(0.162063 -0.344372 0)
(0.193006 -0.325108 0)
(0.220392 -0.303278 0)
(0.244013 -0.279567 0)
(0.263951 -0.25453 0)
(0.0721948 -0.39316 0)
(0.11098 -0.383862 0)
(0.148306 -0.370637 0)
(0.183709 -0.353752 0)
(0.216779 -0.333536 0)
(0.247166 -0.310367 0)
(0.274593 -0.284655 0)
(0.298916 -0.256766 0)
(0.0829386 -0.398746 0)
(0.121623 -0.388697 0)
(0.159136 -0.374904 0)
(0.195117 -0.3575 0)
(0.229219 -0.336654 0)
(0.261113 -0.312566 0)
(0.290492 -0.285467 0)
(0.317074 -0.255619 0)
(0 0 0)
(0 0 0)
(0 0 0)
(0 0 0)
(0 0 0)
(0 0 0)
(0 0 0)
(0 0 0)
(-0.00433517 -0.0348956 0)
(0.0008787 -0.0356857 0)
(0.00575713 -0.0343453 0)
(0.00948513 -0.0310563 0)
(0.0115411 -0.0264007 0)
(0.0117553 -0.0210323 0)
(0.0102379 -0.0154156 0)
(0.00732233 -0.00984696 0)
(-0.0076376 -0.0688156 0)
(0.00225554 -0.0699861 0)
(0.0114414 -0.0674369 0)
(0.0185695 -0.0615149 0)
(0.0227749 -0.0531769 0)
(0.0237336 -0.0434731 0)
(0.0215754 -0.0332053 0)
(0.0167748 -0.0228977 0)
(-0.0099172 -0.101271 0)
(0.00412578 -0.102483 0)
(0.0170841 -0.098838 0)
(0.0272916 -0.0908438 0)
(0.0336715 -0.0796832 0)
(0.0357779 -0.0666246 0)
(0.0337226 -0.0526997 0)
(0.0280052 -0.0385789 0)
(-0.0112196 -0.132358 0)
(0.00652345 -0.133375 0)
(0.0228277 -0.128741 0)
(0.0358641 -0.119142 0)
(0.0444291 -0.105859 0)
(0.0479903 -0.0902585 0)
(0.0466384 -0.0735472 0)
(0.0408456 -0.0564765 0)
(-0.0115501 -0.162184 0)
(0.00951389 -0.162834 0)
(0.0288223 -0.157328 0)
(0.0444852 -0.146482 0)
(0.0552348 -0.131625 0)
(0.0604946 -0.114166 0)
(0.0603361 -0.0954155 0)
(0.0551854 -0.076168 0)
(-0.0108776 -0.190854 0)
(0.013189 -0.191003 0)
(0.0352291 -0.184731 0)
(0.0533512 -0.172921 0)
(0.06628 -0.156917 0)
(0.0734439 -0.138169 0)
(0.0748764 -0.118002 0)
(0.070967 -0.0972335 0)
(-0.00912308 -0.218455 0)
(0.0176768 -0.218006 0)
(0.0422167 -0.211042 0)
(0.0626563 -0.198479 0)
(0.0777649 -0.181667 0)
(0.086995 -0.162071 0)
(0.0903417 -0.140985 0)
(0.0881829 -0.119246 0)
(-0.00615772 -0.245077 0)
(0.0231345 -0.243944 0)
(0.0499693 -0.236313 0)
(0.0726082 -0.223145 0)
(0.0899036 -0.205792 0)
(0.101334 -0.185677 0)
(0.106869 -0.164062 0)
(0.106894 -0.141785 0)
(-0.00179539 -0.270776 0)
(0.0297575 -0.268851 0)
(0.0586957 -0.260555 0)
(0.0834378 -0.246891 0)
(0.102935 -0.229183 0)
(0.116692 -0.208794 0)
(0.12466 -0.18693 0)
(0.12723 -0.16441 0)
(0.00420312 -0.295532 0)
(0.0377718 -0.292679 0)
(0.0686418 -0.283708 0)
(0.0954151 -0.269629 0)
(0.117141 -0.251689 0)
(0.133348 -0.231173 0)
(0.143975 -0.209232 0)
(0.149406 -0.186634 0)
(0.0121441 -0.319219 0)
(0.0474904 -0.315319 0)
(0.0801416 -0.305664 0)
(0.108883 -0.291201 0)
(0.132862 -0.273073 0)
(0.151645 -0.252472 0)
(0.165144 -0.230485 0)
(0.173725 -0.207833 0)
(0.0224744 -0.341642 0)
(0.0593373 -0.336589 0)
(0.0936133 -0.326203 0)
(0.124255 -0.311332 0)
(0.150524 -0.292981 0)
(0.172012 -0.272214 0)
(0.188594 -0.250041 0)
(0.200602 -0.227159 0)
(0.0357682 -0.362363 0)
(0.0738074 -0.356014 0)
(0.109479 -0.344804 0)
(0.141925 -0.329439 0)
(0.170519 -0.310754 0)
(0.194865 -0.289635 0)
(0.214804 -0.266959 0)
(0.23058 -0.243389 0)
(0.0524217 -0.380373 0)
(0.0911818 -0.372568 0)
(0.127944 -0.360398 0)
(0.162063 -0.344372 0)
(0.193006 -0.325108 0)
(0.220392 -0.303278 0)
(0.244013 -0.279567 0)
(0.263951 -0.25453 0)
(0.0721948 -0.39316 0)
(0.11098 -0.383862 0)
(0.148306 -0.370637 0)
(0.183709 -0.353752 0)
(0.216779 -0.333536 0)
(0.247166 -0.310367 0)
(0.274593 -0.284655 0)
(0.298916 -0.256766 0)
(0.0829386 -0.398746 0)
(0.121623 -0.388697 0)
(0.159136 -0.374904 0)
(0.195117 -0.3575 0)
(0.229219 -0.336654 0)
(0.261113 -0.312566 0)
(0.290492 -0.285467 0)
(0.317074 -0.255619 0)
)
;

boundaryField
{
    walls
    {
        type            fixedValue;
        value           uniform (0 0 0);
    }
    cylinder
    {
        type            solidBodyMotionDisplacement;
        value           nonuniform List<vector> 
34
(
(0.340602 -0.22331 0)
(0.340602 -0.22331 0)
(0.36085 -0.188849 0)
(0.36085 -0.188849 0)
(0.377623 -0.15257 0)
(0.377623 -0.15257 0)
(0.39076 -0.114822 0)
(0.39076 -0.114822 0)
(0.400132 -0.0759682 0)
(0.400132 -0.0759682 0)
(0.405652 -0.0363826 0)
(0.405652 -0.0363826 0)
(0.407265 0.00355346 0)
(0.407265 0.00355346 0)
(0.404955 0.0434553 0)
(0.404955 0.0434553 0)
(0.398746 0.0829386 0)
(0.398746 0.0829386 0)
(0.0829386 -0.398746 0)
(0.0829386 -0.398746 0)
(0.121623 -0.388697 0)
(0.121623 -0.388697 0)
(0.159136 -0.374904 0)
(0.159136 -0.374904 0)
(0.195117 -0.3575 0)
(0.195117 -0.3575 0)
(0.229219 -0.336654 0)
(0.229219 -0.336654 0)
(0.261113 -0.312566 0)
(0.261113 -0.312566 0)
(0.290492 -0.285467 0)
(0.290492 -0.285467 0)
(0.317074 -0.255619 0)
(0.317074 -0.255619 0)
)
;
        solidBodyMotionFunction oscillatingRotatingMotion;
        oscillatingRotatingMotionCoeffs
        {
            origin          ( 0 0 0 );
            axis            ( 0 0 1 );
            omega           1.5;
            amplitude       ( 0 0 30 );
        }
    }
    outlet
    {
        type            fixedValue;
        value           nonuniform List<vector> 0();
    }
    inlet
    {
        type            fixedValue;
        value           uniform (0 0 0);
    }
    frontAndBack
    {
        type            empty;
    }
    procBoundary0to1
    {
        type            processor;
    }
    procBoundary0to2
    {
        type            processor;
    }
}


// ************************************************************************* //
