/*--------------------------------*- C++ -*----------------------------------*\
| =========                 |                                                 |
| \\      /  F ield         | OpenFOAM: The Open Source CFD Toolbox           |
|  \\    /   O peration     | Version:  2412                                  |
|   \\  /    A nd           | Website:  www.openfoam.com                      |
|    \\/     M anipulation  |                                                 |
\*---------------------------------------------------------------------------*/
FoamFile
{
    version     2.0;
    format      ascii;
    arch        "LSB;label=32;scalar=64";
    class       volScalarField;
    location    "425";
    object      yPlus;
}
// * * * * * * * * * * * * * * * * * * * * * * * * * * * * * * * * * * * * * //

dimensions      [0 0 0 0 0 0 0];

internalField   uniform 0;

boundaryField
{
    FrontBack
    {
        type            empty;
    }
    Top
    {
        type            calculated;
        value           nonuniform List<scalar> 
15
(
142.2716079327862
133.5596465160868
138.0676312642557
144.3942971816971
159.7667255515136
131.3679352080753
140.1160517610709
135.3509373001156
153.432700689377
135.7440597809422
136.0886093218756
136.7759357631485
125.2392945991272
132.9010012194329
123.9476192828646
)
;
    }
    In
    {
        type            calculated;
        value           uniform 0;
    }
    Bottom
    {
        type            calculated;
        value           nonuniform List<scalar> 
15
(
155.5658131333632
158.1115007443729
141.0987319834057
142.0770322024461
141.1865403553553
148.452654592835
142.7099627717117
143.1697575714517
143.4234623398332
134.0599222297095
125.7365183221059
141.5564762344252
122.4129068899298
123.4917243698669
124.1436673691839
)
;
    }
    Out
    {
        type            calculated;
        value           uniform 0;
    }
    circle
    {
        type            calculated;
        value           nonuniform List<scalar> 
32
(
56.33393528305614
21.94470954791993
65.29115686589638
24.3985382649769
19.38386379998004
56.22260786693796
56.78586991482278
24.1831579627072
22.24613126391297
65.5088025989544
40.16567130819885
63.02205679599648
50.3556434875269
14.16651626926595
23.43097947021728
19.35702088434786
38.93294092210112
59.63702615452681
61.04734224013096
25.7568913894193
65.75283599524892
63.78699587264236
62.98851516135825
59.88425037720683
64.13354864101677
46.01658374851971
66.39497580649795
32.15867888371291
37.93839792349969
55.7063220077457
21.25250570338543
43.10358137454853
)
;
    }
}


// ************************************************************************* //
