/*--------------------------------*- C++ -*----------------------------------*\
| =========                 |                                                 |
| \\      /  F ield         | OpenFOAM: The Open Source CFD Toolbox           |
|  \\    /   O peration     | Version:  2412                                  |
|   \\  /    A nd           | Website:  www.openfoam.com                      |
|    \\/     M anipulation  |                                                 |
\*---------------------------------------------------------------------------*/
FoamFile
{
    version     2.0;
    format      ascii;
    arch        "LSB;label=32;scalar=64";
    class       volVectorField;
    location    "835.5";
    object      U;
}
// * * * * * * * * * * * * * * * * * * * * * * * * * * * * * * * * * * * * * //

dimensions      [0 1 -1 0 0 0 0];

internalField   nonuniform List<vector> 
808
(
(0.7562546744933223 -0.01749846029098632 0)
(1.031487605989654 -0.01261832520535838 0)
(1.112185667682632 -0.00637589499621641 -1.760235524123482e-20)
(1.085118645003936 0.01260726880643437 0)
(1.364820623850648 0.01520252814017459 -3.884810893406685e-19)
(1.038734193849578 -0.00934724628716377 -7.218655734804074e-20)
(1.013890859280072 -0.0210966141211666 -2.362683318895367e-20)
(1.07900953537376 -0.005408618650602828 9.019365875395243e-21)
(1.254904397412944 -0.01975513379813997 6.335737550533426e-20)
(1.084928826579009 0.01042536731114491 0)
(1.010952003045642 -0.007574301565078881 0)
(1.306732486926214 -0.05290148332895227 -3.535128969192695e-19)
(1.086162809914873 -0.001964715298122833 2.037403276505458e-20)
(0.6751693333711721 0.006376815879497046 0)
(1.280742784128686 -0.1134698751226482 0)
(1.081437385574465 -0.0001668186607648349 -3.837946200062764e-20)
(1.227672464812003 -0.1431445005703749 -9.590389169308946e-20)
(1.073920809559344 -5.745748937004553e-05 3.183408839438558e-20)
(0.9916227030245172 0.003798670007229441 0)
(1.026290870459642 0.009627143919057269 0)
(1.034864731853067 -0.009957259251811302 0)
(0.987490785295934 0.04447637628584441 0)
(1.051134313976336 -0.005915246974102104 5.602097552894471e-20)
(1.053519140871238 0.009304476521216378 0)
(0.9326018377023536 0.1969459560248332 4.602090068123177e-19)
(1.166000383502843 -0.08444299678349633 0)
(1.186198559214073 -0.01841002749875057 1.577220269196951e-19)
(1.077419960781266 0.009494199963448538 5.201709962420921e-20)
(1.083732642539334 0.002332915974763805 5.069795116018183e-21)
(1.071815348314217 0.03088141261054049 0)
(1.075381402453931 0.002789389743239956 -1.175250392765263e-20)
(1.032990011201693 0.006850208196218996 -1.943862250995425e-19)
(1.059948554839317 0.01474273495133365 -2.375184479881088e-20)
(1.089046863267391 0.005540102329149511 -2.931911025594353e-20)
(1.120540914868317 0.03943302850748349 0)
(0.7551344329950236 -0.1241437337859671 -4.538035948747102e-19)
(0.9547601522391768 -0.005877685619581093 0)
(1.068830061175541 0.02227629779891917 0)
(1.068809227105051 0.007323680489957111 0)
(1.073689363200101 0.008958074584244401 -2.835275678139688e-20)
(1.092417863055571 0.02473674993090556 1.109364951203926e-19)
(1.150981690078477 0.003903591410294636 2.172449987822809e-19)
(1.09602308228518 -0.002285009992548106 0)
(1.015576900485052 -0.009031375722901264 0)
(1.134065196885878 -0.09422404990815998 -1.627327364505489e-19)
(1.044098275543612 -0.01158538579346563 -8.052927869619285e-20)
(1.058153249481547 0.02661982870363687 -2.781988182423839e-20)
(1.23179965034294 -0.1120786042813719 -5.604865154537003e-20)
(1.067604183191684 0.01210308375646809 -4.220685690667754e-20)
(1.258385586384497 0.01796746243675972 0)
(0.996329258112114 -0.01903697524990224 2.13464352673917e-21)
(1.044677985220979 -0.001824456189816888 0)
(1.087635385122082 -0.002079977640324538 0)
(0.9994341834488667 0.006870911690620989 -1.834767870460693e-20)
(1.250317936391755 0.03451957112849416 -2.338284951068734e-19)
(1.063572477775222 0.01811175076624671 6.088678384583133e-20)
(0.9921933117723397 0.009706687156413644 0)
(1.019932630252036 -0.007209809281925639 2.384741354330744e-20)
(1.107494755314776 -0.0001074696515342365 -1.1911778098726e-19)
(1.061130876180048 0.03102196651525437 0)
(-0.08696314582487426 0.01080305615572077 7.360831533333565e-20)
(1.155265009559587 -0.05162140656542791 -1.903126732407384e-19)
(1.007165683899401 -0.006572819268844387 -2.619433039214036e-20)
(1.185911545515704 0.07029986004613177 -1.232543311208535e-19)
(0.9979861087982734 -0.009289090417590349 3.027138206304009e-20)
(1.084321127980849 -0.005493831129557501 0)
(1.248039871328321 0.09882830929171744 0)
(0.6960734416382076 0.00319330549584463 -7.46889103377465e-20)
(0.9891345064752983 -0.01335087313730143 -3.154114010435999e-20)
(1.46147512228984 -0.01801599503870305 4.473872224267798e-19)
(1.06047159758174 0.007604152409757697 -6.738942804305801e-20)
(1.369187465580793 0.09708971845149868 2.89819828249031e-19)
(1.054762393796063 0.006890216841973328 -1.908484003312162e-22)
(1.081170041045925 -0.01384299770237715 -3.97541678201574e-22)
(1.16547920687712 -0.2365263874377719 0)
(1.021695653295522 -0.01473587017693418 0)
(1.016958967490353 0.01778481636157802 -3.107412950549557e-20)
(1.384934140115891 0.3485314897118791 4.165028863008493e-19)
(1.097200477828735 -0.04241876072463342 9.401389689256695e-20)
(1.045266990249236 0.2091449106566194 2.516438114529922e-19)
(1.12544122537541 -0.06026223480546066 1.15628978732257e-19)
(0.9219557736081146 0.005129332587355147 0)
(0.9753653861046878 0.01851018116153598 0)
(1.004118508187161 -0.04894263737726217 2.772064043021772e-21)
(1.009965870990518 -0.01313076922617529 7.581012002997843e-21)
(1.029768132056863 0.02656618973899255 1.391734176233585e-20)
(1.530849920704435 0.03610101065597253 3.261930822850622e-19)
(1.288556345463775 0.07158004921379645 5.519307539536742e-19)
(1.07229045050177 0.003095054473160961 -9.159697273957627e-20)
(1.198313847030468 -0.09184798948645505 0)
(1.033688486310134 0.001927726613240309 1.336309561183863e-19)
(1.165080691466319 0.02272177212162201 -3.212091794736521e-19)
(1.001435159986045 0.03232941734923352 0)
(0.9996260144444137 0.00203558823362787 0)
(1.044493772015321 6.687958189982021e-05 7.786004969366569e-20)
(1.212917006398651 0.1121677236894326 4.152311681256929e-19)
(1.011076282009371 0.006993391621263728 0)
(1.092517518167187 -0.06901235323412006 -1.051713806808367e-19)
(1.150627816639191 0.03826857901696314 0)
(1.214000630354303 0.09688895992486603 -1.953232877638936e-19)
(1.108142457680891 -0.02874915821819879 -7.691698987746445e-20)
(1.0271984845934 0.01177990084930281 0)
(1.085006956008811 -0.004617505175978347 0)
(1.018838700120465 0.02605278010770333 8.093040226007678e-20)
(1.071415524855188 0.05548583112579588 -9.572609662429871e-21)
(1.103838934768608 -0.004130616166736302 6.278106630698712e-20)
(1.11170914515221 -0.09394135360768104 1.500881350049034e-19)
(0.9632715444132939 0.004741369321520712 0)
(1.066020268886762 0.0311192616494083 3.82626893265287e-20)
(1.169300070690094 -0.07631914035300155 2.325907118330515e-19)
(1.051088994172528 0.04621816936529463 -2.908983729954224e-20)
(1.022571500266692 0.06728346501262471 3.727424338158712e-20)
(1.090264046117038 0.0260202178124926 0)
(1.016997504638705 0.01728059421565775 0)
(1.029004487727697 0.009400771202424604 7.887392198836616e-20)
(0.9486560568536496 -0.03360167140683437 0)
(1.052732725636281 -0.005594144803126424 -7.808786570234019e-21)
(1.343248209462019 0.0590819525758118 -1.578378857739624e-19)
(1.079950391622304 -0.01313283922611483 2.619535627030988e-20)
(0.7439361481147995 -0.001728818043134642 0)
(0.5822513437178409 0.1880063724619979 -9.858075041890272e-20)
(0.7061992860766174 -0.002520847437043267 0)
(0.6987907267283766 0.01462544511069455 0)
(1.077627041760323 0.003673073127732812 -6.734087675563071e-22)
(0.9906460570798287 0.01452363127330236 0)
(1.277942046205814 0.1227665593685938 2.494203031780535e-19)
(1.012336797413707 -0.02780221907603356 -7.804610592267558e-21)
(1.045989847431831 0.02027093892678021 1.830528195349209e-21)
(1.058690970772712 -0.01167560105041991 0)
(1.126661247083385 -0.009112867204393723 -5.004113472083204e-20)
(1.268721790278314 0.1398754776847969 -2.292619822335328e-19)
(1.089367815058306 -0.01115947542506592 -8.567639371676092e-20)
(1.06998164067358 0.02683009109383849 -1.099780093678591e-19)
(1.040746211608935 0.04674214661370787 7.001257768722785e-20)
(1.02259655658105 -0.00377188561133953 -3.459576631947487e-20)
(1.060872272824698 0.02353486741202829 6.014710400114725e-21)
(1.132026608027139 -0.0004337113746947661 1.05832322254344e-20)
(1.039308698413872 -0.01572747128080112 -4.820225807343599e-22)
(1.087436786056099 0.03472808478211356 0)
(1.028004587147903 0.01363290219600788 0)
(0.7659101975691467 -0.06488804963637318 -1.809807278696579e-19)
(1.030185342600659 -0.001603672131548529 -6.852717750905592e-20)
(1.12948089307782 -0.006116367073366888 -1.269525264155698e-20)
(0.703417741825877 0.006577557857308381 7.34883245211976e-20)
(1.174670025270655 0.0203911128425105 -1.926786811295666e-19)
(1.134784121417189 0.007238670650032367 5.09069773782458e-21)
(1.128965821732285 -0.01000757999698972 3.457490186246059e-20)
(1.000937498117621 -0.002935277151021206 -7.443861512431638e-20)
(1.102737837084133 -0.06579646562179549 0)
(0.9873102879632907 0.004133881725279639 0)
(1.057850350058763 0.007063610257329388 0)
(1.005286149408747 0.1877681425523948 -2.454193311491564e-19)
(0.7791770245182696 0.012417471831267 0)
(0.8568934894292162 0.1003294125780025 -8.408207291854904e-20)
(0.07562581017861704 0.03690362798544732 -2.994967562505964e-19)
(1.172207225253293 -0.0296318584937535 -2.242522660435525e-20)
(0.6713259969310973 -0.007297632863532073 2.441552616705586e-20)
(1.169909933039073 -0.1003124911540697 6.880236208464697e-20)
(1.122737486395171 -0.004859503417594591 -5.783520760267441e-21)
(1.154914351290234 -0.04773988186095689 2.179176637100304e-20)
(0.1039156262496473 -0.2229748902007053 0)
(0.2406168095666382 0.08069374678870488 0)
(1.259645661436086 0.1120530546499768 1.922909056511966e-19)
(1.021122379905751 0.01978502161970882 0)
(0.7378502132859829 -0.006262930095503502 0)
(1.075372871740184 -0.01163836666184309 2.717309597628433e-20)
(0.9747698927442294 0.002810894395070714 0)
(1.296496093695368 0.1295202122118873 -1.573416648391673e-19)
(1.057437693518985 0.01110957543550457 0)
(0.9938016778247339 -0.007052537829888045 0)
(1.064999914634974 0.008326809514988364 0)
(1.006174789078234 0.02082833663806988 1.879136323595709e-20)
(0.9378550561645242 0.01655996231874065 1.128460323437266e-20)
(1.177616555724732 -0.2000705775671247 0)
(1.005211633296883 -0.005180064415256467 7.878397536181634e-20)
(1.059126953442196 0.006426251469963446 0)
(0.7746744730728722 -0.003277189122365305 0)
(1.218009665022034 0.02899088140206219 1.661672423306015e-20)
(0.7049395226122531 0.00135003186459616 0)
(1.436568030537447 0.08769052914590858 -5.263857452536769e-20)
(0.9951720227218656 -0.006311010438313437 1.701807517058889e-20)
(1.273126987680157 -0.001299942767901663 -2.946567968123451e-19)
(1.059496826641199 0.008968838519047386 1.378297551379969e-19)
(1.000911419485197 -0.01357123391575924 0)
(1.213636042363252 -0.1411072278031356 2.046770263309939e-19)
(0.7331924745384586 0.01378764182563106 0)
(1.098533999054142 -0.005022198335910487 0)
(1.153297193123708 0.0696500319004394 1.987577667680834e-20)
(1.006964449810363 -0.006544633434918537 -3.028311502982234e-20)
(1.120839564678665 0.05324866116573269 -1.757757997085394e-19)
(0.09595058692976231 -0.08787409798198474 0)
(1.072030322453232 0.03906383868107474 0)
(0.6617795698469197 -0.002913628794620942 -6.228871933782075e-22)
(1.012163118745197 -0.01938792123520108 9.572377179243364e-20)
(1.061309215346117 0.0007902227189082118 0)
(1.074861559343 -0.1275918356361734 3.72075861184961e-19)
(1.002841530779471 -0.006188814336839054 -3.416377149849435e-21)
(1.00309204840645 -0.005105770348447539 6.974137758812577e-22)
(1.09392527967779 -0.009310151972891886 0)
(1.020665900641846 0.02057199160076256 -6.374711510056903e-20)
(1.106532884699154 -0.001569756321851479 6.60669327061565e-22)
(1.074557737983447 -0.01128335020666615 6.617751796866293e-20)
(1.085768795969878 0.02226492146432332 0)
(1.331075656339835 0.161820941183184 0)
(1.002011724756783 0.0002076860308988003 4.413375093902903e-20)
(1.319381448673274 -0.1262359871385908 1.562184908583402e-19)
(0.03862946815887952 -0.1894691252234886 -2.46159755960026e-19)
(1.071234711653681 -0.005429768692139905 0)
(1.114532160124474 -0.003937007567393997 1.186621320380089e-20)
(0.7267773022340592 0.01781515817674184 0)
(1.06121676553583 0.008696668176595312 0)
(0.8682558052105744 0.1648475416344484 4.701910666663179e-19)
(1.275770877239873 0.1339213480344033 1.931621540012076e-19)
(0.654354217334211 -0.003096467460432945 -6.386694307559013e-20)
(1.040437788618044 0.001638654778412899 -6.963948099623027e-21)
(1.054728645442458 -0.0002541816601335438 6.588499739864219e-20)
(1.364526073565478 0.1221985755134202 6.730529270349789e-19)
(1.33400147450604 0.2520269115543292 0)
(1.060154576726012 0.003219701488479385 0)
(1.000583679418645 -0.005939319475170323 1.483660001626929e-20)
(0.992837140830971 -0.007018841391991766 5.265508758453713e-21)
(1.38182767096652 0.1998135981853929 4.260659116513171e-19)
(0.6817983962699485 0.000477159659127855 9.895814530827965e-20)
(1.005605504286655 -0.002169313185068299 -5.992223356543924e-20)
(1.098229546285957 0.01306926989117198 2.553351073778846e-20)
(0.669463845275533 0.004976963124493806 0)
(1.066090720303405 -0.01201274100494778 0)
(1.015758726781729 0.1532569651036195 -1.33197003363609e-19)
(1.092110672337995 -0.00790939531911013 -2.502297665309663e-20)
(0.9820857219172173 6.362127776673732e-05 3.28927234236677e-20)
(0.9912111537066385 0.006031959656027487 0)
(0.6382327945933706 -0.001072826359893662 0)
(0.9767453367253974 -0.001176215844955299 0)
(0.6421411601876654 -0.001463972613476459 2.657146657425586e-21)
(1.090095711668868 -0.05557070260214204 1.197403470531371e-19)
(1.112752005851025 -0.002765559259693022 1.181177266777139e-21)
(0.9579032663704211 -0.0008813921396373522 3.897704334584589e-20)
(1.016559595346776 0.01000691995930487 1.7200173885132e-20)
(1.067131771838685 0.001483713536586323 -2.544769809526281e-21)
(0.634702806345924 0.00887629252921588 -3.632051181913761e-20)
(1.004935091306028 0.008243814820994689 -8.317466143706697e-22)
(1.036597004673913 0.006726075789961711 5.395220509948324e-21)
(0.9863498230368289 -0.01108346991410386 0)
(0.6099527602587241 -0.0004741182356098162 0)
(1.068759235025916 0.02254196301768147 0)
(1.016964779925602 -0.01641758801352195 1.038239192621379e-20)
(1.02381800668789 -0.01017064126694918 0)
(0.9917947600826929 0.01359247062784748 -9.840436122189172e-21)
(1.009777805435136 0.0008082507032112392 0)
(1.130509944594993 0.001687864340435145 -1.158425315232096e-20)
(0.03760295057540237 -0.1440528126792509 -3.876533940543282e-20)
(1.035452148902833 -0.01840942009811672 -6.067629826655893e-22)
(1.041041117943016 0.004421943036850106 0)
(1.08094996099068 0.06829316352777129 8.475351051752387e-20)
(0.9676024854267136 -0.002354564461621047 3.110019625144899e-20)
(1.020325691841824 0.01669624820342731 -2.339018688401279e-20)
(1.002044440349122 -0.002004068593317211 2.462534901703641e-20)
(1.039505631018538 -0.007497886458296376 0)
(0.6408774809101594 -0.004042445362127408 0)
(1.025814479676333 0.02453968337869807 -7.457004509593261e-20)
(1.086459789334763 -0.006123277359939734 4.919478533132501e-20)
(1.016235194098322 0.006238098301771443 0)
(0.9790695349546688 -0.001879082018213945 -1.957493514267897e-21)
(0.863354507283654 0.01214747503425718 -9.002927463285544e-21)
(1.014027365180834 0.00257100995614535 -9.867339094830543e-21)
(1.023417156337051 0.005960134694978695 1.871850202696896e-20)
(0.9845567586943731 0.004945581646982522 0)
(1.004081588545542 0.01199096380442403 3.437760810315581e-20)
(1.110280766730876 0.0004607209641785844 0)
(0.9275342379409433 0.005773286516250998 -3.102227325576048e-20)
(0.956617202476266 0.0005386921490590256 0)
(0.9110302017558721 0.2073948566134785 5.08521533320614e-20)
(1.010817271924295 0.06686351561019246 0)
(0.992429138292359 0.00479794763747063 -2.26503887876761e-20)
(1.058992884269947 -0.05266373323350185 -2.86422387498083e-20)
(0.9925619345501329 0.0008815794896689861 3.317706227318651e-20)
(1.009963411878835 0.00689965868633702 0)
(0.9784214129326797 0.00067008854855359 -3.081170393701153e-20)
(1.172055477232825 0.1050505019580533 -3.434076146396543e-19)
(1.069966492321444 -0.2654380685061093 0)
(0.9931084011380993 0.0006350501338854075 -2.252892107240181e-20)
(0.9749386205664448 0.001210697128134253 4.961968895100027e-21)
(0.9636587507591902 0.003975684841138066 9.928613964229813e-22)
(0.7459208160952348 -0.001045503443425607 0)
(1.124314810152274 -0.07796759463008539 0)
(1.002982253400223 0.003148979139536898 -2.257945301501243e-20)
(0.9080708422909357 0.01281731098328955 -9.870027015092025e-21)
(0.8490818414007892 0.005772528990232938 2.428123926126099e-21)
(1.014400696451961 -0.007292343068879945 0)
(0.9557147749462684 0.01143775025147102 1.408800526924442e-20)
(1.005554220076666 -0.0002450683337111451 -2.291266580756829e-20)
(1.022788795972385 -0.003317312571263993 -2.545425212458676e-20)
(1.114954564172446 -0.001127518958803813 -4.942448962471964e-21)
(1.119574681653344 -0.0004479973560898284 0)
(1.013177965291523 -0.009848069995534845 0)
(1.019613645414018 0.0005284412175717919 0)
(0.9415582076037078 -0.0004643732557117669 -2.0124801943409e-20)
(1.017849928598157 0.01363324977550202 5.419319512068724e-20)
(1.08510726810882 -0.00528192801060514 -2.274068884601224e-20)
(1.040560149700285 -0.00879113197824833 0)
(1.107424463489903 -0.003484043640248862 1.855429424960283e-21)
(0.9944690778979244 0.002294073866758908 -2.229111510334099e-20)
(0.9851514197325146 0.003230655387782677 0)
(1.010826250842779 0.003271580914708025 4.657142839373815e-20)
(1.367181311090294 -0.3146975330447183 -1.130182271953954e-18)
(1.12212020119632 -0.04306998029738034 -1.088890417783487e-19)
(0.9651400005451553 0.004345688706677522 4.489998325768006e-20)
(0.7664577537695306 0.001640223399230366 -3.104351717941773e-20)
(1.223328320987995 0.05326689261764776 0)
(1.224169042881504 -0.1273877614836833 -1.468536390355858e-19)
(1.080620714112703 -0.0009631940710425256 0)
(1.008075576997005 0.0009549545425951202 2.277385346512265e-20)
(-0.1849010016796085 -0.1407603390515358 0)
(0.9939663440767252 -0.004651872616544621 0)
(1.012417613788495 -0.02312553901341835 4.418251853380632e-20)
(0.706388847483187 -0.01945851719503399 0)
(1.096789278399239 -0.01477661826395574 2.139284234624341e-21)
(1.042393252522866 -0.008171362378454367 1.793952601532854e-20)
(0.6332076357806404 0.004118848278500222 0)
(1.449601018655486 -0.1232032442754468 0)
(0.9862777235824048 0.001377397889933441 -1.080696486138607e-20)
(1.069806499971783 -0.01507130739620665 0)
(1.037813959513514 0.0003934940782580487 2.115114827825606e-20)
(1.08099564367292 0.005664551291762785 0)
(1.011514913721193 0.00165853019544475 -1.07840889249738e-21)
(1.005774536354669 0.003091241592841563 0)
(1.009618906386441 -0.004123841982795652 -5.503498493332318e-22)
(1.004259318721022 -0.02083572745060954 0)
(1.035940377560378 -0.002264208755256533 1.696896780336741e-20)
(-0.175902996982878 0.02787892075642474 2.685659634844765e-19)
(0.7980920242213358 0.02049449745251965 5.239762449632935e-20)
(1.005522855894061 0.001803051473241438 0)
(1.128752542114878 0.01288657412515372 -1.102693236792829e-20)
(1.119430992708577 0.01040226303097695 8.294337537621498e-21)
(1.054577175716019 -0.01286011938609844 -1.292899294135095e-19)
(0.9987809353311033 0.01036278571905427 8.020724586744458e-22)
(1.078592792222428 0.001663120284438895 0)
(1.187768936267884 0.0538556931563235 0)
(0.835372892172264 -0.07670030755146431 4.593003279777838e-19)
(1.092806380950931 0.0008552000585119037 0)
(1.033624930282867 0.007392672903165703 -7.491982757207236e-21)
(1.042425845437771 0.005194645148512775 5.98613052752435e-21)
(1.055936631637102 -0.06007315949227582 -7.549660853549052e-21)
(1.139361385484349 -0.0007552442323399606 1.682624733371196e-19)
(1.086853193724834 -0.005360478056112744 0)
(0.9942690691338796 0.001508154413882291 0)
(0.9965168485675565 -0.02654334265399368 -2.348896054817563e-21)
(0.9900535065829399 0.0032520349456884 0)
(1.0314739029153 -0.0380368243696305 6.398461793583209e-20)
(1.290890028170701 -0.09331953410975591 0)
(1.042030594372803 -0.001180454989282017 -4.055169307636283e-21)
(0.9861700752031765 0.01702326451434314 -8.656795066137692e-20)
(1.032757538407143 0.04177874540124014 -2.396068791816408e-21)
(-0.07823716940172801 0.1539947427764283 -1.689059097029247e-19)
(-0.07031253775086266 -0.3020764083989212 -1.32965612698628e-19)
(0.8974031795864215 0.1389606455901432 0)
(0.288733556427794 -0.03546824536330097 -3.289733334853838e-19)
(1.005227237564274 0.000867534821478697 -1.319252175161337e-20)
(1.063824765270603 0.002709631949203426 -2.103672611064302e-20)
(0.9912722222116974 -0.01974397172899555 3.012691606922609e-20)
(1.022893790559675 -0.03176530672430277 2.59449089229333e-21)
(1.010062266154587 -0.03198584056356418 -6.573989275160542e-20)
(0.9888709689402364 0.004811134563374713 -3.472232624950386e-20)
(0.9929788794380542 0.005179943614681512 0)
(1.025139050029249 -0.002364216347477702 -3.494965981570388e-21)
(1.9378520553982 -0.1560247477073947 1.075784386119864e-18)
(1.043010845376115 -8.155498888973113e-05 0)
(0.9956743183237869 0.008606601499180157 1.547440907727493e-20)
(1.003401386226085 -0.0003356585465889565 4.036509534401197e-20)
(1.15992491348322 0.1495304575074531 0)
(0.9986871193463324 -0.004345159431544355 8.247341113156002e-21)
(0.9499661801095499 0.0009493951536523686 0)
(1.037836363534892 0.04176432367878598 0)
(1.310991023701834 0.1606793309604092 2.353614759821405e-19)
(1.082865925396472 -0.001030175500012647 2.301811564134224e-20)
(1.017174947859821 0.02969006843313393 4.622375525470656e-20)
(1.08605958863227 -0.002052023350212304 -2.21940409240192e-20)
(1.048768781437195 -0.0109934548325796 -8.894943621818142e-21)
(-0.3854199728922024 -0.05281853521822383 0)
(0.9995912793820163 0.0138223749611077 0)
(0.1111382959368007 0.05448634169459496 -9.060711961660673e-20)
(1.007059746290895 0.02078516102340089 -4.150652504479908e-20)
(1.000009983243747 -0.02004828931156967 0)
(1.001492808435697 0.005512730822037279 -4.962734284555673e-21)
(1.081907689490053 -0.04248813508443267 0)
(0.9942051205836951 -0.01700661999827216 -7.884705458618933e-21)
(1.100666069179354 -0.05958662613577415 0)
(1.445738096604494 0.1754039940897159 0)
(1.054788269951352 -0.01220615205916014 0)
(0.9904111870462977 -0.02447491519057724 -4.046019694148346e-20)
(1.000510162232221 -0.04419810159162708 -3.248368103799207e-21)
(1.014010257515376 -0.01983072170781841 -1.870508365345309e-20)
(0.9968104775019525 0.01655760404052729 -5.61472942235082e-20)
(0.9958130025773807 0.01045641110151006 -1.508089933196349e-20)
(0.9946666072291884 -0.02868220150152346 0)
(1.002642580975143 0.02373899891476829 1.947164026762519e-20)
(1.056685539335095 -0.03801691476969161 0)
(1.1114479686615 -0.03572213824094957 2.61150514124082e-19)
(0.9957224136427942 0.0167803842262357 4.629138519483087e-20)
(0.6150501760572946 -0.00868582893290628 0)
(1.141033220237198 0.1567001783962188 -2.495642645181918e-21)
(0.8506174050955578 -0.08818443684802538 0)
(1.137712463765277 0.07308848108537565 -2.713294284897143e-19)
(1.317346097325237 -0.3896213847489066 1.298439875911895e-19)
(1.068914531889419 0.06304580380993208 -1.259654455890546e-20)
(1.011165226155176 -0.03218466900455442 0)
(0.9562597475759885 -0.2166225942419837 0)
(0.5223588694844349 0.1603697842977217 0)
(1.016411335450745 0.009736732232387017 1.277825098475227e-21)
(0.6909661168937328 -0.02830251796512264 0)
(0.9996027086465625 0.01705276956005987 3.573619149219689e-20)
(1.026829468385534 -0.004683111844593737 -2.769553148473547e-20)
(1.078968891565741 -0.008088681026044016 2.762228629317019e-21)
(1.04883059195242 -0.02507840240132017 3.023111016308788e-20)
(1.042476388660709 0.01181201102313878 0)
(1.064205845728719 0.02269730235423185 -9.100274225716977e-21)
(1.049463058639786 0.03598983317662296 -1.817710809092801e-20)
(0.9833515362225783 -0.02282120225499689 0)
(0.6249096719155541 0.005097934909869378 9.171944311666906e-20)
(0.8941491056574408 -0.005910559897488032 -8.847392741540529e-20)
(0.9093814158874687 0.005281802048802634 1.449854972053518e-20)
(0.6295935163011021 -0.006428073103829809 1.406220888347173e-20)
(0.9803582802936057 0.001163687102013498 2.511125866448107e-20)
(1.004434209380502 -0.01745248907759669 -3.54131023669354e-20)
(0.9825794411776527 -0.03803328080821046 -3.255517025256537e-20)
(1.085575644836385 0.001657689933457008 0)
(1.020166629816887 0.004967587147345574 1.010626471349394e-20)
(1.132153284401445 0.04891489268200975 1.31217708167853e-19)
(1.031355736419556 0.04068100220283694 0)
(1.022622737630901 0.002543618686359964 0)
(1.586190003388811 -0.1676684694632251 4.409611135506259e-19)
(1.058482422530929 -0.04773107208597233 0)
(1.017126946505276 0.009469656944456402 -3.805948950803937e-20)
(1.083168321874707 0.005825027994584956 0)
(0.4868014482245726 -0.01425210399893775 0)
(0.01176465370087047 0.0243140720359469 0)
(0.9912826858135174 -0.02424210068667757 1.22409790549126e-20)
(1.302576680864389 -0.09583871281126574 3.744394560170095e-19)
(1.033165820495077 0.03475404358632281 0)
(1.022258062959234 0.003511044866102458 -2.238074505630896e-20)
(0.9502535375195467 -0.1601505990167325 -1.289964513618405e-21)
(1.256613068178636 0.07815524344453149 0)
(0.5966005708645041 0.7279924091871037 0)
(1.313567397921952 0.1468286635259982 1.083733722402728e-19)
(1.679522162103762 -0.02542599532487591 0)
(1.050024644757976 0.1166666913457872 0)
(0.7103318684687598 -0.02145129743263111 3.820580127986672e-21)
(1.048326072107781 0.04357100666931146 0)
(0.7579042421148064 0.1268842236936001 1.294307452678272e-19)
(0.9967704581259589 -0.01650689625396499 3.571415707521933e-19)
(1.037912526957762 -0.04216182475444104 2.770157091493892e-20)
(-0.3825617150701771 -0.02263572093384364 0)
(1.072281041577833 -0.01643091116013412 0)
(1.08570445260334 -0.003726968308871652 0)
(0.6494825525462991 -0.5058597914783953 -2.460977396293661e-19)
(0.9895006680240438 -0.001300541674884364 0)
(1.092480198984139 -0.02133025241748666 4.955085897490076e-22)
(1.186877327059486 0.1211225539821975 -2.000845621753669e-19)
(1.095345600162194 -0.04956133174086701 0)
(1.006225083470559 -0.02115665859321624 0)
(0.7781074475249481 -0.1793364686902024 -1.631379306618042e-19)
(0.8792604493663362 -0.1298734380483052 1.502363489503263e-19)
(1.031343575249359 0.01486391303709719 -2.20802026868641e-20)
(1.023116679793513 -0.008927869772867894 -4.549787437596751e-20)
(0.8806558917971776 0.01267604276910575 2.892418744719182e-22)
(1.507270972988096 -0.1942028135803423 0)
(1.308417796813411 0.1176322959682282 3.003069732960209e-20)
(1.242619688679319 -0.07351364099071492 -3.261179802397071e-21)
(1.095689239660932 -0.01847933569789486 -3.90945683501136e-20)
(1.035043982994056 -0.01339951113261804 2.649556823864807e-20)
(1.092838053388155 -0.03905428067013691 9.195796775538397e-20)
(1.03169462111569 0.02052697136690566 0)
(1.048049046216715 -0.03789384276540265 0)
(1.115955202653913 -0.008937835304278592 0)
(1.094422270887089 -0.04088706764630584 0)
(0.9981996380381606 0.01115844995072689 0)
(1.149324938765423 0.08193044898223155 9.573529910227197e-20)
(1.3374789215358 -0.1520107515174455 0)
(1.035668694953067 -0.02656679304381277 -2.261326752533889e-22)
(1.048329715329105 0.05107574829157173 0)
(1.010281776019956 0.01444026340856163 -3.940914621401622e-20)
(1.033871909162402 -0.007330488548050224 9.144987075732302e-21)
(1.088924222018098 0.01348105423792192 -3.252445083306099e-20)
(1.085284217782251 -0.02793270211728787 0)
(1.070553830068275 0.006295389058953216 0)
(1.106946067268801 0.09402078932662315 -1.417774415705049e-18)
(0.9356388442375024 -0.1506214716521188 -7.066491856342391e-20)
(1.169557191145512 0.1163019577046934 1.14305017843592e-19)
(-0.4745735606061777 -0.01086138733057999 -2.901169560124287e-19)
(1.017871117861095 0.02888821182961342 -8.831758578933312e-20)
(1.005077244657966 0.004921415320088444 0)
(-0.2643757159466138 0.002406472353673454 3.555753606126686e-19)
(-0.03792537643611719 0.2867477646622403 7.704077803999522e-21)
(0.9952153490993572 -0.006253855556833657 9.686403094262791e-20)
(0.186162277916362 -0.04399629704118588 1.337925853410369e-19)
(1.084828944662191 0.08427929552838324 1.434120203045581e-20)
(0.09395638591029663 -0.1119475652401931 -5.526506803893302e-20)
(1.108386421027711 0.002977565647865728 0)
(1.102013415037699 0.2550389522762667 0)
(1.021247660379739 0.02143271897660888 -1.727728482493383e-20)
(1.065913894739402 0.05075284107596387 0)
(1.026741297781792 0.02397997692062514 -8.968279822089736e-21)
(1.26468258155425 -0.5496651853475206 8.057809042810878e-19)
(-0.1187943643111699 -0.2312805423531535 2.161817241141186e-19)
(1.300847002670897 0.1160675888516836 -6.293445506339122e-19)
(1.121580995905274 -0.003070164020823595 0)
(1.120777186654947 0.101645203573064 0)
(0.5261295027468543 0.07976382281588475 2.482536768108337e-19)
(1.023803653777297 -0.02029786515169707 9.369368109360519e-20)
(1.006615413249943 -0.0234802025074606 0)
(1.2101325647301 0.2702006850769195 -9.55247397662767e-20)
(1.264067222467314 0.1328930842213002 -1.567845327604922e-19)
(1.026609816941498 0.00335353054939853 1.544778867786671e-20)
(1.301175581749892 -0.08495261850262774 -5.006370992730954e-19)
(0.2977465023551388 -0.01758570936650716 2.783500547159586e-19)
(0.8272682306923796 -0.1464879264781437 6.750057423064899e-19)
(1.039419552143906 0.04898247722529512 1.067756112961427e-19)
(1.038391914094932 0.002579945111183717 1.825371520202388e-21)
(1.00123246163676 0.01925016056557878 2.968399822813321e-20)