/*--------------------------------*- C++ -*----------------------------------*\
| =========                 |                                                 |
| \\      /  F ield         | OpenFOAM: The Open Source CFD Toolbox           |
|  \\    /   O peration     | Version:  2412                                  |
|   \\  /    A nd           | Website:  www.openfoam.com                      |
|    \\/     M anipulation  |                                                 |
\*---------------------------------------------------------------------------*/
FoamFile
{
    version     2.0;
    format      ascii;
    arch        "LSB;label=32;scalar=64";
    class       volScalarField;
    location    "975";
    object      yPlus;
}
// * * * * * * * * * * * * * * * * * * * * * * * * * * * * * * * * * * * * * //

dimensions      [0 0 0 0 0 0 0];

internalField   uniform 0;

boundaryField
{
    FrontBack
    {
        type            empty;
    }
    Top
    {
        type            calculated;
        value           nonuniform List<scalar> 
15
(
142.2713901412666
133.557831959894
138.0670600358982
144.3925438482948
159.7657912626275
131.3677673006463
140.1145482024054
135.3494164380775
153.4326897048919
135.7434998137416
136.0874003442027
136.7766376036631
125.2384844417465
132.9007605296813
123.9479006753718
)
;
    }
    In
    {
        type            calculated;
        value           uniform 0;
    }
    Bottom
    {
        type            calculated;
        value           nonuniform List<scalar> 
15
(
155.5659722620965
158.1113176944422
141.100237921828
142.078453963965
141.187188121373
148.4543114980004
142.7110454676342
143.1702208718713
143.4233629724048
134.0607469891462
125.7371594759804
141.5572038425589
122.4130437834301
123.4916195452608
124.1443035253411
)
;
    }
    Out
    {
        type            calculated;
        value           uniform 0;
    }
    circle
    {
        type            calculated;
        value           nonuniform List<scalar> 
32
(
56.31920687289117
21.90761772414313
65.28294810039229
24.56964296215205
19.45668377808127
56.23247593633343
56.77530387448843
24.17614593988007
22.22490258419866
65.5008594187712
40.15114518207886
63.01295739416228
50.37323683419205
14.36385890846899
23.35792576640315
19.41150247752435
38.95352046435668
59.65097223404097
61.05599065278658
25.90012133835034
65.76114882755438
63.77888064145643
62.99921263820379
59.87552894090756
64.14173520634766
46.02846165795237
66.40410037681403
32.17443726734349
37.92376576147463
55.69627384057756
21.28364977794894
43.09282894909043
)
;
    }
}


// ************************************************************************* //
