/*--------------------------------*- C++ -*----------------------------------*\
| =========                 |                                                 |
| \\      /  F ield         | OpenFOAM: The Open Source CFD Toolbox           |
|  \\    /   O peration     | Version:  2412                                  |
|   \\  /    A nd           | Website:  www.openfoam.com                      |
|    \\/     M anipulation  |                                                 |
\*---------------------------------------------------------------------------*/
FoamFile
{
    version     2.0;
    format      ascii;
    arch        "LSB;label=32;scalar=64";
    class       volVectorField;
    location    "1480.5";
    object      U;
}
// * * * * * * * * * * * * * * * * * * * * * * * * * * * * * * * * * * * * * //

dimensions      [0 1 -1 0 0 0 0];

internalField   nonuniform List<vector> 
808
(
(0.7562471873458203 -0.01749757978524371 0)
(1.031357732073377 -0.01258022236289762 0)
(1.114191753212569 -0.0047624001209397 -1.793211383239662e-20)
(1.085118111552122 0.01260969223871264 0)
(1.364768418393892 0.01639743075322359 -3.916265370639826e-19)
(1.038692527905419 -0.009319236009329277 -7.167880408819199e-20)
(1.013551174318041 -0.0208802882057587 -2.329747703610205e-20)
(1.078732132798734 -0.005254453571910603 8.985676604089615e-21)
(1.254476487405233 -0.01895582088370428 6.372710803612694e-20)
(1.08456723789712 0.01040934449420553 0)
(1.013131999240317 -0.008203025548785145 0)
(1.306518833501373 -0.05201153635076292 -3.567165814280919e-19)
(1.085984486284126 -0.001805202886497823 2.033752324608912e-20)
(0.6751026649107968 0.006401278373511479 0)
(1.284629254720656 -0.1136949269003802 0)
(1.081401377542265 6.493360314944789e-05 -3.82021197375598e-20)
(1.231475755892183 -0.1449676141071069 -9.814279373291827e-20)
(1.073943944809754 5.743723865233941e-05 3.168271084969333e-20)
(0.9929566291989497 0.004842708093501825 0)
(1.026312466077447 0.009418434892532364 0)
(1.038093809848368 -0.009953066752505993 0)
(0.9874529711405022 0.04432541426251856 0)
(1.051139887222255 -0.005951492332622863 5.516800127635536e-20)
(1.053361092077356 0.009179296733121395 0)
(0.932531257040467 0.1969565114965431 4.613275626778425e-19)
(1.167528098960824 -0.08568198559862017 0)
(1.185893380405017 -0.01788890389110896 1.592913533495246e-19)
(1.077438131293236 0.009402476464927098 5.191572178848927e-20)
(1.083950724605518 0.002274539398067332 5.050748649484131e-21)
(1.071939599827269 0.03090280228654092 0)
(1.075532378369781 0.002684950035242645 -1.172429756965309e-20)
(1.032954515857744 0.006694137217771953 -1.969483183748198e-19)
(1.059863851110546 0.01486507889548701 -2.391296080042748e-20)
(1.089148355723993 0.00536335400710136 -2.928432355054339e-20)
(1.119707712942552 0.0393076188676828 0)
(0.7552082776551066 -0.1240943328207548 -4.533720747573082e-19)
(0.9546067088692106 -0.005863843546817495 0)
(1.068926506036276 0.02237840656161005 0)
(1.068830820387395 0.007354779286971679 0)
(1.073621091778635 0.009000608411760796 -2.837941902678608e-20)
(1.091950203647443 0.02450058346145342 1.11973416144921e-19)
(1.150537351793202 0.004229214689020526 2.194195584216153e-19)
(1.095966575543475 -0.002365784523571104 0)
(1.015844512223936 -0.008964504508377659 0)
(1.13416449868715 -0.09644000158122849 -1.64323343116076e-19)
(1.044102773299841 -0.0115993745358197 -7.920546562210204e-20)
(1.058268539897828 0.0266294822223591 -2.828415222265737e-20)
(1.231724216623544 -0.1115896965752546 -5.631062105926734e-20)
(1.067716712481416 0.01220107064691918 -4.26853621953547e-20)
(1.25762157070843 0.01898920127356566 0)
(0.9962195015711276 -0.01857960206275344 2.093033889975776e-21)
(1.044587207967895 -0.001857003438601414 0)
(1.087620731612974 -0.002166070140695634 0)
(0.9989824300973845 0.006562410535898493 -1.83618921609862e-20)
(1.250620725512866 0.03505542962940132 -2.315521626486344e-19)
(1.063743595896006 0.01823175298743974 6.157716318225018e-20)
(0.9915875361810785 0.008636163269757389 0)
(1.020939160873852 -0.008991415322476815 2.348485659374284e-20)
(1.107170496918787 4.729756093796922e-05 -1.205155227229245e-19)
(1.061342519287525 0.03098458620290958 0)
(-0.07928174478100211 0.006124258031443586 7.033891871129701e-20)
(1.155168141691404 -0.0512725447428715 -1.926142066006814e-19)
(1.006526446922997 -0.007760783075348642 -2.580461993990617e-20)
(1.183998823227828 0.07029085563464614 -1.238446337571044e-19)
(0.9983498899626135 -0.009557105198986126 2.994559476908939e-20)
(1.084204040094973 -0.005531006373833872 0)
(1.245561964756028 0.1001979763251996 0)
(0.6960506230787593 0.003205197065035423 -7.491819762993535e-20)
(0.9898142648908093 -0.01348078472752022 -3.120017935123319e-20)
(1.461761802739279 -0.01682303829075364 4.509853474040063e-19)
(1.060515726223024 0.007582973315282677 -6.811485509848678e-20)
(1.368972261780439 0.09918352322259399 2.929760174711004e-19)
(1.054723362713569 0.006880882109076934 -1.883008985286735e-22)
(1.081261527091088 -0.01388262728359684 -4.89307430150314e-22)
(1.165527286716269 -0.2363317256482257 0)
(1.021822306160533 -0.01444528458503524 0)
(1.017173588993693 0.01757839754256934 -3.149114144700455e-20)
(1.384782692016552 0.3490061355781632 4.142783735969023e-19)
(1.097028512891272 -0.04225061078750458 9.316853069225986e-20)
(1.045133859240783 0.2091392568035457 2.553102781981876e-19)
(1.12617655308172 -0.06106554126409694 1.148365889152945e-19)
(0.9220279563206217 0.00512728490982405 0)
(0.9754433290658221 0.01853171016554486 0)
(1.004147103537211 -0.04903520771825517 2.624779145113662e-21)
(1.010342924975553 -0.01292015080211526 7.460837626567913e-21)
(1.029865058245012 0.02611828562657492 1.406499342695235e-20)
(1.531228511832381 0.0374955622992837 3.285630159556439e-19)
(1.288649886064726 0.07222218629251492 5.467931692586419e-19)
(1.072346936170305 0.003016178275897702 -9.287414034005673e-20)
(1.200354604524195 -0.0924365741524022 0)
(1.033672652506065 0.001825976118765745 1.35392352979896e-19)
(1.164373632133909 0.02311920500717211 -3.244669065883835e-19)
(1.001424169343333 0.03227690751530913 0)
(0.999626553948006 0.002035675833043605 0)
(1.044507092064873 -3.038637150177985e-05 7.691828281140069e-20)
(1.209250947247792 0.1111833734015469 4.138280776563475e-19)
(1.011056974520728 0.006987941832771748 0)
(1.092370287016325 -0.07046251128218643 -1.049807595803431e-19)
(1.149705359138257 0.03840798807020505 0)
(1.211133189262221 0.09765147283249778 -1.954003477987618e-19)
(1.10804342683057 -0.02861035658834149 -7.633084303388802e-20)
(1.027322724781079 0.01163012541318573 0)
(1.085105764031931 -0.004652975217969721 0)
(1.019038839500688 0.02568468908312249 8.178890477389896e-20)
(1.071621412464352 0.05417809136773277 -9.453635715955755e-21)
(1.103830353223144 -0.004185052313403154 6.210481400657642e-20)
(1.111729238839488 -0.09604482262568334 1.521708991285143e-19)
(0.9615382031037389 0.002950854935315995 0)
(1.06622716184579 0.03114535848996024 3.873649038142321e-20)
(1.169253049115883 -0.07591470492760734 2.353975833287958e-19)
(1.05148647593813 0.04518863714228589 -2.927026848398401e-20)
(1.022473287798673 0.06714200606897125 3.75791147515547e-20)
(1.090455778739577 0.02606869295384657 0)
(1.014852562237016 0.01813882179168258 0)
(1.029004129798855 0.009430756891413958 7.911606601100289e-20)
(0.9487186516400972 -0.03378911467058076 0)
(1.052879490238195 -0.005686666809394387 -7.956605787916053e-21)
(1.342968846550612 0.06071387394639543 -1.597122042353925e-19)
(1.080034730672644 -0.01319913897451056 2.591037400230336e-20)
(0.7439719879441993 -0.001750112030327099 0)
(0.5593813799522304 0.1724506526685891 -8.650677698421745e-20)
(0.7061081840471595 -0.002540174899422148 0)
(0.6989117615633458 0.01463960513820174 0)
(1.077640963109068 0.003624573952191651 -6.838277960355781e-22)
(0.9906394466225488 0.01452722812646926 0)
(1.277951379754082 0.1232208581465467 2.470515934098181e-19)
(1.012359396583289 -0.02781077152566603 -7.966419656464058e-21)
(1.044273695515184 0.02208438089281926 1.728894419503697e-21)
(1.05860510570305 -0.01164702843178239 0)
(1.126622141966374 -0.009149439450912969 -4.950224953056671e-20)
(1.262399841444027 0.1417777012581827 -2.263864637419258e-19)
(1.089286739457225 -0.01124421095921733 -8.524582505285515e-20)
(1.069664237908428 0.02645136223414065 -1.110079783092905e-19)
(1.040697483996646 0.04672289952026739 6.829496123695788e-20)
(1.0224860369949 -0.003752319428118754 -3.449248825189842e-20)
(1.061035656276702 0.02349245772639225 6.128592536965172e-21)
(1.129751727562776 -0.004113172358261517 1.070924616442678e-20)
(1.040071963825255 -0.015510816840468 -4.785638531744498e-22)
(1.087593738235334 0.03476560910440528 0)
(1.028097940320584 0.01345879341962194 0)
(0.7654959744337815 -0.05795527937984701 -1.8207140326894e-19)
(1.030143381003019 -0.001669580853183098 -6.972054852936903e-20)
(1.131174582268675 -0.006142563305017732 -1.293493276355024e-20)
(0.7034496724110837 0.00657897356991032 7.427939518501862e-20)
(1.174915701532545 0.02073795107379681 -1.906843825373128e-19)
(1.130609101846537 0.004347601676361064 5.304859408099674e-21)
(1.128966093490579 -0.01001732070974569 3.49224173725209e-20)
(1.000940336583007 -0.002933177638241353 -7.722124118467724e-20)
(1.100026040497347 -0.06875965930873412 0)
(0.9854377159747097 0.001742226127389012 0)
(1.057924933293371 0.00708301484401552 0)
(1.005207518382195 0.1876990931256709 -2.485749798069328e-19)
(0.7792694377439323 0.0124072307969599 0)
(0.8568437519369738 0.1002513586458403 -8.476289154557484e-20)
(0.07343750069529874 0.03966802294129416 -3.031604432280392e-19)
(1.172886730447367 -0.02936269656687518 -2.220836396630096e-20)
(0.6713346703169349 -0.007301168902232998 2.435355057947137e-20)
(1.171061625029691 -0.1023130383652606 6.925314240409406e-20)
(1.122846789014613 -0.006665573198463525 -5.896901152404475e-21)
(1.155790335281809 -0.04779553435474253 2.158112754980805e-20)
(0.1084663600201455 -0.221134273485476 0)
(0.250319071514383 0.08898997948130108 0)
(1.255995837475305 0.1142530828113101 1.945485163497874e-19)
(1.02128920048929 0.01979196039562481 0)
(0.7378180676004465 -0.006294919695235175 0)
(1.075412027919221 -0.01182274662376596 2.703169492701382e-20)
(0.9749012393269784 0.002781632179179215 0)
(1.292220441552777 0.1329524705858847 -1.58853406428522e-19)
(1.057479649794746 0.01121835082624603 0)
(0.9937879984392974 -0.007480594816631552 0)
(1.065019793644378 0.008239197685798916 0)
(1.006157517699954 0.02080824944878095 1.752478506089511e-20)
(0.9337368180758079 0.01525971333053087 1.066793347240425e-20)
(1.177650911846738 -0.1998737494588695 0)
(1.005203295413033 -0.005191049108123838 7.795946147234836e-20)
(1.059125812235006 0.006387453827488355 0)
(0.774680896112441 -0.003291214209889493 0)
(1.217017356710524 0.02978747821516567 1.677955874898478e-20)
(0.7049700361518599 0.001330735534501066 0)
(1.43676048418265 0.08981714433714927 -5.342880405854491e-20)
(0.9946725661127768 -0.006826969961575096 1.705846510040672e-20)
(1.273670038568511 -0.000482013147229057 -2.919871374564764e-19)
(1.059586047880681 0.008857722569894906 1.397522328905259e-19)
(1.000908203596708 -0.01359619864996316 0)
(1.217152481926841 -0.1451899176396591 2.037283056181752e-19)
(0.733195786317286 0.01379083810328831 0)
(1.098441280361913 -0.00511122676878905 0)
(1.151568589748412 0.06912103313072267 2.037343638356853e-20)
(1.007109667624723 -0.006876288778026282 -3.023873408847299e-20)
(1.11981017666727 0.05266192832418435 -1.767445008201449e-19)
(0.09941384679780939 -0.08353031687584914 0)
(1.071785185552129 0.03828956782781185 0)
(0.6617147331989841 -0.002928808782132379 -6.769441827706087e-22)
(1.012156489367949 -0.01940004463416786 9.779171164959364e-20)
(1.06142616601743 0.0007090024380679379 0)
(1.077336956116058 -0.1244659250634134 3.719404213774364e-19)
(1.002788882789329 -0.006215515559494959 -3.47142198539314e-21)
(1.0025720482006 -0.005357614400905402 7.457099484681616e-22)
(1.093918579501272 -0.009336402370425092 0)
(1.020662819416589 0.02058069427336295 -6.257307344123237e-20)
(1.106570179279624 -0.001599141652907268 6.708900661900385e-22)
(1.07428117022328 -0.01136433735487643 6.583926939019365e-20)
(1.085824106495626 0.02234566283189766 0)
(1.331884922967103 0.1654630974268786 0)
(1.001995844236752 0.000105869880351678 4.414976727191814e-20)
(1.321181801654612 -0.1238999675698544 1.540690973043114e-19)
(0.05139136705880092 -0.1906648047595909 -2.547647259433474e-19)
(1.07131863463741 -0.005514610266302036 0)
(1.116943143741693 -0.00120013913532466 1.209619604341925e-20)
(0.7268650572701888 0.01784585505243736 0)
(1.0627514473638 0.005306781472364512 0)
(0.8713891548273346 0.1668393880823539 4.77171316742576e-19)
(1.270109571499731 0.1337463604145283 1.907887246809577e-19)
(0.6543413361118937 -0.003100811803619829 -6.316052780607709e-20)
(1.041516544364555 -0.00250508993247493 -7.179889361999911e-21)
(1.054775198442967 -0.0002840414727935523 6.637123485319e-20)
(1.363691142237274 0.1252613725269054 6.816854628899582e-19)
(1.333878909157825 0.2524437564368937 0)
(1.060402106116778 0.0005285847493647376 0)
(0.9992980318727142 -0.007100571718950744 1.531835839797781e-20)
(0.9934032391301251 -0.01044408621468074 5.418367759537519e-21)
(1.381715864940492 0.2003272427295721 4.235448769641644e-19)
(0.6817175217590191 0.0005323205795746146 9.857470824080734e-20)
(1.005569835731785 -0.002101247998887592 -5.975851624882807e-20)
(1.098165333095711 0.01302247264166258 2.545580351223966e-20)
(0.6694739020702852 0.005000454539248294 0)
(1.066090754743641 -0.01201160991378341 0)
(1.006916975497543 0.1503149016786294 -1.242003943649331e-19)
(1.089979986026325 -0.008948010459182223 -2.449997940943737e-20)
(0.9821270471689069 1.520177581105944e-05 3.280646397009868e-20)
(0.9912105679538092 0.006039716634509957 0)
(0.6382944073759225 -0.0010937079455648 0)
(0.976814335821416 -0.001174825742948696 0)
(0.6421369342145012 -0.001492787723962485 2.682652887670244e-21)
(1.090536128532425 -0.05643230264206554 1.19476419920441e-19)
(1.113546498170312 -0.0008836018777778565 1.217945105253623e-21)
(0.9579287660041255 -0.000908278390522135 3.909268453337435e-20)
(1.015966506423952 0.01011760191862148 1.690934222061853e-20)
(1.066641922496752 0.001104420718430871 -2.460092932805597e-21)
(0.634700702534155 0.008868519573010986 -3.642827141620519e-20)
(1.00330954583045 0.008600952988524367 -9.172055936162707e-22)
(1.035613128028816 0.008383202485629893 5.264833311303721e-21)
(0.9873288897097889 -0.01270761232527062 0)
(0.6099895248449936 -0.0004913194572727382 0)
(1.068643080185373 0.0226421119601985 0)
(1.016967061296459 -0.0158843396351475 1.048600724262413e-20)
(1.023422658308536 -0.008927594381022461 0)
(0.9912768052163953 0.01417883301279959 -9.644217136986963e-21)
(1.010978772795469 0.001510132165275131 0)
(1.12784564828489 -0.001781467695067296 -1.151117559668257e-20)
(0.03981415501130254 -0.1430788702111814 -4.134511024686446e-20)
(1.036274009460801 -0.01751762901575576 -6.684580703983234e-22)
(1.041799782360467 0.004435590529193237 0)
(1.081594355870951 0.06601901393994249 8.442280053763558e-20)
(0.9685715906787143 -0.002389140355247656 3.111985080765229e-20)
(1.020553531042111 0.01683623506296886 -2.371876749239267e-20)
(1.001475174992529 -0.0003034791582127898 2.494780104220355e-20)
(1.040300328678084 -0.006273075897937557 0)
(0.6408877360874605 -0.004008887083905957 0)
(1.025795433809685 0.02454424476512369 -7.257749660708064e-20)
(1.083157437424325 -0.004263111238711669 4.816621958592669e-20)
(1.017079482920657 0.004129429720889592 0)
(0.9790908226342848 -0.002809250285922315 -1.947506009661134e-21)
(0.8709901935758138 0.01852108514596206 -1.046217347590192e-20)
(1.014032194440547 0.002676167708300411 -1.009898444705925e-20)
(1.025449057646969 0.005354869166582789 1.836621179907148e-20)
(0.9831480671157545 0.004689896708876016 0)
(1.002521537842474 0.01114611781588872 3.507063645802748e-20)
(1.108515265132082 -0.0009145108578964329 0)
(0.9248559777146526 0.001004654995779873 -3.195610952795841e-20)
(0.959317665024463 0.004143204488031048 0)
(0.9158853488934366 0.2107203293001352 5.178646659186325e-20)
(1.010734036487718 0.06674879551952796 0)
(0.9929796711258048 0.004317156535797938 -2.2758059626518e-20)
(1.057233452159256 -0.05411281169297448 -2.887092135457627e-20)
(0.9915115326400249 0.0003822067982922477 3.381559674044814e-20)
(1.011730768604604 0.005375573639799749 0)
(0.9779041485833471 8.188553922050354e-05 -3.149531855337983e-20)
(1.168983014068615 0.1031631058114461 -3.409812925682226e-19)
(1.070043897773188 -0.2653274951737689 0)
(0.9930189861241668 0.001269840305826812 -2.227422446738864e-20)
(0.978241378812011 0.003451923065037475 5.046371004866047e-21)
(0.9638189187686677 0.005759496419067158 1.004490777609365e-21)
(0.7459148837847143 -0.001057320912885342 0)
(1.12236101403715 -0.08167818252080238 0)
(1.004577057090546 0.00420216658428205 -2.216796139437632e-20)
(0.9037022336454932 0.009069663713095245 -9.648663075042746e-21)
(0.8542389750077348 0.01366212556453282 3.346504039342494e-21)
(1.013919131746415 -0.002489799311026392 0)
(0.9509447021510272 0.007163999296816158 1.437771443898163e-20)
(1.005622055952488 -0.000263082713109252 -2.308488018355728e-20)
(1.020834051558712 -0.001673976636284461 -2.579309029199941e-20)
(1.11392624319516 -0.001486260746152569 -4.938149754307029e-21)
(1.119421665278272 0.0007581390391687606 0)
(1.01441814310516 -0.01070139604825098 0)
(1.019994242350353 0.002670118653389637 0)
(0.9432412943932389 -0.0004765139110978876 -2.089999149276476e-20)
(1.017861283146415 0.01361108621641723 5.332339049064126e-20)
(1.081717710090973 -0.001039049792626683 -2.225029835551594e-20)
(1.040190667495063 -0.005715590371578159 0)
(1.106297389003517 -0.005165175089888027 1.84621368533592e-21)
(0.9952601398957701 0.002687176274425086 -2.215810405589096e-20)
(0.9867500083147863 0.005857251294528444 0)
(1.011595368815526 0.003224079719844939 4.653994234861927e-20)
(1.367907091354923 -0.314661591019139 -1.134074767403896e-18)
(1.122821277494792 -0.04337630151862212 -1.081439035315902e-19)
(0.9651475981656082 0.002528879966120021 4.651928769853322e-20)
(0.7726117553445027 0.007074755492727213 -3.087082673752509e-20)
(1.221910946736821 0.05412189948642865 0)
(1.225592004270157 -0.1313034626028928 -1.46212398026692e-19)
(1.078425423790619 0.003340262229934738 0)
(1.008309231409612 0.001467369124475543 2.251637519232324e-20)
(-0.1697490693360617 -0.132669445836222 0)
(0.993966451495828 -0.004646217166329554 0)
(1.012450626788083 -0.02316414924562546 4.615149404600309e-20)
(0.7062755481261245 -0.01945714312918263 0)
(1.096789109514508 -0.01480904993683277 2.110964392752353e-21)
(1.04377476650737 -0.01194669657418817 1.8179909845997e-20)
(0.6331607995984473 0.004131889555540083 0)
(1.44988713560659 -0.1224765272179236 0)
(0.9866946160598454 0.001270681264172683 -1.083753089792879e-20)
(1.069819724826801 -0.01501613144133174 0)
(1.037927875200527 0.0003839480565134728 2.148407346356384e-20)
(1.081851085416513 0.006601903813764019 0)
(1.010122539497493 0.005081149176585637 -1.042569229437298e-21)
(1.005836758033688 0.002977585066885792 0)
(1.012192376277505 -0.01089148055406088 2.030498422504049e-22)
(1.003792644003064 -0.02088132037913761 0)
(1.034871259242905 0.002842184749169932 1.697236510816367e-20)
(-0.1829208558979936 0.02928505125191424 2.638145139444247e-19)
(0.8044797981991308 0.02288265757388589 5.212603819552742e-20)
(1.005721844711882 0.001837305131271173 0)
(1.132180718767461 0.01830586640757815 -1.14716471740512e-20)
(1.122574859580148 0.01630355177804179 8.291831906109406e-21)
(1.054488039532396 -0.01300653913926331 -1.277965741324631e-19)
(0.9987849216642883 0.01034974263603131 1.2580298531603e-21)
(1.077311721549688 0.005853881668287951 0)
(1.186302457114338 0.05430782087185738 0)
(0.8354644525132767 -0.07678438516310229 4.587835209135248e-19)
(1.097656803644224 -0.002813853423618211 0)
(1.033068239307544 0.007336316242251161 -7.397325648309995e-21)
(1.042503907780439 0.005154320470008098 6.109769444884629e-21)
(1.055293155174567 -0.06128580119426362 -7.532389941048233e-21)
(1.139709765626064 -0.0005938623476054151 1.665108708189049e-19)
(1.086152582928392 -0.008444003792943165 0)
(0.9946190860172036 0.001276664273590523 0)
(0.9959515674634375 -0.02563014283741789 -2.303740438218079e-21)
(0.9903493069985936 0.002852250796283179 0)
(1.030937831068217 -0.03871595539279024 6.364209269174335e-20)
(1.292134642791834 -0.09184753571074125 0)
(1.044734727878685 -0.007948839898854467 -2.656211321677299e-21)
(0.9861599494893115 0.01702170041681571 -8.481368843391447e-20)
(1.033385815963937 0.04097944770899824 -2.422636576449368e-21)
(-0.08442572526417473 0.1464905661291634 -1.648400739928965e-19)
(-0.06729668755705855 -0.3043232184322549 -1.370640658081793e-19)
(0.891500430202635 0.1423392755384174 0)
(0.2946982562234111 -0.02623925808398593 -3.324234547294496e-19)
(1.006965106938945 -0.003575513253010916 -1.555045575017752e-20)
(1.063822405279249 0.002670230111761671 -2.11771594751363e-20)
(0.9916330823221643 -0.01865843309651114 2.946198201723738e-20)
(1.021225338633077 -0.03070650935169162 2.545098017651803e-21)
(1.009475129798818 -0.03239941174367636 -6.53364127200473e-20)
(0.9888204984847795 0.004805443886961235 -3.466310065999102e-20)
(0.9928570434088659 0.004906404409364065 0)
(1.025345112255474 -0.002226313898941886 -3.539560819949013e-21)
(1.93940027871359 -0.1555319987183379 1.079506396039658e-18)
(1.044519874380887 -0.001433868916242457 0)
(0.9952725319207715 0.008451364661777164 1.556837668472691e-20)
(1.003084891921422 -0.0001841447251286492 4.066534326448605e-20)
(1.161347201967768 0.1391440114370583 0)
(0.9971542957670686 2.354964035164304e-05 6.245928798634056e-21)
(0.948666704451481 -0.001689928666904051 0)
(1.037835462530606 0.04177393593477984 0)
(1.309850203043575 0.1660272498667601 2.371266068167258e-19)
(1.086001420046557 -0.005253921942678733 2.275463417834507e-20)
(1.018151584342091 0.03017639874865698 4.686877960254266e-20)
(1.088005363920027 -0.007670276708034219 -2.196129850002437e-20)
(1.046195142436587 -0.004573760697679743 -6.636172215756347e-21)
(-0.3842403240883789 -0.05032580346805382 0)
(0.9990123391346044 0.01443719322391982 0)
(0.1067667583379061 0.05654193890678067 -8.700418421170472e-20)
(1.007191588275526 0.02177819312903105 -4.174366662345579e-20)
(0.9949515337221139 -0.0104735331723803 0)
(1.001237836618188 0.005727155552224769 -5.03129675481291e-21)
(1.081704066279199 -0.04239913893632583 0)
(0.9949358278154133 -0.01656728633515187 -7.759118686761728e-21)
(1.096719755178968 -0.05990445357523601 0)
(1.445307109657734 0.1788229703717208 0)
(1.054515759657968 -0.01217092967758827 0)
(0.9901722200404653 -0.02353080021842465 -3.956619087670046e-20)
(0.9968384057091741 -0.04836131662165136 -2.709628131026563e-21)
(1.014841850026463 -0.01795530525166508 -1.726596813423685e-20)
(0.9971733036824121 0.01659915682435379 -5.688863530800395e-20)
(0.995401402700125 0.01066912967806342 -1.517245432105102e-20)
(0.9939959030971952 -0.02836015458881021 0)
(1.003172565480506 0.02428890457721241 1.969709066102071e-20)
(1.056449764833223 -0.04399221760784761 0)
(1.111368964422352 -0.03550174842350699 2.646389179192266e-19)
(0.9957632553283114 0.01708565468278422 4.683875357841221e-20)
(0.6150841449444565 -0.008675627091909584 0)
(1.134686567877758 0.1452484898382356 -4.834706722034454e-21)
(0.8600782165901962 -0.09752361844618708 0)
(1.137758996556129 0.07332095700707683 -2.676914173454553e-19)
(1.317507974719895 -0.3893265254014674 1.304973789820037e-19)
(1.070819380253256 0.0609771986776302 -1.280303272237465e-20)
(1.01026181251904 -0.03214408331874261 0)
(0.9563163955992233 -0.216644931637361 0)
(0.5049673365109421 0.1467008781618321 0)
(1.015298977567509 0.008796049620824219 1.316260424583167e-21)
(0.6858263141953511 -0.03091077523090098 0)
(0.9994526205109441 0.01781932147726069 3.593790493775857e-20)
(1.024737699380649 -0.005426144329135453 -2.80595604148399e-20)
(1.079028041682211 -0.008108511580582524 2.8074913383844e-21)
(1.042716580736685 -0.01768371658916027 3.27851163299685e-20)
(1.042345586705077 0.01162576728880688 0)
(1.065140763591259 0.02629942819161283 -9.429118876715517e-21)
(1.049515035756801 0.03525139119515597 -1.837081404658037e-20)
(0.9828585616921008 -0.02268786944146847 0)
(0.6249344086332662 0.005105742382219811 9.17635713069165e-20)
(0.8941546619970048 -0.005881969168009926 -8.851671927862397e-20)
(0.9093810493034438 0.005321919241266721 1.44640775468186e-20)
(0.6295598237820156 -0.006404454595678728 1.404549303593722e-20)
(0.9793077950801995 0.001448805032221605 2.5721605251725e-20)
(1.004451856380862 -0.01746073265383509 -3.633281412904066e-20)
(0.9765195634384296 -0.03313256659243691 -3.526538560779556e-20)
(1.085521883707277 0.001620621396151657 0)
(1.02021432741938 0.004589561298151679 1.016572721467376e-20)
(1.132229120495726 0.04909930791832983 1.295955131364679e-19)
(1.032407062498491 0.04017295112279848 0)
(1.022457038710138 0.002533418731797575 0)
(1.586613406984588 -0.1670524759107717 4.429331115932832e-19)
(1.052575113058763 -0.04627006387681572 0)
(1.016501826799238 0.007870777808902789 -3.839301048160354e-20)
(1.085498705705823 0.002571077791551031 0)
(0.481904425048616 -0.02799897054932922 0)
(-0.0007219613844466027 0.02662066619076178 0)
(0.9908699277950439 -0.02445041029560376 1.213976893944931e-20)
(1.302497535287995 -0.09518131086813335 3.777721176614534e-19)
(1.034984137983756 0.03544253774606969 0)
(1.022218519646547 0.003405635615482384 -2.258178964096805e-20)
(0.9611443869417658 -0.1611689831290262 1.574286761802213e-21)
(1.255101344750913 0.07951329732558823 0)
(0.5966599135114524 0.7283165738661945 0)
(1.314654142572022 0.1509229719479981 1.114309413505169e-19)
(1.680252794509532 -0.02460099167868414 0)
(1.049668865653272 0.1083149231643259 0)
(0.7073465292303616 -0.02373749547143417 3.18649250921462e-21)
(1.050872093931933 0.04355839296415193 0)
(0.7456722898388287 0.122568120252965 1.207619085865617e-19)
(0.9967597421065733 -0.01656617174917887 3.565535801311756e-19)
(1.03578063232205 -0.04269543430571725 2.793019344565637e-20)
(-0.3824672996667035 -0.005682132823855881 0)
(1.072072345399127 -0.01649129269335331 0)
(1.089883147028781 -0.003738334467880386 0)
(0.6494291842202963 -0.5055388175779169 -2.457503484861855e-19)
(0.9901949755924843 -0.001685315555229549 0)
(1.092331650806907 -0.021197957978253 3.889564548553931e-22)
(1.186879907010305 0.1214237088344961 -1.981847072038763e-19)
(1.091329430860281 -0.04826590329724457 0)
(1.005994769453229 -0.02138262039671925 0)
(0.7930101712877621 -0.1771309006786171 -1.641485322269418e-19)
(0.8834919211973121 -0.1260445687010666 1.544243539583416e-19)
(1.028879791407492 0.01427720525031004 -2.266205706895537e-20)
(1.023106106194227 -0.00896534621025929 -4.655436448995263e-20)
(0.8805540321569758 0.01560437924778491 1.206739977190713e-22)
(1.507628108735068 -0.1934845516787727 0)
(1.306105787725596 0.1213603662884788 3.079823267566241e-20)
(1.244421155549236 -0.07293692881352283 -3.164735093771089e-21)
(1.095696547325606 -0.01841267981185373 -3.854600371019453e-20)
(1.037245692011645 -0.01128758936397616 2.450736968179906e-20)
(1.092841012569931 -0.03905827658196285 9.044627170335622e-20)
(1.03167282461372 0.02017644096848306 0)
(1.045520505891432 -0.03757034714706953 0)
(1.115956160179659 -0.008943383189838505 0)
(1.089856371811208 -0.0364706816831131 0)
(0.9980542900555983 0.01124821133932933 0)
(1.147517351943883 0.08037108244314081 9.593376845199006e-20)
(1.337635827841465 -0.1482575295271951 0)
(1.034958609244097 -0.02434181196419707 -2.029376473805065e-22)
(1.050295785399494 0.05006634108830909 0)
(1.010260550467442 0.01463529598674469 -3.987642336920011e-20)
(1.033950187033852 -0.007467123244974203 9.045238710995616e-21)
(1.088921269608584 0.01346774444357945 -3.285136522400014e-20)
(1.08556615858477 -0.02824660272110804 0)
(1.071730900353759 0.00546460137288975 0)
(1.109184779668781 0.09484803073741976 -1.428404175260131e-18)
(0.9357081365010701 -0.1507175927875158 -7.052174374480801e-20)
(1.167079344971729 0.1119915519461146 1.125916423762384e-19)
(-0.4839448328030737 0.004281693059032443 -2.907140752044988e-19)
(1.01829366921272 0.02854380178572011 -8.92573112230422e-20)
(1.004090267347056 0.003522965137997419 0)
(-0.284455616230935 0.01870941720386459 3.552370273127792e-19)
(-0.04504044488503289 0.2888157825642988 7.970279945362066e-21)
(0.9952217910486734 -0.006252508632384784 9.974611184878976e-20)
(0.1892848061754354 -0.04182334248474687 1.398617014105976e-19)
(1.0881508271886 0.08081096211015425 1.457149445608113e-20)
(0.09418410663865513 -0.1117611391774313 -5.554721256037996e-20)
(1.108220669448688 0.00296811034172869 0)
(1.105059043742971 0.2585449728509653 0)
(1.021531060073613 0.02152655313683827 -1.747007312896877e-20)
(1.070578740754796 0.05077810697511882 0)
(1.027150481270642 0.02525891084129612 -9.313082010716621e-21)
(1.264995900085742 -0.5496805182383347 8.07672053951968e-19)
(-0.1180357706441776 -0.2127679648255018 2.210050540427225e-19)
(1.299345776617893 0.1185969153288784 -6.373915709584828e-19)
(1.121396743416729 -0.003766622859164533 0)
(1.122250013016839 0.09674794471895157 0)
(0.5292471723855754 0.08249110665678704 2.54487470513015e-19)
(1.023832408952941 -0.02055859531843694 9.27537276510993e-20)
(1.006482136661506 -0.02380733033405472 0)
(1.210014448970862 0.2704113460910317 -9.471198178425659e-20)
(1.26456293411815 0.1381372225384173 -1.610305932712301e-19)
(1.026660360508951 0.003289034037110924 1.524130591596873e-20)
(1.302535393603347 -0.08469050175621033 -5.033122233780593e-19)
(0.2922884419781555 -0.01402902401121284 2.663235406344748e-19)
(0.8244792397771217 -0.1446575449015226 6.649491447515435e-19)
(1.043336348014059 0.04871051135936439 1.059934937140098e-19)
(1.039314990191669 -0.001096642911464713 1.89477250549287e-21)
(1.001491138063408 0.01954464771766945 3.010215197266932e-20)