/*--------------------------------*- C++ -*----------------------------------*\
| =========                 |                                                 |
| \\      /  F ield         | OpenFOAM: The Open Source CFD Toolbox           |
|  \\    /   O peration     | Version:  2412                                  |
|   \\  /    A nd           | Website:  www.openfoam.com                      |
|    \\/     M anipulation  |                                                 |
\*---------------------------------------------------------------------------*/
FoamFile
{
    version     2.0;
    format      ascii;
    arch        "LSB;label=32;scalar=64";
    class       volScalarField;
    location    "1634.5";
    object      p;
}
// * * * * * * * * * * * * * * * * * * * * * * * * * * * * * * * * * * * * * //

dimensions      [0 2 -2 0 0 0 0];

internalField   nonuniform List<scalar> 
808
(
-0.03589420265905265
0.04509511463848174
-0.01190012561402847
0.03504266354266162
-0.3037989835217652
-0.05459817232919285
-0.01449787260603347
-0.02388285358930096
-0.2001083105982757
-0.08564378487339203
-0.009420668361719887
-0.2577591720073741
-0.03056871383269587
-0.01290865577249846
-0.1218827114052174
-0.01400379272920775
-0.1405408055174552
-0.01355810777883896
-0.01249903870740484
-0.05698778928073957
-0.005835441124514919
0.1182969188142588
-0.06082260549110634
-0.07341060405809136
0.1764583962551752
-0.09930414275320401
-0.1552565098517211
-0.02030322639273643
-0.0173741271476997
-0.02603624863088618
-0.020159708385867
-0.05989098845849894
-0.02297521325890839
-0.01683535818082206
-0.1010972309270879
0.3440837543444198
-0.03851763301672661
-0.01682893747032703
-0.02331774050377455
-0.02658958543605477
-0.09188883010413806
-0.1290020945238042
-0.05073290905713641
-0.02060841896840891
-0.05486887851300842
-0.03986104838257188
-0.01238310945312763
-0.1875565690535887
-0.02761700126465583
-0.2074166828657064
-0.01605468753531069
-0.06897227660793033
-0.05945568093792541
-0.01479059328118412
-0.1903132573659059
-0.02901937500389566
-0.01066027325308761
-0.01432813971400506
-0.1023943247827691
-0.04072400975712043
-0.0961221064819717
-0.1286103002208321
-0.01336817896945344
-0.1301808007847359
-0.0169135437896052
-0.05054761534845938
-0.1669759105617563
-0.03568574453271509
-0.01486180386311146
-0.4461675081346433
-0.02702875192529303
-0.3081444793914613
-0.02204837816965032
-0.02032422399855923
-0.0672364190525804
-0.01733267921656215
-0.04357463547551269
-0.3594657669330825
-0.03541183785497683
0.04196801559552384
-0.09047543847501825
-0.01731564718360204
0.05678016510331904
0.04350818165284182
-0.01653900715108932
-0.05332377433505263
-0.5490942700257707
-0.2228139225408973
-0.05345052939454259
-0.1115214923097784
-0.05804308996125448
-0.1349184855478901
0.04073823365833243
-0.02380953457245229
-0.06050260806140205
-0.1192511118435076
-0.03851390842847172
-0.05205104622320152
-0.1181540491991036
-0.1399382927339408
-0.05205496650016375
-0.04845892094459609
-0.05565961631520528
-0.04582883095738934
-0.05797098356878513
-0.07319594920073308
-0.04152460609072795
-0.01128502869491402
-0.04114088895640339
-0.1267044177738953
-0.05132524572130596
0.08333964455587579
-0.04319068728596195
-0.008157625161950994
-0.02785649003474917
0.1801521308606785
-0.03990339716552749
-0.2736429694630634
-0.02027996556174853
-0.05488974156408422
-0.02673323930763838
-0.04778306522546562
0.01255857945351472
-0.05011289961699916
-0.03399907897099887
-0.2141990588865806
-0.04289924263007953
-0.005146321488844865
-0.07774755750280996
-0.06750470789992834
-0.1465163245075173
-0.02090187547788979
-0.07655477751345638
-0.04113106855792771
-0.02271878058882821
-0.01664752073569401
-0.006452040759151748
-0.007347753262181294
-0.05320338127450257
-0.05100544797851721
-0.2100331017251684
-0.05813207165550212
-0.008584857526505341
-0.02281615105267995
-0.1447818045680895
-0.002439397032847126
-0.07780028995814246
-0.02372303373599259
-0.00118830461564176
-0.01052802936247768
-0.0339513926941911
0.09554314333256321
-0.03983853736898651
0.2527258781334649
-0.2661007922319825
-0.1302749321957949
-0.03710148960355889
-0.09123513388760079
-0.009232446432596462
-0.1117090154013787
-0.1863605516580632
-0.2150889868003457
-0.1826248701443126
0.05534878514921953
-0.06178343675028807
-0.02028302438199927
-0.06798426885701066
-0.1714620661582784
-0.02395110079963264
-0.01847847141376205
-0.05335410714590735
-0.01802661819771824
-0.005947711663018153
-0.1104346807879554
-0.02274042012673799
-0.04667760258160834
-0.06873826543895691
-0.1638467107388824
-0.03377223220333926
-0.3964037785051358
-0.01780357696544016
-0.2223946817883232
-0.04549818740931786
0.03057642464799466
-0.1053600402904607
-0.01413329474813603
-0.04154080461769939
-0.1056672882322479
-0.01768123510013778
-0.09698164660532831
-0.2056991969258221
-0.07300071159872572
-0.02369013343447098
-0.04988059342344958
-0.04388629668932439
-0.2044359154702772
-0.02182703340656475
-0.01894416594291485
-0.0113720963764464
-0.05456970304807005
-0.05208085491303168
-0.02239053825070345
-0.02086775375802616
-0.2480296044435089
0.1280186076871035
-0.2004977934023012
-0.2078921581786569
-0.0117923012933592
-0.01162666151747693
-0.06774634081889537
-0.009534601513876596
-0.515226223206629
-0.122060289331625
-0.01892247554944976
-0.001182973385654818
-0.02432099301718755
-0.2873050483659892
-0.2738903174871838
-0.007063593656808449
-0.01759332717145959
-0.001982722632999792
-0.3443719207614101
-0.02824880884341839
-0.02913905515921494
-0.01249173363799407
-0.01979518474761831
0.05104921713082709
-0.1077057955360747
-0.01383618715082538
-0.02073127793533089
-0.04291670959705456
-0.01818830956757869
-0.01612249379228843
-0.02336454241890445
-0.06685787586333862
-0.0118807043001906
-0.01908324662337396
-0.008507661749532498
-0.0007829199487345349
-0.02957407252608339
-0.001545629746359257
-0.002304049350310336
-0.006079244181732359
-0.02562944329025134
-0.00799239588648201
0.001552256278943626
-0.004183494110339896
0.001178179611063891
0.002533617009080019
-0.008588427353874892
-0.1429452018152239
-0.003033984710378655
-0.001380317220216228
-0.04850760395165214
-0.02152929615579281
-0.0249476960026331
-0.01439547286552888
-0.006093608010449539
-0.02085782068342227
-0.03733168343372292
-0.01395890699334163
-0.01283114662838135
-0.01189100306787059
0.007032917691762483
-0.01029823347309872
-0.01191600042414612
-0.01130654974603043
-0.01081646634234242
-0.01010734774143347
-0.01159577145658363
-0.01415454420096531
-0.3116683834272755
0.06106441431093795
-0.01549281360878052
-0.01648153049261041
-0.01309739970590394
-0.01227977746144653
-0.0087916754101829
-0.09767039013398764
0.009226599134627788
-0.01370759415864849
-0.01475475168935357
-0.01080660035767236
-0.0533377922381115
-0.009975197013663955
-0.01381719037903954
-0.009358526208623853
-0.0005569881587796677
-0.009795594115788921
-0.01121977759303283
-0.02492684447321157
-0.0162258180327497
-0.01185953867391108
-0.01335972406365052
-0.007697311177341653
-0.01275175571078984
-0.01168492811620927
-0.05716603798496246
-0.01298500252601463
-0.01130785346318623
-0.008669970811997755
-0.01484870561590511
-0.01393632568554949
-0.01572608927323219
-1.379643235305975
-0.09820590112497414
-0.01325352183449115
0.0236471834374479
-0.1656267538159139
-0.09262094417458379
-0.01139518588786299
-0.01405163621438883
-0.2538568821777811
-0.03087388649034219
-0.02049968784807664
-0.01086097855642884
-0.01961029043873803
-0.01090160497845831
-0.03069476598059655
-0.415968805566289
-0.01234954536858895
-0.01410413147858812
-0.004915237127189929
-0.01068005969305084
-0.00984272322348137
-0.01436740987945567
-0.008868896379677752
-0.02605099192320889
-0.01130427436230493
-0.1619476424068154
0.01717148667195074
-0.007758575974588052
0.003143979754446651
0.01341393503814359
-0.04720305735632276
0.02997700847976937
-0.01295498588093336
-0.1357131991159145
0.2820028639941026
-0.007218649758130624
-0.01321180669587105
-0.008452091724779747
-0.03302737313969639
-0.1222080168267769
-0.01284706138484123
-0.0123948394262884
-0.01684545366774202
-0.01362076966311725
-0.04091334676904945
-0.2137145996440537
-0.01149891417559101
-0.0410751071937108
-0.04002976822120023
-0.1649854914539284
-0.1658834651884244
-0.1392913820991082
-0.2538919977623358
-0.007377523519721006
-0.02133157274214012
-0.0141941123628475
-0.01260331742676965
-0.03278961986708348
-0.02439646402622576
-0.0145131156561212
-0.01502360899088189
-1.08302175165336
-0.005877255988157385
-0.01366471132914545
-0.01850143730305602
-0.02043491616081793
0.001461599236772408
-0.01422238431331815
-0.02791256149629734
-0.1631535166306428
-0.01359185525630864
-0.02230094521520523
-0.01378250448347708
0.0009607279733686945
-0.1796253374912869
-0.01336125922892749
-0.1410834413319589
-0.01613223150263116
0.008153121600056549
-0.01465220118799666
-0.02302670783375508
-0.01559095488786394
0.004908734020263506
-0.2793497056495236
-0.02541463983534947
-0.01592820266834104
-0.002949654764609756
-0.00928327393978887
-0.0306587411787471
-0.01443465549536316
-0.02031476830580951
-0.0214446660792302
0.01331413700720478
-0.1012236665251782
-0.02220229632617046
0.009153752160299376
-0.05080955316889017
0.1579365563617532
-0.1026391048221894
-0.321814711666375
-0.03079106330302094
-0.02535275801171814
0.1490351105697818
0.0828489026613884
-0.003300799608017878
0.04921026661884447
-0.01568992380043704
-0.01471501886993024
0.002185277854280957
0.01200034407164431
-0.06721702985747414
-0.005837086238888838
-0.05776633144235187
-0.02210630865638858
-0.01572292696670137
-0.03653279882102979
-0.03291506020480808
-0.006638061124514165
-0.01507378573229837
-0.03938626730380176
0.03781724029281618
-0.03890652398698562
-0.01358617544931573
-0.1159879834241907
-0.03211941114034692
-0.03840017731399096
-0.6784425393945772
0.01948703174553459
-0.01089362499346662
-0.005388049725645053
0.1587664689195034
-0.08320429683482612
-0.03486857392962175
-0.2475648221514616
-0.01675799593203925
-0.01665532828205089
0.06196280104528083
-0.185162419729523
-0.2275827058446843
-0.1990060261102214
-0.6876669739182573
0.003977825984130542
-0.01864658188764309
-0.01685171608012847
-0.07783782697931881
0.1176629742984716
-0.02098754224734213
-0.243579858788122
-0.0348434639212117
-0.00643553821509919
0.2773120449970944
-0.01132823197818239
-0.09404592815763713
-0.1485566246354566
-0.004498899043314713
-0.04028738558317756
-0.04868677413691559
-0.2069072917802739
-0.008882960838702776
-0.04235421350566323
-0.002442874009289205
-0.5519297225403498
-0.2003334772602088
-0.1753668749622711
-0.02263727360473356
-0.006782560878937019
-0.05974901612344509
-0.05841845371755356
-0.01451987781114061
-0.06732483308310146
0.002986220635098352
-0.01844624975664359
-0.09488342791329414
-0.2662402087829957
-0.007384147617031329
-0.02648470546026164
-0.02217314418159811
-0.07398862275006918
-0.09135030696247964
-0.08756333554978721
-0.01175724070615908
-0.9290221736102684
0.1605966247465749
-0.07916604451405319
-0.2574956297789174
-0.04272349170983961
-0.0105212861501975
-0.2527298003091534
-0.1832931084799996
-0.03342897043035598
-0.1284881692185516
-0.01919029566934335
0.5627975504059023
-0.02374481963228082
-0.2303666752290924
-0.02628454284282628
-0.005662985779584558
-0.01202301643327838
-1.2547280701209
-0.1833112245016618
-0.2343386271400262
0.005396160363504068
-0.03707780758903846
-0.2541979262736509
-0.06520590788609834
-0.05080492172925421
-0.1416321408580007
-0.1918042672542848
-0.06755144104235017
-1.231646354543256
-0.1421934837475325
-0.5178178308983986
0.07829020801406433
-0.006917457575031756
-0.02207788446438486
-0.04235102378046211
-0.04088351497385212
-0.02893841503633693
-0.1315804931068206
0.07971024426213874
-0.002537674601124847
-0.009766962893045617
-0.5822661067867665
-0.8658948465931159
-0.1867362319229627
-0.008298440513092418
-0.138736595366667
0.00112286355118451
-0.0006112599071458838
-0.00178474961857159
-0.05988113530883956
-0.2396090411740004
-0.01341823747743851
-0.1251537354966807
-0.1553234522756219
-0.01324819764122296
-0.03605575147460707
0.02169632049467366
-0.05710414582778436
-0.06943528111675112
-0.5044011172988712
-0.2384710378094933
-0.08104502677939707
-0.07221617575469952
-0.02000195259417275
-0.1243004022236134
-0.151930642943944
-0.07438409377285214
0.02335423192170709
-0.08407332826959076
-0.04779838092500737
-0.01490140040950978
-0.1064522687334368
-0.2713536628718843
-0.05648042619409744
-0.0185724741318276
0.0001511388521679925
-0.01001118091341988
-0.01119892002829674
-0.2160082939838233
-0.01525210158592316
-0.2229441221989397
-0.01035052760769884
-0.06624917575614513
-0.003827957771125998
-0.02319766811338954
-0.3762576838636217
-0.9067814764270882
-0.01134500210563
-1.050477118116
-0.6152922964752217
-0.01068669493370256
-0.6553782737504279
-0.1756250749315039
-0.005891576345849279
-0.131363694873896
-0.01695486358701774
-0.1213077780621452
-0.06766309517141428
-0.0769834047069735
-0.00509879672027586
-0.002490127565038349
-1.335672156710503
-0.01115440805661571
-0.1835791950603182
0.0004735373554775265
-1.013248695676485
-1.231029135732051
-0.08194315246053542
0.01996454043022185
0.1642950450564883
-0.004641252680254331
-0.02305026012171592
-0.004198604875494503
-0.2541963148246199
0.3662007521363919
-0.04069288645151155
-0.2099920782509386
-0.01487813482040256
-0.6567220994001409
-0.07540299244241197
0.1912324780629217
-0.2825269045520972
-0.04962410031881483
-0.06851848163400927
-0.01590241344416967
-0.02178528371242011
-0.5731845845387424
-0.1439118754443687
-0.08518786973814001
-0.1291172466330577
-0.5571823844708113
-0.04398275398050021
-0.9095278052742731
5.251455277427167e-05
-0.2369526782422011
-1.047325067482446
0.1683529856856705
0.2920326831281043
-0.1844431722358969
-0.1935862587726999
-0.2070455762862851
-0.0683417776385066
0.0224114160758779
0.04895870881480634
0.003656386454625495
-0.1677944269156843
0.02545235492742208
-1.353789076874816
-0.08482739701795855
-0.4720488561797784
-0.3293512946798327
-0.2024389183348603
-0.175591185266651
-0.01690731304979465
-0.01547362033612953
-0.1077262506213003
0.170987699800882
0.3856563551857846
-0.2155855235000285
-0.1389192471121153
-0.2383084412742221
-0.06226745129089479
-0.1493022483442551
-0.162002057009176
-0.1252536199106934
-0.123914786934569
0.4663607343519715
-0.2676574565307315
0.4310130991904693
-0.6011684733448465
0.07038277097682408
-0.2053663318845442
-0.06581705341274753
-0.07378081723204118
-0.8760565883758037
-0.2210940199178227
-0.189664039947308
-0.3453797137238688
-0.4561764529486065
0.5706714943271269
-0.2063812178882972
-6.295333969185065e-05
-0.07105051136518924
0.3435449276973985
-0.03783936039105109
-0.1318849365982043
-0.1786417732441367
-0.06347412858679614
-0.01655342050766383
-0.1941903705680967
0.1935303684819155
-0.01285876210293869
-0.09582604989665004
-0.1680619501574473
-0.3142498784235697
-0.3142558787269392
-0.06359677986553203
-0.01033909819497103
-0.07806071786287086
-0.6558981955953709
-0.6684818169720106
-0.3397927002328101
-0.05742294859942214
-0.05225243897372457
-0.02558226340459649
-0.06721543298989439
-0.0582054401726845
-0.3572994224632016
-0.9555207478218628
-0.01044610083627087
-0.08253037984011756
-1.135576204347202
-1.029483485589247
-0.1044021856209447
-0.0381939429426125
-0.07028918141129631
0.3906664607172425
-0.3451426510557375
-0.05029203191937068
-0.5968969292761788
-0.1214007385468281
-0.2538971674223615
-0.2094857085716022
0.4742545404306577
-0.6259075069206925
0.07311244866308136
-0.02968561867822681
-0.5558433258980434
-0.05111434515850099
-0.3602961792960742
0.1066878436097141
-0.1894096731806577
-0.05951284019952444
-0.1391089289281358
-0.3630554830525234
-0.08845061511338609
0.5143207137372854
0.08514436121117239
0.4710142305017148
-0.1036719572203872
-0.1989156480483602
-0.5239246253686299
-0.1301891826890122
0.02718431960390028
-0.05319297488992707
0.1029906611318076
-0.3079488356585682
0.2362075312372731
0.008807149167898598
-0.003328019118013702
-0.5147317833903565
-0.1863049769476089
-0.08155004787597885
0.5815238992706487
0.1382754008589768
0.3458360912254532
0.2258405536945194
-0.5599156101914963
-0.2024583865664156
-0.2218497298920062
-0.235838825445871
-0.05996474552000017
-0.6961242342810233
-0.1944566647878737
0.3063114138546005
-0.2010822108873025
-0.01121674424346801
-0.1727094658109216
-0.009135918821187673
-0.1560953530216513
-0.4329602746628671
-0.07668448980580744
-0.1976480170998291
-0.07096018972977999
-0.08698327179561564
-0.1467127134477475
-0.07338835750318651
-0.4567477132349259
-0.4161370755027949
-0.02644668553156374
-0.07396284645346406
0.3271205990235979
-0.2457371752144858
-0.1858993803504727
0.5255357419063483
-0.2090706740885442
0.01760277779452799
-0.4477391021812824
0.04660529077857303
-0.06246875838443322
-0.1471889101568894
-0.5806514309877706
0.1617999327820698
-0.5822015161706361
-0.5323488098325618
-0.1061825640415365
-0.505641298896405
-0.03752773157885373
-0.1386604176057267
-0.408790531407306
-0.01633840788138692
0.2864448100215206
0.4895176738651711
-0.157608610499506
-0.008494441263751666
-0.07403236963805485
0.5253474725457929
-0.03357942572140223
-0.4369921992146989
-0.03292217205902954
0.4605530472142184
-0.01444817865595934
-0.5412762852866144
-0.246710763716056
0.1757199129046283
-0.3086785401662326
-0.1777206000868848
0.05169848621053845
0.03396987317927837
0.05401230238757953
-0.2974651480750647
-0.1575928016246937
0.4127549866336178
)
;

boundaryField
{
    FrontBack
    {
        type            empty;
    }
    Top
    {
        type            zeroGradient;
    }
    In
    {
        type            zeroGradient;
    }
    Bottom
    {
        type            zeroGradient;
    }
    Out
    {
        type            fixedValue;
        value           uniform 0;
    }
    circle
    {
        type            zeroGradient;
    }
}


// ************************************************************************* //
