/*--------------------------------*- C++ -*----------------------------------*\
| =========                 |                                                 |
| \\      /  F ield         | OpenFOAM: The Open Source CFD Toolbox           |
|  \\    /   O peration     | Version:  2412                                  |
|   \\  /    A nd           | Website:  www.openfoam.com                      |
|    \\/     M anipulation  |                                                 |
\*---------------------------------------------------------------------------*/
FoamFile
{
    version     2.0;
    format      ascii;
    arch        "LSB;label=32;scalar=64";
    class       surfaceScalarField;
    location    "1563";
    object      phi;
}
// * * * * * * * * * * * * * * * * * * * * * * * * * * * * * * * * * * * * * //

dimensions      [0 3 -1 0 0 0 0];

oriented        oriented;

internalField   nonuniform List<scalar> 
1171
(
-0.9279039127623753
0.927903912717562
0.7874025848201022
-1.099212004421474
0.3118094198589345
-0.1899150554771431
-0.7663666951520692
0.9562817505418411
0.07209608611520982
-0.1174926324028154
-0.2123861245744449
0.3298787561415998
-0.7874025736831984
0.06938455812700745
0.718018015573366
0.8112296045637925
-0.1779504083243411
-0.6332791963637099
0.8740044319215565
-1.04412585286039
0.1701214209840139
-0.2853515525329528
-0.09807570206288145
0.3834272550163714
-0.03651892033387802
0.5489216603557121
-0.5124027401199195
-0.5074922333424541
0.8272115745123277
-0.3197193410447104
-0.4028441786739062
1.045715977532296
-0.1717115451637796
0.3922573941177059
0.05049784683335956
-0.4427552424804126
1.045951659627741
-0.0002356813914836044
0.4444071880206161
-0.05214979671407963
1.05645237363346
-0.01050071603566029
0.5805151308249018
-0.7704301810301482
-0.7240614165998727
0.5565857497602863
0.1674756667381946
0.2138913901782891
-0.7213836311056145
0.5498724486984686
-0.92253649932019
0.3726640496809306
-1.094221324887884
0.6866257838654233
0.4075955411212013
-0.5955859275827566
0.5590670147275313
0.01717085685867396
-0.2557185333231841
0.2385476755061714
-0.02247506952388561
-0.5240149935343509
0.5464900623956618
0.4003080632669473
-0.4983837590610696
-0.9189615492796384
0.941694680251509
-0.02273313092937345
1.067773906245251
-0.01132153378013252
0.9348892745180249
-1.116698111796304
0.1818088371782116
1.067237659290741
0.0005362440873354255
-0.6643775378984816
-0.05968387574934698
1.26218328961163
-0.8643484300283474
-0.3978348595932621
0.1482761067800372
-0.1100061386880588
-0.3255273579808201
0.4355334970454302
-0.2854928908292068
0.1919779955234892
0.09351489579850687
-0.5836746496988529
-0.5155373601312069
1.014094502106563
-0.07920522798936848
0.009872120977844533
0.8255021430794549
-0.8353742639877234
0.5717132108922389
0.6904700813135002
0.438915526202048
-0.03099960825101144
0.431307671215073
-0.8080762559789807
-0.1025418630971617
0.9106181189696405
0.502110789069571
0.2540546334454057
-0.7561654225096478
0.006509300010890494
0.5297514502610757
-0.5362607511155973
-0.4900132963730289
-0.6042080285442659
-0.4227588452961203
-0.6939392660774012
-0.02728541817530535
0.2707465203179251
-0.2434611010965511
-0.9247895010319178
-0.005115396879418826
0.9299048979886306
0.3084993063675188
0.07492795451828836
0.7615611087845
0.0496684913697547
-0.5329632444243066
-0.06262268166383153
0.04599893647769421
-0.8540751926135421
0.07634933371125381
0.8630311697579008
-0.9393805034327596
-0.3468539993118706
-0.04079813747219039
0.3876521370921786
-0.6820831048533307
-0.2427063911297608
-0.6344077817421203
0.710757114382611
0.6143856941376351
0.2128258737808955
-0.5434023411604803
0.9456752858486346
-0.7789333819778811
-0.1667419037998876
0.010551190501834
-0.006754246527460843
-0.003796944010602495
-0.4034870373191832
-0.09489672207461634
-0.2412085836927255
0.8555942734702677
0.04844883516090717
0.3340772180729378
-0.3825260526803179
-0.461558503607834
0.9636692879820785
0.6804565613165601
-0.7829984248730006
0.3193054932472879
-0.01549782019930053
-0.3038076724258523
0.9307216627316129
-0.9307216627094473
-0.7812778549097195
0.111166351900418
-0.3235524725119815
-0.7499284432120429
0.7598005671897429
-0.09078942555967082
-0.1432784475654172
0.234067873977179
0.8648848985227697
-0.03938275094012082
1.054510045538425
-0.8004554188739359
0.1867545838992673
-0.3163694103590349
0.1296148261543361
0.8584217674104876
-0.09686066013360156
-0.6113615185988254
-0.03913492241849695
0.6504964410663391
0.1234210169838451
-0.2304083702109889
0.1069873520559588
0.8055600953814631
-0.9835105074445316
-0.4342512034388036
0.3291051243107984
0.1051460784093529
0.5334049779509542
-0.5558800491009861
1.021925588838803
-0.4562138241736314
-0.5657117646326051
0.5991667438608663
-0.719305971417677
0.06653508162482694
0.6527708901459466
0.102256339106157
0.569558744093719
0.05524469673145602
-0.6248034409916386
0.1948027251329948
-0.08363637674412622
-0.4921158319323102
0.1452618323280313
0.05024948173885472
-0.8864232561748222
0.8361737743442526
-0.4735171407378366
-0.7131895321554648
0.04881199532709853
0.4371070780621993
-0.005799403604963118
0.3000547858314031
-0.8552881236668448
0.5552333376752626
0.4157588978095598
0.5842411020839264
0.5605419124693483
-0.5145429791436105
-0.3677543343156756
0.03960800729291252
0.3281463303454264
0.6812645819001263
0.2494570813951991
-0.5671217154918788
0.5736310159674307
0.1115797230862373
0.8749446449114461
0.01021536727262635
-0.6215768829676352
-0.7490590231998636
0.7993085042738722
0.5304238281765062
0.07018969815119772
0.3010456751334367
-0.3712353735560324
-0.1674494080598101
0.4451426346501928
0.08460882683720383
0.8743195467663665
-0.8050560607327848
-0.06926348609778253
0.6353537994660755
0.3103214882322957
-0.4307724555772692
0.5737315511598834
-0.5035418524055524
0.4170803494316995
0.1327920969409995
-0.04672930185262265
-0.5926817158119807
-0.1389535043435394
0.7316352201535867
-0.1497460775135844
-0.7809755821526627
-0.6110193060566388
0.3602152039173637
0.2508041033674354
0.621928619833753
-0.611713252401459
0.2390893274022379
1.011545877721717
0.04296416683700144
-0.749059026036928
0.2304054189462477
-0.2198542273789342
0.6804565614307092
0.801773138181211
-0.8017731380873279
0.8376112614844359
-0.8330762387642408
-0.004535022801683569
-0.4453441205363665
0.861103020254217
-0.1472962095955832
-0.3448196199052529
0.7347601853622817
-0.6685628451102198
-0.06619734018268586
-0.736258324944409
0.1435766092860983
0.1391088725765242
-0.6720721168084798
0.7829984315299408
-0.9504478395330526
-0.3684093916968008
0.2882372124278533
0.08017218164242024
0.1457342708204087
-1.01011507458677
0.8643808037364598
0.4809709002959747
-0.04205537400342352
-0.308075790713329
0.5862648273867742
-0.278189036833271
-0.738610738483252
0.8843450109320904
-0.1570047594045256
0.7312846772428154
-0.8402046502398618
0.1089199730592008
0.9765587740476775
-0.5391029685390172
-0.4374558054120166
0.7550438336136779
-0.06499112998837107
-0.03372013863439014
0.1845774642568096
-0.1508573251666891
-0.7758122167720899
-0.8393367640096958
0.07297007472472986
-0.749928441922354
0.5137309756953864
-0.5545291097234358
0.1005578542854553
0.7167841200694715
-0.8173419745077078
0.7535940606743489
0.1743098320917524
0.5029295869097227
0.4970704131170302
-0.05334574720295449
-0.6121838330164061
0.6655295794603742
0.8816626312854992
-0.007343087848719252
-0.7550438336338059
0.7993085052446114
0.1916362054792013
-0.4473547408064404
0.01298906329732931
0.003823860993850748
-0.01681292851432646
0.5887880571601163
-0.437371749115985
-0.1514163086101228
0.7180180084558632
0.01022930510062663
-0.1080520878726538
0.4383829498659937
0.1504051063433348
-0.0162548676536482
-0.007080968685857627
0.02333583690990417
-0.03108237453465079
-0.002637761217841336
0.2458485594657473
-0.261346387540545
-0.9587778967956728
0.001430806429221471
-0.1594693915392404
-0.1225608257394726
0.09453064199665868
0.7224606977206514
0.7289529838957169
-0.1447118819024364
0.6744906959120897
-0.5739328402128807
-0.2118711314945558
0.3986257163681229
0.6956465712704138
0.02237143721710842
0.2418372369396427
-1.07491347608596
-0.9504478393325971
0.3026999023101473
0.7598005701307828
-0.2093110812677602
0.06603263219116427
-0.7238915032537786
0.9108829403397999
-0.1869914370729163
0.4156012628091932
-0.02794911939487318
0.7711826426515467
0.2806940301126705
0.3766250659496315
0.06778212989511681
-0.6587116060594876
0.6587116060790175
0.2147276950634511
0.6958904228168782
-0.05648982534799233
0.3905670375118317
0.3790436696864062
-0.01404588322028612
0.02703496132086373
0.4482971492630329
0.03267375449918016
-0.7386107378394609
0.533974987323218
0.2007851972582031
0.3001061026301413
-0.1155286372106531
-0.6956465701020973
0.1797450480280106
0.7311378914814256
-0.01021137829709545
-0.8136206299310171
0.8238320082361086
0.6964132705893108
-0.7919669329245689
0.09555366225314846
-0.7535940536595724
-0.1505942212304189
0.2120162322066237
-0.06142201011086337
0.07746349887305889
-0.1784556474704369
-0.1126669946817672
0.2911226408514684
-0.007576965132213058
-0.008677894292340116
0.7063319512373457
-0.7165433219731694
0.8870923803227717
0.06918937484039554
-0.3117646901157146
-0.5230164044776149
0.834781094694492
0.1034567216245238
-0.1034567246474455
0.3278452170204135
0.4762520135544063
0.6109681401538186
-1.087220153735888
-0.1940888036515928
-0.5855359295108853
0.7796247331400292
0.01295412391524308
0.221113744168481
0.3762142588760796
-0.252793251950795
1.016029343955813
-0.5397773336011779
0.6686028348482517
0.9924362607895618
-0.3814681238933278
0.2289180529956851
0.8843450125443794
0.7126334669181094
0.213902671778257
0.7277920059986581
-0.7809755815220469
0.3412883866743149
-0.2845841274064101
0.2605963780462376
0.02398775164415796
0.8504194653817064
-0.004162593523612654
-0.846256872117254
-0.7021327484414691
0.7026689908706997
0.5546558789410563
-0.7021327492278897
-0.7126334669035407
0.7026689899975089
-0.03371674579083263
0.9083329657590816
-0.02124058248805583
-0.6812645920915239
0.6122379764647409
0.06902661563992277
0.5385675402236932
0.5383662990565364
-1.076933839305167
0.4871204658956796
0.5289088770897703
0.5483100161060016
0.4574508552473792
-1.005760871405692
0.4926742625105174
0.4997619969551835
0.6122379834825129
-0.5256804113636135
-0.466670788056795
-0.5561406253708086
-0.5136654264934565
-0.1234205265892529
-0.01282458657022962
0.01282458748528316
0.5098879880364416
0.5245885540522475
-1.038253980653724
0.5719553026759679
-0.2709096264670517
-0.8830003011926884
0.3438973332787941
-0.6328014507468175
0.3900950613509547
0.0001415321099782078
-0.8259696680780397
0.825828136066894
0.4208772025238959
-0.02512916212632704
0.8755486275567756
-0.9461724759330332
-0.833638840451685
0.05619688628953243
0.7774419542962828
0.5560158552755318
-0.4381993720449894
-0.117816483208731
0.6502240424899411
-0.7294292698857473
0.8870040759548751
-0.8267598792900123
-0.06024419640209448
-0.0147821140888353
-0.7902739497439123
-0.1112838166324576
0.7135700621764369
-0.602286245564153
-0.9414435920513838
0.9266614777782239
-0.7311400664142323
0.6883056722497932
0.04283439422214819
-0.8022043849519368
0.02852401318232628
0.7736803718726031
0.06193553688492477
0.04152118763372802
0.4328468858923598
0.05916840918146699
-0.8502728116094284
0.7911044023307819
-0.6461093296328109
0.5927635823490475
0.8886941227651286
0.07369043941286856
-0.9623845621778643
0.05505528553201251
-0.05054878407471117
0.378695114096429
-0.3819155707204989
0.06554615900108213
0.8405073835398315
-0.8403658531430767
-0.7330150046565385
-0.8142601931540007
0.02398624335124476
-0.1670411952133246
-0.8480825408361654
0.02132265687580713
0.6222200942120817
0.05227060294591354
0.02079077290605558
0.5352250802373476
-0.8158209922318642
0.8443450087547804
0.5657117651204566
-0.8510988323656389
-0.8677531504755669
0.04057981944798192
-0.02826074243996754
0.833939784327493
-0.8056790418289119
-0.02225440900895189
-0.761275745869551
0.5442808330130484
0.1521324437750585
-0.0181187932333771
0.8936674203534642
0.9828583658487172
0.8615943528557999
-0.8402716975455874
0.1478527766791717
-0.147852778143817
-0.1174970955842793
-0.4643782847762666
0.02617891083507342
0.2709463364407006
0.03175356625142538
0.3868543692830941
0.8714130126492964
0.008644681886986664
-0.01622164312747287
0.6585894595558883
0.3414105404623933
0.7836236299892182
-0.5836746519076911
-0.7780839806848446
-0.8098416328797118
-0.6799358560241303
0.679935856037534
-0.1682580076653482
-0.1552944621006203
0.6021706533951008
-0.8113125931124539
0.2091419397522655
-0.49408866358068
-0.5688430010559583
0.2779794152801226
-0.9719186814534441
-0.8986669281907605
0.838422725788643
-0.8170910904167595
0.8410773346143151
0.648507771039411
0.1343238828475133
-0.7828316539118806
-0.7670072397178965
-0.1464708468826049
0.72528910057663
-0.5788182537569283
0.02725391810931642
-0.01172025420619066
0.01544282672669586
-0.003722571435046969
-0.3522926506017653
-0.1120856290304062
0.8801500716772918
0.7425907501994624
-0.2408008713284979
-0.5017898795492375
0.6247742738054768
0.6857918658441907
-0.4710641715874817
3.161884310026817e-05
-0.2855245094923842
0.01123974824681729
0.7499890896387689
-0.7612288376309161
-0.323410907607793
-0.07247831561075965
0.07635922662351007
-0.9678594115283552
0.1216025402792149
-0.6769887057391251
0.05433326184252425
0.6397087295343818
-0.6940419914111466
-0.7561795000847352
0.07919079435851137
0.5892313502221105
-0.6617096657597925
0.1569123568890393
-0.3353680036777261
-0.7720516955866223
0.005044455787672504
0.3710897222494566
0.5996614843417909
-0.0259299300153644
0.01961959766400309
-0.01961959791585094
-0.01990553994079133
-0.05063908909743273
-0.2339450363326948
0.02510599292198105
-0.01646133387912245
-0.7197810946520402
0.2793489678600549
0.6790215203674008
-0.6893772118884304
0.01035569174155478
-0.5948775605230783
0.6492108177260068
0.6546094809479881
-0.06537812825495055
-0.6306603850703961
-0.125519118542554
-1.050229287452348
0.01116512499627238
0.1366876546674918
-0.7085413480417447
-0.7419442079452505
-0.7639557005068059
0.36612084295786
-0.4051530064080913
0.4629071198027894
-0.05775411290892601
-0.6668912248299851
-0.04165012314841336
0.5001945064782223
0.7306855553119181
-0.235805336584699
0.1132445114282258
0.9628149580513689
0.446633645830148
0.1321185673191358
-0.5787522132318125
-0.6766744438564466
0.009783220588196907
-0.04448047371036416
0.0327602142244865
0.6370670537724467
-0.7760205579234605
-0.002334086869478448
0.002334086791030798
-0.6004532989038672
0.649733874586921
-0.04928057583064754
-0.6558836736406207
-0.1137316519364274
-0.6717010977152714
0.05868455182954142
0.6068450238251785
-0.1376400963135802
-0.8181719442279378
-0.5716572986776862
0.571767675403316
-0.0001103773891810535
0.6289504788539584
-0.6185947929657933
0.3224799547662116
0.213597336093592
-0.5360772908503807
-0.1048771516749743
-0.6020320913464423
-0.09200990182370246
-0.1538196484159503
-0.51297274755641
0.4042934701332465
-0.4991901937881253
0.1262866724714092
0.6787310610480968
-0.8050177334337383
0.599166743857344
-0.3719886218677298
-0.03316438629732105
0.06692036305555944
-0.5798931147025183
0.5513329516985664
-0.04046576788647778
-0.5108671839323019
-0.3131212839100124
0.3057601887530865
0.007361095951722482
0.4516460644526064
0.1203092390296974
0.0525773904646097
-0.3165396603385285
0.1575637595628324
0.15897590094629
0.2446057515999656
-0.01420033358926459
-0.2950037579481201
-0.3115261216385965
0.3524030247376186
-0.04087690179494146
0.7902053744353162
-0.6276197182417833
-0.02826395583280039
0.4993831395477071
0.2853737367130755
-0.5261746044637202
0.5774548778138239
-0.5774548778129382
-0.2897721224397158
-0.5864934193846011
-0.295554029611127
-0.5864934194728586
-0.5962637140451141
-0.8384809250812617
0.169918077683195
-0.6014407961780659
0.8211702976145598
-0.003196158801888562
0.1179354491263164
0.4817260366970801
0.09678190982664596
0.1859440414105823
-0.03634746418960604
-0.1495965756100369
-0.02967313099794249
0.5901495317908982
-0.9425752894425997
0.4195588820400142
-0.007577763864699605
0.001741263554537917
0.005836501440535585
-0.6441963821688597
-0.1320976592798527
-0.467306229336542
0.5994247986412232
-0.5034826854955319
-0.3199259907395754
-0.2599671059434283
-0.2720541103041839
-0.1114456383739211
0.1114456385504571
0.1535199289122348
0.05849630773340218
0.1971091693822109
0.4487067756685407
-0.5695815176083141
0.1022752851091182
0.2530186197563311
0.4664441974350874
0.5335558033697565
0.6453409670445829
0.08448467984547213
0.0001475979686917137
-0.08463227392109741
-0.2771349718963184
-0.5410369724542455
-0.5473374540275254
0.1148773906891017
-0.126700450626858
0.01182306041058241
-0.105558344916504
-0.3852853865715251
-0.05046340292654785
0.6573084458698775
-0.4994414832564197
-0.1447548988531128
-0.3266802381463028
0.28606021896962
0.1293489695164554
-0.6155829627720583
-0.2046054777832684
-0.2630769236578308
0.001730552461460877
-0.421097322252835
0.3231120329701985
0.09798528970942168
-0.0924331584596215
0.2917362309740674
-0.8959442599698151
-0.4573277690041316
0.6276353134860355
-0.7732617084404175
0.668384556804721
0.3400182542415712
-0.1247656679498484
0.2239689965459364
-0.09920332947807722
0.03061602268758609
-0.5862087410214972
0.02870566311874801
0.5575030776018474
-0.9006036411600115
0.5478870299653421
-0.6653841254915076
-0.1041525670287585
0.109565916478538
-0.1095659196201251
-0.3165080415679712
0.3585394755889481
0.02015563232680094
0.02378255433851211
0.06070211694297297
0.5044938993015232
0.6676612772880999
-0.7369247656527879
0.02760640575383161
0.01974940569009817
-0.0001298126409071897
-0.006613299639483474
0.00661330026827718
-0.4103760577310188
0.530685296989725
0.01579744486787299
-0.0157974447176759
-0.7926723345598475
-0.06058789526345069
0.1225234265908062
-0.4534204874984699
0.5556957725055509
0.4508845903953405
-0.5001651615929158
0.1502717958307198
-0.150271796763316
0.03952520117810414
-0.0124902383621915
-0.04196317067305626
-0.9755152775191355
0.5380594736718408
-0.4681301771254588
0.04152118564304454
0.5152208442676102
0.03049207856560485
-0.5457129231060233
-0.6164887671276761
0.1170472852785959
-0.3290703469540371
0.01359670705083857
0.3154736392551565
-0.1552504806146955
-0.08055486392615155
-0.541023721497099
-0.0451850123220301
0.1366876558514356
-0.04061836543692333
0.03828427360664789
0.08099727053754988
-0.08099726670480727
-0.5259715990036722
0.4850946872952276
-0.4149226666345716
0.1612967220232834
0.6223269080228916
-0.09702617545265693
-0.004176765706467366
0.004176765664819411
0.5329792720613397
-0.0803578808201466
0.006109192215408458
0.02712173954494211
0.03490789977559803
0.6879930065848727
-0.7683508876418935
-0.6582513384764719
0.6299873860221664
-0.109590671938886
0.3140172803628573
0.745525368592061
-0.01990553823507493
-0.2652690193613992
0.1497403884669779
-0.7445940012068847
0.4837545404180814
-0.4270083162381123
-0.101267913091297
0.003257115209330112
-0.01450835207735274
0.02525361005538437
0.4117174270013973
-0.1215602425215681
-0.3893069412377078
0.6290018075819417
0.01943787151219368
0.009044685315706723
-0.00904468503635957
-0.3518329752138024
-0.0772648157642344
-0.560258265854333
0.5570621068090285
-0.2374326565199411
0.4647045945348174
-0.1507208090391695
0.7312359430399782
0.6693403222632328
-0.04061836648371895
-0.617504294214401
0.561288234616429
0.2822253638125615
-0.2770912145101295
-0.005134147571989748
0.5375542314009255
0.09344243528468672
-0.03885586955694782
0.1961154900362152
-0.1572596198676681
0.1198531440044805
-0.1198531410370134
-0.8586151220766121
0.002419011832979594
-0.1134727906618914
0.1405945287998399
-0.1314837340067511
0.1314837344021767
0.01974941258497313
-0.02408230776893099
0.6702444336074017
0.06089345857940682
-0.3226049923737018
-0.06268039349870419
-0.4712869159780294
-0.04445487641244614
-0.1512533303203958
0.1512533311503713
-0.04510706403639734
0.1437147492785376
-0.1437147498543804
0.1362447071780372
-0.1362447052603521
-0.3162157109274099
-0.1145567445494874
0.2259449862872109
0.1031601381105569
0.03478310718637051
-0.8212344407401286
-0.198227996318506
0.1698721915151702
0.02176400979239052
-0.2641849507528818
0.1262489775865853
-0.1262489780803183
-0.4143475386754965
-0.08484265296951127
0.2356720571392207
0.002875615900687491
0.04037890509795624
-0.5446623740425456
0.5783791198374627
-0.03434928614411412
-0.01075777529840762
-0.02460134599953186
0.01211110014098095
0.006557030581618771
-0.1848073811295168
0.1782503507037556
-0.1081479497092213
-0.2272200513055302
-0.1443438283005491
0.1443438289125702
0.07238463027173932
-0.07238463007885054
-0.01892781515194833
-0.1085468635864718
0.1274746781545775
0.2339104354002709
-0.1835064561683693
-0.02388383528173819
0.02375401228707042
-0.1287808206119375
0.6138755059009149
-0.03906101733261377
0.4269149611470742
-0.04211788390316663
0.06545371415438096
-0.1530161981230545
0.1530161993773565
-0.6366784516999286
0.3080559709573456
-0.07913791790177339
-0.2340592510144528
0.003650878395895667
-0.1212999824086115
0.1616788885808072
0.1950295607999817
0.09609307868493991
0.0960093122837162
-0.0611014129320215
0.07321805505415697
0.0416593338136509
0.06420094668842223
0.1056712494909111
-0.1002631285221422
0.2135076530599767
0.0113787786315753
-0.1167244506224489
-0.1007598225175983
0.09606427620950958
0.004695545524097837
0.0107047224585896
-0.02268002102821915
0.03731921112823094
-0.03731921111645604
0.07481550836746689
-0.0553908306836402
0.05539083095909393
-0.2243518097216626
-0.05127073347981993
0.01179016858097523
-0.1031253611407055
0.01639156555458325
0.108873217973039
-0.1088732183365582
0.2930148526657476
-0.2707650982007542
0.1626171452452481
-0.05073514888360246
-0.2200299484337509
-0.01679687556729053
0.01679687535925824
0.3676075686273062
0.2851633165814242
-0.5280868429530944
-0.09392384222342159
-0.03277660962596814
0.5289042855499773
0.2093090747015075
-0.1691759407655159
-0.3805003081704685
0.07657629640586271
-0.1471432154586926
0.1867452163918165
-0.0396020007888201
-0.06721389164510705
0.06721389148498697
0.8221016650042011
-0.5603192258063044
-0.004303326940525381
0.0150080510567986
-0.02003808852661618
-0.2873921216548225
-0.01746577439697151
-0.01286010174803409
-0.1321953627869366
-0.5723320836186052
0.5561295708824778
-0.5687423150394363
-0.006909497557233786
0.09925964130857265
-0.00176287235186561
0.01677149478722212
-0.1671813038297607
-0.3360972198565629
0.2329718586796793
-0.0539932360199773
0.03506541935859992
0.1322275027830927
0.1735326863287308
0.3423994934006251
0.2758509563432933
-0.2776138290457691
-0.06247555436218393
-0.1551646151628318
-0.2204625477103299
0.0745155652301135
-0.01031461759778751
0.2134845210286966
-0.1967130266929361
-0.08624688329073389
0.1594649409054371
-0.3551449769437738
0.2079947700682458
-0.1916032047207993
0.08963312666050924
-0.4789400635788443
0.1738851117464055
0.1707831689469658
-0.2570300552177147
0.07332928805882576
-0.194912054993684
0.1774462810575005
0.01737575515459498
0.1420891855792704
-0.03959337405623766
0.06570393777682873
0.4672753348197691
0.0205223315749091
-0.08498840522998025
0.05479305142873653
0.1260861721637273
-0.2600645509475306
-0.2309511353887812
0.5597279848485608
0.1569044107833876
0.0787676468889142
0.07469069457569867
-0.03107279054800853
-0.003094600335759381
-0.00203954000980962
-0.03259432032846028
0.1706264810685232
-0.1775359790506656
-0.05973479831733301
0.0194506936656363
-0.1471775628588111
-0.05282287244691243
0.1537728453891519
0.277044309602363
-0.04048205418177352
0.009016499809700632
-0.25516917949573
-0.1318255974119298
0.2363293280402518
0.1784944542645137
0.1295615179529021
0.02188131415916478
0.08841365791092143
0.05232274821646033
0.4521711511430965
0.01607432704558629
0.09805415201727659
0.04290893573420128
0.07236997951652288
-0.1152789142120813
-0.2429235240640194
-0.2003757736440669
-0.01965417624171053
-0.2018957507499846
0.2748233512099387
)
;

boundaryField
{
    FrontBack
    {
        type            empty;
    }
    Top
    {
        type            calculated;
        value           uniform 0;
    }
    In
    {
        type            calculated;
        value           uniform -1;
    }
    Bottom
    {
        type            calculated;
        value           uniform 0;
    }
    Out
    {
        type            calculated;
        value           nonuniform List<scalar> 10(1.03543048259764 1.064247951509528 1.02281141342653 1.021583140658323 0.9958171537919009 1.013427423608048 1.034476542617722 1.062931664654285 0.8672270045273679 0.8820474489973039);
    }
    circle
    {
        type            calculated;
        value           uniform 0;
    }
}


// ************************************************************************* //
