/*--------------------------------*- C++ -*----------------------------------*\
| =========                 |                                                 |
| \\      /  F ield         | OpenFOAM: The Open Source CFD Toolbox           |
|  \\    /   O peration     | Version:  2412                                  |
|   \\  /    A nd           | Website:  www.openfoam.com                      |
|    \\/     M anipulation  |                                                 |
\*---------------------------------------------------------------------------*/
FoamFile
{
    version     2.0;
    format      ascii;
    arch        "LSB;label=32;scalar=64";
    class       surfaceScalarField;
    location    "1419.5";
    object      phi;
}
// * * * * * * * * * * * * * * * * * * * * * * * * * * * * * * * * * * * * * //

dimensions      [0 3 -1 0 0 0 0];

oriented        oriented;

internalField   nonuniform List<scalar> 
1171
(
-0.9279387473855448
0.9279387474144266
0.7873346650378533
-1.098863861652994
0.311529196097975
-0.1940341673323569
-0.7656713962884801
0.9597055639559189
0.07206125267561531
-0.1168765193340082
-0.2118879825865966
0.3287645037895719
-0.787334674413544
0.06940289238101767
0.7179317820106663
0.8113219971626339
-0.1775250334286371
-0.6337969634522016
0.8744194442633698
-1.043709495140986
0.1692900508304407
-0.2849686364564367
-0.09737706885630919
0.3823457047604442
-0.03586327627873373
0.5485430781477543
-0.5126798017736757
-0.503399234222055
0.8259465033324399
-0.322547269486107
-0.401845161746671
1.045953516386366
-0.1715340737901024
0.3951938110419507
0.04759353807633394
-0.4427873458268034
1.046311860367728
-0.0003583453269618875
0.4446913695052616
-0.04949755676043026
1.056973885893475
-0.01066202638403117
0.5775172552647955
-0.7715514274774889
-0.7244776080365587
0.5571397336253546
0.1673378745937154
0.2218487002149456
-0.7252479290167634
0.5505915196124233
-0.9228425472324797
0.3722510289428028
-1.094161169711017
0.6863728185954454
0.4077883509967345
-0.5953953732745922
0.5595320865975344
0.01831058186825131
-0.2571074287786946
0.238796847686551
-0.02451171530312478
-0.5215106634032072
0.5460223809938934
0.4001022859931933
-0.4974793600238031
-0.918768252007589
0.9413938713625154
-0.02262561946801184
1.067555352204258
-0.01058146614897089
0.9351122618895885
-1.11688054593672
0.1817682842468703
1.067151404175943
0.0004039487799560918
-0.6643892734703001
-0.06008833843606799
1.262243309968812
-0.8643124985777692
-0.3979308113491964
0.1483831530447892
-0.1088834552162816
-0.3263104593634735
0.4351939140009444
-0.2857604323413228
0.1909288008154021
0.09483163104722413
-0.5834394455362805
-0.5154244125208032
1.014039856742269
-0.07892759316144192
0.009950101496547726
0.8254314478409686
-0.8353815494749957
0.5718825055302015
0.69036080294381
0.4396596171014428
-0.03018211062707309
0.4302843980219627
-0.8076710290256797
-0.1025689202597272
0.9102399494903906
0.5025823739914025
0.2536789517683032
-0.7562613258428981
0.004622820338206759
0.5278319324754951
-0.5324547512403462
-0.4898481956459153
-0.6043129775611236
-0.4228827227207085
-0.6939978221283518
-0.02717331904773588
0.2700481980877392
-0.2428748806403264
-0.9247863781530572
-0.005132842916311081
0.9299192209322817
0.3082480547888431
0.07409764768708615
0.7623926261266969
0.04892937389758607
-0.5331456474890173
-0.06224972587248337
0.04630670789025697
-0.8539777408423764
0.07530030870321792
0.8625584419434755
-0.9378587507600483
-0.3473025062731522
-0.04150840377096133
0.3888109091111979
-0.6823141871727409
-0.2424721985774337
-0.6315251921926753
0.7068255008266235
0.6095612534396679
0.2163852557425968
-0.5428619224379344
0.9460930794690356
-0.7793988827182063
-0.1666941969134296
0.02226854807061764
-0.01798080042363706
-0.004287745727093022
-0.4029699254944262
-0.09450943395373097
-0.2414058142603101
0.8509670686012631
0.04614670049608598
0.335405635233936
-0.3815523366750294
-0.4601843897368277
0.9627667683324496
0.6801225759574645
-0.7826914996072845
0.3197470076467913
-0.01746209552152318
-0.302284914597473
0.9306914529554705
-0.9306914529969227
-0.7827316516663448
0.1106186590892363
-0.3225066468391704
-0.7500393055072206
0.7599894020849699
-0.09010826297396127
-0.1429743292692946
0.2330825906636587
0.865004991779677
-0.03957355127156739
1.054239970436096
-0.8005610124930582
0.1859432063944662
-0.3154109662283822
0.1294677605727783
0.8594437051862832
-0.09705107725266121
-0.6118454251898345
-0.03921166372959876
0.6510570888461922
0.1238578646061995
-0.2312201754543322
0.1073623123540998
0.8056961812292746
-0.9832212114803438
-0.4355233991328185
0.3297044046125354
0.1058189959775727
0.5312773290171492
-0.5557890462563849
1.022078540326305
-0.4562359627080243
-0.5658425777228621
0.5991958160780481
-0.7193729755517621
0.06683543062977475
0.6525375445645009
0.1031823840760512
0.5704659385355731
0.05493307492334971
-0.6253990131397404
0.1940418572975443
-0.08342318853533531
-0.4933058844972571
0.1460033775290329
0.05033955505969672
-0.8868429566611123
0.8365034017339429
-0.4739171404193417
-0.713498262564415
0.04910898900297023
0.4368187985680062
-0.006534404134507957
0.2998317342763546
-0.8552336643674275
0.5554019302262707
0.4157118081040124
0.5842881920983064
0.5605121179827749
-0.5142054091951571
-0.3658936986690212
0.03462739662848734
0.3312662976118415
0.6813829053641681
0.2493085484895508
-0.565808167871201
0.570430990995031
0.1105083316130865
0.8750990808617156
0.0102179959841497
-0.6220634232402743
-0.7493291820670858
0.7996687384035677
0.5312542686976347
0.07090943155466485
0.3019646451634581
-0.3728740762027788
-0.1676049278390535
0.4414146474108806
0.08641726740913107
0.8765070088263625
-0.7978584074774671
-0.07864860129123927
0.6354187873086256
0.3106742907837552
-0.4301432432476734
0.5753204328600198
-0.504411002528845
0.4172128158766998
0.1333787031291967
-0.0468954052884154
-0.591145584049508
-0.1375494832917925
0.7286950674231308
-0.1497273543666557
-0.7809641009365733
-0.6110133067924858
0.3607943374911498
0.2502189675271171
0.6222577307218436
-0.6120397353298053
0.2386562426888696
1.011334870414575
0.04290510095237814
-0.7493291779425997
0.2263708193922671
-0.2041022680473918
0.6801225732022329
0.8020675599388417
-0.8020675601191866
0.8377339650888661
-0.8333397251511264
-0.004394239856076395
-0.4453906088413283
0.8611024117861242
-0.147591651381337
-0.3457142369963861
0.7347017017344963
-0.6684505785948581
-0.06625112321241239
-0.7312526698063427
0.1401070869578188
0.1386613018114096
-0.6718069488197567
0.7826914948700401
-0.9502964227922227
-0.3657518551374385
0.2906981959093574
0.07505365331396491
0.1459669865687693
-1.00955027987596
0.8635832933702222
0.4810422186670258
-0.04138260170057425
-0.3081964863158422
0.5865029679510034
-0.2783064813523357
-0.7383238837506808
0.884290868724347
-0.1571411538188777
0.7341621952010787
-0.8412644905808884
0.1071022950003226
0.9773486924125829
-0.5418882196732023
-0.4354604729604905
0.7551721585245514
-0.06492369159986565
-0.03332288818813552
0.1876810487064668
-0.1543581605109242
-0.7757479848228706
-0.8463739863637917
0.08070258511916684
-0.7500393079916476
0.5139608951891607
-0.5554693046038368
0.09027668686844281
0.7199341931000873
-0.8102108798096065
0.7537234080156227
0.1742153560464455
0.5028772314816959
0.4971227684845215
-0.05050714390057928
-0.6067993645484195
0.6573065101131348
0.88235215447685
-0.005845142261545791
-0.7551721584941155
0.7996687382282541
0.1909861112711565
-0.4480935366133845
0.02067420083980565
0.001753030002391663
-0.02242722495172799
0.5890199770829021
-0.4384804406672249
-0.1505395353364753
0.7179317884672278
0.01356763575021049
-0.1122117888266918
0.4371131956261616
0.1519067814976228
-0.01419601687455741
-0.005587853164814725
0.01978387045798482
-0.03322278718479498
-0.000100103216023359
0.2431200566596942
-0.2605821483390308
-0.959208714641082
0.001784587731369294
-0.1595399764135865
-0.1226318083648068
0.09453765893899797
0.7213609604692067
0.7290545132630046
-0.1447663229525257
0.6624402472321945
-0.5721635612461377
-0.2117688606979327
0.3977120643222232
0.6954187819111026
0.02251300650375528
0.2416090800155388
-1.074948804462049
-0.9502964260302514
0.3017136449965417
0.7599893973869328
-0.2086025269345386
0.06562819394160301
-0.7231455494899262
0.9099675085166492
-0.1868219591679821
0.4161337762760819
-0.02732287472961634
0.7715797128484219
0.2806270213309573
0.371756285518223
0.07293508088251605
-0.658687857795429
0.65868785776823
0.2146675560550448
0.6955723901950365
-0.05488673439490885
0.390292381664808
0.3803071821728879
-0.01502755888978214
0.03570174266337025
0.4494779335637782
0.03156428092246874
-0.7383238840048428
0.5341388978974089
0.2005628046568942
0.3062912201567381
-0.1186101845499095
-0.6954187830389993
0.1801262045234834
0.7298413054965022
-0.0101833327742943
-0.8137118868095523
0.8238952196024335
0.6962667015127931
-0.7921122187723016
0.09584551744054741
-0.7537234134710803
-0.1497749785178126
0.2108958821201898
-0.061120904566683
0.07715745151217014
-0.1799667587756213
-0.1121434501498281
0.2921102117253165
-0.008665014305229014
-0.00553100933059034
0.7065068893754256
-0.7166902306607871
0.8845051360029138
0.07520042467073301
-0.3137075436864477
-0.5183178027987175
0.8320253465157244
0.1028877730873001
-0.1028877677456631
0.3253255925431445
0.4770047451918993
0.612707064303356
-1.089711809620134
-0.1941468204978859
-0.5856533775715346
0.7798001981135965
0.01258797404144723
0.2204946177554736
0.3773276777138958
-0.2534698058048158
1.012700857151095
-0.535696108681307
0.6641451113486208
0.9941841158028862
-0.3814770477927806
0.2297360254796267
0.8842908673120112
0.7127567925365008
0.2136623670689485
0.7277315055110716
-0.7809641007794413
0.3413121511897582
-0.2771354127394456
0.2452912971935765
0.0318441093573917
0.8491049813188311
-0.01445498288784789
-0.8346499979605497
-0.7020947658850559
0.7024987155076508
0.5546093908133138
-0.7020947665655239
-0.7127567925750665
0.7024987147116244
-0.03453082874849535
0.9040902212859417
-0.01958508833188433
-0.6813828944754532
0.6123486710040366
0.06903422344058817
0.5388828362684878
0.5373379733897039
-1.076220809592392
0.4922663290135421
0.5204345294036347
0.5432923622365317
0.4598623798844788
-1.00315474206225
0.498835508217127
0.4953486091885327
0.6123486635274431
-0.5255862441772675
-0.4652559859915478
-0.5561488971241711
-0.5196641760983807
-0.121330301725418
-0.01225949666585441
0.01225949525793678
0.5120927038975382
0.5230323578408054
-1.042696533830864
0.5755676699663057
-0.2736030247690259
-0.8852262732623704
0.3433380529286664
-0.6329011198147159
0.390428918956129
0.001774062965365212
-0.8308084516032929
0.8290343884170203
0.4208580125150025
-0.01775787667350093
0.8668628580091879
-0.9452327319001445
-0.8350406406445867
0.05579677843465466
0.7792438619132295
0.5579276086273671
-0.4373772060767176
-0.1205504021475747
0.6499480235983032
-0.7288756166556201
0.8839727293865938
-0.8323910008109101
-0.05158172901356688
-0.0091718164726427
-0.7886865874508092
-0.1097738968954649
0.7152559132357635
-0.6054820163404634
-0.9365020841070716
0.9273302672720292
-0.7323442436362934
0.6913919868830288
0.04095225680578325
-0.8076420390105061
0.0367051374663538
0.770936901420769
0.06162514587965169
0.04126262476135106
0.4332104288587615
0.06125999779208766
-0.8507355926729243
0.7894755949569543
-0.6423170914412886
0.5918099436254068
0.8908391191805682
0.07003500081793833
-0.9608741201296035
0.05579847458035236
-0.04758737981779781
0.3788536689921822
-0.3812105937331088
0.06579962685583468
0.8421872357782468
-0.8404131736065115
-0.7324416212524616
-0.808560028023403
0.01987344008930941
-0.1653847274392763
-0.8518791658523666
0.01948816786264932
0.6252419465111813
0.0371982991273139
0.02730139858275305
0.5306262064180505
-0.80713552723351
0.8438406603687723
0.5658425776514109
-0.8485663297543488
-0.8664670857874603
0.03762313025511074
-0.03965295181269641
0.8376632757208103
-0.7980103240109824
-0.02284477773580006
-0.7720945740297774
0.544350476548518
0.1519162158140365
-0.03052774691039411
0.8973906045628831
0.9831270434449494
0.8613170575999455
-0.8418288899446564
0.1473351329006075
-0.1473351316755369
-0.1186758583327916
-0.4809796851440294
0.04360247793100949
0.2710439944154549
0.03066965008827775
0.3853239145139062
0.874545825419851
0.002829059930671775
-0.011494082732946
0.6586174562648502
0.3413825437252379
0.7835042397819681
-0.5834394437020266
-0.778048006801622
-0.8124653093458299
-0.679873096445644
0.6798730964092965
-0.167736136315014
-0.1547705093116274
0.6015615557319035
-0.8120863323690336
0.2105247765808928
-0.4936960400460388
-0.5689960985744145
0.2782388341604374
-0.9722366562677848
-0.9014916738660963
0.8499099488190913
-0.8168948129795262
0.8367682514152703
0.648672422702385
0.134459990988553
-0.7831324136404536
-0.771513050683136
-0.1458908656535426
0.7244653860945884
-0.5785745202891447
0.02694584644576505
-0.01530823737762401
0.01854237830833734
-0.003234142076616053
-0.3551206889373651
-0.1258590048605493
0.8798003876816309
0.7403529814965618
-0.2428136399667142
-0.4975393400540489
0.6198025668101562
0.6852428183915906
-0.470575263042388
-0.0008086103087175996
-0.2849518246026235
0.02565924534899554
0.7443244313642818
-0.769983677158337
-0.3235642353902532
-0.07188609818290242
0.07548045468145428
-0.9603530383017594
0.1257030399250268
-0.6776263449346799
0.05202668495856171
0.6413124388342312
-0.6933391236841525
-0.7569391669670381
0.07931282198800507
0.5884441210501504
-0.6603302193577615
0.1562781572388215
-0.3362449198077868
-0.7711563998599738
-0.0003566509356030714
0.3712542166329721
0.6015517246132249
-0.02623129461585069
0.02427407089394716
-0.02427407054458932
-0.01784735315163298
-0.05190737368999668
-0.2252280339376308
0.01996623390276728
-0.01713715172189716
-0.7339581004491619
0.27935161395014
0.6795492634432151
-0.6902418198534654
0.01069255621902745
-0.5979951985924946
0.650021888385511
0.6531417563410885
-0.06469764016990899
-0.6317751039213435
-0.125164057524513
-1.049844938745073
0.01116060706169259
0.1361745231046686
-0.7082988562492943
-0.7415489910293961
-0.7632798754904259
0.3653490631642756
-0.4129387991860648
0.4697663773737526
-0.05682758056180104
-0.6769243871899764
-0.03137446911968793
0.5008751075852486
0.7306786992444411
-0.2329857677277873
0.1103539599222857
0.9607096882811403
0.4457381019398497
0.1341991560901084
-0.5799372578818901
-0.6784861868080562
0.001561797261755689
-0.04441829691455298
0.02911006429467173
0.637162216346569
-0.7747117001388554
-0.002558157984249404
0.002558157060262614
-0.6005017401134657
0.6482914021047419
-0.04778966151415138
-0.6511847850883937
-0.1133318582670765
-0.6716920062468233
0.05000322308099363
0.6073032888399787
-0.1371870122679386
-0.8175828742991565
-0.5550922246691111
0.5670999176732804
-0.01200769090450201
0.6343998160418047
-0.6237072542887068
0.3222268380735273
0.2141705312553212
-0.5363973693644534
-0.1043867775404314
-0.6026707026565438
-0.0906684196085112
-0.1547636411579815
-0.5050890033644233
0.4042006158248371
-0.4987100470709026
0.1264203103224106
0.678367532115054
-0.8047878426642631
0.5991958160768224
-0.3719420939706347
-0.04099670390075294
0.0714747907622027
-0.5765637838316526
0.5518608239367755
-0.04038833014526638
-0.5114724937311408
-0.3121725710775602
0.3047294382417128
0.00744313250670332
0.4530618141808784
0.1225058535782599
0.05047105039167617
-0.3157355340067702
0.156631831968525
0.1591037019236205
0.2419311406936902
-0.01556032195540834
-0.296329240796284
-0.3134059227486325
0.3671283853345716
-0.05372246247980775
0.7898481501878952
-0.628447549847199
-0.02273723436714945
0.4994437491504112
0.281152246715208
-0.5239658936467571
0.5774827144641735
-0.5774827144685167
-0.2897650590459513
-0.5864833705678886
-0.2955349874903269
-0.5864833706154053
-0.5955250629132852
-0.8385053350911197
0.1700547600126152
-0.5848450887432249
0.8211910486063647
-0.003608478669093587
0.1196509108944241
0.4819008131046409
0.09668312887986398
0.1852577558915919
-0.03619574805549728
-0.1490620108196507
-0.01774515962574771
0.593925617848857
-0.9456962208972018
0.4273784204690323
-0.0001923135252661643
0.00130226527521121
-0.001109956136901348
-0.6432721635348344
-0.1317969611343899
-0.4659920055780633
0.6001911615664918
-0.5037807998030254
-0.3194717608238661
-0.2570920462948107
-0.2716152587752553
-0.1120617300194917
0.1120617306037932
0.1527371922449748
0.05815868439174931
0.1964183602836116
0.4542060708557012
-0.5727127185642704
0.1067207168890122
0.2450989684343867
0.4661441345335426
0.5338558643487954
0.6422810010908313
0.0821544669590029
-0.0003516683502402754
-0.08180280581731945
-0.2768311041267407
-0.5407517698703542
-0.5481349734034863
0.1140547223447997
-0.1260358839775855
0.01198116109382354
-0.1059824137525804
-0.3861025677707312
-0.04428580446926104
0.6515890662811816
-0.4987811263612264
-0.144491037283321
-0.3374525602533646
0.2912636762696705
0.1232130595636002
-0.6035380319803754
-0.2039318814238205
-0.2616332420298711
0.001051081414164849
-0.4218723773223393
0.3220103606010994
0.09986201574966641
-0.09084810697415913
0.2916085710855804
-0.8959215489854689
-0.4580611433444645
0.6338439057341199
-0.7729051836022806
0.6685184060178238
0.3427050008615221
-0.1262512696173312
0.2257890318690746
-0.0995377610006772
0.02631463408300564
-0.5862375218004178
0.02931587628640385
0.5569216460141979
-0.9007334510806689
0.546783742192876
-0.6654596007629099
-0.09578626942237047
0.1090865292564972
-0.1090865247448655
-0.3165441463652236
0.3640812698945601
0.01477240985303357
0.02624207257520867
0.05591238865152535
0.5050229732080612
0.6623333840395553
-0.7409819829906957
0.02799512845014394
0.02341900561024237
0.0008550770416050045
-0.006743407419506639
0.006743407188701712
-0.4153530272898659
0.5378588788156029
0.01518119227161403
-0.01518119250163644
-0.7922555152413434
-0.06016243911252317
0.1217875866558408
-0.4532035535971397
0.5599242687137541
0.4501004223356031
-0.4978900883349591
0.1497411587929429
-0.1497411584740481
0.03942518348533933
-0.003723436857571664
-0.04113862960746383
-0.9772819016476086
0.541821426911282
-0.4721806014006468
0.04126262576397949
0.5144469025943936
0.03100035292759991
-0.5454472550372819
-0.6158581076744133
0.1170769783138618
-0.3298164067884101
0.01345565591627773
0.3163607512759401
-0.1537882718040482
-0.07919749533263688
-0.5407383883526931
-0.04549914349056722
0.1361745237839582
-0.04125023513361211
0.0386920830670491
0.08173879404974303
-0.08173880049716545
-0.5388613736378801
0.4851389238188804
-0.4143589312332818
0.1613356297033841
0.6221686099904162
-0.09803644622287952
-0.005731729718080608
0.005731731584984213
0.5329795691064741
-0.07291182746572035
0.006198757108600162
0.02708799424171431
0.03451921504952699
0.6869978205213938
-0.7599096476135894
-0.6601585334197628
0.6374212923937177
-0.108099370011964
0.3127538898862848
0.7461592760974738
-0.01784735503185595
-0.2671095968640294
0.148499405668238
-0.7446776779726786
0.4843628890921006
-0.4224767507587491
-0.1014112201738784
0.003612082236847957
-0.01456067422135295
0.01961454625774415
0.4118714605563681
-0.1216887762178619
-0.3897837169198007
0.6289448517276512
0.01900289731987673
0.01043020711210697
-0.01043020767477166
-0.3571696967330465
-0.08465531552676286
-0.560659684884134
0.5570512066526833
-0.2383947325309899
0.4648141788759372
-0.1509247632222974
0.7284420157878029
0.6732384455168989
-0.04125023463738309
-0.6151101545041368
0.5610266564087355
0.2881881206831008
-0.286167303854755
-0.002020818996089443
0.5465731784154737
0.09338972626876529
-0.03885580622355522
0.1971529111906585
-0.1582971060234792
0.1205946047366777
-0.1205946088750716
-0.858761159208979
0.002406029982602026
-0.1129951731631666
0.1400831693979954
-0.1320560343138345
0.1320560347778746
0.02341899711965353
-0.02357907198669715
0.6711231250009351
0.0587181794852386
-0.3232116290561822
-0.06289094026996976
-0.4712441471471231
-0.04926443693735585
-0.1518126985840753
0.1518126985520666
-0.04237763823747549
0.1431676335478252
-0.1431676339222135
0.136878405213016
-0.1368784073883537
-0.3155814316143445
-0.114561811819868
0.2266869067676704
0.1030174977889426
0.03486594722182715
-0.8211212320190625
-0.1973494490625124
0.1703832863052825
0.02060282733492424
-0.2655942411538496
0.1256883565356479
-0.1256883568930427
-0.4140367076728744
-0.08467334126586396
0.2366492874193699
0.002147562303409269
0.04048856349176502
-0.5432532513293976
0.5777840800312278
-0.02368346966728523
-0.01869417590732748
-0.02853388335475304
0.02481044439422359
0.006573536091674816
-0.1841622567194476
0.1775887201683193
-0.1078704474457382
-0.2283744749210903
-0.1448966149127396
0.1448966152446472
0.07299758439184134
-0.07299758396902693
-0.01949947705349174
-0.1087087388313317
0.1282082163291516
0.2417661049320525
-0.1827048127102598
-0.02476097904537702
0.02561606585729198
-0.1382594235377938
0.6233983512287533
-0.03906413564802342
0.4216648301184477
-0.04179495520985772
0.06157882060338724
-0.1536145344133248
0.1536145336931085
-0.6361437395192601
0.309040849751853
-0.07930482563953388
-0.2348058427040972
0.003585668279332725
-0.1225084717240686
0.1629970334494693
0.1944259383451076
0.09768427266450333
0.09518590286001828
-0.06066668663690961
0.072505219956365
0.04154950632641027
0.06382210677733491
0.1065611743340974
-0.09579669708708477
0.2061506551733333
0.01298834975214467
-0.1129338644006554
-0.1021513612221425
0.09799444713077278
0.004156913961259005
0.01298879730929695
-0.0227920503232496
0.03788478294703154
-0.03788478284076599
0.07464443875298148
-0.05472276274509717
0.05472276247526769
-0.2245787627550571
-0.05135504424489697
0.0114743720217966
-0.1031294967284895
0.01628380127415167
0.1082534349670381
-0.1082534350747971
0.2942879492085052
-0.2716207413503607
0.1637502951188192
-0.05054718341771183
-0.2210735605970069
-0.01760249032861816
0.01760249028804056
0.3672628779561871
0.2852746695154471
-0.5273502901654351
-0.09399919016311487
-0.03203669044175916
0.5285985145371541
0.2132322399077846
-0.1694253245354153
-0.3817023841661847
0.07651337066027528
-0.1478991837907956
0.1874663791387948
-0.03956719517069465
-0.06670392907496603
0.0667039287792966
0.822672646737043
-0.5606632836321379
-0.003088717379432798
0.01607751051739235
-0.01999431310396618
-0.2865674728858345
-0.01747928034154329
-0.01284057216688494
-0.1317212589309637
-0.5719864855151249
0.5559174850006021
-0.5691225724427545
-0.00691609157255845
0.1023010666192585
-0.001801829951258858
0.01673611910317736
-0.1678934967556514
-0.3367067737330312
0.2335772768653818
-0.05461228117630986
0.03511280519296628
0.131730290960621
0.1729991470758633
0.3360594777174519
0.2768558770976344
-0.2786577070593864
-0.06345927432006147
-0.1548371856044547
-0.2213501838254349
0.07489458144760842
-0.01107247459499991
0.2142871764096987
-0.1975510567944515
-0.08626409032965417
0.1587693100656238
-0.3549520438924038
0.2088442871005618
-0.1925604852546083
0.08963435678980361
-0.4794180785904787
0.1746258119805723
0.1697692137505431
-0.2560333058031
0.07239385109586562
-0.1941984104103237
0.1767191294933259
0.01743492328246485
0.1413343856548142
-0.03954158187139101
0.06632518256017469
0.4666543858312564
0.02028229781419795
-0.07559081569136253
0.056363708792568
0.1255224992002124
-0.2609173762565918
-0.2308877808058155
0.5597045631389402
0.1578998755661439
0.07874941206469691
0.07584250707280049
-0.03093273527614404
-0.007418515400703372
0.005397684906737203
-0.03278368444391545
0.1712953947872236
-0.1782114859329735
-0.05597626603745324
0.02252732830270037
-0.1466559818176842
-0.05286402748728889
0.1501743881683207
0.2770954339349223
-0.03899738246532772
0.01739192682186756
-0.2556973412404017
-0.1305525347072156
0.2355688402980692
0.1792724143678013
0.1297684319427511
0.02172669142265654
0.08914408314172945
0.05203448177329042
0.45298849132953
0.01714526141049931
0.09692960695176246
0.04385616570377745
0.07157828017716862
-0.1154344466546291
-0.242075621570975
-0.2009990993744634
-0.02007446073596864
-0.2023226475077531
0.2757718064661545
)
;

boundaryField
{
    FrontBack
    {
        type            empty;
    }
    Top
    {
        type            calculated;
        value           uniform 0;
    }
    In
    {
        type            calculated;
        value           uniform -1;
    }
    Bottom
    {
        type            calculated;
        value           uniform 0;
    }
    Out
    {
        type            calculated;
        value           nonuniform List<scalar> 10(1.035558690364327 1.064469080231228 1.021404883114485 1.019270036603428 0.9972003532524938 1.01501278499649 1.035125061026038 1.062692138552392 0.8672477686483222 0.8820183580969696);
    }
    circle
    {
        type            calculated;
        value           uniform 0;
    }
}


// ************************************************************************* //
