/*--------------------------------*- C++ -*----------------------------------*\
| =========                 |                                                 |
| \\      /  F ield         | OpenFOAM: The Open Source CFD Toolbox           |
|  \\    /   O peration     | Version:  2412                                  |
|   \\  /    A nd           | Website:  www.openfoam.com                      |
|    \\/     M anipulation  |                                                 |
\*---------------------------------------------------------------------------*/
FoamFile
{
    version     2.0;
    format      ascii;
    arch        "LSB;label=32;scalar=64";
    class       volScalarField;
    location    "2";
    object      p;
}
// * * * * * * * * * * * * * * * * * * * * * * * * * * * * * * * * * * * * * //

dimensions      [0 2 -2 0 0 0 0];

internalField   nonuniform List<scalar> 
808
(
0.128633
0.0481476
0.0338804
0.116787
-0.279742
0.0540927
0.0625824
0.0396225
-0.127659
0.0168467
0.0572527
-0.16242
0.0334076
0.037251
-0.198352
0.0399747
-0.20296
0.0402165
0.0361502
0.0463958
0.0579042
0.348096
0.106965
0.0206063
0.416239
-0.0389811
-0.0568714
0.010287
0.0204597
0.0370215
0.0297206
0.0530518
0.0345436
0.00575089
-0.02019
0.58106
0.0554227
0.0350088
0.0637542
0.0151254
0.00968621
-0.0501149
0.0618066
0.0622399
0.0552072
0.125263
0.0297936
0.00273441
0.0624906
-0.172566
0.0634236
0.0388641
0.0687461
0.0107386
-0.106675
0.0622195
0.0156473
0.0611377
0.000702938
0.0558818
0.117488
0.00277389
0.0568091
-0.102745
0.0667456
0.0600233
-0.2438
0.0163245
0.0552559
-0.350276
0.0484327
-0.399197
0.0555282
0.0386419
0.131201
0.064708
0.054479
-0.128698
0.0642812
0.2666
-0.0214247
0.0412636
0.0253757
0.244273
0.0648367
0.05832
-0.454848
-0.14402
0.0851424
-0.0863561
0.0417235
-0.0832396
0.238179
0.173001
0.0720855
-0.142318
0.0218212
0.0492745
-0.0706323
-0.157049
0.0580937
0.037841
0.0765593
0.0638966
0.0308697
0.06334
0.0573407
0.00878217
0.0680138
0.00586034
0.0401524
0.296956
0.0694169
0.0491099
0.0251173
0.412637
0.0690307
-0.324495
0.047151
0.0835305
0.15673
0.0870822
0.0855745
0.0701921
0.127716
-0.0843294
0.122431
0.054381
0.0512088
0.0801444
-0.273659
0.0510829
0.0153324
0.118557
0.0396424
0.0618196
0.0553642
0.00167221
0.0880456
0.0503766
-0.47485
0.0690665
0.0464085
0.0559195
-0.033864
0.0605426
0.126631
0.160119
0.0764468
0.00606976
0.0637003
0.297318
0.0823705
0.492975
-0.407413
-0.0595344
0.0555281
-0.016174
0.0567636
-0.0468517
-0.400634
-0.459355
-0.341929
0.0688446
0.0628495
0.0325706
0.0563135
-0.36738
0.05402
0.0487061
0.0683645
0.159156
0.064032
0.0744817
0.0474235
0.0762421
0.102329
-0.140413
0.0552598
-0.448385
0.0498463
-0.157607
0.0728604
0.216065
-0.0863834
0.123279
0.0768537
-0.0476745
0.0481847
-0.0230386
-0.359535
0.0103543
0.0434462
0.10715
0.0615004
-0.439802
0.0491228
0.0454112
0.0128669
0.0896503
0.0630661
0.0369022
0.0235091
-0.424614
0.345533
-0.380263
-0.390816
0.0161301
0.0246149
0.0691898
0.00168331
-0.5171
-0.180706
0.0494751
-0.0107695
0.0328811
-0.413869
-0.091284
0.00246906
0.0459391
-0.00287472
-0.143705
0.031128
0.03252
0.00815418
0.0295262
0.144056
-0.0936728
0.0514981
0.0382373
0.139418
0.0386728
0.0405307
0.0335678
0.0256329
0.0125267
0.00581474
-0.00250786
0.00163241
0.0351732
-0.0155646
-0.000913879
0.0105804
0.0108582
0.00953705
0.00237904
0.00627753
-0.0120392
0.00113717
0.0617411
-0.402784
0.0141399
0.000718785
0.0395426
0.000935114
0.0692898
0.030036
0.00385879
0.0423715
0.134805
0.0494532
-0.00708374
0.0221679
0.0725897
0.0423909
0.0157362
0.0083528
0.0600267
0.0123198
0.0348067
0.0368545
-0.514739
0.268134
0.017378
0.0743456
0.0334824
0.025226
0.0173772
-0.0615309
0.229227
0.0356754
0.0397537
0.0233237
0.129112
0.0721918
0.0317722
0.0542627
0.068279
0.0303124
0.0490237
0.037916
0.046565
0.0351385
0.0321113
0.0399986
0.0406203
0.0382092
0.0866793
0.0392047
0.0327883
0.0131788
0.0245627
0.0318412
0.0131096
-0.631204
-0.0144675
0.0349436
0.0751014
-0.149401
-0.0286291
0.043756
0.0347691
-0.401997
0.121343
0.119752
0.0688637
0.0446005
0.0444418
0.0104005
-0.279013
0.0487629
-0.00620706
0.0434925
0.0355756
0.0363525
0.057334
0.0391853
0.0652703
0.027877
-0.338684
0.0823671
0.0569904
0.0730726
0.0697404
0.061927
0.229865
0.0393441
-0.109225
0.504171
0.056642
0.000957644
0.0389994
0.0703686
-0.0279668
0.0322971
0.0515905
0.0717065
0.051239
0.055093
-0.314065
0.046684
0.104878
0.0480034
-0.331416
-0.38956
-0.205106
-0.422635
0.0509281
0.0559847
0.062041
0.071827
0.0611971
0.0247114
0.04841
-0.0171034
-0.622327
0.0551288
0.0557376
0.0417658
0.0893378
0.0589312
0.00779671
0.110308
-0.449439
0.0536585
0.0653316
0.0409954
0.0608726
-0.345834
0.0553438
-0.453935
0.068925
0.0682877
0.0432006
0.063443
0.0533393
0.0919334
-0.44065
0.0680934
0.0658981
0.102512
0.0641687
0.0579597
0.0541764
0.0624169
0.0638598
0.0952462
0.0400384
0.0549517
0.0193042
0.0706368
0.129112
0.0340047
-0.0682675
0.0615978
0.0639361
0.380302
0.113828
0.00693838
0.108091
0.063886
0.0378315
0.0723485
0.0718078
0.0291748
0.0696652
0.0350416
0.0612018
0.00792102
0.000349334
0.00192219
0.0275387
0.0407969
0.113495
0.0782878
0.0236472
0.0076556
-0.00878499
0.0553649
0.0793251
-0.472239
0.0898572
0.0616943
0.00754929
0.137898
0.0463382
0.059973
-0.10229
0.0746531
0.0590064
0.121552
-0.223718
0.207476
-0.410588
-0.565939
0.127179
0.0949231
0.0687072
0.0342128
0.319505
0.0712244
-0.350127
0.0647848
0.0665922
0.513279
0.00492212
0.0166585
0.0331842
0.0803234
0.0596275
0.154816
-0.357984
0.0608769
0.13392
0.0670527
-0.331855
-0.393254
-0.20361
0.0560705
0.0668119
0.108776
0.0456708
0.0727772
0.110768
0.0836047
0.0616597
-0.0427162
-0.467144
0.063496
0.062521
0.0566685
0.0255709
0.0543702
0.00743786
0.0153383
-0.588895
0.40517
-0.0168837
-0.361952
0.0506672
0.0219037
-0.356775
-0.351817
0.0999184
-0.428214
0.0720533
0.827048
0.0683221
-0.454559
0.0651661
0.077728
0.0620522
-0.572323
-0.250494
-0.375568
0.0018853
0.0656441
-0.463709
0.0408509
0.0537853
0.0627751
-0.444925
0.0500448
-0.623287
-0.473897
-0.555695
0.102336
0.00761864
0.0585794
0.119557
0.093952
0.059974
-0.320817
0.259237
0.0662181
0.00647948
-0.556624
-0.618445
-0.430179
0.0618498
-0.445973
0.0660002
0.0734223
0.0728373
0.0248747
-0.260885
0.00828773
-0.358661
-0.422795
-0.00958406
0.0581084
0.118629
0.0509632
0.0562238
-0.484768
-0.394384
-0.005815
0.0801468
0.0557896
-0.419709
-0.429789
-0.0156273
0.0952181
0.0602779
0.0925073
-0.00547163
-0.102671
-0.446364
0.0980991
0.0592715
0.085931
0.0526519
0.0566624
-0.486192
0.0251469
-0.291259
0.051248
0.0554085
0.0669683
0.00982944
-0.538324
-0.632265
0.00710093
-0.587789
-0.58238
0.0439055
-0.12392
-0.378639
0.011372
-0.332193
0.0476528
0.0632754
0.0807858
0.0905935
0.062663
0.0652099
-0.575886
0.0195313
-0.279121
0.0585643
-0.422119
-0.675676
0.0771224
0.244646
0.408037
0.0258288
0.0050701
0.0232157
-0.448511
0.60884
0.0738377
-0.216844
0.0461173
-0.167233
0.0900007
0.455819
-0.540887
0.0469285
0.0189868
0.0475413
0.0404896
-0.629617
-0.315448
-0.167926
-0.162499
-0.370459
0.0626384
-0.466284
0.0639961
-0.333502
-0.401694
0.510809
0.574968
-0.272298
0.0545189
-0.376019
0.0277665
0.0828958
0.399272
0.0844547
-0.42602
0.0816405
-0.659001
0.0172877
-0.265377
-0.0679656
-0.458658
-0.363438
0.00863971
0.00618385
-0.403806
0.383008
0.647645
-0.457052
-0.446889
-0.467301
0.0246101
-0.454581
-0.408724
-0.101825
-0.410776
0.754823
-0.485617
0.692382
-0.520907
0.283639
-0.420543
0.0353153
0.141608
-0.665619
0.137422
-0.298123
-0.418
-0.45227
0.855063
-0.363067
0.166923
0.123057
0.59569
0.0798363
-0.19521
-0.437828
0.0175289
0.0189339
0.0452181
0.452189
0.0172883
0.0171093
-0.41728
0.0877223
-0.160917
0.0829905
0.04179
-0.0920202
-0.259165
-0.218431
-0.485921
0.0556068
0.0840466
0.062016
0.0956443
0.10478
-0.475233
-0.452739
0.0747398
0.0302964
-0.593405
-0.664299
0.146531
0.163471
0.057821
0.662225
-0.135267
0.0640251
-0.481871
-0.424566
-0.0994053
0.0425147
0.742207
-0.589396
0.313037
0.0598224
-0.599377
0.137031
-0.128544
0.325387
-0.142127
0.0575329
-0.423352
-0.167108
0.119496
0.770399
0.297942
0.749157
-0.243192
-0.44525
-0.533756
0.133914
0.226123
0.110124
0.356652
0.0491473
0.456809
0.250237
0.0751801
-0.263449
0.00441224
0.0523669
0.85747
0.377414
0.649675
0.470249
-0.339886
-0.390624
-0.406579
-0.362039
0.0830401
-0.512157
0.0277005
0.573877
-0.422895
0.00439714
-0.347674
0.155752
-0.461205
-0.527611
-0.00174131
-0.445031
-0.0391993
-0.0885843
-0.427409
0.00183221
-0.542394
-0.220253
0.0650519
0.128012
0.599875
-0.260289
-0.4324
0.819255
-0.420989
0.22706
-0.304094
0.31376
0.115117
-0.329829
-0.539163
0.431728
-0.368198
-0.416767
0.128451
-0.352713
0.0566658
-0.438807
-0.178958
0.0415533
0.522043
0.746166
-0.437384
0.197799
0.142817
0.796112
0.059308
-0.405763
0.0548974
0.721702
0.180155
-0.420515
-0.434025
0.405932
-0.263258
0.00794816
0.329442
0.232539
0.249824
-0.308502
-0.304998
0.656317
)
;

boundaryField
{
    FrontBack
    {
        type            empty;
    }
    Top
    {
        type            zeroGradient;
    }
    In
    {
        type            zeroGradient;
    }
    Bottom
    {
        type            zeroGradient;
    }
    Out
    {
        type            fixedValue;
        value           uniform 0;
    }
    circle
    {
        type            zeroGradient;
    }
}


// ************************************************************************* //
