/*--------------------------------*- C++ -*----------------------------------*\
| =========                 |                                                 |
| \\      /  F ield         | OpenFOAM: The Open Source CFD Toolbox           |
|  \\    /   O peration     | Version:  2412                                  |
|   \\  /    A nd           | Website:  www.openfoam.com                      |
|    \\/     M anipulation  |                                                 |
\*---------------------------------------------------------------------------*/
FoamFile
{
    version     2.0;
    format      ascii;
    arch        "LSB;label=32;scalar=64";
    class       surfaceScalarField;
    location    "2";
    object      phi;
}
// * * * * * * * * * * * * * * * * * * * * * * * * * * * * * * * * * * * * * //

dimensions      [0 3 -1 0 0 0 0];

oriented        oriented;

internalField   nonuniform List<scalar> 
1171
(
-0.911765
0.911765
0.871243
-1.13439
0.263149
-0.202873
-0.684244
0.887117
0.0882352
-0.0994043
-0.257043
0.356447
-0.871243
0.0573472
0.813896
0.815684
-0.153119
-0.662565
0.817309
-0.981166
0.163857
-0.315101
-0.0951292
0.41023
-0.0488838
0.578598
-0.529714
-0.498269
0.824624
-0.326355
-0.414505
0.989336
-0.172028
0.42029
0.00832922
-0.42862
0.981906
0.00743056
0.400942
0.0193483
0.98706
-0.00515455
0.586857
-0.78973
-0.739868
0.577239
0.162629
0.205496
-0.703765
0.566034
-0.91514
0.349106
-1.04165
0.664688
0.376967
-0.634122
0.585238
0.0224042
-0.253004
0.2306
-0.0530671
-0.548196
0.601263
0.426258
-0.521387
-0.857565
0.881588
-0.0240224
0.998122
-0.0110617
0.891766
-1.08794
0.196172
1.00492
-0.00679935
-0.681955
-0.0579129
1.17378
-0.805435
-0.368348
0.147356
-0.11726
-0.359298
0.476558
-0.270834
0.181511
0.0893228
-0.633588
-0.500804
0.994978
-0.103212
0.0140218
0.791593
-0.805614
0.501016
0.672768
0.461338
-0.0496954
0.475953
-0.774885
-0.0952153
0.870101
0.503562
0.246932
-0.750494
-0.0422724
0.549514
-0.507241
-0.479325
-0.56233
-0.392288
-0.69565
-0.00697719
0.257109
-0.250132
-0.890053
-0.0135639
0.903617
0.343611
0.0666194
0.769957
0.0457276
-0.543835
-0.0902874
0.0394737
-0.814359
0.0892012
0.860512
-0.949713
-0.383774
-0.00703674
0.390811
-0.655167
-0.234886
-0.630382
0.719583
0.602459
0.222166
-0.57941
0.899457
-0.749507
-0.149951
0.129016
0.0243165
-0.153332
-0.415157
-0.10623
-0.241295
0.843753
0.0777439
0.350412
-0.428156
-0.465713
0.969276
0.741637
-0.836853
0.344745
0.00150915
-0.346254
1.04943
-1.04943
-0.792068
0.0662465
-0.323289
-0.793921
0.807943
-0.0717541
-0.15305
0.224804
0.83777
-0.0461776
1.00706
-0.760129
0.219665
-0.312581
0.0929162
0.848403
-0.0784465
-0.630911
-0.0321889
0.6631
0.143933
-0.235567
0.0916335
0.758349
-0.911468
-0.451297
0.32559
0.125707
0.546733
-0.599801
1.056
-0.42918
-0.626822
0.663714
-0.674203
0.0435971
0.630606
0.0979091
0.58926
0.0630696
-0.65233
0.162138
-0.0958917
-0.513256
0.129482
0.00978087
-0.871523
0.861742
-0.539867
-0.724775
0.0428191
0.485713
-0.00975994
0.234082
-0.818474
0.584392
0.415277
0.584723
0.551292
-0.511818
-0.422489
0.11669
0.305798
0.802565
0.246863
-0.590985
0.548712
0.126415
0.815696
0.0199
-0.650811
-0.788573
0.798354
0.557071
0.0645814
0.313078
-0.37766
-0.149672
0.422725
0.126789
0.908074
-0.840313
-0.0677608
0.605735
0.293722
-0.422134
0.588141
-0.523559
0.428892
0.137142
-0.0494319
-0.579831
-0.140029
0.719859
-0.189543
-0.859885
-0.596794
0.35389
0.242904
0.607578
-0.587678
0.284693
0.961022
0.0460389
-0.788573
0.335549
-0.206533
0.741637
0.856917
-0.856917
0.828704
-0.888467
0.0597632
-0.451146
0.866423
-0.183739
-0.329517
0.798232
-0.656116
-0.142117
-0.707103
0.127273
0.166254
-0.710089
0.836853
-0.986524
-0.333299
0.214728
0.118571
0.152376
-0.960965
0.80859
0.498963
-0.0376253
-0.298941
0.622226
-0.323285
-0.837055
0.989431
-0.141929
0.640033
-0.75057
0.110537
0.945126
-0.553481
-0.391646
0.807485
-0.0735724
-0.0276239
0.0651184
-0.0374944
-0.815062
-0.749017
0.0647732
-0.793921
0.551411
-0.558448
0.0968271
0.636015
-0.732842
0.72881
0.182955
0.502616
0.497384
-0.0625314
-0.544995
0.607526
0.916979
-0.00890502
-0.807485
0.798354
0.182303
-0.435307
-0.0458798
0.0176591
0.0282207
0.641638
-0.457907
-0.183731
0.813896
0.0940221
-0.108984
0.47273
0.168907
-0.0385706
0.00264682
0.0359238
-0.00199962
-0.0256243
0.268554
-0.267045
-0.998846
5.64953e-05
-0.200492
-0.0647446
0.0980027
0.727981
0.766248
-0.181526
0.733684
-0.636857
-0.145532
0.365197
0.791016
0.0228793
0.223991
-1.11246
-0.986524
0.333851
0.807943
-0.186436
0.0333863
-0.728038
0.92278
-0.194742
0.463157
-0.0723458
0.78817
0.325797
0.262882
0.13806
-0.685326
0.685326
0.202373
0.667728
-0.0786097
0.429022
0.397949
-0.0341277
-0.0117521
0.46049
0.0384735
-0.837055
0.591071
0.207162
0.151131
-0.086013
-0.791016
0.172576
0.750203
-0.00619073
-0.759581
0.765772
0.774174
-0.854406
0.0802317
-0.72881
-0.0746044
0.0994761
-0.0248716
0.0848595
-0.176595
-0.11285
0.289445
-0.0243839
-0.0141867
0.676055
-0.682246
0.823957
0.0631606
-0.313085
-0.481065
0.794149
0.0020501
-0.0020501
0.331418
0.463321
0.604649
-1.06797
-0.181121
-0.558037
0.739157
-0.00533459
0.230138
0.38986
-0.245927
0.971523
-0.508202
0.649011
1.00926
-0.404608
0.206121
0.989431
0.817403
0.209166
0.672422
-0.859885
0.314674
-0.15652
0.23562
-0.0790992
0.795432
-0.00943741
-0.785994
-0.812248
0.805449
0.548854
-0.812248
-0.817403
0.805449
-0.0442513
0.83144
-0.00748317
-0.802565
0.719502
0.0830628
0.517561
0.552117
-1.06968
0.463901
0.507621
0.56044
0.445091
-1.00553
0.497487
0.51177
0.719502
-0.500577
-0.439111
-0.569972
-0.506403
-0.114555
-0.0171438
0.0171438
0.506016
0.508391
-1.01479
0.560354
-0.247276
-0.922395
0.368914
-0.637065
0.402179
0.0173157
-0.823239
0.805923
0.467307
-0.0171659
0.812598
-0.943467
-0.877389
0.0648067
0.812582
0.642627
-0.525609
-0.117018
0.624336
-0.727548
0.866461
-0.824964
-0.0414968
-0.0121936
-0.82812
-0.117777
0.712122
-0.594345
-0.85036
0.838166
-0.789858
0.748213
0.041646
-0.834759
0.0217432
0.813016
0.00885834
-0.00680824
0.371224
0.0770054
-0.879362
0.802357
-0.627604
0.565072
0.925319
0.0552922
-0.980612
0.0479304
-0.0986812
0.40448
-0.350544
0.0379623
0.87018
-0.852864
-0.771598
-0.849388
0.0212682
-0.12227
-0.837778
0.0128135
0.679322
0.0543618
0.0304074
0.61222
-0.809248
0.830991
0.626822
-0.840405
-0.795068
0.036372
-0.0413872
0.834538
-0.79315
-0.0318545
-0.812986
0.578668
0.195506
-0.0252898
0.837887
0.902973
0.890424
-0.877611
0.0520915
-0.0520915
-0.12707
-0.572947
0.0473375
0.301741
0.0321101
0.356904
0.806033
-0.00372697
-0.0206569
0.633716
0.366284
0.828413
-0.633588
-0.737249
-0.802588
-0.781427
0.781427
-0.199905
-0.123385
0.597952
-0.813838
0.215886
-0.474997
-0.533446
0.274845
-0.970495
-0.836286
0.794789
-0.800738
0.822007
0.660517
0.121557
-0.782074
-0.760942
-0.14715
0.757634
-0.610483
0.0302527
-0.00503712
0.0140922
-0.00905512
-0.460594
-0.112353
0.872798
0.666185
-0.231664
-0.434521
0.549167
0.673097
-0.470724
-0.00314437
-0.267689
0.00701073
0.694447
-0.701458
-0.309978
-0.0788914
0.0935042
-0.916192
0.130198
-0.692281
0.0622661
0.657161
-0.719427
-0.777542
0.0852616
0.615967
-0.694858
0.208829
-0.385424
-0.760521
-0.000420729
0.387099
0.614221
-0.0260801
0.00873402
-0.00873402
-0.014497
0.026365
-0.182885
-0.0268723
0.0231454
-0.706159
0.279733
0.694159
-0.702889
0.00872943
-0.577534
0.6398
0.6845
-0.0685335
-0.641603
-0.13594
-1.04497
0.0189915
0.0331
-0.699149
-0.759379
-0.741678
0.37333
-0.295179
0.384968
-0.0897894
-0.654673
-0.0444755
0.512371
0.721951
-0.130107
0.0653621
0.916613
0.453441
0.142818
-0.596259
-0.657355
0.00268183
-0.0283626
0.0233255
0.6473
-0.787329
0.0100283
-0.0100283
-0.610401
0.650607
-0.0402059
-0.626947
-0.117342
-0.648319
0.0570544
0.550472
-0.079939
-0.795469
-0.521701
0.529974
-0.00827267
0.614528
-0.605798
0.343343
0.21742
-0.560763
-0.112079
-0.624359
-0.0950681
-0.156959
-0.464647
0.413155
-0.519386
0.136723
0.698535
-0.835257
0.663714
-0.347835
0.0526564
0.0813023
-0.545949
0.573467
-0.0578871
-0.515579
-0.281886
0.303166
-0.0212799
0.42093
0.139424
0.0601412
-0.301069
0.153267
0.147801
0.342187
-0.00663765
-0.285948
-0.423489
0.468866
-0.0453776
0.779208
-0.60871
-0.018238
0.527326
0.270016
-0.501681
0.674463
-0.674463
-0.277365
-0.680508
-0.272764
-0.680508
-0.607282
-0.863669
0.207553
-0.561372
0.747879
0.0150189
0.128722
0.485499
0.10805
0.132268
0.000558901
-0.132827
-0.0313979
0.597567
-0.899558
0.418493
-0.0817427
-0.00350089
0.0852436
-0.679017
-0.157396
-0.439085
0.581902
-0.502341
-0.292741
-0.253209
-0.314144
-0.0835003
0.0835003
0.0874471
0.0120289
0.15126
0.37833
-0.549652
0.110567
0.153877
0.488066
0.511934
0.625213
0.0699911
0.0117378
-0.081729
-0.274973
-0.520496
-0.495962
0.120685
-0.124559
0.00387369
-0.109813
-0.387404
-0.0476793
0.598151
-0.526416
-0.152601
-0.268424
0.117004
0.125514
-0.681332
-0.199346
-0.267307
0.000262205
-0.488254
0.370959
0.117295
-0.0892377
0.301199
-0.863529
-0.4897
0.566753
-0.796537
0.684458
0.33034
-0.0722952
0.117186
-0.0448904
0.0340021
-0.644739
0.0469077
0.597831
-0.929504
0.587126
-0.714196
-0.104769
0.0128342
-0.0128342
-0.304213
0.308963
0.0955164
0.0209716
0.0490195
0.530991
0.649477
-0.717238
0.0386307
0.0174262
-0.00869213
0.0093877
-0.0093877
-0.361001
0.500425
0.0195018
-0.0195018
-0.775778
-0.0155675
0.0244258
-0.410454
0.521021
0.437087
-0.477293
0.0736036
-0.0736036
0.0272555
-0.0390076
-0.0371687
-0.894068
0.502422
-0.45079
-0.00680824
0.552646
0.0314555
-0.584101
-0.646944
0.120528
-0.324851
-0.00666486
0.331515
-0.0877093
-0.0423974
-0.584084
-0.060655
0.0331
0.00695963
0.00306868
-0.0005315
0.0005315
-0.468301
0.422924
-0.433078
0.0984092
0.730004
-0.11076
0.00535822
-0.00535822
0.531663
-0.0691122
0.0107841
0.0202658
0.00257946
0.607327
-0.67644
-0.600755
0.582517
-0.141827
0.351312
0.720698
-0.014497
-0.187068
0.101055
-0.676518
0.51315
-0.375479
-0.0942979
-0.00541581
-0.0242978
-0.0151345
0.436422
-0.138276
-0.377303
0.638281
0.00775608
0.0160114
-0.0160114
-0.252319
-0.0899708
-0.564181
0.5792
-0.185145
0.48395
-0.14525
0.732106
0.682828
0.00695963
-0.614765
0.573844
0.16021
-0.212344
0.0521337
0.49328
0.100919
-0.017276
0.0956394
-0.0783634
0.0167445
-0.0167445
-0.810811
0.0215121
-0.0553681
0.0756339
-0.0919304
0.0919304
0.0174262
-0.00913874
0.689007
0.0611966
-0.301815
-0.0855887
-0.502927
-0.108214
-0.0763724
0.0763724
-0.0544734
0.0850614
-0.0850614
0.0369961
-0.0369961
-0.341151
-0.0809827
0.245931
0.079659
0.0450389
-0.773341
-0.0955065
0.162961
0.0193421
-0.279426
0.0853822
-0.0853822
-0.434426
-0.08496
0.235151
-0.00455117
0.00642813
-0.57433
0.618582
-0.0508686
-0.00360482
-0.0620681
0.0230605
-0.0114578
-0.161752
0.17321
-0.145838
-0.239586
-0.0891149
0.0891149
0.0545425
-0.0545425
-0.0239453
-0.0987979
0.122743
0.136352
-0.18897
-0.0295756
0.0208835
-0.12395
0.546874
-0.0289577
0.397071
0.0146245
0.0212993
-0.0624873
0.0624873
-0.667289
0.330802
-0.124681
-0.216379
-0.0191882
-0.0347169
0.041145
0.210269
0.0791756
0.00213364
0.000445819
0.0896902
0.0309948
0.0596123
0.103349
-0.0385904
0.103953
0.00598313
-0.015445
0.000676755
0.0282013
-0.0288781
0.00141471
0.0223806
0.0260575
-0.0260575
0.0609225
-0.0474229
0.0474229
-0.197276
0.00585425
0.0137299
-0.0789195
0.0202516
0.0822914
-0.0822914
0.327564
-0.27006
0.124223
-0.0693762
-0.200684
-0.011649
0.011649
0.416999
0.213606
-0.486684
-0.0821924
-0.0423664
0.515408
0.0742839
-0.107892
-0.389103
0.0713604
-0.154355
0.177122
-0.0227669
-0.0512966
0.0512966
0.792058
-0.573784
-0.0234798
0.0248946
-0.00843016
-0.280781
0.000320724
0.00281552
-0.0621202
-0.565022
0.587887
-0.590037
0.0127426
0.104609
0.0138851
0.0254911
-0.162785
-0.308105
0.229186
-0.0524303
0.028485
0.165715
0.137451
0.24869
0.27901
-0.265125
0.00374544
-0.115066
-0.223044
0.0668389
-0.00722659
0.17982
-0.154329
-0.0688708
0.158561
-0.372617
0.14774
-0.127488
0.0726291
-0.449932
0.179937
0.178249
-0.24712
0.0245143
-0.182711
0.183032
0.00309074
0.15547
-0.027921
0.0613092
0.470354
0.0144085
-0.0245036
0.00929313
0.0513361
-0.245811
-0.182399
0.572473
0.166152
0.0689994
0.086201
-0.0618947
-0.0159548
0.0680885
-0.0311508
0.173492
-0.160749
-0.0396381
-0.00259638
-0.111315
-0.027241
0.0643144
0.261107
-0.0587623
0.00710571
-0.311932
-0.0365432
0.216211
0.159274
0.171528
0.0523321
0.0937855
0.0476132
0.483378
-0.0228949
0.0993184
0.0383774
0.0702874
-0.108665
-0.273077
-0.211606
0.0109223
-0.188825
0.30101
)
;

boundaryField
{
    FrontBack
    {
        type            empty;
    }
    Top
    {
        type            calculated;
        value           uniform 0;
    }
    In
    {
        type            calculated;
        value           uniform -1;
    }
    Bottom
    {
        type            calculated;
        value           uniform 0;
    }
    Out
    {
        type            calculated;
        value           nonuniform List<scalar> 10(1.02434 1.01814 1.00908 1.00511 0.997208 1.01817 1.01441 1.00844 0.951828 0.953271);
    }
    circle
    {
        type            calculated;
        value           uniform 0;
    }
}


// ************************************************************************* //
