/*--------------------------------*- C++ -*----------------------------------*\
| =========                 |                                                 |
| \\      /  F ield         | OpenFOAM: The Open Source CFD Toolbox           |
|  \\    /   O peration     | Version:  2412                                  |
|   \\  /    A nd           | Website:  www.openfoam.com                      |
|    \\/     M anipulation  |                                                 |
\*---------------------------------------------------------------------------*/
FoamFile
{
    version     2.0;
    format      ascii;
    arch        "LSB;label=32;scalar=64";
    class       volVectorField;
    location    "2";
    object      U;
}
// * * * * * * * * * * * * * * * * * * * * * * * * * * * * * * * * * * * * * //

dimensions      [0 1 -1 0 0 0 0];

internalField   nonuniform List<vector> 
808
(
(0.850237 0.00655143 0)
(1.05454 -0.0118737 0)
(0.993058 0.016617 0)
(1.06311 0.033117 -2.44928e-21)
(1.44832 -0.14903 0)
(1.01475 0.013663 0)
(1.00715 -0.00810178 -1.35348e-20)
(1.01989 -0.017844 0)
(1.34968 -0.0830764 2.56233e-20)
(1.15788 0.0299485 2.39248e-21)
(1.00647 0.0101903 1.10178e-20)
(1.36174 -0.0996566 0)
(1.01994 -0.0102441 0)
(0.91887 -0.042173 0)
(1.22396 -0.266666 1.17906e-20)
(1.02113 0.00591464 0)
(1.10233 -0.318157 -3.25512e-21)
(0.991048 0.0267423 -1.8682e-22)
(1.0951 0.0118126 0)
(1.0167 -0.0312254 0)
(1.02455 -0.0347775 -1.53765e-20)
(0.94921 0.159512 9.95271e-20)
(1.00226 -0.0595153 -1.70333e-20)
(1.09447 0.0355608 0)
(0.983444 0.170786 0)
(1.23086 -0.206728 -1.11551e-20)
(1.26039 0.00286786 7.01006e-21)
(1.01413 0.038603 -3.7072e-21)
(1.01292 0.00376414 0)
(1.0811 -0.020601 5.00468e-22)
(0.998354 0.0371478 9.4153e-24)
(1.06664 0.0566874 0)
(0.998972 0.0282592 0)
(1.01844 -0.0108747 2.58271e-21)
(1.21876 0.057034 7.91055e-22)
(0.72272 -0.0811453 1.01856e-19)
(0.933691 -0.0170191 -2.3506e-20)
(1.0229 -0.0218913 1.63394e-21)
(1.02979 -0.00560404 -8.98764e-21)
(0.96956 0.0114667 0)
(1.1374 0.0132361 1.47783e-21)
(1.26622 0.0114954 0)
(1.03901 -0.0114039 -1.23138e-20)
(1.02697 -0.0433233 2.00804e-20)
(1.03727 -0.211308 0)
(0.982228 -0.00537348 -2.29836e-20)
(1.0046 -0.017794 3.09983e-21)
(1.19633 -0.149914 1.15292e-20)
(1.01643 -0.0052578 -1.93812e-20)
(1.38501 0.0187874 -3.70015e-20)
(1.01862 -0.0295729 2.32651e-20)
(1.09449 0.0532619 0)
(1.03981 0.0221415 1.09604e-20)
(1.02874 -0.00463581 0)
(1.28183 0.153555 5.74746e-21)
(1.04795 0.0523415 -8.29696e-21)
(0.988512 -0.00510588 0)
(1.02905 -0.0343274 5.49184e-21)
(1.15458 0.0660376 -2.56875e-21)
(0.992059 0.0360847 -3.6706e-21)
(0.546161 -0.0136397 0)
(1.19053 -0.0914858 -5.75874e-21)
(0.980289 0.00429663 0)
(1.31264 0.110972 -1.74851e-20)
(0.975072 0.0152075 -2.0195e-20)
(1.12092 0.0163768 -1.36985e-20)
(1.41137 0.152793 2.00282e-20)
(0.89183 -0.0148225 0)
(1.03273 -0.0252994 0)
(1.49453 -0.245409 0)
(1.04013 0.0145411 -5.24566e-22)
(1.41978 -0.000528472 -5.21302e-20)
(1.0215 -0.0194234 0)
(1.06698 -0.0010833 -6.87417e-21)
(1.09227 -0.331566 -4.44085e-20)
(1.02277 -0.00138025 -3.1568e-20)
(1.05137 0.0416261 -1.38227e-21)
(1.36756 0.452951 2.85349e-20)
(1.0359 -0.000276866 0)
(1.06225 0.262215 -1.5545e-19)
(1.1879 -0.0729109 2.73128e-21)
(0.86687 -0.00101006 0)
(1.04338 0.00238574 -7.92812e-21)
(0.94028 -0.125602 3.5704e-21)
(1.00714 -0.00520959 2.3374e-20)
(1.05726 0.0172286 -1.3843e-21)
(1.43016 -0.139538 0)
(1.36242 0.198452 0)
(1.09884 0.0546602 -3.5889e-20)
(1.29468 -0.194399 8.1298e-21)
(1.02429 0.0213814 1.64776e-20)
(1.29319 0.0215005 -1.23464e-21)
(0.917849 0.0918178 1.47094e-20)
(1.00475 -0.044706 0)
(1.03684 -0.0106556 2.52578e-21)
(1.29462 0.270469 -3.18227e-20)
(1.05958 -0.0148932 -4.08104e-21)
(1.08808 -0.0932833 0)
(1.28963 0.0273168 0)
(1.32717 0.220158 -3.69144e-20)
(1.01469 -0.028078 -1.10997e-20)
(1.04996 0.0275895 -3.49776e-22)
(0.972067 0.0417649 1.89979e-20)
(1.0594 0.0355638 1.62499e-21)
(1.08896 0.0752801 5.09159e-21)
(1.08335 0.057854 1.7099e-20)
(1.06698 -0.180557 0)
(1.01058 0.00908261 0)
(1.02133 0.00257568 1.96226e-20)
(1.16186 -0.142406 -4.62193e-21)
(1.08214 0.0529723 -7.32296e-21)
(1.0526 -0.00334424 -1.08627e-19)
(0.996596 0.0332205 -8.39395e-21)
(1.02554 0.0230189 6.90259e-21)
(1.04078 -0.0198491 0)
(0.909722 -0.0587976 6.91778e-20)
(1.02783 -0.0692612 -1.96278e-20)
(1.49905 -0.0931191 -2.02224e-20)
(0.990797 0.0239586 -1.19796e-20)
(0.94654 -0.0185855 -1.16449e-21)
(0.666246 0.101869 0)
(0.874748 -0.0578007 -1.65494e-21)
(0.913499 0.0561724 0)
(1.11145 -0.125461 -9.95147e-23)
(0.991856 0.033584 0)
(1.31214 0.259182 1.26814e-20)
(1.09838 -0.194152 -3.45146e-20)
(1.00171 0.0095531 2.23271e-21)
(1.10171 -0.0024705 0)
(1.09482 -0.0560854 0)
(1.16804 0.32987 0)
(1.00961 0.032694 -6.13429e-21)
(1.12023 0.0123334 -1.99473e-21)
(1.11193 0.114596 -2.81856e-20)
(1.01503 -0.0328216 0)
(1.04052 0.010021 -4.82362e-21)
(1.01858 0.0100322 2.85229e-21)
(1.04928 -0.0195096 -2.94498e-22)
(1.03216 0.0213348 1.33847e-20)
(1.08798 0.00815014 2.93188e-22)
(0.168046 0.0822548 0)
(1.08237 0.0118255 -1.82268e-20)
(1.01153 -0.0157238 2.10732e-21)
(0.850275 -0.0277396 -9.76973e-21)
(1.23039 0.0648305 -2.03897e-21)
(1.01598 0.014224 3.91894e-21)
(1.01745 0.0262738 2.37737e-20)
(1.0286 0.015988 0)
(1.01394 -0.0855564 1.51382e-20)
(1.02917 0.00750232 0)
(1.01105 0.0430099 2.16593e-20)
(1.0208 0.263639 1.24842e-19)
(0.957428 0.0102993 0)
(0.817747 0.110077 0)
(-0.175642 -0.0608639 -9.78491e-20)
(1.27986 -0.0129241 -1.08655e-20)
(0.889534 0.00490829 0)
(1.20011 -0.179909 0)
(0.988213 0.00397096 0)
(1.24618 -0.0449872 7.39418e-21)
(-0.120029 -0.271254 0)
(-0.0304649 0.190498 5.33885e-20)
(1.42015 0.208539 1.00438e-19)
(1.05969 -0.00166728 3.94977e-21)
(0.874162 0.0474004 0)
(1.05649 -0.0193584 1.7534e-20)
(0.95314 -0.064084 0)
(1.15843 0.225822 -1.08395e-19)
(1.03963 0.0253248 3.13756e-20)
(1.01212 -0.0275963 5.79255e-21)
(1.05283 -0.00448949 1.512e-20)
(1.08337 0.12707 -1.19957e-20)
(1.00098 0.0140791 -3.90093e-21)
(1.07851 -0.344915 2.8738e-22)
(1.00243 -0.0148636 0)
(1.115 0.0315929 -1.19417e-20)
(0.877151 0.031672 -1.50393e-20)
(1.36363 0.0066907 1.87434e-21)
(0.86698 0.0282529 0)
(1.27118 -0.055406 0)
(1.00508 0.00586613 5.97815e-21)
(1.39842 0.101809 9.87448e-21)
(1.04512 0.0483613 1.53356e-20)
(1.07089 0.0234769 1.55203e-20)
(1.11785 -0.368075 -1.35738e-20)
(0.860585 0.00195203 2.29674e-20)
(1.08429 0.0258069 1.65179e-20)
(1.23297 0.154732 -1.37115e-21)
(1.03329 0.00219109 -9.16979e-21)
(1.20062 0.0788793 1.17499e-21)
(-0.0719171 -0.164939 7.04032e-20)
(1.11333 0.0314694 0)
(0.881601 0.0258329 0)
(1.06583 -0.0850853 -8.43838e-21)
(1.12663 -0.0681984 2.26863e-20)
(0.549065 -0.104172 0)
(0.995416 -0.0296919 9.36901e-22)
(1.01382 -0.0266352 -4.68356e-21)
(1.00364 0.00642676 1.78591e-22)
(1.10521 0.0529826 -6.2882e-21)
(1.03116 -0.00212167 4.1544e-21)
(1.02244 -0.00421086 4.13139e-21)
(1.06276 -0.0320915 0)
(0.667429 0.0206178 0)
(1.01277 -0.0749699 0)
(1.34309 -0.0277531 -4.08997e-20)
(-0.145381 -0.224932 6.02015e-20)
(0.984865 -0.0109656 -2.2346e-23)
(1.0432 0.0146 0)
(0.875335 0.00597236 -2.38045e-20)
(1.06167 -0.0156286 -8.75536e-22)
(0.0249013 -0.0451809 -2.0427e-19)
(1.14375 0.387124 -2.60012e-20)
(0.88325 0.0198547 0)
(1.04519 0.0191935 0)
(1.01982 0.0181529 1.37366e-20)
(1.28938 0.00988639 7.82185e-21)
(1.32251 0.356141 8.79613e-21)
(1.01544 -0.00486727 -2.3211e-23)
(0.998232 0.0067062 -4.3227e-21)
(1.04333 0.0176372 0)
(1.41732 0.372558 -5.98823e-20)
(0.890266 0.0273812 0)
(1.01637 -0.00717816 -5.62442e-21)
(1.01188 -0.00282148 -3.46354e-22)
(0.85393 -0.0285181 0)
(1.07953 -0.0321403 0)
(0.633589 0.400595 -5.03822e-21)
(1.02536 0.0116374 -8.35951e-21)
(1.029 -0.043963 5.74841e-21)
(1.00063 -0.00792091 0)
(0.85154 0.0319354 0)
(1.00648 -0.0154879 -6.67258e-21)
(0.828617 0.0296362 -1.07569e-21)
(1.12367 -0.0974224 -9.16222e-23)
(1.03093 0.00649407 -3.46482e-21)
(1.07093 0.0221319 -3.61815e-21)
(1.02114 0.019914 -5.19297e-23)
(1.02102 -0.00408472 2.18703e-23)
(0.820617 -0.0504917 7.99247e-21)
(1.04199 -0.0206259 -2.18722e-22)
(1.0201 0.00214499 0)
(0.989141 -0.00662042 0)
(0.827062 0.0473891 0)
(1.01802 0.00119902 0)
(1.00769 -0.00740862 -2.41675e-22)
(1.00435 -0.00158194 0)
(1.00455 -0.00286495 0)
(1.01881 -0.00894927 0)
(1.00174 -0.00442844 0)
(-0.0531052 -0.139211 6.22978e-20)
(0.972198 0.0112866 1.45969e-21)
(1.03698 -0.00473635 0)
(1.0505 0.119435 -1.09509e-20)
(1.04397 -0.0384731 2.84185e-22)
(1.05266 0.0241072 1.01719e-20)
(0.983426 0.00978214 6.36405e-21)
(1.01181 0.00667307 0)
(0.856219 0.0263814 1.25167e-20)
(1.06366 0.0250426 1.16664e-20)
(0.980557 0.0163924 0)
(1.03033 0.0238852 5.14829e-22)
(1.02122 0.00438803 3.62088e-21)
(0.98766 0.00662816 -1.21423e-20)
(1.00107 -0.015727 7.31566e-21)
(1.05348 -0.013004 -6.2085e-21)
(1.03914 -0.0350899 0)
(1.02281 0.0133448 -2.37161e-20)
(1.03931 0.0370939 -2.2268e-21)
(1.02842 -0.00827003 7.09777e-21)
(0.987359 0.00176926 0)
(0.00151367 -0.0324863 0)
(0.991775 0.138054 -1.63137e-20)
(1.00296 -0.0233022 0)
(1.03004 -0.0567416 -2.56453e-20)
(1.0028 0.0409209 1.30746e-21)
(0.962067 -0.00211812 5.96758e-21)
(1.065 -0.00469407 -3.20944e-21)
(1.20799 0.285006 3.71095e-20)
(0.983351 -0.318135 4.48235e-20)
(1.00867 0.0269152 -1.12405e-21)
(1.02155 -0.0214992 0)
(0.974868 0.0142832 0)
(0.769609 -0.0669271 -3.83225e-20)
(1.03052 -0.125852 2.07868e-20)
(0.966816 0.0128901 0)
(1.01373 -0.00944784 1.16841e-20)
(0.991647 -0.00778789 0)
(0.978088 -0.0276637 5.79904e-21)
(1.0004 0.0193963 -1.37123e-20)
(0.971284 -0.0370003 -8.74367e-21)
(1.01287 -0.0101752 0)
(0.965513 -0.0584962 -1.52499e-21)
(1.03522 -0.010756 3.47477e-21)
(0.993624 -0.00641943 -7.97036e-21)
(1.01501 0.00387163 -5.77161e-21)
(1.01538 0.0241925 0)
(1.07895 0.0786457 0)
(1.04635 -0.0185646 7.58344e-21)
(1.05122 0.0188899 -5.85796e-21)
(1.00332 0.00428741 3.15422e-21)
(1.01257 -0.0266269 -5.0466e-21)
(1.05205 0.00340231 7.11786e-22)
(1.06672 0.00240624 0)
(0.463719 -0.141262 1.78248e-20)
(1.21299 -0.0533966 -2.8724e-21)
(1.0091 0.00285032 -8.70996e-21)
(0.972219 -0.00318086 1.28385e-20)
(1.36354 0.0676956 1.92571e-20)
(1.04237 -0.384676 1.466e-20)
(0.976143 0.0190845 -7.89921e-21)
(1.0577 -0.0203653 -9.65435e-22)
(-0.184257 -0.166799 -1.07324e-20)
(1.02137 -0.0222517 0)
(1.08278 -0.110778 -1.31916e-20)
(0.901272 -0.0265517 2.59787e-20)
(1.00963 -0.00809606 8.16509e-21)
(1.02853 -0.0118629 9.32734e-23)
(0.849395 -0.0461761 1.66825e-21)
(1.40906 -0.303596 -2.01986e-20)
(1.04912 0.0431616 0)
(1.01488 0.00243342 1.21814e-21)
(1.05508 0.0111932 -3.50586e-21)
(1.0082 -0.0114354 0)
(0.994551 -0.0139063 -1.05981e-20)
(1.028 0.027683 6.29789e-21)
(1.01194 0.00345116 1.69922e-20)
(1.01784 -0.0128931 -2.8581e-20)
(1.04095 0.0304625 5.86724e-21)
(-0.163633 0.00597559 0)
(0.968672 0.0120861 -2.50668e-20)
(0.970734 -0.00237183 0)
(0.999992 0.0259896 -1.44286e-20)
(1.00023 0.0202678 0)
(1.02107 -0.0172123 1.56127e-20)
(1.04964 -0.0233095 0)
(1.02863 -0.0224622 0)
(1.32613 0.0704689 1.0117e-20)
(0.775431 -0.0343171 0)
(1.01279 0.00954574 2.11554e-20)
(1.01195 0.00269457 4.30774e-22)
(1.04283 -0.0101899 4.21332e-21)
(1.00903 -0.0901799 1.3841e-20)
(1.21462 0.0456596 -4.70829e-21)
(1.02697 -0.011374 1.33702e-20)
(0.95344 -0.0586091 0)
(1.01079 -0.0530613 0)
(1.04719 0.0432366 2.94536e-21)
(1.06725 -0.0294112 0)
(1.56201 0.0164761 -3.04322e-20)
(1.01313 0.000761001 1.07801e-21)
(1.0114 0.0070402 2.43826e-20)
(1.05341 0.0619577 3.44645e-22)
(-0.0539211 0.0644291 0)
(-0.0745548 -0.225237 0)
(0.583162 0.377826 -3.13596e-20)
(-0.133934 -0.119711 0)
(1.00531 0.0180035 -1.07328e-20)
(1.05147 0.036257 -3.54546e-21)
(1.01926 -0.0237045 -1.20457e-20)
(0.984236 -0.0297963 7.12676e-22)
(1.06711 -0.0330987 0)
(1.05337 -0.0259169 -4.74474e-21)
(0.992795 0.00559476 0)
(1.05979 0.00652939 -2.8295e-21)
(0.596983 -0.100697 0)
(1.00453 -0.00145333 -4.17978e-22)
(1.02102 0.0178364 0)
(1.00632 0.0295765 0)
(0.918365 0.214981 -1.49791e-20)
(1.00604 0.00622216 -2.00212e-21)
(1.00807 -0.0316966 1.86478e-21)
(0.970877 0.0798262 -7.202e-21)
(0.721288 0.144338 0)
(1.00953 -0.0042216 -2.45187e-20)
(1.03077 0.0559516 1.4055e-20)
(1.03807 -0.0150887 2.01811e-21)
(1.00756 -0.0253745 8.57129e-21)
(-0.23527 -0.0856239 -1.20795e-19)
(1.03668 -0.00227689 0)
(-0.0449578 0.0882746 0)
(1.01809 0.0304934 1.98866e-20)
(0.983111 0.00471354 -9.22332e-21)
(0.95115 0.0156406 -1.54702e-20)
(1.00107 -0.00708459 0)
(0.988261 -0.0117426 9.2089e-21)
(0.974131 -0.0716362 -1.44468e-20)
(0.877678 0.0393627 -1.29612e-20)
(1.04165 -0.0204513 -1.20865e-20)
(1.02635 -0.00337761 -1.09914e-21)
(0.932795 -0.033661 -2.79136e-21)
(1.01004 -0.0123883 -2.37484e-20)
(1.04166 0.00227074 0)
(1.00125 0.0345238 0)
(1.05794 -0.0141635 -8.57706e-21)
(1.02983 0.017715 -1.27048e-20)
(0.934669 -0.0436961 3.84624e-20)
(1.17107 0.0407383 -1.63721e-20)
(1.02306 0.0477208 2.02991e-20)
(0.831507 0.058115 1.13755e-20)
(0.927585 0.297032 2.71884e-20)
(0.886111 -0.0944498 -2.06743e-20)
(1.15459 0.0780207 -7.27989e-21)
(1.22245 -0.498631 1.09744e-20)
(1.02754 0.0979089 6.27451e-21)
(1.03205 -0.0545537 1.01649e-20)
(0.929087 -0.168342 8.41074e-20)
(0.775591 0.0848898 0)
(0.995081 -0.0142131 2.80806e-22)
(0.911153 0.0153202 2.02835e-20)
(0.99416 0.0156142 -1.72069e-20)
(1.0024 0.0260494 8.03675e-21)
(1.01844 -0.00876985 0)
(0.97932 -0.0260539 0)
(1.10988 -0.0126905 0)
(1.02338 0.0321097 9.14847e-21)
(1.08336 0.0613974 1.39276e-20)
(1.06097 -0.0278327 1.62341e-20)
(0.86845 0.0149922 0)
(0.950662 0.0106502 0)
(0.95993 -0.0101182 -1.28742e-21)
(0.864068 -0.00557609 0)
(1.00272 -0.0265595 0)
(1.06374 -0.063825 2.69431e-20)
(0.980471 0.00912068 0)
(1.01339 0.0359386 0)
(1.0331 0.0122684 0)
(1.18194 0.117155 1.21848e-21)
(1.0418 0.0559176 -1.19599e-20)
(1.00608 0.00321028 1.70541e-20)
(1.36985 -0.36445 -1.43297e-19)
(0.948376 -0.0341083 -1.70762e-20)
(0.99589 0.0129979 7.99424e-21)
(1.03905 -0.0435071 0)
(0.840626 0.00702088 0)
(0.288617 0.231464 0)
(1.07349 -0.0235664 2.05317e-20)
(1.30504 -0.198726 -3.49437e-20)
(0.989905 0.0546244 0)
(1.00055 -0.01622 -1.61943e-20)
(0.843777 -0.127135 0)
(1.43398 0.0405081 7.47034e-20)
(0.431157 0.534137 1.04234e-19)
(0.590853 -0.00348834 0)
(1.19198 -0.242727 1.5384e-19)
(0.882704 0.145893 0)
(0.926435 -0.0123645 -1.10843e-22)
(1.00609 0.0597607 0)
(0.552387 0.321641 1.34149e-20)
(0.991023 -0.048409 0)
(0.982891 -0.0467998 1.23822e-20)
(-0.375449 -0.111062 -9.96e-21)
(1.02728 -0.027959 8.48704e-21)
(0.984854 0.000266573 -9.72647e-21)
(0.594888 -0.549425 -8.29664e-20)
(1.03003 0.0220547 -5.24299e-22)
(1.16909 0.0244306 4.49043e-21)
(1.13707 0.171164 -1.44625e-20)
(1.01742 -0.0339396 1.35827e-20)
(1.03138 -0.0192276 4.87647e-21)
(0.682442 -0.155033 2.25818e-20)
(0.400307 -0.0992175 -9.87934e-21)
(0.995072 0.0225904 4.59775e-21)
(1.07301 -0.075546 0)
(0.995072 -0.00739939 -6.5138e-21)
(1.43852 -0.387729 1.09279e-19)
(1.27465 0.0825631 -7.98439e-20)
(1.43111 -0.0894156 6.19002e-20)
(1.04395 0.00220529 1.1635e-20)
(1.00397 -0.00432053 1.98153e-20)
(1.09081 0.0133655 0)
(1.10341 0.0100816 0)
(1.03088 -0.047376 -1.14765e-20)
(1.07861 -0.0146363 -1.92581e-21)
(0.968558 -0.0572309 -1.42713e-20)
(1.0146 -0.00393222 -1.39764e-20)
(1.20088 0.16042 -6.36421e-21)
(0.798017 -0.0177282 0)
(1.01686 -0.0504825 1.95482e-20)
(0.998466 0.0758942 0)
(1.07925 0.0083896 -1.11686e-20)
(1.14217 -0.0311918 0)
(1.09435 0.00996941 1.15672e-20)
(1.14412 -0.0314519 -2.73886e-21)
(1.02742 0.0368493 0)
(0.105051 -0.0223259 2.10096e-19)
(0.894753 -0.163476 -6.5954e-20)
(1.12571 0.25256 -5.33849e-21)
(-0.379497 -0.0346632 5.29517e-20)
(1.07649 0.00998905 -3.82385e-22)
(0.990168 0.0103509 -3.02558e-21)
(-0.250685 0.0304814 -5.5132e-20)
(-0.0924065 0.170776 -3.60455e-20)
(1.02919 0.0370255 0)
(-0.0454535 -0.0835087 0)
(1.01969 0.132028 0)
(0.115215 -0.141402 0)
(1.09943 -0.0012834 0)
(0.26441 0.0443184 0)
(1.01961 0.000905799 0)
(0.994508 0.0778507 0)
(0.992416 0.0328361 -5.40193e-21)
(0.609137 -0.296618 -2.87738e-20)
(-0.25505 -0.151418 0)
(1.40356 0.0836394 8.31383e-20)
(1.01368 0.0362836 3.67043e-22)
(1.00719 0.16478 0)
(-0.048982 -0.0652978 0)
(1.10536 -0.00577539 -1.11412e-20)
(1.06496 -0.00107372 5.09527e-21)
(1.19369 0.370776 0)
(0.686055 0.0195543 8.79228e-20)
(1.08882 -0.0444716 1.89749e-21)
(0.30527 -0.0482282 -6.99936e-20)
(-0.07253 0.0724562 -4.88996e-20)
(-0.00943729 0.0567609 1.24198e-19)
(0.931248 0.0444887 -1.93004e-20)
(0.98465 -0.00779272 2.84721e-21)
(1.05179 -0.0121553 -2.72739e-20)
(0.99438 0.0115209 0)
(1.12311 -0.118728 -1.54688e-20)
(1.04613 0.0552759 1.28543e-20)
(-0.0443747 -0.0397463 1.16195e-19)
(1.05205 -0.0517875 -5.15809e-20)
(0.998998 0.0057573 1.1767e-20)
(1.01674 -0.0012341 -1.83286e-21)
(0.142573 -0.0298249 4.67907e-20)
(0.337917 -0.0278107 -6.48676e-20)
(0.891507 0.102977 -8.01607e-20)
(0.990984 0.0309085 1.59536e-20)
(-0.0729398 -0.0691644 0)
(0.999524 -0.00213682 6.8602e-21)
(1.00298 0.00313641 2.35859e-20)
(1.02102 -0.0214336 -2.27427e-20)
(1.07308 0.21132 0)
(1.46599 -0.0505962 8.78129e-20)
(1.05907 0.0258196 -2.71648e-21)
(-0.0520967 -0.117054 -4.02139e-20)
(0.916727 -0.186996 0)
(1.02798 -0.0100471 -6.35365e-23)
(1.02727 0.0467067 5.34605e-21)
(0.965549 -0.175049 -1.12441e-20)
(1.05407 -0.0170511 4.14924e-21)
(1.1136 0.0647587 0)
(1.30401 -0.0849733 -2.01368e-20)
(-0.134456 0.0272795 -8.76603e-20)
(1.16079 0.0785883 3.35657e-22)
(1.10523 0.0601982 -9.44594e-21)
(1.02878 0.0152136 1.59846e-20)
(-0.066564 -0.162905 2.11494e-20)
(-0.0532037 0.132536 -9.69851e-20)
(1.02907 0.362817 0)
(0.93251 0.106694 0)
(1.11198 0.0354513 -2.05538e-20)
(1.12401 0.0714599 1.22879e-20)
(1.00284 0.00764006 0)
(1.09511 0.40003 2.5035e-20)
(1.10114 -0.0301357 -1.73496e-20)
(1.13156 0.029426 0)
(1.00127 0.0198472 0)
(0.982492 0.0950549 0)
(0.963781 0.0173325 0)
(1.01291 -0.0230908 3.33633e-21)
(-0.0511029 0.0695528 5.34279e-20)
(0.976013 -0.0235041 6.98963e-21)
(1.47667 0.0294264 -9.37794e-20)
(1.02715 0.0129637 -6.20599e-21)
(0.503755 -0.28025 0)
(0.998943 -0.0143458 0)
(0.983792 0.0457293 -1.91329e-21)
(0.758906 -0.00631503 -8.73859e-20)
(0.150387 0.0291687 6.92325e-20)
(1.01784 -0.0353511 1.43712e-21)
(0.810552 -0.271589 0)
(0.803673 -0.0705857 0)
(0.959897 -0.0371643 0)
(0.577065 0.546371 3.61116e-20)
(-0.0581555 0.135944 -4.16179e-20)
(0.989163 0.00162677 -2.14894e-21)
(-0.0923446 -0.15103 7.94512e-20)
(1.01394 0.00579222 4.51626e-21)
(1.13889 0.251932 2.75788e-20)
(1.11951 0.00739779 1.08727e-20)
(0.70242 -0.260366 -3.01373e-20)
(1.00969 0.0131247 4.05471e-21)
(1.00136 -0.00876658 0)
(0.645671 0.305382 0)
(1.00321 -0.0146663 6.12496e-21)
(-0.317642 0.00500204 0)
(0.904129 0.0555304 4.90117e-21)
(0.6279 -0.438917 -4.72731e-21)
(0.344635 0.0522391 -1.52417e-19)
(1.07723 -0.191054 2.44544e-20)
(1.09316 0.359049 8.72263e-21)
(0.927063 0.0171168 0)
(0.989032 0.0274719 4.09652e-22)
(0.973573 -0.0190123 0)
(1.00123 0.0194195 1.5955e-21)
(0.66394 0.0110277 0)
(0.72366 0.130593 0)
(1.01932 -0.0456407 -1.4973e-20)
(1.45799 0.0120364 -1.01964e-20)
(1.0291 0.0147643 4.21734e-21)
(0.544907 -0.523351 0)
(1.09571 -0.0655837 1.93235e-21)
(0.842499 0.368952 6.49018e-20)
(-0.00819544 0.0242503 1.76331e-21)
(1.09245 -0.0516217 -6.77903e-21)
(1.13291 -0.0351324 3.26765e-21)
(0.994586 -0.0127969 1.33864e-21)
(0.967979 0.0080407 -7.9748e-21)
(0.129844 0.0200025 5.69071e-20)
(-0.0955261 0.0149024 -6.49668e-20)
(-0.0718745 0.165082 0)
(0.0804559 -0.163258 0)
(1.21974 -0.629481 4.24894e-20)
(1.01656 -0.0364318 -4.75819e-21)
(0.934399 -0.475366 -6.07321e-20)
(1.00441 0.00845749 -1.54372e-20)
(1.472 0.0850305 4.36656e-20)
(0.663522 0.460923 0)
(0.251696 0.411658 -1.12858e-19)
(0.61944 0.453316 0)
(0.448707 -0.281109 0)
(1.10238 -0.480772 0)
(-0.164153 0.180888 -2.37464e-21)
(1.10699 0.0163119 0)
(0.976484 0.0398244 1.6218e-20)
(0.627677 0.700739 2.12876e-20)
(1.0021 0.0353536 -1.43486e-20)
(-0.0389415 -0.252836 -1.55891e-19)
(0.964648 0.0276462 2.41272e-20)
(0.562257 0.16472 -1.81007e-20)
(1.16279 -0.0469094 0)
(1.4352 0.298858 5.30312e-20)
(1.27288 0.549385 1.9111e-20)
(0.34665 -0.0559961 -3.33734e-20)
(1.32845 -0.100912 4.52412e-20)
(1.03212 -0.0329287 1.55136e-21)
(1.01779 0.0213459 -7.50164e-22)
(0.0360087 -0.0638387 0)
(0.674547 -0.691552 -2.49248e-20)
(0.6276 0.187882 0)
(0.504167 0.0896262 0)
(-0.0696291 0.173151 0)
(0.0796821 -0.10368 -6.18199e-20)
(1.13267 -0.0341421 7.68922e-21)
(0.0388398 0.16274 0)
(-0.0788611 0.225319 0)
(1.35026 -0.0969119 -5.35341e-20)
(-0.0337003 -0.202521 6.92431e-20)
(0.115858 0.216596 -1.00097e-19)
(0.626197 -0.000898996 0)
(0.177071 -0.313617 7.53969e-20)
(1.21502 -0.201342 0)
(0.988454 -0.253899 0)
(0.145817 -0.136263 1.51176e-19)
(1.08696 -0.00863807 -3.63625e-22)
(1.16122 0.326321 2.21994e-20)
(0.38796 0.0238558 6.52132e-20)
(0.422561 -0.554881 -2.34725e-20)
(1.47392 -0.147088 0)
(1.45729 0.071618 3.08378e-20)
(1.37283 0.140055 -3.78185e-20)
(0.102926 0.0554698 -2.28304e-20)
(-0.237346 0.078018 0)
(0.999477 -0.0731673 -2.01759e-20)
(1.01445 -0.252792 -1.21868e-20)
(0.598453 -0.421303 0)
(1.073 -0.226119 -1.9818e-20)
(0.315624 -0.279899 0)
(0.953909 -0.0547293 0)
(1.08713 0.140571 -6.90423e-21)
(0.944965 0.0221306 5.75049e-22)
(1.12281 0.734153 -8.15391e-21)
(0.236773 -0.413272 1.13895e-19)
(0.9943 -0.0220947 -9.31822e-24)
(1.13149 -0.002464 -2.83281e-21)
(-0.102408 0.254936 4.61129e-20)
(0.844247 0.764001 2.08364e-20)
(1.33973 -0.2857 -1.77404e-20)
(0.688392 0.279317 -1.80824e-20)
(1.00107 -0.0127671 0)
(0.646423 -0.356236 -2.40021e-21)
(0.935113 -0.660732 4.2634e-21)
(0.984701 0.682158 -3.27867e-20)
(0.784934 0.0201755 -8.75496e-20)
(1.00511 0.0209016 -2.25682e-20)
(1.15363 -0.112146 7.68164e-21)
(1.01164 0.0274598 1.18343e-20)
(1.08769 0.0617058 6.37588e-21)
(1.07917 -0.120994 0)
(1.13478 0.0387294 2.19387e-20)
(1.00118 0.4933 0)
(0.990141 0.0377495 -8.36241e-21)
(1.10643 0.00051682 3.49422e-21)
(0.891049 0.284591 0)
(0.668492 0.116667 1.45309e-19)
(0.937568 0.71065 -1.46411e-21)
(1.00756 0.257465 -1.7044e-20)
(1.08348 -0.00583836 1.03084e-20)
(0.429199 0.464694 0)
(1.2887 -0.448466 0)
(0.994697 -0.326979 -1.33534e-21)
(1.35865 0.499083 0)
(0.0471038 0.0703949 -6.27713e-20)
(1.25697 -0.387322 -2.06272e-20)
(1.20175 0.479886 0)
(0.465648 0.191241 1.64569e-19)
(1.26149 0.316576 -1.63581e-19)
(0.832132 -0.670466 -1.91963e-20)
(1.04538 0.014951 7.67977e-21)
(1.09944 0.144621 1.17473e-19)
(1.03117 0.0816418 4.32448e-20)
(1.13526 0.710581 -3.47374e-21)
(0.915085 -0.429198 5.3445e-20)
(1.35784 0.0404129 3.68794e-20)
(1.02876 0.00295189 -3.10188e-21)
(0.0494554 -0.144862 1.28035e-19)
(1.1093 -0.733035 5.08643e-20)
(0.897334 -0.756591 3.49818e-20)
(0.263752 -0.389584 0)
(0.998462 -0.142363 6.28224e-20)
(0.371085 0.271428 -4.28275e-19)
(0.0977453 0.190258 9.96113e-21)
(0.631742 -0.0124896 3.55391e-20)
(0.861059 -0.0247165 -1.01462e-19)
(1.12223 0.513897 0)
(0.915963 0.193516 6.83298e-20)
(1.05848 0.0953964 5.74361e-21)
(0.944209 0.425281 -8.36533e-20)
(0.814997 -0.763681 -4.40431e-21)
(0.874346 0.0589252 -4.46337e-20)
(1.00906 0.471265 0)
(0.99289 0.0539295 1.19431e-20)
(1.38375 -0.486974 1.83877e-20)
(1.16717 -0.311806 1.49699e-20)
(0.282057 -0.162891 -3.00908e-22)
(0.197453 -0.0502541 -1.75133e-20)
(0.948736 -0.0760597 -5.34744e-20)
(0.363442 0.509734 0)
(0.899141 0.0294458 3.55673e-20)
(1.2435 0.647895 1.06263e-19)
(0.0888477 0.146747 1.78827e-19)
(-0.135259 0.219765 -4.04979e-20)
(-0.316615 -0.109424 5.20533e-20)
(1.04244 0.00250762 -7.64006e-21)
(1.1868 -0.459245 0)
(1.08576 -0.76383 -2.11597e-20)
(0.726856 0.331851 0)
(0.376998 0.162081 -1.30429e-19)
(1.03219 -0.0169717 2.88775e-21)
(-0.143957 -0.174623 -3.79614e-20)
(1.12552 0.0874077 -1.00803e-20)
(0.226874 0.0388442 8.17631e-20)
(1.09189 0.100577 0)
(1.12396 0.15277 6.22142e-21)
(0.344238 0.0390117 -4.03133e-20)
(-0.0462482 -0.0760733 3.57415e-22)
(-0.0693464 0.0513906 0)
(0.174981 -0.026804 0)
(1.13229 0.0793306 -2.27019e-21)
(0.532165 0.00704636 2.10666e-19)
(1.29415 -0.743826 -4.90995e-20)
(1.00491 -0.257235 -1.13875e-20)
(0.976219 0.184159 -2.54602e-20)
(0.387358 -0.610959 1.26932e-19)
(1.59401 0.137042 -4.45971e-20)
(0.286004 -0.0802979 5.10232e-20)
(0.214121 0.26366 1.92012e-19)
(0.313806 -0.0575873 -1.87629e-19)
(0.931403 -0.493928 -3.7535e-20)
(1.55105 0.327647 4.68617e-20)
(0.595925 -0.722403 4.03983e-20)
(1.11908 -0.0377063 -6.71652e-21)
(0.80178 0.332604 6.9338e-20)
(1.37463 0.26244 -7.16905e-20)
(0.690875 0.625362 -3.92067e-20)
(1.37762 -0.619638 0)
(1.54938 0.497429 4.55435e-20)
(1.04493 -0.533994 -1.3798e-20)
(1.47999 0.595912 -1.37197e-19)
(1.06739 0.052118 0)
(-0.0625068 0.231155 0)
(1.31512 0.726625 0)
(1.00442 -0.0113939 -7.14365e-21)
(0.750346 -0.285943 -1.89882e-19)
(0.473841 -0.0934217 0)
(-0.056791 0.258412 -3.90196e-20)
(0.971033 -0.296151 8.31471e-20)
(0.307936 0.0289097 0)
(0.323994 -0.00574312 1.18301e-20)
(1.06161 0.0271578 0)
(1.56953 0.1798 0)
(1.06334 0.0428244 -8.22249e-21)
(0.369272 -0.327135 0)
(0.987288 0.10851 3.12206e-20)
(1.43935 0.229121 0)
(-0.144199 0.125157 -3.51914e-21)
(0.814182 -0.374121 0)
(1.55944 0.241888 -6.85476e-20)
(1.28235 0.336572 -7.67719e-21)
(0.872625 0.623928 -9.22591e-21)
(0.818801 0.122333 -7.72874e-20)
(0.998831 -0.192245 -4.09158e-20)
(1.528 0.203617 3.96136e-20)
(1.25503 -0.209036 0)
(0.557937 -0.0643036 0)
)
;

boundaryField
{
    FrontBack
    {
        type            empty;
    }
    Top
    {
        type            noSlip;
    }
    In
    {
        type            fixedValue;
        value           uniform (1 0 0);
    }
    Bottom
    {
        type            noSlip;
    }
    Out
    {
        type            zeroGradient;
    }
    circle
    {
        type            noSlip;
    }
}


// ************************************************************************* //
