/*--------------------------------*- C++ -*----------------------------------*\
| =========                 |                                                 |
| \\      /  F ield         | OpenFOAM: The Open Source CFD Toolbox           |
|  \\    /   O peration     | Version:  2412                                  |
|   \\  /    A nd           | Website:  www.openfoam.com                      |
|    \\/     M anipulation  |                                                 |
\*---------------------------------------------------------------------------*/
FoamFile
{
    version     2.0;
    format      ascii;
    arch        "LSB;label=32;scalar=64";
    class       volVectorField;
    location    "0.1";
    object      cellDisplacement;
}
// * * * * * * * * * * * * * * * * * * * * * * * * * * * * * * * * * * * * * //

dimensions      [0 1 0 0 0 0 0];

internalField   nonuniform List<vector> 
256
(
(-0.000310405 0.00358451 0)
(-0.000819409 0.00343845 0)
(-0.00118464 0.00300922 0)
(-0.00140065 0.00253784 0)
(-0.00149468 0.00209209 0)
(-0.00137298 0.00157149 0)
(-0.00112842 0.00111203 0)
(-0.000663394 0.000585738 0)
(-0.000894802 0.010536 0)
(-0.00231561 0.0100664 0)
(-0.00344049 0.00913367 0)
(-0.00417095 0.00791697 0)
(-0.00442739 0.00649485 0)
(-0.00434982 0.00520899 0)
(-0.0037211 0.00382059 0)
(-0.00266702 0.00244534 0)
(-0.00142672 0.0170863 0)
(-0.00369041 0.0164566 0)
(-0.0054933 0.0150109 0)
(-0.00670338 0.01314 0)
(-0.00734557 0.0111382 0)
(-0.00729238 0.00902295 0)
(-0.00662592 0.00698588 0)
(-0.00520483 0.00486927 0)
(-0.00191065 0.023289 0)
(-0.00491118 0.0224306 0)
(-0.00738273 0.0207239 0)
(-0.00914649 0.0184247 0)
(-0.0100999 0.0157608 0)
(-0.0103326 0.0131315 0)
(-0.00966121 0.0104289 0)
(-0.00814363 0.00775165 0)
(-0.00235757 0.0291859 0)
(-0.00604941 0.0282319 0)
(-0.00912699 0.0262219 0)
(-0.0113918 0.0235235 0)
(-0.0128325 0.0205245 0)
(-0.0132967 0.0173157 0)
(-0.0128792 0.0141924 0)
(-0.011439 0.0110416 0)
(-0.00277364 0.0348237 0)
(-0.00707138 0.0336941 0)
(-0.0107423 0.0315525 0)
(-0.0135687 0.0286353 0)
(-0.015405 0.0252015 0)
(-0.0163101 0.0216942 0)
(-0.0161375 0.0181181 0)
(-0.0149453 0.0146171 0)
(-0.00316523 0.0401855 0)
(-0.0080374 0.0390184 0)
(-0.0122538 0.0367045 0)
(-0.0155762 0.0335493 0)
(-0.0179538 0.0299589 0)
(-0.0192207 0.0260695 0)
(-0.0194832 0.0222463 0)
(-0.0186657 0.0184656 0)
(-0.00353688 0.0453472 0)
(-0.00891808 0.0440665 0)
(-0.0136597 0.0416963 0)
(-0.0175344 0.0384611 0)
(-0.0203545 0.0345996 0)
(-0.0221559 0.0305703 0)
(-0.0228241 0.0264586 0)
(-0.0224598 0.0224582 0)
(-0.00389393 0.0502654 0)
(-0.00975592 0.0489947 0)
(-0.0149925 0.0465487 0)
(-0.0193473 0.043186 0)
(-0.0227416 0.0392916 0)
(-0.0249888 0.0350302 0)
(-0.026198 0.0307765 0)
(-0.0263777 0.02663 0)
(-0.0042433 0.0550274 0)
(-0.0105306 0.0536884 0)
(-0.0162315 0.051243 0)
(-0.0211287 0.0479004 0)
(-0.0249928 0.0438657 0)
(-0.0278398 0.0395543 0)
(-0.0295784 0.0351896 0)
(-0.0303574 0.0308813 0)
(-0.00459137 0.0595455 0)
(-0.0112736 0.0582536 0)
(-0.0174212 0.0558221 0)
(-0.0227736 0.0524469 0)
(-0.02724 0.04845 0)
(-0.0306119 0.0441259 0)
(-0.0330257 0.0396614 0)
(-0.0344371 0.0353054 0)
(-0.00494716 0.0639223 0)
(-0.0119765 0.0626128 0)
(-0.0185262 0.0602283 0)
(-0.0243894 0.0569492 0)
(-0.029345 0.0530351 0)
(-0.0334132 0.0487011 0)
(-0.036452 0.0442791 0)
(-0.0386485 0.0397541 0)
(-0.00534182 0.0680312 0)
(-0.0126664 0.0667838 0)
(-0.0195701 0.0645083 0)
(-0.025859 0.0613662 0)
(-0.0314111 0.0575608 0)
(-0.0360865 0.0533592 0)
(-0.0399306 0.0488524 0)
(-0.0428592 0.0442669 0)
(-0.00576342 0.0719059 0)
(-0.0133128 0.0707166 0)
(-0.0205199 0.0685812 0)
(-0.0272179 0.0656332 0)
(-0.0333023 0.0620137 0)
(-0.0386693 0.057882 0)
(-0.0432822 0.0533666 0)
(-0.0470991 0.0486112 0)
(-0.00631171 0.0753386 0)
(-0.0139523 0.0742181 0)
(-0.0213448 0.0722593 0)
(-0.0283883 0.0695194 0)
(-0.034958 0.0661024 0)
(-0.0410061 0.0620668 0)
(-0.0464204 0.0575548 0)
(-0.0512025 0.0526014 0)
(-0.00688306 0.0778277 0)
(-0.0144784 0.0767782 0)
(-0.0219342 0.0749894 0)
(-0.0291789 0.0724784 0)
(-0.0361425 0.0692694 0)
(-0.042758 0.0653932 0)
(-0.0489618 0.0608873 0)
(-0.054694 0.055795 0)
(-0.000639542 0.000584581 0)
(-0.00120106 0.00103402 0)
(-0.00165808 0.00127444 0)
(-0.00218099 0.00140091 0)
(-0.00262231 0.00132848 0)
(-0.00303795 0.00110553 0)
(-0.00345775 0.000749742 0)
(-0.00361448 0.00026154 0)
(-0.00270531 0.00244441 0)
(-0.00408461 0.00342992 0)
(-0.00550768 0.00405278 0)
(-0.00675957 0.00416463 0)
(-0.00811356 0.00391404 0)
(-0.00931081 0.00320592 0)
(-0.0101944 0.00209501 0)
(-0.0105922 0.000702174 0)
(-0.00526823 0.00475352 0)
(-0.00747526 0.00614473 0)
(-0.00950674 0.00682462 0)
(-0.0115873 0.00690356 0)
(-0.0135387 0.00630701 0)
(-0.0152658 0.00507578 0)
(-0.0166422 0.00328684 0)
(-0.0172291 0.00106815 0)
(-0.00839775 0.0075473 0)
(-0.0110932 0.00899126 0)
(-0.0138195 0.00968928 0)
(-0.0163829 0.00950797 0)
(-0.0189268 0.00856162 0)
(-0.0211404 0.00680047 0)
(-0.0227346 0.00433001 0)
(-0.023474 0.00136565 0)
(-0.0118258 0.0106165 0)
(-0.0150668 0.0120536 0)
(-0.0181603 0.0125011 0)
(-0.0213015 0.0120711 0)
(-0.0242101 0.0106632 0)
(-0.0267107 0.00835271 0)
(-0.0286064 0.00526823 0)
(-0.0294599 0.00161586 0)
(-0.0156293 0.0140133 0)
(-0.0191278 0.0151578 0)
(-0.0226948 0.0153632 0)
(-0.0261183 0.0145047 0)
(-0.0293955 0.0126473 0)
(-0.0321963 0.00979521 0)
(-0.0341862 0.00609939 0)
(-0.0351283 0.00181847 0)
(-0.0195661 0.0175479 0)
(-0.0234114 0.0183965 0)
(-0.02718 0.0181516 0)
(-0.0309834 0.0168896 0)
(-0.0344689 0.014508 0)
(-0.0374075 0.0111058 0)
(-0.0395581 0.00684787 0)
(-0.0405704 0.001985 0)
(-0.0237234 0.0212844 0)
(-0.0276916 0.0216207 0)
(-0.0317847 0.0209586 0)
(-0.0357288 0.0191584 0)
(-0.0394254 0.0162656 0)
(-0.0425303 0.0123244 0)
(-0.044697 0.00751217 0)
(-0.0457455 0.00211369 0)
(-0.0279277 0.0250756 0)
(-0.032125 0.0249278 0)
(-0.0363134 0.0236807 0)
(-0.0404949 0.0213704 0)
(-0.0442878 0.0179137 0)
(-0.0474138 0.0134304 0)
(-0.0496505 0.00810141 0)
(-0.0507155 0.00220763 0)
(-0.0322919 0.0290168 0)
(-0.0365696 0.0281985 0)
(-0.0409473 0.0263963 0)
(-0.045162 0.0234615 0)
(-0.0490191 0.0194488 0)
(-0.0522043 0.0144346 0)
(-0.0543978 0.00861106 0)
(-0.0554578 0.00225472 0)
(-0.0367648 0.0329851 0)
(-0.0411563 0.0315214 0)
(-0.0455647 0.0289949 0)
(-0.0498396 0.0254551 0)
(-0.0536809 0.0208504 0)
(-0.0567917 0.0153181 0)
(-0.0589679 0.00902562 0)
(-0.0599979 0.00226211 0)
(-0.0413517 0.0370408 0)
(-0.0458345 0.03473 0)
(-0.0502765 0.0315102 0)
(-0.0544883 0.0272695 0)
(-0.0582323 0.0220784 0)
(-0.0612675 0.0160494 0)
(-0.0633521 0.00933931 0)
(-0.064326 0.00220374 0)
(-0.0460612 0.0409827 0)
(-0.0506083 0.037844 0)
(-0.055023 0.0337914 0)
(-0.059141 0.0288419 0)
(-0.0627342 0.0230866 0)
(-0.0655923 0.0165775 0)
(-0.0675419 0.00948678 0)
(-0.0684342 0.00208151 0)
(-0.0508126 0.0447431 0)
(-0.0554381 0.0406553 0)
(-0.0598179 0.0357354 0)
(-0.0637648 0.0300867 0)
(-0.0671271 0.0237439 0)
(-0.0697523 0.0168044 0)
(-0.0714959 0.00944951 0)
(-0.072263 0.00180461 0)
(-0.0555283 0.048016 0)
(-0.060236 0.0428819 0)
(-0.0644897 0.0371163 0)
(-0.0681924 0.0307723 0)
(-0.0712432 0.0239184 0)
(-0.0735493 0.0166649 0)
(-0.0750353 0.00910697 0)
(-0.0756537 0.00139967 0)
(-0.0598995 0.0501654 0)
(-0.0645282 0.0440527 0)
(-0.0685354 0.0375157 0)
(-0.0718825 0.0306174 0)
(-0.0745374 0.0234242 0)
(-0.0764745 0.0160055 0)
(-0.077675 0.00843262 0)
(-0.0781276 0.000778534 0)
)
;

boundaryField
{
    walls
    {
        type            cellMotion;
        value           uniform (0 0 0);
    }
    cylinder
    {
        type            cellMotion;
        value           nonuniform List<vector> 
16
(
(-0.00688306 0.0778277 0)
(-0.0144784 0.0767782 0)
(-0.0219342 0.0749894 0)
(-0.0291789 0.0724784 0)
(-0.0361425 0.0692694 0)
(-0.042758 0.0653932 0)
(-0.0489618 0.0608873 0)
(-0.054694 0.055795 0)
(-0.0598995 0.0501654 0)
(-0.0645282 0.0440527 0)
(-0.0685354 0.0375157 0)
(-0.0718825 0.0306174 0)
(-0.0745374 0.0234242 0)
(-0.0764745 0.0160055 0)
(-0.077675 0.00843262 0)
(-0.0781276 0.000778534 0)
)
;
    }
    outlet
    {
        type            cellMotion;
        value           uniform (0 0 0);
    }
    inlet
    {
        type            cellMotion;
        value           nonuniform List<vector> 0();
    }
    frontAndBack
    {
        type            empty;
    }
    procBoundary3to1
    {
        type            processor;
        value           nonuniform List<vector> 
16
(
(0.000242758 0.00349645 0)
(0.000653858 0.0103005 0)
(0.00101195 0.0168786 0)
(0.00130989 0.0230811 0)
(0.00157001 0.0290581 0)
(0.00178864 0.0347087 0)
(0.00197548 0.04015 0)
(0.00212428 0.0453212 0)
(0.00223973 0.0502989 0)
(0.00231289 0.055051 0)
(0.00234245 0.0596318 0)
(0.00230676 0.0640036 0)
(0.00218711 0.0681906 0)
(0.00188642 0.0721069 0)
(0.00143558 0.0755935 0)
(0.000778534 0.0781276 0)
)
;
    }
    procBoundary3to2
    {
        type            processor;
        value           nonuniform List<vector> 
16
(
(-0.00354615 -0.000284139 0)
(-0.0104542 -0.00082357 0)
(-0.0170735 -0.00133555 0)
(-0.0233284 -0.00181139 0)
(-0.0293031 -0.00226503 0)
(-0.0349789 -0.00269106 0)
(-0.0403993 -0.0031027 0)
(-0.0455803 -0.00349954 0)
(-0.0505246 -0.00388895 0)
(-0.0552664 -0.0042658 0)
(-0.0597903 -0.00465343 0)
(-0.0641191 -0.00502951 0)
(-0.0682067 -0.00544618 0)
(-0.0720126 -0.00584459 0)
(-0.0753779 -0.00635991 0)
(-0.0778277 -0.00688306 0)
)
;
    }
}


// ************************************************************************* //
