/*--------------------------------*- C++ -*----------------------------------*\
| =========                 |                                                 |
| \\      /  F ield         | OpenFOAM: The Open Source CFD Toolbox           |
|  \\    /   O peration     | Version:  2412                                  |
|   \\  /    A nd           | Website:  www.openfoam.com                      |
|    \\/     M anipulation  |                                                 |
\*---------------------------------------------------------------------------*/
FoamFile
{
    version     2.0;
    format      ascii;
    arch        "LSB;label=32;scalar=64";
    class       surfaceScalarField;
    location    "0.1";
    object      meshPhi;
}
// * * * * * * * * * * * * * * * * * * * * * * * * * * * * * * * * * * * * * //

dimensions      [0 3 -1 0 0 0 0];

internalField   nonuniform List<scalar> 
480
(
0.00525908
0.00158857
0.00513006
0.00540846
0.00480087
0.00823708
0.00436573
0.00983817
0.00390187
0.010354
0.00330913
0.00990345
0.00249855
0.00848218
0.00706577
0.00213907
0.0151529
0.00258584
0.0149634
0.00941122
0.0141933
0.0146355
0.0130946
0.0178763
0.0118423
0.0192774
0.0102714
0.0189806
0.00807037
0.016938
0.0145726
0.00706521
0.0240093
0.00315084
0.0239929
0.0122604
0.023142
0.019438
0.0217843
0.0242739
0.0201065
0.0268622
0.0178782
0.0271349
0.0147088
0.0249332
0.0220083
0.0132227
0.0320851
0.00342122
0.0323081
0.0141597
0.031641
0.0228852
0.0303448
0.0291546
0.0285453
0.032911
0.0259703
0.0339511
0.0221917
0.031988
0.0289745
0.0205212
0.0396024
0.00352607
0.040055
0.0153532
0.0397125
0.0251811
0.0386767
0.0326054
0.0369783
0.0374459
0.0343574
0.0393003
0.030347
0.0378307
0.0350878
0.0288269
0.0466609
0.0035341
0.0473097
0.0159426
0.0473476
0.0264591
0.0466892
0.0347098
0.0452922
0.0403909
0.0428813
0.0430062
0.0390349
0.0422134
0.0400623
0.0379972
0.0533051
0.00349762
0.0541392
0.0160472
0.0545727
0.0268336
0.0543776
0.0355702
0.0534378
0.0418759
0.0514963
0.0451499
0.0481748
0.0450996
0.043656
0.0478825
0.0595863
0.00338486
0.0606073
0.0156547
0.0614419
0.0263651
0.0617767
0.0352861
0.0614646
0.0419544
0.0601875
0.045725
0.0576834
0.0463641
0.0457372
0.0584249
0.0655511
0.00318953
0.0667615
0.0148022
0.0680105
0.0250908
0.0689566
0.0339137
0.0693419
0.0407137
0.0688942
0.0447781
0.0675829
0.0460906
0.0462798
0.0695727
0.0712201
0.0028912
0.0726374
0.0134921
0.0743267
0.0230574
0.0758857
0.0315133
0.0770686
0.0382169
0.0777517
0.0424769
0.0779777
0.0443666
0.0452724
0.0813817
0.0765953
0.00242678
0.0782419
0.0117831
0.0803109
0.020412
0.0825318
0.0282208
0.0847858
0.0345585
0.0869606
0.038869
0.0890813
0.0412454
0.0426989
0.0941331
0.0817184
0.00202099
0.0835178
0.00994163
0.0860055
0.0173236
0.0890856
0.0241204
0.0926877
0.0297785
0.096693
0.0338872
0.101015
0.0364828
0.0382162
0.107732
0.0864754
0.00162165
0.0884946
0.00783825
0.091593
0.013731
0.0957201
0.0191634
0.100878
0.0238038
0.106859
0.027342
0.113322
0.0298152
0.0316198
0.121629
0.0908749
0.00134398
0.0932666
0.00554657
0.0971052
0.00962932
0.102419
0.0133761
0.109099
0.0166244
0.11684
0.0192748
0.125222
0.021287
0.0228841
0.135075
0.0947908
0.00117117
0.0976087
0.0031728
0.10223
0.00510681
0.108607
0.00692877
0.116516
0.00857978
0.125688
0.0100307
0.135745
0.0112527
0.0122961
0.147038
0.097422
0.100681
0.105913
0.112976
0.121659
0.131702
0.14279
0.154804
0.00252378
-0.00462949
0.00327238
-0.00650192
0.00385082
-0.00842779
0.00429086
-0.00936629
0.0047415
-0.0092479
0.00518341
-0.00798863
0.00538063
-0.00554453
-0.00198574
0.00803474
-0.010031
0.0101837
-0.0131265
0.0117179
-0.0162534
0.012971
-0.0175878
0.0141544
-0.0170664
0.0151927
-0.0144562
0.0155697
-0.00979239
-0.00334567
0.0145683
-0.0159168
0.0177335
-0.019647
0.0199776
-0.0233403
0.0217553
-0.0246949
0.0232787
-0.0234442
0.0244817
-0.0194886
0.024765
-0.0129703
-0.00426009
0.0220225
-0.021757
0.0257907
-0.025634
0.028469
-0.0293698
0.030471
-0.0304079
0.0320018
-0.0284008
0.0330847
-0.0232328
0.0331825
-0.015213
-0.0048364
0.0302577
-0.0272854
0.0342474
-0.0309683
0.0370401
-0.0343526
0.0390207
-0.034876
0.0403237
-0.0320435
0.0411228
-0.0258538
0.0410096
-0.0167424
-0.00522246
0.039136
-0.0321044
0.0430184
-0.0353512
0.0456443
-0.0381731
0.047343
-0.0380209
0.0482534
-0.0344452
0.0486458
-0.0274705
0.0482917
-0.0175978
-0.00541192
0.0485154
-0.0360096
0.052025
-0.0386675
0.0542173
-0.0407567
0.0554242
-0.0399255
0.0558115
-0.0357009
0.0556924
-0.0281827
0.0550668
-0.0179144
-0.005482
0.0583374
-0.0387755
0.061135
-0.0406454
0.0626871
-0.0419228
0.0632392
-0.0404676
0.0630065
-0.0358201
0.0623224
-0.0280561
0.061395
-0.0177158
-0.00542212
0.0684715
-0.0401612
0.0702458
-0.0412147
0.0709449
-0.0416556
0.0707391
-0.0396889
0.0698208
-0.0348223
0.0685551
-0.0270995
0.0673121
-0.0170332
-0.00523771
0.0790409
-0.0402143
0.0794167
-0.0404266
0.0790039
-0.0399927
0.0778833
-0.0375853
0.076242
-0.0327261
0.0744159
-0.0253561
0.0728499
-0.0158711
-0.00488646
0.0902226
-0.0387829
0.0887745
-0.0381717
0.0869419
-0.0369706
0.0847342
-0.0342563
0.0822942
-0.0295711
0.0799297
-0.0228366
0.0780547
-0.0142624
-0.00440813
0.10197
-0.0355157
0.0984455
-0.034326
0.0949392
-0.0325604
0.0914417
-0.0296743
0.0881094
-0.0253938
0.0851942
-0.0195288
0.0830242
-0.0121507
-0.00373262
0.11403
-0.0300766
0.108338
-0.028656
0.102974
-0.0266085
0.0980443
-0.0238292
0.0937127
-0.0201401
0.0901452
-0.0153089
0.0876552
-0.00942853
-0.00287148
0.125743
-0.0221585
0.117913
-0.020827
0.110677
-0.0189223
0.104267
-0.0165873
0.0988264
-0.0136968
0.0945876
-0.0101977
0.0917855
-0.00617667
-0.00182678
0.136095
-0.0116782
0.126261
-0.0106744
0.117308
-0.009406
0.109506
-0.00796632
0.103086
-0.00634012
0.098274
-0.00453809
0.0952363
-0.00259711
-0.000556433
0.142467
0.131112
0.120964
0.112293
0.105337
0.100269
0.09723
)
;

boundaryField
{
    walls
    {
        type            calculated;
        value           uniform 0;
    }
    cylinder
    {
        type            calculated;
        value           nonuniform List<scalar> 
16
(
2.15447e-11
-2.64525e-11
-8.77395e-12
1.59661e-11
-4.49582e-11
3.25709e-11
5.04362e-11
-2.55317e-11
2.55348e-11
-5.04334e-11
-3.25679e-11
4.49626e-11
-1.59627e-11
8.777e-12
2.6455e-11
-2.15427e-11
)
;
    }
    outlet
    {
        type            calculated;
        value           uniform 0;
    }
    inlet
    {
        type            calculated;
        value           nonuniform List<scalar> 0();
    }
    frontAndBack
    {
        type            empty;
    }
    procBoundary3to1
    {
        type            processor;
        value           nonuniform List<scalar> 
16
(
-0.00484228
-0.014134
-0.0227927
-0.0309199
-0.0385862
-0.0458151
-0.0525999
-0.0589664
-0.0649439
-0.0705796
-0.0758905
-0.080955
-0.085705
-0.0900632
-0.0938499
-0.0962275
)
;
    }
    procBoundary3to2
    {
        type            processor;
        value           nonuniform List<scalar> 
16
(
0.00506614
0.0148039
0.023881
0.0323542
0.0402557
0.047608
0.0544278
0.0607411
0.0665734
0.0719987
0.0770858
0.0819482
0.0865129
0.0906247
0.0941103
0.0962844
)
;
    }
}


// ************************************************************************* //
