/*--------------------------------*- C++ -*----------------------------------*\
| =========                 |                                                 |
| \\      /  F ield         | OpenFOAM: The Open Source CFD Toolbox           |
|  \\    /   O peration     | Version:  2412                                  |
|   \\  /    A nd           | Website:  www.openfoam.com                      |
|    \\/     M anipulation  |                                                 |
\*---------------------------------------------------------------------------*/
FoamFile
{
    version     2.0;
    format      ascii;
    arch        "LSB;label=32;scalar=64";
    class       pointVectorField;
    location    "0.1";
    object      pointDisplacement;
}
// * * * * * * * * * * * * * * * * * * * * * * * * * * * * * * * * * * * * * //

dimensions      [0 1 0 0 0 0 0];

internalField   nonuniform List<vector> 
578
(
(0 0 0)
(0 0 0)
(0 0 0)
(0 0 0)
(0 0 0)
(0 0 0)
(0 0 0)
(0 0 0)
(0 0 0)
(-7.67461e-05 0.00698885 0)
(-0.00108717 0.00691575 0)
(-0.00194425 0.00642025 0)
(-0.00255457 0.00565556 0)
(-0.00287843 0.00476336 0)
(-0.00291606 0.00384361 0)
(-0.00264468 0.00292654 0)
(-0.00204373 0.0019874 0)
(-0.00162796 0.00147769 0)
(-0.000163629 0.0137091 0)
(-0.00208364 0.013545 0)
(-0.00373839 0.0126745 0)
(-0.00495652 0.0113065 0)
(-0.00566731 0.00967761 0)
(-0.00585822 0.00796835 0)
(-0.00550177 0.00626113 0)
(-0.00455658 0.00452941 0)
(-0.00391303 0.00358334 0)
(-0.000253705 0.0200916 0)
(-0.00298614 0.0198233 0)
(-0.00537228 0.018663 0)
(-0.0071856 0.0168315 0)
(-0.00832835 0.0146207 0)
(-0.00877315 0.0122678 0)
(-0.00848267 0.00989457 0)
(-0.00741353 0.0075108 0)
(-0.00669963 0.00618004 0)
(-0.000347007 0.0261607 0)
(-0.00380837 0.0257914 0)
(-0.00686988 0.0244088 0)
(-0.00926531 0.0222298 0)
(-0.0108723 0.0195646 0)
(-0.0116451 0.0166875 0)
(-0.0115484 0.0137716 0)
(-0.0105368 0.0108571 0)
(-0.00989577 0.0091867 0)
(-0.000443164 0.0319505 0)
(-0.00456391 0.0314902 0)
(-0.00824938 0.0299315 0)
(-0.0112104 0.0274897 0)
(-0.0133031 0.0244768 0)
(-0.0144662 0.0211899 0)
(-0.0146614 0.0178347 0)
(-0.0138572 0.0144972 0)
(-0.0134037 0.0125189 0)
(-0.000543787 0.0374727 0)
(-0.00526265 0.0369362 0)
(-0.00952764 0.0352481 0)
(-0.0130375 0.0326162 0)
(-0.0156294 0.0293426 0)
(-0.0172265 0.0257365 0)
(-0.0177938 0.0220379 0)
(-0.0173152 0.0183675 0)
(-0.0171476 0.0161094 0)
(-0.000650752 0.0427561 0)
(-0.00591493 0.0421595 0)
(-0.0107183 0.0403768 0)
(-0.0147579 0.0376086 0)
(-0.0178572 0.0341478 0)
(-0.0199253 0.0303059 0)
(-0.0209259 0.0263419 0)
(-0.020865 0.0224134 0)
(-0.0210528 0.0198901 0)
(-0.000766913 0.0478127 0)
(-0.00652658 0.047173 0)
(-0.0118322 0.0453314 0)
(-0.0163847 0.0424782 0)
(-0.0199967 0.0388905 0)
(-0.0225632 0.0348786 0)
(-0.0240464 0.0307151 0)
(-0.0244712 0.0265874 0)
(-0.0250755 0.0238171 0)
(-0.000896402 0.0526646 0)
(-0.00710615 0.051998 0)
(-0.012878 0.0501231 0)
(-0.0179259 0.0472245 0)
(-0.022054 0.0435662 0)
(-0.0251435 0.0394415 0)
(-0.027155 0.0351438 0)
(-0.0281333 0.0308757 0)
(-0.0291964 0.0278603 0)
(-0.00104511 0.0573174 0)
(-0.0076598 0.0566323 0)
(-0.0138643 0.0547557 0)
(-0.019389 0.0518575 0)
(-0.0240348 0.048171 0)
(-0.0276728 0.0440047 0)
(-0.0302672 0.0396387 0)
(-0.0318541 0.035266 0)
(-0.0334253 0.0320115 0)
(-0.00122264 0.0617788 0)
(-0.0081971 0.0610866 0)
(-0.0147991 0.0592326 0)
(-0.0207775 0.0563658 0)
(-0.0259372 0.0527251 0)
(-0.0301538 0.0485833 0)
(-0.0333778 0.0441979 0)
(-0.0356444 0.0397559 0)
(-0.0377681 0.0362413 0)
(-0.00144912 0.0660395 0)
(-0.0087328 0.0653401 0)
(-0.0156843 0.0635363 0)
(-0.0220855 0.0607667 0)
(-0.0277508 0.0572322 0)
(-0.0325641 0.0531692 0)
(-0.0364719 0.0488032 0)
(-0.0394746 0.044294 0)
(-0.0422037 0.0404874 0)
(-0.00175837 0.0700607 0)
(-0.00927085 0.0693615 0)
(-0.0165165 0.0676501 0)
(-0.0232907 0.0650254 0)
(-0.0294466 0.0616474 0)
(-0.0348667 0.0577084 0)
(-0.0394921 0.05337 0)
(-0.0432936 0.0487795 0)
(-0.0466879 0.0446341 0)
(-0.00218882 0.0737378 0)
(-0.00983479 0.0730465 0)
(-0.0172815 0.0714458 0)
(-0.0243663 0.0690009 0)
(-0.030965 0.0658204 0)
(-0.0369824 0.06202 0)
(-0.0423432 0.0577219 0)
(-0.0470002 0.0530383 0)
(-0.0511474 0.0484832 0)
(-0.00274587 0.0767228 0)
(-0.0104061 0.0760417 0)
(-0.0179264 0.0745626 0)
(-0.0252099 0.0723134 0)
(-0.0321648 0.0693447 0)
(-0.0387138 0.0657109 0)
(-0.0447841 0.0614791 0)
(-0.0503172 0.0567139 0)
(-0.0553254 0.0516413 0)
(-0.00305963 0.0781658 0)
(-0.0107065 0.0774895 0)
(-0.0182502 0.076067 0)
(-0.0256182 0.0739118 0)
(-0.0327395 0.0710449 0)
(-0.0395455 0.0674938 0)
(-0.0459706 0.0632927 0)
(-0.051953 0.058482 0)
(-0.0574351 0.0531081 0)
(0 0 0)
(0 0 0)
(0 0 0)
(0 0 0)
(0 0 0)
(0 0 0)
(0 0 0)
(0 0 0)
(0 0 0)
(-7.67461e-05 0.00698885 0)
(-0.00108717 0.00691575 0)
(-0.00194425 0.00642025 0)
(-0.00255457 0.00565556 0)
(-0.00287843 0.00476336 0)
(-0.00291606 0.00384361 0)
(-0.00264468 0.00292654 0)
(-0.00204373 0.0019874 0)
(-0.00162796 0.00147769 0)
(-0.000163629 0.0137091 0)
(-0.00208364 0.013545 0)
(-0.00373839 0.0126745 0)
(-0.00495652 0.0113065 0)
(-0.00566731 0.00967761 0)
(-0.00585822 0.00796835 0)
(-0.00550177 0.00626113 0)
(-0.00455658 0.00452941 0)
(-0.00391303 0.00358334 0)
(-0.000253705 0.0200916 0)
(-0.00298614 0.0198233 0)
(-0.00537228 0.018663 0)
(-0.0071856 0.0168315 0)
(-0.00832835 0.0146207 0)
(-0.00877315 0.0122678 0)
(-0.00848267 0.00989457 0)
(-0.00741353 0.0075108 0)
(-0.00669963 0.00618004 0)
(-0.000347007 0.0261607 0)
(-0.00380837 0.0257914 0)
(-0.00686988 0.0244088 0)
(-0.00926531 0.0222298 0)
(-0.0108723 0.0195646 0)
(-0.0116451 0.0166875 0)
(-0.0115484 0.0137716 0)
(-0.0105368 0.0108571 0)
(-0.00989577 0.0091867 0)
(-0.000443164 0.0319505 0)
(-0.00456391 0.0314902 0)
(-0.00824938 0.0299315 0)
(-0.0112104 0.0274897 0)
(-0.0133031 0.0244768 0)
(-0.0144662 0.0211899 0)
(-0.0146614 0.0178347 0)
(-0.0138572 0.0144972 0)
(-0.0134037 0.0125189 0)
(-0.000543787 0.0374727 0)
(-0.00526265 0.0369362 0)
(-0.00952764 0.0352481 0)
(-0.0130375 0.0326162 0)
(-0.0156294 0.0293426 0)
(-0.0172265 0.0257365 0)
(-0.0177938 0.0220379 0)
(-0.0173152 0.0183675 0)
(-0.0171476 0.0161094 0)
(-0.000650752 0.0427561 0)
(-0.00591493 0.0421595 0)
(-0.0107183 0.0403768 0)
(-0.0147579 0.0376086 0)
(-0.0178572 0.0341478 0)
(-0.0199253 0.0303059 0)
(-0.0209259 0.0263419 0)
(-0.020865 0.0224134 0)
(-0.0210528 0.0198901 0)
(-0.000766913 0.0478127 0)
(-0.00652658 0.047173 0)
(-0.0118322 0.0453314 0)
(-0.0163847 0.0424782 0)
(-0.0199967 0.0388905 0)
(-0.0225632 0.0348786 0)
(-0.0240464 0.0307151 0)
(-0.0244712 0.0265874 0)
(-0.0250755 0.0238171 0)
(-0.000896402 0.0526646 0)
(-0.00710615 0.051998 0)
(-0.012878 0.0501231 0)
(-0.0179259 0.0472245 0)
(-0.022054 0.0435662 0)
(-0.0251435 0.0394415 0)
(-0.027155 0.0351438 0)
(-0.0281333 0.0308757 0)
(-0.0291964 0.0278603 0)
(-0.00104511 0.0573174 0)
(-0.0076598 0.0566323 0)
(-0.0138643 0.0547557 0)
(-0.019389 0.0518575 0)
(-0.0240348 0.048171 0)
(-0.0276728 0.0440047 0)
(-0.0302672 0.0396387 0)
(-0.0318541 0.035266 0)
(-0.0334253 0.0320115 0)
(-0.00122264 0.0617788 0)
(-0.0081971 0.0610866 0)
(-0.0147991 0.0592326 0)
(-0.0207775 0.0563658 0)
(-0.0259372 0.0527251 0)
(-0.0301538 0.0485833 0)
(-0.0333778 0.0441979 0)
(-0.0356444 0.0397559 0)
(-0.0377681 0.0362413 0)
(-0.00144912 0.0660395 0)
(-0.0087328 0.0653401 0)
(-0.0156843 0.0635363 0)
(-0.0220855 0.0607667 0)
(-0.0277508 0.0572322 0)
(-0.0325641 0.0531692 0)
(-0.0364719 0.0488032 0)
(-0.0394746 0.044294 0)
(-0.0422037 0.0404874 0)
(-0.00175837 0.0700607 0)
(-0.00927085 0.0693615 0)
(-0.0165165 0.0676501 0)
(-0.0232907 0.0650254 0)
(-0.0294466 0.0616474 0)
(-0.0348667 0.0577084 0)
(-0.0394921 0.05337 0)
(-0.0432936 0.0487795 0)
(-0.0466879 0.0446341 0)
(-0.00218882 0.0737378 0)
(-0.00983479 0.0730465 0)
(-0.0172815 0.0714458 0)
(-0.0243663 0.0690009 0)
(-0.030965 0.0658204 0)
(-0.0369824 0.06202 0)
(-0.0423432 0.0577219 0)
(-0.0470002 0.0530383 0)
(-0.0511474 0.0484832 0)
(-0.00274587 0.0767228 0)
(-0.0104061 0.0760417 0)
(-0.0179264 0.0745626 0)
(-0.0252099 0.0723134 0)
(-0.0321648 0.0693447 0)
(-0.0387138 0.0657109 0)
(-0.0447841 0.0614791 0)
(-0.0503172 0.0567139 0)
(-0.0553254 0.0516413 0)
(-0.00305963 0.0781658 0)
(-0.0107065 0.0774895 0)
(-0.0182502 0.076067 0)
(-0.0256182 0.0739118 0)
(-0.0327395 0.0710449 0)
(-0.0395455 0.0674938 0)
(-0.0459706 0.0632927 0)
(-0.051953 0.058482 0)
(-0.0574351 0.0531081 0)
(0 0 0)
(0 0 0)
(0 0 0)
(0 0 0)
(0 0 0)
(0 0 0)
(0 0 0)
(0 0 0)
(-0.00215411 0.00187172 0)
(-0.00311023 0.00244857 0)
(-0.00402783 0.00272721 0)
(-0.00492118 0.00270662 0)
(-0.00577595 0.00239367 0)
(-0.00650775 0.0017936 0)
(-0.00697369 0.000954903 0)
(-0.00706145 -3.55519e-05 0)
(-0.00488122 0.00419378 0)
(-0.00664492 0.0051167 0)
(-0.00834159 0.00549032 0)
(-0.010004 0.00532736 0)
(-0.0115629 0.00463033 0)
(-0.0128601 0.00341956 0)
(-0.0136728 0.00179028 0)
(-0.013846 -9.68824e-05 0)
(-0.00806054 0.00686344 0)
(-0.0104751 0.00791645 0)
(-0.0128281 0.00823642 0)
(-0.0151132 0.00782452 0)
(-0.0172237 0.00669028 0)
(-0.0189529 0.0048764 0)
(-0.0200275 0.00251438 0)
(-0.0202841 -0.0001781 0)
(-0.0115981 0.00980698 0)
(-0.0145393 0.0108145 0)
(-0.0174197 0.0109469 0)
(-0.0202108 0.0102054 0)
(-0.0227531 0.008598 0)
(-0.0248044 0.00619026 0)
(-0.0260756 0.00314624 0)
(-0.0263985 -0.000273655 0)
(-0.0154173 0.0129671 0)
(-0.0187663 0.0137741 0)
(-0.0220742 0.013615 0)
(-0.0252616 0.0124754 0)
(-0.0281339 0.0103675 0)
(-0.0304313 0.00738082 0)
(-0.0318514 0.0037014 0)
(-0.0322239 -0.000380468 0)
(-0.019438 0.0162852 0)
(-0.0231092 0.0167732 0)
(-0.026749 0.0162315 0)
(-0.0302473 0.0146409 0)
(-0.033373 0.0120164 0)
(-0.0358427 0.00846344 0)
(-0.0373665 0.00418826 0)
(-0.0377749 -0.000497683 0)
(-0.023604 0.0197195 0)
(-0.0275219 0.0197868 0)
(-0.0314252 0.0187938 0)
(-0.0351571 0.0167082 0)
(-0.0384635 0.0135528 0)
(-0.0410537 0.00944853 0)
(-0.0426479 0.00461497 0)
(-0.0430789 -0.000626061 0)
(-0.0278722 0.0232332 0)
(-0.0319848 0.022802 0)
(-0.0360858 0.0212953 0)
(-0.0399899 0.0186794 0)
(-0.0434198 0.0149848 0)
(-0.0460778 0.0103426 0)
(-0.0477068 0.00498376 0)
(-0.048146 -0.000767016 0)
(-0.0322345 0.0268107 0)
(-0.0364944 0.0258048 0)
(-0.0407353 0.0237302 0)
(-0.0447463 0.0205502 0)
(-0.0482361 0.0163076 0)
(-0.0509212 0.0111445 0)
(-0.0525595 0.00529352 0)
(-0.052995 -0.000923367 0)
(-0.0367013 0.0304352 0)
(-0.0410655 0.0287815 0)
(-0.0453839 0.026079 0)
(-0.0494306 0.022305 0)
(-0.0529288 0.0175132 0)
(-0.0555945 0.0118471 0)
(-0.057209 0.00553796 0)
(-0.0576315 -0.00110089 0)
(-0.0412824 0.0340736 0)
(-0.0457137 0.0316916 0)
(-0.0500479 0.0283089 0)
(-0.0540653 0.0239137 0)
(-0.0574974 0.0185737 0)
(-0.0600985 0.0124324 0)
(-0.0616641 0.00570709 0)
(-0.0620612 -0.0013046 0)
(-0.0459694 0.0376521 0)
(-0.0504412 0.0344706 0)
(-0.0547374 0.0303537 0)
(-0.0586536 0.0253187 0)
(-0.0619606 0.0194471 0)
(-0.0644417 0.0128622 0)
(-0.0659163 0.005777 0)
(-0.066274 -0.00154796 0)
(-0.0507353 0.0410576 0)
(-0.0552271 0.0370069 0)
(-0.0594416 0.0321132 0)
(-0.0631961 0.0264386 0)
(-0.0663051 0.0200515 0)
(-0.0685985 0.013078 0)
(-0.0699361 0.00570458 0)
(-0.0702312 -0.00185159 0)
(-0.0555087 0.0440737 0)
(-0.0600004 0.0390959 0)
(-0.0640708 0.0334259 0)
(-0.0675858 0.0271282 0)
(-0.0704211 0.0202807 0)
(-0.0724606 0.0130045 0)
(-0.0736138 0.00543887 0)
(-0.0738284 -0.00225056 0)
(-0.0600532 0.0462762 0)
(-0.0644521 0.0403885 0)
(-0.0682791 0.0340021 0)
(-0.0714672 0.0271798 0)
(-0.0739536 0.0200003 0)
(-0.0756853 0.0125501 0)
(-0.0766242 0.00492786 0)
(-0.0767477 -0.00276688 0)
(-0.062364 0.0472227 0)
(-0.0666923 0.0408826 0)
(-0.0703784 0.0341488 0)
(-0.0733867 0.027086 0)
(-0.0756882 0.0197625 0)
(-0.0772608 0.0122486 0)
(-0.0780893 0.00461669 0)
(-0.0781658 -0.00305963 0)
(0 0 0)
(0 0 0)
(0 0 0)
(0 0 0)
(0 0 0)
(0 0 0)
(0 0 0)
(0 0 0)
(-0.00215411 0.00187172 0)
(-0.00311023 0.00244857 0)
(-0.00402783 0.00272721 0)
(-0.00492118 0.00270662 0)
(-0.00577595 0.00239367 0)
(-0.00650775 0.0017936 0)
(-0.00697369 0.000954903 0)
(-0.00706145 -3.55519e-05 0)
(-0.00488122 0.00419378 0)
(-0.00664492 0.0051167 0)
(-0.00834159 0.00549032 0)
(-0.010004 0.00532736 0)
(-0.0115629 0.00463033 0)
(-0.0128601 0.00341956 0)
(-0.0136728 0.00179028 0)
(-0.013846 -9.68824e-05 0)
(-0.00806054 0.00686344 0)
(-0.0104751 0.00791645 0)
(-0.0128281 0.00823642 0)
(-0.0151132 0.00782452 0)
(-0.0172237 0.00669028 0)
(-0.0189529 0.0048764 0)
(-0.0200275 0.00251438 0)
(-0.0202841 -0.0001781 0)
(-0.0115981 0.00980698 0)
(-0.0145393 0.0108145 0)
(-0.0174197 0.0109469 0)
(-0.0202108 0.0102054 0)
(-0.0227531 0.008598 0)
(-0.0248044 0.00619026 0)
(-0.0260756 0.00314624 0)
(-0.0263985 -0.000273655 0)
(-0.0154173 0.0129671 0)
(-0.0187663 0.0137741 0)
(-0.0220742 0.013615 0)
(-0.0252616 0.0124754 0)
(-0.0281339 0.0103675 0)
(-0.0304313 0.00738082 0)
(-0.0318514 0.0037014 0)
(-0.0322239 -0.000380468 0)
(-0.019438 0.0162852 0)
(-0.0231092 0.0167732 0)
(-0.026749 0.0162315 0)
(-0.0302473 0.0146409 0)
(-0.033373 0.0120164 0)
(-0.0358427 0.00846344 0)
(-0.0373665 0.00418826 0)
(-0.0377749 -0.000497683 0)
(-0.023604 0.0197195 0)
(-0.0275219 0.0197868 0)
(-0.0314252 0.0187938 0)
(-0.0351571 0.0167082 0)
(-0.0384635 0.0135528 0)
(-0.0410537 0.00944853 0)
(-0.0426479 0.00461497 0)
(-0.0430789 -0.000626061 0)
(-0.0278722 0.0232332 0)
(-0.0319848 0.022802 0)
(-0.0360858 0.0212953 0)
(-0.0399899 0.0186794 0)
(-0.0434198 0.0149848 0)
(-0.0460778 0.0103426 0)
(-0.0477068 0.00498376 0)
(-0.048146 -0.000767016 0)
(-0.0322345 0.0268107 0)
(-0.0364944 0.0258048 0)
(-0.0407353 0.0237302 0)
(-0.0447463 0.0205502 0)
(-0.0482361 0.0163076 0)
(-0.0509212 0.0111445 0)
(-0.0525595 0.00529352 0)
(-0.052995 -0.000923367 0)
(-0.0367013 0.0304352 0)
(-0.0410655 0.0287815 0)
(-0.0453839 0.026079 0)
(-0.0494306 0.022305 0)
(-0.0529288 0.0175132 0)
(-0.0555945 0.0118471 0)
(-0.057209 0.00553796 0)
(-0.0576315 -0.00110089 0)
(-0.0412824 0.0340736 0)
(-0.0457137 0.0316916 0)
(-0.0500479 0.0283089 0)
(-0.0540653 0.0239137 0)
(-0.0574974 0.0185737 0)
(-0.0600985 0.0124324 0)
(-0.0616641 0.00570709 0)
(-0.0620612 -0.0013046 0)
(-0.0459694 0.0376521 0)
(-0.0504412 0.0344706 0)
(-0.0547374 0.0303537 0)
(-0.0586536 0.0253187 0)
(-0.0619606 0.0194471 0)
(-0.0644417 0.0128622 0)
(-0.0659163 0.005777 0)
(-0.066274 -0.00154796 0)
(-0.0507353 0.0410576 0)
(-0.0552271 0.0370069 0)
(-0.0594416 0.0321132 0)
(-0.0631961 0.0264386 0)
(-0.0663051 0.0200515 0)
(-0.0685985 0.013078 0)
(-0.0699361 0.00570458 0)
(-0.0702312 -0.00185159 0)
(-0.0555087 0.0440737 0)
(-0.0600004 0.0390959 0)
(-0.0640708 0.0334259 0)
(-0.0675858 0.0271282 0)
(-0.0704211 0.0202807 0)
(-0.0724606 0.0130045 0)
(-0.0736138 0.00543887 0)
(-0.0738284 -0.00225056 0)
(-0.0600532 0.0462762 0)
(-0.0644521 0.0403885 0)
(-0.0682791 0.0340021 0)
(-0.0714672 0.0271798 0)
(-0.0739536 0.0200003 0)
(-0.0756853 0.0125501 0)
(-0.0766242 0.00492786 0)
(-0.0767477 -0.00276688 0)
(-0.062364 0.0472227 0)
(-0.0666923 0.0408826 0)
(-0.0703784 0.0341488 0)
(-0.0733867 0.027086 0)
(-0.0756882 0.0197625 0)
(-0.0772608 0.0122486 0)
(-0.0780893 0.00461669 0)
(-0.0781658 -0.00305963 0)
)
;

boundaryField
{
    walls
    {
        type            fixedValue;
        value           uniform (0 0 0);
    }
    cylinder
    {
        type            solidBodyMotionDisplacement;
        value           nonuniform List<vector> 
34
(
(-0.00305963 0.0781658 0)
(-0.00305963 0.0781658 0)
(-0.0107065 0.0774895 0)
(-0.0107065 0.0774895 0)
(-0.0182502 0.076067 0)
(-0.0182502 0.076067 0)
(-0.0256182 0.0739118 0)
(-0.0256182 0.0739118 0)
(-0.0327395 0.0710449 0)
(-0.0327395 0.0710449 0)
(-0.0395455 0.0674938 0)
(-0.0395455 0.0674938 0)
(-0.0459706 0.0632927 0)
(-0.0459706 0.0632927 0)
(-0.051953 0.058482 0)
(-0.051953 0.058482 0)
(-0.0574351 0.0531081 0)
(-0.0574351 0.0531081 0)
(-0.062364 0.0472227 0)
(-0.062364 0.0472227 0)
(-0.0666923 0.0408826 0)
(-0.0666923 0.0408826 0)
(-0.0703784 0.0341488 0)
(-0.0703784 0.0341488 0)
(-0.0733867 0.027086 0)
(-0.0733867 0.027086 0)
(-0.0756882 0.0197625 0)
(-0.0756882 0.0197625 0)
(-0.0772608 0.0122486 0)
(-0.0772608 0.0122486 0)
(-0.0780893 0.00461669 0)
(-0.0780893 0.00461669 0)
(-0.0781658 -0.00305963 0)
(-0.0781658 -0.00305963 0)
)
;
        solidBodyMotionFunction oscillatingRotatingMotion;
        oscillatingRotatingMotionCoeffs
        {
            origin          ( 0 0 0 );
            axis            ( 0 0 1 );
            omega           1.5;
            amplitude       ( 0 0 30 );
        }
    }
    outlet
    {
        type            fixedValue;
        value           uniform (0 0 0);
    }
    inlet
    {
        type            fixedValue;
        value           nonuniform List<vector> 0();
    }
    frontAndBack
    {
        type            empty;
    }
    procBoundary3to1
    {
        type            processor;
    }
    procBoundary3to2
    {
        type            processor;
    }
}


// ************************************************************************* //
