/*--------------------------------*- C++ -*----------------------------------*\
| =========                 |                                                 |
| \\      /  F ield         | OpenFOAM: The Open Source CFD Toolbox           |
|  \\    /   O peration     | Version:  2412                                  |
|   \\  /    A nd           | Website:  www.openfoam.com                      |
|    \\/     M anipulation  |                                                 |
\*---------------------------------------------------------------------------*/
FoamFile
{
    version     2.0;
    format      ascii;
    arch        "LSB;label=32;scalar=64";
    class       surfaceScalarField;
    location    "948.5";
    object      phi;
}
// * * * * * * * * * * * * * * * * * * * * * * * * * * * * * * * * * * * * * //

dimensions      [0 3 -1 0 0 0 0];

oriented        oriented;

internalField   nonuniform List<scalar> 
1171
(
-0.9278972466825256
0.9278972466774322
0.787309099968089
-1.098978643827956
0.3116695438292238
-0.1921792912125358
-0.7676318360976868
0.9598111273534647
0.07210276317194855
-0.1178078816513863
-0.2121142776775757
0.3299221594555001
-0.7873091170811767
0.0692854850160106
0.7180236320661372
0.8107195838681791
-0.1776762322753672
-0.633043351568875
0.8739625264239895
-1.043757227619726
0.1697947011975377
-0.28496119028642
-0.09837026331578333
0.3833314536122913
-0.03645790735145386
0.5486086726514889
-0.5121507653044429
-0.5090709408077487
0.8295063851442007
-0.3204354443962691
-0.4027690777692973
1.045527482601047
-0.1715649635225162
0.3939294068403191
0.05059593332316051
-0.4445253399982563
1.046161866986445
-0.0006343859691680355
0.4461381775139975
-0.05220875828818299
1.05660565312091
-0.01044379109543388
0.5800745265848968
-0.7722538196176212
-0.7240675005548578
0.556771140243343
0.1672963603181906
0.2150076467764379
-0.7240785847631551
0.54968793710424
-0.9224193629678671
0.3727314258578022
-1.094226813390875
0.6865945455883512
0.4076322678167401
-0.5954759731571919
0.5590180718329993
0.01715744343692344
-0.2556737930919492
0.2385163495300536
-0.02304416896035448
-0.5250261951613413
0.5480703644289867
0.3999970699793381
-0.4983673366790117
-0.9188796610421379
0.9416699508857582
-0.02279028985525269
1.067895767826166
-0.0112901171391107
0.9350665433274152
-1.116861525749871
0.1817949824332507
1.06744908645992
0.0004466786136634889
-0.6642778367331318
-0.05978965327536402
1.262035472338297
-0.8644619241188638
-0.3975735482140706
0.1485694227329855
-0.1098228104271797
-0.3251436185784392
0.4349664290005036
-0.2855361274405262
0.1919687332766963
0.09356739420699259
-0.5835459994412235
-0.5154326330507563
1.014147362282403
-0.07908081755420028
0.009874321085799246
0.8254910588754979
-0.835365379970194
0.5716856998269418
0.6903497664893461
0.4387858685740819
-0.03114438409177891
0.4311414530274365
-0.8079850808998027
-0.102603197282972
0.9105882781918765
0.5023954915382033
0.254131049433704
-0.7565265409851908
0.004883700265638596
0.5312727054623632
-0.5361564055918637
-0.4900066605438455
-0.6042201567309951
-0.4228250249821986
-0.6940365025070838
-0.02751530740697587
0.2708604139302387
-0.2433451065486718
-0.9249046238995136
-0.005186793315904535
0.9300914172079414
0.3080187991585703
0.07531265186676579
0.761757115817101
0.04896247403192738
-0.5328970003947308
-0.06257896706112401
0.04611692999149832
-0.8541020157939438
0.07728486660076826
0.8621758456520271
-0.9394607122642147
-0.3471097289254523
-0.04056323788618118
0.3876729667100041
-0.6822731787337341
-0.2426314455900776
-0.6334960233871286
0.7107808891152334
0.6126079916678822
0.2168983955757087
-0.5432951357537749
0.9459358058472496
-0.7790723308542163
-0.1668634750082687
0.01376446978117989
-0.005274482962724736
-0.008489986983366365
-0.403307686776352
-0.09505964816460585
-0.2418240183754598
0.8544320159258971
0.04854145316892433
0.333385377596641
-0.3819268307869384
-0.4616284568579359
0.9640239510487206
0.680334015121022
-0.7829372170805735
0.318013247190055
-0.0145284657188897
-0.3034847818753144
0.9306884210583256
-0.9306884210599993
-0.7820638986947605
0.1115308001303197
-0.3236450820071197
-0.7499729564162583
0.7598472787311032
-0.09128533914201661
-0.1428985073007051
0.2341838463636776
0.8648649121591464
-0.03937385290826427
1.054638026010622
-0.8005069745842072
0.1866693180424415
-0.3163572727535278
0.1296879547725079
0.8584589727839562
-0.09670185681982398
-0.6113793978411722
-0.03937459330756361
0.6507539911432882
0.1235166770242213
-0.230424453719019
0.1069077766558183
0.8055268210390826
-0.9832030499489041
-0.4341909844737629
0.3290515103000005
0.1051394742555437
0.5334826374034115
-0.5565268078030552
1.022033031693554
-0.4562634269296564
-0.5657696047753454
0.5992080170703863
-0.7192609586316983
0.06643128444077338
0.6528296742184458
0.1019324397403439
0.5698476583257125
0.05487508044736676
-0.6247227387637103
0.1950091782196514
-0.08347838230394844
-0.4921592372373619
0.1450495099201965
0.05031170603246737
-0.8865151714696247
0.8362034654424085
-0.4744302670563441
-0.7131950730523482
0.04891724037756536
0.436692305006425
-0.005550849639828971
0.30011580422461
-0.8553077980179029
0.5551919937685899
0.415756955316031
0.5842430446971929
0.5606272835532859
-0.5145103542827638
-0.3665546945147176
0.03937044615283539
0.327184248175049
0.6812637944761369
0.249424621722785
-0.5677995226933452
0.5726832345470499
0.1115486860309931
0.8748123203774077
0.0102880903206867
-0.6216674825996109
-0.7491149026117154
0.7994266146762872
0.5304730737619144
0.07109119129906863
0.3002598824890042
-0.371351073760417
-0.1675074756362014
0.4449868956624605
0.08628579150270387
0.8737356602885681
-0.8027836762621728
-0.07095198403755167
0.635483401137688
0.3104524068286997
-0.4308229905700929
0.5744022568727408
-0.5033110662059563
0.4170335356247672
0.1326544054947814
-0.04678977420592571
-0.5899062121264812
-0.139575323488573
0.7294815356299545
-0.149685429555404
-0.7810029964867717
-0.6110622694494284
0.3601694290340023
0.2508928404109468
0.6220531004671266
-0.6117650068306909
0.2386368263544462
1.011742423847952
0.04289560749529174
-0.7491149041841303
0.2227777577179174
-0.2090132924278297
0.6803340115562151
0.8019495262098654
-0.8019495262221557
0.8375979122959553
-0.8331128750936897
-0.004485037206650859
-0.4453351770670896
0.8610921348209332
-0.1474387591309969
-0.344720472456275
0.7347724400331
-0.6685735273443831
-0.06619891268483838
-0.735717359384132
0.1458111531782499
0.1391405169744406
-0.6720375129447828
0.7829372080609488
-0.9504446836936915
-0.3666027546343278
0.28587979679855
0.08072295735133385
0.1457023269722724
-1.009971614682063
0.8642692877120636
0.4805879292762408
-0.04180206070331052
-0.3080718528059871
0.5862274952689045
-0.2781556424531368
-0.7385227541443203
0.884225079947441
-0.1570192240224078
0.7327720372243418
-0.836594307464002
0.1038222701790615
0.9776628873835954
-0.5397349391425073
-0.4379279482569037
0.7551597476136456
-0.06489632600373921
-0.03584753204904902
0.1855591827755453
-0.1497116505924842
-0.7757740346606913
-0.8397220539373067
0.07209021682331912
-0.7499729552733064
0.513978328521828
-0.5545415629591557
0.09765921308658113
0.7160028383204394
-0.8136620514094962
0.7535999301137146
0.1742973183967035
0.5029230158545079
0.4970769841453831
-0.05517538332303613
-0.6092996861490629
0.6644750696159443
0.8788095177296196
-0.00507385926900269
-0.7551597476130042
0.7994266164394578
0.1916179717455866
-0.4472917629069647
0.01315880641279977
0.002922853922366079
-0.01608166029309249
0.5892985444110557
-0.437520120096739
-0.151778424266244
0.7180236415891775
0.01191397110984687
-0.1069500149130652
0.4387486336601334
0.1505499149228495
-0.01484703056297426
-0.007770824527546417
0.02261785506466518
-0.03225946064505106
-0.003588049813891967
0.2456610789718875
-0.2601895494527408
-0.9589687552227646
0.001770808818600706
-0.1595421387810015
-0.1209416661278529
0.09472603648692346
0.7221999333448766
0.7289352495735607
-0.1446922042611276
0.6694745161238794
-0.5718153015651114
-0.211971589747287
0.3986409050003056
0.6956271400887842
0.02239650149804051
0.2417907104782642
-1.074903577037001
-0.9504446877262527
0.3024679545433173
0.7598472777420614
-0.2093078143339877
0.06640930956025883
-0.723970741446708
0.9100464297985749
-0.18607568837005
0.4159750133477975
-0.02830204931155541
0.7713071454351981
0.2807390389481885
0.376317525954893
0.06982063935503724
-0.6587146803919186
0.6587146803934685
0.2148364691936315
0.6957518037172777
-0.0561674347628219
0.3895527984852025
0.3787989987119236
-0.012290560443663
0.0254493789886169
0.4484359829028338
0.03215195314151285
-0.7385227548898659
0.5339833195047775
0.2007891266668389
0.3005903286796253
-0.1150311493788444
-0.6956271464519368
0.1794879475592833
0.7305584827623527
-0.01028033381525649
-0.8135765910464404
0.8238569248676517
0.6964129012972569
-0.791948869049127
0.09553596776707618
-0.7535999333972354
-0.1511671167025428
0.2123496063731324
-0.06118248962287041
0.07758064370443246
-0.1781801670737946
-0.1134428048678949
0.2916229721131965
-0.00525948352525695
-0.009587538716763266
0.7064989255453933
-0.7167792604696077
0.8868933866291615
0.07291773780713845
-0.3155556261759548
-0.5203459858112053
0.8359016120280035
0.1040912772161919
-0.1040912770243218
0.3252502610932654
0.4730537160112311
0.616014131840912
-1.089067847883031
-0.1940776850097028
-0.585592367784028
0.7796700527959258
0.01372549705798455
0.2204583482201143
0.3762383488699513
-0.2527216697826459
1.015864035191472
-0.542810320952699
0.6683563249595629
0.9934625651068248
-0.3774484336453464
0.2287995934248046
0.8842250805122422
0.7126601143706921
0.2139036027990231
0.727766345863243
-0.7810029992688724
0.3412853316870429
-0.2812945953750307
0.2561066009872933
0.02518799386505882
0.8475216640358161
-0.001134648635308244
-0.8463870153918535
-0.7022163196991809
0.7026629968391984
0.5546648253421369
-0.7022163208900954
-0.7126601143745869
0.7026629947719816
-0.03431688619966116
0.909638748898616
-0.02274536285343763
-0.6812637900839263
0.6122824727971168
0.06898131728358307
0.538494721768079
0.5375847252814613
-1.076079447043129
0.4875299247194496
0.5283341097709352
0.5463758185136658
0.4574963585897722
-1.003872177107407
0.4926055559896222
0.5008570082915846
0.6122824701648378
-0.5256000946059002
-0.4661264257622567
-0.5566393398311988
-0.5144246948068462
-0.1205914656285249
-0.01261283033659245
0.01261283033429125
0.5115364589036437
0.5241724747435446
-1.038597169561687
0.572254268502695
-0.2719943854957347
-0.8839199474934707
0.3441850066481921
-0.633020050103943
0.3903886048716577
0.001485129190955919
-0.8256350797257748
0.8241499505124154
0.4208634003949896
-0.02280408411967578
0.8703257497921553
-0.9490516509819954
-0.8328458921712772
0.0543555119169483
0.7784903802347942
0.5643532719343411
-0.4399133293096762
-0.1244399425663035
0.6502719572713106
-0.7293527773084705
0.8885931144130673
-0.8282395857135886
-0.06035352870976124
-0.01367504895673121
-0.7891086290130342
-0.1107664939270446
0.7120110274745309
-0.6012445335473229
-0.9395574393173477
0.9258823909863549
-0.7253514770064095
0.689666508306222
0.03568496868694498
-0.807374635789618
0.03363652904634294
0.7737381067461589
0.06195645273046595
0.04213481862655268
0.4327702175908524
0.06045854239773617
-0.8513498356963658
0.7908912932853226
-0.6458720944000309
0.5906967160965911
0.8881899246686146
0.07286711499911591
-0.9610570396968432
0.05534402835180338
-0.04966001900435792
0.3768442732080345
-0.3819506128083868
0.06559334226884385
0.8411047786777563
-0.8396196522080867
-0.7344568955819095
-0.8166865288296462
0.02757789897103003
-0.1643127829728553
-0.8504091696771905
0.02216958121912779
0.6215291996324483
0.04794531487844496
0.02955947582953668
0.5347937941597593
-0.8127703167520216
0.846406846325709
0.5657695973338748
-0.848439169410045
-0.8666903284891088
0.0429484200221045
-0.02729983166410637
0.8354384029407141
-0.8081385712821298
-0.02625922495543858
-0.7617567257629674
0.54430037081844
0.1521125274735647
-0.02266808683159496
0.892993835435075
0.980237898916449
0.8626399618587481
-0.8404703825016737
0.14796161280449
-0.1479616129793489
-0.1177781909857262
-0.4704194062914128
0.03050607475617985
0.2703781605451089
0.03208979400073213
0.3882315174206886
0.8667346109104082
0.009329937688969904
-0.01458943915635744
0.6585829463059181
0.3414170536962838
0.7836620682798174
-0.5835460005683306
-0.7781104656572896
-0.809273218841262
-0.6798727018952778
0.6798727018915471
-0.168150431971826
-0.1554946567385069
0.6023818920599585
-0.8117012362209161
0.2093193441594466
-0.4940445901401843
-0.5689053011542268
0.2780003647563393
-0.972036864044044
-0.8999132233360598
0.8395596915480044
-0.8132282339506006
0.8408061340721389
0.6486302263976828
0.1341564248593622
-0.7827866512534662
-0.7735882481880284
-0.146403445473821
0.7247861303308537
-0.5783826848423528
0.03317861349765973
-0.01200421067806744
0.01628986681861694
-0.004285656070008657
-0.353468561118726
-0.1169508423544528
0.8803822572749382
0.7473734255377169
-0.2450028258615056
-0.5023705995920054
0.6229334854704061
0.68572237388615
-0.4708859057062518
7.297042983542106e-05
-0.2856090980945712
0.01433245522085976
0.7514090102258981
-0.7657414654742661
-0.323406636779929
-0.07318887215739267
0.07645820429763767
-0.9657363403908442
0.1193493248458273
-0.6775448107007215
0.05337387258059382
0.6397761121074552
-0.693149984680452
-0.7560097423729222
0.07846493166648058
0.5884767692655939
-0.6616656414207028
0.1575325072971991
-0.3357126762239343
-0.7710171703727432
-0.002571077805056797
0.371085474145892
0.5999542824061522
-0.02555202614865064
0.01899675937080918
-0.01899675959968344
-0.02038367315897487
-0.04854601598876126
-0.2327485823889728
0.02861064666967414
-0.01928068680778663
-0.7230718511823775
0.2792725515461488
0.6801314597116253
-0.6887385868638907
0.008607127156477811
-0.5937213744802624
0.6470952468008336
0.654102730045224
-0.06562596164454181
-0.6306730687683405
-0.1253366757452046
-1.050683930470055
0.01106289792288715
0.1368987198583276
-0.7087393912672073
-0.7414395629253449
-0.7636152885858504
0.366041734786954
-0.406903679659508
0.460110489839737
-0.05320681032184702
-0.6624412994015947
-0.04629809185820385
0.5013610824333764
0.730685719660457
-0.2358111739232927
0.1148695081582986
0.9683074138386067
0.4468230398262584
0.1327524261661006
-0.5795754659867963
-0.6766964867431753
0.01425518557146961
-0.04468230708348526
0.03267812148594321
0.6364113953222037
-0.7759867167372539
-0.001795739132035885
0.001795738996027033
-0.6010827669175857
0.6492186347662222
-0.04813586779900803
-0.6471370100874546
-0.1133433327622625
-0.6715334939468889
0.06105896727614882
0.603416104941357
-0.1374416269534184
-0.8179369342479231
-0.5723983887598429
0.5683987657638444
0.003999623288771839
0.6284658878263425
-0.6198587606838237
0.3225676378792198
0.2137798991527909
-0.536347537036899
-0.105028162269143
-0.6014071990806534
-0.09174278474309447
-0.154259726226735
-0.511339410291228
0.4041546195766414
-0.4992142665947499
0.1267680697234462
0.6785267354492812
-0.8052948051939604
0.5992080170696275
-0.3680357694692729
-0.0388678986109303
0.07875644898372168
-0.5900958585990049
0.5514391415481599
-0.04061919784181341
-0.5108199437327667
-0.3131624360952457
0.3057477341516459
0.007414702105205444
0.4536120972261916
0.1186421672694731
0.05269553653985367
-0.3165808759249455
0.1575804360877146
0.1590004398628055
0.2312083093901258
-0.008430534902354826
-0.2930912888920729
-0.309964744784732
0.3494689383238823
-0.03950419301508807
0.7877056541315077
-0.6256926490395013
-0.02144436097529533
0.4992284272159009
0.2835558908926372
-0.5285587207515332
0.5774889884403469
-0.5774889884405345
-0.2897451035321469
-0.5864524199532475
-0.2955865318727003
-0.586452420071964
-0.5950153087998082
-0.838494041127321
0.1699205182413916
-0.5951865585957267
0.8211103175221006
-0.003102421873453664
0.1174568258651555
0.4824974559082909
0.09678801095669974
0.1861044301830311
-0.03650309681289778
-0.1496013335066648
-0.02678780824494369
0.5914195615773948
-0.9441164864850592
0.4237704984162911
-0.008225387343133141
0.003905892039509243
0.004319495054575886
-0.6440086441549163
-0.1319086625504624
-0.4684962532264966
0.6012486769301036
-0.5035140986947679
-0.326382933195404
-0.2637129090338201
-0.2713949862346499
-0.1114882265975349
0.1114882267659231
0.1530119118716784
0.05933770873339066
0.1971673392912903
0.4516799488142266
-0.5710689279277468
0.1025726746919893
0.247881200384002
0.4665183767997046
0.5334816232019437
0.6433922435102342
0.08822513601219178
-0.00489171581611186
-0.08333342123731174
-0.2771071793957602
-0.5408297548243935
-0.5507338118059127
0.1148280209836301
-0.126664529356151
0.01183650839820006
-0.1054295712895947
-0.3853396723757089
-0.04967087647721978
0.6530869866766398
-0.4991160295634599
-0.144892614597255
-0.3316574322400784
0.2882997514231269
0.1282370063021425
-0.618113389593194
-0.2046535172419591
-0.2630128567855575
0.002823309533514911
-0.4217290927680522
0.3238803305673519
0.09784876214198612
-0.09561269508626202
0.2917300119239011
-0.8959501664708036
-0.4574263666127841
0.6262991803501057
-0.7732527824392638
0.6682246201725565
0.3398927750800435
-0.1240546267079527
0.2237251764001349
-0.09967054968941962
0.02723648870779225
-0.5862729742848483
0.02879969339702477
0.5574732808947742
-0.9006062463871108
0.5478839237704949
-0.6656621147830605
-0.1045567964955801
0.1099035572758578
-0.1099035572813004
-0.3165079096845554
0.3592467585873979
0.01759751111206002
0.02895338928384645
0.05927177826763767
0.5049210461699492
0.6652973517258095
-0.7362493372975233
0.03187624574648082
0.02080578487894467
-0.001809023845685911
-0.0071042389198119
0.007104239038384897
-0.4135382235836939
0.5321803917245106
0.0157639829658402
-0.01576398296962741
-0.7925398127746082
-0.06116544644106564
0.1231218936191092
-0.4566269975295662
0.5591996730469605
0.452161470702912
-0.5002973355110512
0.1503196022217629
-0.1503196024247798
0.03300325822868093
-0.007553874910695192
-0.04255449448833719
-0.9751640385406206
0.5372360882578681
-0.4667450357139839
0.04213481980636861
0.5150717019692004
0.03071536922091915
-0.5457870711769014
-0.616499271241324
0.11738324171906
-0.3290114516021324
0.01352943310626585
0.3154820183870897
-0.1558352015923626
-0.07997596722447708
-0.541038549862295
-0.04523442861045376
0.136898717653422
-0.03995809989465555
0.03816237279500747
0.08049391687096374
-0.08049391703021308
-0.5272333545269043
0.4877291545205396
-0.4149061895822265
0.1613127896802256
0.6223492785981894
-0.09707801565719267
-0.002706900172051841
0.002706900264709437
0.5329496595414493
-0.08331959814433065
0.005812284922372424
0.02699515585367129
0.03503056405360869
0.6854250434550848
-0.7687446415781178
-0.6535356750085701
0.6320913168028677
-0.1074982649423766
0.3139494808465935
0.7456937919406159
-0.0203836732133515
-0.2658098636407754
0.1507787181505906
-0.7445952771019402
0.4838905196953911
-0.4280256985066734
-0.101427575843722
0.003261814950070322
-0.01429863536148612
0.02371893363691098
0.4109509513291507
-0.121518624390433
-0.3893013236338966
0.6288507737137514
0.01971709721355996
0.009626550737914264
-0.00962655081513555
-0.350438257958249
-0.07555340120470745
-0.5602448352828354
0.5571424134287429
-0.2374974363912957
0.4647088741813277
-0.1510294775869195
0.7311040034456342
0.6698844918879676
-0.03995809809890801
-0.6177606701659152
0.5629344769814564
0.2851658085437038
-0.2804325372098628
-0.00473327151758963
0.5364786292277971
0.09342028056111
-0.03901183079429846
0.1958605048876436
-0.1568486741240943
0.1195057230868005
-0.1195057230533525
-0.8586504051691293
0.002357987312618763
-0.1136889552804577
0.140684111128596
-0.1315010420533367
0.1315010422588243
0.0208058012171108
-0.0230905719707588
0.6698249614320451
0.06073351976702203
-0.3225793187282927
-0.06276035376176121
-0.4712483805707203
-0.0464916103330657
-0.1512079754210937
0.1512079756539004
-0.05033015499461017
0.143725309668907
-0.143725309908276
0.1360480015553516
-0.1360480014357501
-0.3161650325235723
-0.114657958056674
0.2259460318876344
0.1031054832736354
0.03479348191192701
-0.821186626397009
-0.1986070739856115
0.169881371371458
0.02173660362479515
-0.2641965859709715
0.1262348932144726
-0.1262348934268655
-0.4143122784184536
-0.08490198710164916
0.2356846263358187
0.002831726700768195
0.04053580921607933
-0.5442824013778262
0.5785992875782469
-0.03740275832624476
-0.01292739717118739
-0.02547911516624288
0.01792525687456974
0.006594294825991808
-0.1848509394849247
0.1782566446121212
-0.1086419713192512
-0.2270706952207561
-0.1443335006350951
0.1443335008759698
0.07244759910089639
-0.0724475989562573
-0.01896661350791086
-0.1085293574965369
0.1274959709240034
0.236091004388089
-0.1834744869490703
-0.02759060375661132
0.02578157925847015
-0.131592296309347
0.6193214496254593
-0.0390406241220969
0.4276073810169134
-0.04322926992483317
0.06584713038564191
-0.1529117990771476
0.1529117992947958
-0.6368624297833299
0.3080661749079954
-0.07926658174154047
-0.234029742824527
0.003605282197160649
-0.1205896053466958
0.1611254145287608
0.1958978598773374
0.0957251159307041
0.09696997200312349
-0.06193940783421081
0.07316916015822961
0.04165885973549214
0.06418373799992858
0.105697630608801
-0.09938596495278447
0.2142554546876008
0.01142230810823656
-0.1186666702754279
-0.09961726100985231
0.09607119204046133
0.003546068768841651
0.01117926282560197
-0.02351217458900753
0.0373912134720119
-0.03739121344559725
0.07527089730710716
-0.05534634862181175
0.0553463486463265
-0.2243701884568247
-0.05281953599930105
0.01168620180942149
-0.1030654133072836
0.01654226624168098
0.1088417240190675
-0.1088417241446021
0.2937466188906537
-0.2708685090155838
0.1622265372150877
-0.05104555433306844
-0.2198229537770954
-0.01688798112115741
0.01688798105168342
0.3676574501361092
0.285172222938484
-0.5281366245803633
-0.09393734110331793
-0.03272718376394096
0.5289702376515967
0.2106118691801574
-0.1700847410005064
-0.3794926517154722
0.07651504042504638
-0.1471715445233754
0.1867323981978243
-0.03956085359614792
-0.06718286851526518
0.06718286840810342
0.8222088323633541
-0.5604042254631297
-0.006111845711987239
0.01729110816281632
-0.0200127908849191
-0.2874033099950433
-0.017490428984007
-0.01283245390361119
-0.1321977609196697
-0.5723134815062602
0.5561503701585671
-0.5691659158158574
-0.006874451688098525
0.1009513391301317
-0.001703832493887742
0.0168638144011235
-0.1671843245808126
-0.3360621819004364
0.2329967685528303
-0.05402299394999491
0.03505638471404413
0.1321075107862987
0.1736402184797034
0.3417399072461834
0.2758347404968296
-0.2775385730926166
-0.06145486756400835
-0.1552958023297677
-0.220500296355201
0.0745262225639083
-0.01034248657181737
0.2134319598872616
-0.1965681455170114
-0.08628090907246402
0.1594500743989751
-0.3553860149971168
0.2078942300794679
-0.191351963781895
0.08958254717065289
-0.4788838718548744
0.1738999479113074
0.1707509137142511
-0.2570318249082956
0.07345779661095365
-0.1949266727707335
0.177436243802594
0.01739316082531907
0.1420569169096049
-0.03958236244539291
0.06561506751942014
0.4673345920309931
0.02050322835768401
-0.08594876712429581
0.05364043567212949
0.1263854759340931
-0.2600611320387884
-0.2309227026931471
0.559744791523641
0.1569556475984903
0.07872897646860122
0.07456033424202059
-0.03101329418024109
-0.008903734603286148
0.004170463974127089
-0.03265197074684478
0.1706307822145499
-0.1775052339404401
-0.06222983363688762
0.01966974800529062
-0.1472433421362903
-0.05286976256148548
0.1520256482475544
0.2770363535734869
-0.03959987655991003
0.009021514916577621
-0.2553727384835306
-0.1327955039791934
0.2363442493667307
0.1783452507021308
0.1297209301312691
0.02208000082981513
0.0884553438083068
0.05245701565535537
0.4524640305065264
0.0149683568135886
0.09803139351549262
0.04299446131092156
0.07230953996116236
-0.1153040011260852
-0.2429644044312155
-0.2004252595948557
-0.01939769384192897
-0.2018475148570915
0.2747704359087537
)
;

boundaryField
{
    FrontBack
    {
        type            empty;
    }
    Top
    {
        type            calculated;
        value           uniform 0;
    }
    In
    {
        type            calculated;
        value           uniform -1;
    }
    Bottom
    {
        type            calculated;
        value           uniform 0;
    }
    Out
    {
        type            calculated;
        value           nonuniform List<scalar> 10(1.03390574320335 1.064094816625459 1.022765765592694 1.020939665588827 0.9950810835795095 1.015281702968067 1.035708933118335 1.062949891284564 0.8672340918929026 0.8820389518329159);
    }
    circle
    {
        type            calculated;
        value           uniform 0;
    }
}


// ************************************************************************* //
