/*--------------------------------*- C++ -*----------------------------------*\
| =========                 |                                                 |
| \\      /  F ield         | OpenFOAM: The Open Source CFD Toolbox           |
|  \\    /   O peration     | Version:  2412                                  |
|   \\  /    A nd           | Website:  www.openfoam.com                      |
|    \\/     M anipulation  |                                                 |
\*---------------------------------------------------------------------------*/
FoamFile
{
    version     2.0;
    format      ascii;
    arch        "LSB;label=32;scalar=64";
    class       volScalarField;
    location    "15";
    object      p;
}
// * * * * * * * * * * * * * * * * * * * * * * * * * * * * * * * * * * * * * //

dimensions      [0 2 -2 0 0 0 0];

internalField   nonuniform List<scalar> 
808
(
0.0983651
-0.00187365
0.0268489
0.0985159
-0.224671
-0.000862147
-0.0155694
0.00977115
-0.133309
-0.0478617
0.02406
-0.14621
0.00715838
-0.00688726
-0.248829
0.00550541
-0.25375
0.00201031
0.0229196
-0.0145082
0.0303775
0.373958
0.0601462
-0.0249543
0.451356
-0.177215
-0.0711056
0.000379423
0.00379343
-0.0040609
0.00108155
-0.00318061
0.00600296
0.00157431
-0.107401
0.619332
-0.00307253
0.00303687
0.00497799
0.000854751
-0.0775056
-0.0740324
0.0212513
0.0084419
-0.198014
0.0774081
0.000314721
0.000878006
-0.00135703
-0.173844
-0.0115921
-0.00444725
0.0312433
0.00175673
-0.091012
-0.00471817
0.00433929
0.0282656
-0.0405746
-0.0121775
-0.297188
-0.00963757
0.0221369
-0.206622
0.0159328
0.0320393
-0.277145
0.00371887
0.0155885
-0.27319
0.00702716
-0.302032
0.00490207
0.00398477
0.176609
0.000786033
-0.031023
-0.06901
-0.00847066
0.309331
-0.131477
-0.000608356
0.0154415
0.261235
0.00454474
-0.0513162
-0.344739
-0.109981
0.00726062
-0.188164
0.0178899
-0.117832
0.247788
0.149261
0.0282108
-0.293231
0.000276871
-0.13625
-0.127974
-0.258324
-0.00338138
-0.0219371
0.0193888
-0.0454516
-0.143241
0.0460507
-0.216784
0.00543853
-0.00755284
0.0197725
-0.0992138
0.328603
0.000829912
0.0142063
-0.0024591
0.44461
-0.00796498
-0.259043
0.00493317
0.0362178
-0.333416
0.0211878
-0.00431581
0.0372265
0.103457
-0.0548491
0.0892221
0.0326885
0.0109064
0.0554639
-0.291428
0.0090352
-0.0751498
0.119329
0.00794086
-0.00926048
0.0253818
-0.00173231
0.00235923
-0.0134452
-0.279048
0.0275813
0.0304834
0.00534771
-0.0350462
0.025389
0.0764686
0.139407
-0.170221
0.00321317
0.00319415
0.339465
0.010165
0.530421
-0.274337
-0.103131
0.000517485
-0.209566
0.0223034
-0.12376
-0.291671
-0.279366
-0.28947
-0.000194766
0.0475066
0.00858757
0.00202514
-0.292243
-0.000559437
0.0194564
0.0185628
0.15162
0.0246217
0.112789
0.00143854
0.0511701
0.0587863
-0.165364
0.00656243
-0.325835
0.017865
-0.141387
-0.00449276
0.25129
-0.242849
0.106563
0.00533969
-0.182113
0.0142011
-0.129656
-0.266852
-0.099498
0.00442366
0.0634421
-0.00435923
-0.260899
0.0030534
0.0163414
-0.00361699
0.0704941
0.0453926
0.0114722
0.00706407
-0.296542
0.36967
-0.265574
-0.2902
-0.00515015
0.0282856
0.00131473
0.000166643
-0.371761
-0.305274
0.00135813
0.0170381
0.00247817
-0.308204
-0.0383749
0.00740678
0.0223079
0.0211613
-0.0881926
0.0120476
0.0120791
0.00106442
0.0041937
0.114842
-0.319911
0.0308118
-0.000665624
0.10793
0.00144598
0.00254569
0.00128321
-0.113324
0.022726
-0.00598036
-0.000706301
0.00313786
-0.00357109
0.00294424
0.0010536
0.00289762
-0.0041465
-0.00207062
0.000245251
6.97773e-05
0.000615503
0.00311184
0.020245
-0.298883
0.00147028
0.00070323
-0.167268
-0.00239574
-0.0074227
0.0149282
-0.00014945
0.00390667
0.11982
0.0195205
0.00288153
0.00348939
0.0659088
0.0120411
0.00734782
0.0136911
0.0170701
0.013877
0.0341086
0.0289008
-0.367327
0.271347
0.00459889
-0.0911666
0.0126327
0.00472349
0.00554757
-0.26837
0.267742
0.0102988
0.0350605
0.0177489
0.0659479
-0.202797
0.00894093
0.028486
0.0645628
0.0153578
0.0255705
0.00508362
0.0178682
0.0171097
0.0220343
0.0257521
0.0159241
0.0363621
0.0478845
0.0142441
0.0168537
0.0112818
0.00667089
0.0236854
0.00769471
-0.483066
-0.106676
0.0358312
0.0399868
-0.190395
-0.240193
0.00946474
0.00617996
-0.293484
0.110608
0.142008
0.00211157
0.0010224
0.0312929
3.4255e-05
-0.213516
0.011376
0.000486275
0.00957094
0.0105113
0.00926361
0.0103063
0.0393886
-0.0256074
0.0128424
-0.27676
0.027627
0.0125868
0.0474747
0.0692054
-0.00523588
0.225367
0.0104249
-0.180622
0.540319
0.0558132
-0.00158118
0.00892423
-0.09332
-0.0556284
0.0371517
0.0107061
-0.031884
0.0119669
-0.0699214
-0.242909
0.0471276
0.0969969
-0.0712815
-0.269002
-0.295707
-0.303354
-0.294898
0.0588468
0.00839254
-0.00373753
-0.0469887
-0.0608574
-0.00188981
0.00877729
0.000641507
-0.47663
0.0648933
0.0127044
0.0117076
-0.352991
0.0679445
0.00443945
0.0939624
-0.317524
0.0472055
-0.0419349
0.049817
0.0694726
-0.28081
0.0148226
-0.295057
-0.00792037
0.0676529
0.0130491
-0.00664032
0.00666664
-0.178006
-0.314872
-0.0140197
-0.0140108
-0.0988002
-0.000839343
-0.0207882
0.0110705
-0.036451
-0.0191933
-0.241082
0.0218389
0.00274091
-0.00717694
-0.370675
-0.179424
0.0552828
-0.00921328
-0.157642
-0.0653946
0.415897
-0.306814
0.00459477
-0.136242
0.00429408
0.0263672
0.00498229
0.0172873
-0.02678
0.0348981
-0.0863134
-0.026584
-0.00513267
-0.00645245
-0.00750884
-0.00618214
0.0144301
0.0976714
-0.017487
-0.00315907
0.00284662
0.0142821
-0.0771784
0.0099416
-0.358953
-0.0652655
0.0190594
0.00598707
-0.234848
-0.309386
-0.0380743
-0.0859046
-0.0427217
0.00888485
-0.172452
-0.236562
0.235115
-0.289281
-0.428469
-0.32271
-0.0522538
-0.0865902
-0.31488
0.343602
-0.0840687
-0.289093
-0.00946874
0.0451974
0.563545
-0.00233682
-0.00501026
0.0428888
-0.0900228
-0.0294324
-0.305333
-0.259717
0.0229448
0.0447351
0.0324021
-0.251163
-0.285758
-0.21126
-0.00062127
0.0162777
0.0816615
-0.0385955
-0.07579
0.0681832
-0.036094
0.00817202
-0.210247
-0.291672
-0.0320683
-0.101587
0.00382102
-0.00210664
0.0600528
-0.0600272
0.0092178
-0.432211
0.444197
-0.302441
-0.280508
-0.051665
0.00700435
-0.277199
-0.265726
0.10279
-0.308756
-0.202583
0.856752
-0.00152618
-0.326268
-0.0122568
-0.100364
0.00219923
-0.436061
-0.275061
-0.287945
0.00158921
-0.26943
-0.330844
-0.0240222
-0.0377191
0.102168
-0.286241
0.0208232
-0.470999
-0.31051
-0.370895
-0.120459
0.0116109
-0.00477404
0.0955366
0.1119
-0.0519209
-0.277405
0.296186
0.0473254
0.00551171
-0.406256
-0.466954
-0.304539
0.0192374
-0.320712
0.0489881
0.0123717
-0.0269541
-0.260716
-0.220953
0.0019269
-0.289528
-0.270347
-0.005704
-0.0248681
-0.194331
-0.0229064
0.0267057
-0.354496
-0.304103
-0.122881
0.0946612
0.00884578
-0.304945
-0.277172
-0.341645
-0.218788
0.0328788
0.0921052
-0.00161172
-0.335046
-0.286346
0.0963601
0.00776082
-0.179399
0.0189597
0.0181776
-0.318713
0.0207619
-0.256508
0.02385
-0.27843
0.0312082
-0.00239717
-0.349989
-0.437889
-0.000331319
-0.449873
-0.430153
0.0217279
-0.0592829
-0.268369
0.00018332
-0.283373
0.0171569
0.0778961
0.0454117
-0.278798
0.0228283
0.0568545
-0.432386
0.00982883
-0.293317
0.0024186
-0.303813
-0.490046
0.0896688
0.273495
0.437397
0.00743639
-0.0045617
-0.000616751
-0.31177
0.642432
0.00312287
-0.200019
0.0118944
-0.0685424
0.0679418
0.485681
-0.355329
-0.0581954
-0.0510209
0.0199843
-0.00778209
-0.434306
-0.270976
-0.292486
-0.281552
-0.266043
-0.0148977
-0.345046
0.0481219
-0.254096
-0.294758
0.517449
0.591623
-0.286806
0.107711
-0.272244
-0.0428091
-0.0402165
0.41324
-0.0497548
-0.295578
0.0417566
-0.488486
-0.0320099
-0.187923
-0.0137251
-0.301944
-0.25987
-0.00014051
-0.00215633
-0.297207
0.439904
0.674742
-0.302407
-0.2851
-0.300997
-0.0659771
-0.29268
-0.270756
-0.170046
-0.296602
0.756806
-0.327186
0.735857
-0.388731
0.321479
-0.290083
-0.0077831
0.176577
-0.481302
0.216145
-0.259344
-0.297888
-0.325075
0.869473
-0.273261
0.199342
0.139479
0.636441
0.111698
-0.297481
-0.266327
-0.207192
-0.00480758
0.0943569
0.51238
-0.00199288
-0.0289641
-0.273515
0.128364
-0.121182
-0.3454
0.0144624
-0.266897
-0.15602
-0.142037
-0.339832
-0.00876988
0.089651
-0.01606
0.0704179
0.0982544
-0.319136
-0.339457
-0.0165749
0.00448848
-0.445792
-0.49274
0.184134
0.193067
0.0732088
0.671829
-0.0801836
-0.258783
-0.366812
-0.28735
-0.0612463
0.0875449
0.762439
-0.432126
0.368518
-0.0241434
-0.408342
0.151288
-0.0645097
0.37795
-0.148897
0.0035827
-0.303775
-0.0792549
0.188396
0.806864
0.327091
0.76112
-0.314807
-0.286888
-0.39044
0.172039
0.267062
0.0544901
0.38473
0.130316
0.493605
0.279627
-0.00521141
-0.183647
0.0175461
-0.284569
0.880277
0.405819
0.653861
0.509065
-0.252337
-0.30764
-0.272544
-0.284129
0.0397982
-0.390863
0.097723
0.597713
-0.321727
-0.0035173
-0.284947
0.183785
-0.316759
-0.351853
-0.187704
-0.271339
-0.288232
-0.296633
-0.312766
-0.149685
-0.388599
-0.13182
-0.226888
0.146486
0.647004
-0.207773
-0.292192
0.827786
-0.292874
0.28014
-0.223996
0.380132
0.0743459
-0.307741
-0.379254
0.449187
-0.268136
-0.307056
0.183295
-0.261623
-0.0401878
-0.283503
-0.107425
0.0191025
0.564033
0.775923
-0.279886
0.218037
-0.293865
0.819124
-0.0281072
-0.299002
-0.0428194
0.757499
0.205578
-0.306275
-0.270085
0.448135
-0.201718
0.0404955
0.356858
0.252251
0.288759
-0.239618
-0.293719
0.68518
)
;

boundaryField
{
    FrontBack
    {
        type            empty;
    }
    Top
    {
        type            zeroGradient;
    }
    In
    {
        type            zeroGradient;
    }
    Bottom
    {
        type            zeroGradient;
    }
    Out
    {
        type            fixedValue;
        value           uniform 0;
    }
    circle
    {
        type            zeroGradient;
    }
}


// ************************************************************************* //
