/*--------------------------------*- C++ -*----------------------------------*\
| =========                 |                                                 |
| \\      /  F ield         | OpenFOAM: The Open Source CFD Toolbox           |
|  \\    /   O peration     | Version:  2412                                  |
|   \\  /    A nd           | Website:  www.openfoam.com                      |
|    \\/     M anipulation  |                                                 |
\*---------------------------------------------------------------------------*/
FoamFile
{
    version     2.0;
    format      ascii;
    arch        "LSB;label=32;scalar=64";
    class       surfaceScalarField;
    location    "15";
    object      phi;
}
// * * * * * * * * * * * * * * * * * * * * * * * * * * * * * * * * * * * * * //

dimensions      [0 3 -1 0 0 0 0];

oriented        oriented;

internalField   nonuniform List<scalar> 
1171
(
-0.945145
0.945145
0.774132
-1.08708
0.312951
-0.281432
-0.743031
1.02446
0.0548552
-0.065303
-0.278564
0.343867
-0.774132
0.0909647
0.683167
0.937296
-0.217279
-0.720017
0.836668
-1.04173
0.205062
-0.358829
-0.0363414
0.395171
-0.00352126
0.60807
-0.604549
-0.512046
0.928339
-0.416293
-0.424132
1.00717
-0.170501
0.231491
0.0953902
-0.326881
0.986738
0.0204313
0.263504
-0.0320127
1.01126
-0.0245185
0.644942
-0.926374
-0.786796
0.608982
0.177814
0.290143
-0.802189
0.557844
-0.91391
0.356066
-1.08092
0.672116
0.408806
-0.646021
0.6425
0.0304798
-0.24929
0.21881
0.038046
-0.634017
0.595971
0.468917
-0.505258
-0.837321
0.859976
-0.0226554
0.996673
0.0145829
0.891516
-1.05133
0.159816
1.00595
-0.00927713
-0.699358
-0.0874379
1.24217
-0.82991
-0.412258
0.168629
-0.0776323
-0.414972
0.492604
-0.27314
0.186428
0.0867117
-0.606207
-0.480876
0.957592
-0.0660759
-0.0271607
0.87735
-0.850189
0.515275
0.726893
0.530438
0.0234399
0.445477
-0.791232
-0.105467
0.896699
0.584727
0.226616
-0.811343
0.0596254
0.583486
-0.643111
-0.509913
-0.571009
-0.381991
-0.669341
0.0289032
0.245852
-0.274755
-0.946711
-0.035868
0.982579
0.377409
0.0177613
0.838248
0.0990482
-0.605107
-0.0409146
0.0353784
-0.82661
0.105366
0.904207
-1.00957
-0.404614
0.0289863
0.375627
-0.710994
-0.235717
-0.689498
0.794864
0.678593
0.249747
-0.581109
0.993339
-0.819816
-0.173523
-0.108367
-0.018895
0.127262
-0.460823
-0.0444358
-0.292889
0.971481
-0.00978486
0.439351
-0.429566
-0.486004
1.07073
0.715234
-0.820701
0.397763
-0.0778964
-0.319866
0.760334
-0.760334
-0.902297
0.039289
-0.317853
-0.691436
0.664275
-0.0321032
-0.144604
0.176707
0.884193
-0.00684295
1.02982
-0.803208
0.225972
-0.322058
0.0960854
0.972422
-0.134174
-0.675701
-0.0472736
0.722975
0.14831
-0.230032
0.0817223
0.793451
-1.01073
-0.439682
0.30946
0.130222
0.675439
-0.637393
0.854827
-0.386085
-0.468742
0.472836
-0.693899
0.0352985
0.658601
0.161078
0.664716
0.0487858
-0.713502
0.134943
-0.0956544
-0.509929
0.105316
0.0356384
-0.905544
0.869906
-0.538626
-0.759774
0.0604163
0.502534
-0.0570567
0.276034
-0.833484
0.557449
0.424664
0.575336
0.599716
-0.564337
-0.387978
-0.0236196
0.411598
0.541751
0.218583
-0.664136
0.723761
0.0875617
0.884416
0.00369079
-0.679392
-0.764264
0.799902
0.617443
0.102034
0.363321
-0.465355
-0.154494
0.534252
0.0492343
0.903471
-0.80049
-0.102981
0.655025
0.338314
-0.431919
0.696046
-0.594013
0.409202
0.148642
-0.055969
-0.708344
-0.190762
0.899106
-0.127682
-0.632652
-0.612798
0.36188
0.250919
0.660484
-0.656793
0.311764
1.01315
0.016675
-0.764264
-0.160017
0.0516505
0.715234
0.783273
-0.783273
0.845128
-0.830955
-0.0141728
-0.453796
0.87846
-0.192336
-0.317593
0.763639
-0.669649
-0.0939906
-0.870701
0.162357
0.109317
-0.714424
0.820701
-0.975195
-0.190295
0.189653
0.000641491
0.111819
-0.984633
0.872814
0.549812
-0.0193742
-0.288805
0.594294
-0.305488
-0.646876
0.758696
-0.159332
0.691621
-0.885089
0.193468
1.09869
-0.636219
-0.462474
0.727304
-0.0704103
0.00105496
-0.001092
3.70402e-05
-0.800689
-0.908872
0.16584
-0.691436
0.5746
-0.545614
0.125198
0.677952
-0.80315
0.778436
0.166708
0.49115
0.50885
-0.0467123
-0.699371
0.746083
0.912314
-0.00884267
-0.727304
0.799902
0.181361
-0.430651
-0.0329214
0.0187374
0.0141839
0.671804
-0.430695
-0.241109
0.683167
-0.0471407
-0.217251
0.561915
0.109888
-0.0180334
0.000697835
0.0173356
0.00613212
-0.00507716
0.132479
-0.210375
-0.942605
0.028516
-0.142703
-0.057816
0.132389
0.777842
0.741852
-0.166516
0.569401
-0.444202
-0.162585
0.388558
0.630201
0.0529661
0.229809
-1.06076
-0.975195
0.320353
0.664275
-0.161082
0.016478
-0.806358
1.00483
-0.198474
0.480208
-0.104581
0.799496
0.306101
0.254213
0.00929109
-0.680612
0.680612
0.225397
0.671302
-0.0191187
0.45847
0.473486
0.00121053
-0.0341319
0.545227
0.00458551
-0.646876
0.570879
0.19276
-0.00370994
0.00261794
-0.630201
0.168916
0.835917
-0.0157856
-0.706216
0.722002
0.760304
-0.821594
0.0612902
-0.778436
-0.0323163
0.0456575
-0.0133411
0.0860901
-0.120226
-0.103105
0.223331
-0.00630843
-0.011725
0.710778
-0.726563
0.90735
0.117113
-0.37584
-0.530249
0.906089
-0.00174271
0.00174271
0.166033
0.456532
0.62644
-1.08297
-0.195533
-0.546507
0.74204
-0.0204648
0.197172
0.38071
-0.2324
1.05893
-0.602393
0.773007
1.02383
-0.397387
0.188374
0.758696
0.588194
0.214427
0.64555
-0.632652
0.319388
-0.0313955
-0.0121562
0.0435517
0.915316
-0.0293473
-0.885969
-0.563676
0.554399
0.546204
-0.563676
-0.588194
0.554399
0.0113029
0.944666
-0.0373158
-0.541751
0.485743
0.0560076
0.524189
0.594444
-1.11863
0.50299
0.555935
0.608885
0.489675
-1.09856
0.51906
0.504767
0.485743
-0.494746
-0.509724
-0.605618
-0.571861
-0.207137
-0.00645446
0.00645446
0.588969
0.537851
-1.10971
0.724576
-0.361255
-1.03205
0.395834
-0.684524
0.448808
-0.0235474
-0.94731
0.970857
0.453047
-0.0441451
0.959461
-1.06534
-0.991212
0.0801971
0.911015
0.254325
-0.175892
-0.078433
0.720762
-0.786838
0.959794
-0.967403
0.00760889
-0.00545032
-0.79504
-0.175228
0.900172
-0.724945
-0.991355
0.985904
-0.702415
0.587027
0.115388
-0.775689
0.0352359
0.740453
0.00325011
-0.00499282
0.424676
0.105544
-0.946488
0.840944
-0.787758
0.741046
1.02827
0.0885898
-1.11686
0.0370597
-0.00686237
0.41846
-0.361221
0.0391633
0.930408
-0.953956
-0.658576
-0.782354
-0.0126856
-0.165119
-0.948468
-0.0189349
0.508947
0.0604538
-0.104991
0.359316
-0.692688
0.727924
0.468742
-0.991455
-0.902765
0.0419007
-0.094292
0.704193
-0.609901
0.0223893
-0.752868
0.578386
0.181918
-0.0115052
0.970966
1.0661
0.931905
-0.95084
0.0460046
-0.0460046
-0.0754775
-0.0970217
-0.0788702
0.342005
-0.021652
0.207072
0.993356
0.0133261
-0.0196345
0.65813
0.34187
0.797251
-0.606207
-0.750242
-0.639248
-0.531743
0.531743
-0.209173
-0.10868
0.643701
-0.943848
0.300147
-0.500994
-0.526817
0.343868
-1.01321
-0.9654
0.973009
-0.755879
0.743193
0.657253
0.202867
-0.86012
-0.523861
-0.18756
0.861641
-0.674082
-0.0279554
0.0104009
0.00183119
-0.0122321
0.036522
-0.133544
0.987569
0.590495
-0.283501
-0.306994
0.512062
0.751125
-0.525729
0.0141548
-0.287295
0.0573443
0.75607
-0.813414
-0.355955
-0.0639968
0.143905
-1.01739
0.131425
-0.740981
0.123948
0.734816
-0.858763
-0.891424
0.150442
0.721788
-0.785784
0.232876
-0.353102
-0.535437
0.0115768
0.368547
0.727185
-0.0311384
-0.00326644
0.00326644
-0.00575663
-0.00235285
-0.0290426
-0.0149703
0.0282964
-0.474984
0.337686
0.741219
-0.833864
0.092645
-0.715048
0.838996
0.804503
-0.0827154
-0.707934
-0.183489
-1.10661
0.0210006
0.025004
-0.417639
-0.883162
-0.840966
0.428708
-0.221109
0.275407
-0.054298
-0.457096
0.0394562
0.514927
0.712985
-0.0427201
-0.0150959
1.00582
0.513049
0.186536
-0.699585
-0.367254
-0.0898419
-0.00198309
0.012384
0.725737
-0.916499
0.00540744
-0.00540744
-0.713822
0.745431
-0.0316088
-0.472245
-0.120204
-0.697779
0.0989486
0.647134
-0.0527811
-0.885339
-0.267899
0.27428
-0.00638089
0.792067
-0.699422
0.346211
0.256714
-0.602924
-0.157424
-0.717139
-0.141624
-0.200774
-0.16895
0.471792
-0.516228
0.171068
0.737802
-0.90887
0.472836
-0.190894
-0.030215
-0.0725256
-0.0964248
0.594583
-0.0938337
-0.500749
-0.286397
0.307532
-0.0211348
0.567689
0.156887
0.0873639
-0.313329
0.171421
0.141908
-0.103286
-0.0567314
-0.303696
0.175812
-0.0301411
-0.14567
0.904431
-0.317826
-0.154418
0.555062
0.303931
-0.587432
0.452359
-0.452359
-0.228568
-0.448725
-0.233822
-0.448725
-0.688153
-0.85072
0.181071
-0.396696
0.733858
0.0489696
0.156309
0.570876
0.109027
0.118199
0.0105715
-0.12877
-0.122416
0.693035
-1.0233
0.493052
-0.00927933
0.0580767
-0.0487974
-0.756797
-0.178281
-0.559661
0.746198
-0.522434
-0.00385843
-0.0925663
-0.341519
-0.0797554
0.0797554
0.0465267
-0.000869265
0.139199
0.218675
-0.723998
0.164337
-0.0214355
0.473292
0.526708
0.82841
0.0148292
0.0220629
-0.036892
-0.299453
-0.585886
-0.523272
0.115409
-0.12001
0.00460129
-0.121038
-0.411427
-0.113362
0.760496
-0.591558
-0.16524
-0.0227534
-0.00249941
0.174161
-0.404746
-0.198602
-0.185179
-0.0251959
-0.471976
0.428738
0.0432376
-0.0101215
0.294583
-0.865591
-0.535688
0.63808
-0.870191
0.712767
0.451608
-0.0317431
0.0562722
-0.0245291
0.139574
-0.633983
-0.00870341
0.642686
-0.894056
0.649366
-0.724843
-0.0502915
0.00673985
-0.00673985
-0.299174
0.437152
-0.0186915
-0.00678847
0.0216176
0.586304
0.589921
-0.692902
0.011949
0.000715702
-0.00398214
0.00481265
-0.00481265
-0.485922
0.64281
0.0155307
-0.0155307
-0.780329
-0.00784962
0.0110997
-0.494297
0.658634
0.56677
-0.598379
0.0692669
-0.0692669
0.00300732
-0.0371392
0.0119932
-1.05726
0.594785
-0.54022
-0.00499282
0.60743
0.00433334
-0.611764
-0.71234
0.120782
-0.314637
-0.0130265
0.327664
-0.0213308
-0.0213893
-0.607596
-0.0263864
0.025004
0.00567333
-0.000265884
-0.00292363
0.00292363
-0.367188
0.221517
-0.460063
0.133425
0.663826
-0.128709
0.00509762
-0.00509762
0.50859
-0.0454304
0.00848256
0.0182641
-0.000180168
0.628989
-0.674419
-0.777653
0.623235
-0.103069
0.329525
0.763952
-0.00575663
-0.0879922
0.0906102
-0.650209
0.549452
-0.257685
-0.10491
-0.0292107
-0.0261389
0.00709261
0.478071
-0.0857011
-0.415048
0.705924
0.00164181
0.00373129
-0.00373129
-0.209585
-0.148513
-0.569883
0.618852
-0.134848
0.508593
-0.200731
0.845673
0.843477
0.00567333
-0.725469
0.626227
0.0241327
-0.00669129
-0.0174415
0.613113
0.0830181
-0.0118651
0.0657705
-0.0539055
0.00894143
-0.00894143
-0.755386
0.0232623
-0.0435449
0.061809
-0.0855453
0.0855453
0.000715702
-0.000659001
0.748893
0.0870235
-0.316163
-0.095264
-0.521663
0.0013793
-0.0661824
0.0661824
-0.0338847
0.0815505
-0.0815505
0.026369
-0.026369
-0.358091
-0.0738288
0.23899
0.0704702
0.0333836
-0.728568
-0.0606307
0.159619
0.0217415
-0.2391
0.0815703
-0.0815703
-0.468057
-0.0481716
0.228444
-0.00963351
0.0027497
-0.665002
0.653699
0.0161636
-0.0500483
0.0319123
-0.0690515
-0.0122836
-0.157452
0.169735
-0.148686
-0.204416
-0.0806548
0.0806548
0.0540452
-0.0540452
-0.0277698
-0.0936743
0.121444
-0.0345121
-0.190312
0.000283156
-0.0042653
-0.21902
0.440537
-0.0257101
0.439614
0.00904361
0.00829199
-0.0505745
0.0505745
-0.733547
0.315646
-0.127273
-0.207198
-0.0228345
-0.0171488
0.0198985
0.193033
0.0302977
-0.00242157
0.00224141
0.0855001
0.0299088
0.0563114
0.103308
-0.0225937
0.00749779
-0.00167615
0.00570268
0.00489651
0.00138535
-0.00628186
-0.00301559
0.0106854
0.0272335
-0.0272335
0.0486217
-0.04336
0.04336
-0.1898
0.0139947
0.0309223
-0.0756478
0.0174276
0.0778701
-0.0778701
0.236271
-0.234912
0.0862263
-0.0663476
-0.168565
-0.0148698
0.0148698
0.40846
0.250141
-0.520676
-0.0804206
-0.0395896
0.541885
-0.00259981
-0.0576946
-0.464324
0.0836493
-0.151555
0.168634
-0.017079
-0.0479613
0.0479613
0.847602
-0.589642
-0.00484148
0.00182589
-0.00578996
-0.28696
1.97759e-05
0.00489055
-0.0441527
-0.630638
0.569835
-0.660836
0.0144724
0.147819
0.0156078
0.0242055
-0.157345
-0.333276
0.257628
-0.0545814
0.0268117
0.173158
0.134375
0.208451
0.262492
-0.246884
0.00463062
-0.113803
-0.220224
0.0669451
-0.0106337
0.159425
-0.13522
-0.068324
0.153824
-0.404123
0.120253
-0.102825
0.0585348
-0.473583
0.173524
0.179591
-0.247915
0.00826384
-0.178567
0.178586
0.00370012
0.150124
-0.0278294
0.0482552
0.460335
0.0123637
0.0138107
-0.00142239
0.0356701
-0.237303
-0.203054
0.590724
0.166833
0.0616107
0.0745846
-0.0642274
0.061023
-0.0784645
-0.0304005
0.165162
-0.15069
0.0209033
-0.00910678
-0.105508
-0.0284426
0.0284011
0.251961
-0.0127166
-0.00802843
-0.308997
-0.00739458
0.218755
0.138755
0.176892
0.0565997
0.095734
0.0534725
0.532832
-0.00795801
0.106008
0.0410342
0.067419
-0.108453
-0.270535
-0.195354
0.0267896
-0.221622
0.282207
)
;

boundaryField
{
    FrontBack
    {
        type            empty;
    }
    Top
    {
        type            calculated;
        value           uniform 0;
    }
    In
    {
        type            calculated;
        value           uniform -1;
    }
    Bottom
    {
        type            calculated;
        value           uniform 0;
    }
    Out
    {
        type            calculated;
        value           nonuniform List<scalar> 10(1.11187 1.01894 1.11534 1.075 1.08412 1.07663 1.12682 1.02781 0.680928 0.682547);
    }
    circle
    {
        type            calculated;
        value           uniform 0;
    }
}


// ************************************************************************* //
