/*--------------------------------*- C++ -*----------------------------------*\
| =========                 |                                                 |
| \\      /  F ield         | OpenFOAM: The Open Source CFD Toolbox           |
|  \\    /   O peration     | Version:  2412                                  |
|   \\  /    A nd           | Website:  www.openfoam.com                      |
|    \\/     M anipulation  |                                                 |
\*---------------------------------------------------------------------------*/
FoamFile
{
    version     2.0;
    format      ascii;
    arch        "LSB;label=32;scalar=64";
    class       volVectorField;
    location    "15";
    object      U;
}
// * * * * * * * * * * * * * * * * * * * * * * * * * * * * * * * * * * * * * //

dimensions      [0 1 -1 0 0 0 0];

internalField   nonuniform List<vector> 
808
(
(0.890791 -0.0119387 0)
(1.02616 -0.0374323 0)
(1.1604 0.0723428 0)
(1.07078 0.0112082 -2.07772e-21)
(1.47748 -0.295529 0)
(0.95868 -0.026152 0)
(1.14343 -0.0608422 2.89765e-21)
(1.11624 -0.0291296 0)
(1.35486 -0.23266 2.61078e-20)
(1.23617 -0.0941806 -1.2433e-20)
(1.12808 -0.0678152 5.30307e-21)
(1.38293 -0.265352 0)
(1.00143 -0.0292816 0)
(0.734887 -0.0270837 0)
(0.911808 0.055652 1.76638e-20)
(1.07808 -0.0232782 0)
(0.799234 0.018622 -5.42285e-21)
(0.99996 -0.027181 -1.06096e-23)
(1.15994 0.0624187 0)
(1.1182 0.00339608 0)
(1.16592 -0.0862088 -7.40134e-21)
(0.93028 0.122752 1.0856e-19)
(1.07626 0.0142611 -1.06068e-20)
(1.1805 -0.032034 0)
(0.948724 0.17941 0)
(1.32751 0.0622467 -3.01004e-20)
(1.28383 -0.181371 1.0143e-20)
(0.945135 -0.000600761 -4.31428e-22)
(1.06964 -0.0192986 0)
(1.03022 0.0378502 -3.83787e-22)
(0.981848 -0.0203766 4.14224e-26)
(1.12493 -0.012147 0)
(1.01576 0.0113773 0)
(1.05069 -0.00712971 3.2114e-22)
(1.31173 -0.0756461 1.03066e-20)
(0.740746 -0.119001 1.09502e-19)
(0.872068 -0.0319574 1.32363e-22)
(0.998309 0.0254387 3.40503e-22)
(1.19301 0.0478286 -2.77821e-22)
(1.08466 0.0245461 0)
(1.26899 -0.0675233 -2.06898e-20)
(1.27961 -0.135754 0)
(1.00688 0.00184444 -4.96137e-21)
(1.10304 -0.0550644 3.23232e-21)
(1.20668 0.0075234 0)
(1.01012 0.0169872 -1.72614e-20)
(0.97844 0.0399269 -1.69108e-22)
(1.25538 -0.256587 8.3249e-21)
(1.17117 0.0502069 3.1482e-22)
(1.41175 -0.19182 -3.77178e-20)
(1.13566 -0.064665 -4.05856e-21)
(1.15285 -0.0745733 0)
(1.12255 -0.00128689 4.39325e-21)
(1.08767 -0.0107212 0)
(1.31215 0.23498 5.07304e-21)
(1.06214 0.0408662 2.58928e-22)
(1.09226 -0.0118634 0)
(1.14284 -0.0282181 3.59655e-21)
(1.24023 -0.0981268 1.33457e-20)
(1.13884 0.0381472 1.26375e-21)
(-0.337731 0.0609628 0)
(1.21709 -0.217833 -8.33438e-21)
(1.14054 -0.0238533 0)
(1.44512 -0.085834 -3.13049e-20)
(1.10612 -0.0510328 -4.54615e-21)
(1.04082 -0.0299994 -4.97514e-21)
(1.35689 -0.147793 3.184e-20)
(0.620137 0.011993 0)
(1.10975 -0.0734875 0)
(1.44066 -0.361141 0)
(0.881789 0.0328253 -5.53489e-23)
(1.23949 -0.149488 -4.01415e-20)
(0.999289 0.0517193 0)
(1.04432 -0.0445362 -3.90147e-22)
(1.12548 -0.340295 -5.47456e-20)
(1.11759 -0.0608709 -4.80577e-22)
(1.14192 0.0288159 9.00647e-22)
(1.31357 0.491297 2.48106e-20)
(1.10973 -0.0504072 0)
(1.01221 0.277599 -1.79014e-19)
(1.34527 0.0429513 1.80555e-20)
(0.719305 0.0236983 0)
(0.837872 0.036195 -1.34603e-21)
(0.968233 -0.11146 4.05058e-21)
(1.10411 -0.065233 7.48132e-22)
(1.19171 0.0179551 2.18773e-21)
(1.27726 -0.242784 0)
(1.34305 0.281458 0)
(1.08855 0.00158044 -3.17875e-21)
(1.37569 0.0952381 3.35266e-20)
(1.07897 -0.0179984 6.61543e-21)
(1.32583 -0.128869 -1.53498e-21)
(0.965087 0.0259262 1.63645e-20)
(1.0041 -0.0225387 0)
(1.11723 0.0187708 1.05113e-21)
(1.33849 -0.0788141 -8.71982e-20)
(0.7688 0.00883283 2.51971e-22)
(1.35491 -0.0290773 0)
(1.33435 -0.0921639 0)
(1.43303 -0.110166 -4.83089e-20)
(1.09464 -0.0593795 3.8298e-22)
(1.12373 0.0128809 1.45117e-22)
(0.953612 0.0238276 6.05166e-21)
(1.18462 0.0148377 -1.05889e-21)
(1.33361 0.0401305 -3.33198e-20)
(1.00076 0.00656685 1.05503e-20)
(1.45709 -0.00608391 0)
(0.950429 -0.0142193 0)
(1.08994 0.0321516 -1.07917e-21)
(1.20449 -0.223867 -6.20121e-21)
(1.27389 0.0274055 1.54307e-20)
(1.04572 0.0460795 -1.19841e-19)
(1.15114 0.039669 6.44675e-22)
(1.19606 0.0412046 2.33909e-21)
(0.808083 0.0112375 0)
(0.916976 -0.0495617 7.4462e-20)
(1.14485 0.0264349 2.01231e-21)
(1.43469 -0.274917 -1.81063e-20)
(1.09943 -0.0425138 -1.97068e-21)
(0.921173 0.0146744 2.42017e-21)
(-0.395803 0.0129072 0)
(0.865783 -0.0157053 2.22843e-21)
(0.80433 0.025137 0)
(1.06501 0.0026811 -6.1546e-23)
(1.01163 0.0289 0)
(1.30422 0.319902 7.89842e-21)
(1.03456 -0.0564054 -2.67999e-20)
(1.30678 0.0638806 2.10551e-21)
(1.15234 -0.062573 0)
(1.08993 -0.0229144 0)
(0.588127 -0.0677306 0)
(1.10567 -0.0408299 -1.29068e-21)
(1.25377 -0.0516608 1.22343e-20)
(1.06446 0.112379 -3.14246e-20)
(0.854429 -0.0182885 0)
(1.09983 0.0265457 3.71855e-22)
(1.19113 0.115277 1.39067e-21)
(1.16444 0.00212952 -1.81472e-23)
(0.976759 0.0326134 3.13649e-22)
(1.12535 0.00933378 -1.21657e-22)
(-0.0249751 0.00870507 0)
(1.09697 -0.0201534 -7.45361e-21)
(1.19061 0.108722 1.70521e-21)
(0.718887 0.0247672 -6.92167e-22)
(1.25414 0.165818 2.53817e-21)
(1.13663 0.078081 1.57339e-21)
(1.05011 0.0166027 1.32818e-20)
(0.991463 0.0274026 0)
(1.18948 -0.00470787 -3.13343e-20)
(1.04015 -0.00242328 0)
(0.927493 0.0336347 1.11813e-21)
(0.968088 0.278238 1.43237e-19)
(0.959121 0.033099 0)
(0.817953 0.093964 0)
(-0.123786 -0.0347928 -6.80969e-20)
(1.33231 0.133021 -1.28281e-20)
(0.661715 -0.0231717 0)
(1.41998 0.0591085 0)
(1.16309 0.109239 0)
(1.34373 0.102637 1.40943e-20)
(-0.0401231 -0.13005 0)
(-0.0648446 0.0179977 3.29242e-20)
(0.985433 -0.074151 8.2249e-20)
(0.994679 0.0380069 -3.57368e-22)
(0.865042 0.00139339 0)
(1.02513 -0.0366747 3.23407e-21)
(0.894272 0.0248729 0)
(0.739553 -0.0570235 -8.88868e-20)
(1.02169 0.049763 3.38114e-23)
(1.10184 -0.0428108 1.75777e-21)
(1.09627 0.00987869 2.28947e-21)
(1.01355 0.0685712 -1.10811e-20)
(0.827707 0.0190517 -1.56634e-21)
(1.13993 -0.353406 4.99844e-22)
(0.913908 -0.0250338 0)
(1.06794 0.00153292 -1.01306e-20)
(0.876749 0.00895049 -9.01341e-21)
(1.38833 -0.179632 2.33051e-21)
(0.688184 0.0296633 0)
(1.0346 -0.149877 0)
(1.10213 -0.0259857 1.47638e-21)
(1.38407 0.211847 1.02715e-20)
(1.11569 0.0190789 7.82928e-22)
(1.03696 0.0189515 1.81954e-20)
(0.644316 0.0159574 -6.25144e-20)
(0.814076 0.00269088 1.71341e-20)
(1.14034 -0.0194824 9.05649e-22)
(1.40189 -0.0794944 -5.96022e-21)
(1.10131 -0.0334038 -3.03462e-21)
(1.33542 -0.0432919 5.10741e-21)
(-0.126948 -0.00588101 4.95205e-20)
(1.28255 -0.0182518 0)
(0.593755 -0.0205619 0)
(1.06369 -0.0257532 -4.87156e-21)
(1.09909 0.0133801 -1.8688e-21)
(0.0130518 0.045746 0)
(0.880321 -0.0218267 7.66861e-23)
(1.11877 -0.0319493 -1.5897e-21)
(0.979615 -0.0106226 -8.32457e-22)
(1.07832 0.0391359 -6.48884e-21)
(1.00961 0.019836 2.71063e-21)
(1.04273 -0.0384214 1.4023e-21)
(1.0376 0.0259449 0)
(0.319087 -0.0479405 0)
(1.04604 -0.0631338 0)
(1.13115 0.102824 -2.88737e-20)
(-0.0357633 -0.145099 4.69162e-20)
(1.06212 -0.0147438 6.78013e-24)
(1.16503 0.0501625 0)
(0.759545 0.0201713 -6.75856e-22)
(1.13188 -0.0296194 1.96176e-22)
(-0.0110149 -0.0396803 -1.47437e-19)
(0.855988 -0.0130351 -5.83811e-20)
(0.606694 -0.0189587 0)
(1.01108 -0.0347758 0)
(0.921721 0.0457835 1.62045e-21)
(1.004 -0.121663 5.67434e-21)
(1.27278 0.393429 3.47874e-22)
(1.09403 -0.0141386 -6.00239e-23)
(1.14502 -0.0215479 -3.31374e-21)
(1.02725 -0.0119542 0)
(1.35596 0.417762 -3.95212e-20)
(0.638386 -0.022875 0)
(0.80581 -0.0192751 -1.17838e-21)
(1.02802 0.00845406 8.26479e-23)
(0.551348 0.0130165 0)
(1.1002 -0.00624596 0)
(0.0624256 -0.0450483 -5.07906e-20)
(1.13208 -0.0041087 -6.61753e-21)
(0.752363 0.00110998 4.94236e-23)
(0.990941 -0.00191152 0)
(0.53857 -0.00926094 0)
(0.772274 -0.00681264 -5.21332e-22)
(0.538741 -0.00641099 -9.51088e-23)
(1.331 0.0561984 3.29843e-22)
(1.16407 0.0167651 -3.34362e-21)
(0.731431 -0.00300457 5.9294e-22)
(1.07042 -0.00443126 -8.25878e-23)
(1.12009 -0.0152546 5.65603e-23)
(0.533798 0.00810102 -1.07995e-21)
(1.11088 -0.00940247 2.90867e-22)
(1.11219 -0.00440944 0)
(1.00442 0.00327733 0)
(0.524768 0.00580911 0)
(1.02112 0.00461513 0)
(1.11596 -0.00396608 -2.15026e-22)
(1.0757 0.00100578 0)
(1.08372 0.00210506 0)
(1.07375 0.0253265 0)
(1.13932 0.0901347 0)
(-0.0223815 -0.0489114 4.63857e-20)
(1.17643 0.00247508 1.516e-22)
(1.11775 0.0379959 0)
(1.35875 0.0553213 2.48925e-20)
(1.15186 -0.0101772 -2.26957e-22)
(1.10474 0.0433811 -9.737e-22)
(1.16746 -0.0331812 2.7821e-21)
(1.12888 0.0208758 0)
(0.555897 -0.0131347 1.75593e-21)
(1.05025 0.0430541 1.07775e-20)
(1.2061 -0.014499 0)
(1.13244 -0.024209 -2.91816e-22)
(1.16698 0.0165749 8.9239e-22)
(0.499476 -0.015974 -8.64587e-21)
(1.10592 0.0291635 2.34017e-21)
(1.14867 -0.0494343 -1.84624e-21)
(1.00572 -0.0208024 0)
(1.22463 0.0699232 -7.58217e-21)
(1.15374 0.00736065 -2.2127e-21)
(0.829106 0.108436 7.1131e-21)
(0.894643 0.0175892 0)
(-0.024411 -0.0221712 0)
(0.976469 0.111749 -1.73051e-20)
(1.10166 -0.0314503 0)
(1.33086 -0.0751995 3.18064e-20)
(1.1431 0.0147644 5.72132e-22)
(1.11685 -0.0287594 1.77482e-21)
(1.15287 0.0258347 -7.3165e-22)
(1.38063 -0.0513734 1.27725e-19)
(1.02052 -0.328495 5.52726e-20)
(1.12866 -0.0198322 -5.23128e-22)
(0.94541 0.0421499 0)
(0.923659 -0.0215503 0)
(0.899048 0.00271307 -2.18017e-20)
(1.26135 -0.0132482 -4.30664e-20)
(1.14461 -0.0542144 0)
(0.714943 0.0513403 6.11638e-21)
(0.338959 -0.144968 0)
(0.859731 -0.00753018 2.9604e-21)
(0.919533 0.0844211 -7.07861e-21)
(0.801803 0.0282282 -7.87517e-22)
(1.18168 -0.0298165 0)
(1.18365 0.000618793 -6.67362e-22)
(1.14778 0.0112615 3.5663e-21)
(0.809931 0.0551657 -5.38802e-21)
(1.16739 -0.0427972 -2.58695e-21)
(0.873276 0.0843892 0)
(1.0915 0.0731101 0)
(1.15797 -0.0370433 2.173e-21)
(0.888628 0.00948071 -2.9905e-21)
(1.22774 0.00762181 3.12951e-21)
(1.11813 -0.0295331 -1.08756e-21)
(0.964368 -0.00687706 5.08592e-22)
(1.09312 -0.0287101 0)
(0.410203 -0.138227 1.36411e-20)
(1.32637 0.0961425 -2.28104e-20)
(0.942761 0.091187 -8.34784e-21)
(0.0804732 -0.0957622 9.14245e-21)
(1.43632 -0.147759 2.73098e-20)
(0.819411 -0.002215 5.84623e-20)
(1.23878 -0.0569501 -2.27009e-21)
(1.11559 -0.0202341 -3.21289e-22)
(-0.0473439 -0.154462 -8.00871e-21)
(0.998831 -0.00632168 0)
(1.03406 -0.0880735 -1.53624e-20)
(0.86041 -0.0317459 -1.46281e-22)
(1.08474 -0.0552076 4.63417e-22)
(0.815331 0.0487965 -1.32831e-21)
(0.548865 -0.00742291 -2.35465e-22)
(1.41579 -0.391529 -1.52645e-20)
(1.10302 0.0632702 0)
(1.02712 -0.00699659 -8.26327e-23)
(1.11821 0.0406632 -7.87454e-22)
(1.2602 -0.0777863 0)
(0.889785 -0.0492197 -3.70727e-21)
(1.12776 0.0535424 1.02708e-21)
(0.735888 0.0721581 1.57826e-20)
(1.16383 -0.0496902 1.40706e-20)
(0.939544 -0.044126 2.02509e-21)
(-0.0363465 -0.0927952 0)
(0.190456 0.177103 -6.36995e-22)
(1.11947 0.0458655 0)
(0.905293 0.0577337 -8.27801e-21)
(0.858346 0.0277964 0)
(1.13277 -0.00367024 -2.00197e-21)
(1.01658 0.0268634 0)
(1.15325 -0.0767388 0)
(1.41029 -0.132072 2.41031e-20)
(0.797583 -0.0902116 0)
(1.11613 -0.0705165 1.89026e-20)
(1.06223 -0.00241476 7.94717e-23)
(1.04156 0.057471 9.46293e-22)
(1.2954 -0.0211917 -1.76695e-20)
(1.23946 0.127245 -6.69419e-21)
(1.167 0.0037049 1.30337e-20)
(1.1418 0.0620437 0)
(1.18744 -0.0880125 0)
(1.11815 0.0580001 8.30959e-22)
(1.24101 -0.0208826 0)
(1.39614 0.204231 -2.5665e-20)
(0.732779 0.0288246 1.88965e-21)
(1.02728 0.0170688 1.88093e-20)
(1.24702 0.0486772 -4.25287e-22)
(-0.0100882 -0.0277535 0)
(-0.0313752 -0.0850827 0)
(0.0995654 0.000668448 -4.31893e-20)
(-0.0350725 -0.149122 0)
(0.653339 0.0146867 -1.16731e-20)
(1.17945 0.0469909 -2.55678e-22)
(1.14402 -0.0864806 -3.23338e-22)
(1.27871 -0.13781 -3.48442e-21)
(1.23773 -0.0386369 0)
(0.736636 0.00203414 5.21295e-23)
(1.16471 0.0678584 0)
(1.08505 -0.0182433 1.51456e-22)
(0.494903 -0.109948 0)
(0.684689 -0.0438526 -4.51402e-22)
(1.15333 0.0636308 0)
(1.11934 0.0139627 0)
(0.817517 0.101212 6.87515e-20)
(0.582974 -0.0876951 -1.59233e-21)
(0.966228 0.0188429 4.14738e-22)
(1.01394 0.0177777 -7.6411e-21)
(0.168864 -0.111263 0)
(1.14793 -0.0199406 -2.22381e-20)
(1.20751 0.0530726 -6.76974e-21)
(1.10854 -0.0153339 9.87266e-22)
(0.703116 -0.108367 9.07647e-21)
(-0.0470366 -0.121989 -9.74476e-20)
(1.15797 0.055058 0)
(-0.0351769 0.0373205 0)
(1.17812 0.0504515 -6.73983e-22)
(0.545052 -0.166545 -9.76842e-21)
(1.09423 0.0138574 -4.81648e-21)
(1.11021 -0.0499475 0)
(1.12729 -0.0788465 1.75096e-23)
(1.30167 -0.144795 2.99291e-20)
(0.523512 -0.0575169 -9.39407e-21)
(1.15235 -0.0463066 2.63094e-21)
(1.16501 -0.0935109 2.1877e-22)
(0.300431 0.068799 1.79403e-20)
(1.21502 -0.130212 9.66187e-23)
(1.12647 0.0417007 0)
(1.17307 0.064931 0)
(1.20919 -0.0815165 7.07291e-21)
(1.16893 0.0655459 6.11831e-21)
(0.717278 -0.0766315 -6.90027e-20)
(1.19566 -0.122856 -9.3215e-21)
(1.11511 0.0498705 6.06394e-22)
(0.477755 -0.00341366 7.2112e-22)
(0.437006 -0.00255533 -1.25092e-19)
(-0.121957 0.0872733 3.87121e-20)
(1.16992 0.182579 -6.56649e-21)
(1.23667 -0.500208 5.85099e-21)
(1.38657 0.0786174 -2.11814e-20)
(1.2333 -0.0530846 -8.38171e-21)
(0.93938 -0.237391 9.20683e-20)
(-0.190762 0.0998255 0)
(1.11094 -0.0107246 -3.73417e-22)
(-0.00594446 0.232026 -1.82923e-20)
(1.17351 0.0564076 5.83225e-22)
(1.16972 -0.0184123 4.58058e-21)
(1.0788 0.0386967 0)
(0.744595 -0.186994 0)
(1.17419 -0.0513184 0)
(1.20876 0.0969765 1.75935e-21)
(1.25903 -0.0119496 -3.2728e-20)
(1.16632 -0.0607042 -6.6952e-21)
(0.528379 0.00941662 0)
(0.685929 0.00192294 0)
(0.687961 0.00129545 3.4916e-22)
(0.518587 -0.0101741 0)
(1.13978 0.013938 0)
(1.02182 -0.0125979 2.108e-20)
(0.501412 -0.177975 0)
(0.932386 0.0267122 0)
(1.07802 -0.0216268 0)
(1.17191 0.187359 -3.43364e-21)
(1.24587 0.0499802 1.3273e-20)
(0.967253 -0.0314213 3.46235e-21)
(1.28977 -0.405801 -1.08628e-19)
(0.677908 -0.123621 1.46235e-20)
(1.29205 0.0910905 2.3731e-21)
(1.22955 -0.0604181 0)
(-0.492481 0.0798323 0)
(-0.236083 0.00669927 0)
(1.17676 -0.0348083 -1.07221e-20)
(1.32444 -0.296005 -2.83292e-20)
(1.29074 0.111902 0)
(1.08291 0.0501173 -2.53797e-21)
(0.332873 -0.0672269 0)
(1.51729 -0.177955 7.60757e-20)
(0.409847 0.515047 1.14338e-19)
(0.263491 -0.0571319 0)
(1.09375 -0.28132 1.16608e-19)
(0.446076 0.164526 0)
(-0.227846 -0.0446904 1.53397e-20)
(1.30111 0.105302 0)
(-0.0924798 -0.0226485 -1.7822e-21)
(0.98342 -0.0493723 0)
(1.29904 -0.101554 -1.49106e-20)
(-0.126407 -0.0753664 -7.89767e-21)
(1.12853 -0.0295824 -1.49336e-21)
(1.14508 -0.0909852 -7.77898e-21)
(0.57529 -0.522968 -9.00117e-20)
(1.15205 0.00545626 3.82883e-22)
(1.19794 -0.129685 1.43923e-21)
(1.17755 0.245646 -1.79818e-20)
(1.17399 -0.160912 -1.02105e-20)
(1.1722 -0.013333 -1.7758e-21)
(-0.170999 -0.0335194 -5.58858e-20)
(0.00593958 0.0356558 -7.26856e-21)
(1.31658 0.0679668 1.30685e-21)
(1.05705 -0.0490833 0)
(0.54156 -0.0658853 -3.54931e-21)
(1.40309 -0.449532 8.33822e-20)
(0.922677 -0.0903299 -5.96498e-20)
(1.40808 0.150494 7.417e-20)
(1.07965 -0.0508045 -4.01435e-22)
(1.16305 -0.120968 2.62056e-21)
(1.06389 -0.0073043 0)
(1.18287 -0.0148376 0)
(1.3165 -0.104484 9.65019e-21)
(1.08619 -0.020036 -4.55459e-21)
(1.21415 -0.221961 1.10042e-20)
(1.0997 0.0507592 -2.03751e-21)
(1.44984 -0.0111135 -5.6397e-20)
(0.439346 0.0247879 0)
(1.24624 -0.133534 -8.58861e-21)
(1.31084 0.105125 0)
(1.11642 0.0526756 -6.47494e-22)
(1.14256 0.0278943 0)
(1.04481 -0.00947568 9.81329e-21)
(1.23346 0.0415352 1.71596e-20)
(1.13049 -0.0645304 0)
(0.0483848 -0.030598 1.55602e-19)
(0.88416 -0.21624 -7.22136e-20)
(1.34501 0.0166376 -3.71635e-20)
(-0.0998623 -0.0930779 4.09695e-20)
(1.18972 0.0356097 4.72004e-22)
(0.873495 -0.0532437 -1.86621e-21)
(-0.0981541 -0.0707815 -4.27222e-20)
(-0.0208876 -0.0220033 -2.66953e-20)
(1.01863 -0.030049 0)
(-0.0285221 -0.0357353 0)
(1.21868 0.139163 0)
(0.112037 -0.109742 0)
(1.12016 -0.0313391 0)
(0.126471 0.0264914 0)
(1.10884 0.0484621 0)
(1.14694 0.171192 0)
(1.30585 0.0811403 -2.96161e-21)
(0.573728 -0.285575 -2.16545e-20)
(-0.174586 0.0330898 0)
(1.12829 -0.10536 6.20789e-20)
(1.24244 0.0246301 2.2619e-23)
(1.37454 0.118001 0)
(-0.0381526 -0.0407957 0)
(1.16241 0.0173345 5.74572e-21)
(1.17501 -0.00407647 -2.91886e-21)
(1.16411 0.38596 0)
(0.238209 -0.0948724 5.94876e-20)
(1.1209 0.0625302 8.65275e-22)
(0.227964 -0.0520908 -5.28604e-20)
(-0.0605065 0.0452533 -3.20612e-20)
(-0.032488 0.0486024 8.29049e-20)
(0.434033 0.21521 1.59009e-20)
(1.04583 -0.0462575 1.75618e-21)
(1.12483 0.0543072 2.81203e-21)
(1.0236 -0.00818791 0)
(1.07142 -0.0722155 -1.92224e-20)
(1.21656 0.0745294 -1.42656e-20)
(-0.00952813 -0.0436157 1.00054e-19)
(0.98198 -0.0731494 -5.73862e-20)
(0.680087 -0.0590186 7.39994e-21)
(1.15687 0.00632101 -1.56553e-21)
(0.0671931 -0.0321578 3.34907e-20)
(0.23741 -0.0392936 -4.75185e-20)
(0.38241 -0.0737609 -5.39242e-20)
(1.18274 0.0591529 3.57295e-21)
(-0.0553096 -0.0365428 0)
(1.01517 0.0228833 5.1713e-21)
(1.17228 -0.201655 -2.23887e-21)
(1.17065 -0.20402 2.15882e-21)
(1.29953 0.0327512 0)
(1.52051 -0.235248 7.37923e-20)
(1.09177 0.02448 4.62118e-23)
(-0.0142839 -0.0484122 -3.42294e-20)
(0.276208 0.0607501 0)
(0.903123 -0.0033416 1.23103e-21)
(1.12516 0.0291867 -1.84086e-21)
(0.590069 0.0248755 2.06546e-20)
(1.16838 0.0160855 -1.82016e-21)
(1.11661 0.0524063 0)
(1.13408 -0.176644 -1.47156e-20)
(-0.0613997 -0.120998 -6.80969e-20)
(1.3237 -0.0173148 2.85786e-20)
(1.10275 0.174978 -8.84778e-21)
(1.10395 0.0510094 2.33028e-21)
(-0.0403473 -0.0613212 1.55325e-20)
(-0.023304 0.025407 -6.25523e-20)
(0.817703 0.0385623 0)
(0.834815 0.236629 0)
(1.15014 0.100434 -1.34083e-20)
(1.05137 0.0699716 1.09387e-20)
(1.07959 -0.0156067 0)
(0.528072 -0.0734942 5.62654e-20)
(0.726358 0.0812712 -1.14378e-20)
(1.09734 0.108004 0)
(1.08907 0.0454491 0)
(1.35073 0.161055 0)
(1.14343 0.0429869 0)
(1.21407 0.08362 1.64063e-21)
(-0.0430451 0.044964 3.50159e-20)
(1.14501 0.0111472 3.84208e-21)
(1.41296 -0.207919 -8.50179e-20)
(1.23237 0.0876192 -2.40029e-21)
(-0.0621169 0.0724743 0)
(1.15257 -0.17383 0)
(0.687733 -0.000244908 2.73096e-22)
(0.533446 0.00752046 -5.90087e-20)
(0.072698 0.0352091 4.78557e-20)
(0.967346 -0.00879303 -1.3553e-22)
(0.736565 -0.27268 0)
(0.667968 -0.0929042 0)
(1.16843 0.077888 0)
(0.53742 0.510258 2.10659e-20)
(-0.0147175 0.00215451 -2.94891e-20)
(1.11079 0.0149835 -4.77896e-22)
(-0.0205549 -0.0859413 6.49767e-20)
(1.12102 -0.0303267 1.29506e-21)
(1.16967 0.31286 3.42974e-20)
(1.11627 -0.0907088 6.27667e-21)
(0.214236 -0.00550571 7.32518e-20)
(1.07885 0.0305223 1.50233e-21)
(1.12645 -0.144735 0)
(0.556495 0.269694 0)
(0.975754 -0.0593809 2.17666e-21)
(-0.17709 -0.0177171 0)
(0.601563 0.0294448 3.84044e-22)
(0.602895 -0.417785 -3.20657e-21)
(0.23876 0.0486062 -1.1171e-19)
(1.12359 -0.230861 2.8784e-20)
(1.03576 0.360476 9.87434e-21)
(0.978127 0.0171405 0)
(1.17805 -0.0276237 1.13802e-22)
(0.693026 0.00013963 0)
(0.979813 0.00881 -4.31931e-22)
(0.422705 -0.0238641 0)
(0.710747 0.125075 0)
(1.00277 -0.0201155 -6.64163e-22)
(1.43152 0.173744 -1.40861e-20)
(1.11943 -0.0275139 9.00149e-22)
(0.522383 -0.492989 0)
(1.13519 -0.157562 1.21314e-21)
(0.801352 0.373077 6.95395e-20)
(-0.0368175 0.0220218 1.16881e-21)
(1.23292 -0.00347638 1.20235e-20)
(1.21903 0.0450406 -1.34353e-20)
(1.16653 -0.0214431 5.19518e-22)
(0.789974 0.000531607 1.56048e-21)
(0.064671 0.0178055 3.73578e-20)
(-0.0163593 -0.0649577 -5.59586e-20)
(-0.1826 -0.0102075 0)
(-0.221095 0.12911 0)
(1.18459 -0.61872 3.23153e-20)
(1.1594 -0.0262372 1.73282e-21)
(0.884401 -0.464986 -4.38916e-20)
(0.992303 0.000984499 -1.12403e-20)
(1.3585 0.198863 3.41041e-20)
(0.600829 0.417908 0)
(0.244891 0.411251 -1.1433e-19)
(0.592874 0.474468 0)
(-0.0469116 0.0353998 0)
(1.12449 -0.484643 0)
(-0.0447647 -0.0344238 -3.01223e-22)
(1.19909 -0.00675351 0)
(0.859465 0.221792 -1.58683e-20)
(0.591082 0.686811 2.01913e-20)
(1.26667 0.146607 3.63541e-21)
(-0.0316725 -0.123299 -1.08869e-19)
(0.576505 0.0980502 1.26063e-20)
(0.450146 0.143539 -1.34169e-20)
(1.20391 0.0990563 0)
(1.35409 0.3546 3.6114e-20)
(1.21707 0.561904 7.95055e-21)
(0.163009 -0.0154626 -2.24129e-20)
(0.994342 0.11976 3.19666e-20)
(0.924776 0.00287 1.75092e-22)
(0.915939 -0.00690991 1.43462e-22)
(-0.0141807 -0.0372401 0)
(0.647842 -0.657569 -2.95337e-20)
(0.612521 0.195343 0)
(0.082233 -0.142021 0)
(-0.0467632 0.0478372 0)
(0.0115492 -0.145553 -4.13386e-20)
(1.24117 0.00540172 -1.3793e-20)
(-0.032984 0.0350047 0)
(-0.0316195 0.0216259 0)
(1.44845 0.117956 -7.16261e-20)
(-0.0387788 -0.090034 4.91573e-20)
(0.114126 0.230632 -1.00361e-19)
(0.388101 0.0147159 0)
(0.169667 -0.281796 8.01345e-20)
(1.07831 -0.243016 0)
(0.998179 -0.288252 0)
(0.00971694 -0.120753 1.02925e-19)
(1.15047 0.0413393 1.72274e-23)
(1.12266 0.33964 2.69915e-20)
(0.263065 0.0269975 4.61301e-20)
(0.404024 -0.519327 -3.56647e-20)
(1.26101 0.0813416 0)
(1.21094 0.190748 2.20761e-20)
(1.21293 0.210239 -2.71174e-20)
(0.102048 0.0840576 -2.32223e-20)
(-0.0630247 -0.0696279 0)
(1.07144 -0.0583785 -1.94216e-20)
(1.10304 -0.226895 -1.41768e-20)
(0.583176 -0.409402 0)
(1.09743 -0.15284 -2.45854e-20)
(-0.158217 0.0976606 0)
(0.583486 0.0334868 0)
(1.44973 0.0508872 4.8475e-20)
(0.988303 0.00820752 -1.08295e-22)
(1.07172 0.738857 -1.59635e-20)
(0.225749 -0.381116 1.29052e-19)
(1.08248 0.0128551 7.33778e-22)
(1.20576 0.0776564 1.21899e-21)
(-0.0477632 0.0210969 2.98945e-20)
(0.782877 0.728498 2.81869e-20)
(1.35053 -0.378595 -1.29753e-20)
(-0.0791545 -0.0520611 9.24743e-20)
(1.0947 0.0480671 0)
(0.118455 -0.0212582 -6.87959e-21)
(0.8965 -0.636116 2.89214e-21)
(0.89571 0.638159 -1.91222e-20)
(0.531939 -0.0402069 -6.211e-20)
(1.15189 -0.00284945 3.16747e-21)
(1.07824 -0.0845725 5.88058e-21)
(1.14571 0.0527381 -2.18143e-21)
(1.10417 0.121963 3.11802e-21)
(1.13257 -0.13147 0)
(0.901074 0.106958 1.4458e-20)
(0.882936 0.456756 0)
(1.22172 0.0865954 9.87492e-22)
(1.1664 0.116077 -1.5039e-21)
(0.749011 0.262938 0)
(0.518944 0.109213 1.0655e-19)
(0.888943 0.707187 -1.0155e-21)
(1.07536 0.289204 -2.07292e-20)
(1.04158 -0.0116816 1.02067e-20)
(0.413428 0.484985 0)
(1.29709 -0.479813 0)
(0.529767 -0.0155076 4.65156e-21)
(1.25804 0.501069 0)
(-0.0224429 0.04644 -4.2798e-20)
(1.2843 -0.42041 -1.04903e-20)
(1.16025 0.506018 0)
(0.451869 0.21085 1.67833e-19)
(1.11804 0.314178 -1.18844e-19)
(0.816466 -0.645319 -2.51729e-20)
(1.15083 0.0534362 -4.53034e-21)
(0.910831 0.149809 8.04485e-20)
(1.08699 0.168689 4.87179e-20)
(1.06579 0.699594 4.19628e-22)
(0.90483 -0.442095 6.36773e-20)
(1.4158 0.189679 3.9626e-20)
(1.13288 0.0112218 1.24205e-22)
(-0.00414289 -0.0633798 9.05314e-20)
(1.08202 -0.705542 2.75974e-20)
(0.871609 -0.72314 5.14118e-20)
(0.251766 -0.33926 0)
(0.97243 -0.148877 7.07044e-20)
(0.360874 0.300922 -4.35729e-19)
(-0.0793734 -0.0208917 2.53596e-20)
(0.237987 0.0302096 2.22654e-20)
(0.662555 -0.0617214 -7.33504e-20)
(1.0746 0.524997 0)
(0.99121 0.220751 7.78938e-20)
(1.0879 0.0324506 2.80428e-21)
(0.905731 0.437695 -8.96581e-20)
(0.781106 -0.726637 -8.03793e-21)
(0.925665 0.0204328 -4.82773e-20)
(0.973691 0.485232 0)
(1.118 0.11361 -9.14376e-21)
(1.38124 -0.520658 1.33665e-20)
(1.22928 -0.346319 9.06383e-21)
(-0.304083 0.0949801 3.28168e-20)
(0.194232 -0.00371416 -1.79936e-20)
(0.975789 -0.120073 -5.72646e-20)
(0.350371 0.519364 0)
(0.913185 0.0137078 3.84663e-20)
(1.15126 0.63285 7.88723e-20)
(-0.0400992 -0.100784 1.45434e-19)
(-0.0680087 -0.0120695 -2.47723e-20)
(-0.0741134 -0.13014 4.1246e-20)
(1.09808 0.0264303 -3.66567e-21)
(1.12631 -0.463205 0)
(1.06805 -0.739529 -4.02324e-20)
(0.696217 0.344221 0)
(0.0487502 -0.106747 -1.05613e-19)
(1.077 0.0014458 -8.26655e-22)
(-0.0335153 -0.121565 -2.94128e-20)
(1.04679 0.0570391 -1.20714e-20)
(0.107806 0.0270391 5.5527e-20)
(0.84064 0.124188 0)
(1.38985 -0.0158313 5.51292e-20)
(0.0334266 0.0218721 -2.52818e-20)
(-0.262651 0.0629034 -3.89647e-20)
(-0.20592 0.0344469 0)
(0.0703223 -0.0197853 0)
(1.34838 -0.0046792 -1.62283e-20)
(0.36691 -0.0136746 1.51289e-19)
(1.2666 -0.731219 -2.38835e-20)
(0.842742 -0.0475514 2.6734e-20)
(1.07 0.250165 -2.87195e-20)
(0.36858 -0.56222 1.37805e-19)
(1.53457 0.280313 -3.4142e-20)
(0.0628591 -0.0886146 3.50958e-20)
(0.207185 0.298398 1.94445e-19)
(0.0838013 -0.0556069 -1.31429e-19)
(0.943657 -0.497408 -4.25938e-20)
(1.4453 0.386248 3.501e-20)
(0.567248 -0.679105 4.78615e-20)
(1.10944 -0.0841489 -6.0025e-21)
(0.200575 -0.033523 5.73857e-20)
(1.17392 0.288638 -4.74879e-20)
(0.658735 0.634092 -4.04295e-20)
(1.33508 -0.627517 0)
(1.40898 0.516509 3.34134e-20)
(1.05444 -0.532928 -1.24686e-20)
(1.38074 0.603088 -9.9152e-20)
(1.17663 0.0372017 0)
(-0.051343 0.049396 0)
(1.24446 0.725098 0)
(1.13702 0.0308347 -4.65706e-21)
(0.74194 -0.306155 -2.04125e-19)
(0.475616 -0.0888213 0)
(-0.0570503 0.0359472 -2.53439e-20)
(1.02044 -0.249229 9.46811e-20)
(-0.34944 0.0578278 0)
(0.320936 0.0188301 1.21561e-20)
(1.13648 0.0425896 0)
(1.40455 0.273136 0)
(1.18207 0.0511846 4.85113e-21)
(0.361331 -0.298289 0)
(1.01419 0.150229 3.60824e-20)
(1.30017 0.285384 0)
(-0.0946604 -0.00544546 -3.77563e-22)
(0.812916 -0.401065 0)
(1.50557 0.339363 -5.2024e-20)
(1.23651 0.365713 -3.03621e-22)
(0.836367 0.640119 -9.7361e-21)
(1.01025 0.15861 -8.59754e-20)
(0.970011 -0.207206 -4.64239e-20)
(1.44291 0.294263 3.05757e-20)
(0.978965 0.0845541 0)
(0.563295 -0.076203 0)
)
;

boundaryField
{
    FrontBack
    {
        type            empty;
    }
    Top
    {
        type            noSlip;
    }
    In
    {
        type            fixedValue;
        value           uniform (1 0 0);
    }
    Bottom
    {
        type            noSlip;
    }
    Out
    {
        type            zeroGradient;
    }
    circle
    {
        type            noSlip;
    }
}


// ************************************************************************* //
