/*--------------------------------*- C++ -*----------------------------------*\
| =========                 |                                                 |
| \\      /  F ield         | OpenFOAM: The Open Source CFD Toolbox           |
|  \\    /   O peration     | Version:  2412                                  |
|   \\  /    A nd           | Website:  www.openfoam.com                      |
|    \\/     M anipulation  |                                                 |
\*---------------------------------------------------------------------------*/
FoamFile
{
    version     2.0;
    format      ascii;
    arch        "LSB;label=32;scalar=64";
    class       volScalarField;
    location    "1953.5";
    object      yPlus;
}
// * * * * * * * * * * * * * * * * * * * * * * * * * * * * * * * * * * * * * //

dimensions      [0 0 0 0 0 0 0];

internalField   uniform 0;

boundaryField
{
    FrontBack
    {
        type            empty;
    }
    Top
    {
        type            calculated;
        value           nonuniform List<scalar> 
15
(
142.2808766422496
133.5829938236523
138.0703647616957
144.4109836515586
159.773045759386
131.3688430133314
140.1342272357298
135.3629222238299
153.4425331898097
135.7404229855426
136.0975401724332
136.7690512666003
125.2567408781779
132.9079550608718
123.9490465616521
)
;
    }
    In
    {
        type            calculated;
        value           uniform 0;
    }
    Bottom
    {
        type            calculated;
        value           nonuniform List<scalar> 
15
(
155.5653504915521
158.1162015648768
141.0831643137033
142.0521549228236
141.178502805908
148.4298395586047
142.6990550208365
143.1564416025278
143.423451999102
134.0544413714813
125.7278138749696
141.5513380020082
122.4085880525132
123.4899923215284
124.1336833974036
)
;
    }
    Out
    {
        type            calculated;
        value           uniform 0;
    }
    circle
    {
        type            calculated;
        value           nonuniform List<scalar> 
32
(
56.31899580457724
22.25731760030876
65.33341198026248
23.45310755938749
19.11849694989395
56.14039972161761
56.79772167186326
24.04738887394545
22.40164644126861
65.55954497555628
40.1244372083161
63.05278092843128
50.33153141651051
13.98164196408154
23.7525451110019
18.39172214297408
38.9371797407041
59.59814127088459
60.979747396512
24.36824591704428
65.69946650343894
63.84542095321389
62.94445035220165
59.95186714329342
64.07485313907603
45.91154967014644
66.3451925006741
32.01177664931947
38.05764170576615
55.78708510041859
20.95518032130455
43.19217043527443
)
;
    }
}


// ************************************************************************* //
