/*--------------------------------*- C++ -*----------------------------------*\
| =========                 |                                                 |
| \\      /  F ield         | OpenFOAM: The Open Source CFD Toolbox           |
|  \\    /   O peration     | Version:  2412                                  |
|   \\  /    A nd           | Website:  www.openfoam.com                      |
|    \\/     M anipulation  |                                                 |
\*---------------------------------------------------------------------------*/
FoamFile
{
    version     2.0;
    format      ascii;
    arch        "LSB;label=32;scalar=64";
    class       volScalarField;
    location    "58";
    object      p;
}
// * * * * * * * * * * * * * * * * * * * * * * * * * * * * * * * * * * * * * //

dimensions      [0 2 -2 0 0 0 0];

internalField   nonuniform List<scalar> 
808
(
-0.03529932262748069
0.04465951320916376
-0.01140516022060123
0.03564337759316849
-0.3016848503176664
-0.05504291824684601
-0.01491747607861693
-0.02403636522172047
-0.1987509179085785
-0.08504156037181802
-0.01017756201396358
-0.256156725145638
-0.03062003669220607
-0.01333944220388787
-0.1201919113478459
-0.01412048909785301
-0.1373933460099751
-0.01363558265900842
-0.01239839017217158
-0.05646259803026548
-0.006646006030464664
0.1178914228422036
-0.06156880185156619
-0.07276739953562592
0.1760540930126082
-0.09985289281782785
-0.1541146127965288
-0.02035067234441339
-0.01740668575812609
-0.02580603065898414
-0.02023995908878473
-0.05933845336377358
-0.02282665207514741
-0.01683398756240503
-0.1007102999335935
0.3441315128698153
-0.03899682191424265
-0.01656594376384413
-0.02310322832176047
-0.0265352273867349
-0.09143417071216137
-0.1281628228757279
-0.05137750999034177
-0.02096805643124424
-0.05414588292527796
-0.04060614857423667
-0.01217676454144543
-0.1863462818135506
-0.02736967353490774
-0.2061246746484258
-0.01653958054650579
-0.06831640317780108
-0.06015294958417816
-0.01437702107986744
-0.1918569587791815
-0.02870529582812311
-0.01049560051934157
-0.01384986356816054
-0.1016335779323423
-0.04029916770745409
-0.1060974337418797
-0.1275559934982726
-0.01381223041829428
-0.1304849711209279
-0.01725784193187624
-0.05117384494129599
-0.1670025293446296
-0.03556075522014418
-0.01491236712288019
-0.4436410090469722
-0.026763154818719
-0.3048298323866866
-0.02186433266055629
-0.02074013028733586
-0.06651945833416296
-0.01754048623607166
-0.04312376411373724
-0.3603839579418889
-0.03583324538921728
0.04137345164102126
-0.09071807871553569
-0.01714307760349002
0.05695000232428052
0.04400545938683945
-0.01681145123434008
-0.0528798204210557
-0.5456600117913588
-0.2244675637653631
-0.05291354400250106
-0.1119805307897269
-0.05747940373259673
-0.1341776828441991
0.04006994422460466
-0.02457237526150943
-0.06121840007168598
-0.1218355129164717
-0.03839877741869209
-0.05170739967779439
-0.1175684347898311
-0.141129892027928
-0.05245789927444843
-0.04795545827742435
-0.05515530186255478
-0.04538874950231434
-0.05776451729798843
-0.07390956007542622
-0.04034939685980857
-0.01090243962099086
-0.04073232504110011
-0.1256230678996108
-0.05088409999172518
0.08283468824999808
-0.04281481087128192
-0.007815753421307118
-0.0277160974920724
0.1802850849430067
-0.03943493575719523
-0.2712359786577397
-0.02049568528892927
-0.05436599790065684
-0.03424285550963336
-0.04836833496925885
0.01294171352692387
-0.0495522892686565
-0.03477186698137907
-0.2156292964570349
-0.04224210997182049
-0.004726309917883533
-0.07702188054792301
-0.06820422769230119
-0.1520456742118148
-0.0211326168252401
-0.07612735920844899
-0.04194811975225923
-0.02287876537334545
-0.01620872076391813
-0.006173987497841695
-0.007572637915383012
-0.05283078968640151
-0.05048086861415422
-0.2088767249367201
-0.05751166771956558
-0.008437543980103447
-0.0225422431001228
-0.1460870102141988
-0.002083410757640922
-0.0772175245147555
-0.02311925545036806
-0.0005524473382188616
-0.01007623115957118
-0.03363953540230384
0.09499173213607782
-0.03937629024436132
0.2524392261655733
-0.2598841785149006
-0.1313988309613951
-0.03747085217058168
-0.09100842480942793
-0.009030588260893755
-0.1126407166967486
-0.1781721264326322
-0.2122771310963617
-0.18334402908791
0.05572490499248819
-0.06244382168439356
-0.02038821469351592
-0.06752515802235615
-0.1751435352836762
-0.02369367804835379
-0.01869251045854028
-0.05279419840867165
-0.0187806122308078
-0.006483493834497091
-0.109554946309755
-0.02308644207038011
-0.04608655425494604
-0.06946242947295721
-0.1630025479223624
-0.03354568335987655
-0.3921632465897207
-0.01780689452910232
-0.2239723033655871
-0.04499060570234894
0.03111739651487704
-0.1047965227513695
-0.01487730890000147
-0.04212947075886612
-0.1060201466932883
-0.01777635069589025
-0.0969869291559034
-0.2034297492641827
-0.07269025370013765
-0.02390505308829447
-0.04921770113551408
-0.04340325430028963
-0.2018273083025363
-0.02206815933382711
-0.01910563448715352
-0.01135351586404609
-0.05543650993364192
-0.05152855913790665
-0.02256673705273525
-0.02072891515205033
-0.2420563462291638
0.1277271961883447
-0.202477619018149
-0.2020198844204906
-0.01174569294783628
-0.01151548461929579
-0.06740241626830921
-0.009653083598056047
-0.5056451112246172
-0.12678467707439
-0.01921988832999126
-0.001527195333029082
-0.02412328028930124
-0.2839910907690912
-0.2751155344655261
-0.007388502265065783
-0.01793345615444009
-0.002330985719220083
-0.3457516001366527
-0.02840247463145662
-0.02926968306497633
-0.0125968936768659
-0.01965402588259205
0.05030650198027556
-0.1184400443860409
-0.01384209771015915
-0.02080169814796717
-0.04367077963191031
-0.01827946467988869
-0.01626232783076153
-0.02341093890264799
-0.06708143810989643
-0.0115677778079279
-0.01900088239446828
-0.008756900328600489
-0.001204398665439796
-0.02945470709195108
-0.00178881054247578
-0.00215645745212715
-0.005992464593012703
-0.02556412823776226
-0.008089364359507519
0.001651957724532414
-0.004092430412625761
0.00113351498270867
0.002385507893655588
-0.008614188691223381
-0.1354265993499443
-0.002990832804922552
-0.0005242759091384633
-0.04796501757999356
-0.02141180058522334
-0.0245923953688906
-0.01418390941744642
-0.006124755921376623
-0.02099497998876344
-0.03812406426733392
-0.01457858947200884
-0.01264949121439451
-0.01194402107758451
0.005581367333441158
-0.009955683257127661
-0.01277866576604479
-0.01127078324435406
-0.01050029678097147
-0.0100138243860156
-0.01096500072158236
-0.01389273648262002
-0.3024225211828577
0.0604884386367139
-0.01509694796911561
-0.01638396093750465
-0.01273695636651643
-0.01256739823802357
-0.008468291556281045
-0.09953194819308313
0.009751914313703801
-0.0141483553375155
-0.01446009515908952
-0.01078197331168048
-0.05276813371867863
-0.008569678728463719
-0.01398620822481425
-0.009238785857067845
-0.001992095984744444
-0.01020859463333365
-0.01041565103216428
-0.02472472064405157
-0.01608677137965402
-0.01224104425415087
-0.01332866266749048
-0.009311586470850956
-0.01329126971629873
-0.01110182994886864
-0.0579944835595169
-0.01297947452964861
-0.01193403064175052
-0.008885908426336894
-0.01511794157783745
-0.01417276556540436
-0.01572978447798197
-1.377958573422096
-0.09888029214112208
-0.01228391527406785
0.02233279506228708
-0.1650046449152192
-0.09388493330634831
-0.01154828534069235
-0.01414476054552601
-0.2536329350068774
-0.03026899176525651
-0.01988436933791087
-0.01135465885966678
-0.02000563830786799
-0.01120690562402487
-0.03071116322674366
-0.4139952754479166
-0.01212093128962044
-0.01408874507252327
-0.004750029711562052
-0.0104144326479792
-0.00915271211893681
-0.01422471642663435
-0.009490760796882105
-0.02656460680201893
-0.01141133560962392
-0.1626371629031697
0.01770855154692357
-0.007683320786213202
0.002919658191662987
0.01213281999978172
-0.04781184217058516
0.02927707675558362
-0.01270587615819038
-0.1355763130204554
0.2821450645682539
-0.007680422326446483
-0.01319415804341793
-0.008302408163768852
-0.03334553388520857
-0.1233047304977262
-0.01340644305797712
-0.01227981875318889
-0.01724095347082046
-0.01364463716709767
-0.04113332287587503
-0.2155782197587736
-0.01072394763744925
-0.04186266380988784
-0.03947218197739343
-0.1703459325736216
-0.159449240105598
-0.152451353795803
-0.2557624328667659
-0.005257369894447031
-0.02114722857399911
-0.01499619923982085
-0.01320908219510875
-0.03303897514073098
-0.02440157794390133
-0.01435318727372335
-0.01503105011524664
-1.080102060548882
-0.003702894645357191
-0.01377237495066707
-0.01827554103803118
-0.01765367565994045
0.005021188450183607
-0.0139134075855341
-0.02731220542798573
-0.1655060699702997
-0.01354710614481193
-0.02171705716693438
-0.01427883666430286
0.002256839570040831
-0.1782109640825013
-0.01326248405691947
-0.1493876767550933
-0.01593858816221095
0.009608978663088514
-0.01428132627322498
-0.02344867431004387
-0.01602001415116379
0.006517277362153545
-0.2740423761833528
-0.02588906833504132
-0.01638542392915756
-0.01100851543588898
-0.009896977539397009
-0.03028986191644332
-0.01421301086765125
-0.02063693916344004
-0.02117536763560177
0.009219437351837244
-0.1003137532465031
-0.02191551994963826
0.00933350563200034
-0.05284489463105312
0.1638820679079939
-0.1037859556693577
-0.3212412490671596
-0.02986633997043335
-0.02548313473375215
0.1492876240752778
0.0939629909646978
-0.003413839075504813
0.05109518639348438
-0.01568719681054093
-0.01407070761383908
0.002352985117159076
0.01101730024551792
-0.06663407401142972
-0.005070118857291556
-0.05723912115009112
-0.02265581399268347
-0.01569203212597992
-0.03651344420018404
-0.03292652174593629
-0.006665525024722381
-0.01472723769634179
-0.03875089219981781
0.03437772789624389
-0.03878539764672796
-0.01356916201642765
-0.1171451897957989
-0.03161974593070172
-0.03893788493398516
-0.6763279077853322
0.0158553009716928
-0.0111295584323601
-0.005302881879807401
0.1743548543044886
-0.09200611745213282
-0.0352774731052535
-0.2461768751466891
-0.0161251373070058
-0.01646979831171543
0.06519701023706956
-0.1845780857980747
-0.2256354213126098
-0.193687495280494
-0.6847196628860827
0.01026981886599165
-0.01924194306635657
-0.01586609317129137
-0.08682749706488797
0.1178725232438627
-0.02153565387971809
-0.2508194771259733
-0.03536237045684788
-0.006547505490275323
0.2766600185666577
-0.01106740500453083
-0.09328151008905494
-0.1497807861730638
-0.004636952185885588
-0.04079004864084338
-0.0448717082312124
-0.2016357569032408
-0.008684458132399146
-0.04173933364211317
-0.003189273596556116
-0.5503146940761495
-0.1992662294609287
-0.1761651579403104
-0.02303974319281489
-0.007621826922491129
-0.06048545915350431
-0.05789556614857429
-0.01570230419990794
-0.06805995111776843
0.003766786237030434
-0.01816559089485432
-0.09587119593774308
-0.26985542869725
-0.00876093449538062
-0.02575755352709264
-0.02189835001061663
-0.07477895087246383
-0.09076032802361333
-0.08826494598927094
-0.01121403599812407
-0.9217726721972197
0.1607932269373251
-0.08190124384678681
-0.2563503196380865
-0.04237264983427421
-0.009808901950906593
-0.2470769586314759
-0.1866683949035578
-0.03280543693391481
-0.1203015037625959
-0.01808166327386935
0.5622588882374376
-0.0242498495444552
-0.2224012408276446
-0.02595618756748256
-0.004709039611644276
-0.01158036256922312
-1.254736251612294
-0.1841089292227255
-0.2325712085917316
0.005380689413343951
-0.0378129198849536
-0.2442973024368922
-0.06582140717516291
-0.05124895040059953
-0.1425598373329926
-0.190647857181314
-0.06834754156938533
-1.227378233556764
-0.1514250237260443
-0.5265095278891403
0.07830846637444656
-0.006924269697080559
-0.0217885254106964
-0.04309670572931357
-0.04021083644637621
-0.02850262517360676
-0.1318916907190816
0.08006821558337823
-0.004169990247460916
-0.00971720459185382
-0.5743424515121534
-0.8605692284838954
-0.1835344428668601
-0.007966774367531206
-0.1299126501911356
0.0007480882734614763
-0.0007373444161218321
-0.002220783385794674
-0.06086081760282789
-0.2379828002193741
-0.01344550417924476
-0.1174962662439898
-0.1545737592598359
-0.01319322659464787
-0.03558003636230124
0.02382549203218752
-0.05768588505045962
-0.07030297246795469
-0.5004423254383248
-0.2463092853235423
-0.08103749304643529
-0.07320229964052542
-0.01977791065285326
-0.1160973186112853
-0.1593134711578114
-0.07888279796352603
0.0261899473500652
-0.08510947319301237
-0.04862035158340353
-0.01495104616242645
-0.1127131298121484
-0.2749123554972775
-0.05741816071940861
-0.01843298410848158
0.001577640741600108
-0.01018670284199983
-0.01097482163656877
-0.2256309480268025
-0.01444594462711892
-0.2214966312335499
-0.01072111198902466
-0.06608993005980623
-0.003490677513134226
-0.02320213284251586
-0.3820059332761649
-0.912959410931045
-0.01128532520727422
-1.049323433666525
-0.6106164590871734
-0.0107898041072227
-0.6535562807858731
-0.1790311285162478
-0.005169192288655926
-0.1279106695711101
-0.01718694269505509
-0.1224038231745978
-0.06696243076046664
-0.0754334940067929
-0.00552853001777192
-0.003186177868578415
-1.335243512589511
-0.01112589850340585
-0.1902485427957303
0.0006468128275905845
-1.014404590449766
-1.234474945253512
-0.08104611347789591
0.01934835987809764
0.164359858057909
-0.00492310488801983
-0.0229925045920429
-0.004317080629503209
-0.2474701281738868
0.3660197135043626
-0.04124220796322587
-0.2111869994318999
-0.01508778659455475
-0.6585065425089992
-0.07459036926450954
0.1910860348833038
-0.2913876458211117
-0.05008681404270648
-0.06917713248941333
-0.01580565348651758
-0.02162790445572263
-0.5801748934641594
-0.1477088503502635
-0.08990307794975855
-0.1235352968803288
-0.556563150243063
-0.04452729145266658
-0.9096536956711907
-0.001056774202283654
-0.2392483195627714
-1.046001675322499
0.1700820694690437
0.2923544935962561
-0.1758791933753939
-0.193053719279533
-0.2076754562378148
-0.06784778434425223
0.02396278779464074
0.05032319136046781
0.004519441874025349
-0.1591355021667584
0.02490676065432209
-1.355026750524813
-0.08565013171154699
-0.4736605887921311
-0.329851314078589
-0.2096789907168251
-0.1767383601236115
-0.01694606449484744
-0.01541184181693699
-0.09968669017315289
0.1704398547062021
0.3856495059557947
-0.2206809753600684
-0.1485328694270955
-0.2377047216736275
-0.06274276924557756
-0.1565840855904806
-0.1663545384750513
-0.1259975539707261
-0.1153762917730132
0.4672619582671007
-0.2735759930315562
0.4300451804556102
-0.5975173210475022
0.0708475598820352
-0.1990174526010493
-0.06653605643012261
-0.07460775012460236
-0.8807199640003783
-0.2228689191702523
-0.1898860915196944
-0.348596698757703
-0.4593333202327166
0.5704185003314125
-0.2060328528418734
0.0005863418028024467
-0.07027696317202885
0.3430585633214865
-0.03711714214078584
-0.1228954652880457
-0.1790676343592296
-0.06443940851461517
-0.01644233489859823
-0.1942081931026756
0.192126133735877
-0.01265395466181144
-0.09682097523060085
-0.1702435787896535
-0.3129839697590527
-0.3126633270954621
-0.07301673392604842
-0.01003914786870693
-0.07530003484363575
-0.6568396542105609
-0.6675167776258368
-0.3337767875806439
-0.05805418335020128
-0.05157841964447798
-0.0252071065669543
-0.06815678997416848
-0.05736465099034316
-0.3611778498095206
-0.9552192080514328
-0.009543968585777067
-0.08347032854212127
-1.13630074222783
-1.03199346798148
-0.1041478672009346
-0.03906577001429855
-0.0696866927082391
0.3910691593247845
-0.344159787074662
-0.05222539565165127
-0.5983928660423418
-0.1298358363385589
-0.252607455674641
-0.2100245574447233
0.4742907915730917
-0.6285235548670743
0.07276547408094738
-0.02932074092862763
-0.5599868813172978
-0.05203961854763192
-0.3603251360347373
0.1066400116655732
-0.1907409668146637
-0.06019701927790919
-0.1316469971820646
-0.3630403477232547
-0.08886010095445977
0.5137354314849365
0.08549596253489855
0.4712624594728348
-0.1198624544635326
-0.2012121478857667
-0.5186169828636745
-0.1304507945393855
0.02642677919936056
-0.05396754769489558
0.1028400852987294
-0.3092657985899628
0.2362096615314212
0.008424750641930379
-0.003282187040831388
-0.513647842937454
-0.1852013286267916
-0.09511306367852664
0.5811762011694868
0.1385181831222161
0.3468702728251752
0.2256203050272368
-0.5604510056698987
-0.2149641135844001
-0.2186308220277356
-0.2373756914079606
-0.06072747670573872
-0.6946550267455731
-0.1945313338395386
0.3062757688802301
-0.210365002491011
-0.01107515087202638
-0.1700330021344363
-0.009922322330931998
-0.1625348161204143
-0.4375933580128848
-0.07714784317131752
-0.1991277524320819
-0.07341850677776503
-0.1012052508064618
-0.1393270746459927
-0.07360716591824691
-0.450323557755382
-0.4157090018836931
-0.02664070229146786
-0.07492676965415437
0.326058285582021
-0.2478308919535504
-0.179972911239387
0.5258824354431053
-0.2022294086559676
0.01783079787206905
-0.4497329693514417
0.04534339059537122
-0.06172142757162194
-0.1572895779061691
-0.5837748248490598
0.1622997707068036
-0.5812254746169168
-0.5342929532226869
-0.1060024289355829
-0.5067150868771867
-0.03710944439955866
-0.1479236389573445
-0.409136855454902
-0.01630136955530603
0.2862661780024782
0.4893993571981338
-0.161312067069226
-0.007876660893310052
-0.07185379248951677
0.5253115507227469
-0.03315586017524521
-0.4396438803836866
-0.03250320410506265
0.4601464456801815
-0.01527417123990956
-0.543747933003174
-0.2410461481380418
0.1757407680530331
-0.3107069962160331
-0.1788666431738837
0.05191062006717822
0.03319843170281072
0.05451367828445138
-0.2997127287769759
-0.1570015317625084
0.4127393942378795
)
;

boundaryField
{
    FrontBack
    {
        type            empty;
    }
    Top
    {
        type            zeroGradient;
    }
    In
    {
        type            zeroGradient;
    }
    Bottom
    {
        type            zeroGradient;
    }
    Out
    {
        type            fixedValue;
        value           uniform 0;
    }
    circle
    {
        type            zeroGradient;
    }
}


// ************************************************************************* //
