/*--------------------------------*- C++ -*----------------------------------*\
| =========                 |                                                 |
| \\      /  F ield         | OpenFOAM: The Open Source CFD Toolbox           |
|  \\    /   O peration     | Version:  2412                                  |
|   \\  /    A nd           | Website:  www.openfoam.com                      |
|    \\/     M anipulation  |                                                 |
\*---------------------------------------------------------------------------*/
FoamFile
{
    version     2.0;
    format      ascii;
    arch        "LSB;label=32;scalar=64";
    class       volVectorField;
    location    "0.4";
    object      cellDisplacement;
}
// * * * * * * * * * * * * * * * * * * * * * * * * * * * * * * * * * * * * * //

dimensions      [0 1 0 0 0 0 0];

internalField   nonuniform List<vector> 
256
(
(0.013211 -8.99296e-05 0)
(0.0128639 0.00190646 0)
(0.0117239 0.00354374 0)
(0.010067 0.00457231 0)
(0.0080449 0.00482131 0)
(0.00588547 0.00430019 0)
(0.00385034 0.00322866 0)
(0.00185842 0.00169321 0)
(0.0391465 7.71255e-05 0)
(0.0381883 0.00567124 0)
(0.0352259 0.0103479 0)
(0.0307185 0.0134114 0)
(0.0252697 0.0144886 0)
(0.0195179 0.0136606 0)
(0.0137773 0.0111221 0)
(0.0082137 0.00727685 0)
(0.0636603 0.00057227 0)
(0.0621156 0.00930381 0)
(0.0576517 0.0166553 0)
(0.0510095 0.0217174 0)
(0.0429173 0.0239342 0)
(0.0341653 0.0232578 0)
(0.0254726 0.0201025 0)
(0.0168699 0.0147494 0)
(0.0869514 0.00138831 0)
(0.0848691 0.0128856 0)
(0.0792489 0.0226687 0)
(0.0708729 0.0296275 0)
(0.0606965 0.033131 0)
(0.0497247 0.0331624 0)
(0.038564 0.029922 0)
(0.0275353 0.0238743 0)
(0.109109 0.00252132 0)
(0.106525 0.0164845 0)
(0.0999324 0.0284497 0)
(0.0903327 0.0372904 0)
(0.0786389 0.0422744 0)
(0.0658528 0.0432491 0)
(0.0528882 0.0405603 0)
(0.0399444 0.0345014 0)
(0.130272 0.00400554 0)
(0.127235 0.0201863 0)
(0.119954 0.034202 0)
(0.109364 0.044834 0)
(0.0964986 0.0513438 0)
(0.0824989 0.0536536 0)
(0.0681072 0.0518664 0)
(0.0537421 0.0464044 0)
(0.15052 0.00587287 0)
(0.147062 0.02407 0)
(0.139227 0.0399649 0)
(0.127957 0.0523658 0)
(0.11433 0.060549 0)
(0.0993662 0.0642954 0)
(0.0840421 0.063857 0)
(0.0686663 0.0595132 0)
(0.169933 0.00819047 0)
(0.16608 0.0282252 0)
(0.157869 0.0459108 0)
(0.146103 0.0600178 0)
(0.131915 0.0698692 0)
(0.116415 0.0753466 0)
(0.100406 0.0764704 0)
(0.0843455 0.0736501 0)
(0.188579 0.0110257 0)
(0.184368 0.03276 0)
(0.175801 0.0520819 0)
(0.163751 0.0678823 0)
(0.149289 0.0795315 0)
(0.133385 0.0867632 0)
(0.116991 0.0897563 0)
(0.100532 0.0888472 0)
(0.206462 0.0144969 0)
(0.201915 0.0377626 0)
(0.193107 0.0586571 0)
(0.180883 0.0761111 0)
(0.166239 0.0895207 0)
(0.150185 0.0987466 0)
(0.133576 0.103769 0)
(0.11685 0.105048 0)
(0.223606 0.0187253 0)
(0.218694 0.0433837 0)
(0.209673 0.0657013 0)
(0.197372 0.0847844 0)
(0.182716 0.10009 0)
(0.166634 0.111348 0)
(0.149889 0.118667 0)
(0.133044 0.122373 0)
(0.23991 0.0238761 0)
(0.234592 0.0497098 0)
(0.22542 0.0734087 0)
(0.213135 0.094095 0)
(0.19853 0.111306 0)
(0.182459 0.124801 0)
(0.165694 0.134558 0)
(0.148629 0.140927 0)
(0.255177 0.0300869 0)
(0.249445 0.0570001 0)
(0.240179 0.0819021 0)
(0.227909 0.104208 0)
(0.213417 0.123367 0)
(0.197346 0.139215 0)
(0.180456 0.151611 0)
(0.16307 0.160866 0)
(0.269048 0.0377616 0)
(0.262928 0.0654321 0)
(0.253526 0.0914756 0)
(0.241344 0.115247 0)
(0.226834 0.136439 0)
(0.210696 0.154706 0)
(0.193396 0.170002 0)
(0.175472 0.182358 0)
(0.280915 0.0470426 0)
(0.274324 0.0752396 0)
(0.264782 0.102106 0)
(0.252552 0.127249 0)
(0.237977 0.150369 0)
(0.221414 0.171241 0)
(0.203379 0.189589 0)
(0.184152 0.205416 0)
(0.28853 0.0575605 0)
(0.281499 0.0855642 0)
(0.271757 0.112744 0)
(0.259397 0.138838 0)
(0.24454 0.163595 0)
(0.227327 0.186776 0)
(0.207925 0.208159 0)
(0.186521 0.227536 0)
(0.00187903 0.00163143 0)
(0.0034526 0.00318237 0)
(0.00456549 0.00473797 0)
(0.00524229 0.00645809 0)
(0.00535409 0.00823821 0)
(0.00483841 0.00994865 0)
(0.00372659 0.0115263 0)
(0.00207191 0.0126922 0)
(0.00817653 0.00724357 0)
(0.0120814 0.0115715 0)
(0.0147774 0.0161599 0)
(0.0160624 0.0209559 0)
(0.0158079 0.0258729 0)
(0.0139201 0.030684 0)
(0.0104149 0.0348786 0)
(0.00555547 0.0378879 0)
(0.0165238 0.0148234 0)
(0.0220284 0.0217347 0)
(0.0254518 0.0288831 0)
(0.0267539 0.0364548 0)
(0.0256703 0.0441269 0)
(0.0220888 0.0513858 0)
(0.0161465 0.057595 0)
(0.00830321 0.0619384 0)
(0.0267582 0.0243398 0)
(0.0329613 0.0333806 0)
(0.0365076 0.0429048 0)
(0.0372126 0.0528002 0)
(0.0348756 0.0627153 0)
(0.0294188 0.0720531 0)
(0.0210366 0.0797995 0)
(0.0103963 0.0850199 0)
(0.0384879 0.035491 0)
(0.0447501 0.0465081 0)
(0.0477123 0.0579586 0)
(0.0473677 0.0698844 0)
(0.0434475 0.0817003 0)
(0.0359227 0.0925353 0)
(0.0251343 0.101403 0)
(0.0118865 0.107126 0)
(0.0515172 0.0482405 0)
(0.0570713 0.0608278 0)
(0.058973 0.074051 0)
(0.0571203 0.0875939 0)
(0.0513234 0.100822 0)
(0.0416229 0.112842 0)
(0.0284631 0.12244 0)
(0.012786 0.128403 0)
(0.065451 0.062309 0)
(0.0697864 0.076372 0)
(0.0700742 0.090944 0)
(0.0663808 0.105835 0)
(0.058483 0.120183 0)
(0.046517 0.132913 0)
(0.0310344 0.142872 0)
(0.0130968 0.148853 0)
(0.0800731 0.077707 0)
(0.0825944 0.0928884 0)
(0.0809104 0.108698 0)
(0.0750313 0.124554 0)
(0.0648561 0.139592 0)
(0.0505683 0.152774 0)
(0.0328241 0.162782 0)
(0.0127735 0.168589 0)
(0.0949983 0.094233 0)
(0.0953083 0.110474 0)
(0.0912612 0.127135 0)
(0.0829456 0.143681 0)
(0.0703332 0.159159 0)
(0.0536992 0.172348 0)
(0.0337797 0.182155 0)
(0.0117606 0.187616 0)
(0.109972 0.111975 0)
(0.107591 0.128969 0)
(0.100888 0.146317 0)
(0.0899184 0.163225 0)
(0.0747666 0.178694 0)
(0.0557902 0.191663 0)
(0.0337911 0.201025 0)
(0.0099498 0.205987 0)
(0.124556 0.130896 0)
(0.119157 0.148517 0)
(0.109467 0.166194 0)
(0.0956757 0.183113 0)
(0.0779217 0.198304 0)
(0.0566507 0.210692 0)
(0.0327003 0.219379 0)
(0.00719939 0.223691 0)
(0.13834 0.15112 0)
(0.12952 0.169118 0)
(0.116586 0.18686 0)
(0.0998484 0.203429 0)
(0.0794591 0.217912 0)
(0.0560063 0.229412 0)
(0.0302607 0.23718 0)
(0.00330939 0.240679 0)
(0.150652 0.172762 0)
(0.138019 0.190942 0)
(0.121678 0.208331 0)
(0.10183 0.224123 0)
(0.0789323 0.2375 0)
(0.0534117 0.247748 0)
(0.0261452 0.254289 0)
(-0.00199823 0.256753 0)
(0.160425 0.196039 0)
(0.143715 0.213975 0)
(0.123672 0.230553 0)
(0.100847 0.244997 0)
(0.0755494 0.256746 0)
(0.0483741 0.265304 0)
(0.0199373 0.270293 0)
(-0.00898006 0.27153 0)
(0.165835 0.220793 0)
(0.144707 0.23787 0)
(0.121216 0.252787 0)
(0.0957234 0.265165 0)
(0.0686041 0.27471 0)
(0.0402797 0.28118 0)
(0.0112378 0.284404 0)
(-0.0180304 0.284302 0)
(0.16332 0.244723 0)
(0.138547 0.259553 0)
(0.112439 0.271883 0)
(0.0852484 0.281595 0)
(0.0572368 0.288595 0)
(0.0286739 0.292815 0)
(-0.000165025 0.294216 0)
(-0.0290024 0.292783 0)
)
;

boundaryField
{
    walls
    {
        type            cellMotion;
        value           uniform (0 0 0);
    }
    cylinder
    {
        type            cellMotion;
        value           nonuniform List<vector> 
16
(
(0.28853 0.0575605 0)
(0.281499 0.0855642 0)
(0.271757 0.112744 0)
(0.259397 0.138838 0)
(0.24454 0.163595 0)
(0.227327 0.186776 0)
(0.207925 0.208159 0)
(0.186521 0.227536 0)
(0.16332 0.244723 0)
(0.138547 0.259553 0)
(0.112439 0.271883 0)
(0.0852484 0.281595 0)
(0.0572368 0.288595 0)
(0.0286739 0.292815 0)
(-0.000165025 0.294216 0)
(-0.0290024 0.292783 0)
)
;
    }
    outlet
    {
        type            cellMotion;
        value           uniform (0 0 0);
    }
    inlet
    {
        type            cellMotion;
        value           nonuniform List<vector> 0();
    }
    frontAndBack
    {
        type            empty;
    }
    procBoundary1to0
    {
        type            processor;
        value           nonuniform List<vector> 
16
(
(0.0127154 -0.0020948 0)
(0.0379587 -0.00561327 0)
(0.0620563 -0.00838223 0)
(0.0851814 -0.0104847 0)
(0.107327 -0.0119702 0)
(0.128637 -0.0128555 0)
(0.149112 -0.0131415 0)
(0.168861 -0.0127886 0)
(0.187888 -0.0117416 0)
(0.206243 -0.00990109 0)
(0.223916 -0.00712761 0)
(0.24086 -0.00323101 0)
(0.256882 0.00206957 0)
(0.271602 0.00902983 0)
(0.284326 0.0180525 0)
(0.292783 0.0290024 0)
)
;
    }
    procBoundary1to3
    {
        type            processor;
        value           nonuniform List<vector> 
16
(
(9.04026e-05 0.0131663 0)
(-6.95346e-05 0.0390163 0)
(-0.000549924 0.0634542 0)
(-0.00134647 0.0866806 0)
(-0.00245619 0.108788 0)
(-0.00391414 0.129915 0)
(-0.00575503 0.150145 0)
(-0.00804744 0.16956 0)
(-0.0108655 0.188225 0)
(-0.0143241 0.206144 0)
(-0.0185573 0.223342 0)
(-0.023727 0.239706 0)
(-0.0299776 0.255043 0)
(-0.0376957 0.268979 0)
(-0.0470173 0.280895 0)
(-0.0575605 0.28853 0)
)
;
    }
}


// ************************************************************************* //
