/*--------------------------------*- C++ -*----------------------------------*\
| =========                 |                                                 |
| \\      /  F ield         | OpenFOAM: The Open Source CFD Toolbox           |
|  \\    /   O peration     | Version:  2412                                  |
|   \\  /    A nd           | Website:  www.openfoam.com                      |
|    \\/     M anipulation  |                                                 |
\*---------------------------------------------------------------------------*/
FoamFile
{
    version     2.0;
    format      ascii;
    arch        "LSB;label=32;scalar=64";
    class       surfaceScalarField;
    location    "0.4";
    object      meshPhi;
}
// * * * * * * * * * * * * * * * * * * * * * * * * * * * * * * * * * * * * * //

dimensions      [0 3 -1 0 0 0 0];

internalField   nonuniform List<scalar> 
480
(
0.00361216
-0.00213429
0.00383353
0.000965152
0.00411195
0.00444053
0.00417745
0.00736011
0.0037927
0.00867394
0.00303139
0.00823402
0.00206642
0.00670957
0.00531006
0.00157861
0.0106979
-0.00373013
0.0113475
0.00180591
0.012055
0.00784146
0.0121444
0.0128517
0.011131
0.015295
0.00916247
0.0149898
0.00657923
0.0128122
0.0105293
0.00523319
0.0174642
-0.00483237
0.0184405
0.00247898
0.0193848
0.0102517
0.0194176
0.0167067
0.0180692
0.0201743
0.0153662
0.0203153
0.0117537
0.017991
0.0153965
0.00991018
0.0239036
-0.00555414
0.0249442
0.0029481
0.0259659
0.01179
0.0260945
0.0192829
0.0246756
0.0236535
0.021618
0.0243929
0.0175317
0.0223833
0.0199853
0.0156669
0.0300685
-0.00601656
0.0309819
0.00329031
0.0319974
0.0128392
0.0323791
0.0210139
0.0310862
0.0260666
0.0281251
0.0275248
0.0240928
0.0261638
0.0241601
0.0224884
0.0360216
-0.00620926
0.0368874
0.00361837
0.0378743
0.0135495
0.0384323
0.0220375
0.0374435
0.0275348
0.0349969
0.0296823
0.031424
0.0290705
0.0275415
0.0301936
0.0417418
-0.00613606
0.0426816
0.00387225
0.0437088
0.0138635
0.0443841
0.0224115
0.0438689
0.0281794
0.0421547
0.030882
0.0391927
0.0308493
0.0296993
0.0384151
0.0471895
-0.00586991
0.048181
0.00404473
0.0494092
0.0138203
0.050346
0.0221708
0.0504165
0.0279982
0.0493956
0.0310006
0.0470564
0.0313809
0.0306675
0.0468961
0.0524587
-0.00536177
0.0534949
0.00415751
0.0550103
0.01347
0.0563435
0.0213817
0.0568874
0.0269883
0.0564489
0.030064
0.0549088
0.0308214
0.0306347
0.0556318
0.0576028
-0.0046454
0.0588203
0.00421025
0.0605847
0.0127007
0.0622187
0.0198926
0.0631775
0.0251429
0.0633909
0.0283116
0.0629628
0.0295539
0.0300364
0.0650598
0.0626522
-0.00389118
0.0640633
0.00402415
0.0659895
0.0114346
0.0679268
0.0178128
0.0695214
0.0227094
0.0707044
0.0259904
0.0718953
0.0277557
0.0287652
0.0757727
0.0676162
-0.00321992
0.0691045
0.0034636
0.0712602
0.00977626
0.0737391
0.0152648
0.0762955
0.0196798
0.0789845
0.0229235
0.0820836
0.0248948
0.0261412
0.0875906
0.0724081
-0.00215809
0.0740319
0.00303489
0.0766035
0.00799574
0.0798858
0.0124196
0.0838001
0.0161045
0.0883155
0.0188793
0.0932256
0.0206959
0.0219939
0.10006
0.077017
-0.000555908
0.0789268
0.00292241
0.0820984
0.00632832
0.0863885
0.00945603
0.0918035
0.0120975
0.0980806
0.0140395
0.104802
0.0153407
0.0164742
0.112917
0.0811245
0.0012935
0.0834451
0.00292115
0.0873218
0.00454955
0.0926039
0.00607507
0.0992431
0.00739347
0.106966
0.00838915
0.115364
0.00912986
0.00986282
0.124836
0.0813112
0.0843016
0.0888644
0.0948198
0.101988
0.110123
0.118917
0.128301
0.00189665
-0.003662
0.00254948
-0.00553025
0.00316824
-0.00765899
0.00343252
-0.00899485
0.00335326
-0.00914267
0.00334502
-0.00835434
0.00343001
-0.00692703
-0.00474225
0.00602325
-0.00829463
0.00789516
-0.0113638
0.00949651
-0.0147798
0.0102183
-0.0167014
0.0100792
-0.0167676
0.00992804
-0.0151787
0.0101184
-0.0123433
-0.00837637
0.0109718
-0.0136855
0.0136678
-0.0173359
0.0158352
-0.021233
0.0168614
-0.0232775
0.0167682
-0.023086
0.01634
-0.0206922
0.0165019
-0.0165313
-0.011062
0.0167672
-0.0193653
0.019854
-0.0230941
0.0222231
-0.0269332
0.0233865
-0.028627
0.0234067
-0.0280182
0.0228204
-0.0250206
0.0228189
-0.0198066
-0.0130205
0.0233597
-0.0250367
0.0264847
-0.0284856
0.0287495
-0.0318393
0.0298676
-0.0329464
0.0299334
-0.0317286
0.0293364
-0.0280768
0.0291451
-0.0220564
-0.0142932
0.0305811
-0.0301268
0.0334338
-0.032969
0.0353972
-0.0356047
0.0362748
-0.0359506
0.0361745
-0.0339735
0.0355989
-0.0297007
0.0353183
-0.0231619
-0.0148202
0.0381641
-0.0341881
0.0404773
-0.0363128
0.0420178
-0.0379924
0.0425631
-0.0375849
0.042216
-0.0349888
0.0416417
-0.0302127
0.0412833
-0.0233237
-0.0146957
0.0459866
-0.036931
0.0476346
-0.0384149
0.0486344
-0.0392078
0.0488253
-0.0379824
0.0483152
-0.0348353
0.0476317
-0.0297437
0.0470918
-0.0226824
-0.0140557
0.054111
-0.0382007
0.055122
-0.039198
0.0554772
-0.0392408
0.0552624
-0.0373064
0.054525
-0.0336461
0.0535491
-0.0283369
0.052755
-0.021318
-0.0129741
0.0629189
-0.0381483
0.0630865
-0.0386045
0.0627057
-0.0379181
0.061876
-0.035412
0.0606746
-0.0314004
0.0593268
-0.0260624
0.0582557
-0.0193657
-0.0115866
0.0727205
-0.0368026
0.0716132
-0.0366882
0.0701531
-0.0352186
0.0684444
-0.0322398
0.0666186
-0.028103
0.0648865
-0.0229709
0.0635842
-0.0168587
-0.0098827
0.0833582
-0.0336629
0.0806139
-0.0330967
0.0777484
-0.0310319
0.0749674
-0.0278314
0.0723845
-0.0238194
0.0702152
-0.0191222
0.0687261
-0.0137467
-0.00779727
0.09441
-0.0283236
0.0899294
-0.0274385
0.0855329
-0.0251706
0.081511
-0.0220915
0.0780554
-0.0185169
0.0753535
-0.0145127
0.073617
-0.0101133
-0.00543478
0.105647
-0.0204985
0.0993385
-0.0195095
0.0933034
-0.0173941
0.0879498
-0.0148727
0.0835112
-0.012107
0.0801599
-0.00914185
0.078078
-0.00603936
-0.00286566
0.116025
-0.00971561
0.107724
-0.0088576
0.100084
-0.00753438
0.0934651
-0.00611021
0.088091
-0.0046212
0.0841288
-0.00308563
0.0817108
-0.00152936
1.07223e-05
0.117745
0.107953
0.0993595
0.0921861
0.0865888
0.0826791
0.0805214
)
;

boundaryField
{
    walls
    {
        type            calculated;
        value           uniform 0;
    }
    cylinder
    {
        type            calculated;
        value           nonuniform List<scalar> 
16
(
1.80552e-11
-2.21682e-11
-7.35356e-12
1.3379e-11
-3.7679e-11
2.72942e-11
4.22664e-11
-2.13975e-11
2.13978e-11
-4.22659e-11
-2.72935e-11
3.76793e-11
-1.33791e-11
7.35471e-12
2.21697e-11
-1.80544e-11
)
;
    }
    outlet
    {
        type            calculated;
        value           uniform 0;
    }
    inlet
    {
        type            calculated;
        value           nonuniform List<scalar> 0();
    }
    frontAndBack
    {
        type            empty;
    }
    procBoundary1to0
    {
        type            processor;
        value           nonuniform List<scalar> 
16
(
-0.00344867
-0.0102659
-0.0168482
-0.0231755
-0.0292977
-0.0352397
-0.0410034
-0.0466039
-0.0520079
-0.0571623
-0.0621758
-0.0671478
-0.0719736
-0.0765091
-0.0804195
-0.0800042
)
;
    }
    procBoundary1to3
    {
        type            processor;
        value           nonuniform List<scalar> 
16
(
0.00350063
0.0104124
0.0170628
0.0234282
0.0295646
0.0355177
0.0413256
0.0470242
0.0525705
0.0578861
0.0630681
0.0681801
0.0730163
0.0773527
0.0808918
0.0801274
)
;
    }
}


// ************************************************************************* //
