/*--------------------------------*- C++ -*----------------------------------*\
| =========                 |                                                 |
| \\      /  F ield         | OpenFOAM: The Open Source CFD Toolbox           |
|  \\    /   O peration     | Version:  2412                                  |
|   \\  /    A nd           | Website:  www.openfoam.com                      |
|    \\/     M anipulation  |                                                 |
\*---------------------------------------------------------------------------*/
FoamFile
{
    version     2.0;
    format      ascii;
    arch        "LSB;label=32;scalar=64";
    class       pointVectorField;
    location    "0.4";
    object      pointDisplacement;
}
// * * * * * * * * * * * * * * * * * * * * * * * * * * * * * * * * * * * * * //

dimensions      [0 1 0 0 0 0 0];

internalField   nonuniform List<vector> 
578
(
(0 0 0)
(0 0 0)
(0 0 0)
(0 0 0)
(0 0 0)
(0 0 0)
(0 0 0)
(0 0 0)
(0 0 0)
(0.0257902 -0.00194027 0)
(0.02589 0.00189089 0)
(0.024538 0.005377 0)
(0.0219653 0.0079857 0)
(0.0185465 0.00934231 0)
(0.0146894 0.00933321 0)
(0.0107549 0.00808401 0)
(0.00691121 0.00582409 0)
(0.00490549 0.00434937 0)
(0.0507357 -0.00334415 0)
(0.0508116 0.00390642 0)
(0.0483293 0.0105027 0)
(0.043682 0.0155473 0)
(0.0375031 0.0184056 0)
(0.0304834 0.0188523 0)
(0.023241 0.0170493 0)
(0.0160827 0.0133187 0)
(0.012286 0.0108813 0)
(0.0744908 -0.00423179 0)
(0.0744296 0.00603868 0)
(0.071002 0.0153855 0)
(0.0647246 0.0226794 0)
(0.0563995 0.0271184 0)
(0.046897 0.0283896 0)
(0.0369962 0.0266284 0)
(0.0271215 0.0221776 0)
(0.0217377 0.0192814 0)
(0.0971685 -0.00463922 0)
(0.0968908 0.00832201 0)
(0.0926712 0.0201285 0)
(0.0851238 0.0295196 0)
(0.0751612 0.0355953 0)
(0.0637515 0.0379717 0)
(0.051778 0.0367437 0)
(0.0397527 0.0322364 0)
(0.0329838 0.029371 0)
(0.11886 -0.00457559 0)
(0.118309 0.0108023 0)
(0.113436 0.0248366 0)
(0.104921 0.0362031 0)
(0.0937338 0.0439483 0)
(0.0808976 0.0476473 0)
(0.0673603 0.047353 0)
(0.0536965 0.0433586 0)
(0.0457202 0.040969 0)
(0.139657 -0.00402882 0)
(0.138794 0.0135371 0)
(0.133392 0.0296113 0)
(0.124149 0.0428495 0)
(0.112062 0.0522844 0)
(0.0981987 0.0574758 0)
(0.0835294 0.0584388 0)
(0.0686692 0.0554369 0)
(0.0596451 0.0539229 0)
(0.159627 -0.00296445 0)
(0.158418 0.0165935 0)
(0.152579 0.0345477 0)
(0.14281 0.0495715 0)
(0.130099 0.0607099 0)
(0.115532 0.0675291 0)
(0.100083 0.0700115 0)
(0.0843963 0.0683985 0)
(0.0744452 0.0681015 0)
(0.178833 -0.00132512 0)
(0.177257 0.0200545 0)
(0.171047 0.039749 0)
(0.1609 0.0564787 0)
(0.147786 0.0693332 0)
(0.132775 0.0778894 0)
(0.116825 0.0821015 0)
(0.1006 0.0822047 0)
(0.0898148 0.083421 0)
(0.197309 0.000974288 0)
(0.195346 0.0240156 0)
(0.188813 0.0453194 0)
(0.178403 0.0636874 0)
(0.16506 0.0782675 0)
(0.149797 0.0886504 0)
(0.133558 0.0947735 0)
(0.117017 0.0968755 0)
(0.105436 0.0998454 0)
(0.215071 0.00405351 0)
(0.212682 0.0285965 0)
(0.205861 0.0513795 0)
(0.195274 0.0713166 0)
(0.18182 0.0876311 0)
(0.166464 0.0999337 0)
(0.150093 0.108145 0)
(0.133367 0.112481 0)
(0.120978 0.117404 0)
(0.232086 0.00806661 0)
(0.229212 0.0339281 0)
(0.222106 0.0580535 0)
(0.211413 0.0794992 0)
(0.197954 0.0975714 0)
(0.182603 0.111891 0)
(0.166189 0.122352 0)
(0.149338 0.129143 0)
(0.136043 0.136174 0)
(0.248218 0.0132072 0)
(0.24479 0.0401725 0)
(0.237418 0.0655072 0)
(0.226672 0.088404 0)
(0.213261 0.108244 0)
(0.197953 0.124674 0)
(0.181506 0.137551 0)
(0.164484 0.146996 0)
(0.150102 0.156282 0)
(0.263185 0.0197446 0)
(0.259157 0.0475747 0)
(0.251527 0.0739539 0)
(0.240748 0.0982076 0)
(0.227387 0.119814 0)
(0.212086 0.13843 0)
(0.195489 0.153883 0)
(0.178117 0.166209 0)
(0.162365 0.177892 0)
(0.276479 0.027981 0)
(0.271809 0.0563743 0)
(0.263895 0.0835651 0)
(0.253058 0.109018 0)
(0.239685 0.132323 0)
(0.224241 0.153184 0)
(0.207235 0.171379 0)
(0.189116 0.186835 0)
(0.17146 0.201067 0)
(0.286643 0.0379283 0)
(0.281321 0.0663608 0)
(0.273094 0.0939183 0)
(0.262126 0.120236 0)
(0.248623 0.145012 0)
(0.232823 0.167992 0)
(0.215023 0.188937 0)
(0.19551 0.207671 0)
(0.174964 0.22459 0)
(0.291358 0.0433859 0)
(0.285702 0.0717351 0)
(0.277295 0.0993934 0)
(0.266218 0.126094 0)
(0.252577 0.151581 0)
(0.236503 0.175608 0)
(0.218151 0.197944 0)
(0.197699 0.218373 0)
(0.175343 0.2367 0)
(0 0 0)
(0 0 0)
(0 0 0)
(0 0 0)
(0 0 0)
(0 0 0)
(0 0 0)
(0 0 0)
(0 0 0)
(0.0257902 -0.00194027 0)
(0.02589 0.00189089 0)
(0.024538 0.005377 0)
(0.0219653 0.0079857 0)
(0.0185465 0.00934231 0)
(0.0146894 0.00933321 0)
(0.0107549 0.00808401 0)
(0.00691121 0.00582409 0)
(0.00490549 0.00434937 0)
(0.0507357 -0.00334415 0)
(0.0508116 0.00390642 0)
(0.0483293 0.0105027 0)
(0.043682 0.0155473 0)
(0.0375031 0.0184056 0)
(0.0304834 0.0188523 0)
(0.023241 0.0170493 0)
(0.0160827 0.0133187 0)
(0.012286 0.0108813 0)
(0.0744908 -0.00423179 0)
(0.0744296 0.00603868 0)
(0.071002 0.0153855 0)
(0.0647246 0.0226794 0)
(0.0563995 0.0271184 0)
(0.046897 0.0283896 0)
(0.0369962 0.0266284 0)
(0.0271215 0.0221776 0)
(0.0217377 0.0192814 0)
(0.0971685 -0.00463922 0)
(0.0968908 0.00832201 0)
(0.0926712 0.0201285 0)
(0.0851238 0.0295196 0)
(0.0751612 0.0355953 0)
(0.0637515 0.0379717 0)
(0.051778 0.0367437 0)
(0.0397527 0.0322364 0)
(0.0329838 0.029371 0)
(0.11886 -0.00457559 0)
(0.118309 0.0108023 0)
(0.113436 0.0248366 0)
(0.104921 0.0362031 0)
(0.0937338 0.0439483 0)
(0.0808976 0.0476473 0)
(0.0673603 0.047353 0)
(0.0536965 0.0433586 0)
(0.0457202 0.040969 0)
(0.139657 -0.00402882 0)
(0.138794 0.0135371 0)
(0.133392 0.0296113 0)
(0.124149 0.0428495 0)
(0.112062 0.0522844 0)
(0.0981987 0.0574758 0)
(0.0835294 0.0584388 0)
(0.0686692 0.0554369 0)
(0.0596451 0.0539229 0)
(0.159627 -0.00296445 0)
(0.158418 0.0165935 0)
(0.152579 0.0345477 0)
(0.14281 0.0495715 0)
(0.130099 0.0607099 0)
(0.115532 0.0675291 0)
(0.100083 0.0700115 0)
(0.0843963 0.0683985 0)
(0.0744452 0.0681015 0)
(0.178833 -0.00132512 0)
(0.177257 0.0200545 0)
(0.171047 0.039749 0)
(0.1609 0.0564787 0)
(0.147786 0.0693332 0)
(0.132775 0.0778894 0)
(0.116825 0.0821015 0)
(0.1006 0.0822047 0)
(0.0898148 0.083421 0)
(0.197309 0.000974288 0)
(0.195346 0.0240156 0)
(0.188813 0.0453194 0)
(0.178403 0.0636874 0)
(0.16506 0.0782675 0)
(0.149797 0.0886504 0)
(0.133558 0.0947735 0)
(0.117017 0.0968755 0)
(0.105436 0.0998454 0)
(0.215071 0.00405351 0)
(0.212682 0.0285965 0)
(0.205861 0.0513795 0)
(0.195274 0.0713166 0)
(0.18182 0.0876311 0)
(0.166464 0.0999337 0)
(0.150093 0.108145 0)
(0.133367 0.112481 0)
(0.120978 0.117404 0)
(0.232086 0.00806661 0)
(0.229212 0.0339281 0)
(0.222106 0.0580535 0)
(0.211413 0.0794992 0)
(0.197954 0.0975714 0)
(0.182603 0.111891 0)
(0.166189 0.122352 0)
(0.149338 0.129143 0)
(0.136043 0.136174 0)
(0.248218 0.0132072 0)
(0.24479 0.0401725 0)
(0.237418 0.0655072 0)
(0.226672 0.088404 0)
(0.213261 0.108244 0)
(0.197953 0.124674 0)
(0.181506 0.137551 0)
(0.164484 0.146996 0)
(0.150102 0.156282 0)
(0.263185 0.0197446 0)
(0.259157 0.0475747 0)
(0.251527 0.0739539 0)
(0.240748 0.0982076 0)
(0.227387 0.119814 0)
(0.212086 0.13843 0)
(0.195489 0.153883 0)
(0.178117 0.166209 0)
(0.162365 0.177892 0)
(0.276479 0.027981 0)
(0.271809 0.0563743 0)
(0.263895 0.0835651 0)
(0.253058 0.109018 0)
(0.239685 0.132323 0)
(0.224241 0.153184 0)
(0.207235 0.171379 0)
(0.189116 0.186835 0)
(0.17146 0.201067 0)
(0.286643 0.0379283 0)
(0.281321 0.0663608 0)
(0.273094 0.0939183 0)
(0.262126 0.120236 0)
(0.248623 0.145012 0)
(0.232823 0.167992 0)
(0.215023 0.188937 0)
(0.19551 0.207671 0)
(0.174964 0.22459 0)
(0.291358 0.0433859 0)
(0.285702 0.0717351 0)
(0.277295 0.0993934 0)
(0.266218 0.126094 0)
(0.252577 0.151581 0)
(0.236503 0.175608 0)
(0.218151 0.197944 0)
(0.197699 0.218373 0)
(0.175343 0.2367 0)
(0 0 0)
(0 0 0)
(0 0 0)
(0 0 0)
(0 0 0)
(0 0 0)
(0 0 0)
(0 0 0)
(0.00638595 0.00589083 0)
(0.00871814 0.00890042 0)
(0.0101702 0.0120712 0)
(0.0106313 0.0153801 0)
(0.00999854 0.0186913 0)
(0.00824448 0.0217736 0)
(0.00545889 0.0242699 0)
(0.00192197 0.0257231 0)
(0.0147013 0.0138327 0)
(0.0185925 0.0195825 0)
(0.0207739 0.0256116 0)
(0.02109 0.0318558 0)
(0.0193901 0.0380273 0)
(0.0156601 0.0436526 0)
(0.0101188 0.048099 0)
(0.00331732 0.0506045 0)
(0.0245767 0.023566 0)
(0.0292504 0.0317253 0)
(0.0314978 0.0402643 0)
(0.0311457 0.049032 0)
(0.0280307 0.0575827 0)
(0.0221879 0.0652271 0)
(0.0139816 0.0711126 0)
(0.00420593 0.0743017 0)
(0.0357541 0.0349295 0)
(0.0405011 0.0451933 0)
(0.0422182 0.0558941 0)
(0.0407437 0.0667859 0)
(0.0359323 0.0772668 0)
(0.0278909 0.0864677 0)
(0.0171216 0.093361 0)
(0.00462293 0.0969298 0)
(0.0479773 0.0477713 0)
(0.0521473 0.0598444 0)
(0.0528129 0.0723831 0)
(0.0498322 0.0850146 0)
(0.0430935 0.0969925 0)
(0.032796 0.107326 0)
(0.0195729 0.114866 0)
(0.00457646 0.118582 0)
(0.0609799 0.0619435 0)
(0.063999 0.0755611 0)
(0.0631566 0.0896198 0)
(0.0583432 0.103625 0)
(0.0494989 0.11671 0)
(0.036917 0.127788 0)
(0.0213481 0.135664 0)
(0.00405267 0.139351 0)
(0.0745021 0.0773287 0)
(0.075864 0.0922396 0)
(0.0731182 0.107525 0)
(0.0662024 0.12256 0)
(0.0551161 0.136386 0)
(0.0402411 0.147857 0)
(0.022433 0.155795 0)
(0.00301483 0.159307 0)
(0.0882694 0.0938364 0)
(0.0875406 0.109816 0)
(0.0825546 0.126036 0)
(0.073304 0.141767 0)
(0.0598715 0.15599 0)
(0.0427204 0.167536 0)
(0.0227833 0.175305 0)
(0.00140209 0.178516 0)
(0.101993 0.111426 0)
(0.0987822 0.128242 0)
(0.0912683 0.14511 0)
(0.0795007 0.161211 0)
(0.0636518 0.175488 0)
(0.0442651 0.186818 0)
(0.0223174 0.194214 0)
(-0.000873909 0.197009 0)
(0.115342 0.130104 0)
(0.109293 0.14752 0)
(0.0989992 0.164734 0)
(0.0845771 0.180856 0)
(0.0662837 0.19486 0)
(0.0447306 0.205709 0)
(0.0209056 0.212537 0)
(-0.00393802 0.214805 0)
(0.127913 0.149929 0)
(0.118696 0.167694 0)
(0.105402 0.184922 0)
(0.088229 0.200713 0)
(0.0675074 0.214101 0)
(0.0438995 0.224184 0)
(0.0183612 0.230247 0)
(-0.00794966 0.231867 0)
(0.139149 0.171003 0)
(0.12646 0.188836 0)
(0.109989 0.20571 0)
(0.0900156 0.220764 0)
(0.0669466 0.233163 0)
(0.0414479 0.242174 0)
(0.0144211 0.247239 0)
(-0.0131051 0.248056 0)
(0.148212 0.193449 0)
(0.131774 0.210975 0)
(0.112004 0.227026 0)
(0.0892823 0.240864 0)
(0.0640562 0.251844 0)
(0.0369557 0.259424 0)
(0.00876579 0.263228 0)
(-0.0196704 0.263085 0)
(0.153671 0.217193 0)
(0.133321 0.233824 0)
(0.110353 0.248401 0)
(0.0851656 0.260427 0)
(0.0581854 0.269503 0)
(0.0299416 0.275308 0)
(0.00102821 0.277641 0)
(-0.0279402 0.276433 0)
(0.153084 0.240775 0)
(0.129202 0.255561 0)
(0.103629 0.267888 0)
(0.0766749 0.27754 0)
(0.0486721 0.284342 0)
(0.0199835 0.288165 0)
(-0.00900875 0.288933 0)
(-0.0379166 0.286632 0)
(0.151298 0.252746 0)
(0.125796 0.266359 0)
(0.0990823 0.277407 0)
(0.0714145 0.285783 0)
(0.043059 0.291406 0)
(0.0142889 0.294224 0)
(-0.0146189 0.294208 0)
(-0.0433859 0.291358 0)
(0 0 0)
(0 0 0)
(0 0 0)
(0 0 0)
(0 0 0)
(0 0 0)
(0 0 0)
(0 0 0)
(0.00638595 0.00589083 0)
(0.00871814 0.00890042 0)
(0.0101702 0.0120712 0)
(0.0106313 0.0153801 0)
(0.00999854 0.0186913 0)
(0.00824448 0.0217736 0)
(0.00545889 0.0242699 0)
(0.00192197 0.0257231 0)
(0.0147013 0.0138327 0)
(0.0185925 0.0195825 0)
(0.0207739 0.0256116 0)
(0.02109 0.0318558 0)
(0.0193901 0.0380273 0)
(0.0156601 0.0436526 0)
(0.0101188 0.048099 0)
(0.00331732 0.0506045 0)
(0.0245767 0.023566 0)
(0.0292504 0.0317253 0)
(0.0314978 0.0402643 0)
(0.0311457 0.049032 0)
(0.0280307 0.0575827 0)
(0.0221879 0.0652271 0)
(0.0139816 0.0711126 0)
(0.00420593 0.0743017 0)
(0.0357541 0.0349295 0)
(0.0405011 0.0451933 0)
(0.0422182 0.0558941 0)
(0.0407437 0.0667859 0)
(0.0359323 0.0772668 0)
(0.0278909 0.0864677 0)
(0.0171216 0.093361 0)
(0.00462293 0.0969298 0)
(0.0479773 0.0477713 0)
(0.0521473 0.0598444 0)
(0.0528129 0.0723831 0)
(0.0498322 0.0850146 0)
(0.0430935 0.0969925 0)
(0.032796 0.107326 0)
(0.0195729 0.114866 0)
(0.00457646 0.118582 0)
(0.0609799 0.0619435 0)
(0.063999 0.0755611 0)
(0.0631566 0.0896198 0)
(0.0583432 0.103625 0)
(0.0494989 0.11671 0)
(0.036917 0.127788 0)
(0.0213481 0.135664 0)
(0.00405267 0.139351 0)
(0.0745021 0.0773287 0)
(0.075864 0.0922396 0)
(0.0731182 0.107525 0)
(0.0662024 0.12256 0)
(0.0551161 0.136386 0)
(0.0402411 0.147857 0)
(0.022433 0.155795 0)
(0.00301483 0.159307 0)
(0.0882694 0.0938364 0)
(0.0875406 0.109816 0)
(0.0825546 0.126036 0)
(0.073304 0.141767 0)
(0.0598715 0.15599 0)
(0.0427204 0.167536 0)
(0.0227833 0.175305 0)
(0.00140209 0.178516 0)
(0.101993 0.111426 0)
(0.0987822 0.128242 0)
(0.0912683 0.14511 0)
(0.0795007 0.161211 0)
(0.0636518 0.175488 0)
(0.0442651 0.186818 0)
(0.0223174 0.194214 0)
(-0.000873909 0.197009 0)
(0.115342 0.130104 0)
(0.109293 0.14752 0)
(0.0989992 0.164734 0)
(0.0845771 0.180856 0)
(0.0662837 0.19486 0)
(0.0447306 0.205709 0)
(0.0209056 0.212537 0)
(-0.00393802 0.214805 0)
(0.127913 0.149929 0)
(0.118696 0.167694 0)
(0.105402 0.184922 0)
(0.088229 0.200713 0)
(0.0675074 0.214101 0)
(0.0438995 0.224184 0)
(0.0183612 0.230247 0)
(-0.00794966 0.231867 0)
(0.139149 0.171003 0)
(0.12646 0.188836 0)
(0.109989 0.20571 0)
(0.0900156 0.220764 0)
(0.0669466 0.233163 0)
(0.0414479 0.242174 0)
(0.0144211 0.247239 0)
(-0.0131051 0.248056 0)
(0.148212 0.193449 0)
(0.131774 0.210975 0)
(0.112004 0.227026 0)
(0.0892823 0.240864 0)
(0.0640562 0.251844 0)
(0.0369557 0.259424 0)
(0.00876579 0.263228 0)
(-0.0196704 0.263085 0)
(0.153671 0.217193 0)
(0.133321 0.233824 0)
(0.110353 0.248401 0)
(0.0851656 0.260427 0)
(0.0581854 0.269503 0)
(0.0299416 0.275308 0)
(0.00102821 0.277641 0)
(-0.0279402 0.276433 0)
(0.153084 0.240775 0)
(0.129202 0.255561 0)
(0.103629 0.267888 0)
(0.0766749 0.27754 0)
(0.0486721 0.284342 0)
(0.0199835 0.288165 0)
(-0.00900875 0.288933 0)
(-0.0379166 0.286632 0)
(0.151298 0.252746 0)
(0.125796 0.266359 0)
(0.0990823 0.277407 0)
(0.0714145 0.285783 0)
(0.043059 0.291406 0)
(0.0142889 0.294224 0)
(-0.0146189 0.294208 0)
(-0.0433859 0.291358 0)
)
;

boundaryField
{
    walls
    {
        type            fixedValue;
        value           uniform (0 0 0);
    }
    cylinder
    {
        type            solidBodyMotionDisplacement;
        value           nonuniform List<vector> 
34
(
(0.291358 0.0433859 0)
(0.291358 0.0433859 0)
(0.285702 0.0717351 0)
(0.285702 0.0717351 0)
(0.277295 0.0993934 0)
(0.277295 0.0993934 0)
(0.266218 0.126094 0)
(0.266218 0.126094 0)
(0.252577 0.151581 0)
(0.252577 0.151581 0)
(0.236503 0.175608 0)
(0.236503 0.175608 0)
(0.218151 0.197944 0)
(0.218151 0.197944 0)
(0.197699 0.218373 0)
(0.197699 0.218373 0)
(0.175343 0.2367 0)
(0.175343 0.2367 0)
(0.151298 0.252746 0)
(0.151298 0.252746 0)
(0.125796 0.266359 0)
(0.125796 0.266359 0)
(0.0990823 0.277407 0)
(0.0990823 0.277407 0)
(0.0714145 0.285783 0)
(0.0714145 0.285783 0)
(0.043059 0.291406 0)
(0.043059 0.291406 0)
(0.0142889 0.294224 0)
(0.0142889 0.294224 0)
(-0.0146189 0.294208 0)
(-0.0146189 0.294208 0)
(-0.0433859 0.291358 0)
(-0.0433859 0.291358 0)
)
;
        solidBodyMotionFunction oscillatingRotatingMotion;
        oscillatingRotatingMotionCoeffs
        {
            origin          ( 0 0 0 );
            axis            ( 0 0 1 );
            omega           1.5;
            amplitude       ( 0 0 30 );
        }
    }
    outlet
    {
        type            fixedValue;
        value           uniform (0 0 0);
    }
    inlet
    {
        type            fixedValue;
        value           nonuniform List<vector> 0();
    }
    frontAndBack
    {
        type            empty;
    }
    procBoundary1to0
    {
        type            processor;
    }
    procBoundary1to3
    {
        type            processor;
    }
}


// ************************************************************************* //
