/*--------------------------------*- C++ -*----------------------------------*\
| =========                 |                                                 |
| \\      /  F ield         | OpenFOAM: The Open Source CFD Toolbox           |
|  \\    /   O peration     | Version:  2412                                  |
|   \\  /    A nd           | Website:  www.openfoam.com                      |
|    \\/     M anipulation  |                                                 |
\*---------------------------------------------------------------------------*/
FoamFile
{
    version     2.0;
    format      ascii;
    arch        "LSB;label=32;scalar=64";
    class       surfaceScalarField;
    location    "1790.5";
    object      phi;
}
// * * * * * * * * * * * * * * * * * * * * * * * * * * * * * * * * * * * * * //

dimensions      [0 3 -1 0 0 0 0];

oriented        oriented;

internalField   nonuniform List<scalar> 
1171
(
-0.927908461073735
0.927908461030433
0.7874220993330751
-1.09924463697582
0.311822537834177
-0.1896846046552519
-0.7659797638051947
0.955664368426231
0.07209153483990477
-0.1173581304489286
-0.2124131607034986
0.3297712905519906
-0.7874220879558467
0.06941302416360078
0.7180090638069595
0.811369766172452
-0.1779859356072254
-0.6333838306446765
0.8740489762302716
-1.044184135066966
0.1701351588824077
-0.2854190535860161
-0.09793943238626474
0.3833584863635762
-0.03647736050084314
0.548969373348694
-0.5124920129418669
-0.5067203588349881
0.8265099831997295
-0.3197896242940571
-0.4027771798570635
1.045782207239222
-0.1717332311569328
0.3920993759452374
0.05021607843128034
-0.4423154556880173
1.045930211568329
-0.0001480040076642361
0.4440226616802403
-0.05192328873403438
1.056459706689997
-0.0105294985002968
0.5803693082210537
-0.770053907328349
-0.7240962413061484
0.5565862552350839
0.1675099860005713
0.2143002883478891
-0.7210206546455821
0.5499828478139001
-0.9225933261902735
0.3726104775255923
-1.094216091198688
0.6866135717405184
0.4076025195544595
-0.5955976910966743
0.5591203365926017
0.0172735186136545
-0.2558499109284458
0.238576391282665
-0.02250191803661495
-0.5235347825310401
0.5460367002440832
0.4003702475835172
-0.4983096743777263
-0.9189659728873985
0.9416749803796186
-0.02270900746685746
1.067723359333667
-0.01126365446901706
0.9348631749691754
-1.116672089995046
0.1818089149418278
1.067174932511271
0.0005484226455331883
-0.6644043572718054
-0.05969188363996936
1.26222721436815
-0.8643165727465033
-0.3979106416261259
0.1482089546636105
-0.1099554556142766
-0.3256946006016639
0.4356500565384219
-0.2855041470193352
0.1918892072800778
0.09361494022763413
-0.5836891626397367
-0.5155554795741097
1.014076535673867
-0.07921336172260729
0.009878346362081744
0.8254998501686717
-0.8353781964809386
0.5717351525776661
0.6904920639347299
0.4390139200677822
-0.0308911840312054
0.4312614309018297
-0.8080670985110636
-0.1025281160755095
0.9105952145034548
0.5020773981915838
0.2540013387092241
-0.7560787369090753
0.006771961381182983
0.5291787334207819
-0.5359506953824761
-0.4900024299094846
-0.6042136638877599
-0.4227527297412086
-0.6939193602449599
-0.02721637378863839
0.2706569043108115
-0.2434405296137455
-0.92476041002391
-0.005098252742020889
0.9298586628300001
0.3086011691735412
0.07475732341654501
0.7615829745245495
0.04978678698159267
-0.5329963693488993
-0.06260132014053234
0.04599396081735247
-0.8540610605583465
0.0760146979236126
0.8632117698370736
-0.9392264677388747
-0.3468282906166666
-0.04091716611071874
0.3877454569084578
-0.6820544363045377
-0.2427059703123288
-0.6343934546520508
0.7104081505074668
0.6144241622315886
0.2120858139640089
-0.5433831915733974
0.9456448969780847
-0.7789381495392889
-0.1667067474023722
0.01069979857755785
-0.008175226711249452
-0.002524571768236406
-0.4034886911283677
-0.09482098387205187
-0.2410613700913939
0.8554855267229325
0.04822331081995997
0.3343715861623821
-0.3825948965274108
-0.4614161388168596
0.9634935323930465
0.6804613263057081
-0.7829894450247474
0.3196751729120293
-0.01591789200325984
-0.3037572808835628
0.9307280023308317
-0.9307280023134032
-0.7812057745717047
0.1110249152182051
-0.3234380724056918
-0.7499274014753055
0.7598057492166694
-0.09060282258859395
-0.143350536257364
0.2339533595364791
0.8649014584281493
-0.03940160568252911
1.054452069111485
-0.8004507373176198
0.1867069310739116
-0.3162901645566134
0.1295832332878528
0.8585036060272481
-0.09692063245202683
-0.6113990390854751
-0.03907984542788769
0.6504788845534303
0.1234344122104708
-0.2304735587992964
0.107039145447227
0.805580683414293
-0.9835666224940192
-0.4343766883751118
0.329169969751014
0.1052067180745443
0.5332064502440821
-0.5557083716962622
1.021911848293716
-0.4562030757337719
-0.5657087725464255
0.5991591167045982
-0.7193237407508505
0.06658803861985153
0.6527357024766645
0.1024248632285221
0.5695634689503412
0.0553130908907381
-0.6248765599659005
0.1946837567767997
-0.0836588424283275
-0.4922064626325143
0.1453781706144948
0.05024128982068153
-0.8864362671475057
0.8361949772468442
-0.4733186993210857
-0.7132151336233392
0.04881077749964811
0.4371886895937498
-0.005927255689664315
0.3000182635760345
-0.8552770139415672
0.5552587501926866
0.4157568502928812
0.5842431496260814
0.5605182094704465
-0.5145242538728696
-0.3678984871956213
0.03923240153560344
0.3286660885281606
0.6812753428463192
0.2494526596643635
-0.5668357453753206
0.5736077061641783
0.1114940881469135
0.8749936994479656
0.01019697844373703
-0.6215960165351566
-0.7490682763394242
0.7993095644124049
0.5304836268217608
0.07001898764321864
0.3013306491054863
-0.3713496369626402
-0.1674474914883466
0.4448634341432646
0.08431530880566877
0.8746585427766469
-0.8050186480248597
-0.06963989482845655
0.6353264803732346
0.3103184172181017
-0.430705066494425
0.573696865790017
-0.5036778791373886
0.4171031763395001
0.1328796659928854
-0.04672795441806551
-0.5932643989451314
-0.1386686896390388
0.7319330885987617
-0.1497599674073254
-0.7809680321346415
-0.6110074818200918
0.3602769323460153
0.2507305505712827
0.6219252361404488
-0.6117282584829327
0.2391684640264528
1.011475763948323
0.04297630417111677
-0.749068278972191
0.2319820129317555
-0.2212822127707847
0.6804613278595764
0.8017536075195753
-0.8017536074542069
0.8376254941729107
-0.8330898889429649
-0.004535605304711704
-0.4453493713052302
0.8611062212942454
-0.1472858584874893
-0.3449206019847245
0.7347519918821722
-0.6685499013024593
-0.06620209051448796
-0.7359730829023525
0.1427086840764179
0.1390618292816513
-0.6720581989556672
0.7829894587072921
-0.9504369501425369
-0.368634801489253
0.2890563306628149
0.07957847270400271
0.1457624598957007
-1.010102236268208
0.8643397763445629
0.4810758042241064
-0.04206188408205058
-0.3080854188861702
0.5862948565824028
-0.2782094378299902
-0.7386076883311221
0.8843701498555427
-0.1570129131176234
0.7311417515142045
-0.841246607470918
0.1101048559404073
0.9763405078216968
-0.5391818250486236
-0.4371586827003648
0.7550256503135285
-0.06500976009513386
-0.03316189923328589
0.1846072296719196
-0.1514453299033996
-0.7758164573568623
-0.8398445746293244
0.07386481702886241
-0.7499274012392632
0.5136889706680556
-0.554606134098458
0.1003971679548995
0.7172710240030199
-0.8176681921033134
0.7536038978405916
0.1743045440804226
0.5029271317320242
0.4970728682936592
-0.05262572918711762
-0.6124780472999218
0.66510377609835
0.8824639858566404
-0.007805446536753864
-0.7550256503281876
0.7993095641758873
0.1915844305317314
-0.4474343451504521
0.01362092717490736
0.003816409984905332
-0.0174373409226526
0.5886782741777108
-0.4374279311042329
-0.1512503435370211
0.7180090569548698
0.01008599737088359
-0.1087028246665916
0.4381824456353814
0.150495826599851
-0.01643438866350625
-0.006786344825753316
0.02322073361829007
-0.03095942619163285
-0.00220247105825994
0.2456573117612977
-0.2615752151073968
-0.9587665207688536
0.00137353114992448
-0.1594569565785156
-0.1229774880478406
0.09448047096791046
0.7224321557173627
0.7289661383012144
-0.1447229884808966
0.6747246500434492
-0.5743274807498608
-0.211836023405787
0.3985429544407773
0.69563138354048
0.02237767343880188
0.2418291350565954
-1.074919026571792
-0.9504369483261975
0.3026739092218674
0.759805750971441
-0.2092508899268658
0.06590035003756041
-0.7238056857890928
0.9110210156112829
-0.1872153298307002
0.4155526291785313
-0.02780716649642015
0.771185214221488
0.2806762573725186
0.3762715053022022
0.06775116634509486
-0.6587091807215231
0.6587091807393251
0.2146946432347752
0.6959005688010528
-0.05643261232921717
0.3908041945676369
0.3792174399166949
-0.014562740057069
0.02818367836866342
0.448364783892221
0.03271102280622041
-0.738607687714686
0.533987330104217
0.200764658996557
0.3005267103989063
-0.1159194833145672
-0.6956313823647994
0.1798443586536613
0.7311766562005624
-0.01019085835754651
-0.813640234910907
0.8238310932829722
0.6964026553648045
-0.7919845253527297
0.09558186992659354
-0.753603890342546
-0.1503748472235302
0.2118318903041977
-0.06145704225771115
0.0774066701505607
-0.1786539357420966
-0.1124278105909884
0.2910817453276362
-0.008241400611630027
-0.008192983206834689
0.7063041011515835
-0.7164949519693231
0.8869171225111883
0.06874725081744001
-0.3109506585713541
-0.5232983923451113
0.8342490510628647
0.1032435903771021
-0.1032435929241188
0.3282887243629367
0.4771484090674058
0.6098111553451577
-1.086959564478065
-0.1940969738668415
-0.5855319963692512
0.7796289702189757
0.01272256872185415
0.2212307832071655
0.3763032617845545
-0.2528688620253506
1.015781477013857
-0.5386330714655381
0.6682701956972895
0.9923227571540479
-0.3825116053082355
0.2290174068501964
0.8843701515384317
0.7126369191628613
0.2138817193238678
0.7277932575146604
-0.7809680317461408
0.3412908055186335
-0.2847690469172985
0.2603911797574349
0.02437786909955864
0.8510588525969961
-0.005858048213072451
-0.8452008046190786
-0.702107416680138
0.702655837019261
0.5546506262831771
-0.7021074182646397
-0.7126369191541718
0.7026558352836358
-0.0336293031602392
0.9076251509658328
-0.0207080251839079
-0.6812753527792833
0.6122361827554881
0.06903917003184978
0.5386136386108582
0.5384798468113454
-1.077093485437538
0.4874638107808244
0.5283176651010685
0.5483750160886539
0.4576491087239465
-1.006024124866513
0.4932298988529306
0.4990928569816551
0.6122361896702498
-0.5256931492486301
-0.4666888962081493
-0.5560118574651972
-0.5139903064132759
-0.123975579740192
-0.0128290648380098
0.01282906569961239
0.5096516134417977
0.5245618639268722
-1.03855217045527
0.5721956830557616
-0.2708650336842326
-0.8829554168135716
0.3437735922469748
-0.632754135264461
0.3900481660951371
-6.576257944798075e-05
-0.8264788758252537
0.8265446384673086
0.420880726437709
-0.02509441024325289
0.8761532631313009
-0.9453441180224837
-0.8339670630655488
0.05664034228557971
0.7773267208834536
0.5540400264883587
-0.4376337863253704
-0.1164062401816416
0.6501879703340152
-0.7294013316761652
0.8863272273043719
-0.8268622528106196
-0.05946497425876986
-0.01457934755420996
-0.7904393036555856
-0.1112903203675838
0.7141262363022023
-0.6028359159462204
-0.9415029232481105
0.9269235754096529
-0.7327619389520379
0.6882269318017793
0.04453500719200872
-0.8013326142237481
0.02790405982057359
0.773428554504626
0.0619028057238892
0.04134078667140631
0.4328979296745717
0.0590169030058111
-0.8500344241416937
0.7910175210291427
-0.6458519595666423
0.5932262266670295
0.8890118741815469
0.07358558524871434
-0.9625974594681208
0.05504481371845099
-0.05051597823928891
0.3791820604897143
-0.381846092838969
0.06555592527368098
0.8404992917722204
-0.8405650571123144
-0.7325853576420295
-0.8131363747075481
0.02269707078165924
-0.1676146141961082
-0.8478090707169246
0.0209468119922825
0.6226570844333111
0.05206756734539832
0.01911069773953576
0.5349293226169899
-0.8158614546905426
0.843765518028467
0.565708774328288
-0.851573289876719
-0.8679173363291619
0.03970781843314875
-0.02950639160600873
0.8338728941481336
-0.8043665024980481
-0.02126443894836565
-0.7620917474298559
0.5442826528555227
0.152120006127397
-0.01801144078313233
0.8941647032312439
0.9835639190113422
0.8612980898056327
-0.8403512802866202
0.1477799038415917
-0.1477799053672615
-0.1175259242861339
-0.464217631770757
0.02658384175330024
0.2711008148733672
0.03157309471481859
0.386357496342832
0.8729002659482714
0.008020775690611564
-0.01626216915629332
0.6585931902320495
0.3414068097888859
0.7836033983969577
-0.5836891649451366
-0.7780730627636178
-0.8102245473368834
-0.6799468231460537
0.6799468231541714
-0.1682405141192074
-0.15519755448471
0.6020629689840761
-0.8112802278470495
0.2092172588921238
-0.4940658400495208
-0.5688402181290405
0.2779971820041348
-0.9719165428047846
-0.898590214054632
0.8391252320408282
-0.8180755667356875
0.840772638293026
0.6484906507231724
0.1343801523591935
-0.7828708031038499
-0.7656895414011387
-0.1464406899489581
0.7253521647677813
-0.5789114748539792
0.02568995100163508
-0.01196533743579912
0.0155046159558134
-0.003539277497776814
-0.3523011348855031
-0.1119164930925052
0.8800601527777129
0.7412097608299145
-0.2398877483032476
-0.5013220131268367
0.6248035240655472
0.6857646016977565
-0.4710699601448053
-5.109410262069906e-05
-0.2854530546195795
0.01171218209385665
0.749117931575393
-0.7608301134589908
-0.323425890646237
-0.07224425472803921
0.07626103803987203
-0.9677571448755096
0.1225563417295354
-0.6769000725702933
0.05439534537961203
0.6398242074002188
-0.6942195528046748
-0.7562888897585264
0.07938881719063884
0.5893624481362464
-0.6616067027786099
0.1567023755398186
-0.3353563122273974
-0.7722429507267606
0.006553409270233152
0.3711037919013398
0.5997512266821023
-0.02605435820892422
0.02018927775811449
-0.02018927863206996
-0.01961539796659486
-0.05129022232532637
-0.2334788178733688
0.02384474464198618
-0.01582399411351373
-0.72017538672867
0.2793694586888382
0.6787809149558872
-0.6896109853468445
0.01083007061104853
-0.5954301547786055
0.6498254952285852
0.6546188179290363
-0.06525636840416564
-0.6307538246680517
-0.1255350686890237
-1.050077696050292
0.01119109229888284
0.1365888139625151
-0.7084632059947683
-0.7420441509274466
-0.7639855821180569
0.3660749421118748
-0.4054098920969577
0.4642806519574028
-0.05887075970867133
-0.6689201783033412
-0.0395430276368407
0.4999523794803848
0.7306847319480451
-0.2355569338414145
0.1125794466852647
0.9612037389151415
0.44650744119758
0.1321323508237783
-0.5786397920974584
-0.6768798738787176
0.007959697673684939
-0.04445840436609226
0.03249305403830783
0.6372478598060033
-0.7759165500313915
-0.002483911955749615
0.002483911759552809
-0.6002947832094568
0.6497437105937214
-0.0494489274762415
-0.6577691793107219
-0.1137976062592435
-0.6717440947717837
0.05727520457216646
0.6078285661448384
-0.1376522835150941
-0.8181847849166627
-0.5700023443602876
0.5721283353357717
-0.002125990861289897
0.6295314311200773
-0.6187013651341368
0.3224357131838498
0.2135995832387165
-0.5360352964212296
-0.1047962898507328
-0.6022512243530065
-0.09196833003190609
-0.1537873392035775
-0.5127271441453892
0.4043213632307303
-0.4991423495089319
0.1261728314840551
0.6787538384535621
-0.8049266698805347
0.5991591166981387
-0.3729899259282247
-0.03241997129666217
0.06418340369873109
-0.5769105504642782
0.5513523489366301
-0.04042151391662328
-0.5109308351442344
-0.3130286451676564
0.3056742075888638
0.007354438489483597
0.4512565144999895
0.1209391679799621
0.05236759374366393
-0.3164604634430685
0.1574798730833338
0.1589805905468072
0.2479111587099753
-0.01592914995822907
-0.2956159757750704
-0.3120945682140907
0.3544271234857683
-0.04233255331442603
0.7908265356347902
-0.6282091343144989
-0.0295600453213461
0.4994284532213368
0.2854855050315721
-0.5253732528520325
0.5774485253484167
-0.5774485253472238
-0.2897785489017155
-0.586503083958551
-0.2955438445304749
-0.5865030841594033
-0.5965225128274838
-0.8384796501520587
0.1699297451793178
-0.6016252843091844
0.8211878172519267
-0.003253787826950981
0.1182112880323054
0.4815399398526271
0.09677216314512697
0.1858433628128702
-0.03629424190592603
-0.1495491196023195
-0.02949695924731088
0.5901506535067439
-0.9424463760848022
0.4191479800263369
-0.006688986725438583
0.0009958358694487517
0.005693151654154337
-0.6441678440264982
-0.1321202777225684
-0.466883673121159
0.5990160253993221
-0.5035013448788006
-0.3181725896964872
-0.2587379457897309
-0.2721841902742211
-0.1114872290689682
0.1114872294373881
0.1535792726859574
0.05825262020814975
0.197034457773896
0.4483514924013889
-0.5694678033300749
0.1025841259278129
0.2537021921641003
0.466399187438323
0.5336008132695286
0.6455938154319305
0.08343219885367832
0.00124320758184481
-0.0846754047972742
-0.2771172502830782
-0.5410675347108316
-0.5465298331771404
0.1148187773002843
-0.126651951527934
0.01183317468890951
-0.1056286943321109
-0.3853421167169672
-0.05016365532749541
0.657992240113968
-0.4994707742254677
-0.1446970697533397
-0.3263478154438618
0.2859639704652495
0.1290971665624039
-0.6138705074335127
-0.2045347645930875
-0.2629723877370601
0.001397189248552898
-0.4210046679661
0.3228228725187529
0.0981817958123548
-0.09148923153044435
0.2917277550297333
-0.8959414210844208
-0.4573665715961662
0.6284952782849267
-0.7732343121450314
0.6684380223363419
0.3402882147080541
-0.1250708252249225
0.2241861899353
-0.09911536551636872
0.03112412619008183
-0.5861958656610039
0.02873263657497106
0.5574632288281154
-0.9006144829773294
0.5477952674059293
-0.6653211916490037
-0.1033211479942676
0.1094372624223457
-0.109437265273452
-0.31651155962712
0.3588587449988382
0.02032330970644074
0.02271161176182826
0.0607205734038318
0.504429269068559
0.6678115907962656
-0.7374514880063884
0.02652801139372053
0.01976644343088721
0.0004228280810548976
-0.006498478949961417
0.006498479666028661
-0.4099900032687815
0.5309291691597495
0.01575290159361935
-0.01575290145864953
-0.7926727330266597
-0.06040175679605966
0.1223045559400441
-0.452540390573118
0.5551245140753005
0.4504875832749843
-0.4999365075561051
0.1502135647346164
-0.150213565813674
0.04121822222231639
-0.0130345400464732
-0.04174159410782686
-0.9757584718565797
0.5385997905550017
-0.468860769130992
0.04134078432098921
0.5151957951220749
0.03047682501366659
-0.5456726203545739
-0.6164346729735374
0.1169638993343866
-0.3291488667630614
0.01360129871633579
0.315547567320298
-0.1549764605985876
-0.0805804844187076
-0.5409975875906832
-0.04519827245951085
0.1365888154568182
-0.04083633852489362
0.03835242167418372
0.08118636489254807
-0.08118636148228231
-0.5267402811952446
0.484407716442608
-0.414878501433193
0.1612955455852272
0.6223078528591907
-0.09709985373261557
-0.004684659112558794
0.004684658944266608
0.5329872157159717
-0.07894118237851702
0.006193668204464812
0.02715155246423595
0.03484231869144407
0.6885710294947297
-0.7675122120690432
-0.6596194047974825
0.63005936139737
-0.1100019981559818
0.3139257839695148
0.7455368792738145
-0.01961539664032535
-0.2652936825168064
0.1493742068142306
-0.7446010519620582
0.4837721374151182
-0.4263525686813434
-0.1012388708506118
0.003285067662682879
-0.0145671292356201
0.0250879713777504
0.4119284651251854
-0.1215805136283444
-0.3893503223614737
0.6290364168638943
0.01932752304195121
0.009022365958701137
-0.009022365790389095
-0.3526666015541841
-0.07838878320491795
-0.5602962270386045
0.5570424390151111
-0.2374986326209339
0.4647143502617504
-0.1506588280102333
0.7310281392398756
0.6695394669214333
-0.04083633991217978
-0.6172305358809033
0.5608366424776418
0.2820275851709772
-0.2770911785469329
-0.004936405269162268
0.5385701328153865
0.09344373699832129
-0.03881691558564981
0.1962677729379146
-0.1574508568167049
0.1200032831119291
-0.1200032802980595
-0.8586187656588156
0.002433656419534419
-0.1133756117952911
0.1405271629853652
-0.1315279789873449
0.1315279796004823
0.01976644913403318
-0.02430006167929153
0.6704299015464982
0.06074675521785157
-0.3226634064975531
-0.06267870971532748
-0.4712935377976595
-0.04432023150509576
-0.1513121990523536
0.1513122001081014
-0.043457177299859
0.1436646435543617
-0.1436646443690427
0.1363478463668579
-0.1363478444388244
-0.3161744051922468
-0.1145306612222144
0.226008612565702
0.1031613563550936
0.03478766584956681
-0.8212369936632955
-0.1980540463906231
0.1699134272355758
0.02167099763346167
-0.2643022800959113
0.1262040439238325
-0.1262040446352235
-0.4143301247733775
-0.08481222297141869
0.235752597484589
0.002823789869888632
0.04035002556599628
-0.5446427984115308
0.5782721015560698
-0.03256304617001803
-0.01089412917572625
-0.02470067402275349
0.01166612515983063
0.006548907725615274
-0.1847403301284085
0.1781914224833435
-0.1080003661696884
-0.2273559447429934
-0.1443933517323266
0.1443933525935017
0.07242080355248358
-0.07242080319172642
-0.01896711063991226
-0.1085650151849083
0.127532125200149
0.2340406946994754
-0.183445411401103
-0.02298872825250585
0.02341154660374513
-0.128830791002423
0.6132385074621477
-0.03906643726586124
0.4262937313997961
-0.04180228427926078
0.06502300691113719
-0.1530931654310345
0.1530931668583168
-0.6365885470357612
0.3081373002202117
-0.07911989363252644
-0.2341302312471818
0.003656668518984173
-0.1215807906485521
0.1619308171856994
0.194759452712153
0.09632228942997281
0.09568982687254116
-0.06084750843490389
0.07316895924570267
0.04164981708652252
0.06417220288196485
0.1057412285301065
-0.1000862169214964
0.2126656793200562
0.01150628189084137
-0.1159102017733833
-0.1011678632337142
0.09623054035956979
0.004937321899437108
0.01074407890405993
-0.02247476884733776
0.03734915472642492
-0.0373491546721448
0.07468698149630788
-0.05534474316968271
0.0553447434552668
-0.224366219525724
-0.05088719395121292
0.01179061956556161
-0.1031402551184767
0.01634456246958501
0.1088277269713174
-0.1088277274584429
0.2929412483471432
-0.2708120185805985
0.1628116483659703
-0.05064132024871935
-0.2201706977634813
-0.0168431230436436
0.01684312277181531
0.367565249077997
0.2851704463179642
-0.5280104303754662
-0.0939264530297218
-0.03272549885247805
0.5288607884356447
0.2093400062629703
-0.1689713924061315
-0.3808670423719267
0.07658676529280738
-0.1472006658075954
0.1868099572613366
-0.03960929122830594
-0.0671779162593522
0.06717791597384504
0.8221236445707305
-0.5603275096312242
-0.003771737698915127
0.01451581767607207
-0.02004074287906117
-0.2873178338711525
-0.01746059884858168
-0.01286538031225429
-0.1321536961665365
-0.5723088306565748
0.5561057630583448
-0.5686658406377417
-0.006918843439095107
0.09907952011170533
-0.001780972771508835
0.01674532326113544
-0.1672414087358499
-0.3361585002995435
0.2330182450937666
-0.05403876202813995
0.03507164931790975
0.132215407977547
0.1734587995053225
0.3420372654011506
0.2759405481846133
-0.2777215214211211
-0.06281544637516047
-0.1551024234852801
-0.2205289380043284
0.07454479369297895
-0.01037259006123252
0.2135659622190504
-0.1968206394209112
-0.08623946440118935
0.1594084248284255
-0.3550662572474144
0.2080921795495442
-0.1917476172064519
0.08964515451018373
-0.4789954731183429
0.1739445743577328
0.170703871548631
-0.2569433406912695
0.0732150526312691
-0.1948464870419739
0.1773858886225064
0.01737631882640391
0.142032105172765
-0.03959182920235768
0.06578101160027235
0.4672062045970196
0.02050603136609425
-0.08385330236051357
0.05521479229206169
0.1259600293377192
-0.2601382317045852
-0.2309517771776839
0.559722522057728
0.1569768717396812
0.07877572597395049
0.07482387355448838
-0.03107596414895197
-0.001767839758731396
-0.003168557141846956
-0.03259602525588425
0.17068238471636
-0.1776012285977841
-0.05876533387535315
0.01963981309358267
-0.1471154628334216
-0.05281438530537239
0.153900334204436
0.2770493175896399
-0.04057882779873775
0.009898285632912287
-0.2551631208695777
-0.1314676759238615
0.2362597960091476
0.1785980862403928
0.1295392136238752
0.02181834101994112
0.08846568367059147
0.0522631586320458
0.4521661104800247
0.01644360734353071
0.0979627495352587
0.04296861557124859
0.07231732686145899
-0.1152859413108973
-0.2428399821837506
-0.2004164325843898
-0.01975426734387159
-0.2019461526762507
0.2749173839883612
)
;

boundaryField
{
    FrontBack
    {
        type            empty;
    }
    Top
    {
        type            calculated;
        value           uniform 0;
    }
    In
    {
        type            calculated;
        value           uniform -1;
    }
    Bottom
    {
        type            calculated;
        value           uniform 0;
    }
    Out
    {
        type            calculated;
        value           nonuniform List<scalar> 10(1.035838827181907 1.064306787492158 1.022700753670683 1.021547565005429 0.9961289543751934 1.013083163502859 1.034213477737137 1.062906058184247 0.8672270785232964 0.8820469284998284);
    }
    circle
    {
        type            calculated;
        value           uniform 0;
    }
}


// ************************************************************************* //
