/*--------------------------------*- C++ -*----------------------------------*\
| =========                 |                                                 |
| \\      /  F ield         | OpenFOAM: The Open Source CFD Toolbox           |
|  \\    /   O peration     | Version:  2412                                  |
|   \\  /    A nd           | Website:  www.openfoam.com                      |
|    \\/     M anipulation  |                                                 |
\*---------------------------------------------------------------------------*/
FoamFile
{
    version     2.0;
    format      ascii;
    arch        "LSB;label=32;scalar=64";
    class       surfaceScalarField;
    location    "1903";
    object      phi;
}
// * * * * * * * * * * * * * * * * * * * * * * * * * * * * * * * * * * * * * //

dimensions      [0 3 -1 0 0 0 0];

oriented        oriented;

internalField   nonuniform List<scalar> 
1171
(
-0.92789994312404
0.92789994322513
0.7872888001719632
-1.098909923725067
0.3116211237630195
-0.1929045803505661
-0.7677702537551034
0.9606748335688782
0.072100063218404
-0.1177999884640892
-0.2120259067455612
0.3298258941314818
-0.787288787122151
0.06927131357507577
0.718017473534351
0.8106479240687605
-0.1775927666841126
-0.6330551576010792
0.8739940754583838
-1.043662455418428
0.1696683798950853
-0.2848656694931042
-0.09835111674517362
0.3832167857705248
-0.03638660381415901
0.5485258490175631
-0.5121392450800548
-0.5089362650713081
0.8297475579399515
-0.3208112921394436
-0.4026656605197009
1.045520206232101
-0.1715261332930626
0.3944775854145998
0.0503348893300764
-0.4448124759993662
1.046229691237741
-0.000709485730594692
0.4464501588795718
-0.05197255646264501
1.05667936330983
-0.01044967184806967
0.5797346281975135
-0.7726392082566952
-0.724108892104059
0.5568527774467839
0.1672561146340852
0.2159330038030657
-0.7248692692789697
0.5497236230069179
-0.9224285084139235
0.3727048861218326
-1.09422165513358
0.6865659542312524
0.4076557006278442
-0.5954421430246175
0.5590555385746128
0.0172582072534566
-0.255791966419569
0.2385337615992577
-0.02331758423285316
-0.5249425558756222
0.5482601364874968
0.3999303572146399
-0.4982814755444587
-0.9188498690398204
0.9416397688733013
-0.02278989970828098
1.067895461836953
-0.01121609860799677
0.9351132542904597
-1.116902236149476
0.1817889818046756
1.067474488674822
0.0004209735276871173
-0.664264703914675
-0.05984419480014894
1.262016675313187
-0.8644755264946242
-0.3975411488894365
0.1486246194014999
-0.1096890853782176
-0.3251583581857269
0.4348474433444424
-0.2855666461868189
0.1918718477325336
0.09369479750655417
-0.5835040620958292
-0.5154058690355251
1.014149727646686
-0.0790364724360919
0.009881171963949562
0.8254821152410454
-0.8353632871037902
0.5716964565094642
0.6903202223212289
0.4388367588538156
-0.0310897126434312
0.4310200679525497
-0.8079331669611546
-0.1026151945099514
0.9105483614507702
0.5024837460010396
0.2541096277411666
-0.756593373551691
0.00445584087853383
0.5313321920807078
-0.5357880340092004
-0.4899896802252801
-0.6042319744235549
-0.4228458333527392
-0.6940564005559409
-0.02754007841504334
0.2708138036017858
-0.2432737256716751
-0.9249215509164278
-0.005200464245901127
0.9301220152288462
0.3079211366834138
0.07529564661448213
0.7618661472031832
0.04878178245074784
-0.5329052495883668
-0.06253689688687993
0.04616363965476003
-0.8540968036356679
0.07733587322704666
0.8619994123550656
-0.9393352854599354
-0.3471905400164538
-0.04059194647300773
0.3877824875892467
-0.6823249692427376
-0.2425965767035827
-0.6330922407321566
0.7104281132384878
0.6118933250238275
0.2178542329264556
-0.5432289521120638
0.9460164202963486
-0.7791387920887511
-0.166877628049835
0.01528992764409411
-0.006130451185762548
-0.009159473410023333
-0.4032331280800089
-0.09504834571927864
-0.241935897688279
0.8538292204020489
0.04833862907925295
0.3334031439103509
-0.3817417731341023
-0.461514122611523
0.9639978627654963
0.6802838511312637
-0.7828990421771781
0.3178506423140522
-0.01455778751774203
-0.3032928497719409
0.9306793411841018
-0.9306793411779619
-0.7823254198321915
0.1115377576757664
-0.323563663058597
-0.7499893541245235
0.7598705286527321
-0.09130011380419419
-0.1428108230619867
0.2341109372728552
0.8648712944867134
-0.0393891766041844
1.054634978540285
-0.8005253530132267
0.1865824842264193
-0.3162681417421525
0.1296856568797267
0.8585598626063711
-0.09669371226398991
-0.6114285176696517
-0.03941885670035725
0.6508473744010558
0.1235713100920879
-0.2305007294873234
0.106929420883286
0.80553509655431
-0.9831278557008909
-0.434296459773735
0.3290975461387227
0.1051989130778276
0.5333002609268054
-0.5566178422397989
1.022061984348698
-0.456272497295112
-0.5657894869111063
0.5992161459833627
-0.7192587184305581
0.06644106265989821
0.652817655085271
0.1019664792685222
0.5699785893425272
0.05478910172100436
-0.624767691080186
0.194971890753066
-0.08343413961923128
-0.4922745336094122
0.1450840010549386
0.05032999006554658
-0.8865699191256643
0.8362399290279092
-0.474607668907506
-0.7132263281162657
0.0489616217730915
0.4366015018112095
-0.005581431715489101
0.3001055515411284
-0.8553060824822538
0.5552005314390518
0.4157521748310739
0.5842478250541635
0.5606373630925058
-0.5144737237794882
-0.3661892848575069
0.03885907375319443
0.3273302107540906
0.6812736753449116
0.2494056687743931
-0.5677840042869466
0.5722398500069348
0.1114431361895656
0.8748063975639364
0.01029958335467901
-0.621728101449657
-0.7491497230410278
0.799479716096926
0.5305597266021156
0.07129758798707374
0.3002265580322322
-0.371524146176065
-0.1675308484257864
0.4446252991044274
0.08670687808479481
0.8738421276912474
-0.801773912457057
-0.0720682150400766
0.6355096375080806
0.3105067886952175
-0.4307732099753756
0.5746562616904138
-0.5033586704482934
0.4170382480671427
0.1326853737031979
-0.04681533194195348
-0.5893246597446313
-0.1395463622737977
0.7288710218198229
-0.1496742070830015
-0.7810051308185815
-0.6110684006300742
0.3602137769891074
0.250854622735634
0.622104109443081
-0.611804528038185
0.238525790597628
1.011755612469575
0.04287935981543178
-0.7491497167426939
0.2212361238759848
-0.2059461963567732
0.6802838518664316
0.8020051379495642
-0.8020051378459375
0.8376082870341213
-0.8331442951702799
-0.004463991751594116
-0.4453381043025216
0.8610902746546242
-0.147487879373932
-0.3447866491156177
0.7347697944396006
-0.6685642755964969
-0.06620551895185366
-0.7351688385160958
0.1458441856609002
0.1391032635381693
-0.6720085149798078
0.7828990484372756
-0.9504298969609697
-0.366068115098324
0.2857448561990377
0.08032326349648172
0.1457184440461923
-1.009899298102975
0.864180854078458
0.4805365138529246
-0.04169975504982203
-0.3080831921983272
0.5862432163871172
-0.2781600241821741
-0.7384841289708343
0.8842025687164575
-0.1570346734648886
0.7332599251023532
-0.8361299055583511
0.1028699812621083
0.9779067177808843
-0.5400863699907558
-0.4378203476583206
0.7551898147126705
-0.06487532842306976
-0.03615375780979133
0.1860145860096668
-0.1498608302529353
-0.7757632262746771
-0.8404126287114966
0.07264237543462999
-0.7499893551644785
0.5140374515568829
-0.5546293901829864
0.09626839131018761
0.716168002942744
-0.8124363941153694
0.7536137020559323
0.1742862515339704
0.5029157678022191
0.4970842321817573
-0.05519619453327662
-0.6083484687035576
0.6635446619942318
0.878427129726522
-0.004585001842521377
-0.7551898147117089
0.7994797211689791
0.1915563074962242
-0.4473482729784361
0.0139217055292512
0.002525629767340891
-0.01644733257682514
0.5893986870371005
-0.4376451540450836
-0.1517535331719867
0.7180174644571174
0.0124721266150642
-0.1071527044180553
0.4386872216237708
0.1507114686546787
-0.0144453690301262
-0.007743565929257483
0.02218893473208937
-0.03264947554263079
-0.003504262066194132
0.2453753724000553
-0.2599331547001105
-0.9590398035803299
0.001856305165092774
-0.1595600824395474
-0.1206927485659001
0.09475873506142914
0.7220619637641335
0.7289417345812239
-0.1446939131691666
0.6675907976873275
-0.5713224021214759
-0.2119772477612691
0.3985597428387817
0.6956047840734986
0.02241268040264588
0.2417620124334775
-1.074906303072385
-0.950429896148574
0.3023397084085019
0.7598705295742887
-0.2092423585022251
0.06643154298281195
-0.723918266058761
0.9098339464523064
-0.1859156801587729
0.416082286174862
-0.02829979456582976
0.7713646061990325
0.280741289173297
0.3758383672735457
0.07061177882108452
-0.658712935259503
0.6587129352233806
0.2148477462187017
0.6957006170840689
-0.05596622718853852
0.3893693655241104
0.378881217922358
-0.01211669284237053
0.02603841746032612
0.4485695700652194
0.03196694178916738
-0.738484131659538
0.5340012116934996
0.2007685864013755
0.3012576543569589
-0.115243054573092
-0.6956047765439749
0.1794816096095835
0.7303523310488638
-0.01028852913113793
-0.8135774960338678
0.8238660250789973
0.6963985215354714
-0.7919591316930353
0.09556061003003387
-0.7536137049809668
-0.1511831654279651
0.2123005674074904
-0.06111740328640261
0.07757149469875418
-0.178277312543981
-0.113519003994335
0.2917963152713488
-0.004990769962516327
-0.009454611262839908
0.7065405383948261
-0.7168290658250641
0.8866246096970735
0.07405022393396453
-0.3163256349869309
-0.5194998054966621
0.835825439848254
0.1041389788930444
-0.1041389791596358
0.3246039482644972
0.4726242396653871
0.6169606977977361
-1.08958493700167
-0.1940810383364644
-0.5856108123975146
0.7796918507165741
0.01381438063506641
0.220296562772512
0.376343331107906
-0.252772025963993
1.015536346470318
-0.5429121055812537
0.6679135339065624
0.9937810299418725
-0.376820330497023
0.2288554522783863
0.884202564324022
0.7126764315041657
0.2138826430286245
0.72775712588444
-0.7810051287248418
0.3412870552908329
-0.2800919146126487
0.2539509470485921
0.02614097315174995
0.8469536217676946
-0.001599272251113179
-0.8453543494405206
-0.7022267592891622
0.7026477331243781
0.5546618934337544
-0.7022267598249364
-0.7126764314563436
0.7026477333155567
-0.03448374108084529
0.9094559243849555
-0.02283131764228446
-0.6812736798399915
0.6122988352741362
0.06897484459521264
0.5385122460905928
0.5373698086052658
-1.075882054764375
0.4880617920398643
0.5274745544802704
0.5456190598549749
0.4577223879260718
-1.00334144768528
0.4931545380811815
0.500626492700831
0.6122988379691774
-0.5255792329816641
-0.4659129891505912
-0.5567174752723351
-0.5150878617704543
-0.1199618971972096
-0.01252896968561395
0.01252896906672545
0.5119937293091043
0.5239662039961192
-1.039054065539188
0.5726395202556824
-0.2724129570291915
-0.8842651002143039
0.3441787310861927
-0.6330637697352343
0.3904671965139307
0.001844224237963198
-0.8260230220892375
0.824178798070157
0.4208585392579511
-0.02177726908360895
0.8687308874660233
-0.949417874987751
-0.8328489574251818
0.05403147995599403
0.7788174776275084
0.5658279691798923
-0.4400496901558552
-0.1257782798936241
0.6502534880016476
-0.7292899586312934
0.8885658714105772
-0.8289811883189453
-0.05958468315223426
-0.01299302768771561
-0.7887808843939278
-0.1105499169968403
0.7119221414029727
-0.6013722244016877
-0.9388141550918363
0.9258211277270623
-0.7245675724019451
0.6901636090420599
0.03440396350225046
-0.8086752015949157
0.03517219597598553
0.7735030055039779
0.06193134894344964
0.04220763067137165
0.43279092410874
0.06085200256027989
-0.8515626687249913
0.7907106664223749
-0.6454835763802224
0.5902873815160027
0.8883059332693289
0.07240470995002478
-0.9607106428227806
0.05545698033772195
-0.04923999157113184
0.3765702145712508
-0.3818916735522361
0.06562354323384441
0.8413519314021994
-0.8395077075209445
-0.7346249784018303
-0.8165494865174777
0.02776860342207709
-0.1637231686914186
-0.851117508199013
0.02213632020404869
0.6216975935159895
0.04589320205311401
0.03150867436433468
0.5343193012491791
-0.8115109105522426
0.8466831041048971
0.5657894897265208
-0.8478002935848143
-0.8664094410999709
0.04304648375388613
-0.02818100264895642
0.8360046711458522
-0.8078236684711894
-0.02693871050276882
-0.7628059837713596
0.5443092897544449
0.1520892314802907
-0.02449375740386961
0.8932246438041723
0.9798526112089136
0.8627787661922837
-0.8406424455909576
0.1479314037465569
-0.147931400223391
-0.1179306273882324
-0.4727681097207409
0.03271842558338935
0.2702986404768091
0.03204106757270278
0.3883104887233767
0.8662859318029353
0.008899180368272893
-0.01388995460374124
0.6585850302988612
0.3414149696621118
0.7836570625688779
-0.5835040603153319
-0.7781126851793471
-0.8094229474026557
-0.6798578347091637
0.6798578347483102
-0.1680859665251145
-0.1554777061337811
0.6023589944004506
-0.8118314698689946
0.209472475467694
-0.4940017961462203
-0.5689285155998395
0.2780259483412263
-0.9720823497354421
-0.9003651637530449
0.8407804813657924
-0.8126038699909134
0.8403724734088592
0.6486630001697173
0.1341428561449152
-0.7828058563382351
-0.7750189834810596
-0.1463387421876624
0.7246297445036971
-0.5782910024513502
0.03407923253662069
-0.01236900937778818
0.01666411748922624
-0.004295109861271154
-0.3537924848399094
-0.1189756242991694
0.880384941254065
0.747938292888112
-0.2458674399973889
-0.5020708535507149
0.6221600309763546
0.6856606954938725
-0.4708129468265027
3.759445268302145e-06
-0.2855703992633676
0.01616894910615323
0.7511062401149848
-0.7672751890149329
-0.3234193495920349
-0.07324373439497299
0.07639229858585359
-0.9647281147945411
0.1193737624447106
-0.6776886151921905
0.05300452431784487
0.6399343653392708
-0.6929388897720662
-0.7560477962077634
0.07835918109723311
0.5882881386333952
-0.6615318730966046
0.1575713446472722
-0.3358486581908622
-0.7707866362172987
-0.004232347337847072
0.3711005887581344
0.6001780788815381
-0.02552181720377677
0.01930154111051079
-0.01930153807009592
-0.02027253599948138
-0.04835341144503692
-0.2317385084694474
0.02871571759510701
-0.01981649971552732
-0.7248934361750637
0.2792604800206764
0.680358935481582
-0.6887161538096975
0.008357218068528204
-0.5938141847502432
0.646818714589693
0.6538911103792501
-0.06560297418005154
-0.6307727619721919
-0.1252750314899702
-1.050719271509656
0.01104651060677103
0.1368849002103337
-0.7087244910617492
-0.741322667810165
-0.7634999750741517
0.3659588303386125
-0.4078866726662903
0.4603362611963672
-0.05244958717827048
-0.6626609517017805
-0.04606353959588053
0.5016068007107906
0.7306850980494844
-0.2355533774470303
0.1148606235601021
0.9689604665405702
0.4467693138981736
0.1330468121146119
-0.579816126024888
-0.6768766898075826
0.01421573571843341
-0.04473354942890768
0.03236455345199347
0.6363145040067727
-0.7758608604120661
-0.001721946976841733
0.001721949000358813
-0.6011879339019082
0.6490025620634836
-0.04781462871277857
-0.6453680089726807
-0.1132464854956481
-0.6715067421770634
0.06056802600497518
0.6029766365236242
-0.1373688117596916
-0.8178454753603575
-0.5708581554522408
0.5674926961562704
0.003365456071422583
0.6288923160892538
-0.62053509322228
0.3225569781960853
0.213863339584994
-0.5364203177202305
-0.1050081657799665
-0.601364290984937
-0.09157459378112642
-0.1544186160241406
-0.5102901345395024
0.4041256878722387
-0.4991740358523394
0.1268582951927677
0.6784590093780193
-0.8053173043464884
0.5992161459998058
-0.3674251027944087
-0.04046157458613787
0.0810408636299426
-0.5913310035839987
0.5515031709038201
-0.04063555225451433
-0.5108676181916807
-0.3130821226316504
0.3056516910261561
0.007430428774263854
0.4540497933854816
0.1185897224180744
0.05252682863971224
-0.3165146406680874
0.1574989142420643
0.159015725948412
0.228951501718982
-0.007715364841364964
-0.2929133346419217
-0.3099923641187516
0.3504270094106125
-0.04043465351477403
0.7872872942197042
-0.6255694277497375
-0.01979858176778485
0.4992113393873788
0.2828774527486425
-0.5287448933042179
0.5774962876356494
-0.5774962876322667
-0.2897400611560541
-0.5864456380261669
-0.2955900890052175
-0.5864456379212486
-0.5947518091427477
-0.8384992215769611
0.1699349471572344
-0.5928509943202896
0.8211021289283706
-0.003126214280393352
0.1175439138977187
0.4826341676753114
0.09677979171652509
0.1860668678304906
-0.03651350567566333
-0.1495533615347399
-0.02535830978503169
0.5919602526579993
-0.9446409620418916
0.4251411568431482
-0.00754314594166557
0.004057199009975664
0.003485949712807998
-0.643893971921278
-0.1318518594740867
-0.4685630723471996
0.6016098900159204
-0.503545377624615
-0.3272980314242293
-0.2640329446742664
-0.2712517735129903
-0.1115507458512833
0.1115507434128811
0.1528610497352217
0.05943951794391683
0.197113373313141
0.4526208981870034
-0.5715937150635271
0.1030306446006233
0.2464077803046737
0.4665030985990671
0.5334969007895065
0.6428142052972878
0.08866337831152757
-0.005784761846499718
-0.08287860501555035
-0.2770745490655112
-0.540770926543192
-0.5513421899183865
0.1147455128469678
-0.1265983967540886
0.01185288319564197
-0.10544761974259
-0.3854221995654061
-0.04900002944540942
0.6519766588985899
-0.4990041916860028
-0.1448897801984997
-0.3334284773698686
0.2891409492953348
0.1274988052006101
-0.6173859411176024
-0.204599473735297
-0.2628662366405288
0.002933074448939157
-0.4219000947208468
0.3238961861309699
0.09800390902032306
-0.09597694828070838
0.2917169647569769
-0.8959489412605697
-0.4575115814906512
0.6266183451382517
-0.7732177455694245
0.6682095797129179
0.3401293689375035
-0.124078156293073
0.2238564918018444
-0.09977833482427997
0.02628361641920564
-0.586285134743209
0.02887060006259924
0.5574145348555751
-0.900620048617657
0.547780808201127
-0.6657114352547752
-0.1038604800123079
0.1099127005524221
-0.109912698089194
-0.3165108746664943
0.3598900356099892
0.01668018192646793
0.03003987562071906
0.058623507611218
0.5050379141901051
0.6644437803668121
-0.7365119944469954
0.03256550681865451
0.02128997175463956
-0.001988448254880886
-0.00719231365477847
0.007192311574827077
-0.4144808528069545
0.5330705784037399
0.01570279476934552
-0.01570279482618132
-0.7924804136213933
-0.06121741162325758
0.1231487637060382
-0.4570969739877713
0.5601276225371415
0.4522913851611042
-0.5001060170455348
0.150278694239362
-0.1502786907340814
0.03202173078227537
-0.005983314320469213
-0.04256966802427459
-0.9752676105762033
0.5374472633127579
-0.4669304555703719
0.04220764183303247
0.5149769921625661
0.03079657770359619
-0.5457735697811018
-0.6164424005240787
0.1174382143837868
-0.329070004670815
0.01350625013161036
0.3155637565602909
-0.1557941229090902
-0.07975923498147687
-0.5410139123796899
-0.04527121415967295
0.1368848895095679
-0.03990744843346937
0.038185499094594
0.08048081655035164
-0.0804808175005943
-0.5285945168005722
0.4881598749385323
-0.4148501094908015
0.1613171308579481
0.6223399316883723
-0.09718195585577424
-0.002637399391259598
0.002637398001718692
0.532944175035139
-0.08306663443383415
0.005773717020642014
0.02697219451138784
0.03501532592061109
0.6849375902834449
-0.7680042248824783
-0.6529019657078711
0.6331033871172932
-0.1070404280790673
0.3138214403404721
0.7457772042306644
-0.02027253689777467
-0.2660716279432868
0.1508285786070846
-0.7446026477556345
0.4839697474502864
-0.4277561218978129
-0.1014654047418973
0.003295381182084669
-0.01427046551460191
0.02293094673102886
0.4108481595666412
-0.1215244697727303
-0.3893431422806289
0.6288204045991957
0.01972128063694897
0.009867593260654119
-0.009867592488260897
-0.350744928573615
-0.07597360421353722
-0.5602793601756187
0.5571531458491048
-0.2375971581767538
0.464718744363817
-0.1510949832623648
0.7308296113532381
0.6703194381654902
-0.03990745095505136
-0.6175831259336847
0.5631667334824425
0.286167244492415
-0.2817565078490357
-0.004410735241696785
0.53712644715344
0.09341219624705109
-0.03903723299235427
0.1959149977058681
-0.156877764804307
0.1195180469666538
-0.1195180498119861
-0.8586685772033489
0.00234730725674992
-0.1136792312727032
0.140651426927754
-0.1315556604564025
0.1315556573148314
0.02128997515598567
-0.02290995170922698
0.6698393297194696
0.06051300050034287
-0.3226304711952142
-0.06279172738448889
-0.4712399305598804
-0.04726124341867594
-0.1512516181413531
0.1512516142781926
-0.05085688916591868
0.1436771268649
-0.1436771231144995
0.1360745171335244
-0.1360745203117013
-0.3161001746090816
-0.1146730352953998
0.226013283290922
0.1030842673536881
0.03480255048702513
-0.8211693217155486
-0.1985862230723764
0.1699290930040965
0.02162721516628685
-0.2643287509110556
0.1261816443841695
-0.1261816410918908
-0.4142795381075759
-0.08489449913754296
0.2357751970281429
0.002758566053078559
0.04057337113635336
-0.5440936570609644
0.5785773981249061
-0.03684359119537853
-0.01401329352313758
-0.02602364553646158
0.02004033109490206
0.006601561736716834
-0.1847989455182433
0.1781973843142217
-0.1086951851914483
-0.2271534669509837
-0.1443820510363769
0.1443820472541183
0.07251300412273043
-0.07251300623952746
-0.01902462403900173
-0.1085411971151718
0.1275658227163863
0.2371683890728436
-0.1833964569456598
-0.0282704107532776
0.02628195135512963
-0.1328866046354131
0.6210464777795501
-0.03903774418261364
0.4272410162288443
-0.04337506078946802
0.06556399414601273
-0.1529497131215381
0.1529497091549026
-0.6368408265731554
0.3081574624562657
-0.07930200673637869
-0.2340930235197015
0.003592283968540796
-0.1205863053600558
0.1611596760688217
0.1959799924064499
0.09581632321397664
0.09704669608364323
-0.06203137138427502
0.0730967411337571
0.04164877180774679
0.06414647441153519
0.1057826195764059
-0.09882068816141279
0.2136813024464381
0.01158954278521714
-0.1186372230522667
-0.09956684237171208
0.0962596194146593
0.003307226452350064
0.01142237522193005
-0.02365376368154911
0.03745370840227587
-0.0374537087828289
0.07532869445344809
-0.05527873574999459
0.05527873520281283
-0.2243927562041456
-0.05307320963300754
0.0116409800829746
-0.103056724379753
0.01655648303249597
0.1087803971938137
-0.1087803951761942
0.2939838996530289
-0.2709636486385333
0.1622684634905623
-0.05107797247490063
-0.2198856772916645
-0.01697546274011619
0.01697546386024751
0.3676354297383072
0.2851822326826638
-0.5280774151860902
-0.09394618981209646
-0.03265220315082588
0.5289525666859374
0.2111447382595967
-0.1702552957341125
-0.3794533854214435
0.07649948110824682
-0.1472445125288311
0.1867958533858017
-0.03955134204193651
-0.06713161685430626
0.06713161844848141
0.8222766853628115
-0.5604485276717748
-0.00633034091152462
0.01775271983478009
-0.0200049245150622
-0.2873295669100048
-0.01749547082831584
-0.01282638836902572
-0.1321546782832619
-0.5722783464836401
0.5561344225935411
-0.5692687254331665
-0.006869578756445349
0.1015038751426153
-0.001698086101043743
0.01687519069553319
-0.1672494456762796
-0.3361119109025539
0.2330551871072222
-0.05408390196165644
0.03505928852207834
0.1320435537003174
0.1736081426331644
0.3410492430935257
0.2759234992557896
-0.2776215836695795
-0.0613813419228241
-0.1552860198630908
-0.2205867684993442
0.07456214089984628
-0.01041566442886244
0.2134966891683805
-0.1966214976745063
-0.0862877654380694
0.1593845005622384
-0.3554053883701594
0.2079557191130585
-0.1913992366607923
0.08957528364380576
-0.4789184286615941
0.1739694609845184
0.1706536347822095
-0.2569413983765123
0.07339292934775339
-0.1948639820285051
0.1773685106483315
0.01740125419881459
0.1419832517915901
-0.03957592746388515
0.06565624582884499
0.4672879286799411
0.02047823859893715
-0.08519701820262626
0.05360119462218485
0.126380960890907
-0.2601381097352004
-0.2309129965696595
0.559744931047389
0.1570538405898189
0.07872136057112875
0.07464338529889999
-0.03099132795852409
-0.01008424842626677
0.005673494282902309
-0.03267824426024647
0.170692166277933
-0.1775617441728111
-0.06226606691262547
0.01995162011298329
-0.1472060642586021
-0.05288072657434657
0.1514152580036265
0.2770404988536396
-0.0393240173175213
0.00995608959657949
-0.2554532564756105
-0.1328324496677925
0.2362771859370895
0.1783926334004546
0.1297648329913249
0.02209745445432061
0.08852808410658217
0.05245056889694563
0.4525873453716102
0.01489676758093029
0.09792566425858995
0.04309390163387635
0.07222812130171331
-0.1153220257236622
-0.2428951762029631
-0.2004900938398557
-0.01939558532117026
-0.2018779279091354
0.2748488397000254
)
;

boundaryField
{
    FrontBack
    {
        type            empty;
    }
    Top
    {
        type            calculated;
        value           uniform 0;
    }
    In
    {
        type            calculated;
        value           uniform -1;
    }
    Bottom
    {
        type            calculated;
        value           uniform 0;
    }
    Out
    {
        type            calculated;
        value           nonuniform List<scalar> 10(1.033680851602374 1.064091478622272 1.022630464432484 1.020629092196817 0.9950921956275832 1.015714354532372 1.035959934109786 1.062930311861239 0.8672363496944629 0.8820357269287888);
    }
    circle
    {
        type            calculated;
        value           uniform 0;
    }
}


// ************************************************************************* //
