/*--------------------------------*- C++ -*----------------------------------*\
| =========                 |                                                 |
| \\      /  F ield         | OpenFOAM: The Open Source CFD Toolbox           |
|  \\    /   O peration     | Version:  2412                                  |
|   \\  /    A nd           | Website:  www.openfoam.com                      |
|    \\/     M anipulation  |                                                 |
\*---------------------------------------------------------------------------*/
FoamFile
{
    version     2.0;
    format      ascii;
    arch        "LSB;label=32;scalar=64";
    class       volScalarField;
    location    "52.5";
    object      yPlus;
}
// * * * * * * * * * * * * * * * * * * * * * * * * * * * * * * * * * * * * * //

dimensions      [0 0 0 0 0 0 0];

internalField   uniform 0;

boundaryField
{
    FrontBack
    {
        type            empty;
    }
    Top
    {
        type            calculated;
        value           nonuniform List<scalar> 
15
(
142.2728554699166
133.5659480935265
138.0683372651179
144.3996516567795
159.7692456746763
131.3683595373562
140.1199857919863
135.3542620610178
153.4327864186984
135.7428651717874
136.0901057930706
136.7724094344713
125.2428890432622
132.9005849120837
123.9454103591333
)
;
    }
    In
    {
        type            calculated;
        value           uniform 0;
    }
    Bottom
    {
        type            calculated;
        value           nonuniform List<scalar> 
15
(
155.5654722918023
158.1133739107509
141.0941897522153
142.0716046945361
141.1849529903424
148.4470087621732
142.7073076225739
143.1676741915934
143.4244372243998
134.0585922311429
125.7350186112326
141.5545643126089
122.412752122727
123.492411955223
124.1418930130767
)
;
    }
    Out
    {
        type            calculated;
        value           uniform 0;
    }
    circle
    {
        type            calculated;
        value           nonuniform List<scalar> 
32
(
56.35478286877133
22.0671551887606
65.31030828309943
23.99122758759248
19.21147868942725
56.19465353133466
56.80421917741701
24.17160059422028
22.30333230882209
65.52881279643789
40.18215583686116
63.04089508036309
50.32038154422
13.79487700770757
23.61695632635426
19.13870445093685
38.89590951957544
59.60665301046181
61.02337865471979
25.33760342939938
65.73116769151829
63.80843405049394
62.96352638065531
59.90803287895002
64.11148872033942
45.9821822873328
66.37222238622769
32.11209657223544
37.97937526569289
55.73420230930584
21.15970335880208
43.13376299914586
)
;
    }
}


// ************************************************************************* //
