/*--------------------------------*- C++ -*----------------------------------*\
| =========                 |                                                 |
| \\      /  F ield         | OpenFOAM: The Open Source CFD Toolbox           |
|  \\    /   O peration     | Version:  2412                                  |
|   \\  /    A nd           | Website:  www.openfoam.com                      |
|    \\/     M anipulation  |                                                 |
\*---------------------------------------------------------------------------*/
FoamFile
{
    version     2.0;
    format      ascii;
    arch        "LSB;label=32;scalar=64";
    class       volScalarField;
    location    "8.6";
    object      p;
}
// * * * * * * * * * * * * * * * * * * * * * * * * * * * * * * * * * * * * * //

dimensions      [0 2 -2 0 0 0 0];

internalField   nonuniform List<scalar> 
808
(
0.0898578
-0.0011657
0.0290187
0.0892221
-0.255632
0.00300255
-0.00815412
0.020853
-0.159422
-0.0600859
0.0336667
-0.174242
0.0179315
-0.00773147
-0.2914
0.0167839
-0.295999
0.0162523
0.0284389
-0.017669
0.0354659
0.357321
0.0552587
-0.0324098
0.435114
-0.192298
-0.0906372
0.00886608
0.0127748
0.0110547
0.011052
-0.00859325
0.0144496
0.0109897
-0.121688
0.600195
-0.00381488
0.0153526
-0.00363323
0.013737
-0.0877443
-0.0910394
0.0174093
0.00961962
-0.209613
0.0694105
0.0133019
-0.0199687
-0.015866
-0.200567
-0.00243587
-0.01466
0.0267411
0.00955466
-0.104979
-0.0114874
0.00950526
0.0358074
-0.0560038
-0.0132331
-0.352367
-0.0286004
0.0285986
-0.222947
0.0180459
0.0272473
-0.315555
0.0141731
0.0249699
-0.304711
-0.00445659
-0.337164
0.00279483
0.00451126
0.156418
0.00783502
-0.0295048
-0.0857898
-0.00381842
0.294143
-0.138824
0.00405381
0.0207234
0.243973
0.00947156
-0.0502774
-0.380263
-0.124059
0.00130405
-0.210268
0.00861149
-0.13578
0.232051
0.13673
0.0220403
-0.330255
0.0126207
-0.143901
-0.144882
-0.292533
-6.27105e-05
-0.0211088
0.00990352
-0.0415503
-0.133184
0.0416319
-0.238137
0.00987965
-0.00572785
-0.00138661
-0.0926168
0.312739
0.00130846
0.0272625
0.0132356
0.427221
-0.0113177
-0.291667
0.00670575
0.0247597
-0.332443
0.0169214
-0.00467437
0.0293559
0.0936921
-0.0691647
0.0779269
0.0356685
-0.00209421
0.0490906
-0.352031
0.0157759
-0.079962
0.107482
0.0164664
-0.0136014
0.0465729
0.00451115
0.00318627
-0.0158292
-0.304332
0.018401
0.0396303
-0.0024915
-0.0498086
0.0497271
0.0669889
0.128031
-0.107037
0.008336
0.00133351
0.323632
0.0030521
0.51336
-0.29933
-0.116459
-0.000152749
-0.232242
0.0363606
-0.135865
-0.327133
-0.30307
-0.332674
-0.00208062
0.0439677
0.0120026
3.02884e-05
-0.344089
-0.00956204
0.0200902
0.010553
0.141001
0.0515886
0.0930173
-0.000239399
0.0399485
0.0483796
-0.189095
0.00396264
-0.36324
0.0225898
-0.157051
-0.00760441
0.236777
-0.285103
0.0974765
0.00229873
-0.19339
0.0188878
-0.143173
-0.29377
-0.101478
0.0116602
0.0524093
-0.0070617
-0.286682
0.00460505
0.0222503
0.00837456
0.0598651
0.0371967
0.0177473
0.0164949
-0.333934
0.351996
-0.28518
-0.325572
0.00952398
0.0291977
-0.00196463
0.010012
-0.411279
-0.367385
0.00125604
0.00883197
0.00161261
-0.345078
-0.0547883
0.00499427
0.0291211
0.00843584
-0.104505
0.0214609
0.0200356
0.00875904
0.0126463
0.105032
-0.395341
0.0396271
0.0129252
0.0990349
0.0142036
0.0169038
0.0117433
-0.119269
0.0231885
0.0119697
0.00456132
0.00199638
0.0142796
0.00295251
0.00188637
0.00329862
0.00985449
0.000273661
0.00241452
0.00160761
0.00106636
0.000981321
0.0420581
-0.335478
0.00289427
0.00419092
-0.147925
0.00871025
-0.00672314
0.0222448
0.00217136
0.0186645
0.107982
0.0317337
0.00947107
0.0109188
0.0689632
0.0237628
0.0143136
0.0147855
0.0287285
0.0173733
0.0453141
0.0259934
-0.407698
0.256285
0.011458
-0.0904826
0.0158312
0.00971818
0.0132573
-0.285083
0.247938
0.0214458
0.0293095
0.0198023
0.0573982
-0.199541
0.0172984
0.0556969
0.075293
0.0266652
0.0467771
0.00538159
0.0251711
0.0189692
0.0202247
0.0355482
0.0186427
0.0360751
0.0370572
0.0305237
0.0274663
0.0104006
0.0181361
0.0197131
0.01375
-0.521127
-0.116208
0.037694
0.0808624
-0.214103
-0.288308
0.0236487
0.0196193
-0.332939
0.0981556
0.125691
-0.000130701
0.00256755
0.0378001
0.0102593
-0.242946
0.0247837
0.000209645
0.0171793
0.0204436
0.0172669
0.016708
0.0461865
-0.0195205
0.0197383
-0.304095
0.0675185
0.0210601
0.0462665
0.0677818
-0.00581255
0.211579
0.0232935
-0.199199
0.521764
0.0554699
0.00879058
0.0139134
-0.0986479
-0.0688894
0.0335102
0.0224127
-0.00769307
0.0221329
-0.0721928
-0.263361
0.0472893
0.086893
-0.0636331
-0.292684
-0.331875
-0.388511
-0.336164
0.0605922
0.0104033
0.00756921
-0.0114758
-0.0482395
0.0102313
0.0157801
0.00117255
-0.51485
0.0588742
0.0161902
0.0170561
-0.254765
0.0753069
0.00561468
0.0835191
-0.361434
0.0437568
-0.0297295
0.0467362
0.0739245
-0.310879
0.016936
-0.316448
0.00310025
0.0890523
0.0199907
-0.00650036
0.0148042
-0.0772173
-0.352277
-0.0137694
0.000576243
-0.0213361
0.0165996
-0.017114
0.0153539
-0.0178361
-0.00944291
-0.104065
0.00645704
0.00830419
0.0127687
-0.372259
-0.129564
0.0422856
-0.0342787
-0.123717
-0.0409565
0.397001
-0.224778
0.00597437
-0.0484973
0.00830025
0.0297824
0.00836233
0.0627001
-0.0321709
0.0352311
-0.083977
-0.0184952
-0.000546749
-0.00517078
-0.00312593
0.000743753
0.0185192
0.0879179
0.0717477
0.0120629
0.0106371
0.00114636
-0.0639395
0.00827365
-0.392727
0.00612915
0.0389421
0.0120121
-0.160361
-0.369414
-0.0310378
-0.111366
-0.0263967
0.0121174
-0.273724
-0.269571
0.218829
-0.325933
-0.466105
-0.194454
0.0175459
-0.056284
-0.388116
0.32619
-0.0619996
-0.330805
-0.00992188
0.0477455
0.54243
0.00991907
-0.0195167
0.0283141
-0.0622164
-0.0263556
-0.349819
-0.290933
0.0357706
0.0352127
0.0616505
-0.281034
-0.326453
-0.234894
0.00332396
0.0300386
0.07226
-0.0410304
-0.0511124
0.0588533
-0.00307269
0.00733727
-0.220079
-0.310711
0.00843479
-0.0758542
0.00842371
-0.0127588
0.0493629
-0.0700862
0.0163103
-0.473278
0.425885
-0.309157
-0.314881
-0.0471352
0.0111484
-0.307362
-0.287536
0.0927391
-0.346419
-0.16608
0.837551
-0.00294308
-0.364141
-0.00861303
-0.0557387
0.00791123
-0.471469
-0.310497
-0.324834
0.00512866
-0.22221
-0.369309
-0.0290517
-0.0349372
0.0862292
-0.327798
0.0097639
-0.510737
-0.332305
-0.392785
-0.0428519
0.00970971
-0.00145362
0.0875672
0.0956995
-0.040738
-0.305331
0.277161
0.0665461
0.00789002
-0.446985
-0.507083
-0.34402
0.0225378
-0.358952
0.0578399
0.0494452
0.0210398
-0.241836
-0.25274
0.0127519
-0.322867
-0.293802
0.00918846
-0.0257588
-0.294082
-0.0249761
0.0160504
-0.392339
-0.354436
-0.131402
0.0822817
0.00743517
-0.342472
-0.299005
-0.380987
-0.17035
0.0209701
0.0802644
0.00439778
-0.399624
-0.305151
0.0839231
0.0125964
-0.140988
0.0250641
0.0345839
-0.339549
0.0230096
-0.290614
0.0361633
-0.310928
0.0405934
0.00635276
-0.371837
-0.460743
0.00141738
-0.485732
-0.470386
0.0318213
-0.0764037
-0.290188
0.00574897
-0.313938
0.0234449
0.0630177
0.0318981
-0.318065
0.0459798
0.064578
-0.452938
0.0154214
-0.338705
0.00524721
-0.335018
-0.51252
0.0707665
0.257297
0.421099
0.008029
0.00547895
0.00238837
-0.349998
0.624999
0.0013805
-0.220396
0.02243
-0.0956135
0.0536688
0.469461
-0.377041
-0.0634821
-0.0611362
0.0246555
0.00948288
-0.457427
-0.295745
-0.360031
-0.319934
-0.29628
-0.0154008
-0.377359
0.0490417
-0.273625
-0.313543
0.501068
0.574989
-0.309557
0.0847666
-0.295868
-0.0475084
0.0201604
0.396954
-0.000972579
-0.33303
0.062554
-0.510261
-0.0409529
-0.205869
-0.0303231
-0.321594
-0.281353
0.00676093
0.00644715
-0.332833
0.418102
0.657743
-0.352008
-0.307773
-0.344511
-0.0780925
-0.312978
-0.292486
-0.190855
-0.332998
0.739754
-0.34696
0.715464
-0.426732
0.302757
-0.328068
-0.0135934
0.160979
-0.503542
0.19233
-0.284044
-0.317325
-0.344623
0.851369
-0.298752
0.182392
0.120411
0.616098
0.0957386
-0.33917
-0.2882
-0.203665
0.0107971
0.0775997
0.490598
0.0104597
-0.0389322
-0.295251
0.111814
-0.147951
-0.342819
0.0240405
-0.305891
-0.184488
-0.159719
-0.379221
-0.0101437
0.0749645
-0.0116068
0.0593489
0.0823171
-0.338667
-0.358692
-0.0050504
-0.00570882
-0.466533
-0.51442
0.167648
0.17804
0.0623295
0.654972
-0.106256
-0.320232
-0.386262
-0.30621
-0.0864279
0.0714391
0.744984
-0.453534
0.346234
-0.0186395
-0.431136
0.137913
-0.081768
0.357051
-0.165007
-0.000265146
-0.340221
-0.105762
0.164825
0.787093
0.309115
0.743837
-0.385772
-0.305203
-0.429682
0.155749
0.25257
0.0448467
0.36834
0.105725
0.476007
0.263118
0.00520027
-0.21262
-0.00407903
-0.322179
0.861659
0.387478
0.637149
0.491645
-0.270479
-0.365434
-0.294363
-0.31742
0.0314544
-0.424664
0.0735955
0.581208
-0.379362
0.00988952
-0.316934
0.170465
-0.335547
-0.373126
-0.191101
-0.293523
-0.336887
-0.361035
-0.349475
-0.152633
-0.429165
-0.159482
-0.319283
0.131273
0.626089
-0.22658
-0.329599
0.810229
-0.329507
0.259289
-0.242183
0.35759
0.0603028
-0.377262
-0.400813
0.432877
-0.298919
-0.326335
0.160874
-0.279952
-0.0352024
-0.303473
-0.124906
0.0249175
0.54404
0.757101
-0.301446
0.201373
-0.338724
0.800779
-0.0265087
-0.318237
-0.0322127
0.737897
0.192398
-0.32582
-0.291574
0.427842
-0.218944
0.0245571
0.340568
0.23838
0.27171
-0.258074
-0.327584
0.666458
)
;

boundaryField
{
    FrontBack
    {
        type            empty;
    }
    Top
    {
        type            zeroGradient;
    }
    In
    {
        type            zeroGradient;
    }
    Bottom
    {
        type            zeroGradient;
    }
    Out
    {
        type            fixedValue;
        value           uniform 0;
    }
    circle
    {
        type            zeroGradient;
    }
}


// ************************************************************************* //
