/*--------------------------------*- C++ -*----------------------------------*\
| =========                 |                                                 |
| \\      /  F ield         | OpenFOAM: The Open Source CFD Toolbox           |
|  \\    /   O peration     | Version:  2412                                  |
|   \\  /    A nd           | Website:  www.openfoam.com                      |
|    \\/     M anipulation  |                                                 |
\*---------------------------------------------------------------------------*/
FoamFile
{
    version     2.0;
    format      ascii;
    arch        "LSB;label=32;scalar=64";
    class       surfaceScalarField;
    location    "28.5";
    object      phi;
}
// * * * * * * * * * * * * * * * * * * * * * * * * * * * * * * * * * * * * * //

dimensions      [0 3 -1 0 0 0 0];

oriented        oriented;

internalField   nonuniform List<scalar> 
1171
(
-0.945629
0.945629
0.782544
-1.09036
0.307816
-0.374328
-0.746823
1.12115
0.0543711
-0.0628522
-0.275615
0.338467
-0.782544
0.0879322
0.694611
0.94321
-0.206675
-0.736536
0.849034
-1.03938
0.19035
-0.356402
-0.0334199
0.389822
0.00105492
0.604658
-0.605713
-0.487232
0.958214
-0.470982
-0.419254
1.01913
-0.170093
0.277617
0.079684
-0.357301
0.999459
0.0196682
0.312962
-0.0353451
1.03587
-0.0364109
0.651708
-1.02604
-0.791649
0.614305
0.177345
0.384611
-0.871843
0.562034
-0.916108
0.354074
-1.07976
0.670045
0.409711
-0.642961
0.644016
0.0350647
-0.254917
0.219853
0.015953
-0.631083
0.61513
0.467717
-0.501137
-0.841774
0.888597
-0.0468238
1.00657
0.029298
0.921984
-1.07599
0.154007
1.04201
-0.0354348
-0.70209
-0.0895594
1.24643
-0.853788
-0.392646
0.200233
-0.0700975
-0.418163
0.488261
-0.273885
0.182488
0.0913966
-0.604668
-0.485692
0.97216
-0.0501757
-0.0147972
0.869019
-0.854222
0.512231
0.734204
0.53456
0.0275122
0.440205
-0.787946
-0.105638
0.893584
0.595612
0.230117
-0.825729
0.0208096
0.603706
-0.624515
-0.508927
-0.570829
-0.389619
-0.686372
0.0300435
0.242568
-0.272612
-0.944342
-0.0304602
0.974802
0.37537
0.0144517
0.865883
0.0773273
-0.605268
-0.0376928
0.0380807
-0.826026
0.175669
0.900521
-1.07619
-0.405576
0.0228076
0.382768
-0.712061
-0.232281
-0.713086
0.888755
0.61393
0.344284
-0.5782
0.995372
-0.821579
-0.173793
0.0487939
-0.166505
0.117711
-0.458625
-0.0425122
-0.31415
0.928081
-0.0207681
0.444872
-0.424104
-0.48409
1.0797
0.712886
-0.818524
0.388943
-0.0790082
-0.309934
0.76337
-0.76337
-0.955072
0.037876
-0.313491
-0.696686
0.681889
-0.0300539
-0.141495
0.171549
0.891534
-0.0225148
1.04492
-0.814799
0.222775
-0.318343
0.0955683
1.0036
-0.13772
-0.68068
-0.0476294
0.728309
0.149653
-0.233135
0.0834815
0.810002
-1.01668
-0.444968
0.311891
0.133077
0.655371
-0.639418
0.88061
-0.397693
-0.482917
0.490991
-0.69452
0.0371466
0.657373
0.177875
0.670545
0.0466546
-0.7172
0.131865
-0.093989
-0.515343
0.109768
0.0360709
-0.905911
0.86984
-0.551399
-0.763818
0.0617283
0.500419
-0.0602141
0.274333
-0.832715
0.558382
0.42446
0.57554
0.597548
-0.559468
-0.368174
-0.0380876
0.406262
0.542924
0.220446
-0.656247
0.677056
0.082256
0.897935
0.00397962
-0.684659
-0.766657
0.802728
0.622916
0.112533
0.362492
-0.475025
-0.155981
0.507053
0.0966527
0.78433
-0.670135
-0.114195
0.654594
0.340778
-0.428581
0.713005
-0.600472
0.409903
0.152131
-0.0574666
-0.651921
-0.162202
0.814122
-0.118371
-0.644998
-0.612537
0.364359
0.248178
0.660848
-0.656868
0.308413
1.03055
0.0143642
-0.766657
-0.0361579
0.0849518
0.712886
0.784613
-0.784613
0.844183
-0.830835
-0.0133478
-0.454666
0.879126
-0.193149
-0.322194
0.763188
-0.668286
-0.0949029
-0.829133
0.177213
0.106662
-0.71193
0.818524
-0.974505
-0.169183
0.17103
-0.001847
0.119951
-0.989039
0.869088
0.549161
-0.0146011
-0.29033
0.596083
-0.305753
-0.654391
0.774343
-0.160731
0.752847
-0.786781
0.033934
1.18949
-0.665244
-0.52425
0.727147
-0.0703547
-0.0145427
0.0167747
-0.00223198
-0.801511
-0.924105
0.177281
-0.696686
0.574754
-0.551947
-0.0664253
0.718607
-0.652182
0.780005
0.165624
0.491829
0.508171
-0.0230329
-0.638387
0.66142
0.71336
0.0709695
-0.727147
0.802728
0.17897
-0.433887
-0.0241382
0.00321579
0.0209224
0.673745
-0.439259
-0.234486
0.694611
-0.00938539
-0.171258
0.551366
0.122379
-0.00986223
0.00162603
0.00823619
0.00299465
-0.0175374
0.119893
-0.198901
-0.945345
0.0415128
-0.142617
-0.0492903
0.120581
0.765551
0.742825
-0.167285
0.373974
-0.440399
-0.162447
0.385221
0.640027
0.0545842
0.229046
-1.05988
-0.974505
0.315156
0.681889
-0.15747
0.0159751
-0.807064
0.983768
-0.176704
0.484419
-0.101651
0.799485
0.30548
0.266374
0.0465885
-0.680752
0.680752
0.223449
0.670135
-0.00925305
0.454125
0.479008
0.0169226
-0.0410608
0.553818
-0.00465637
-0.654391
0.572465
0.190724
0.0176563
-0.000881623
-0.640027
0.170296
0.813472
0.0210856
-0.726502
0.705416
0.758792
-0.822694
0.0639021
-0.780005
-0.0312214
0.0428741
-0.0116528
0.0838915
-0.127845
-0.107394
0.235239
-0.00673201
-0.00313021
0.771697
-0.750612
0.874079
0.247072
-0.479797
-0.471938
0.951735
-0.00139704
0.00139704
0.132943
0.370355
0.741828
-1.11218
-0.198972
-0.560611
0.759583
-0.0193773
0.190926
0.385227
-0.235573
1.06607
-0.695716
0.751377
0.929982
-0.188154
0.192077
0.774343
0.604249
0.254385
0.634212
-0.644998
0.319248
-0.0343818
-0.0202863
0.0546681
0.85188
-0.0150329
-0.836847
-0.567839
0.532404
0.545334
-0.567839
-0.604249
0.532404
-0.000876047
1.00254
-0.128457
-0.542924
0.462188
0.080736
0.507503
0.647403
-1.15491
0.475255
0.590816
0.654923
0.489852
-1.14477
0.375731
0.554251
0.462188
-0.518602
-0.533627
-0.6974
-0.47877
-0.0681732
-0.00352857
0.00352857
0.655867
0.569898
-1.04867
0.74099
-0.378498
-1.07225
0.40701
-0.681757
0.449475
0.0252319
-0.980838
0.955606
0.452495
0.0416739
0.810206
-1.19288
-0.973911
0.0198421
0.954069
0.278672
-0.0508428
-0.227829
0.758247
-0.808423
1.03795
-1.02551
-0.0124476
0.00546576
-0.6756
-0.104859
0.847311
-0.742452
-0.951435
0.9569
-0.595889
0.61881
-0.022921
-0.873734
0.230985
0.642749
0.00306996
-0.004467
0.426464
0.154929
-1.03089
0.875957
-0.740702
0.717669
1.02159
0.0911253
-1.11272
0.047682
0.00928511
0.396977
-0.358578
0.0402351
0.963013
-0.937781
-0.626662
-0.784976
0.109375
-0.131334
-1.04441
0.0189071
0.561955
-0.187981
0.0232879
0.255384
-0.490936
0.721921
0.482917
-0.939164
-0.860309
0.142227
-0.16943
0.649005
-0.479575
-0.0888075
-0.796092
0.578929
0.179863
-0.158069
0.968275
0.976743
1.00159
-0.982681
0.0450817
-0.0450817
-0.0880515
-0.279535
0.228692
0.341848
-0.0266917
0.256988
0.879468
0.00179092
-0.00852293
0.658285
0.341715
0.797309
-0.604668
-0.760214
-0.494608
-0.48558
0.48558
-0.206644
-0.106847
0.673548
-0.990007
0.316459
-0.481307
-0.561223
0.358741
-1.04511
-1.00683
0.994385
-0.594557
0.703932
0.683223
0.194102
-0.877325
-0.517529
-0.167826
0.840791
-0.672964
0.127365
-0.00175508
0.00335077
-0.0015957
0.0131187
-0.292654
1.03229
0.660697
-0.36232
-0.298376
0.432868
0.742267
-0.518817
0.0106612
-0.284546
0.172237
0.739192
-0.911428
-0.36189
-0.0636451
0.135495
-0.958594
0.121747
-0.795905
0.0569129
0.776687
-0.8336
-0.897603
0.101698
0.705661
-0.769306
0.234182
-0.362027
-0.392648
-0.124881
0.370199
0.745811
-0.0328056
0.00336481
-0.00336481
-0.00190253
-0.0121297
-0.0222521
-0.0176901
0.019481
-0.580629
0.330923
0.777197
-0.854015
0.0768175
-0.749324
0.806237
0.773724
-0.0680632
-0.741578
-0.156025
-1.17871
0.0206346
0.0244472
-0.408392
-0.846438
-0.847033
0.454387
-0.232478
0.249748
-0.01727
-0.563838
0.155446
0.525207
0.712656
-0.034215
-0.0150753
1.08348
0.492738
0.218544
-0.711282
-0.425869
-0.137969
-0.00680186
0.00504678
0.718836
-0.881038
0.00664676
-0.00664676
-0.705452
0.711162
-0.00570988
-0.402581
-0.0887857
-0.708861
0.0277338
0.633687
-0.0505986
-0.876687
-0.0415656
0.181055
-0.139489
0.848108
-0.77129
0.340978
0.263123
-0.604102
-0.127601
-0.729346
-0.104255
-0.212715
-0.0138318
0.471539
-0.514051
0.169876
0.731962
-0.901838
0.490991
-0.137202
-0.095275
0.0539875
-0.0678193
0.596999
-0.0930494
-0.50395
-0.282847
0.303484
-0.0206368
0.590674
0.150316
0.0443782
-0.309965
0.167709
0.142257
-0.0802887
0.0441308
-0.25602
0.0263012
0.126371
-0.152672
0.873124
-0.369646
-0.0329352
0.554457
0.250526
-0.612846
0.408388
-0.408388
-0.197993
-0.390928
-0.210262
-0.390928
-0.658331
-0.849887
0.181601
-0.140954
0.732677
0.0450522
0.173099
0.572711
0.108218
0.115969
0.0107341
-0.126703
0.0401012
0.779138
-1.06137
0.589436
0.0306095
0.0628339
-0.0934434
-0.741027
-0.176686
-0.569113
0.787658
-0.546402
0.0774121
-0.145231
-0.336626
-0.0815106
0.0815106
0.0412774
0.00159678
0.136603
0.293878
-0.763774
0.19466
0.0103232
0.471354
0.528646
0.762047
0.0241998
0.0157098
-0.0399096
-0.292661
-0.584026
-0.526818
0.112234
-0.117364
0.00513002
-0.118185
-0.415243
-0.0127228
0.646409
-0.582787
-0.15824
-0.0890931
0.034579
0.0716709
-0.284953
-0.19591
-0.177165
-0.0217365
-0.484115
0.42902
0.0550947
-0.0237351
0.293753
-0.864582
-0.539855
0.68651
-0.852543
0.724942
0.46341
-0.0342383
0.0619454
-0.0277071
0.0349468
-0.634511
-0.00204052
0.636552
-0.894257
0.637686
-0.725737
-0.0669887
0.00666287
-0.00666287
-0.299304
0.447385
-0.0504084
0.00887499
0.0153248
0.59011
0.522748
-0.636943
0.0120908
0.00620637
-0.00284156
0.00356036
-0.00356036
-0.514354
0.66467
0.0134087
-0.0134087
-0.778353
-0.00822972
0.0112997
-0.509567
0.704227
0.578608
-0.584318
0.0679707
-0.0679707
7.96494e-05
-0.0411405
0.0137612
-1.04771
0.523462
-0.531624
-0.004467
0.598748
0.0106249
-0.609373
-0.704658
0.121871
-0.318126
-0.0133238
0.33145
-0.0195409
-0.0146741
-0.604405
-0.0301059
0.0244472
0.0057769
0.000869865
-0.00283783
0.00283783
-0.448981
0.296309
-0.452363
0.133917
0.663391
-0.13857
-1.40363e-05
1.40363e-05
0.508501
-0.0295694
0.00805991
0.0177843
-0.000906641
0.580511
-0.610081
-0.721457
0.688522
-0.0842386
0.322865
0.781886
-0.00190253
-0.102148
0.101266
-0.645766
0.554516
-0.276566
-0.10591
-0.0254766
-0.0256052
-0.00198024
0.474351
-0.087278
-0.416672
0.702427
-3.17923e-05
0.0072459
-0.0072459
-0.187611
-0.155103
-0.572707
0.617759
-0.141632
0.508805
-0.223866
0.875574
0.880835
0.0057769
-0.786788
0.709577
0.0120178
-0.0600929
0.0480751
0.664787
0.0946516
-0.0125399
0.0693051
-0.0567651
0.00970211
-0.00970211
-0.759216
0.022889
-0.0426142
0.0603985
-0.0872669
0.0872669
0.00620637
-0.00191657
0.747431
0.0660404
-0.319367
-0.0958764
-0.521206
-0.0770753
-0.0678513
0.0678513
-0.0398299
0.080056
-0.080056
0.0276632
-0.0276632
-0.35498
-0.0736014
0.241995
0.0698961
0.0537998
-0.728864
-0.0588283
0.161676
0.0172935
-0.249934
0.07997
-0.07997
-0.466769
-0.0472824
0.232239
-0.0123868
0.00293907
-0.647435
0.648311
0.039936
-0.079766
0.0142705
-0.0554109
-0.0120853
-0.155078
0.167163
-0.150632
-0.211394
-0.0823448
0.0823448
0.0556212
-0.0556212
-0.0298655
-0.0944233
0.124289
-0.000766112
-0.187279
-0.0104951
0.00765353
-0.294721
0.59103
-0.0258894
0.409506
0.00620345
0.00203274
-0.0522926
0.0522926
-0.727778
0.32023
-0.128152
-0.210068
-0.0230665
-0.0184407
0.0213798
0.20094
0.0342993
-0.00125975
0.000353106
0.0827032
0.0295307
0.0548662
0.10681
-0.0133483
-0.00172698
0.000599138
0.00613266
0.00545743
0.00813537
-0.0135928
-0.00103953
0.00617166
0.0285025
-0.0285025
0.0508643
-0.0413825
0.0413825
-0.190869
0.0081654
0.0271792
-0.0761313
0.017961
0.0760433
-0.0760433
0.256035
-0.241401
0.0907682
-0.0676717
-0.173729
-0.016757
0.016757
0.406453
0.250921
-0.517427
-0.0806768
-0.0366871
0.54037
0.0135044
-0.0678488
-0.462736
0.0869106
-0.154362
0.171386
-0.0170246
-0.0465126
0.0465126
0.868796
-0.592283
-0.0110385
0.00999901
-0.00575635
-0.283533
-8.59929e-05
0.00492215
-0.0428532
-0.624728
0.568488
-0.665078
0.0144935
0.20334
0.0155587
0.0246294
-0.160118
-0.336349
0.260218
-0.0569842
0.0271187
0.170924
0.13256
0.179913
0.266776
-0.251217
0.0063273
-0.112609
-0.223392
0.0687296
-0.0138634
0.163253
-0.138624
-0.0683517
0.151055
-0.401954
0.124437
-0.106476
0.0591493
-0.475821
0.176308
0.175716
-0.244068
0.00491191
-0.175801
0.175715
0.00392671
0.147128
-0.0279738
0.0511257
0.457375
0.0117455
0.0278063
-0.00590339
0.0347933
-0.240417
-0.203272
0.589574
0.170521
0.0617186
0.0798129
-0.0633495
0.072343
-0.024268
-0.0301658
0.167735
-0.153242
0.025826
-0.00338501
-0.103814
-0.0286726
0.0240991
0.252629
0.000673815
0.0169321
-0.313046
-0.00650869
0.215951
0.142355
0.177875
0.0567773
0.0983994
0.0495855
0.540525
-0.0129937
0.101811
0.0440291
0.0646609
-0.10869
-0.266506
-0.199132
0.0254031
-0.223192
0.287642
)
;

boundaryField
{
    FrontBack
    {
        type            empty;
    }
    Top
    {
        type            calculated;
        value           uniform 0;
    }
    In
    {
        type            calculated;
        value           uniform -1;
    }
    Bottom
    {
        type            calculated;
        value           uniform 0;
    }
    Out
    {
        type            calculated;
        value           nonuniform List<scalar> 10(1.13018 1.02611 1.23103 0.966547 1.13725 1.03302 1.22576 1.04253 0.606381 0.60119);
    }
    circle
    {
        type            calculated;
        value           uniform 0;
    }
}


// ************************************************************************* //
