/*--------------------------------*- C++ -*----------------------------------*\
| =========                 |                                                 |
| \\      /  F ield         | OpenFOAM: The Open Source CFD Toolbox           |
|  \\    /   O peration     | Version:  2412                                  |
|   \\  /    A nd           | Website:  www.openfoam.com                      |
|    \\/     M anipulation  |                                                 |
\*---------------------------------------------------------------------------*/
FoamFile
{
    version     2.0;
    format      ascii;
    arch        "LSB;label=32;scalar=64";
    class       volScalarField;
    location    "16.7";
    object      p;
}
// * * * * * * * * * * * * * * * * * * * * * * * * * * * * * * * * * * * * * //

dimensions      [0 2 -2 0 0 0 0];

internalField   nonuniform List<scalar> 
808
(
0.110169
0.00451154
0.021363
0.110603
-0.201143
0.00638453
-0.00532848
0.0168562
-0.110271
-0.0302065
0.0263937
-0.123213
0.0108755
0.000634401
-0.294394
0.0090549
-0.307574
0.00567037
0.0222011
-0.0037508
0.0191165
0.374965
0.0595866
-0.0110349
0.452511
-0.190223
-0.0525385
-0.000878914
0.00564548
0.00632806
0.0023528
0.00840306
0.0132829
0.0031827
-0.0871764
0.62688
0.00206197
0.0137024
0.00993547
0.00759151
-0.0588851
-0.0563047
0.0226833
0.0120809
-0.200097
0.0765413
0.00959461
0.0183689
0.00219174
-0.148395
-0.00107889
0.00994525
0.0312979
0.00122817
-0.0987954
-0.00125905
0.0037167
0.0283616
-0.0226233
-0.00724017
-0.274185
0.00752259
0.024636
-0.176694
0.0167331
0.0333439
-0.235374
0.0149675
0.0160913
-0.249972
0.0125935
-0.277758
0.0121003
0.00949442
0.192304
0.00177988
-0.0237453
-0.0792819
-0.00283141
0.307396
-0.137093
0.00770999
0.0255581
0.273593
0.00511342
-0.0438979
-0.319677
-0.118467
0.01508
-0.213804
0.029904
-0.097634
0.247665
0.148481
0.0279238
-0.23097
0.0133196
-0.133178
-0.107137
-0.207975
0.00209954
-0.0140285
0.0290488
-0.0393619
-0.125275
0.0459194
-0.217976
0.0158848
-0.00288538
0.0373594
-0.0962203
0.32774
0.00574775
0.0292367
0.011298
0.451619
-0.000139829
-0.234367
0.00818525
0.0470529
-0.260294
0.0233754
0.00160644
0.0485648
0.101916
-0.0623157
0.102007
0.0326945
0.0261988
0.0556138
-0.236404
0.0145248
-0.0592009
0.116123
0.0114386
-0.0035833
0.0358412
-0.00205016
0.00911493
-0.0043768
-0.297144
0.0399803
0.021829
0.00974071
-0.0417892
0.0677018
0.0877302
0.151338
-0.074877
0.0150131
0.00545669
0.339031
0.0188291
0.533261
-0.28185
-0.113739
0.00577062
-0.22662
0.0259331
-0.135133
-0.271537
-0.292446
-0.248527
0.00649261
0.0486576
0.0121579
0.00969901
-0.250053
0.00301014
0.0203782
0.0282854
0.149885
0.0658484
0.128951
0.00642588
0.0627288
0.0583426
-0.13959
0.0136367
-0.301636
0.0205115
-0.153901
0.00364029
0.263076
-0.304835
0.105607
0.00843323
-0.157587
0.018929
-0.106977
-0.279175
-0.0834835
0.00829841
0.0761654
0.00385532
-0.28643
0.00704097
0.0206217
0.00118011
0.068797
0.0568083
0.016187
0.0127089
-0.274203
0.372644
-0.282328
-0.271231
0.00191078
0.0204746
0.00648698
0.00233604
-0.348061
-0.237801
0.00575682
0.00939264
0.00987226
-0.282932
-0.0467738
0.00615607
0.0285708
0.0192481
-0.0969988
0.0158422
0.0156878
0.000323218
0.0161346
0.113785
-0.25196
0.0498381
0.00373044
0.106591
0.00516757
0.00706957
0.00224556
-0.115697
0.0174202
0.000550048
-0.00105994
0.00153845
0.00514483
0.00182968
0.00062275
0.00431806
-0.00234625
-0.00284584
0.00116544
-0.00141454
0.000202576
0.00361027
0.0469326
-0.276325
-0.00139924
0.000529401
-0.151073
-0.000590368
-0.0049956
0.0182372
0.00201201
0.00885322
0.117326
0.0425855
0.00383256
0.00526448
0.0529911
0.0148899
0.0103729
0.0218165
0.0355233
0.0207625
0.0227075
0.0241088
-0.344611
0.27023
0.00688027
-0.053189
0.0103809
0.00559569
0.00549419
-0.215334
0.282242
0.0180415
0.0199016
0.0242842
0.0771483
-0.157752
0.012627
0.0453488
0.0937317
0.0254268
0.0307541
0.0139425
0.0236302
0.020976
0.0225494
0.0389266
0.0161917
0.0189798
0.0463883
0.0401522
0.0357189
0.0154395
0.0132565
0.0282306
0.00735447
-0.45453
-0.113442
0.0173887
0.0430435
-0.162056
-0.280966
0.029334
0.0126928
-0.27392
0.123089
0.1549
0.00648413
0.00649393
0.0482563
-0.00105496
-0.190973
0.0225487
-0.00318572
0.0138939
0.0123244
0.012204
0.018019
0.0506761
-0.0149869
0.0187488
-0.27058
-0.0490031
0.0181033
0.00149658
0.0553174
-0.00226185
0.224937
0.0216543
-0.153145
0.54798
0.0409474
-8.12242e-07
0.0154649
-0.0707455
-0.0611688
0.0465524
0.0197951
-0.017656
0.0244404
-0.0618873
-0.260844
0.0574622
0.0952758
-0.076198
-0.268491
-0.273473
-0.249002
-0.270601
0.0573722
0.0155048
0.00524174
-0.0229746
-0.0447863
-0.00162928
0.0200888
-0.000342464
-0.448982
0.04863
0.02515
0.014025
-0.306769
0.0357992
0.0134439
0.105953
-0.286803
0.0386514
-0.0563652
0.0471804
0.0134085
-0.269351
0.0154617
-0.309136
-0.00567742
0.0230121
0.0151985
-0.0015138
0.0106042
-0.0856118
-0.291652
-0.00598497
-0.00275987
0.00536311
-0.0037551
-0.0186663
0.0185368
-0.0237289
-0.0216252
-0.107802
0.0376345
0.00191011
0.0056361
-0.282713
-0.143458
0.0518816
0.0114614
-0.155287
-0.0421252
0.427891
-0.293549
0.00315698
-0.161641
0.00531325
0.0320061
0.0138256
-0.0120357
-0.0146874
-0.0105291
-0.0780348
-0.0145504
-0.00682743
-0.00987637
-0.0107675
-0.0102074
0.0135682
0.110481
0.025636
0.00341677
0.00486894
0.00997167
-0.0893269
0.013076
-0.332778
0.000422295
0.0421803
0.0030474
-0.245896
-0.277351
-0.0278129
-0.0652864
-0.0767565
0.0163223
-0.160957
-0.203719
0.222268
-0.267384
-0.401216
-0.316505
-0.121465
-0.116445
-0.250686
0.351682
-0.0467005
-0.274534
-0.00310061
0.0222431
0.579606
0.00230918
0.0116521
0.0369262
-0.029681
-0.0231486
-0.298138
-0.2859
0.0470616
0.0567387
0.0666891
-0.227565
-0.2553
-0.237234
0.00312699
0.00671962
0.0814649
-0.0293739
-0.0381519
0.067831
0.00243616
0.0149393
-0.182583
-0.304072
-0.0110881
-0.119026
0.00876842
-0.00383154
0.0724261
-0.0630636
0.0075064
-0.40684
0.454032
-0.246243
-0.271293
-0.0478962
0.00361423
-0.27617
-0.27018
0.115911
-0.285833
-0.230953
0.864347
0.00271684
-0.305294
-0.00815228
-0.151082
-0.0165567
-0.406425
-0.284782
-0.259656
0.00695662
-0.266552
-0.308664
-0.0246823
-0.0355776
0.0954207
-0.25854
0.0195092
-0.443993
-0.324016
-0.384154
-0.225292
0.00113388
-0.00499068
0.0951101
0.125021
-0.0583085
-0.265987
0.308054
0.0839722
0.0139251
-0.381809
-0.440464
-0.278779
-0.000252481
-0.298262
0.095002
0.00741429
-0.0106361
-0.23562
-0.195173
0.00459274
-0.269956
-0.296801
-0.0019174
-0.0201099
-0.172737
-0.0222996
0.0248208
-0.329611
-0.278563
-0.0997378
0.0916415
0.0154436
-0.282011
-0.290917
-0.239395
-0.298233
0.0285285
0.0902388
-1.36932e-05
-0.244047
-0.299715
0.0933498
0.0178158
-0.238849
0.0219525
0.0272981
-0.331461
0.016254
-0.227408
0.027315
-0.326033
0.00518308
-0.00561881
-0.363006
-0.452727
-8.53695e-05
-0.421125
-0.403957
0.0231915
-0.075088
-0.276431
0.00283249
-0.266973
0.0216037
0.0723227
0.0601315
-0.318764
0.0664083
0.0212599
-0.450069
0.00855254
-0.283275
0.00974717
-0.274407
-0.506228
0.105412
0.268986
0.44397
0.00477133
-0.00574864
-0.00166104
-0.289628
0.645453
0.00691603
-0.221199
0.017994
-0.0412487
0.0824459
0.483405
-0.367862
-0.0550331
-0.0515552
0.0255133
0.00536355
-0.44899
-0.265069
-0.268811
-0.311744
-0.239527
-0.00944946
-0.316247
0.0631876
-0.270077
-0.312187
0.508307
0.587125
-0.318454
0.12611
-0.275877
-0.0318248
-0.15237
0.403041
-0.111469
-0.274482
-0.0764501
-0.505577
-0.0353687
-0.19952
-0.0239399
-0.312507
-0.279907
-0.0022282
-0.00171472
-0.275905
0.458257
0.67528
-0.26558
-0.300029
-0.275943
-0.0655627
-0.304219
-0.282848
-0.194683
-0.274652
0.752164
-0.338871
0.749676
-0.362596
0.334596
-0.264882
-0.00889662
0.171673
-0.49698
0.24003
-0.282774
-0.311873
-0.338902
0.870816
-0.272693
0.213102
0.155145
0.649207
0.126221
-0.343632
-0.289367
-0.183698
0.00237198
0.0832835
0.531835
0.00426074
-0.0335281
-0.284861
0.114954
-0.100073
-0.280586
0.0177606
-0.340499
-0.128536
-0.157874
-0.316385
-0.00729438
0.102937
-0.018142
0.0675422
0.112408
-0.332302
-0.356373
-0.0610677
0.00046065
-0.462799
-0.50934
0.173198
0.189944
0.0856864
0.667531
-0.0590613
-0.294497
-0.382169
-0.299377
-0.0409908
0.0793668
0.762965
-0.448286
0.386692
-0.0251921
-0.423739
0.14854
-0.0779694
0.393698
-0.163893
0.00371719
-0.284306
-0.0544874
0.209985
0.817687
0.338101
0.759145
-0.278602
-0.300722
-0.365442
0.164111
0.265885
0.053512
0.379554
0.154588
0.500115
0.27359
-0.0575945
-0.160294
0.0353967
-0.317148
0.884636
0.414923
0.647475
0.513656
-0.267195
-0.274495
-0.280473
-0.270453
0.0388898
-0.363416
0.119365
0.595973
-0.286329
0.00389486
-0.268993
0.181847
-0.326658
-0.365609
-0.163498
-0.289302
-0.306527
-0.279213
-0.292667
-0.124697
-0.364001
-0.107385
-0.249785
0.14249
0.662814
-0.222565
-0.270184
0.826296
-0.271381
0.296405
-0.236397
0.401209
0.0883001
-0.254111
-0.394592
0.441387
-0.242541
-0.321082
0.201715
-0.275706
-0.0374274
-0.295846
-0.120451
0.0199405
0.575867
0.782369
-0.291819
0.231649
-0.295366
0.822824
-0.024958
-0.312873
-0.0414237
0.767719
0.203728
-0.320214
-0.281463
0.462059
-0.213882
0.0332578
0.349037
0.251279
0.30128
-0.253525
-0.327556
0.690932
)
;

boundaryField
{
    FrontBack
    {
        type            empty;
    }
    Top
    {
        type            zeroGradient;
    }
    In
    {
        type            zeroGradient;
    }
    Bottom
    {
        type            zeroGradient;
    }
    Out
    {
        type            fixedValue;
        value           uniform 0;
    }
    circle
    {
        type            zeroGradient;
    }
}


// ************************************************************************* //
