/*--------------------------------*- C++ -*----------------------------------*\
| =========                 |                                                 |
| \\      /  F ield         | OpenFOAM: The Open Source CFD Toolbox           |
|  \\    /   O peration     | Version:  2412                                  |
|   \\  /    A nd           | Website:  www.openfoam.com                      |
|    \\/     M anipulation  |                                                 |
\*---------------------------------------------------------------------------*/
FoamFile
{
    version     2.0;
    format      ascii;
    arch        "LSB;label=32;scalar=64";
    class       surfaceScalarField;
    location    "238.5";
    object      phi;
}
// * * * * * * * * * * * * * * * * * * * * * * * * * * * * * * * * * * * * * //

dimensions      [0 3 -1 0 0 0 0];

oriented        oriented;

internalField   nonuniform List<scalar> 
1171
(
-0.9279155478283084
0.927915547872717
0.787259941316751
-1.098761463630272
0.311501522237254
-0.1946300765390073
-0.7675299408489152
0.9621600173141958
0.07208445863609259
-0.1175550929870273
-0.2118149401094598
0.3293700332718008
-0.7872599415243976
0.0692752856789693
0.7179846558346065
0.8106761175366023
-0.1774095740227302
-0.63326654350303
0.8741645953186293
-1.043485592569032
0.1693209972123421
-0.2847016744934942
-0.09807143861098727
0.3827731127907595
-0.03611501759493246
0.5483667155878361
-0.5122516979196857
-0.5072845326340808
0.8292676760110624
-0.3219831432936354
-0.4022567735685488
1.045616134217155
-0.1714515368807016
0.3957400221001977
0.04912922081800826
-0.4448692423831089
1.046386317733172
-0.0007701827614216819
0.4465857943677978
-0.05084577008814551
1.056900013460014
-0.01051368867863526
0.5785090640408296
-0.7731391481497774
-0.7242832750550168
0.5570862840680457
0.167196991034295
0.2192713629072213
-0.7265558902975093
0.5500051750054644
-0.9225454737845504
0.3725402994206561
-1.094194749286358
0.6864597123912212
0.4077350367867111
-0.5953640450194023
0.5592490225745153
0.01771846899713453
-0.2563526243385135
0.2386341563871724
-0.02415454615403197
-0.5239079311545729
0.5480624769800154
0.3998404390924216
-0.4979118855501228
-0.9187705564197768
0.9415197294703059
-0.02274917304488806
1.067810407417015
-0.01091039059158999
0.9352056324215834
-1.116977482345395
0.1817718499634139
1.067444654169534
0.000365760226577147
-0.6642704632548078
-0.06001280916082815
1.262034253698073
-0.864461425428788
-0.3975728282775135
0.1486741048453453
-0.1092234727387462
-0.3254758397184758
0.4346993122211632
-0.2856766319503476
0.1914460953294516
0.09423053616520609
-0.5834040556639054
-0.5153574095050931
1.014126440158484
-0.07892080625025391
0.00991186846104521
0.8254504815946889
-0.8353623500701752
0.571763725650409
0.6902705277891003
0.4391432400184547
-0.0307550808829177
0.430595519628206
-0.8077637173600036
-0.1026273362191701
0.9103910536242156
0.5026853185898055
0.2539599899643436
-0.7566453085182652
0.00367205179501562
0.5305671274724978
-0.5342391791113359
-0.4899193642749203
-0.6042753794917667
-0.4228961492296968
-0.6940813322479411
-0.0274985745360067
0.2705315030339111
-0.2430329291196431
-0.9249203599006451
-0.005211155746779567
0.9301315156226864
0.3078086780777944
0.07496442397185464
0.762214309940349
0.04846180715844243
-0.5329818244240736
-0.06238222421446838
0.04629175361255541
-0.8540554682952786
0.07693352030473022
0.8617865798553016
-0.9387201001516503
-0.3473768493633128
-0.04087921347441199
0.3882560629305319
-0.6824248191228091
-0.2424955413897552
-0.6319004658240374
0.7088339893961849
0.6098937633356321
0.2193739174589021
-0.5430067853002908
0.9461949465694782
-0.7793355235636028
-0.1668594230061115
0.01993743150079122
-0.01061941252730958
-0.009318018142304731
-0.4030198620212548
-0.09489202448958674
-0.2420295231406485
0.8519232928467477
0.04738416282776513
0.3339417091483633
-0.3813258722872925
-0.4609597308234216
0.9636450495614525
0.6801431048310733
-0.7827704359093351
0.3179960481907169
-0.01533380070559663
-0.3026622467710305
0.9306634122063268
-0.9306634122159114
-0.7829428658414062
0.1113253180981323
-0.3231402636548246
-0.7500333532492154
0.7599452222090601
-0.09103457333961203
-0.1426750135978611
0.2337095865901313
0.864916072430295
-0.03946559071950514
1.054531938543447
-0.8005719459643366
0.1862509579378299
-0.3158783262783927
0.129627368355405
0.8589794175191339
-0.09676510874602767
-0.6116302448991777
-0.03945428842154451
0.6510845333084336
0.1237505385004836
-0.2308310706038958
0.1070805330444307
0.8055922951543244
-0.9830018707222167
-0.4348094556116979
0.3293397015062423
0.1054697543427678
0.5324310899824942
-0.5565856313420535
1.022122695865279
-0.4562812369037977
-0.5658414589471655
0.5992265495396172
-0.7192798823856316
0.06655459992395281
0.6527252821350507
0.1023341084676103
0.5703591158638829
0.05465492408557267
-0.6250140398622421
0.1946681997683102
-0.08334288724321333
-0.4927594714247182
0.1453826241756891
0.05036860412250498
-0.8867466865112646
0.8363780824267981
-0.4747787102137275
-0.7133565291997132
0.04908606337091657
0.4364761297160298
-0.005880614537654426
0.3000212094545211
-0.8552875111847297
0.5552663019310005
0.4157302157094857
0.5842697843155836
0.5606245955622127
-0.5143328345181861
-0.3653802082391442
0.0367631981832441
0.3286170080297108
0.6813198452293965
0.2493435678531604
-0.5672516666629172
0.5709237147677731
0.1110002955329744
0.8748675797599306
0.01030182571937349
-0.6219320691212374
-0.7492637143771814
0.7996323205296282
0.5309048274703869
0.07160824965692283
0.3005942662215165
-0.3722025157810168
-0.1675957490326739
0.4431376862098669
0.08742943833935705
0.8747189226558849
-0.7987947955820907
-0.07592412699758783
0.6355383905798171
0.3106565586532467
-0.4305184348884435
0.5753232682340891
-0.503715015439694
0.4170909820252764
0.1329142038867446
-0.04688642529546388
-0.5886207751500502
-0.1389965646960667
0.7276173398207306
-0.149665013512081
-0.7809984004500096
-0.6110677500033401
0.3604456299225516
0.2506221192401674
0.62224367008763
-0.6119418423904867
0.2383354588323099
1.011678624411576
0.04285331242433231
-0.7492637132639989
0.2195291404851471
-0.1995917172186563
0.6801431033023623
0.8021309314946584
-0.8021309315192725
0.8376606172302954
-0.8332556391807374
-0.004404977986260111
-0.4453584582110403
0.8610886751572586
-0.1476101192327315
-0.3451493543977878
0.7347482321095675
-0.668518471791658
-0.06622976037627816
-0.7330944386531012
0.1444736627953443
0.1389195522810416
-0.6719013767720936
0.7827704194762879
-0.9503661685559792
-0.3649317644378189
0.2867480720912503
0.07818369216190291
0.1458123760123667
-1.009669881094752
0.8638575051008577
0.4805624005239462
-0.04141916056389308
-0.3081352750517559
0.5863380000032484
-0.278202724868986
-0.7383684833067825
0.8841808566000765
-0.1570918489461872
0.7344549358701161
-0.8364687049840727
0.1020137692571082
0.9782548616436083
-0.5412321042006895
-0.4370227574640363
0.7552445087142121
-0.06484578617226122
-0.03602835977703326
0.1873398258510565
-0.1513114665788095
-0.7757387512933224
-0.8432591402698798
0.07572919193599086
-0.7500333523648955
0.5141328693521082
-0.5550120843791774
0.09204810125051534
0.7174203609600582
-0.8094684621146081
0.7536686780447989
0.1742468848542162
0.5028898646778268
0.4971101353046538
-0.0541130752300169
-0.6061426712020855
0.6602557465487686
0.878637842195035
-0.003918916316583153
-0.7552445087038693
0.7996323214253434
0.1912919618857212
-0.4476445838890792
0.01724534817321136
0.001434747425057346
-0.01868009263549188
0.5894990049277781
-0.4381003844038717
-0.1513986202696028
0.7179846559872367
0.01382330399064398
-0.1088042061378641
0.4381694774794115
0.1513295320076197
-0.01360249876411505
-0.007124215826555248
0.02072671409961384
-0.0336256574636702
-0.00240271214583754
0.2442447996183769
-0.2595785845155278
-0.9592227785910795
0.002008737629529956
-0.1595904571764067
-0.1206869610841905
0.09476916670846604
0.7216155301900655
0.7289822701615171
-0.144712487684001
0.6625960186054899
-0.5705479199892205
-0.2119376200752501
0.3981885804403704
0.6955151770683974
0.02246947890592467
0.2416673958526226
-1.074923031073566
-0.950366170319659
0.30192807273269
0.759945222465643
-0.2089536510428605
0.06627864150437668
-0.7236242679840537
0.9094425737865526
-0.1858183057596517
0.4163054470663191
-0.02804938921209557
0.7715322987292929
0.2807201241109117
0.3738657221263966
0.07272005756094264
-0.6587027319038939
0.6587027318864974
0.2148248183654283
0.6955662400676522
-0.05529901423072901
0.3892407225273793
0.3794003029206053
-0.01255175383149645
0.0297970943297788
0.4490600947767167
0.03150230384055712
-0.7383684841536684
0.5340713492423734
0.200676887199438
0.3038568054348761
-0.1165169700198462
-0.6955151750175216
0.1796280862178686
0.7298144858967613
-0.01027881100340189
-0.8136121118261986
0.8238909228081807
0.6963348482413814
-0.7920162924268459
0.09568144419897359
-0.7536686852880283
-0.1508726402967759
0.2118614522938129
-0.06098881274082886
0.07745452919923881
-0.1788959268001896
-0.113325444102255
0.2922213713092079
-0.005396842425638158
-0.008205661488759902
0.7066147440640191
-0.7168935621154222
0.8855607309121938
0.07659927939727337
-0.3172105526114594
-0.5175220287643187
0.834732581178213
0.1039267300874175
-0.1039267286220389
0.3235112767407358
0.4728567326956835
0.617789258464689
-1.090645991040361
-0.194103768777682
-0.5856572624078207
0.7797610311931493
0.01369416983208234
0.2200154252825266
0.3767962825650074
-0.2530457317529147
1.014183532108864
-0.5413267959884298
0.6661049850405331
0.9945120003247465
-0.3767227387132894
0.2291861584314256
0.8841808536351966
0.7127293200287435
0.2137871767221209
0.7277325575573549
-0.7809983999757799
0.3412972826421433
-0.2770168634922323
0.2475691823431903
0.029447681222516
0.8463530270850999
-0.005680004409612588
-0.840673022532982
-0.7022156385826239
0.702581402085005
0.5546415439803039
-0.7022156354572483
-0.7127293200258109
0.7025814059146309
-0.03482056915697741
0.9077602918775778
-0.02219956499224268
-0.6813198367452965
0.6123432544337416
0.06897658231354353
0.5386395396853553
0.5369342221258616
-1.075573761814459
0.4901598033361141
0.5240237297707506
0.5435380045899495
0.4587017761880868
-1.002239780730011
0.4956522172190035
0.498859784117379
0.6123432482784257
-0.525539261623553
-0.4653257070841254
-0.5567317560256347
-0.5175425210539011
-0.119048349602888
-0.01229658748724666
0.01229658681904272
0.5129291532871348
0.523322679062311
-1.040865200011384
0.574127541892349
-0.273533276158238
-0.8851899843153418
0.3439578797132833
-0.6331097064422054
0.3906141656079821
0.002545194033447825
-0.8279797622892928
0.8254345682549044
0.4208469909063309
-0.01874275824533377
0.8650957822411887
-0.9491110137037394
-0.8333974651482465
0.05382334885288959
0.7795741162634103
0.5668536573050886
-0.4397380016165349
-0.1271156557666791
0.6501409801134103
-0.7290617859731003
0.8873734220770855
-0.8313060618132265
-0.05606736040697229
-0.01069456532674494
-0.7881002274390557
-0.109923856210263
0.7125704039880481
-0.6026465477681903
-0.9367629866919197
0.926068421618677
-0.7249365509924864
0.6914506006617168
0.03348595033510694
-0.8110155991539608
0.03861022656742097
0.7724053725139157
0.06180603376845272
0.04212069373999334
0.4329354134711801
0.06173757386352614
-0.8517835575386131
0.7900459837828031
-0.643938290549832
0.5898252217819976
0.8891646230638375
0.07089485334898896
-0.9600594763215949
0.0557671568181187
-0.04800231948028391
0.376619339090104
-0.3816058697781978
0.06572754952369061
0.8420517753125529
-0.8395065762443511
-0.7344163263402373
-0.8142975258949349
0.02619729911428884
-0.1630049810169656
-0.8527183711314015
0.02141231711780357
0.6229227854532607
0.03967323107842917
0.03436410275701413
0.5324895673581743
-0.8079226712062659
0.8465328936591267
0.5658414567670687
-0.8467225129655294
-0.8658681336060192
0.04189215573403209
-0.03276345953953618
0.8375399677749457
-0.8047765082698745
-0.02728379076928589
-0.7671797905471873
0.5443359040085598
0.1519989432114014
-0.02961729274190106
0.8947130758812909
0.9798917700919086
0.8626939291072351
-0.8412816072078486
0.1477244087989847
-0.1477244072796145
-0.1184161503905258
-0.4795524847583429
0.03981449023626612
0.2703255715563415
0.03160250092192182
0.3876890381130763
0.8674292821642227
0.006496371659935857
-0.01189322696178639
0.6585982567912922
0.3414017431900025
0.7836099836444305
-0.5834040551040399
-0.7781024726931715
-0.8104565205000749
-0.679832239063072
0.6798322390652529
-0.1678712200030687
-0.1552690497468476
0.6021155912387365
-0.8121553098752047
0.2100397186200803
-0.4938408643752527
-0.568991022896832
0.2781280390683798
-0.9722093705917505
-0.9015445307986932
0.8454771809801419
-0.8124176475904574
0.8386149458206821
0.6487295719827962
0.1341948826413846
-0.7829244546152685
-0.7769705713697387
-0.1460964773390533
0.7242739946061855
-0.5781775172704755
0.03411524565101954
-0.01378976196692054
0.01776162340268209
-0.003971862423696302
-0.3546440992706694
-0.1249083871719334
0.8802436291127237
0.7471259981504558
-0.2468353691438301
-0.5002906288306047
0.6200103419504769
0.6854335556394782
-0.4706087358707216
-0.000335259099191825
-0.2853413675237412
0.02221389221277615
0.7488053441135148
-0.7710192363940013
-0.3234797989928936
-0.07301457367320618
0.07603248979958223
-0.9616616356547624
0.1209886089684901
-0.6779604290712711
0.05200041682189523
0.6406016594701603
-0.6926020763330923
-0.7563420133104278
0.07838158425184638
0.5879536018105979
-0.6609681755397988
0.1573210996703573
-0.3362170222853131
-0.7704529364476891
-0.00651763490658466
0.3711693064053345
0.6009614673283988
-0.02563820186171349
0.02108999262342992
-0.02108999184259168
-0.01942081389195712
-0.04897687097284941
-0.2280400085415771
0.02676776861257929
-0.0202713692002425
-0.7307797026065255
0.2792588142264799
0.6806087573813902
-0.6890634697656761
0.008454712214157894
-0.5950446182153108
0.6470450368303976
0.6532877180879366
-0.06533411462668007
-0.631217720201833
-0.1251242911632193
-1.050572621851114
0.01104180682641538
0.1366825977459157
-0.7085658092497161
-0.7411415741272686
-0.763215313914369
0.3656424856283673
-0.4109726180151804
0.4630221326679612
-0.05204951457142746
-0.6666378262041196
-0.0419279831253938
0.5019151045080117
0.7306827116860627
-0.234396511081765
0.1137095486489458
0.9681792680790927
0.4464072326271412
0.1339193722036433
-0.5803266047897936
-0.6775370688427147
0.01089924017466977
-0.04474457903663677
0.03095483919352767
0.6363284135286729
-0.7753249767843985
-0.00177418731349958
0.001774187862898178
-0.6012281101187247
0.648394732136552
-0.04716662204916683
-0.6431729662996308
-0.1130743374349456
-0.6715003476540425
0.05719045235948476
0.603065300591787
-0.1371784549974761
-0.8175968269453473
-0.5640569332743052
0.5657242434929576
-0.001667311053392471
0.631152671550979
-0.6226979592146964
0.3224531461657747
0.2141060294039544
-0.5365591755598097
-0.1048131598846218
-0.6015946268902087
-0.09100745011972496
-0.1548208786425128
-0.5068664708747671
0.4040872358745901
-0.4989792581115512
0.1269302486984399
0.6782995109356856
-0.8052297596300144
0.5992265495448119
-0.3673890384342064
-0.04358356829391794
0.08322667711569336
-0.5900931468912028
0.5517169368478414
-0.04060478536062044
-0.511112151320638
-0.312697617102182
0.3052326960650252
0.007464920009217897
0.4546789803409734
0.1194485654695594
0.05169308894371728
-0.3161894655212675
0.1571213348785043
0.1590681304504573
0.2276175475802444
-0.008088397848398848
-0.2934057893624175
-0.3108442206111915
0.3563114158145037
-0.04546719770785209
0.787093596127922
-0.6260512829219275
-0.01712168326156998
0.4992362110900868
0.2810930251067721
-0.5279283896456767
0.5775070745471526
-0.5775070745480002
-0.2897360653208247
-0.5864417821460403
-0.2955837564200171
-0.5864417819183452
-0.5944169928854975
-0.8385119020009834
0.1699934342374617
-0.5862367974426906
0.8211072897159919
-0.003295142941645738
0.1182369979532063
0.4827244682120005
0.09673904809242359
0.1857926354004832
-0.03645594336328745
-0.1493366927139481
-0.02051254581807195
0.5935220544328476
-0.9459487680348708
0.4284267437994597
-0.004393916993922687
0.003575417389932934
0.0008184997348991999
-0.6435116335081101
-0.1317252678778524
-0.4680577300371963
0.6019771004819732
-0.5036656393394464
-0.3272233526362114
-0.2628698060167159
-0.2710597430808956
-0.1118016330934669
0.1118016324471895
0.152535061507167
0.0593263867449202
0.1968344388369062
0.4549337387904437
-0.5729159813751167
0.1048582567778657
0.2431752770633848
0.4663867891659393
0.5336132102889811
0.6415183153850231
0.08799136574542595
-0.006373429287118178
-0.08161793621240092
-0.2769478795706053
-0.5406489473739785
-0.551747866528022
0.1144109045009915
-0.1263281531883304
0.01191724828672013
-0.1056158687451866
-0.3857541360028733
-0.04647370078460025
0.6495389883000043
-0.4987270256197932
-0.1447846079061631
-0.3378427740466404
0.2913050472639203
0.1249707964377286
-0.6124759062936642
-0.2043271498078337
-0.2622555543367748
0.002676949367462992
-0.4222279327730748
0.323449175874463
0.09877875673234214
-0.09540321280917367
0.2916634604299041
-0.8959388379523018
-0.4578170490866895
0.6290264462978162
-0.7730686787459143
0.6682555188226073
0.341238407563947
-0.1246704548610679
0.2246074584220019
-0.0999370029282914
0.02434708228257721
-0.5862955090204578
0.02912162017652781
0.5571738890320604
-0.9006761426603096
0.5473260319771321
-0.6657421823536328
-0.1004715826690103
0.1097278624002022
-0.109727860269799
-0.3165247189816816
0.3621892386039235
0.01443010312205668
0.03135358558069011
0.05663780715831736
0.505266624716826
0.6622192409797887
-0.7381433657522931
0.03278833483269852
0.02284547859231094
-0.001755470638812911
-0.007257031811312417
0.007257031068820057
-0.4165449460273809
0.5359935153689431
0.01545262820805459
-0.01545262829725597
-0.7923052881570116
-0.06106217172864173
0.122868211886678
-0.4570970685522811
0.5619553294821874
0.4520014018254888
-0.4991680245903725
0.1500648655155042
-0.1500648642642108
0.03202779933745404
-0.002230714865820743
-0.04224014496172775
-0.9759728543795689
0.5389500958158256
-0.4685944533396955
0.04212069395612168
0.5146560998627315
0.03100781151940448
-0.5456639112406914
-0.6161819328153344
0.1174549069781674
-0.3293717860576301
0.01344813007102165
0.3159236567778169
-0.1552120133830526
-0.07918448230128555
-0.5408943582830444
-0.04540115259939483
0.1366825969438716
-0.04013863058901797
0.03836444762403411
0.08076835309704368
-0.08076835533151132
-0.5338301880972306
0.488362998139609
-0.4146155909843235
0.1613307139151774
0.6222792696953463
-0.09760213290862911
-0.003328377381669787
0.003328376999834677
0.5329414049734292
-0.07998634368736274
0.00580113462634989
0.02695473475046868
0.03486364994859118
0.6844976577475171
-0.7644840013747883
-0.6533735296145373
0.636251846197578
-0.1064052295620706
0.3132998880761864
0.746037683487789
-0.01942081529149164
-0.2668572031395289
0.1503402213355325
-0.7446355411086805
0.4842251148755289
-0.4258747856691297
-0.1015258330212615
0.003441545566546376
-0.01428545534886248
0.02039431685772198
0.4109026043095137
-0.1215777616215809
-0.3895343879681589
0.6287899289741302
0.01955364791741087
0.01054494937209366
-0.01054494928455213
-0.3529589472640132
-0.078896448897726
-0.560441672390269
0.5571465295607554
-0.2379958972836946
0.464760232871901
-0.1511818382081208
0.7296908992165959
0.6719036411095394
-0.04013863088283248
-0.6166165595415444
0.5630994347756553
0.2885990795183389
-0.2853812085925523
-0.003217871438483226
0.5408486312442558
0.09339045963948014
-0.0390430599685089
0.1963336433544507
-0.157290583732067
0.1198114128358767
-0.119811415029277
-0.8587270893243019
0.002340461269214148
-0.1134915559754977
0.1404462916945692
-0.1317883701912046
0.1317883692781323
0.02284547429287984
-0.02274917752722333
0.6701855709785892
0.05962891479165208
-0.3228762172470261
-0.06287791888776519
-0.4712244916194809
-0.04924369453738214
-0.1514780270937783
0.1514780257993327
-0.04959013514393601
0.1434556991612582
-0.1434556980353879
0.136327963595059
-0.1363279653052063
-0.3158422349888756
-0.1146761999317454
0.2263136778138544
0.1030260238585098
0.03483617233082023
-0.8211230181066437
-0.1982406203259892
0.1701364300550984
0.02115553952612228
-0.2649068380690192
0.1259541130509942
-0.1259541120627322
-0.4141542413522483
-0.08482501910431328
0.2361722957610037
0.002461865345961202
0.04062971832251699
-0.543513270197167
0.5783338393669087
-0.03216466226821318
-0.01742547342374854
-0.02779813221500026
0.02556743406648067
0.006609184336683651
-0.1845385296809456
0.1779293453856192
-0.1085935251942998
-0.2276234959890695
-0.144606396857264
0.1446063956844165
0.07276304062565001
-0.07276304120183522
-0.01925741794022792
-0.1086061807734552
0.1278635993625758
0.2404592666325678
-0.1830702453002403
-0.02881648921260564
0.02706102407164814
-0.1368360116978303
0.6251990070849794
-0.03903859197785879
0.425119313785319
-0.0432811704316298
0.06400790034633082
-0.1531908435219951
0.1531908419775461
-0.6366205642760736
0.3085585055100996
-0.07937234633085245
-0.2343962346226143
0.003565167519515758
-0.1210607121066494
0.1616904297381863
0.1957502538285239
0.09647112367248331
0.09674305077949216
-0.06187940088774188
0.07280657448474159
0.0416043296102345
0.0639921127446663
0.1061443146248344
-0.09689395933872424
0.2106034832593259
0.01231913044605206
-0.1171653307551909
-0.1001178803789484
0.09709008885626717
0.003027792780180778
0.01230052783358269
-0.02372752024079374
0.03768459917219455
-0.03768459926189836
0.07527293194804197
-0.05500676608395685
0.05500676581519132
-0.2244845341731563
-0.05315743047825841
0.01150997314988245
-0.1030581131775208
0.01651655069624498
0.1085283515304533
-0.108528350893928
0.2945290154994705
-0.2713164872749861
0.1627229681544185
-0.05100927414222848
-0.2203072119252452
-0.01730442234789487
0.01730442270555701
0.3674997213005005
0.285225570917642
-0.5277798534005734
-0.09397718436894145
-0.03235097126425606
0.5288304413026559
0.2126611477915621
-0.1703860810298976
-0.3799384974322302
0.07647174859486426
-0.1475517211482678
0.187088474669943
-0.03953675385961556
-0.06692400216591678
0.06692400260696402
0.822509432084387
-0.5605880740322066
-0.005978225137631191
0.01827875284631074
-0.01998673805841744
-0.2869943119280264
-0.01750157929477134
-0.01281803399290618
-0.1319619764093511
-0.5721345689599239
0.5560495096955084
-0.569436469618258
-0.00687163111840634
0.1028090765252371
-0.001712816553757331
0.01686287621546553
-0.1675384607100572
-0.3363581034567328
0.233299990431801
-0.05433584846534974
0.03507843155157769
0.1318386597623021
0.1733940380310365
0.3384453431413629
0.2763317189148245
-0.2780445349100197
-0.06175343161504507
-0.1551556520942245
-0.2209480997950517
0.07471602626359515
-0.0107239158579278
0.2138222604070844
-0.1969593837755645
-0.08629583796365607
0.1591024070623931
-0.3553304357202858
0.2082998603619729
-0.1917833096854962
0.08957623689537696
-0.4791106271962894
0.174270435733289
0.1702412251255333
-0.2565370525982509
0.07301553714185863
-0.1945751886986899
0.1770736090474823
0.01742576490440663
0.1416766443012392
-0.0395541486154006
0.06590259170991604
0.4670388128771498
0.02038017777012056
-0.08114148889761892
0.05422138277258782
0.1261608408936055
-0.260484854981504
-0.2308883578115754
0.5597339868128735
0.1574588427654893
0.07871345116762953
0.07510427501278323
-0.030933112796425
-0.01171737127296435
0.008499498912773479
-0.03275705102566698
0.1709639873978392
-0.177835618102303
-0.06074716960589666
0.02108280016391366
-0.1469962288035108
-0.05289853074431727
0.1498563293606233
0.2770635743124892
-0.03870008992698894
0.0138500607481801
-0.2556728746427108
-0.1323419187960315
0.2359687768757339
0.1787065018525553
0.1298520073318912
0.02203895842628995
0.08882501074836936
0.05233405776425031
0.4529325669417839
0.01534691232429482
0.09746892076202024
0.04348096049877125
0.07190511591523673
-0.1153860775650243
-0.2425542848833044
-0.2007454554001467
-0.01956175286626774
-0.2020470556207278
0.275234632507986
)
;

boundaryField
{
    FrontBack
    {
        type            empty;
    }
    Top
    {
        type            calculated;
        value           uniform 0;
    }
    In
    {
        type            calculated;
        value           uniform -1;
    }
    Bottom
    {
        type            calculated;
        value           uniform 0;
    }
    Out
    {
        type            calculated;
        value           nonuniform List<scalar> 10(1.033697807776968 1.064178801706165 1.022057463114596 1.019675945957149 0.9956359995489786 1.016402305146033 1.036251832214382 1.062831887290372 0.8672431358588314 0.8820255385427785);
    }
    circle
    {
        type            calculated;
        value           uniform 0;
    }
}


// ************************************************************************* //
