/*--------------------------------*- C++ -*----------------------------------*\
| =========                 |                                                 |
| \\      /  F ield         | OpenFOAM: The Open Source CFD Toolbox           |
|  \\    /   O peration     | Version:  2412                                  |
|   \\  /    A nd           | Website:  www.openfoam.com                      |
|    \\/     M anipulation  |                                                 |
\*---------------------------------------------------------------------------*/
FoamFile
{
    version     2.0;
    format      ascii;
    arch        "LSB;label=32;scalar=64";
    class       volVectorField;
    location    "1843.5";
    object      U;
}
// * * * * * * * * * * * * * * * * * * * * * * * * * * * * * * * * * * * * * //

dimensions      [0 1 -1 0 0 0 0];

internalField   nonuniform List<vector> 
808
(
(0.7562514576771725 -0.01750766965683656 0)
(1.031228309947756 -0.01251577033668685 0)
(1.116249898960074 -0.001606080346492382 -1.813888124123223e-20)
(1.085123050139777 0.01259572519506407 0)
(1.363120682482521 0.01645669686929881 -3.913572415780361e-19)
(1.038650872551921 -0.009326877891226293 -7.145329255094002e-20)
(1.01351425929182 -0.02046950948652735 -2.316854502812874e-20)
(1.078526482400564 -0.004929267144516109 8.941709808182472e-21)
(1.253233676048323 -0.01913655043886098 6.369976089746872e-20)
(1.084368927782494 0.009775891060357754 0)
(1.013844205256536 -0.01033594856410558 0)
(1.305135068720117 -0.05193649282986037 -3.562261819697359e-19)
(1.085921248104826 -0.001604861317388707 2.029984044111686e-20)
(0.6750410303100961 0.00642026007271684 0)
(1.28606007272343 -0.1174563267925187 0)
(1.081570393759119 0.0001863019084653021 -3.805557106660329e-20)
(1.233946694457537 -0.1497816756306109 -1.002554750632937e-19)
(1.07414967444303 2.539873645962294e-05 3.154396483099959e-20)
(0.9930149174194606 0.006282798172853099 0)
(1.026589655022124 0.009160030929300329 0)
(1.040999994645418 -0.01227073309760426 0)
(0.9874600080667989 0.04456505076529719 0)
(1.051102284485586 -0.006085295009035718 5.515709768570179e-20)
(1.05335839000219 0.008704537672092817 0)
(0.9329489908697064 0.1980472781488725 4.609332617203858e-19)
(1.166630282608264 -0.08872408156400603 0)
(1.185032668054353 -0.01813798485810026 1.589980917437499e-19)
(1.077360832776668 0.009389911306129213 5.194132630697033e-20)
(1.084189394816943 0.002054595385940169 5.048293041625109e-21)
(1.072055010016346 0.03094970089215807 0)
(1.075646504104953 0.002543386228777277 -1.172431890189983e-20)
(1.033114678273811 0.006399496774755454 -1.963867227758936e-19)
(1.059825971454719 0.01488061696594387 -2.401493202574643e-20)
(1.089107705638838 0.005198354554024259 -2.926143327116714e-20)
(1.119390843599198 0.03806368819291397 0)
(0.7551562179840752 -0.1225434996373931 -4.536443959675931e-19)
(0.9544156281092349 -0.005801660588354527 0)
(1.069001336644583 0.0224775174661227 0)
(1.068843053259116 0.007335949579332578 0)
(1.073590749029635 0.008904175517775401 -2.835497048845084e-20)
(1.091901646026726 0.02356244408196547 1.115760000062709e-19)
(1.149844512392691 0.003680550096195937 2.187156862006687e-19)
(1.095760853397497 -0.002462383890588191 0)
(1.015954520062275 -0.009062034854267731 0)
(1.131681168983759 -0.09854513689887857 -1.658599917886527e-19)
(1.044087209258642 -0.01169074706379647 -7.92034224691642e-20)
(1.058403833981159 0.0266595493616093 -2.847061008056788e-20)
(1.230671609711956 -0.1113399960831585 -5.635915451714075e-20)
(1.067780411189761 0.0122826174494508 -4.265089769004922e-20)
(1.256170671617308 0.01851600745933287 0)
(0.9965343651072346 -0.01808208690326312 2.064322931791758e-21)
(1.044529412286008 -0.002160266011234172 0)
(1.087481521130933 -0.002309670668824056 0)
(0.9981014852735516 0.006740258116234495 -1.866654614961633e-20)
(1.251676867394103 0.03467259967144982 -2.316678269033569e-19)
(1.063867496495301 0.01839238338627258 6.15275701976535e-20)
(0.9898315576057864 0.008330790885737283 0)
(1.019543528989078 -0.01087272297209348 2.384374991952138e-20)
(1.106796061399685 -0.0004753562105736919 -1.201605045684e-19)
(1.06166081217723 0.03107559982079857 0)
(-0.06736933908584912 -0.009524664411637561 6.985973096848661e-20)
(1.154498990734203 -0.05132289673402469 -1.921369464896977e-19)
(1.004199645806132 -0.008737379170972687 -2.620768135272713e-20)
(1.18297557623156 0.0679863791156398 -1.229526893098619e-19)
(0.9983034830849782 -0.0102021997889173 2.983752537434655e-20)
(1.083960934347056 -0.005555023787570139 0)
(1.243058477073408 0.09816025737610796 0)
(0.6960207119957815 0.003201791900296219 -7.503653985737454e-20)
(0.9901789310921262 -0.01454369646003214 -3.108294676912376e-20)
(1.460053595703377 -0.01655890002984119 4.506807792461934e-19)
(1.06060681854548 0.007559747579915831 -6.816687879815416e-20)
(1.36699647427422 0.09931493969296525 2.932644083489959e-19)
(1.05472650382692 0.006817013607660779 -1.849819880565489e-22)
(1.08125633001214 -0.01401933808681783 -5.346772898989484e-22)
(1.164476680106291 -0.2356234723500845 0)
(1.022264248990561 -0.01430278629348971 0)
(1.017666562678257 0.01750579734204022 -3.146589948477234e-20)
(1.386474077483407 0.3497511149701468 4.1520883621358e-19)
(1.096958252450178 -0.04204455743069978 9.283412849947259e-20)
(1.045649046515951 0.2099104556815537 2.541975629780473e-19)
(1.125577821039975 -0.06253517624922939 1.149968437699404e-19)
(0.9221177002328509 0.005151825470633051 0)
(0.975518551104411 0.01857105437555624 0)
(1.004111723023556 -0.04892074033990942 2.671664355714958e-21)
(1.010820811739148 -0.01298983187800408 7.390629140376895e-21)
(1.030488826273931 0.02571760524270245 1.405113729166336e-20)
(1.529365131792988 0.03775383297355672 3.285342054066095e-19)
(1.289928532547438 0.07209456245145816 5.469074286379615e-19)
(1.072542842680153 0.002911603260563046 -9.266771805797028e-20)
(1.200391001515127 -0.09565996918739922 0)
(1.033779595021643 0.001612820227280422 1.35008945706415e-19)
(1.163537185515427 0.02235396003159312 -3.234094491564136e-19)
(1.001452439834346 0.03231488503550153 0)
(0.999628363089871 0.00201124738927911 0)
(1.044381949445965 -0.0002380376699813325 7.684057555130552e-20)
(1.20790618747157 0.1064781393317796 4.068260271047217e-19)
(1.011067651331408 0.006964871822588255 0)
(1.090425591602191 -0.07172210751791475 -1.053741945785496e-19)
(1.149044494682103 0.03721221783829839 0)
(1.208897564472538 0.09500447101445576 -1.925160383490028e-19)
(1.108024190107085 -0.02852514579968826 -7.609571007416857e-20)
(1.02770114348342 0.01152940949331448 0)
(1.085333455331843 -0.004682002563719269 0)
(1.019682388495264 0.02547708913345946 8.16832975575792e-20)
(1.073306357937132 0.0532144602475983 -9.245165420971578e-21)
(1.103741474984227 -0.00430638677438888 6.207234285664035e-20)
(1.108893062851428 -0.09753293101090763 1.542893100354774e-19)
(0.9595909653394451 -0.0009204140576699115 0)
(1.066500373831962 0.03129221513062013 3.871459715072494e-20)
(1.168497412365264 -0.07576576131869225 2.348061339555771e-19)
(1.05281701290092 0.04454488973109307 -2.924057822237615e-20)
(1.022580464474179 0.06736341629378657 3.75250515269332e-20)
(1.090676131045125 0.02618364563627262 0)
(1.012351385617283 0.01745544911585026 0)
(1.02898398137098 0.009444747221872713 7.924104954348682e-20)
(0.9487287383120125 -0.03334998261866678 0)
(1.053181810382144 -0.005704687419506946 -7.938656975777083e-21)
(1.341137318278538 0.06074055942272949 -1.597554061720455e-19)
(1.079991376711032 -0.01330499568263078 2.571008851507292e-20)
(0.7440964861264978 -0.001780804073709995 0)
(0.5341206296963653 0.1558384532664803 -8.158987178576481e-20)
(0.7059249130786961 -0.00254079948159192 0)
(0.6990885857129616 0.01466451184245863 0)
(1.077732366439875 0.003522993549607503 -6.81460277913203e-22)
(0.9906328311901822 0.01449137754286384 0)
(1.279169689193184 0.1233088933686939 2.473120610282499e-19)
(1.012331246769783 -0.02788392003329326 -7.924680190673135e-21)
(1.040763197648811 0.02214892024956139 1.50742137422775e-21)
(1.058456972150342 -0.01190744320234065 0)
(1.12648580352457 -0.009220471790959766 -4.947648266793539e-20)
(1.255991702642783 0.1363876000166016 -2.198041805100453e-19)
(1.089035672309925 -0.0112000664314767 -8.477406399475527e-20)
(1.069882431946696 0.02560876891494951 -1.106074814878089e-19)
(1.040797835872741 0.04671544368876549 6.842165419279613e-20)
(1.022341761517789 -0.003654388761843088 -3.441002593679396e-20)
(1.061309994214384 0.02353131976115565 6.114756434107455e-21)
(1.130629303999834 -0.00601417860873398 1.079863728663287e-20)
(1.041050522039501 -0.01420473617887613 -4.719233576930648e-22)
(1.087770881500939 0.03482234874141777 0)
(1.028439172003853 0.01327973069863468 0)
(0.7753041013010475 -0.05858268091632764 -1.839973307616029e-19)
(1.030167635789053 -0.001905451291272293 -6.944325915662427e-20)
(1.134980208361211 -0.003034660067026659 -1.315865191945035e-20)
(0.7035086935401582 0.006568054887228446 7.433630116643459e-20)
(1.175602811322233 0.02032632108096778 -1.906818097942192e-19)
(1.126523715915816 -0.001165719123582602 5.647875711518949e-21)
(1.129001968469425 -0.01006142258142265 3.483769118488406e-20)
(1.000941620185983 -0.002957098820306644 -7.643540113186916e-20)
(1.095600015983641 -0.06774362472299894 0)
(0.9846013125616935 -0.0008946525086425645 0)
(1.058005075385377 0.007086904620336327 0)
(1.005519796774598 0.1884055440180048 -2.476886214746705e-19)
(0.7794462675642786 0.01240656849433963 0)
(0.8568671498665654 0.1014137054286517 -8.456098162520123e-20)
(0.08370963903255138 0.04213654858945391 -3.0704454652033e-19)
(1.173494117893881 -0.03031264998795776 -2.220326844834301e-20)
(0.6713119296437079 -0.00732941675387648 2.432923604672873e-20)
(1.168957042645891 -0.1054489625213338 6.973714438296616e-20)
(1.12523563392097 -0.005834957389123411 -6.09133360432464e-21)
(1.156075391452034 -0.04906893661734325 2.157624277666995e-20)
(0.09979068323480653 -0.2076934336305817 0)
(0.2643821723398669 0.08812713323788306 0)
(1.252349259309575 0.1127053200465594 1.929504276378789e-19)
(1.021537294660307 0.0198345064806722 0)
(0.7376872063038149 -0.006330514412883416 0)
(1.075234753121853 -0.01193210898043015 2.690929789092927e-20)
(0.9751411807614007 0.002788830357448621 0)
(1.286915576651555 0.1310218580561869 -1.545366626400374e-19)
(1.057475678534818 0.01126973253101866 0)
(0.9932611254089577 -0.008087722373174329 0)
(1.065160585169284 0.008089074328706328 0)
(1.00617646173331 0.02081814507686423 1.759388708408047e-20)
(0.926334267007202 0.009700867226814822 1.092029895779768e-20)
(1.176714808799881 -0.199330317398228 0)
(1.005119117999472 -0.00521417591970696 7.757324840262252e-20)
(1.059170905229709 0.006262929945618062 0)
(0.7746313806280171 -0.003326568081502001 0)
(1.215719150770819 0.02904336517924162 1.672400121292168e-20)
(0.7050508111652757 0.00131805360760227 0)
(1.434873574687499 0.09019893115419954 -5.342037679776538e-20)
(0.993863615769184 -0.006886886098501138 1.689407977729482e-20)
(1.274962324714917 -0.001094291237977431 -2.920080999301467e-19)
(1.059843683327996 0.008754326310557869 1.394413346841167e-19)
(1.000901043374423 -0.0136133478511262 0)
(1.218723748559608 -0.1517874252340612 2.034320930150871e-19)
(0.7331872484848888 0.01379276919317283 0)
(1.098184074740403 -0.005159037569764615 0)
(1.151314510085568 0.06672104958049603 2.032855343515554e-20)
(1.006974242557242 -0.007264064564309673 -3.019528989056888e-20)
(1.119839351669182 0.05092218629123778 -1.757465825393846e-19)
(0.1252451428584924 -0.08262300704314375 0)
(1.07239361030135 0.03720675082140176 0)
(0.661588208476811 -0.002924032999855298 -6.860282131577832e-22)
(1.012120485302968 -0.01954007704474423 9.730267467990356e-20)
(1.061680903131627 0.0006610243759099723 0)
(1.083356755183825 -0.1273949688128885 3.74703491150094e-19)
(1.002634688852817 -0.006215511405558216 -3.485265591889536e-21)
(1.001960843931651 -0.005088900525077937 9.894757894433994e-22)
(1.093952620954075 -0.009304496672832627 0)
(1.020707858537829 0.02042250005201954 -6.256702789276589e-20)
(1.106702213856827 -0.001653583193241272 6.685667299005659e-22)
(1.073891532094821 -0.01117769525537782 6.543227026160407e-20)
(1.085809175970126 0.02238936153100638 0)
(1.329868242109517 0.1663853997913163 0)
(1.00201437160161 0.0001624821553482085 4.416265255329699e-20)
(1.323397925471854 -0.1251705712119807 1.538679297263569e-19)
(0.04881209414399225 -0.1726721867331328 -2.560838318928175e-19)
(1.071344375167434 -0.005578468403889748 0)
(1.118035692766455 0.001635347858005857 1.229283285323677e-20)
(0.7269596620037378 0.01787420012598171 0)
(1.062866070752997 0.002441031956756542 0)
(0.8712521511170772 0.1672405500247507 4.792262575181457e-19)
(1.268490866518743 0.1272948607220043 1.852282592632435e-19)
(0.654251783971578 -0.003110563953758949 -6.281218924140155e-20)
(1.042422034997528 -0.005467214588081818 -5.617430520804244e-21)
(1.05487621913438 -0.0002910785751154863 6.642742836683589e-20)
(1.361256719787724 0.1258451971399219 6.815490780014921e-19)
(1.335329924751225 0.2529142700762674 0)
(1.059444689170232 0.0009159575845798951 0)
(0.9967718754573803 -0.007506111658500266 1.527519391498924e-20)
(0.9943386933595776 -0.01183405293847785 4.029984814572508e-21)
(1.383241937669884 0.200615890705261 4.2413250279363e-19)
(0.6816594032105673 0.0006176006075111454 9.828755165589577e-20)
(1.005592328439247 -0.002034087716248553 -5.961599551562559e-20)
(1.098048079213049 0.01301122308815428 2.539361498061883e-20)
(0.66947228826746 0.005014921363641688 0)
(1.066087046030616 -0.01201935016518874 0)
(0.9933916800863248 0.137283976005593 -1.189628772745923e-19)
(1.085262974710846 -0.004682975635485882 -2.436301063414252e-20)
(0.9820877428029839 -3.140616548872748e-05 3.278791398009136e-20)
(0.9912102165543335 0.006027607163792134 0)
(0.6383139217256563 -0.001133969366546713 0)
(0.9768870690641082 -0.001223176345269356 0)
(0.6420717568320882 -0.00150242058382679 2.715404441819628e-21)
(1.089641094611524 -0.05746585491627772 1.198803100797142e-19)
(1.11276911921272 -0.0002915454510843328 1.244145236429537e-21)
(0.9580037582018277 -0.0009265332934413619 3.916052308789979e-20)
(1.01561524654435 0.01047084443146864 1.664823103912041e-20)
(1.065166431666321 0.004215747154865524 -2.281207361902904e-21)
(0.6347417288854741 0.008854080256120925 -3.64914986835198e-20)
(1.001777606860084 0.01048083034365607 -9.040635293184204e-22)
(1.035117957655083 0.01125590808100742 5.06986516747481e-21)
(0.9881554590732485 -0.01105338096140407 0)
(0.6100510434110089 -0.0004939341966652865 0)
(1.068647527376005 0.02274750037910814 0)
(1.016494621544585 -0.01548140532900679 1.059000862861649e-20)
(1.022455420413864 -0.005230433662137788 0)
(0.9914293569081053 0.01493391582593053 -9.382698543211604e-21)
(1.01215057766086 0.004140631075637538 0)
(1.126944812167803 -0.005505649110230879 -1.19803061119857e-20)
(0.0383175218772434 -0.1401389286470398 -4.475115990503269e-20)
(1.036633608544109 -0.01614225577247997 -7.463439359176778e-22)
(1.043955443719115 0.006256309735625593 0)
(1.084509943468293 0.06448892912160915 8.408862107998287e-20)
(0.9696385270165493 -0.001821349846180407 3.11638517296366e-20)
(1.02068990114794 0.01707376553081252 -2.373301898906127e-20)
(1.002932301636076 0.001540534595350523 2.494260184786938e-20)
(1.040951812087986 -0.00491673191847795 0)
(0.6409377137620955 -0.00399520019229381 0)
(1.025857313782699 0.02451494755997179 -7.271652405628477e-20)
(1.079548683407976 0.0009735562888506338 4.789915739763784e-20)
(1.015959941714986 0.002281050952132861 0)
(0.980106783726778 -0.003114208735915142 -1.925930839199192e-21)
(0.875541798013083 0.0246403411933023 -1.288238054245496e-20)
(1.014000073486871 0.002901660572982777 -1.023039311271623e-20)
(1.027422760325833 0.002356512351034127 1.787521530052449e-20)
(0.9801239730695167 0.002156326022158644 0)
(1.002681125430133 0.009477227140785237 3.501043075586202e-20)
(1.106572682026005 -0.003610733325868445 0)
(0.9254737746576542 -0.001340501516920574 -3.359246745838288e-20)
(0.9608359318943664 0.008114156940796593 0)
(0.9160726042854307 0.211719652464085 5.211356991900741e-20)
(1.010825332748697 0.06693822634280867 0)
(0.9927288602004056 0.003756749975589876 -2.299042755804215e-20)
(1.054308486303614 -0.05383768424537644 -2.828465287058416e-20)
(0.9910425828133529 -0.0007006448573851129 3.426828230809939e-20)
(1.012083410422172 0.002953271948115041 0)
(0.978356405293202 -0.0006713055796357613 -3.198872524384763e-20)
(1.16905248126598 0.09841108285438381 -3.348218411877722e-19)
(1.069225844590015 -0.2644026760799008 0)
(0.9936588183638191 0.001987254969461748 -2.200689091606458e-20)
(0.9817925269539287 0.007504737491337185 5.043786854971115e-21)
(0.9617582189884083 0.004693453292806291 1.036452061441431e-21)
(0.7459581829573382 -0.001082851007456108 0)
(1.117160377756907 -0.08156432015315555 0)
(1.007101201746444 0.003501574419982502 -2.159145942933752e-20)
(0.8985722186825728 0.001815616306198259 -9.929645343068028e-21)
(0.8557192398213836 0.01904225953788566 4.799740396762407e-21)
(1.012079175694677 0.003798936114532263 0)
(0.9488503013350814 0.003125070434721755 1.522139887629065e-20)
(1.005742460715733 -0.0002579267237690497 -2.310733974562281e-20)
(1.020543454470825 0.00110446364798505 -2.579884656196571e-20)
(1.112150915696548 -0.00355435113596941 -4.921814740992381e-21)
(1.117328113409292 -0.0003068923557101306 0)
(1.013992387442859 -0.005623308813323367 0)
(1.022376432122268 0.00332712806349385 0)
(0.9473626710661911 0.003645961627955309 -2.171421419679252e-20)
(1.017874287036232 0.0134153542774344 5.330975812089805e-20)
(1.079208391836016 0.00520888180253789 -2.210031763352895e-20)
(1.038597343505839 0.001358458517598522 0)
(1.105830158865279 -0.006683032287312768 1.825963570748647e-21)
(0.9961621467602635 0.002446738914204085 -2.205539854133232e-20)
(0.9858110359364384 0.006752880494015766 0)
(1.012044146840423 0.002672751080510391 4.66637014762897e-20)
(1.366460062667389 -0.3142035474254841 -1.132716495763572e-18)
(1.122812266475328 -0.04460688471947993 -1.082952175797007e-19)
(0.9691236449677818 0.004158523364323688 4.842921980143802e-20)
(0.7805505094504057 0.01800685594400649 -3.178273081605535e-20)
(1.220437084833611 0.05290372684046586 0)
(1.222632771750541 -0.136371353806729 -1.465389093438791e-19)
(1.07856243392798 0.006609589153205249 0)
(1.008981318965026 0.001798554804567709 2.224611167431808e-20)
(-0.1609765904210137 -0.1018099441356206 0)
(0.9939688507530565 -0.004653794951568781 0)
(1.012440868729215 -0.02317534083497482 4.557540310869125e-20)
(0.7061349256219447 -0.01943845897957492 0)
(1.096800171019642 -0.01492053162913353 2.15842921515008e-21)
(1.043557275484037 -0.01014707089702346 1.688209650756282e-20)
(0.6331148691040205 0.004161226375808391 0)
(1.448272741920408 -0.122148419764107 0)
(0.9869139550180553 0.001503055245213582 -1.085420707277096e-20)
(1.069749962374295 -0.01495284072073972 0)
(1.038066115335877 0.0004439332154079678 2.164115840072073e-20)
(1.084800733200552 0.003696596694337913 0)
(1.008708688959828 0.00489048832983944 -1.062250157191778e-21)
(1.006035629311805 0.00296122023404655 0)
(1.014421506638707 -0.01483431177610254 6.287143427165015e-22)
(1.003242272785184 -0.02060884039487279 0)
(1.033678972641941 0.005968053085887087 1.755258814885293e-20)
(-0.1995632152027264 0.04012701318096979 2.64894732478156e-19)
(0.8155381064320782 0.03162335416673761 5.323561197716485e-20)
(1.005693969224102 0.002066146312000321 0)
(1.132258494151176 0.02440930892516733 -1.244877988700002e-20)
(1.120660426724568 0.02004361933410008 8.699936505247792e-21)
(1.0541588918385 -0.01312942616807181 -1.276075865200898e-19)
(0.9987854247762442 0.01035156125319101 1.235945492407176e-21)
(1.078825095832807 0.006710300837112733 0)
(1.185157084366763 0.05288922883696034 0)
(0.8353977198287116 -0.07571236458073395 4.591368605198548e-19)
(1.101802402914585 -0.01047082164454531 0)
(1.032496060118652 0.007538622135386788 -7.403517269222069e-21)
(1.04266377655842 0.005200338879034612 6.131740366627765e-21)
(1.052899408610055 -0.0618134001751308 -7.493207621546316e-21)
(1.140148973774157 -0.001190412590725791 1.665233761884564e-19)
(1.082047473109739 -0.007723746812078381 0)
(0.9950807478445011 0.001248829859829285 0)
(0.9961483499272313 -0.02429024881499282 -2.259027376959676e-21)
(0.9910571380909644 0.002560798160593621 0)
(1.029729682812836 -0.03868565385850818 6.356405294110213e-20)
(1.293996190556636 -0.09297063686359348 0)
(1.047387756071044 -0.01484825455917681 -9.478523038382386e-22)
(0.986153719229568 0.01693254340353513 -8.482458789108544e-20)
(1.034718587829342 0.04080803277094852 -2.423606615818337e-21)
(-0.08961248661086289 0.156513262904971 -1.627190715946232e-19)
(-0.06347710689441417 -0.2967590836705181 -1.402516249008241e-19)
(0.8732361019197944 0.1331357769825551 0)
(0.2953484878657857 -0.01037165631727567 -3.196303768536212e-19)
(1.010933040120136 -0.01296228258861481 -1.621892319184866e-20)
(1.063885497381625 0.002625175522549838 -2.119196865312588e-20)
(0.992658117116899 -0.01849260385264699 2.87759490456949e-20)
(1.021448497072712 -0.02822782032709538 2.49567006403497e-21)
(1.008610991172968 -0.03205981183842971 -6.527532548061063e-20)
(0.9887363182367975 0.004839841137422906 -3.467707641593335e-20)
(0.9930966400166967 0.004455427627733792 0)
(1.025195567710377 -0.001956977441010646 -3.585911686914221e-21)
(1.937444631878636 -0.1551905888624481 1.078178025708907e-18)
(1.049013133655895 -0.009351989350639779 0)
(0.9953351631578593 0.007840400833963718 1.550416219530103e-20)
(1.002815770611451 -0.0001223690910376767 4.085717441604232e-20)
(1.168708169769207 0.132440136110389 0)
(0.9995401329561835 -0.003608905183611287 2.120906167014769e-21)
(0.9489930197051321 -0.003349543374723527 0)
(1.037841180786228 0.04175654694283301 0)
(1.302186847367786 0.1659293064914543 2.30533496181451e-19)
(1.086144716314295 -0.01026672647647807 2.256765990371522e-20)
(1.018707277039291 0.03140139091998633 4.723356246865261e-20)
(1.086138356542782 -0.01094454662247233 -2.17809933479553e-20)
(1.048013643623843 -0.003994736786308598 -2.013191583668098e-21)
(-0.3840958466884666 -0.04292459293604357 0)
(0.9982436663250422 0.01445261044823448 0)
(0.1088110595525683 0.05913623361254779 -8.490678090660847e-20)
(1.006684481294376 0.02280790855700724 -4.172041303429651e-20)
(0.992614368925565 -0.00239570305259458 0)
(1.000659786380712 0.005875641932077621 -5.075579027210425e-21)
(1.081518752075367 -0.04220754165457652 0)
(0.9957802589700359 -0.01707680737056692 -7.685622218568827e-21)
(1.091446961280517 -0.05487849844522988 0)
(1.443063793971952 0.179572241627571 0)
(1.054189864862517 -0.01194415053868405 0)
(0.9905904449011173 -0.0225618466760299 -3.866561429863329e-20)
(0.9875420200051521 -0.04455435519537409 -2.239042382651938e-21)
(1.017606596493066 -0.01675734272804373 -1.683608021707648e-20)
(0.9975313219814631 0.01690234269186501 -5.686940592556947e-20)
(0.9950273373324198 0.01040168535107342 -1.510985227134389e-20)
(0.993569531790192 -0.02726796682773065 0)
(1.003230790751414 0.02526889504008567 1.974894441271683e-20)
(1.047622147667667 -0.04293739646060359 0)
(1.110939744337859 -0.03564137571507477 2.638320057906516e-19)
(0.9955569866587453 0.01735696768587041 4.690632760331575e-20)
(0.6151138569795251 -0.00866755567414354 0)
(1.135335534858215 0.134202366361814 -5.355588173364309e-21)
(0.856959644550264 -0.1048141672594214 0)
(1.138355604843848 0.07328417094315923 -2.67834456727138e-19)
(1.316029598555746 -0.3883658842821577 1.300430493893999e-19)
(1.074474137610794 0.06075067538704995 -1.322452751291089e-20)
(1.009450232115621 -0.0310664106997924 0)
(0.9557775652127176 -0.2155988850477572 0)
(0.4993889990778576 0.1409135050828685 0)
(1.013212206609714 0.009682163437050882 1.239623906218197e-21)
(0.6915040148286551 -0.02662924772616477 0)
(0.9987692356022542 0.01832235304373896 3.591583998115115e-20)
(1.021949235516921 -0.004164661526787329 -2.788325412816415e-20)
(1.079124512569076 -0.008092792498236221 2.814721849342226e-21)
(1.038665767613512 -0.008277481526305591 3.392865935370394e-20)
(1.042457598925289 0.01117407305111005 0)
(1.061635147457986 0.02979252739431068 -1.000037640221161e-20)
(1.050382282199388 0.03447202880089369 -1.835197779123346e-20)
(0.9825372305659584 -0.022165373344237 0)
(0.6249447444339541 0.00512427167601523 9.182478943533682e-20)
(0.894164661289236 -0.005869685212059774 -8.857591738287124e-20)
(0.9093726129978272 0.005338683578451693 1.44250560285403e-20)
(0.6295532982789719 -0.006382420185157753 1.404664335526711e-20)
(0.9782993116494075 0.001044863458651044 2.631444602641133e-20)
(1.004461824044973 -0.01753605727516009 -3.609637068118932e-20)
(0.9689486677837452 -0.02118526993761387 -3.646604358417956e-20)
(1.085488972326085 0.001524367380042221 0)
(1.01968647708358 0.004328309190794816 1.047929767747697e-20)
(1.132705919410349 0.04891510490222722 1.296281348372351e-19)
(1.033854179315653 0.04068890283295774 0)
(1.022205150598819 0.002562151736277159 0)
(1.58466007407692 -0.1665923746692345 4.422650408142061e-19)
(1.043840249781365 -0.03820529457452963 0)
(1.018096601000371 0.006491859261300333 -3.796486429719565e-20)
(1.088308257634182 -0.002457766764537893 0)
(0.4793236274861534 -0.03569881689373502 0)
(-0.02737832943203991 0.01941471678876362 0)
(0.9902184063486648 -0.02429713986851731 1.21135248100096e-20)
(1.301202357171512 -0.09494527326547017 3.77087270773841e-19)
(1.035919974023952 0.03758646578535731 0)
(1.022331694902522 0.003306794355292862 -2.260916929424759e-20)
(0.9627695131472451 -0.1638835026439843 3.304491368087269e-21)
(1.252990938304122 0.07849481256903161 0)
(0.5976716123398831 0.7302450266397954 0)
(1.312201009611993 0.1523954482216449 1.123942311113599e-19)
(1.678284274967745 -0.02430761189219398 0)
(1.057468822544988 0.1073806768428309 0)
(0.7128284679803338 -0.01817157640643775 2.628339074305794e-21)
(1.052955985392229 0.04576180203503986 0)
(0.7248702758212057 0.1091148362094776 1.159576156824745e-19)
(0.9967724406116619 -0.01651743091683961 3.568517637574881e-19)
(1.033575209492815 -0.04165858920363773 2.736439341081803e-20)
(-0.3782919716261019 -0.002910812244475976 0)
(1.071719749739245 -0.01641610609355558 0)
(1.095083533504129 -0.008824126795643787 0)
(0.6485048855319808 -0.5032457480808019 -2.473333443367171e-19)
(0.9915479947438165 -0.001453777121191372 0)
(1.091993247574565 -0.02144519838845865 3.825679114614806e-22)
(1.187786982521336 0.1215367155186646 -1.984246617632398e-19)
(1.088821547331115 -0.04310383812457349 0)
(1.005401266176498 -0.0214128966253181 0)
(0.8110928803526125 -0.1827013712079085 -1.712177141255708e-19)
(0.8938106089048784 -0.1292384163914083 1.564063316285599e-19)
(1.027345275096373 0.0121981236381363 -2.271126670535303e-20)
(1.02311054097345 -0.009116809248418749 -4.629942410545912e-20)
(0.8752984779502406 0.01212408503130437 -1.94297280328685e-22)
(1.505886961279468 -0.1929482289878411 0)
(1.30248848616543 0.1215336351884614 3.170620821405601e-20)
(1.245673644373721 -0.07497031378454691 -3.031591796751139e-21)
(1.095790486582934 -0.01848572370745229 -3.825273398015019e-20)
(1.041624203955781 -0.01169727790507926 2.406397058086369e-20)
(1.092827130593911 -0.03911410541177131 9.044378109519035e-20)
(1.032066915744235 0.01972530479122158 0)
(1.044227835340481 -0.03507066564908454 0)
(1.115916005884599 -0.008989500155329011 0)
(1.087522883409438 -0.02904373923801584 0)
(0.9978949633360922 0.01115040206783153 0)
(1.148095804261371 0.07707370905327214 9.514695546711516e-20)
(1.340830215063129 -0.1483746792167517 0)
(1.037202191482542 -0.02154842507269728 -1.832464060445056e-22)
(1.052956555170036 0.05085615386529287 0)
(1.010104240070223 0.01472570405741114 -3.993475388454422e-20)
(1.033852616219858 -0.007860505178793635 9.0396911129088e-21)
(1.088951081780833 0.0133925167788927 -3.277166398505407e-20)
(1.085331526567875 -0.02909869167673283 0)
(1.074580062861253 0.0005320637948577755 0)
(1.108522986391861 0.09495107287605478 -1.429250911658226e-18)
(0.9354638010693678 -0.1498204236472455 -7.061720298201358e-20)
(1.169488410009121 0.1062255178376772 1.105391755572837e-19)
(-0.4845947573782985 0.01204629033216221 -2.921741943773166e-19)
(1.0191145334725 0.02858788844234328 -8.91388610934467e-20)
(1.00411704783193 -0.001307264266995266 0)
(-0.2968472679764653 0.03732021403322804 3.558156847638849e-19)
(-0.05190019742031271 0.3080797758002377 7.722632633746704e-21)
(0.9952293691697868 -0.006288179664280059 9.89764671656665e-20)
(0.1912076380645794 -0.03953305315010567 1.440117779870528e-19)
(1.094277990216665 0.08074942899225936 1.504100123083176e-20)
(0.09413151239891274 -0.1097157054797561 -5.511807110347694e-20)
(1.107960340635418 0.003034636086574234 0)
(1.104229817015795 0.2593505375579509 0)
(1.021787703086843 0.02179688427909186 -1.745231918516142e-20)
(1.074430983521569 0.05466852799327603 0)
(1.02641685965054 0.0268375396803362 -9.64134601157635e-21)
(1.263480608632142 -0.5488683346984145 8.060476984313586e-19)
(-0.1042740953429633 -0.1964821727998158 2.220471613621979e-19)
(1.296612292385888 0.1185405717115093 -6.360775692476181e-19)
(1.122505617613556 -0.002839118925714478 0)
(1.128500446438996 0.09456584536150482 0)
(0.5295068464768338 0.08361399173047492 2.572858582165811e-19)
(1.023503652583656 -0.02096272704730196 9.268780483886359e-20)
(1.005908219928666 -0.02401213898785083 0)
(1.211141843431854 0.2710621420409097 -9.512041394534637e-20)
(1.259615875655183 0.1402339208242824 -1.61514446326852e-19)
(1.026644476077464 0.002995030928020553 1.523470629561641e-20)
(1.301380343270247 -0.08449295205364754 -5.03133398599399e-19)
(0.2924973687996111 -0.01327769505065277 2.590863796516953e-19)
(0.8254901494759914 -0.144787834185328 6.630470958575695e-19)
(1.052432050375755 0.05651151931834249 1.049845391462226e-19)
(1.040736593609387 -0.006337360770075344 1.732258918707759e-21)
(1.001508900770974 0.01997835544856814 3.011440184209722e-20)