/*--------------------------------*- C++ -*----------------------------------*\
| =========                 |                                                 |
| \\      /  F ield         | OpenFOAM: The Open Source CFD Toolbox           |
|  \\    /   O peration     | Version:  2412                                  |
|   \\  /    A nd           | Website:  www.openfoam.com                      |
|    \\/     M anipulation  |                                                 |
\*---------------------------------------------------------------------------*/
FoamFile
{
    version     2.0;
    format      ascii;
    arch        "LSB;label=32;scalar=64";
    class       volScalarField;
    location    "30.1";
    object      p;
}
// * * * * * * * * * * * * * * * * * * * * * * * * * * * * * * * * * * * * * //

dimensions      [0 2 -2 0 0 0 0];

internalField   nonuniform List<scalar> 
808
(
0.124716
0.0203194
0.00390756
0.124454
-0.214761
0.0209934
0.0147733
0.0254262
-0.109431
-0.0105422
0.0162041
-0.127393
0.0224274
0.0163354
-0.292565
0.0201653
-0.312523
0.0229386
0.0268481
0.0185448
0.0290925
0.386029
0.0740222
0.00525552
0.465082
-0.192846
-0.0480947
0.0102136
0.0271136
0.0195714
0.0216214
0.0280137
0.0213846
0.0197522
-0.0628546
0.63531
0.0176133
0.0244216
0.0221811
0.0154615
-0.0342385
-0.0489415
0.0370727
0.0209403
-0.219125
0.091111
0.0249449
0.0199095
0.0164731
-0.14635
0.018255
0.0259607
0.0462431
0.0152044
-0.0792577
0.0139258
0.00840847
0.0184242
-0.0079038
0.0124351
-0.315618
0.0123673
0.0326619
-0.142537
0.0207002
0.0475839
-0.228357
0.0186338
0.0241556
-0.26657
0.0223377
-0.30202
0.0210448
0.024906
0.193897
0.0205786
0.00395275
-0.063253
0.0137941
0.320865
-0.129976
0.0195261
0.0372062
0.281009
0.0259676
-0.0171734
-0.342532
-0.0988381
0.0336766
-0.211973
0.0469772
-0.086602
0.261231
0.162136
0.0411576
-0.176283
0.0139491
-0.144496
-0.08978
-0.172035
0.0182746
0.0111531
0.0460338
-0.0102556
-0.059249
0.0606697
-0.261117
0.0121402
0.0146012
0.0391782
-0.0546544
0.339347
0.0202957
0.0300437
0.0196797
0.459504
0.0207863
-0.251315
0.0221292
0.0633152
-0.234196
0.0384903
0.0182119
0.0645899
0.115476
-0.0438354
0.113961
0.0168401
0.0411516
0.0692884
-0.235613
0.0222173
-0.0304279
0.129716
0.0255759
0.0165839
0.0891514
0.0184469
0.0245058
0.0182413
-0.271437
0.0539611
0.0274541
0.0207818
-0.0256794
0.0959847
0.102252
0.16343
-0.0409962
0.0461175
0.0195369
0.351598
0.0367016
0.544683
-0.275703
-0.0988562
0.0202992
-0.24768
0.06311
-0.121954
-0.288593
-0.271443
-0.262949
0.0246142
0.0624929
0.0239449
0.0280954
-0.27257
0.0165157
0.0241678
0.0461525
0.163455
0.0910073
0.131079
0.0250227
0.0770282
0.0725528
-0.130381
0.0256108
-0.33009
0.0233471
-0.135221
0.0240626
0.270558
-0.358072
0.119798
0.0218284
-0.114527
0.0287353
-0.0746825
-0.26847
-0.0471541
0.0230717
0.0891475
0.0244812
-0.262037
0.0223098
0.024461
1.50264e-05
0.0835176
0.0725623
0.0231208
0.0224305
-0.308912
0.383276
-0.253594
-0.283148
0.00853943
-0.0145642
0.0204467
-0.00748295
-0.380325
-0.201673
0.0232408
-0.0257202
0.0217724
-0.310281
-0.0290915
-0.0215614
0.0363523
-0.00545359
-0.0780065
0.0284924
0.0273911
0.00689616
0.0243927
0.12801
-0.20864
0.0234207
0.0234001
0.120696
0.0234145
0.0247384
0.0189742
-0.11752
-0.0095998
0.00605423
-0.00192745
-0.0230154
0.0110611
-0.00451717
-0.00553396
-0.00564041
0.00298361
0.000112585
0.00486512
-0.00242281
-0.0012331
0.00254098
0.0939061
-0.294551
0.00954155
0.0321845
-0.0691739
0.0164877
0.00678103
0.0319414
0.00147968
0.0251035
0.130759
0.0566793
0.00657253
0.00862805
-0.0296062
0.0190704
0.0247571
0.0202772
0.0496508
0.0144574
0.0266261
-0.03286
-0.38099
0.282769
0.0286324
-0.0466386
0.015463
0.0188888
0.0165508
-0.136728
0.284866
0.0319468
-0.0334183
-0.018552
0.09209
-0.185386
0.0314493
0.0705812
0.0145433
0.030454
0.0773837
0.0259587
0.0351472
0.00348179
0.00155998
0.035613
0.0263866
-0.0122988
0.0603805
0.0702369
0.0482917
0.00555523
0.0283164
-0.0221463
0.019437
-0.479431
-0.100779
0.018021
-0.0735497
-0.148634
-0.370384
0.0738016
0.0271892
-0.28478
0.135109
0.164815
0.0219912
0.0248571
0.0414594
0.00542353
-0.203087
0.0435825
0.00239601
0.0296206
0.0378054
0.0210973
0.0360464
0.0152667
0.00581546
0.0383124
-0.270658
-0.153082
0.0190406
-0.105119
-0.0276611
0.0128883
0.238264
0.0662677
-0.12953
0.556213
-0.00777699
0.00756053
0.0296434
-0.0635947
-0.0458065
-0.00442965
0.0353054
0.0158014
0.0445065
-0.051396
-0.238498
0.00578225
0.10961
-0.041769
-0.265803
-0.287124
-0.228362
-0.284012
-0.0261867
0.0266234
0.031179
0.0324953
-0.0210436
0.0117752
0.0370318
0.00838326
-0.475313
-0.0442431
0.0335603
0.0147182
-0.0711887
-0.00955324
0.027783
0.119433
-0.320976
-0.000930049
-0.0382654
-0.00294134
0.0362411
-0.27239
0.0113054
-0.285968
-0.00196479
0.0343281
0.0171081
0.0150766
0.0237515
-0.0377972
-0.32404
0.00986225
0.0260911
0.00410507
0.052358
-0.000843873
0.0232984
0.00679985
-0.00948497
-0.012647
0.0462624
0.00397503
0.0214173
-0.11755
-0.202704
0.0692418
0.00710501
-0.0706649
-0.0121494
0.433852
-0.225046
-0.00346897
-0.0556771
0.0088694
0.030259
0.0274769
0.0909937
0.00368515
-0.0963067
-0.0423904
0.00805875
-0.00454046
-0.00665393
-0.010757
-0.0109777
0.0148597
0.122061
0.0564027
0.0118588
0.0177738
0.0267676
-0.0503991
0.0280648
-0.3512
0.0764093
0.0625224
-0.00454846
-0.222675
-0.267999
-0.0081368
-0.068329
-0.0709378
0.0307793
-0.305465
-0.201704
0.231036
-0.301988
-0.426359
-0.106846
-0.145365
-0.0833712
-0.201736
0.359885
-0.0100689
-0.280493
0.0115109
0.00909087
0.587412
0.0138142
0.023883
0.0530572
0.014539
-0.00645829
-0.396086
-0.265317
0.0506966
0.0707259
0.0703469
-0.240293
-0.283706
-0.225309
0.0213645
0.0448458
0.0959217
-0.0068403
0.00647923
0.0817593
0.0825464
0.023065
-0.123397
-0.270796
0.0544638
-0.0733513
0.0194628
0.00945794
0.0864713
-0.0512942
0.018441
-0.44121
0.46071
-0.136408
-0.272226
-0.0156451
-0.0115735
-0.272611
-0.266313
0.127931
-0.312424
-0.124839
0.87549
0.0163917
-0.339176
0.0071956
-0.117892
-0.0325798
-0.424974
-0.288824
-0.282218
0.0218193
-0.108876
-0.341957
-0.0115762
-0.0217344
0.110485
-0.294788
0.0324547
-0.473957
-0.298534
-0.356884
-0.178308
-0.0275713
0.00170186
0.10961
0.135594
-0.0313881
-0.268335
0.316127
0.0618666
0.0123174
-0.416525
-0.471811
-0.313219
-0.0289766
-0.32996
0.039622
0.111249
0.0935306
-0.111225
-0.206649
0.00640499
-0.278373
-0.268091
0.00373072
0.00237443
-0.310212
-0.00854912
0.0382533
-0.357832
-0.290035
-0.0586049
0.108336
0.0284575
-0.305275
-0.276116
-0.120348
-0.178174
0.0438421
0.105112
0.0105633
-0.172388
-0.268299
0.108032
0.0317055
-0.146708
0.0243988
0.0544026
-0.304034
0.00157078
-0.238255
0.0625701
-0.408775
0.0459215
-0.000692584
-0.335379
-0.426837
0.00329882
-0.441477
-0.435458
0.0342515
-0.065166
-0.269119
0.029384
-0.27061
0.0207097
0.0881212
0.0738266
-0.427157
0.0655392
0.0490957
-0.433858
0.011828
-0.28718
0.0218989
-0.284836
-0.483182
0.109348
0.282236
0.452129
-0.013832
0.00103599
-0.000801901
-0.32318
0.656198
0.0204356
-0.205155
0.0318672
-0.0438308
0.0901907
0.495451
-0.340304
-0.045028
-0.0428298
0.028359
0.0189997
-0.423019
-0.264204
-0.270996
-0.329748
-0.250272
0.00518599
-0.329386
-0.00328546
-0.247736
-0.299651
0.516991
0.597849
-0.294563
0.124912
-0.268701
-0.0105682
-0.188865
0.412051
-0.106724
-0.299835
-0.184686
-0.485608
-0.0211026
-0.180379
-0.0092291
-0.283432
-0.25108
0.000701573
0.00093812
-0.304891
0.464563
0.686339
-0.288736
-0.281285
-0.304461
-0.0614533
-0.276837
-0.272716
-0.186142
-0.300293
0.761578
-0.311443
0.760026
-0.389192
0.338986
-0.287019
0.00460203
0.186347
-0.47328
0.243942
-0.262079
-0.286555
-0.314826
0.881604
-0.268584
0.220216
0.158948
0.65733
0.134815
-0.360013
-0.25711
-0.0972671
0.00827992
0.0953074
0.540127
0.01147
-0.0183245
-0.271684
0.124581
-0.106899
-0.167881
0.0190261
-0.386333
-0.134299
-0.146605
-0.349946
0.00774626
0.114609
-0.00306308
0.0827816
0.118009
-0.303476
-0.342178
-0.0743
0.0154114
-0.44492
-0.488278
0.184071
0.205036
0.0994411
0.677655
-0.0654444
-0.406982
-0.365
-0.270755
-0.0457789
0.0939873
0.77359
-0.427455
0.390814
-0.00550217
-0.398783
0.164467
-0.0657598
0.397783
-0.147344
0.0181427
-0.31795
-0.0583973
0.212032
0.828527
0.344442
0.769393
-0.283039
-0.265843
-0.396372
0.177497
0.280502
0.0669591
0.391742
0.156201
0.50908
0.286487
-0.102989
-0.170887
0.035875
-0.369092
0.895738
0.421745
0.656752
0.524208
-0.253032
-0.287985
-0.27046
-0.275553
0.0524759
-0.38079
0.119035
0.607358
-0.315325
0.0127951
-0.274738
0.196156
-0.296967
-0.339598
-0.095772
-0.259531
-0.324649
-0.29075
-0.325602
-0.0679645
-0.39803
-0.114263
-0.371476
0.157592
0.671863
-0.203083
-0.305771
0.836565
-0.304803
0.298867
-0.216589
0.407481
0.0999379
-0.255906
-0.371792
0.45152
-0.255179
-0.302382
0.202482
-0.259921
-0.00871224
-0.272291
-0.106762
0.0100454
0.583037
0.792559
-0.272354
0.236811
-0.323523
0.83352
-0.00210576
-0.291023
-0.0125499
0.777668
0.218742
-0.298892
-0.268255
0.467572
-0.194351
0.0493951
0.360219
0.265966
0.306222
-0.233857
-0.31511
0.700553
)
;

boundaryField
{
    FrontBack
    {
        type            empty;
    }
    Top
    {
        type            zeroGradient;
    }
    In
    {
        type            zeroGradient;
    }
    Bottom
    {
        type            zeroGradient;
    }
    Out
    {
        type            fixedValue;
        value           uniform 0;
    }
    circle
    {
        type            zeroGradient;
    }
}


// ************************************************************************* //
