/*--------------------------------*- C++ -*----------------------------------*\
| =========                 |                                                 |
| \\      /  F ield         | OpenFOAM: The Open Source CFD Toolbox           |
|  \\    /   O peration     | Version:  2412                                  |
|   \\  /    A nd           | Website:  www.openfoam.com                      |
|    \\/     M anipulation  |                                                 |
\*---------------------------------------------------------------------------*/
FoamFile
{
    version     2.0;
    format      ascii;
    arch        "LSB;label=32;scalar=64";
    class       surfaceScalarField;
    location    "30.1";
    object      phi;
}
// * * * * * * * * * * * * * * * * * * * * * * * * * * * * * * * * * * * * * //

dimensions      [0 3 -1 0 0 0 0];

oriented        oriented;

internalField   nonuniform List<scalar> 
1171
(
-0.945691
0.945691
0.775448
-1.07909
0.303647
-0.200774
-0.829441
1.03022
0.0543087
-0.0688566
-0.274171
0.343027
-0.775448
0.0795686
0.695879
0.912714
-0.19722
-0.715494
0.830477
-1.04399
0.213516
-0.351153
-0.0393306
0.390483
-0.000622696
0.598183
-0.597561
-0.625932
1.04916
-0.423231
-0.420009
1.0029
-0.172419
0.252392
0.0961354
-0.348527
0.982192
0.020704
0.318603
-0.0662109
1.00813
-0.0259351
0.751361
-0.952135
-0.78637
0.614726
0.171644
0.240644
-0.866577
0.559418
-0.914994
0.355576
-1.0802
0.669516
0.410682
-0.642167
0.641544
0.0349343
-0.254953
0.220018
0.0236099
-0.650729
0.62712
0.4638
-0.503131
-0.846461
0.903272
-0.0568117
1.01045
-0.00232758
0.92693
-1.08453
0.157599
1.0347
-0.024246
-0.696383
-0.0899873
1.27121
-0.87105
-0.400162
0.18824
-0.0720436
-0.407764
0.479807
-0.274895
0.183553
0.0913422
-0.599696
-0.479399
0.98752
-0.0605898
-0.0238742
0.873095
-0.849221
0.502401
0.768811
0.52614
0.0223173
0.441483
-0.786158
-0.108767
0.894925
0.606166
0.241349
-0.847515
-0.00232883
0.658597
-0.656268
-0.509161
-0.571037
-0.389338
-0.695191
0.0245507
0.245941
-0.270492
-0.951896
-0.0361331
0.98803
0.36826
0.0222231
0.856666
0.0560483
-0.601735
-0.0404315
0.0395314
-0.825689
0.143345
0.957964
-1.10131
-0.408349
0.0274553
0.380893
-0.719367
-0.23253
-0.789387
0.932732
0.665733
0.38343
-0.575243
1.00344
-0.822301
-0.181136
-0.055551
-0.0344533
0.0900042
-0.455794
-0.0473371
-0.333237
0.998971
-0.00674222
0.425835
-0.419093
-0.522524
1.12869
0.7093
-0.818067
0.3787
-0.0618977
-0.316802
0.770401
-0.770401
-0.945755
0.042667
-0.316838
-0.696081
0.672206
-0.0365585
-0.144389
0.180947
0.882732
-0.00963605
1.0592
-0.817855
0.221317
-0.318491
0.0971737
0.972188
-0.115522
-0.674753
-0.0597589
0.734512
0.150928
-0.233179
0.0822517
0.805143
-1.00236
-0.444023
0.311065
0.132959
0.675996
-0.652386
0.88567
-0.401662
-0.484009
0.496332
-0.694695
0.0372599
0.657435
0.124673
0.67269
0.038205
-0.710895
0.137768
-0.0951013
-0.514661
0.106313
0.0377451
-0.90685
0.869105
-0.554594
-0.759314
0.0629312
0.494747
-0.0532637
0.274423
-0.832468
0.558045
0.424358
0.575642
0.59992
-0.560389
-0.371957
-0.00807631
0.380034
0.539348
0.231053
-0.68838
0.686051
0.0869829
0.884711
0.00763793
-0.682391
-0.765645
0.80339
0.612931
0.130475
0.327667
-0.458142
-0.156174
0.551865
0.106732
0.748353
-0.887152
0.138799
0.661413
0.342024
-0.431243
0.717084
-0.586609
0.409089
0.150329
-0.057954
-0.616648
-0.2563
0.872948
-0.11647
-0.653932
-0.613872
0.365083
0.24879
0.663687
-0.656049
0.306469
1.04827
0.0109334
-0.765645
-0.116104
0.0605529
0.7093
0.790168
-0.790168
0.843919
-0.830283
-0.0136364
-0.454723
0.879081
-0.194985
-0.319677
0.762042
-0.669291
-0.0927506
-0.924093
0.307445
0.108084
-0.709819
0.818067
-0.974241
-0.190998
0.155991
0.0350067
0.109237
-1.00258
0.893343
0.538446
-0.0123056
-0.290288
0.59645
-0.306163
-0.658147
0.767384
-0.158614
0.730937
-0.723233
-0.00770399
1.09596
-0.61001
-0.485953
0.732214
-0.0676651
-0.0207965
0.0186133
0.00218313
-0.799745
-0.750177
-0.0792639
-0.696081
0.578582
-0.551127
0.169072
0.597617
-0.766689
0.779282
0.16641
0.491863
0.508137
-0.116252
-0.650681
0.766933
0.823662
-0.0753097
-0.732214
0.80339
0.17969
-0.434643
-0.00538657
-0.0150489
0.0204355
0.681542
-0.439027
-0.242515
0.695879
-0.0291485
-0.0192409
0.56477
0.116773
-0.00876075
0.00276251
0.00599825
0.00150992
-0.0223064
0.147443
-0.209341
-0.948781
0.0456911
-0.145391
-0.0435547
0.138808
0.795453
0.743174
-0.167532
0.443254
-0.274182
-0.16438
0.385698
0.647213
0.0486659
0.229281
-1.05956
-0.974241
0.314997
0.672206
-0.163399
0.0190107
-0.841144
0.999438
-0.158294
0.487432
-0.106539
0.80144
0.305305
0.322359
-0.00375587
-0.680675
0.680675
0.229045
0.66588
-0.0152803
0.441115
0.464527
0.0411745
-0.0465611
0.548404
-0.00995845
-0.658147
0.570464
0.191578
0.0035267
0.0150866
-0.647213
0.15065
0.848788
0.0165924
-0.716234
0.699641
0.760021
-0.822806
0.0627854
-0.779282
-0.0390507
0.0530253
-0.0139746
0.0850059
-0.120437
-0.106047
0.226485
-0.00905556
0.000294809
0.742094
-0.725501
0.950195
0.0800203
-0.354345
-0.617
0.971345
-0.000217046
0.000217046
0.147915
0.443724
0.5519
-0.995624
-0.188198
-0.560948
0.749146
-0.0166524
0.1976
0.384908
-0.233981
1.12258
-0.67886
0.840677
0.938552
-0.386652
0.189924
0.767384
0.594965
0.257286
0.645986
-0.653932
0.319325
0.0178539
0.00213609
-0.01999
0.870597
0.164575
-1.03517
-0.569029
0.544783
0.545277
-0.569029
-0.594965
0.544783
-0.0123842
1.07763
-0.127435
-0.539348
0.456974
0.082374
0.517047
0.698203
-1.21525
0.439447
0.683137
0.758531
0.466685
-1.22522
0.380245
0.558307
0.456974
-0.529132
-0.565759
-0.641353
-0.390447
-0.125615
-0.00518297
0.00518297
0.530204
0.586309
-0.976756
0.698805
-0.371137
-1.00302
0.393013
-0.697988
0.465458
-0.0273633
-0.88789
0.915253
0.452886
-0.0911386
0.961735
-1.14373
-0.997987
0.136122
0.861865
0.494719
-0.207766
-0.286953
0.782623
-0.843213
1.08353
-0.909791
-0.173737
-0.148598
-0.738554
-0.167004
0.802888
-0.635884
-1.11348
0.964886
-0.451969
0.637483
-0.185514
-0.791227
0.0412216
0.750005
0.00447043
-0.00468747
0.424753
0.0602029
-0.973272
0.913069
-0.787553
0.6713
0.99624
0.213135
-1.20937
-0.00174725
-0.00108342
0.381117
-0.359251
0.0407605
0.904657
-0.932021
-0.711206
-0.927286
0.188732
-0.0988159
-0.960029
0.050238
0.459673
-0.016419
0.263462
0.231257
-0.580953
0.622174
0.484009
-0.979028
-0.900349
0.17728
0.152987
0.500649
-0.653637
-0.0447761
-0.558219
0.580138
0.179883
0.0803035
0.881432
1.10101
0.975599
-0.925361
0.0471725
-0.0471725
-0.0876164
-0.289551
0.0817857
0.33211
-0.0171134
0.29321
0.836656
-0.00985076
0.0007952
0.657848
0.342152
0.797168
-0.599696
-0.769189
-0.489061
-0.487972
0.487972
-0.206193
-0.110644
0.706137
-0.927785
0.221648
-0.493754
-0.544658
0.340063
-1.03525
-0.934183
0.760445
-0.524647
0.713379
0.68777
0.161484
-0.849255
-0.674575
-0.173956
0.829783
-0.655827
0.0975273
-0.0073523
0.00364277
0.00370953
-0.14405
-0.145501
1.0462
0.757573
-0.412232
-0.345341
0.470619
0.743885
-0.51484
0.0111202
-0.286015
0.0450981
0.7957
-0.840798
-0.347484
-0.101501
0.139555
-1.04324
0.00806828
-0.766301
0.0631777
0.739574
-0.802752
-0.838756
0.0724554
0.680192
-0.781693
0.238244
-0.358681
-0.538685
-0.13589
0.36992
0.729304
-0.0122209
0.00408652
-0.00408652
-0.00242046
0.0532251
-0.0353712
-0.0168604
0.00700963
-0.555104
0.321783
0.821082
-0.795623
-0.0254597
-0.669335
0.732513
0.765173
-0.0849812
-0.676328
-0.162429
-1.13511
0.0205776
0.026595
-0.510006
-0.843331
-0.896299
0.496137
-0.0996024
0.0783289
0.0212736
-0.304493
-0.205514
0.43701
0.712157
-0.0469892
0.00343453
1.17913
0.529756
0.197717
-0.727473
-0.412108
0.107615
-0.00992171
0.00256941
0.675884
-0.932184
0.00555107
-0.00555107
-0.742173
0.729601
0.0125724
-0.148646
-0.113676
-0.698716
0.175782
0.591151
-0.0557031
-0.872671
-0.249539
0.0490968
0.200442
0.70513
-0.730589
0.355964
0.2612
-0.617164
-0.167447
-0.688463
-0.114289
-0.212417
-0.0737563
0.46716
-0.514497
0.202583
0.728175
-0.930758
0.496332
-0.104066
0.00446348
0.285648
-0.359404
0.598056
-0.0959481
-0.502108
-0.28456
0.304319
-0.0197593
0.617755
0.0810496
0.0767094
-0.310295
0.167753
0.142543
-0.231895
0.115791
-0.292484
-0.0537527
-0.0563919
0.110145
0.848745
-0.192281
0.0436348
0.551557
0.275677
-0.687909
0.409027
-0.409027
-0.202929
-0.390566
-0.21426
-0.390566
-0.713238
-0.850289
0.180997
-0.110495
0.733454
0.0469292
0.122237
0.607068
0.109604
0.119939
0.00868516
-0.128624
-0.0613984
0.677272
-0.979066
0.362066
-0.0671525
0.0923014
-0.0251489
-0.740808
-0.174068
-0.62474
0.822457
-0.527471
-0.0849005
-0.274504
-0.333915
-0.0812678
0.0812678
0.0482981
0.00472715
0.140516
0.19412
-0.739992
0.115252
-0.0650164
0.471133
0.528867
0.74801
0.0350073
-0.00877023
-0.0262371
-0.296085
-0.576586
-0.600153
0.112928
-0.118112
0.0051845
-0.141158
-0.415625
-0.078675
0.669826
-0.57351
-0.167298
-0.119354
0.0447012
0.237064
-0.479695
-0.197508
-0.192376
-0.0169647
-0.483162
0.437821
0.0453403
-0.161447
0.293566
-0.864603
-0.539251
0.608427
-0.866984
0.699536
0.440032
-0.0287904
0.0531481
-0.0243576
0.00192326
-0.63689
-0.00169278
0.638583
-0.893154
0.643924
-0.73154
-0.218621
0.00818494
-0.00818494
-0.299175
0.404976
-0.023859
0.0258808
0.00912651
0.60071
0.633557
-0.494758
0.0108319
0.00578185
-0.00169533
0.00484992
-0.00484992
-0.491571
0.572621
0.0136116
-0.0136116
-0.775484
-0.00990333
0.0143738
-0.549346
0.664598
0.648415
-0.635843
0.0698149
-0.0698149
-0.0449428
-0.00161828
0.00522353
-1.0257
0.539746
-0.470298
-0.00468747
0.597808
0.0150733
-0.612881
-0.70859
0.13508
-0.316896
-0.0143205
0.331216
-0.0313334
-0.0156558
-0.606713
-0.0301763
0.026595
0.00565364
-0.000102565
-0.00355731
0.00355731
-0.217395
0.327539
-0.4653
0.136507
0.660662
-0.120406
-0.000443754
0.000443754
0.508393
-0.248439
0.00840198
0.01841
0.000162445
0.529625
-0.778064
-0.610351
0.653985
-0.0653215
0.328692
0.767064
-0.00242046
-0.0884012
0.103488
-0.63386
0.553376
-0.37332
-0.110782
-0.0265759
-0.0256312
-0.0256306
0.454569
-0.0859107
-0.416197
0.6899
0.000333049
0.00577635
-0.00577635
-0.127925
-0.0232745
-0.573325
0.620254
-0.134838
0.51054
-0.202987
0.954349
0.749728
0.00565364
-0.840672
0.730487
0.0927313
-0.0535492
-0.0391821
0.492538
0.0974059
-0.0118105
0.0651214
-0.053311
0.00825317
-0.00825317
-0.747588
0.0226423
-0.0454149
0.0638249
-0.0867876
0.0867876
0.00578185
-0.00286421
0.718505
0.130283
-0.318389
-0.0972358
-0.518241
-0.0266224
-0.0666136
0.0666136
-0.0711799
0.0814919
-0.0814919
0.0259757
-0.0259757
-0.354171
-0.0770724
0.241889
0.0691756
0.0479466
-0.743392
-0.0656064
0.16182
0.0178705
-0.244917
0.0810468
-0.0810468
-0.464827
-0.0496699
0.232437
-0.0124185
0.00209633
-0.646613
0.658997
-0.0336384
-0.0375415
0.0788148
-0.0804331
-0.011677
-0.157
0.168677
-0.151601
-0.207081
-0.081528
0.081528
0.0555402
-0.0555402
-0.029936
-0.0943564
0.124292
-0.0215097
-0.187386
-0.0145414
0.0128461
-0.163303
0.490842
-0.0257276
0.501295
0.00645995
-0.000461705
-0.0506115
0.0506115
-0.733233
0.319305
-0.129381
-0.209432
-0.0237473
-0.0159326
0.0180289
0.199699
0.0267854
0.000561604
-0.000399159
0.0830627
0.029865
0.055045
0.106775
-0.00297387
0.0064084
0.000225274
0.00403576
0.00643131
0.00628461
-0.0127159
5.5052e-06
0.006793
0.0284667
-0.0284667
0.0491889
-0.0417928
0.0417928
-0.191499
0.00357405
0.0257015
-0.0750066
0.0177225
0.0768423
-0.0768423
0.245039
-0.23725
0.0856489
-0.0675117
-0.169738
-0.0166957
0.0166957
0.405393
0.252042
-0.518551
-0.0811236
-0.0369886
0.5419
0.057305
-0.0616158
-0.436459
0.0995946
-0.154469
0.170905
-0.0164355
-0.0469773
0.0469773
0.866659
-0.593678
-0.0109752
0.0109807
-0.00551972
-0.284713
-0.000445098
0.00525953
-0.0465957
-0.625622
0.567911
-0.677717
0.0149144
0.186614
0.0160021
0.0246358
-0.159989
-0.335155
0.260148
-0.0570095
0.0270735
0.169507
0.134812
0.266588
0.265585
-0.249583
0.00632874
-0.115206
-0.223753
0.0687805
-0.0137355
0.16084
-0.136204
-0.0689001
0.151963
-0.416517
0.120823
-0.1031
0.0582411
-0.474439
0.176164
0.176072
-0.244972
0.0073546
-0.177205
0.17676
0.00420448
0.147758
-0.0281812
0.0503853
0.458008
0.011771
0.0195868
-0.00846775
0.0381938
-0.240188
-0.202196
0.590565
0.171013
0.0614243
0.0790674
-0.0626959
0.0256732
-0.0648553
-0.0303073
0.167332
-0.152417
-0.00604386
0.00187086
-0.105981
-0.0294464
0.000364543
0.251882
0.00357345
-0.0547599
-0.31362
-0.0120818
0.216832
0.139831
0.179474
0.0577396
0.0985648
0.063788
0.536923
-0.0124906
0.102429
0.0440429
0.0651698
-0.109213
-0.266509
-0.197571
0.0278329
-0.222556
0.285787
)
;

boundaryField
{
    FrontBack
    {
        type            empty;
    }
    Top
    {
        type            calculated;
        value           uniform 0;
    }
    In
    {
        type            calculated;
        value           uniform -1;
    }
    Bottom
    {
        type            calculated;
        value           uniform 0;
    }
    Out
    {
        type            calculated;
        value           nonuniform List<scalar> 10(1.19798 1.04618 1.20711 1.06338 1.16489 0.948754 1.11651 1.03841 0.611957 0.604826);
    }
    circle
    {
        type            calculated;
        value           uniform 0;
    }
}


// ************************************************************************* //
