/*--------------------------------*- C++ -*----------------------------------*\
| =========                 |                                                 |
| \\      /  F ield         | OpenFOAM: The Open Source CFD Toolbox           |
|  \\    /   O peration     | Version:  2412                                  |
|   \\  /    A nd           | Website:  www.openfoam.com                      |
|    \\/     M anipulation  |                                                 |
\*---------------------------------------------------------------------------*/
FoamFile
{
    version     2.0;
    format      ascii;
    arch        "LSB;label=32;scalar=64";
    class       volVectorField;
    location    "30.1";
    object      U;
}
// * * * * * * * * * * * * * * * * * * * * * * * * * * * * * * * * * * * * * //

dimensions      [0 1 -1 0 0 0 0];

internalField   nonuniform List<vector> 
808
(
(0.896633 -0.0103573 0)
(1.01526 -0.0361714 0)
(1.22146 -0.0650712 0)
(1.06703 0.0095603 -2.63417e-21)
(1.46829 -0.278802 0)
(0.957787 -0.0286963 0)
(1.12907 -0.0391625 -3.56344e-21)
(1.1234 -0.0336212 0)
(1.33752 -0.219228 2.17897e-20)
(1.22205 -0.0892985 -2.58752e-21)
(1.29104 -0.0312746 4.53267e-21)
(1.36958 -0.243844 0)
(0.988565 -0.033384 0)
(0.742378 -0.0192345 0)
(1.01753 0.0448645 2.04309e-20)
(1.07964 -0.0212804 0)
(0.902228 0.0586115 -7.26807e-21)
(0.982763 -0.0168474 -1.10521e-22)
(1.30066 -0.00372201 0)
(1.11912 -0.00248014 0)
(1.2801 -0.0241082 -6.32533e-21)
(0.926837 0.126105 1.12088e-19)
(1.07399 0.010152 -1.3534e-20)
(1.17524 -0.0477967 0)
(0.958027 0.191099 0)
(1.34295 0.0364663 -3.3479e-20)
(1.27168 -0.171354 4.86816e-21)
(0.979944 -0.0376404 -5.86425e-21)
(1.08137 -0.0230778 0)
(1.05696 0.0340453 -2.72056e-22)
(0.998133 -0.0297926 6.20278e-24)
(1.12347 -0.0204594 0)
(1.05493 0.0530413 0)
(1.08985 -0.0409965 4.89288e-21)
(1.28793 -0.0813779 5.50591e-21)
(0.743903 -0.107097 1.12872e-19)
(0.870351 -0.0254066 -7.49183e-21)
(1.04316 0.0507233 8.90311e-22)
(1.18486 0.0490491 -2.90575e-21)
(1.09902 0.0407859 0)
(1.25028 -0.0804762 -9.64361e-21)
(1.26721 -0.133178 0)
(1.00601 -0.00815776 -7.86505e-21)
(1.1485 -0.035444 6.78589e-21)
(1.24546 -0.141308 0)
(1.0113 0.017427 -1.99142e-20)
(1.01038 0.0395529 2.07734e-21)
(1.24596 -0.242751 2.59185e-22)
(1.17462 0.0553773 -5.50197e-21)
(1.38912 -0.170506 -3.14767e-20)
(1.12875 -0.0242572 6.49311e-21)
(1.14592 -0.0703377 0)
(1.11781 -0.00252007 7.04818e-21)
(1.18592 -0.0388713 0)
(1.33065 0.227036 4.28229e-21)
(1.07401 0.0490055 -2.14593e-21)
(1.26912 -0.0344627 0)
(1.2615 -0.121984 8.47674e-22)
(1.22643 -0.0966303 2.77756e-21)
(1.15143 0.033488 -4.154e-22)
(-0.157926 -0.00161176 0)
(1.21097 -0.208116 -4.00008e-21)
(1.20395 -0.101426 0)
(1.39628 -0.100096 -2.20839e-20)
(1.16733 -0.0576369 -6.90629e-21)
(1.03877 -0.0283677 -8.03772e-21)
(1.31582 -0.0997935 2.17405e-20)
(0.653493 0.0156394 0)
(1.18416 -0.0501919 0)
(1.43695 -0.341825 0)
(0.898301 0.0268713 -2.06835e-22)
(1.24847 -0.131634 -3.97224e-20)
(1.006 0.0374515 0)
(1.05993 -0.0496065 -4.08387e-21)
(1.11778 -0.328428 -5.8991e-20)
(1.13789 -0.0308469 -1.10135e-20)
(1.15234 0.016858 8.63286e-23)
(1.32897 0.502388 2.51008e-20)
(1.10284 -0.0373742 0)
(1.01519 0.287873 -1.85571e-19)
(1.36191 0.00406167 1.75095e-20)
(0.75779 0.0155116 0)
(0.852953 0.0327053 -1.03584e-20)
(0.969096 -0.107413 4.42161e-21)
(1.14073 -0.0334868 8.55714e-21)
(1.19504 0.00149814 9.68197e-22)
(1.28908 -0.226551 0)
(1.35315 0.289767 0)
(1.09174 -0.00255377 -1.58435e-20)
(1.44128 0.0771461 3.66425e-20)
(1.07996 -0.0224957 1.46864e-20)
(1.30744 -0.121075 -1.1841e-21)
(0.964935 0.0256252 1.73695e-20)
(1.00378 -0.0251556 0)
(1.11182 0.0119522 1.54311e-21)
(1.22287 -0.0617929 -4.86628e-20)
(0.758362 0.0192264 -1.74463e-21)
(1.35602 -0.0754086 0)
(1.30823 -0.0963575 0)
(1.39605 -0.0733804 -3.65573e-20)
(1.11273 -0.0330174 -3.86281e-21)
(1.12875 0.00319286 -1.15494e-22)
(0.949635 0.0223081 1.24325e-20)
(1.18881 -0.0152255 -1.01494e-22)
(1.31163 -0.0113277 -1.35861e-20)
(1.00156 0.00368785 1.33425e-20)
(1.47229 -0.114904 0)
(0.856086 0.184786 0)
(1.0996 0.0331613 4.90781e-21)
(1.19655 -0.215037 -8.52783e-21)
(1.27877 -0.0234765 8.53106e-21)
(1.04753 0.0472493 -1.2364e-19)
(1.16212 0.0400204 -2.03318e-21)
(1.17156 0.18086 5.08662e-21)
(0.797486 0.0237347 0)
(0.918152 -0.0444418 7.71955e-20)
(1.14904 0.018806 -6.4989e-21)
(1.42867 -0.248407 -1.64257e-20)
(1.14175 -0.0540144 -6.84654e-21)
(0.931319 0.0145222 2.46966e-21)
(-0.290656 -0.00938204 0)
(0.85397 -0.0186984 1.97654e-21)
(0.800497 0.0238826 0)
(1.06255 0.000397814 -1.02237e-22)
(1.01338 0.0290457 0)
(1.31864 0.321616 6.80771e-21)
(1.03387 -0.0524817 -3.38779e-20)
(1.31531 0.213314 8.37043e-22)
(1.14507 -0.067997 0)
(1.09235 -0.0228485 0)
(0.593637 0.0442006 0)
(1.14145 -0.0393633 -3.37956e-21)
(1.24186 -0.055217 5.18735e-21)
(1.06952 0.112172 -3.37499e-20)
(0.845263 -0.0278955 0)
(1.10607 0.0211732 -1.49479e-21)
(0.943099 -0.0841999 4.55114e-21)
(1.11369 -0.0331474 -3.34175e-21)
(0.996846 0.0349072 3.82462e-21)
(1.13182 0.00298016 9.68223e-23)
(0.0178103 0.11515 0)
(1.09371 -0.0257586 -1.62985e-20)
(1.04763 -0.120538 1.18047e-21)
(0.714316 0.0247767 -3.28523e-21)
(1.2682 0.172348 3.2483e-21)
(0.96914 0.13246 5.88317e-21)
(1.04547 0.0177889 1.81095e-20)
(0.990346 0.0263652 0)
(1.12634 -0.222658 -7.10309e-21)
(1.00876 0.133523 0)
(0.943858 0.0298708 6.88169e-21)
(0.969021 0.286453 1.48427e-19)
(0.974452 0.0362835 0)
(0.819203 0.106641 0)
(-0.0851724 0.134391 -6.83762e-20)
(1.35192 0.132847 -1.25806e-20)
(0.69084 -0.0226192 0)
(1.49283 -0.00388255 0)
(1.07019 -0.153832 0)
(1.36862 0.0795155 1.49077e-20)
(-0.0441274 -0.0481066 0)
(-0.0452097 0.139971 3.22744e-20)
(1.00403 -0.0160892 7.57723e-20)
(1.01023 0.0392478 1.2021e-21)
(0.856835 -0.00127794 0)
(1.03991 -0.0490732 9.99269e-21)
(0.891659 0.0216528 0)
(0.728819 0.00739664 -8.18984e-20)
(1.02772 0.0487397 9.36712e-21)
(1.15432 -0.0468091 2.23052e-21)
(1.09476 0.00868618 7.34964e-21)
(1.0152 0.0712552 -1.20099e-20)
(0.645896 0.11483 -5.85717e-21)
(1.13238 -0.344275 6.7286e-22)
(0.919195 -0.0214706 0)
(1.06801 0.000534269 -1.48972e-20)
(0.872075 0.00920098 -1.09278e-20)
(1.36046 -0.159948 1.79781e-21)
(0.68755 0.020839 0)
(1.0584 -0.134136 0)
(1.12709 -0.0643262 2.56768e-21)
(1.39841 0.218398 9.97934e-21)
(1.11684 0.0142198 5.45149e-21)
(1.03605 0.0164433 2.0221e-20)
(0.8358 0.0635502 -9.49791e-20)
(0.812554 0.00421646 1.9766e-20)
(1.13173 -0.017424 4.62702e-21)
(1.35611 -0.0796722 -3.62911e-21)
(1.12365 -0.0561333 -4.80213e-21)
(1.29912 -0.0577872 3.10968e-21)
(-0.0874809 0.151921 4.98017e-20)
(1.26578 -0.0547902 0)
(0.622905 -0.0186875 0)
(1.05899 -0.0289389 -7.36098e-21)
(1.10116 0.00923543 7.91521e-21)
(0.0962533 0.130006 0)
(0.879159 -0.0237528 4.32099e-22)
(1.11798 -0.0641241 -2.69478e-21)
(0.966215 0.0146823 3.54703e-22)
(1.07923 0.0361994 -7.43804e-21)
(1.00407 0.0211287 2.66487e-21)
(1.04282 -0.0562514 2.37714e-21)
(1.06471 0.0358912 0)
(0.362825 -0.024436 0)
(1.04975 -0.0637855 0)
(1.15864 0.111979 -2.77401e-20)
(-0.0541649 -0.0276922 4.55304e-20)
(1.07533 0.0232483 -6.9263e-24)
(1.19032 0.0511598 0)
(0.752269 0.0226458 -6.96806e-21)
(1.17031 0.0303904 1.68427e-22)
(0.00314235 -0.0392725 -1.50918e-19)
(0.72049 0.0419572 -3.41977e-20)
(0.641249 -0.0204505 0)
(0.956111 0.0194912 0)
(0.934933 0.0249908 7.97623e-21)
(1.02779 -0.0966957 5.79358e-21)
(1.28481 0.400683 -1.42143e-21)
(1.12466 -0.0702734 2.50461e-22)
(1.16562 -0.120762 -4.40515e-21)
(0.982606 0.0516715 0)
(1.36819 0.427668 -3.61104e-20)
(0.663159 -0.0132814 0)
(0.799258 -0.0230662 -3.92228e-21)
(1.07142 -0.0304179 2.71662e-22)
(0.602497 0.0137501 0)
(1.10065 -0.00638882 0)
(0.00546888 0.105864 -3.28583e-20)
(1.17121 -0.179462 -2.06958e-21)
(0.731004 -0.0169668 3.39159e-21)
(0.990162 -0.00368391 0)
(0.567484 -0.0144617 0)
(0.759786 -0.0192115 -4.01507e-21)
(0.548417 -0.0217512 -9.24917e-22)
(1.34813 0.00170007 3.29842e-22)
(1.3217 0.11669 5.45865e-22)
(0.700601 0.0191042 -1.27931e-21)
(1.16044 -0.048089 2.10673e-22)
(1.20465 -0.139311 -2.36019e-22)
(0.547038 0.0162376 3.40683e-21)
(1.26762 -0.0971226 -2.95023e-22)
(1.19891 -0.115481 0)
(0.898053 -0.117157 0)
(0.496261 0.0182994 0)
(1.04715 -0.0318025 0)
(1.20459 -0.0150907 -2.2698e-21)
(1.0634 -0.135211 0)
(1.16704 -0.0656877 0)
(0.94803 -0.122101 0)
(1.02102 -0.00181241 0)
(-0.0256384 -0.0359026 4.55907e-20)
(1.21501 -0.0601143 1.26132e-21)
(0.931964 -0.0812995 0)
(1.32184 -0.0398432 9.44639e-21)
(1.1503 -0.00647406 1.45135e-21)
(1.11951 0.0539285 6.84237e-22)
(1.11531 -0.0249876 5.26652e-21)
(1.12196 -0.074196 0)
(0.582728 -0.0139461 8.09896e-21)
(1.05291 0.0433135 1.16808e-20)
(1.22891 -0.118509 0)
(1.26984 0.00891714 9.51284e-23)
(1.16373 0.0501628 2.21305e-21)
(0.758277 0.250569 8.57968e-21)
(1.16812 0.0262032 2.79338e-21)
(1.18599 0.0965276 -6.66415e-21)
(1.08117 0.163523 0)
(1.11452 0.0736967 -2.0414e-20)
(1.15505 0.130705 -1.79131e-21)
(0.601343 -0.25332 4.5668e-21)
(0.923314 0.030216 0)
(-0.00753194 -0.0213372 0)
(0.973163 0.114639 -1.7774e-20)
(1.17436 -0.0126752 0)
(1.24087 -0.0909778 1.48752e-20)
(1.19709 0.0782804 3.42813e-22)
(1.19522 0.0542451 6.40677e-21)
(1.11562 0.0790202 -2.03722e-21)
(1.32016 -0.0259833 6.79579e-20)
(1.01451 -0.318691 5.95524e-20)
(1.09113 -0.0351327 -4.12041e-22)
(0.972183 -0.038652 0)
(0.972434 0.182501 0)
(0.907219 0.0024255 -3.08569e-20)
(1.28562 -0.228551 -5.39156e-20)
(1.13604 0.054668 0)
(0.53543 -0.0518096 1.66887e-20)
(0.490441 0.316635 0)
(0.657659 0.00713006 7.24379e-21)
(0.688882 -0.112985 -2.00474e-20)
(0.826955 0.0233904 -5.00517e-21)
(1.10747 -0.0372721 0)
(1.31973 0.169702 -3.99902e-22)
(1.20361 0.157172 -4.32735e-22)
(0.644936 -0.189143 -7.2776e-21)
(1.1202 0.0448736 -4.60685e-21)
(0.737443 -0.185465 0)
(1.09295 0.068693 0)
(1.02244 -0.0893919 1.31703e-20)
(0.743181 -0.124769 -7.31753e-21)
(1.28151 0.0804259 2.93771e-21)
(1.11888 0.00552875 -4.6994e-21)
(1.0689 0.11822 -2.25646e-22)
(1.12904 0.00803287 0)
(0.421012 -0.138481 1.35385e-20)
(1.34669 0.0673267 -2.18017e-20)
(0.800122 -0.191499 -5.43988e-21)
(0.278787 0.066137 -9.07195e-21)
(1.40126 -0.133258 2.05506e-20)
(0.995978 -0.0378808 8.79652e-20)
(1.15959 -0.00776119 -1.34611e-20)
(1.08705 -0.0241301 -3.22534e-22)
(-0.0782838 -0.0108952 -7.79674e-21)
(1.00035 -0.00726282 0)
(1.03353 -0.0848477 -1.65078e-20)
(0.845598 -0.0351463 8.27958e-21)
(1.11446 -0.050607 4.85091e-21)
(0.777855 -0.212444 2.02346e-21)
(0.511103 -0.0218373 2.92581e-22)
(1.40935 -0.376664 -1.56173e-20)
(1.14353 0.0111388 0)
(1.03751 0.0140253 -1.64832e-21)
(1.14839 0.0240067 -2.53146e-21)
(1.17609 0.114725 0)
(0.66542 0.184599 -8.2058e-21)
(1.12834 0.0219599 3.57427e-21)
(0.70425 -0.217897 7.73166e-21)
(1.13266 -0.0410368 -7.95853e-22)
(0.805035 0.0732935 5.44919e-21)
(-0.0406698 0.0513187 0)
(0.626555 0.0716889 4.51049e-20)
(1.18799 0.0197873 0)
(1.08603 0.244669 2.7279e-20)
(1.01039 0.289933 0)
(1.12599 -0.016552 2.60774e-21)
(1.01575 0.0267901 0)
(0.960087 0.090288 0)
(1.37125 -0.113101 1.59275e-20)
(0.794494 -0.0808592 0)
(1.21575 -0.0873051 -1.1301e-21)
(1.14348 -0.0307036 3.20288e-22)
(1.06715 0.0206227 3.04206e-21)
(1.26291 -0.124931 -1.06184e-20)
(1.25003 0.114882 -5.24985e-21)
(1.30806 -0.171492 1.15955e-21)
(1.144 -0.00584794 0)
(1.14934 -0.0200971 0)
(1.08699 0.0150663 2.70831e-21)
(1.21033 -0.044178 0)
(1.42392 0.22064 -2.57937e-20)
(0.853794 -0.139795 -4.40211e-21)
(1.02709 0.0146907 2.16091e-20)
(1.27956 -0.0210596 -1.95592e-22)
(-0.0128696 0.0303152 0)
(-0.031797 -0.0442498 0)
(-0.0218629 0.161171 -3.60382e-20)
(-0.08409 -0.01867 0)
(0.717927 -0.0636164 2.32831e-21)
(1.16794 0.0332576 -2.20081e-21)
(1.1579 0.0104327 -5.69161e-21)
(1.17816 -0.0507033 -3.7949e-21)
(1.17443 -0.0553482 0)
(0.687097 -0.024167 -2.52268e-21)
(1.10669 0.0319961 0)
(1.12125 -0.000137304 1.81558e-21)
(0.513931 -0.108447 0)
(0.819281 0.0112416 1.94339e-22)
(1.08545 0.0650222 0)
(1.18066 0.0390578 0)
(0.482034 -0.0143944 1.83373e-20)
(0.552827 0.204122 -9.7084e-22)
(0.737984 0.052588 5.4993e-21)
(1.01115 0.0180579 -1.01207e-20)
(0.186533 -0.0231115 0)
(1.27066 -0.157972 4.20882e-22)
(1.26698 0.0855469 -5.34801e-21)
(1.22635 -0.191303 3.15381e-22)
(0.621578 0.183228 4.66997e-21)
(-0.0593604 0.0291382 -9.43502e-20)
(1.13215 0.0989676 0)
(-0.0321627 0.039938 0)
(1.19285 0.118594 9.13217e-22)
(0.3562 0.341223 -5.02476e-21)
(1.17975 0.0636342 -6.17795e-21)
(1.10956 -0.0342544 0)
(1.20248 -0.0124603 4.5568e-21)
(1.16674 -0.218958 6.78281e-21)
(0.56644 -0.0327195 -9.59261e-21)
(1.13128 -0.0306972 -1.76823e-21)
(1.14924 -0.0262187 -3.81191e-22)
(0.0362268 -0.272161 9.90152e-21)
(1.23019 0.0193627 -1.8223e-20)
(1.15169 0.0322045 0)
(1.12308 0.0916218 0)
(1.1492 -0.0436642 4.71937e-22)
(1.21905 0.0778515 4.83316e-21)
(0.540469 -0.26773 -2.04718e-20)
(1.18792 -0.117155 -1.81582e-20)
(1.13453 0.0618615 2.97825e-21)
(0.528288 0.000653728 1.29392e-20)
(0.0864871 0.0148986 -3.90846e-20)
(0.224653 -0.411958 1.99523e-20)
(1.17681 0.187978 -6.65924e-21)
(1.22975 -0.487806 4.72991e-21)
(1.38796 0.0109211 -9.04258e-21)
(1.16585 -0.043302 -5.59281e-22)
(0.933361 -0.227827 9.57943e-20)
(-0.319947 -0.292271 0)
(1.24213 -0.0692743 3.78726e-22)
(0.120646 -0.0951647 -1.92139e-20)
(1.17354 0.130504 -7.90227e-22)
(1.14016 -0.109569 6.38598e-21)
(1.09102 0.0329272 0)
(0.380886 0.129638 0)
(1.16906 -0.0553097 0)
(1.38763 0.227067 -1.25768e-20)
(1.26025 -0.0372614 -1.678e-20)
(1.13025 -0.0355216 1.77697e-21)
(0.463398 0.0159091 0)
(0.617488 0.0103842 0)
(0.610961 -0.00411025 4.96217e-22)
(0.428633 -0.0125883 0)
(1.20763 0.0993265 0)
(1.01955 -0.0143149 2.66649e-20)
(0.0890593 0.157135 0)
(0.924398 0.0451238 0)
(1.16982 -0.0101702 0)
(1.17745 0.18064 -6.95936e-21)
(1.28626 0.0231342 8.39753e-21)
(0.961451 -0.0299863 7.06118e-21)
(1.29537 -0.395471 -1.0731e-19)
(0.332371 -0.0704455 -6.9552e-21)
(1.147 0.0209988 7.36956e-21)
(1.18766 0.0844095 0)
(-0.213177 -0.429646 0)
(-0.245413 0.169355 0)
(1.14322 -0.0373426 -6.42954e-22)
(1.31403 -0.283784 -2.10708e-20)
(1.38892 0.0781564 0)
(1.0761 0.0275498 -8.66022e-21)
(0.606062 -0.191222 0)
(1.49274 -0.156292 6.59431e-20)
(0.415625 0.526669 1.12931e-19)
(0.302567 -0.0271017 0)
(1.10458 -0.273016 1.15187e-19)
(0.0145804 -0.223227 0)
(-0.155762 -0.301304 -1.263e-20)
(1.41008 0.0666178 0)
(-0.179876 0.0931726 2.94904e-21)
(0.983785 -0.0507792 0)
(1.19435 -0.0943914 -4.88215e-21)
(-0.159646 0.0940362 -7.58917e-21)
(1.11777 -0.0337543 1.36872e-21)
(1.19513 0.0357426 -2.75616e-22)
(0.569878 -0.504804 -9.35835e-20)
(1.08724 0.022533 -2.16047e-21)
(1.18826 -0.126622 5.51888e-21)
(1.18494 0.251285 -2.07651e-20)
(1.13687 -0.118672 8.39727e-21)
(1.14874 -0.0277515 -5.65971e-23)
(0.0737386 -0.132382 -7.978e-20)
(0.0949021 0.161584 -7.35749e-21)
(1.20154 0.122862 4.04237e-21)
(1.05857 -0.0497638 0)
(0.47931 0.230428 -7.46174e-21)
(1.39915 -0.434327 7.97631e-20)
(0.943465 -0.0526383 -5.88504e-20)
(1.45998 0.155035 7.98419e-20)
(1.09139 -0.034262 4.04896e-21)
(1.19222 0.0489688 1.45438e-20)
(1.06072 -0.00875078 0)
(1.18194 -0.0344706 0)
(1.18039 -0.0467245 -3.10872e-21)
(1.08824 -0.020975 -4.50535e-21)
(1.04019 -0.107347 -8.42225e-21)
(1.08925 0.0584475 -6.19557e-21)
(1.39407 -0.0625252 -3.10856e-20)
(0.428828 0.0368034 0)
(1.1531 0.0250788 1.43674e-20)
(1.34978 0.00531982 0)
(1.1045 0.069244 -2.20455e-21)
(1.14426 0.0170894 0)
(1.04194 -0.00969505 1.44306e-20)
(1.2369 0.0272787 1.48736e-20)
(1.01373 0.154543 0)
(0.0620408 -0.0270752 1.58374e-19)
(0.882079 -0.206414 -7.51324e-20)
(1.1619 -0.0591575 -1.78643e-20)
(-0.132317 0.0801901 4.0033e-20)
(1.20186 0.0287398 2.17085e-22)
(0.652851 0.206839 3.90606e-21)
(-0.0994685 0.112033 -4.17197e-20)
(-0.0260134 0.0672815 -2.65691e-20)
(1.01882 -0.02871 0)
(-0.031115 -0.036207 0)
(1.18896 -0.0749169 0)
(0.111725 -0.09499 0)
(1.10994 -0.0275633 0)
(0.15431 0.0358935 0)
(1.1331 0.0467522 0)
(1.20358 0.0059752 0)
(1.37757 0.136867 5.77909e-22)
(0.578412 -0.285271 -2.09224e-20)
(-0.100255 0.213697 0)
(1.13977 -0.078658 6.12338e-20)
(1.21063 -0.0267061 4.16505e-21)
(1.18582 -0.0661527 0)
(-0.0353513 -0.0418064 0)
(1.15985 0.000840471 2.48499e-21)
(1.1625 -0.0200314 -1.445e-21)
(1.17415 0.394066 0)
(0.266373 -0.0296038 6.1224e-20)
(1.12216 0.0551147 1.21063e-21)
(0.243302 -0.0506284 -5.33011e-20)
(-0.0614264 0.044699 -3.06958e-20)
(-0.0386354 0.0500373 7.97758e-20)
(0.379191 -0.256196 4.07709e-20)
(0.970555 0.116417 -3.67507e-21)
(1.14845 0.0715647 -9.05725e-22)
(1.02371 -0.00806144 0)
(1.06962 -0.0676169 -2.3016e-20)
(1.27501 0.0216653 -9.02576e-21)
(-0.0105488 0.00365157 9.67922e-20)
(0.976367 -0.070758 -6.07097e-20)
(0.702525 0.266037 1.11229e-20)
(1.11592 0.0441358 -1.79147e-21)
(0.0847154 -0.0290825 3.43569e-20)
(0.258291 -0.0352865 -4.86424e-20)
(0.432834 -0.0234891 -5.55286e-20)
(1.27925 0.200699 -6.90873e-21)
(-0.0522049 -0.0359133 0)
(1.0482 0.254502 5.64355e-22)
(1.00597 0.0156317 3.30743e-20)
(1.08616 -0.00723917 -3.18878e-20)
(1.22046 -0.0288482 0)
(1.50626 -0.216152 6.96408e-20)
(1.14379 0.0561059 -1.88632e-21)
(-0.0147789 -0.0193331 -3.2703e-20)
(0.296119 0.11246 0)
(0.899837 0.0294309 -6.36644e-22)
(1.14119 0.0177234 6.05103e-22)
(0.94405 -0.296316 1.71249e-20)
(1.15935 -0.000246573 -5.86884e-22)
(1.11953 0.0467979 0)
(1.15008 -0.162956 -1.49105e-20)
(-0.120712 0.0330335 -6.42035e-20)
(1.29509 -0.0422883 1.32382e-20)
(1.10382 0.17317 -8.77541e-21)
(1.07785 0.0552609 7.08576e-21)
(-0.0420498 -0.0506843 1.54294e-20)
(-0.0227763 0.0438113 -6.23128e-20)
(0.522731 0.0627119 0)
(0.690443 -0.0563363 0)
(1.15517 0.0985688 -1.6541e-20)
(1.05217 0.0679422 1.26953e-20)
(1.10378 0.00261733 0)
(0.417974 0.0904461 3.29587e-20)
(0.720125 0.0972736 -1.0809e-20)
(1.10107 0.110216 0)
(1.07612 0.0351294 0)
(1.30278 0.0173844 0)
(1.27193 0.0228332 0)
(1.11046 -0.0399 4.1343e-21)
(-0.0429151 0.043925 3.35254e-20)
(1.29358 0.0790034 1.40495e-21)
(1.3984 -0.171492 -7.76259e-20)
(1.19835 -0.0571504 -6.69736e-21)
(0.117576 0.0997932 0)
(1.11764 0.111162 0)
(0.618473 -0.013993 -4.34662e-22)
(0.531098 0.0105522 -5.71379e-20)
(0.0666362 0.0379037 4.66307e-20)
(0.938855 0.0182615 1.48002e-21)
(0.748893 -0.271802 0)
(0.689488 -0.0875844 0)
(1.19703 -0.0784819 0)
(0.544319 0.51959 2.21945e-20)
(-0.0168086 0.0438782 -2.95741e-20)
(1.01765 -0.0108642 -6.33755e-21)
(-0.021847 -0.010212 6.22168e-20)
(1.10844 -0.0608408 2.56999e-21)
(1.1796 0.317784 3.96045e-20)
(1.1094 -0.0870528 9.48417e-21)
(0.475881 -0.0650154 1.04004e-19)
(1.06643 0.172938 3.8143e-21)
(1.07615 0.0750427 0)
(0.560214 0.273103 0)
(0.856031 0.168349 3.61705e-21)
(-0.234447 0.175344 0)
(0.615827 0.0298945 2.44104e-21)
(0.602825 -0.415335 -2.92947e-21)
(0.235204 0.0500864 -1.10406e-19)
(1.1241 -0.221642 3.4806e-20)
(1.04272 0.371601 1.02091e-20)
(0.980806 0.0221636 0)
(1.28372 -0.0817641 -3.05003e-22)
(0.640412 0.0146325 0)
(0.992047 -0.0172382 -6.13492e-22)
(0.456017 -0.0122338 0)
(0.714023 0.139672 0)
(0.997446 -0.0238558 -4.00634e-21)
(1.4461 0.174548 -1.46251e-20)
(1.08125 -0.0540568 4.38911e-21)
(0.520028 -0.488115 0)
(1.13146 -0.152367 2.9912e-21)
(0.808577 0.388433 7.08738e-20)
(-0.044272 0.0191911 1.12232e-21)
(1.21122 -0.0444197 1.03648e-20)
(1.21753 0.0225371 -1.13833e-20)
(1.13138 -0.115835 6.82571e-22)
(0.799367 0.0138565 -4.49264e-21)
(0.0566689 0.0197735 3.58984e-20)
(-0.0195551 0.0331487 -5.43185e-20)
(-0.215588 0.171686 0)
(-0.145638 0.274487 0)
(1.18235 -0.609341 3.11607e-20)
(1.14126 -0.0263473 5.52265e-23)
(0.889285 -0.462968 -4.13444e-20)
(1.10089 0.252758 -3.23385e-21)
(1.37518 0.201865 3.32586e-20)
(0.607145 0.424337 0)
(0.248835 0.423746 -1.14215e-19)
(0.600224 0.494124 0)
(0.110786 0.135236 0)
(1.11694 -0.470655 0)
(-0.0478042 0.103262 -1.80609e-22)
(1.19609 -0.0281378 0)
(0.907788 -0.00519141 -3.30699e-20)
(0.601269 0.703667 2.07351e-20)
(1.37056 0.137793 1.67015e-20)
(-0.0414225 -0.0444125 -1.09703e-19)
(0.81081 0.142225 -4.70858e-20)
(0.450865 0.145297 -1.33379e-20)
(1.20894 0.0844006 0)
(1.3688 0.360652 3.39754e-20)
(1.23071 0.574499 6.94959e-21)
(0.149198 -0.0137754 -2.10278e-20)
(1.00536 0.147418 3.07069e-20)
(0.944625 -0.0287271 8.51684e-22)
(0.912923 0.0186115 -2.36136e-22)
(0.0069863 -0.0232323 0)
(0.641896 -0.641417 -3.14699e-20)
(0.61505 0.213274 0)
(0.0430608 -0.0222417 0)
(-0.0477311 0.0658263 0)
(-0.0265373 -0.0235286 -4.13215e-20)
(1.23714 -0.0179402 -1.19325e-20)
(-0.0277124 0.0781563 0)
(-0.0334877 0.0765278 0)
(1.4584 0.120821 -7.6731e-20)
(-0.0351862 -0.0568949 4.98085e-20)
(0.116124 0.242384 -1.00995e-19)
(0.3786 0.0197557 0)
(0.168106 -0.26883 8.27672e-20)
(1.09526 -0.234963 0)
(0.991583 -0.277781 0)
(-0.00893563 -0.0344479 1.03105e-19)
(1.14888 0.030463 -8.85717e-23)
(1.1293 0.349631 2.85674e-20)
(0.255781 0.0294474 4.52452e-20)
(0.400595 -0.511075 -4.00363e-20)
(1.31846 0.0773274 0)
(1.22251 0.204157 2.1316e-20)
(1.22346 0.215688 -2.61844e-20)
(0.103192 0.098818 -2.35504e-20)
(-0.0634648 0.0942936 0)
(1.06815 -0.0574863 -1.94669e-20)
(1.09827 -0.217295 -1.71309e-20)
(0.580143 -0.39234 0)
(1.09531 -0.145783 -2.71973e-20)
(-0.0133687 0.253868 0)
(0.599479 0.0597163 0)
(1.39628 -0.0349263 2.17287e-20)
(0.979028 0.0247941 3.13008e-22)
(1.08646 0.755499 -1.59918e-20)
(0.223104 -0.371693 1.3604e-19)
(1.08612 0.0416172 -1.03987e-21)
(1.21061 0.0711143 -3.47053e-23)
(-0.0485106 0.110545 2.94116e-20)
(0.793703 0.741642 2.77618e-20)
(1.34109 -0.359319 -1.36712e-20)
(-0.21325 -0.0225462 4.45314e-20)
(1.17663 0.0387249 0)
(0.365347 0.0459739 -1.00227e-20)
(0.895697 -0.631088 2.64237e-21)
(0.905427 0.647388 -2.01457e-20)
(0.565213 -0.02795 -6.37586e-20)
(1.13942 -0.0117493 -3.56227e-21)
(1.07439 -0.0842115 7.79787e-21)
(1.1736 0.0620563 -1.94254e-22)
(1.10797 0.120645 4.26237e-21)
(1.13058 -0.12681 0)
(0.907848 0.114925 1.36644e-20)
(0.889509 0.462203 0)
(1.37208 0.141928 6.73238e-21)
(1.17185 0.110399 4.28165e-23)
(0.751282 0.26567 0)
(0.516133 0.111073 1.05312e-19)
(0.900716 0.722731 -6.69362e-22)
(1.08144 0.294197 -2.19393e-20)
(1.04218 -0.0106203 1.33535e-20)
(0.41919 0.506068 0)
(1.2893 -0.464338 0)
(0.855408 -0.109437 7.21989e-21)
(1.2697 0.509577 0)
(-0.0287268 0.0585965 -4.02274e-20)
(1.27711 -0.409043 -4.43677e-21)
(1.17334 0.51833 0)
(0.454264 0.231889 1.69893e-19)
(1.12636 0.320342 -1.17268e-19)
(0.808651 -0.628279 -2.73587e-20)
(1.18118 0.0562325 -1.22576e-21)
(0.915249 0.154594 7.86141e-20)
(1.09108 0.170706 5.3369e-20)
(1.07811 0.712562 4.01295e-22)
(0.898421 -0.428509 6.74092e-20)
(1.4488 0.179456 3.9914e-20)
(1.12834 0.00369657 -7.18698e-22)
(0.0153404 -0.0369675 9.44961e-20)
(1.07674 -0.69447 2.25116e-20)
(0.864985 -0.710081 5.70772e-20)
(0.249028 -0.316106 0)
(0.971307 -0.144197 7.52147e-20)
(0.365136 0.323324 -4.40914e-19)
(-0.1404 0.186023 1.8899e-20)
(0.229636 0.0560091 2.0974e-20)
(0.69069 -0.0541814 -7.49002e-20)
(1.08689 0.538797 0)
(0.991291 0.225212 8.19446e-20)
(1.087 0.0287712 3.55178e-21)
(0.918033 0.452532 -9.13759e-20)
(0.776517 -0.717626 -9.26324e-21)
(0.931009 0.0283114 -4.9755e-20)
(0.984164 0.49945 0)
(1.28414 0.15108 -1.51404e-20)
(1.37418 -0.506575 1.26236e-20)
(1.22122 -0.332982 9.28529e-21)
(-0.168625 0.150659 3.94842e-20)
(0.194634 0.0215394 -1.83099e-20)
(0.971413 -0.114581 -5.90337e-20)
(0.357855 0.538692 0)
(0.920588 0.0224028 3.96446e-20)
(1.16267 0.643187 7.87642e-20)
(-0.119527 0.0431093 1.371e-19)
(-0.0565595 0.123432 -2.46554e-20)
(-0.0944788 0.0293212 3.99976e-20)
(1.09781 0.02044 -4.76146e-21)
(1.13077 -0.456746 0)
(1.05936 -0.724234 -4.63856e-20)
(0.702787 0.360403 0)
(-0.00733031 0.0580539 -9.82073e-20)
(1.09624 0.037234 3.66408e-21)
(-0.0361846 -0.00579674 -2.83661e-20)
(1.049 0.0559775 -1.24085e-20)
(0.0954012 0.0321307 5.21595e-20)
(0.842067 0.131347 0)
(1.33751 -0.0611886 3.03868e-20)
(0.0515038 0.0753265 -2.38134e-20)
(-0.187068 0.209985 -4.6903e-20)
(-0.269606 0.232131 0)
(0.0962023 -0.00843871 0)
(1.30013 -0.0423781 -8.01309e-21)
(0.393852 -0.00642332 1.54703e-19)
(1.26001 -0.717791 -1.80814e-20)
(1.01337 -0.179307 4.32895e-20)
(1.07498 0.253604 -3.10239e-20)
(0.363966 -0.544678 1.4331e-19)
(1.56135 0.286466 -3.33556e-20)
(0.0738017 -0.0299556 3.65984e-20)
(0.210354 0.321728 1.96539e-19)
(0.112634 -0.0134653 -1.37173e-19)
(0.937964 -0.484107 -4.45123e-20)
(1.46105 0.394592 3.38065e-20)
(0.561245 -0.666251 5.09927e-20)
(1.10523 -0.082708 -7.77308e-21)
(0.173177 0.131992 5.25672e-20)
(1.18282 0.296563 -4.60936e-20)
(0.667649 0.652342 -4.03681e-20)
(1.33292 -0.616464 0)
(1.42354 0.52669 3.30058e-20)
(1.04691 -0.520151 -1.22707e-20)
(1.39643 0.614375 -9.82661e-20)
(1.19596 0.0170561 0)
(-0.0529922 0.096607 0)
(1.26012 0.738846 0)
(1.28935 0.0448395 -9.32076e-22)
(0.737753 -0.292587 -2.10401e-19)
(0.477597 -0.0708054 0)
(-0.0494072 0.122397 -2.49149e-20)
(1.02129 -0.24225 1.02551e-19)
(-0.284869 0.0288613 0)
(0.322479 0.0402634 1.23713e-20)
(1.15996 0.0306466 0)
(1.4199 0.282383 0)
(1.20486 0.0524093 1.31265e-21)
(0.360048 -0.27825 0)
(1.0136 0.152042 3.84385e-20)
(1.31214 0.291522 0)
(-0.0662679 0.137989 -3.06617e-23)
(0.809376 -0.386649 0)
(1.52671 0.344055 -5.03716e-20)
(1.24569 0.376126 1.24072e-21)
(0.848381 0.658844 -9.802e-21)
(1.01255 0.158561 -9.03961e-20)
(0.966599 -0.199049 -4.96893e-20)
(1.46059 0.300218 2.96772e-20)
(1.02012 0.126525 0)
(0.564873 -0.0607692 0)
)
;

boundaryField
{
    FrontBack
    {
        type            empty;
    }
    Top
    {
        type            noSlip;
    }
    In
    {
        type            fixedValue;
        value           uniform (1 0 0);
    }
    Bottom
    {
        type            noSlip;
    }
    Out
    {
        type            zeroGradient;
    }
    circle
    {
        type            noSlip;
    }
}


// ************************************************************************* //
