/*--------------------------------*- C++ -*----------------------------------*\
| =========                 |                                                 |
| \\      /  F ield         | OpenFOAM: The Open Source CFD Toolbox           |
|  \\    /   O peration     | Version:  2412                                  |
|   \\  /    A nd           | Website:  www.openfoam.com                      |
|    \\/     M anipulation  |                                                 |
\*---------------------------------------------------------------------------*/
FoamFile
{
    version     2.0;
    format      ascii;
    arch        "LSB;label=32;scalar=64";
    class       volScalarField;
    location    "194";
    object      p;
}
// * * * * * * * * * * * * * * * * * * * * * * * * * * * * * * * * * * * * * //

dimensions      [0 2 -2 0 0 0 0];

internalField   nonuniform List<scalar> 
808
(
-0.03587238889212422
0.04490274925576224
-0.01162148296794253
0.03506140192486234
-0.3035717244430911
-0.05481855129855684
-0.01469802058747386
-0.02398995218284524
-0.2000356189455797
-0.0856641666944158
-0.009857295512080139
-0.2576562346283531
-0.03060535130869552
-0.01310846508617946
-0.1203440628224044
-0.01407706266835495
-0.1381954942289119
-0.01360140933691933
-0.01236098447282231
-0.05693407137881344
-0.006172012049977186
0.1182116302273962
-0.06103231304423072
-0.07338853818283392
0.1764548162425849
-0.09964618263843772
-0.155202745629835
-0.0203181579375064
-0.01736967765060087
-0.02591279597424611
-0.02019587400386788
-0.05985081935978711
-0.02288528192264011
-0.01682239264741429
-0.1012586927692289
0.3439198217847779
-0.03871522959587624
-0.01667299514005865
-0.02325887525703363
-0.02655791972135191
-0.09199109039906631
-0.1290518952141017
-0.05095512704857935
-0.0207945304340354
-0.05436769947733591
-0.04006093957691633
-0.01228296126774965
-0.1875698738135192
-0.02757028945987989
-0.2074174300491652
-0.01630846143371439
-0.068947958668077
-0.05967887656318075
-0.01445569143446706
-0.1906655262971252
-0.02894296664990677
-0.01050985757429927
-0.01385707347464626
-0.1023972955433254
-0.04063502956445558
-0.1012509573972948
-0.1285624754390967
-0.01354821770596529
-0.1309280781027772
-0.01711038392989192
-0.05076058335569681
-0.1679039849329735
-0.03562769753266369
-0.01484363078441283
-0.4459038047934284
-0.02694007332431034
-0.3073586704063047
-0.02199759148830378
-0.02056111976267355
-0.06746520235056128
-0.01740598097227589
-0.04348556705262913
-0.3590157261320968
-0.03561507319356478
0.042016019852277
-0.09041334204829612
-0.0172521925740561
0.05685007830530946
0.04343521206873536
-0.01663555078017481
-0.05326176336844633
-0.5485349241697713
-0.2231232275753462
-0.05338325740702252
-0.111593596530534
-0.05800888260339886
-0.1350433573566162
0.04058554132953618
-0.02399292635137732
-0.06073005705192189
-0.1214240206455043
-0.0384652661748808
-0.05180254543552729
-0.1183048251731416
-0.1413132344072624
-0.05224812230622009
-0.04835554757710563
-0.05561251706157763
-0.04574329778214246
-0.05793568426890982
-0.07341089515394393
-0.04089600078918999
-0.01106575034084891
-0.04103806912143833
-0.1266759947460371
-0.0512020372546054
0.08325942012040487
-0.04309601958387006
-0.007899562752759033
-0.02778797413588639
0.180071396919353
-0.0398243431147673
-0.273260857849886
-0.02039978999908488
-0.05485278196758678
-0.03007373787756592
-0.04799966905641035
0.01261870303902682
-0.05008444086910388
-0.03419695006816992
-0.2143709819257386
-0.04288944311275696
-0.004885532116384895
-0.07772507554288802
-0.06771889767142153
-0.1507728068162845
-0.02105467550606157
-0.07660026578852912
-0.04129247001194611
-0.02281102989206015
-0.01656884144903799
-0.006300301968575291
-0.007497257794474275
-0.05311630564520181
-0.05093263224564142
-0.2078503576146344
-0.05810224749736762
-0.008538583779812306
-0.02273677956527967
-0.1451021082013599
-0.002139156140032581
-0.07778243025887911
-0.02374623066088512
-0.001053549504973766
-0.01015209349037738
-0.03386340544975202
0.09548588034728937
-0.03978788218986046
0.252669343715766
-0.2614379584327782
-0.1305768085287217
-0.03728239415432764
-0.09124356768255269
-0.009074645921586058
-0.1119643092644454
-0.1829187528601039
-0.2123476791517638
-0.1842850809348145
0.05538201288085107
-0.06199747056976417
-0.02033562363639248
-0.06791802758914944
-0.1749396872277186
-0.02387598146580441
-0.0186472866431156
-0.05330636147687053
-0.01819277482618679
-0.006084352693384849
-0.1105729912685375
-0.02291364566306636
-0.04665699445516316
-0.06895765807520811
-0.1640098955238249
-0.03369377011321214
-0.3952489933897056
-0.01780256295607347
-0.2227380481024034
-0.04543143593348161
0.03053418139063857
-0.1047262305863576
-0.01434548400123605
-0.04175263509679795
-0.1062270571254076
-0.01775127850983327
-0.0973392810637299
-0.2039478116642209
-0.07307468957372627
-0.02380843457583105
-0.04985989117056352
-0.04381414238084774
-0.2027932413023827
-0.02194968993802758
-0.01902392997837171
-0.0113752899106784
-0.0548081478302883
-0.05205157334966413
-0.02250941419735771
-0.02079128575802815
-0.2457656169584171
0.1279494764464728
-0.2008763526409354
-0.2065715274967096
-0.01176317891959768
-0.01159761054996307
-0.06766040378470124
-0.009490574104572451
-0.5116129450919287
-0.1253727217326182
-0.01907468056762525
-0.001606143796809142
-0.02425446047179029
-0.2865553647951417
-0.273804806687212
-0.007261495485687431
-0.0178826874913058
-0.002346803899992203
-0.3443004130183192
-0.02833712316968041
-0.02922145554260411
-0.01255177178491132
-0.01973262409500865
0.05084448606752434
-0.1136870747797522
-0.01375457019199118
-0.02076192960652284
-0.04311347143049845
-0.01823857697899745
-0.01620340456516474
-0.02337955953822274
-0.06687743771858871
-0.01177215825746959
-0.0190418414013018
-0.008640771348196968
-0.001054632156847922
-0.02951444007562811
-0.001650637630559965
-0.002242184587483627
-0.006076543718604623
-0.02559481230534115
-0.008058906683538446
0.001628779676957786
-0.004106391404912153
0.001112766060638634
0.002440245730846668
-0.008542600993581765
-0.1390810581290188
-0.003019018097951157
-0.0008432835414038639
-0.0481794787234598
-0.02144200716194682
-0.02484016291400153
-0.01428580229090857
-0.00609523466960317
-0.02093965982553003
-0.03750408850159868
-0.01428325169043097
-0.01270725747441984
-0.01201081499433197
0.005885236336162353
-0.01011493522483785
-0.01245879126742714
-0.01124720229142979
-0.01065559192549974
-0.009999795509881103
-0.0111240324272448
-0.01404757625815169
-0.3077327379675279
0.06096054433313445
-0.01517829968810842
-0.01673790994373964
-0.0129132878064634
-0.01254624655550561
-0.008605372001860711
-0.09901856335970073
0.008942174561756928
-0.01398785511913996
-0.01469100339003671
-0.01083127443645077
-0.05331410313669321
-0.009174534988876028
-0.01397357421188982
-0.009143717195654851
-0.001431886536786374
-0.009840534972272365
-0.01054970649093358
-0.02485801975376198
-0.0162530756877435
-0.01208641268259768
-0.01330828588771941
-0.008751382064444891
-0.01320678493516236
-0.01132294620257902
-0.05739864177813796
-0.01290293843972412
-0.01169578354733638
-0.008755585757190681
-0.01498716175428285
-0.01413903031364307
-0.01574781865796175
-1.381070538167114
-0.09837852455524111
-0.01266687888183447
0.02240080409006078
-0.1659618354337552
-0.09351427234390546
-0.01138264444465439
-0.01410700035008408
-0.2569959367858023
-0.030873837436884
-0.02053201096700365
-0.01106162479865768
-0.01982213797027627
-0.01123956812945855
-0.03069284933498387
-0.4159446163441735
-0.01219110736301529
-0.0140941611138116
-0.004851865165806796
-0.01040968184121629
-0.009260592299368103
-0.0143214483237279
-0.009690424776429405
-0.02631395774864444
-0.01130965594437302
-0.1607277241654611
0.01742546227361377
-0.007763450006205644
0.002855698140004277
0.01256381072835194
-0.04743295419072781
0.02980756952232274
-0.01273695908588718
-0.1362077301290879
0.281912565682956
-0.007472965311674886
-0.01312671818378453
-0.008403378847203716
-0.03336150049606978
-0.122479609001145
-0.0132998551808788
-0.01236470157420677
-0.01712865413067471
-0.01364334422859462
-0.04102228921579113
-0.2140511615105222
-0.01132026363154483
-0.04128255835988417
-0.03980955835583952
-0.1667234761908633
-0.1632283348165909
-0.1482260372180968
-0.259528309955771
-0.006413053577190043
-0.02127176319679145
-0.0147166551934923
-0.0129612156317157
-0.0328888844805735
-0.02438348969378
-0.01445316485949318
-0.01505204241304797
-1.083474327474244
-0.004519751851308919
-0.01378732966136024
-0.01839490999985587
-0.01782155757243047
0.003888864189754255
-0.01391288788416297
-0.02790481928692047
-0.1670265435845285
-0.01356330548494229
-0.02196837489938661
-0.01404639747026312
0.002110775326384372
-0.1788270663779691
-0.01338263397769812
-0.1452608318111675
-0.01602982879351295
0.009868330100985361
-0.01445253440019813
-0.02320930476059998
-0.01586703613051612
0.005544816063703974
-0.2775077657771942
-0.02563182321166311
-0.01620465655455454
-0.008574039362652322
-0.00955331148272397
-0.03055452545468529
-0.01434128603063903
-0.0205135313687411
-0.02133058375829237
0.01005297790404269
-0.101191438186483
-0.02211067158816249
0.009234942127901258
-0.05100836292731099
0.1584870668290001
-0.1028899244864603
-0.322521603681157
-0.03012923198829062
-0.02543590160890502
0.1487614590667087
0.09055702731638846
-0.003299184166905578
0.05044029096746557
-0.01574164713373795
-0.01445059075617808
0.00224673946613814
0.01181126744618537
-0.06718209486996168
-0.005319915913985722
-0.05763408576886659
-0.02243113223726102
-0.01570222331569302
-0.03651945603019831
-0.03292333584906798
-0.006652530665308642
-0.01486293923680084
-0.03938020170085126
0.03600276491500395
-0.03884907281860307
-0.01351494362312
-0.1162771460982027
-0.03184923328391361
-0.03860367178110752
-0.6787615830529923
0.01711184774436768
-0.01113746669502795
-0.00525566464739682
0.1669682221912624
-0.08696530441859979
-0.03507609803755098
-0.2475706122294452
-0.01641196463876257
-0.01658908727578392
0.06152087288898574
-0.185665567605897
-0.2251234596481924
-0.1970755643289746
-0.6875872880895727
0.008440799382676875
-0.01818113407596917
-0.01618236803084748
-0.0817660399168503
0.1175921693513155
-0.021388548463671
-0.2508909183516617
-0.03506363349852298
-0.006463900667955894
0.2762446623030796
-0.01119961577726327
-0.09404675672583493
-0.1487318352874109
-0.004758158841414808
-0.04050709226983715
-0.04517334844753754
-0.2047248195612893
-0.008889081907114118
-0.04233534051596247
-0.002849711031054229
-0.5522975219159509
-0.2009063498713795
-0.1753755596252962
-0.02283983945696031
-0.00711920846787601
-0.05994822362360233
-0.05834474424679716
-0.01542488957453681
-0.06753686808435506
0.003309403880793737
-0.01833951915542042
-0.09573593121374176
-0.2671692420616377
-0.008210195167139816
-0.02607561801123811
-0.02206993547340622
-0.07422462201069972
-0.09133584059267778
-0.08776206828768471
-0.01136563465280634
-0.9272445964077674
0.160392341999035
-0.08079274349344481
-0.2579750710207489
-0.04265230409441487
-0.01017067120127105
-0.2484709509266889
-0.1836131022747156
-0.033428705846923
-0.1242632305374194
-0.01832060514343557
0.5622400821274552
-0.02394874176380862
-0.226985701608163
-0.02620716647210897
-0.005030902474924564
-0.01177605960480921
-1.256905666712081
-0.1845120412608131
-0.2344508750088045
0.005412749113303136
-0.03704076447229076
-0.2496154230553575
-0.06539541341700808
-0.05096572359755375
-0.1415248589327414
-0.19300525058472
-0.06778137199799127
-1.231658416512582
-0.1467903498566663
-0.5205975857681986
0.07829674702357783
-0.007082615439595268
-0.02199654584087473
-0.04255322827899522
-0.04089683105708384
-0.02873976504473185
-0.1323122609635424
0.07960969298833734
-0.003631123007813363
-0.009696071279657586
-0.5796404773279764
-0.8649295899377097
-0.1863102104960392
-0.008066166964337816
-0.1342836253906092
0.0009428192333490401
-0.0007920983578011433
-0.00203396288869646
-0.06024544099877908
-0.2395826000363424
-0.01345848341883957
-0.1216113296040196
-0.1544316794141805
-0.01322721509205064
-0.03593384876242108
0.02209109574303873
-0.05730682875578496
-0.06968254750060567
-0.5035323370265868
-0.2481713895523788
-0.08129067020804696
-0.07240901133320875
-0.01991678831007573
-0.1198651382723117
-0.155633265138827
-0.07667060078882358
0.02541721068557895
-0.08435120761348423
-0.04801063902877213
-0.01493586847546045
-0.110110622415337
-0.2724103756834788
-0.05670079785086195
-0.01854082641573566
0.001293085233727153
-0.01011793107699471
-0.01112310958098784
-0.2202789713224898
-0.0147726655499997
-0.2230658782873556
-0.0105852153077092
-0.0653637307543157
-0.003487814003606137
-0.02319170768475078
-0.3779607342631082
-0.9076720228763997
-0.01131318052550248
-1.051775001437348
-0.6142753602225509
-0.01078794711786453
-0.6526858169061186
-0.1761171196230011
-0.005431922169987674
-0.1299840404041413
-0.01715270624298941
-0.1214237748083982
-0.06764817398971062
-0.07490939287926514
-0.005354920747408671
-0.002916925583881857
-1.333189341561712
-0.01107802610633492
-0.1888672174159118
0.0005331320227904001
-1.015876773128081
-1.23034378491346
-0.08195920150992511
0.02012305737399256
0.1642409877858236
-0.004847680374813384
-0.02301620405080695
-0.00427454198677793
-0.2515934297270286
0.3661422944604363
-0.04089849020151003
-0.2101530539955256
-0.0149994778232376
-0.659481625295653
-0.07539545166669827
0.1915650524622365
-0.2860622184066492
-0.04982735769474691
-0.06875568866075171
-0.01585091438615235
-0.02171324483566432
-0.5750468729022958
-0.1452139732518987
-0.08730778051369345
-0.1264287430243562
-0.558197623436038
-0.04421263539923771
-0.9113897816188359
-0.0007535806073312942
-0.23747486668584
-1.044626304540243
0.170340007226548
0.2927411326799887
-0.1797855800737597
-0.1941551429345138
-0.2061815348000968
-0.06834591737969425
0.02336245409876308
0.05076416038968701
0.004319150186731255
-0.1631874572900155
0.02498632193146137
-1.352051944618919
-0.08508441876086456
-0.4718980686063177
-0.3286512875902125
-0.2053195337460871
-0.175558159991469
-0.01693098331983548
-0.01543946535774034
-0.1037323821806042
0.1698929586621219
0.3858514058945768
-0.2217371351389927
-0.1440808718546233
-0.2408963359856297
-0.06244297674155091
-0.1529448703743644
-0.1634864161513655
-0.1254215214035923
-0.1192202293918364
0.4674641782640547
-0.2697055154684934
0.4297945093398304
-0.6006093833502082
0.07017234928264074
-0.2032246992369582
-0.06604906351969861
-0.07371599015054307
-0.8764004524469329
-0.2235072952343631
-0.189191712432124
-0.3461938339853194
-0.4567884241218229
0.5706036915404037
-0.2046861086690067
-0.0001046938623024645
-0.07117084950477109
0.3427277875700812
-0.03785450350543443
-0.126663022357772
-0.1783396692057173
-0.06399854386868002
-0.01649511651616807
-0.1932480362151699
0.1917133888749249
-0.01272239981178145
-0.09611650365801545
-0.1680903833186495
-0.3122389028634001
-0.3142773351871488
-0.06762220588871642
-0.01020261014313901
-0.07587460787289163
-0.658047576791619
-0.6663784861306691
-0.3376994268490652
-0.0576421995118158
-0.05225932196950503
-0.02543561730610568
-0.06745375119562709
-0.05818611848948308
-0.3583967401534381
-0.9535531433135362
-0.009894171076187945
-0.08279363451674754
-1.133930956677504
-1.028746895699528
-0.1033318715362041
-0.03826813644249592
-0.07028230067240074
0.3913652929605319
-0.3455926883404136
-0.05153013820093962
-0.5963704755760747
-0.125670405649739
-0.2540197673166672
-0.2089879227989858
0.4744348480906784
-0.62585316308579
0.07209255846788235
-0.02956997878903613
-0.5565384706302661
-0.05126151672826072
-0.3591717262823321
0.105987953539762
-0.189695221418562
-0.05974010164345159
-0.1354241021465366
-0.3642573545537505
-0.0896948262990187
0.513572364330511
0.08500674761819248
0.4714719391327362
-0.1143319528086268
-0.1992459963355236
-0.5224723088741565
-0.1295449528373939
0.02709523019054524
-0.05340629547210795
0.1034712820463675
-0.3100770649434795
0.2361165385069245
0.009194471062127459
-0.003321692796728667
-0.515371632142
-0.1864048072586995
-0.09000785522577748
0.5812429841716511
0.1381505044808349
0.3471222826428387
0.2257477962788108
-0.5588979981883037
-0.2128912405820477
-0.219137308639505
-0.2390704031552636
-0.06018665738414354
-0.6968187560430006
-0.19554015879377
0.306625935872911
-0.2093884158586905
-0.01108352547345164
-0.1725716557413924
-0.009298385968624848
-0.1588591639384013
-0.4340961900991951
-0.07706896784035935
-0.1969717862572377
-0.07256008546228571
-0.09471590539668323
-0.1433277170595676
-0.07370489042189703
-0.4546479282284558
-0.4170990485079751
-0.02710583622060318
-0.0740736819087436
0.3257242640602391
-0.2462045796342943
-0.1836873768377762
0.5260591062352781
-0.2062858090756151
0.01704913221990071
-0.4478215068971317
0.04480677077171476
-0.06245454781060356
-0.1550098043541614
-0.5809152212359419
0.1628079811841099
-0.583017187534156
-0.5321807347714532
-0.1069490586955025
-0.5050133812274163
-0.03740853499151694
-0.1434548760841538
-0.4078431794782937
-0.01635254638341752
0.2858996721426652
0.4893056316407468
-0.1587837768656151
-0.008609544292149099
-0.06947791745388177
0.5253359640926317
-0.0334634242607643
-0.4373994224515896
-0.03274924593807448
0.4599474995846332
-0.01459369739339717
-0.5414213070563051
-0.2427987739476696
0.1752178537567057
-0.3089936994866346
-0.1777371285817603
0.05256224366268674
0.03382065734587537
0.05387831866636598
-0.2979095450953208
-0.1567404912196787
0.412684780606138
)
;

boundaryField
{
    FrontBack
    {
        type            empty;
    }
    Top
    {
        type            zeroGradient;
    }
    In
    {
        type            zeroGradient;
    }
    Bottom
    {
        type            zeroGradient;
    }
    Out
    {
        type            fixedValue;
        value           uniform 0;
    }
    circle
    {
        type            zeroGradient;
    }
}


// ************************************************************************* //
