/*--------------------------------*- C++ -*----------------------------------*\
| =========                 |                                                 |
| \\      /  F ield         | OpenFOAM: The Open Source CFD Toolbox           |
|  \\    /   O peration     | Version:  2412                                  |
|   \\  /    A nd           | Website:  www.openfoam.com                      |
|    \\/     M anipulation  |                                                 |
\*---------------------------------------------------------------------------*/
FoamFile
{
    version     2.0;
    format      ascii;
    arch        "LSB;label=32;scalar=64";
    class       surfaceScalarField;
    location    "724";
    object      phi;
}
// * * * * * * * * * * * * * * * * * * * * * * * * * * * * * * * * * * * * * //

dimensions      [0 3 -1 0 0 0 0];

oriented        oriented;

internalField   nonuniform List<scalar> 
1171
(
-0.9279380245850893
0.927938024559198
0.7873264028669844
-1.098844640279322
0.3115182378844477
-0.1942136162858623
-0.7657966312333613
0.9600102473242363
0.07206199054961036
-0.1169096465721743
-0.2118659763027646
0.3287756214328314
-0.787326413989315
0.06939347070412306
0.717932943312948
0.8112742269356907
-0.1775027716811546
-0.6337714555145768
0.874412858680518
-1.043678072257591
0.1692652136545493
-0.2849355120119579
-0.0974090537276146
0.3823445662096175
-0.03586213279783318
0.5485171991992388
-0.5126550664801248
-0.5035750870818356
0.8261650899123832
-0.3225900024801075
-0.4018451613653927
1.045934767210682
-0.1715219107219417
0.3953272042375174
0.04762124453965016
-0.4429484513103516
1.046328823260034
-0.0003940573669077846
0.4448399665880176
-0.04951275024394082
1.056984039947382
-0.01065521451759043
0.577500321744721
-0.7717139419330055
-0.7244754972569507
0.5571532638792269
0.1673222332495229
0.2219007173993959
-0.7254758003869116
0.5505693187164155
-0.9228294527498861
0.3722601328969764
-1.094162067663163
0.6863717614753273
0.4077903062972677
-0.5953867268310303
0.5595245949108675
0.01830098472638611
-0.2570933150343471
0.2387923295037855
-0.02454788399306112
-0.5216175812883649
0.5461654636119087
0.4000750822394825
-0.4974841361072179
-0.9187620914887106
0.941394101040101
-0.022632009432537
1.067568201066397
-0.01058416091363239
0.9351273464462664
-1.11689465724863
0.1817673107148158
1.067171471609135
0.0003967320646364509
-0.6643801664935676
-0.06009533409022409
1.262229067738272
-0.864323493736551
-0.3979055740292151
0.1484093840440927
-0.1088745405694101
-0.3262701394928871
0.4351446805292507
-0.2857625182676014
0.1909354844646103
0.09482703426255126
-0.5834291622395468
-0.5154154704726774
1.014045344623646
-0.07891799822484667
0.00994961429530997
0.8254311739421762
-0.8353807881936988
0.5718786349519694
0.6903504271234696
0.4396426491549518
-0.03020083071991577
0.4302759125697765
-0.80766557961372
-0.102574441199907
0.9102400206307216
0.5026055184699367
0.2536888492094998
-0.7562943676187984
0.004492642528918943
0.5279857904740447
-0.5324784342386433
-0.4898486995361745
-0.6043133683017439
-0.4228880186223478
-0.6940066406069636
-0.02719511867000942
0.2700635044105718
-0.2428683844142457
-0.9247973847934238
-0.00513949494292002
0.9299368798087697
0.3082057947956001
0.07413876889097289
0.7624042293746008
0.0488700090007036
-0.5331385057612616
-0.06224822117077457
0.04631531936681414
-0.8539809005065323
0.07539592019443915
0.8624823033720417
-0.93787822348998
-0.3473227333557798
-0.04148181541145623
0.388804549454938
-0.6823304715824908
-0.2424669153974698
-0.6314630995444861
0.7068590209289847
0.6094322904684998
0.216732801916209
-0.5428559007170173
0.946114667820706
-0.7794087055737086
-0.1667059621515316
0.02243085526341217
-0.01769598849641643
-0.004734868153648913
-0.4029571828935761
-0.09452695508246249
-0.241462311823436
0.8508946066635767
0.04616996415569809
0.3353337516508146
-0.3815037150452548
-0.4602023482022433
0.9628078679383569
0.6801136444092882
-0.7826880862901054
0.3196248857120384
-0.01735792760808062
-0.3022669563384648
0.9306886977079917
-0.9306886976802785
-0.7827923415435959
0.1106564960005782
-0.3225224699956743
-0.7500428368325858
0.7599924502974166
-0.09015871694999679
-0.1429408178113424
0.2330995360311039
0.8650023271691921
-0.03957115565592258
1.054253893436148
-0.8005650427091162
0.1859411780703023
-0.3154166380160016
0.1294754593893258
0.8594387351594539
-0.09703450444153293
-0.611843723530139
-0.03923345546398875
0.6510771790396414
0.1238635371824555
-0.2312158720161641
0.1073523334800685
0.8056919103802318
-0.9831946716343554
-0.435508590415418
0.3296951641168793
0.1058134251772147
0.5313008879498422
-0.5558487638700975
1.022087568820846
-0.4562404978624854
-0.5658470709152124
0.5991995546157947
-0.7193681084526807
0.06682349170136455
0.6525446170469122
0.1031443707417239
0.5704863339637045
0.05490107796316587
-0.6253874121834082
0.1940664345949321
-0.08340993771003707
-0.4933013468587593
0.1459786154191114
0.05034478574409856
-0.8868487495439005
0.8365039637162515
-0.4739963235868891
-0.7134968837109141
0.04911671717591146
0.4367829737060686
-0.006507057322876604
0.2998390069367101
-0.8552358795015138
0.5553968724052488
0.4157119799763673
0.5842880198748009
0.5605201878916958
-0.5142048677383666
-0.3657948524037029
0.03463709421724776
0.3311577619380755
0.6813819535969907
0.2493067395767303
-0.5658785831092542
0.5703712246247136
0.1105128244692331
0.8750853893026292
0.01022481158124473
-0.6220685392607043
-0.7493326002707464
0.7996773857773082
0.5312528755673602
0.07098727941757701
0.3018855311122694
-0.3728728109453759
-0.1676091390130731
0.4414436677378143
0.08654213197292693
0.876436219397581
-0.7977038510887504
-0.07873236836746654
0.6354306356527158
0.3106840303220034
-0.4301523051519028
0.5753706265869035
-0.5043833545378749
0.4172076008903285
0.1333617178691942
-0.04689984233620531
-0.5908977368310977
-0.1376201411995402
0.7285178779954602
-0.1497218414616318
-0.7809668614621241
-0.6110173275196311
0.3607859337330915
0.2502313952955137
0.6222671730278271
-0.6120423628155024
0.2386169023374543
1.011354806423994
0.04289908821979717
-0.7493325988000664
0.2256868854852731
-0.2032560200673784
0.680113637727194
0.8020821776560383
-0.8020821775412668
0.8377320264486338
-0.833341440731369
-0.004390585774988144
-0.4453894329914357
0.861101416130911
-0.1476025945057477
-0.3456987541947029
0.7347033717111934
-0.6684523188147191
-0.06625105284282319
-0.7312392704925218
0.1403415344263773
0.1386672356719744
-0.6718057423497238
0.7826880739555053
-0.9502972128896724
-0.3656093759186471
0.2904760025463546
0.07513337775122099
0.1459621817669698
-1.009541345445613
0.8635791636785306
0.4810067265113967
-0.04136407724963005
-0.3081953534186155
0.5864978026573785
-0.2783024494690219
-0.7383178804848358
0.8842800596985937
-0.1571415379448836
0.7342781023806693
-0.8409162987383306
0.1066381965659186
0.9774460310299958
-0.5419250435024441
-0.4355209873651523
0.7551823355336496
-0.06491527983050335
-0.03351931872189335
0.1877547556623876
-0.1542354368630191
-0.7757451062050297
-0.8463522879220315
0.08055564923025553
-0.7500428381280945
0.5139818092498726
-0.5554636173647832
0.09009865120679007
0.7198325646159653
-0.8099312160321852
0.7537231842478469
0.1742148433605319
0.5028767082477028
0.4971232917806527
-0.05071237439207824
-0.6065894673442053
0.6573018404490703
0.8820799905691102
-0.005643766336984909
-0.7551823355495948
0.7996773916734029
0.1909890415864964
-0.4480823507436968
0.0206782658478919
0.001634956453733489
-0.02231322742443087
0.589064789778635
-0.4384858939143329
-0.1505788967351153
0.7179329490124174
0.01368703561009993
-0.1120741865360175
0.4371558624928289
0.1519089170320897
-0.01407868913926101
-0.005653085433092871
0.0197317744393672
-0.03332621483026946
-0.0001931129973349777
0.2431227349156962
-0.260480657513133
-0.9592237152385863
0.00181345805892084
-0.1595463235720382
-0.1224866435504539
0.09455608672200543
0.7213455574460951
0.7290521392016773
-0.1447641198222696
0.6620769665194114
-0.5719783167104501
-0.2117787170693071
0.3977198927321617
0.6954187945441499
0.02251415453210284
0.2416063922969857
-1.074947827550355
-0.9502972203194564
0.3016987337823738
0.7599924485706823
-0.2086071396859786
0.06566632749002181
-0.723159014987988
0.9098960073224031
-0.186736992257196
0.4161641780117918
-0.02735961986502549
0.7715886861638719
0.2806318972517515
0.3717602019527608
0.07307975644799551
-0.6586883281776943
0.6586883281989058
0.2146782031272642
0.6955618134333007
-0.05486890664413095
0.3902026501412021
0.3802757623380515
-0.01488003325105174
0.03555829975719596
0.4494822822374764
0.03152444399390187
-0.7383178831212063
0.5341387158971445
0.2005646556985367
0.3063030757682718
-0.1185483110012893
-0.6954187959681816
0.1800989136590707
0.7297970946086838
-0.01018997093864863
-0.8137071463064841
0.8238971172663827
0.6962676293304138
-0.7921094862630077
0.09584185679802069
-0.7537231846517065
-0.1498357497668366
0.2109366768795573
-0.06110092623215416
0.07717054902855842
-0.1799315771532592
-0.1122190014244314
0.2921505763855175
-0.008451442011996737
-0.005627260437530399
0.7065212123264036
-0.7167111857847676
0.8845061301963737
0.07550411045820882
-0.3140461288340921
-0.5181061306980601
0.8321522595607697
0.1029509659651644
-0.1029509702928343
0.3251130867199682
0.4767006684299991
0.6131641408401932
-1.08986480918837
-0.19414538420138
-0.5856577367771965
0.7798031209634393
0.01266402222786609
0.220435518352416
0.3773219256383728
-0.2534583837201164
1.012712601258107
-0.5360119317251369
0.6641576151237082
0.9942653466145325
-0.3811012044717115
0.2297193253574814
0.8842800582898664
0.7127581476170812
0.2136645296349896
0.727729574361598
-0.7809668643447178
0.3413116886894721
-0.276909737402343
0.2450274729466516
0.03188226903316766
0.8488415431060443
-0.01408063482779884
-0.8347609086362253
-0.7021029361221535
0.7024996697960471
0.5546105705467197
-0.7021029345679849
-0.7127581475761738
0.7024996714665024
-0.03457771118843551
0.9042456968166399
-0.01973956712508975
-0.68138194770269
0.6123520030687917
0.06902994467254592
0.5388736975621048
0.5372731371343086
-1.076146834761886
0.4922627060092581
0.5204498952729534
0.5431521745937197
0.4598471766052407
-1.002999351284347
0.498779076127191
0.4954862700283131
0.6123519990011956
-0.5255793812578241
-0.4652166114729629
-0.5561954835887289
-0.51968743553108
-0.1210837348441816
-0.01224311531681961
0.01224311655174811
0.5122294173085149
0.5230055130875633
-1.042692948712889
0.575568090287125
-0.2736825682469517
-0.8852944952936663
0.3433694491544365
-0.6329210898794271
0.3904541736593263
0.001888004380941982
-0.8307381010694401
0.8288500968673093
0.4208567799328273
-0.01760190447602036
0.8664434460520227
-0.9455092267474148
-0.8349555074796351
0.05562803908550891
0.7793274686163371
0.5586927512543328
-0.43754014204538
-0.121152609511891
0.649955009516243
-0.7288730103414688
0.8841451315919036
-0.8324852988084636
-0.05165983243927925
-0.009115124340933863
-0.7885887246292956
-0.10973713378648
0.7150976430948239
-0.605360509288827
-0.93636600288579
0.9272508814347398
-0.7317960619106243
0.6914919064942631
0.04030415554909438
-0.808084090528466
0.03711753532179388
0.7709665553328198
0.06162925132572552
0.04132171681151579
0.4332007307905829
0.06136408603151556
-0.8508329202345477
0.7894688341223398
-0.6423306178383312
0.5916182397446078
0.8907751335045812
0.06998673086002558
-0.9607618642896157
0.05581962564912357
-0.04752961138113665
0.3786873784068379
-0.3812187588893345
0.06580211644369141
0.8422298805123252
-0.8403418713416784
-0.7325799779027984
-0.8088329834859448
0.02024426107051845
-0.1651458003448199
-0.8520665388914048
0.01958124582973332
0.6251578661688296
0.03691909920184641
0.02806375838361121
0.5306289955509379
-0.8069208975844336
0.8440384350275585
0.5658470667114706
-0.8483400012101505
-0.866379272130433
0.03786642328120766
-0.03946757877701128
0.8377742939631571
-0.7983067150858364
-0.0232164381639175
-0.7720475568276913
0.5443516923841086
0.1519159318491943
-0.03085340008751257
0.8972968481143379
0.9828789209466693
0.8614170740028881
-0.8418358248953084
0.1473489206084619
-0.147348921872402
-0.1186928889335579
-0.4814269042893496
0.04388676084320705
0.2709908903114414
0.03070784388614842
0.385447239923505
0.8740804107881106
0.002891503182733784
-0.01134294077164568
0.6586167993165419
0.3413832006911793
0.7835086204263917
-0.5834291590873764
-0.7780508872617133
-0.8123873493463751
-0.6798676663345441
0.6798676663726984
-0.1677298616017746
-0.1547926165686015
0.6015862883464185
-0.8121173745107186
0.2105310862286607
-0.4936951749329364
-0.5690007427978473
0.2782384330956069
-0.972245071738317
-0.901585853581187
0.8499260253056563
-0.8165330004415884
0.8367772640291403
0.648682452318638
0.1344436236846679
-0.7831260760431789
-0.7720831940181186
-0.1458889248799968
0.7244241945673384
-0.5785352698214627
0.02750543895761807
-0.01530054860955215
0.01857481431127284
-0.003274264629282069
-0.3551825676734788
-0.1262443295546113
0.8798247118281189
0.7408117061944566
-0.2431979632857645
-0.4976137440707772
0.6196590979229941
0.6852405952637669
-0.4705623894538612
-0.0007988026418453914
-0.2849637157530132
0.02584317911491581
0.7444975083376794
-0.7703406870925071
-0.3235626294808145
-0.07195939746526213
0.07549591115508193
-0.9602228590338473
0.1254619504660276
-0.6776737617087454
0.05194958296700496
0.641308055185432
-0.693257638194388
-0.7569168979921492
0.07924313630244195
0.588379610229939
-0.6603390075935477
0.1563391361123768
-0.3362707114802588
-0.7710757337098667
-0.001007460441466903
0.3712527144445001
0.6015642666393701
-0.02619364055679867
0.02417157242567521
-0.02417157293241004
-0.01789620844179518
-0.05174383046453181
-0.2251659281967799
0.02027442897415312
-0.01738292264885179
-0.7341566317070636
0.2793445950393139
0.6796479624492505
-0.690178074916147
0.01053011265644407
-0.5978617857014966
0.6498113722876518
0.6531060595583646
-0.06472645527554236
-0.6317670353442114
-0.1251498609962968
-1.049890659638925
0.01115112274316107
0.1361978064701569
-0.7083134488507321
-0.7415041610986453
-0.7632535564731292
0.3653479774071737
-0.4130207997329035
0.4694391195917004
-0.05641831814982266
-0.6764359925395869
-0.03187745622809496
0.5009787852157073
0.7306788010511797
-0.2330031320193609
0.1105164882379389
0.9612303166564056
0.4457634195060312
0.1342425509553092
-0.5800059705572502
-0.6784532346976293
0.002017241225601882
-0.04442076480661253
0.02912020338829352
0.6370994242971305
-0.7747195648005529
-0.002504141839209076
0.002504142406570581
-0.60056118762257
0.6482546987477067
-0.04769351146702075
-0.6503894764922551
-0.1132985531113299
-0.6716764242898385
0.05034152964419957
0.6069603146665181
-0.1371717295827055
-0.8175653436153374
-0.5553078296118159
0.5668417394933939
-0.01153391130839063
0.6343232597172367
-0.6237931442039876
0.3222370685100773
0.2141834757849106
-0.536420544274213
-0.1044047400632811
-0.6026048782166653
-0.09065275749282857
-0.1547977804955349
-0.5049663163805374
0.4041886686612466
-0.4987156218244574
0.1264648706852393
0.6783511501170234
-0.8048160206447057
0.5991995546173511
-0.3715813305909265
-0.04143949413561697
0.07257576080001238
-0.5775420848912136
0.5518665995180729
-0.04040283160202651
-0.5114637679951834
-0.3121830601227344
0.3047356052433256
0.007447455352766915
0.4532350248048687
0.122333066306394
0.05050118753286739
-0.3157449995604785
0.15663999538719
0.1591050043049672
0.2406767998097632
-0.01498992641577326
-0.2961403296149093
-0.31325257285688
0.3667164658666127
-0.05346389249158299
0.7896195669142225
-0.628289214436091
-0.02210026276788932
0.4994292599082533
0.2810132956511145
-0.5242112631429364
0.5774857558396058
-0.5774857558468927
-0.2897626142125989
-0.5864796419179793
-0.2955382211091886
-0.5864796415873774
-0.5954138884943837
-0.8385064880210873
0.1700541646427159
-0.5844024486303961
0.8211853699687601
-0.003597032978628079
0.1195920169416753
0.4819722503032289
0.0966844791754731
0.1852775209967796
-0.03621124525314549
-0.1490662733517648
-0.01756071183036921
0.5940139152598817
-0.9458164238305854
0.4277102948312641
-0.0003319669431063544
0.001484669497591447
-0.001152699332230146
-0.6432617122753075
-0.1317816570954995
-0.466114017996509
0.6003565639913662
-0.5037814860263997
-0.3200837151441298
-0.2574583727942457
-0.2715591138828873
-0.1120613030400537
0.1120613027563931
0.152697977343065
0.05823869919168606
0.1964286565071922
0.4544491875841314
-0.5728270379684449
0.1067130120627599
0.2446954963891385
0.4661532251079006
0.5338467758434617
0.6421194249671476
0.08251199897519515
-0.0008009710263226571
-0.08171102240473783
-0.2768308281366981
-0.5407345157343283
-0.5484399596175455
0.1140561486954291
-0.1260373998956513
0.01198125169962653
-0.1059670264832769
-0.3861015900977188
-0.0442576411216543
0.6512179566613902
-0.4987556259526698
-0.1445060862258246
-0.3377796728569514
0.2914230370833226
0.1231573715628161
-0.6038557764810935
-0.2039410999606595
-0.2616320697787906
0.001151416276508248
-0.4219244150085364
0.3220874156873488
0.0998370000913064
-0.09115253292781399
0.2916089073951733
-0.895922272475692
-0.4580651832496599
0.633657251332653
-0.7729072360870984
0.668502496079581
0.3426730375115967
-0.1261754885361099
0.2257560771115136
-0.09958058964683963
0.02601823712591303
-0.5862431384210248
0.02931998384986223
0.5569231541391479
-0.9007329750509406
0.5467914118885281
-0.6654843006384225
-0.09589039420860335
0.1091213830920088
-0.1091213869354839
-0.3165438016867275
0.3641013940107972
0.01458598194471555
0.02674831102256981
0.05576369600944747
0.5050592354212394
0.6621545096183575
-0.7408868756374198
0.02838322844536926
0.02350407324200075
0.0006674917053402882
-0.006788323631996671
0.006788323953941364
-0.4156009262901282
0.5379339957535991
0.01518264923527786
-0.01518264903763679
-0.7922462938916001
-0.06021945660444452
0.1218487200661594
-0.4535097879457304
0.560222802881619
0.4502259896261487
-0.4979195081939128
0.1497493894156895
-0.1497493899384974
0.03888101034517445
-0.003322727204421886
-0.04119655895539046
-0.9772351534744349
0.5417141631295538
-0.4720192452314378
0.0413217155612754
0.5144391488922209
0.03101685658709685
-0.5454560059029492
-0.6158640776794273
0.1171084542233925
-0.3298056117039743
0.01345052207653668
0.3163550891445566
-0.1538493922220837
-0.07915373580117625
-0.5407417730062558
-0.04550137013337857
0.1361978060225714
-0.04118355224586119
0.03867941698612355
0.08168680738742719
-0.0816868020543511
-0.5388733852560104
0.4854094902161609
-0.4143618533884182
0.1613366581282575
0.6221719623728532
-0.09803372699672439
-0.005596719130816404
0.005596717813876861
0.5329767164672999
-0.07322677985805102
0.006170419190663604
0.02707642294146494
0.03453339660782413
0.6867738533878083
-0.7600006335903364
-0.659675500123548
0.6375752426968437
-0.1079178640056266
0.3127556717056305
0.7461700506711366
-0.01789620669432469
-0.2671501911349446
0.1486018707132268
-0.7446772073739489
0.4843712158328477
-0.4226041624810022
-0.1014249397565705
0.003609917148900381
-0.01454070706131686
0.01947346377665067
0.4118002059637419
-0.1216841109431074
-0.3897796560080104
0.6289313424136719
0.01903143950226743
0.01048749251615711
-0.01048749213665347
-0.3569953420605355
-0.08442419441529074
-0.5606555365274588
0.5570585031953363
-0.2383944822064849
0.4648136866501824
-0.1509516956099281
0.728452011353102
0.6732570560675433
-0.04118354477063071
-0.6151534541042053
0.5611828697108601
0.2883944711724775
-0.286389925567453
-0.002004543815517883
0.5464227171592063
0.09338802715387216
-0.03887051647126102
0.1971224620834153
-0.1582519447314632
0.1205573250983628
-0.1205573215004219
-0.8587633576592781
0.002400462802903005
-0.1130187192485263
0.1400951404796531
-0.1320536303007709
0.1320536301631721
0.02350405521933664
-0.02349293420525931
0.6710766587117591
0.05872043446478949
-0.3232048869099942
-0.06289670199084678
-0.4712410869631321
-0.04938520726965004
-0.1518046237643211
0.1518046240795937
-0.04283000126977169
0.1431725292249325
-0.1431725291982184
0.136855856103319
-0.1368558540860634
-0.3155813808464071
-0.1145709241559122
0.2266815988527135
0.1030135705956388
0.03486624302921905
-0.8211176021591932
-0.1973911887440647
0.1703804665199975
0.02060857765459223
-0.2655852695522665
0.1256910858988416
-0.1256910858663723
-0.4140357943220141
-0.08467982837349658
0.2366434906923547
0.002148847540621074
0.04050326455608678
-0.5432305520960263
0.5778082633136482
-0.02396000689985798
-0.01886998891113752
-0.02860012844634318
0.02527740755187513
0.006576844645498695
-0.1841709157009632
0.1775940713830302
-0.1079179806952439
-0.2283527344608688
-0.1448918020213328
0.144891802034827
0.07299902708322657
-0.07299902725942509
-0.01949889869596401
-0.1087060120700154
0.1282049103063023
0.2419102959310367
-0.1827076074183719
-0.02510897673922908
0.02577646508016352
-0.1384485956990806
0.6238580813393823
-0.03906227715119412
0.4217742049783644
-0.04190139352077163
0.06163316741550495
-0.1536007469280137
0.1536007478109606
-0.6361643251075635
0.3090347937844139
-0.07931546755568582
-0.2347978300640063
0.003581963566297862
-0.1224343308960398
0.1629375969460444
0.1945095866943468
0.09764098707739008
0.09528118074827871
-0.06074778500426783
0.07250588146129586
0.04155026693498196
0.06382329691485264
0.1065571688704479
-0.09574642484600292
0.2062629197350991
0.01299165199593435
-0.1131293324654203
-0.1020364135877078
0.09798856566024294
0.004047847737461836
0.01301656865385742
-0.02286995825786978
0.03788730914608514
-0.03788730919998822
0.07468813649460422
-0.05472344358975438
0.05472344386158241
-0.2245787642833517
-0.05149617380082052
0.01146713977168633
-0.1031240214592779
0.01629853201671286
0.1082549687897268
-0.1082549688461577
0.2943465857136491
-0.2716243368402467
0.1637063518248896
-0.0505771894634986
-0.2210471479596079
-0.01760495947494463
0.01760495943143907
0.3672700669002099
0.2852745509502246
-0.527360097850028
-0.09399986473696818
-0.03203753318851633
0.5286067205855008
0.2133101710765305
-0.1695091954124459
-0.3816004281153332
0.07650816258576537
-0.1478963719669591
0.187460069112533
-0.0395636972136201
-0.06670470338470122
0.06670470349943297
0.8226782132655189
-0.5606684149773778
-0.00327014663641639
0.0162867184244411
-0.01999231431580082
-0.2865742711043021
-0.01748145266528404
-0.01283817212788318
-0.1317248559922609
-0.5719873273118355
0.5559209137661918
-0.5691596338351302
-0.00691281391099368
0.1024370576440511
-0.00179612857660906
0.01674489256015244
-0.1678886802605801
-0.336699118840447
0.2335750974459086
-0.05461062348424076
0.03511172371048987
0.1317227628868884
0.1730128390939663
0.3360620326370264
0.2768472634589439
-0.2786433921600708
-0.06335700445505353
-0.1548515104905678
-0.2213473091801349
0.07489297168970224
-0.01106967533672851
0.2142766918875674
-0.1975317998001841
-0.08626711198402423
0.1587729966818728
-0.3549761659794521
0.2088291395306941
-0.1925306079376419
0.08962979531986172
-0.4794094568996384
0.1746218957916161
0.1697735114263908
-0.2560406222910615
0.07241122296186911
-0.1942049143928568
0.1767234622404058
0.01743609751481423
0.1413369007881227
-0.03954078680423861
0.06631240657914235
0.4666643105068601
0.02028234884873179
-0.07570384789143741
0.05624688556310401
0.125554438961464
-0.2609110016656538
-0.2308856908055733
0.559706239901379
0.1578974373261252
0.07874605251096919
0.07582221632079547
-0.03092825889262705
-0.00789211649232126
0.005887577935405559
-0.03278761648595691
0.1712910455713885
-0.1782038599009781
-0.05623038701689247
0.02250631955789564
-0.1466658092631641
-0.05286801888332686
0.1500325327236832
0.2770944183658025
-0.03892739124692253
0.01738531252511955
-0.2557123616849622
-0.1306499179722983
0.2355756260321034
0.1792531868856439
0.1297816137874457
0.02174608884875248
0.08914262890348315
0.05204933903340366
0.4530098964519774
0.01703952262583854
0.09693561984893391
0.0438572965406813
0.07157831619256236
-0.115435611904405
-0.2420855467565691
-0.2009992731467349
-0.02004787317163823
-0.2023150403971627
0.2757602381607329
)
;

boundaryField
{
    FrontBack
    {
        type            empty;
    }
    Top
    {
        type            calculated;
        value           uniform 0;
    }
    In
    {
        type            calculated;
        value           uniform -1;
    }
    Bottom
    {
        type            calculated;
        value           uniform 0;
    }
    Out
    {
        type            calculated;
        value           nonuniform List<scalar> 10(1.035414880093435 1.0644530789083 1.021412095067467 1.019228970904462 0.9971203140100483 1.015173705850702 1.035234929158727 1.062695917791143 0.8672483684930741 0.8820178630374216);
    }
    circle
    {
        type            calculated;
        value           uniform 0;
    }
}


// ************************************************************************* //
