/*--------------------------------*- C++ -*----------------------------------*\
| =========                 |                                                 |
| \\      /  F ield         | OpenFOAM: The Open Source CFD Toolbox           |
|  \\    /   O peration     | Version:  2412                                  |
|   \\  /    A nd           | Website:  www.openfoam.com                      |
|    \\/     M anipulation  |                                                 |
\*---------------------------------------------------------------------------*/
FoamFile
{
    version     2.0;
    format      ascii;
    arch        "LSB;label=32;scalar=64";
    class       volVectorField;
    location    "41.9";
    object      U;
}
// * * * * * * * * * * * * * * * * * * * * * * * * * * * * * * * * * * * * * //

dimensions      [0 1 -1 0 0 0 0];

internalField   nonuniform List<vector> 
808
(
(0.897555 -0.0100678 0)
(1.00379 -0.0356913 0)
(1.21596 -0.0672648 0)
(1.06614 0.00983687 -2.75443e-21)
(1.46029 -0.262119 0)
(0.953129 -0.0278554 0)
(1.11898 -0.017388 -7.2861e-21)
(1.10611 -0.0232645 0)
(1.32679 -0.203236 2.12972e-20)
(1.21222 -0.0788994 1.92554e-22)
(1.32871 -0.054855 1.53857e-21)
(1.36105 -0.224829 0)
(0.97253 -0.0236238 0)
(0.729202 -0.015981 0)
(1.16542 -0.0269279 2.37286e-20)
(1.06876 -0.004617 0)
(1.03306 0.03826 -8.96314e-21)
(0.978106 -0.00217102 -1.46344e-22)
(1.35985 0.00101366 0)
(1.11548 -0.000963564 0)
(1.3421 -0.0326516 -2.14707e-21)
(0.92463 0.131525 1.08173e-19)
(1.07106 0.00308929 -1.38514e-20)
(1.16825 -0.0448425 0)
(0.969974 0.199478 0)
(1.34084 -0.0295043 -3.47623e-20)
(1.26078 -0.15924 4.27599e-21)
(1.00619 -0.0313222 -6.92445e-21)
(1.09 -0.0158068 0)
(1.06378 0.0326065 -2.55385e-22)
(1.01967 -0.0324414 8.18056e-24)
(1.11768 -0.0160221 0)
(1.04744 0.0596221 0)
(1.11001 -0.0453188 5.67879e-21)
(1.26779 -0.070534 3.82349e-21)
(0.746828 -0.0967674 1.11983e-19)
(0.857338 -0.0237509 -1.24058e-20)
(1.04673 0.0584212 8.93867e-22)
(1.16906 0.0413932 -4.88809e-21)
(1.1013 0.0368573 0)
(1.2397 -0.0784499 -5.82288e-21)
(1.25856 -0.12113 0)
(0.996531 -0.0173328 -8.90601e-21)
(1.16038 -0.0344108 9.12361e-21)
(1.24051 -0.265308 0)
(1.01006 0.0166273 -1.94807e-20)
(1.01512 0.0420796 2.67867e-21)
(1.2383 -0.228587 9.57736e-22)
(1.16277 0.0549453 -9.49599e-21)
(1.37527 -0.150249 -3.07631e-20)
(1.11935 -0.00522988 1.2406e-20)
(1.14141 -0.0649285 0)
(1.11058 -0.00735628 8.01939e-21)
(1.21582 -0.0484854 0)
(1.33927 0.203253 5.35721e-21)
(1.06255 0.0513599 -3.62195e-21)
(1.28406 -0.05633 0)
(1.28399 -0.178272 -2.46467e-22)
(1.21845 -0.0891781 -2.067e-22)
(1.14288 0.0403777 -1.31004e-21)
(-0.04102 -0.323584 0)
(1.20595 -0.195912 -3.51345e-21)
(1.16963 -0.135089 0)
(1.37337 -0.0921357 -1.94285e-20)
(1.16814 -0.0620085 -8.61564e-21)
(1.0299 -0.0288882 -9.35032e-21)
(1.30526 -0.0719203 1.77272e-20)
(0.653667 0.0115131 0)
(1.20862 -0.0583303 0)
(1.43885 -0.325146 0)
(0.892107 0.0216686 -3.09933e-22)
(1.26439 -0.115481 -4.14695e-20)
(0.995403 0.0242318 0)
(1.05694 -0.0506306 -5.99305e-21)
(1.11191 -0.317593 -5.82212e-20)
(1.14592 -0.0211075 -1.64767e-20)
(1.14771 0.0212378 -2.59967e-22)
(1.35105 0.504138 2.61052e-20)
(1.09276 -0.0346947 0)
(1.01766 0.293889 -1.77876e-19)
(1.34439 -0.037794 1.68326e-20)
(0.761568 0.0110625 0)
(0.86119 0.0341714 -1.27024e-20)
(0.96886 -0.105028 4.40128e-21)
(1.14944 -0.0262168 1.24606e-20)
(1.18647 0.0023472 4.53254e-22)
(1.30478 -0.212844 0)
(1.36647 0.2806 0)
(1.08749 -0.00179569 -2.07141e-20)
(1.47721 0.00908081 3.59856e-20)
(1.07877 -0.0211778 1.70143e-20)
(1.29237 -0.108878 -1.10131e-21)
(0.966396 0.0256389 1.6581e-20)
(1.00387 -0.028309 0)
(1.10593 0.00186211 1.69108e-21)
(1.19432 -0.0571374 -3.25361e-20)
(0.772447 0.0166782 -2.00919e-21)
(1.30717 -0.120737 0)
(1.29231 -0.0859096 0)
(1.37286 -0.0490441 -3.21521e-20)
(1.10748 -0.0177637 -6.41784e-21)
(1.12495 0.00534581 -2.17751e-22)
(0.946295 0.0251639 1.47656e-20)
(1.1832 -0.00713813 3.05637e-22)
(1.30345 -0.0127504 -7.93003e-21)
(0.997283 -0.0013873 1.36173e-20)
(1.43377 -0.162795 0)
(0.853471 0.234665 0)
(1.08917 0.0338718 8.66736e-21)
(1.18888 -0.20449 -8.47461e-21)
(1.2725 -0.0283625 5.43519e-21)
(1.04593 0.0460932 -1.19433e-19)
(1.15467 0.0443586 -3.74651e-21)
(1.11762 0.172516 7.02846e-21)
(0.808034 0.0243066 0)
(0.919393 -0.0401102 7.6008e-20)
(1.14177 0.0230513 -1.00902e-20)
(1.42916 -0.226227 -1.62724e-20)
(1.14332 -0.0545234 -8.45059e-21)
(0.930281 0.0124826 2.34332e-21)
(-0.209804 -0.230159 0)
(0.8437 -0.019601 1.45125e-21)
(0.792523 0.0258489 0)
(1.059 -0.000828123 -1.15345e-22)
(1.01643 0.0288567 0)
(1.33161 0.311677 9.07071e-21)
(1.03232 -0.0496582 -3.5429e-20)
(1.23136 0.232986 1.41961e-21)
(1.13976 -0.06255 0)
(1.0885 -0.0234783 0)
(0.582722 0.105358 0)
(1.13419 -0.0420023 -4.1443e-21)
(1.23239 -0.0467797 2.76595e-21)
(1.07425 0.11124 -3.15877e-20)
(0.844292 -0.0247363 0)
(1.0992 0.0244905 -2.41023e-21)
(0.849966 -0.201367 3.1999e-21)
(1.0452 -0.0915067 -4.57935e-21)
(0.988834 0.0352167 5.95648e-21)
(1.12734 0.00747039 1.82547e-22)
(0.0538778 0.194741 0)
(1.08957 -0.0217578 -1.88138e-20)
(1.01691 -0.183899 -3.54039e-22)
(0.705192 0.0246894 -5.03659e-21)
(1.27731 0.157722 2.15024e-21)
(0.86974 0.096647 4.77503e-21)
(1.04396 0.0193096 1.94492e-20)
(0.990099 0.0284007 0)
(1.07308 -0.214574 8.11046e-21)
(0.941675 0.155582 0)
(0.934296 0.0274955 1.07468e-20)
(0.970856 0.294255 1.42402e-19)
(0.971442 0.0348635 0)
(0.822127 0.118856 0)
(-0.050443 0.259415 -8.17557e-20)
(1.3533 0.105856 -1.42145e-20)
(0.688249 -0.0201041 0)
(1.49397 -0.0913608 0)
(0.985272 -0.256336 0)
(1.36496 0.0366708 1.6432e-20)
(-0.0442317 0.0308624 0)
(-0.02442 0.241255 3.77288e-20)
(1.02072 0.0149693 7.32023e-20)
(1.00457 0.0396101 1.94293e-21)
(0.851479 -0.00402121 0)
(1.03549 -0.0484634 1.22798e-20)
(0.886214 0.0225599 0)
(0.740507 0.0399585 -7.91308e-20)
(1.01211 0.0493186 1.59704e-20)
(1.15853 -0.0556768 2.57629e-21)
(1.09028 0.0127718 9.25646e-21)
(1.01654 0.0742159 -1.1483e-20)
(0.608657 0.0870261 -4.75386e-21)
(1.12577 -0.334084 6.57174e-22)
(0.918284 -0.0202012 0)
(1.06634 0.00315599 -1.60645e-20)
(0.870346 0.00800968 -1.09699e-20)
(1.34366 -0.140758 1.67215e-21)
(0.687638 0.0159734 0)
(1.08414 -0.120874 0)
(1.11646 -0.0762256 2.92105e-21)
(1.41402 0.202756 1.15065e-20)
(1.11101 0.0178683 7.26266e-21)
(1.03607 0.017962 2.02175e-20)
(1.03554 -0.0550624 -1.08209e-19)
(0.812822 0.00489603 1.97483e-20)
(1.11951 -0.0161869 6.63452e-21)
(1.32798 -0.0709224 -2.75249e-21)
(1.11823 -0.0664792 -5.66787e-21)
(1.27899 -0.0537646 2.35849e-21)
(-0.0453941 0.229869 5.99035e-20)
(1.25551 -0.0591118 0)
(0.616194 -0.0191223 0)
(1.05547 -0.026477 -7.87737e-21)
(1.09469 0.0119215 1.19755e-20)
(0.21567 0.151725 0)
(0.875558 -0.0203032 5.62899e-22)
(1.09284 -0.0739804 -3.55532e-21)
(0.980932 -0.00184022 6.53729e-22)
(1.07793 0.0308339 -7.24341e-21)
(1.00126 0.0237483 2.52531e-21)
(1.0298 -0.0569702 3.13625e-21)
(1.06868 0.0314315 0)
(0.398803 -0.00390799 0)
(1.05185 -0.0653612 0)
(1.22457 0.0955477 -3.17652e-20)
(-0.0684227 0.076269 4.87475e-20)
(1.08194 -0.00105495 -1.00723e-23)
(1.21844 0.111558 0)
(0.741431 0.0243406 -1.09603e-20)
(1.21134 0.0147248 -2.88006e-21)
(0.0110213 -0.0349572 -1.61382e-19)
(0.682829 0.0722131 -2.10639e-20)
(0.63323 -0.0252734 0)
(1.03792 -0.0409768 0)
(0.931172 0.0164423 1.16058e-20)
(1.05467 -0.0757726 6.15702e-21)
(1.30232 0.398729 2.98834e-21)
(1.14715 -0.138087 4.38496e-22)
(1.1356 -0.157768 -4.73479e-21)
(1.03757 0.00195241 0)
(1.38653 0.425671 -4.50339e-20)
(0.65227 -0.00404153 0)
(0.805115 -0.0192803 -4.79324e-21)
(1.09174 -0.0268258 -1.05653e-22)
(0.601722 0.0127389 0)
(1.1005 -0.00665354 0)
(-0.0288574 0.136608 -2.79873e-20)
(1.15412 -0.244619 -1.45458e-21)
(0.749757 -0.0170323 4.48575e-21)
(0.990367 -0.00570808 0)
(0.578036 -0.0130488 0)
(0.772883 -0.0159082 -5.23754e-21)
(0.554616 -0.0243831 -1.33824e-21)
(1.32676 -0.0583581 3.08753e-22)
(1.31879 0.188954 2.13579e-21)
(0.720136 0.0160922 -1.63458e-21)
(1.18177 -0.0645454 2.13137e-22)
(1.2234 -0.249972 -4.13228e-22)
(0.553455 0.0142684 4.16868e-21)
(1.26231 -0.14656 -1.00838e-21)
(1.16209 -0.164325 0)
(0.965478 -0.263424 0)
(0.513497 0.0163583 0)
(1.05363 -0.0327866 0)
(1.21524 -0.0479439 -4.46646e-21)
(1.07455 -0.228774 0)
(1.14909 -0.0816346 0)
(0.949902 -0.24609 0)
(0.913011 -0.0839635 0)
(-0.0243859 -0.0142958 4.81188e-20)
(1.15673 -0.138229 2.31988e-21)
(0.802085 -0.202134 0)
(1.31436 -0.0521968 7.35319e-21)
(1.13893 -0.0566246 2.33168e-21)
(1.10272 0.0606234 3.04807e-21)
(1.0609 0.00375353 6.80721e-21)
(1.05657 -0.147157 0)
(0.583095 -0.0118544 1.0225e-20)
(1.0543 0.037717 1.11684e-20)
(1.14185 -0.13931 0)
(1.30443 0.0324919 3.56403e-21)
(1.1399 0.0343385 3.5261e-21)
(0.804309 0.371902 7.85375e-21)
(1.19455 0.0293927 1.67124e-21)
(1.15187 0.192526 -5.61339e-21)
(1.03789 0.245775 0)
(1.05667 0.0412469 -2.67117e-20)
(1.11296 0.153198 -2.94318e-21)
(0.650937 -0.388563 -2.74118e-21)
(1.03476 0.099342 0)
(0.00119334 -0.0187646 0)
(0.972064 0.117807 -1.70176e-20)
(1.21106 -0.00606468 0)
(1.14493 -0.0954806 -3.68057e-21)
(1.15985 0.091337 5.17209e-22)
(1.21511 0.0940047 5.39661e-21)
(1.05259 0.088342 -3.17122e-21)
(1.29253 -0.0269205 4.2965e-20)
(1.0097 -0.30955 5.87695e-20)
(1.06266 -0.0168477 -5.46046e-22)
(0.996365 -0.00520142 0)
(1.04304 0.27808 0)
(0.907242 0.00223952 -3.35052e-20)
(1.2106 -0.283049 -3.34177e-20)
(1.1005 0.125347 0)
(0.623919 -0.163154 6.93902e-21)
(0.598495 0.426687 0)
(0.769673 0.0974254 3.92392e-21)
(0.651201 -0.223491 -9.6028e-21)
(0.830105 0.0212126 -7.11362e-21)
(1.02687 -0.0306801 0)
(1.28598 0.219531 -6.03342e-22)
(1.20767 0.223914 -2.31068e-21)
(0.731363 -0.236878 -5.8978e-21)
(1.04346 0.0937711 -6.07758e-21)
(0.809744 -0.212461 0)
(1.09274 0.0575082 0)
(0.960078 -0.0749789 1.357e-20)
(0.780768 -0.119423 -3.96385e-21)
(1.1827 0.0608964 4.81848e-21)
(1.11421 0.0584805 -5.63102e-21)
(1.08339 0.21044 -3.07687e-22)
(1.14649 0.0449703 0)
(0.431743 -0.139201 1.3949e-20)
(1.3321 0.0094044 -2.09642e-20)
(0.785004 -0.291673 2.9332e-21)
(0.553768 0.272134 -8.30341e-21)
(1.38195 -0.114952 1.8739e-20)
(1.1054 -0.152564 1.0158e-19)
(1.05769 0.0672407 -1.38923e-20)
(1.07183 0.00472967 -1.06134e-21)
(-0.106213 0.103742 -8.36306e-21)
(1.00035 -0.00739328 0)
(1.03554 -0.0835159 -1.64251e-20)
(0.832805 -0.0340302 1.37101e-20)
(1.10556 -0.058749 7.11871e-21)
(0.794512 -0.31382 2.58941e-21)
(0.520141 -0.016037 5.07952e-22)
(1.40502 -0.362857 -1.59294e-20)
(1.16648 -0.00728955 0)
(1.07445 0.00311698 -4.16981e-21)
(1.15717 0.0185129 -3.03843e-21)
(1.10245 0.235616 0)
(0.762034 0.329421 -1.08991e-21)
(1.13209 0.00667782 4.70861e-21)
(0.804137 -0.332689 2.84501e-21)
(1.10544 -0.0454104 -1.13286e-20)
(0.852472 0.190287 1.84416e-21)
(-0.0396114 0.17702 0)
(0.755626 0.212705 5.36402e-20)
(1.22226 0.0283132 0)
(1.10738 0.360283 2.66043e-20)
(1.0756 0.364861 0)
(1.11044 -0.0291995 5.22886e-21)
(1.01377 0.0243928 0)
(0.924758 0.22353 0)
(1.34925 -0.0955398 1.34607e-20)
(0.792266 -0.0723119 0)
(1.27477 -0.161562 -1.31065e-20)
(1.15809 -0.0352802 5.28855e-22)
(1.08099 0.00745632 3.65128e-21)
(1.18614 -0.14782 1.90059e-22)
(1.25243 0.0960179 -7.01423e-21)
(1.28229 -0.227643 -1.33164e-21)
(1.15335 -0.0428028 0)
(1.10723 0.00203409 0)
(1.06998 -0.019576 3.33167e-21)
(1.16621 -0.0543194 0)
(1.47674 0.202487 -2.98654e-20)
(0.915027 -0.23827 -6.85407e-21)
(1.02775 0.0108145 2.10818e-20)
(1.28158 -0.0160453 -8.14152e-23)
(-0.0132243 0.086034 0)
(-0.0277784 0.00742697 0)
(-0.0811469 0.194168 -3.4915e-20)
(-0.123564 0.0777297 0)
(0.854809 -0.154369 8.05829e-21)
(1.15621 0.0232903 -3.4624e-21)
(1.16837 0.0575378 -8.77285e-21)
(1.13691 0.0234295 -9.94547e-22)
(1.13205 -0.0450218 0)
(0.705282 -0.0251329 -3.20861e-21)
(1.07855 -0.004122 0)
(1.13724 -0.0340998 4.05883e-21)
(0.531842 -0.107576 0)
(0.904051 -0.0559035 5.19902e-22)
(1.05029 0.0525267 0)
(1.1969 0.0340036 0)
(0.513207 -0.121721 1.18364e-20)
(0.673786 0.186877 4.04571e-22)
(0.710836 0.00144258 4.05376e-21)
(1.01076 0.0184807 -1.06397e-20)
(0.190964 0.0449771 0)
(1.2623 -0.24764 1.01653e-20)
(1.25784 0.10315 -1.4916e-21)
(1.26662 -0.274725 -6.45064e-22)
(0.71215 0.252045 -2.96731e-21)
(-0.0596696 0.158137 -1.03486e-19)
(1.09406 0.10243 0)
(-0.0309773 0.0432783 0)
(1.15261 0.150098 5.74119e-21)
(0.509951 0.470078 3.1925e-21)
(1.19869 0.078937 -4.32407e-21)
(1.09292 -0.0291063 0)
(1.22496 -0.00623054 7.20984e-21)
(1.07247 -0.193951 -7.7427e-21)
(0.603974 -0.0128336 -1.01956e-20)
(1.11434 -0.021103 -4.51332e-21)
(1.12843 0.0134825 -7.13807e-22)
(0.11198 -0.155211 -2.32799e-21)
(1.22913 0.0820187 -2.48939e-20)
(1.14247 0.0397909 0)
(1.08538 0.0812723 0)
(1.10311 -0.0246987 -3.67757e-21)
(1.1954 0.0946836 1.34803e-21)
(0.344116 -0.268767 8.69397e-21)
(1.18274 -0.109111 -1.96135e-20)
(1.11254 0.0721913 8.17372e-21)
(0.532418 0.00302532 1.61073e-20)
(0.0336404 -0.136683 -2.6425e-20)
(0.331556 -0.469521 2.61569e-21)
(1.18356 0.180972 -6.89387e-21)
(1.22492 -0.47638 4.91483e-21)
(1.40179 0.00213363 -6.22567e-21)
(1.12327 -0.037646 4.35829e-21)
(0.929746 -0.218857 9.48315e-20)
(-0.124968 -0.374887 0)
(1.25162 -0.102687 1.29448e-21)
(0.362388 -0.194633 -2.7673e-20)
(1.13502 0.138185 -4.96779e-21)
(1.07154 -0.13523 7.24963e-21)
(1.09084 0.0317871 0)
(0.426604 0.282468 0)
(1.16185 -0.050228 0)
(1.38145 0.302998 -1.11325e-20)
(1.25419 -0.033027 -1.03803e-20)
(1.10113 -0.0206754 7.61975e-21)
(0.488772 0.0155168 0)
(0.648682 0.00933379 0)
(0.633503 -0.00410828 3.98189e-22)
(0.449651 -0.0117931 0)
(1.18079 0.140927 0)
(1.01725 -0.0128929 2.78716e-20)
(0.315409 0.342025 0)
(0.923693 0.0431276 0)
(1.20451 -0.00436532 0)
(1.18614 0.169784 -2.99252e-21)
(1.28173 0.0307398 5.4489e-21)
(0.948529 -0.0296003 9.02627e-21)
(1.30379 -0.387051 -1.10899e-19)
(0.236742 0.00853291 -6.8024e-21)
(1.08784 -0.0323017 9.17852e-21)
(1.15751 0.120166 0)
(-0.144973 -0.671067 0)
(-0.278638 0.127538 0)
(1.10879 -0.0420664 6.5429e-21)
(1.30685 -0.269906 -2.20711e-20)
(1.38315 0.131908 0)
(1.07178 0.00937035 -1.1688e-20)
(0.617445 -0.367507 0)
(1.47505 -0.134214 6.31623e-20)
(0.423423 0.540314 9.97666e-20)
(0.331951 0.000583597 0)
(1.11728 -0.266435 1.19036e-19)
(0.195379 -0.364702 0)
(0.130934 -0.204884 -1.15657e-20)
(1.43094 0.0924502 0)
(-0.199601 0.0893161 1.35903e-21)
(0.984395 -0.0521187 0)
(1.13597 -0.0904819 3.37243e-21)
(-0.172892 0.195369 -8.1837e-21)
(1.10212 -0.0371968 3.12858e-21)
(1.21249 0.0231937 5.63175e-21)
(0.565036 -0.489011 -9.38015e-20)
(1.0333 -0.0144006 -3.65111e-21)
(1.18196 -0.119535 6.27037e-21)
(1.19207 0.245412 -1.67045e-20)
(1.065 -0.0818163 1.8566e-20)
(1.12011 -0.0377413 1.27805e-21)
(0.319067 -0.380184 -8.7346e-20)
(0.179326 0.234381 -9.06073e-21)
(1.11898 0.0952018 5.28553e-21)
(1.05832 -0.0457694 0)
(0.56583 0.223187 -6.69551e-21)
(1.39944 -0.421065 8.24672e-20)
(0.968602 -0.0234027 -6.07846e-20)
(1.51015 0.117845 9.28652e-20)
(1.08656 -0.0372247 6.72716e-21)
(1.18422 0.0818678 2.02068e-20)
(1.05878 -0.0113874 0)
(1.17453 -0.0294747 0)
(1.11269 0.00157444 -9.96508e-21)
(1.08681 -0.022527 -4.42806e-21)
(0.931655 -0.0605654 -1.91545e-20)
(1.06807 0.0555915 -9.75711e-21)
(1.36799 -0.0670105 -2.13014e-20)
(0.487856 0.0342367 0)
(1.12192 0.111081 2.08239e-20)
(1.36295 0.0136446 0)
(1.08068 0.0687409 -5.09084e-21)
(1.13765 0.000689252 0)
(1.04108 -0.00925457 1.55614e-20)
(1.22531 0.00772034 1.38907e-20)
(1.01549 0.262247 0)
(0.0732929 -0.0241363 1.66613e-19)
(0.881179 -0.197155 -7.43741e-20)
(1.11624 -0.0864579 -9.80249e-21)
(-0.144147 0.195875 4.57086e-20)
(1.1952 0.033292 9.03611e-23)
(0.755946 0.289089 1.14557e-20)
(-0.103624 0.245885 -4.7619e-20)
(-0.0275944 0.146349 -3.09044e-20)
(1.018 -0.0267745 0)
(-0.031798 -0.0321434 0)
(1.19802 -0.0989811 0)
(0.111478 -0.0819666 0)
(1.09422 -0.0289821 0)
(0.17738 0.0443289 0)
(1.11826 0.058885 0)
(1.27938 0.0347338 0)
(1.31825 0.161363 -2.19005e-21)
(0.583866 -0.285655 -2.12867e-20)
(-0.0635005 0.282334 0)
(1.15735 -0.0573663 6.32383e-20)
(1.05683 -0.0817971 5.70716e-21)
(1.18192 -0.0780403 0)
(-0.0325411 -0.0404489 0)
(1.14398 -0.0187284 7.61496e-23)
(1.13873 -0.0339568 -2.51573e-22)
(1.18698 0.396623 0)
(0.278134 0.0205258 6.42377e-20)
(1.12055 0.0433364 1.17829e-21)
(0.257441 -0.0498396 -5.56184e-20)
(-0.0641876 0.044342 -3.48966e-20)
(-0.040118 0.0522732 9.01294e-20)
(0.622056 -0.154506 4.77953e-20)
(1.00593 0.138775 -1.07774e-20)
(1.13344 0.0730385 -7.80201e-21)
(1.02184 -0.00951821 0)
(1.06953 -0.0625907 -2.32342e-20)
(1.27689 0.0458797 -5.85641e-21)
(-0.00755934 0.052797 1.06862e-19)
(0.970797 -0.0683678 -6.00251e-20)
(0.664796 0.338726 8.8743e-21)
(1.04395 0.0389506 -3.01372e-21)
(0.100985 -0.0229138 3.69994e-20)
(0.276172 -0.0328424 -5.14153e-20)
(0.46649 0.0116585 -5.82782e-20)
(1.24356 0.241271 -1.07027e-21)
(-0.0466858 -0.0332474 0)
(1.01838 0.277637 2.62046e-21)
(0.953179 0.18816 3.73596e-20)
(1.01465 0.0836694 -3.60166e-20)
(1.19963 -0.0846498 0)
(1.4932 -0.196114 7.05439e-20)
(1.13177 0.0664478 -3.23953e-21)
(-0.0112564 0.0157794 -3.5156e-20)
(0.411877 0.108077 0)
(0.90499 0.0175535 -1.12697e-21)
(1.13558 0.0227055 1.9083e-21)
(1.00421 -0.373701 4.36702e-21)
(1.13998 -0.0194554 2.09436e-22)
(1.11889 0.0351148 0)
(1.16958 -0.151427 -1.57374e-20)
(-0.180491 0.124108 -6.66933e-20)
(1.27383 -0.0362392 7.52055e-21)
(1.10899 0.166089 -8.92544e-21)
(1.05548 0.0437674 1.1159e-20)
(-0.04165 -0.0302488 1.63169e-20)
(-0.0224801 0.0601816 -7.28862e-20)
(0.454375 0.0387357 0)
(0.718869 -0.151615 0)
(1.15449 0.0851865 -1.49616e-20)
(1.05352 0.0605605 1.21624e-20)
(1.10149 -0.0341265 0)
(0.34077 0.119213 2.02997e-20)
(0.78138 0.0955894 -1.23065e-20)
(1.10365 0.101306 0)
(1.06029 0.0138309 0)
(1.33256 0.0242864 0)
(1.29707 0.0507758 0)
(1.07645 -0.117751 4.30434e-21)
(-0.0442921 0.0462393 3.81139e-20)
(1.2853 0.120863 3.24159e-22)
(1.39487 -0.144149 -7.6839e-20)
(1.18639 -0.124406 -7.51334e-21)
(0.30795 -0.0323282 0)
(1.09397 0.259809 0)
(0.639214 -0.00726641 -6.48242e-22)
(0.570172 0.0110436 -6.43176e-20)
(0.0751757 0.0384512 5.21496e-20)
(0.964787 0.0101271 3.93104e-21)
(0.76162 -0.271604 0)
(0.7103 -0.0839669 0)
(1.20985 -0.127372 0)
(0.555624 0.532593 3.09375e-20)
(-0.0186805 0.0825819 -3.47316e-20)
(0.922285 -0.066769 -4.67191e-21)
(-0.0175196 0.0689798 6.62272e-20)
(1.07983 -0.0717398 3.47622e-21)
(1.18877 0.313167 3.18582e-20)
(1.10659 -0.0834948 1.01495e-20)
(0.71269 -0.266741 1.1397e-19)
(0.990712 0.160821 5.06885e-21)
(1.13653 0.127287 0)
(0.577574 0.280919 0)
(0.887553 0.296863 -9.11399e-22)
(-0.263899 0.252915 0)
(0.624905 0.0330669 3.42054e-21)
(0.603734 -0.413849 -2.93905e-21)
(0.250705 0.0516338 -1.22006e-19)
(1.12293 -0.212321 3.46415e-20)
(1.0511 0.37928 9.62757e-21)
(0.983033 0.0267736 0)
(1.28908 -0.143746 -8.31399e-22)
(0.66747 0.0120551 0)
(1.00675 -0.0112532 -4.92368e-22)
(0.486844 -0.00180711 0)
(0.718511 0.153321 0)
(0.985093 -0.027876 -5.75062e-21)
(1.46967 0.144513 -1.70884e-20)
(1.04923 -0.056046 5.87277e-21)
(0.518345 -0.484158 0)
(1.12777 -0.146104 3.24477e-21)
(0.81728 0.401009 6.78898e-20)
(-0.0451959 0.0176722 1.26885e-21)
(1.17 -0.0757715 7.41037e-21)
(1.20013 -0.00186734 -1.04952e-20)
(1.08499 -0.130418 7.98723e-22)
(0.805619 0.0143205 -6.06023e-21)
(0.0620384 0.0210986 4.07345e-20)
(-0.0176026 0.126862 -6.04343e-20)
(-0.23942 0.201012 0)
(-0.0572315 0.272608 0)
(1.18232 -0.601573 3.15703e-20)
(1.12143 -0.0250727 -1.24708e-21)
(0.895466 -0.461908 -4.19066e-20)
(1.10094 0.276141 -7.4008e-21)
(1.41195 0.181988 3.8193e-20)
(0.621704 0.435559 0)
(0.253415 0.436756 -1.08464e-19)
(0.609167 0.511412 0)
(0.30727 0.117565 0)
(1.11228 -0.458323 0)
(-0.0480903 0.221706 -1.95846e-22)
(1.18723 -0.0269385 0)
(1.02016 0.0995299 -3.86959e-20)
(0.614871 0.72167 2.15286e-20)
(1.44579 0.192366 1.76546e-20)
(-0.0488087 0.0246015 -1.16849e-19)
(0.977036 0.282316 -4.8251e-20)
(0.470705 0.14979 -1.4748e-20)
(1.20429 0.0553718 0)
(1.3943 0.353149 4.09954e-20)
(1.25079 0.582196 1.25597e-20)
(0.168463 -0.0201588 -2.37813e-20)
(1.07576 0.135194 3.51513e-20)
(0.959728 -0.023485 1.42497e-21)
(0.93535 0.00673705 -6.16557e-22)
(0.0221016 -0.00563751 0)
(0.636821 -0.627302 -3.17473e-20)
(0.618797 0.229381 0)
(0.00914309 0.0485671 0)
(-0.0485843 0.0807216 0)
(-0.0562818 0.0582065 -4.36274e-20)
(1.21215 -0.042302 -8.59899e-21)
(-0.0211169 0.106375 0)
(-0.0344341 0.122369 0)
(1.46149 0.0878007 -8.79519e-20)
(-0.032559 -0.0214146 5.30887e-20)
(0.11826 0.253605 -9.84793e-20)
(0.410248 0.0202533 0)
(0.166607 -0.257511 8.28451e-20)
(1.11385 -0.228637 0)
(0.986678 -0.268296 0)
(-0.0248719 0.0320302 1.09282e-19)
(1.1377 0.014805 -1.37809e-22)
(1.13787 0.352566 2.61699e-20)
(0.272068 0.0304956 5.04089e-20)
(0.397644 -0.503962 -4.08813e-20)
(1.41374 0.0346258 0)
(1.27606 0.195873 2.40901e-20)
(1.26182 0.206539 -2.95839e-20)
(0.104445 0.111982 -2.32484e-20)
(-0.0567366 0.228935 0)
(1.06666 -0.0533654 -1.91129e-20)
(1.09237 -0.207277 -1.70653e-20)
(0.57745 -0.3773 0)
(1.09392 -0.141266 -2.71071e-20)
(0.089906 0.239031 0)
(0.677044 0.0669309 0)
(1.37998 -0.0496762 1.24606e-20)
(0.979839 0.00802368 5.23679e-22)
(1.10585 0.769441 -1.0851e-20)
(0.220735 -0.363526 1.37186e-19)
(1.07013 0.0401766 -2.4381e-21)
(1.20409 0.0553309 1.6181e-22)
(-0.0467409 0.187925 3.41663e-20)
(0.811355 0.757821 2.16487e-20)
(1.33584 -0.342437 -1.42205e-20)
(-0.25007 -0.208356 3.63373e-20)
(1.20376 0.0386071 0)
(0.609872 -0.0433784 -1.29206e-20)
(0.896455 -0.627353 2.65116e-21)
(0.926747 0.660808 -2.80816e-20)
(0.596554 -0.0178217 -6.798e-20)
(1.12648 -0.0218739 -7.44197e-21)
(1.07364 -0.0828498 8.05591e-21)
(1.15941 0.0732821 3.07386e-21)
(1.10925 0.114177 3.55344e-21)
(1.12853 -0.121099 0)
(0.958633 0.108328 1.55599e-20)
(0.913743 0.471438 0)
(1.35039 0.204943 4.84205e-21)
(1.17012 0.0921374 -1.99621e-22)
(0.777192 0.270713 0)
(0.539971 0.113697 1.16387e-19)
(0.917157 0.738032 -3.54881e-22)
(1.08821 0.292627 -2.00979e-20)
(1.04101 -0.00961256 1.40175e-20)
(0.425865 0.525331 0)
(1.2851 -0.45057 0)
(1.03463 -0.30724 7.75081e-21)
(1.29623 0.51489 0)
(-0.0283749 0.065858 -4.539e-20)
(1.2719 -0.39749 -5.47173e-21)
(1.19045 0.524028 0)
(0.457757 0.250483 1.6668e-19)
(1.15879 0.32483 -1.31223e-19)
(0.802677 -0.613284 -2.74996e-20)
(1.1667 0.0732245 8.64043e-22)
(0.953533 0.157411 8.9053e-20)
(1.09501 0.166701 4.92114e-20)
(1.09869 0.72535 -1.87402e-21)
(0.894063 -0.41628 6.70031e-20)
(1.46652 0.140069 4.57048e-20)
(1.11727 -0.0087524 -1.15031e-21)
(0.0233974 -0.00922345 1.02068e-19)
(1.07353 -0.685257 2.28613e-20)
(0.86011 -0.69892 5.74116e-20)
(0.246791 -0.296086 0)
(0.970052 -0.139523 7.44413e-20)
(0.37013 0.343208 -4.32665e-19)
(-0.198493 0.259232 1.68899e-20)
(0.26938 0.0782555 2.38229e-20)
(0.71782 -0.0485045 -7.9401e-20)
(1.10335 0.548799 0)
(0.992129 0.226497 7.87354e-20)
(1.08734 0.0241155 3.52062e-21)
(0.933248 0.464672 -8.75254e-20)
(0.773437 -0.710093 -9.47323e-21)
(0.934788 0.0353177 -4.89361e-20)
(0.996797 0.509769 0)
(1.33545 0.240546 -2.02259e-20)
(1.37 -0.493898 1.30491e-20)
(1.21488 -0.320172 9.67239e-21)
(0.00224033 0.0468499 5.043e-20)
(0.195226 0.0435442 -1.81302e-20)
(0.969373 -0.109537 -5.80438e-20)
(0.366403 0.557446 0)
(0.929326 0.0300067 3.89931e-20)
(1.18666 0.653373 9.0827e-20)
(-0.184822 0.116032 1.4181e-19)
(-0.0454242 0.240213 -2.90617e-20)
(-0.10018 0.15843 4.40137e-20)
(1.09466 0.00873393 -4.69728e-21)
(1.13709 -0.451741 0)
(1.05333 -0.711039 -4.64006e-20)
(0.710913 0.374851 0)
(-0.0479529 0.14632 -9.7548e-20)
(1.06919 0.0252299 7.05417e-21)
(-0.033876 0.102636 -2.94512e-20)
(1.05168 0.0498898 -1.25317e-20)
(0.104063 0.033347 5.88885e-20)
(0.888286 0.133818 0)
(1.3107 -0.0736709 2.08226e-20)
(0.0840473 0.10976 -2.70485e-20)
(-0.140392 0.192857 -5.99098e-20)
(-0.287369 0.245793 0)
(0.117776 0.00984021 0)
(1.27896 -0.04874 -4.51618e-21)
(0.418979 -0.000333766 1.64342e-19)
(1.25632 -0.706428 -1.85404e-20)
(1.05887 -0.401952 3.39006e-20)
(1.08037 0.251523 -2.84944e-20)
(0.360013 -0.52947 1.4366e-19)
(1.5952 0.263969 -3.8188e-20)
(0.0794495 0.0253849 3.93783e-20)
(0.213958 0.342851 1.92865e-19)
(0.130675 0.0254147 -1.48006e-19)
(0.934427 -0.47239 -4.42927e-20)
(1.49128 0.389526 3.89081e-20)
(0.556346 -0.65518 5.14365e-20)
(1.10287 -0.0751147 -8.02849e-21)
(0.173366 0.208834 5.14737e-20)
(1.22604 0.298067 -5.23644e-20)
(0.678889 0.669785 -3.78441e-20)
(1.33375 -0.607298 0)
(1.45931 0.530346 3.69284e-20)
(1.04166 -0.508619 -1.2079e-20)
(1.42572 0.621042 -1.15052e-19)
(1.19231 0.0258213 0)
(-0.0511593 0.135769 0)
(1.2839 0.749883 0)
(1.32575 0.0702798 4.17771e-22)
(0.733927 -0.279972 -2.08737e-19)
(0.479363 -0.0551895 0)
(-0.0384022 0.195101 -2.89225e-20)
(1.01999 -0.234868 1.01911e-19)
(-0.20994 -0.0602258 0)
(0.324246 0.0590505 1.22511e-20)
(1.15525 0.0349491 0)
(1.4613 0.272806 0)
(1.19656 0.0647069 -9.25246e-22)
(0.358786 -0.26081 0)
(1.01575 0.150428 3.653e-20)
(1.34654 0.285043 0)
(-0.0362612 0.252753 -4.03311e-23)
(0.807042 -0.373273 0)
(1.55367 0.327447 -5.78326e-20)
(1.25813 0.376765 -2.60858e-21)
(0.862757 0.67471 -9.22712e-21)
(1.01416 0.154212 -8.68718e-20)
(0.961119 -0.191522 -4.92562e-20)
(1.49085 0.286786 3.39783e-20)
(1.10583 0.113631 0)
(0.567054 -0.047178 0)
)
;

boundaryField
{
    FrontBack
    {
        type            empty;
    }
    Top
    {
        type            noSlip;
    }
    In
    {
        type            fixedValue;
        value           uniform (1 0 0);
    }
    Bottom
    {
        type            noSlip;
    }
    Out
    {
        type            zeroGradient;
    }
    circle
    {
        type            noSlip;
    }
}


// ************************************************************************* //
