/*--------------------------------*- C++ -*----------------------------------*\
| =========                 |                                                 |
| \\      /  F ield         | OpenFOAM: The Open Source CFD Toolbox           |
|  \\    /   O peration     | Version:  2412                                  |
|   \\  /    A nd           | Website:  www.openfoam.com                      |
|    \\/     M anipulation  |                                                 |
\*---------------------------------------------------------------------------*/
FoamFile
{
    version     2.0;
    format      ascii;
    arch        "LSB;label=32;scalar=64";
    class       volScalarField;
    location    "1376";
    object      p;
}
// * * * * * * * * * * * * * * * * * * * * * * * * * * * * * * * * * * * * * //

dimensions      [0 2 -2 0 0 0 0];

internalField   nonuniform List<scalar> 
808
(
-0.03587920031463711
0.04490755591716313
-0.01162493164372917
0.03505469760092084
-0.30359584192186
-0.05481407039209272
-0.01469362143801769
-0.02398875945099139
-0.200051743258554
-0.08567200776584773
-0.009851134034816219
-0.2576751009829265
-0.03060481666647837
-0.01310386087910453
-0.120349954641783
-0.01407595285776965
-0.1382127113588412
-0.013600550140213
-0.01236065914006865
-0.05694029821314796
-0.006164212966704163
0.1182171532823795
-0.06102336963718861
-0.07339655080041653
0.1764608935149294
-0.099639771509451
-0.1552164240219835
-0.02031747731867684
-0.01736896684514726
-0.02591454845538417
-0.02019490305545397
-0.05985748551003682
-0.02288619845081973
-0.01682206070477352
-0.1012650783190143
0.3439187868150127
-0.03870982817162794
-0.01667487472141781
-0.02326072293695489
-0.02655811628807047
-0.09199779935471121
-0.1290628363287395
-0.05094751438043432
-0.02079116824893672
-0.05437062313726316
-0.04005200489774152
-0.01228460938630024
-0.1875848757965771
-0.0275727244653535
-0.2074333399944724
-0.0163038111149949
-0.06895598161533062
-0.05967059148334072
-0.01445793990367546
-0.1906475031979896
-0.02894606488868861
-0.01051050564860788
-0.01385916464908217
-0.1024069121106147
-0.04063966149389561
-0.1011673168320911
-0.1285751078417025
-0.01354403758641964
-0.1309308364763615
-0.01710737954607892
-0.05075314215179322
-0.1679114817026139
-0.03562860231297631
-0.01484259198672129
-0.4459327695660911
-0.02694225253490435
-0.3073932838093686
-0.02199914348399772
-0.0205574652149792
-0.06747560358347976
-0.01740341803587951
-0.0434906381642932
-0.3589987963736403
-0.03561067472851502
0.04202504514374174
-0.09040790654651212
-0.01725367529244165
0.05684863570158018
0.04342890103496342
-0.01663246216466871
-0.05326708890552014
-0.548572654118697
-0.2231034801306237
-0.05338932635579899
-0.1115863104567681
-0.05801562064677509
-0.1350537808234841
0.04059407281799209
-0.02398347598659483
-0.06072148253079216
-0.1214104862146981
-0.03846609183422965
-0.05180305240066217
-0.1183135577004111
-0.1413102563890571
-0.05224397037713013
-0.04836111854013017
-0.0556183607525599
-0.04574836812795861
-0.05793857413675528
-0.07340243607703517
-0.0409038798138486
-0.01106856425764225
-0.04104234741981452
-0.1266890827568093
-0.05120703420472016
0.08326631404637819
-0.04309987385678123
-0.00790160340322075
-0.02778901619960295
0.1800699413539525
-0.03982961085297156
-0.2732873693911177
-0.0203977876539928
-0.05485898094238414
-0.03001133501371476
-0.04799297118666608
0.01261449338578198
-0.05009101359079705
-0.0341875181178743
-0.2143529577159614
-0.04289731363896591
-0.004888504832847484
-0.07773387084357151
-0.06771072160425817
-0.1507390598366991
-0.02105288083628463
-0.07660625098382606
-0.04128203248950312
-0.02280960313104309
-0.01657372009302614
-0.006302060939068939
-0.007495491277937688
-0.053120151366704
-0.05093866620034668
-0.2078438582768975
-0.05810972522287938
-0.00853946857466824
-0.02273913662409883
-0.145086877825227
-0.002140642884534919
-0.07778942996417268
-0.02375369722487373
-0.001058734870370221
-0.01015450446402368
-0.03386626397711488
0.09549335994768451
-0.03979311211680792
0.2526734812786464
-0.2614745291747935
-0.1305633777571645
-0.03727863119109979
-0.09124370443309271
-0.009075421466925093
-0.1119527805288849
-0.1829918063908218
-0.2123575461729983
-0.1842897551807613
0.05537767080371823
-0.061989524872072
-0.02033456425289933
-0.06792314109863309
-0.1749222320369043
-0.0238782724259942
-0.01864579321836615
-0.05331278727173247
-0.01818330076590484
-0.00607805668552661
-0.1105848291102453
-0.02291023317638764
-0.04666385927172536
-0.06894953890953882
-0.1640217257975411
-0.03369555089375971
-0.3952921307193243
-0.01780243312384947
-0.2227193643135542
-0.04543722923777958
0.03052762578129118
-0.1047261744853693
-0.01433682603391809
-0.04174567082207144
-0.1062276656961214
-0.01775051328522142
-0.09734246854313366
-0.2039576400491695
-0.07307954468204694
-0.02380646299075135
-0.0498677915188445
-0.04381960660612579
-0.2028104666637341
-0.02194736884142492
-0.01902246233828887
-0.01137531704385214
-0.05479775711249814
-0.05205817007485415
-0.02250806244243856
-0.02079224451017505
-0.2458209164645449
0.1279536485679863
-0.2008521827385314
-0.2066333441415782
-0.01176328382826451
-0.0115983259303777
-0.06766378630364898
-0.009488519362892087
-0.5117023716297173
-0.1253417530635281
-0.01907180076771131
-0.00160525603399718
-0.02425612161546219
-0.2865903029053543
-0.2737871738110688
-0.007258933055282167
-0.01788083157963948
-0.002345338492613155
-0.344280849839922
-0.02833575445285394
-0.02922029546175199
-0.0125507741446535
-0.0197337756858099
0.05085347111955465
-0.1136041230803554
-0.013753774328784
-0.02076104117021409
-0.04310422652582577
-0.01823759393718104
-0.01620206805020917
-0.02337885720367944
-0.06687295239906453
-0.01177483442677692
-0.01904227621840541
-0.008638644678385793
-0.001051501251997488
-0.02951518207389704
-0.001648362604077073
-0.002243508942046438
-0.006077556931798918
-0.0255951096747295
-0.008058193272016055
0.001628209007179556
-0.004106858159534499
0.001112834032201858
0.002441369686599109
-0.008541438785942192
-0.1391421795312883
-0.003019348455233484
-0.0008495617032132323
-0.04818425631583979
-0.02144254748463662
-0.02484360248760112
-0.01428737036093843
-0.006094809630078695
-0.02093839019169624
-0.03749407920996618
-0.01427804380185699
-0.01270833757105949
-0.01201091597495509
0.005894356379947887
-0.01011749065930661
-0.0124522342012543
-0.01124690174534408
-0.01065814292792525
-0.009999829353437404
-0.01112727482286949
-0.01404962479739545
-0.3078154070294933
0.06096826295855198
-0.01518045057215352
-0.01673991072241725
-0.01291606428923575
-0.01254464272452453
-0.008607661409553753
-0.09900729152211117
0.008933774101062707
-0.01398445583523727
-0.01469373107379283
-0.01083151030667871
-0.05332099827100428
-0.009183887189113759
-0.01397256473388549
-0.009142672934957279
-0.001420615498655715
-0.00983534541729241
-0.01055366015252723
-0.02485967833099563
-0.01625494356173838
-0.01208320655359454
-0.01330793331126705
-0.008739128247087551
-0.01320353656905834
-0.01132675167168127
-0.05738867696188291
-0.0129021628271863
-0.01169071019866221
-0.00875334901873334
-0.01498470793409735
-0.01413742097044209
-0.01574773295258881
-1.38110314157117
-0.09836976931605418
-0.01267359817474372
0.02240783293300884
-0.1659724317025184
-0.09350319285155946
-0.01138041422324489
-0.01410609589380095
-0.2570232887787232
-0.03088098816581605
-0.02053938326646519
-0.011056041910622
-0.01981843798833995
-0.01123773865693653
-0.03069246336740957
-0.41596865844383
-0.01219232201026021
-0.01409421125025284
-0.004853200754403581
-0.01041056302209242
-0.009264200949844176
-0.01432260316658019
-0.009688371856014778
-0.02630861922010425
-0.0113080464787299
-0.1607085238403185
0.01742189410023238
-0.007764124640971519
0.002856192296362621
0.01257291045381848
-0.0474258237591271
0.02981636962625188
-0.0127380393160493
-0.1362137408212
0.2819109338382421
-0.007469204620252332
-0.01312606942454196
-0.008404616675933117
-0.03335865613502399
-0.1224664209831701
-0.01329688556169173
-0.01236560564890221
-0.01712524724591409
-0.01364303159450594
-0.04101883418197617
-0.2140282405481792
-0.0113268174496386
-0.04127315575320722
-0.03981512797256936
-0.1666690273613675
-0.1632862044142656
-0.1481363535129014
-0.2595485310954145
-0.006430776804241613
-0.02127330919235212
-0.01471029915021087
-0.01295554944050234
-0.03288516010780843
-0.02438310683224362
-0.01445458471039281
-0.0150520684261182
-1.083514294021964
-0.004535237872206378
-0.01378696346421446
-0.01839662483224435
-0.01783709913428019
0.003864876665371054
-0.01391405669366284
-0.02791158076190177
-0.1670286403145173
-0.01356390800318416
-0.02197300151494144
-0.01404328461434871
0.002104646113024468
-0.1788385899686853
-0.01338393293067114
-0.1451891005806362
-0.01603130040210446
0.009864702395362877
-0.01445526618503652
-0.02320454806271295
-0.0158635129041614
0.005531229895055939
-0.2775583145931442
-0.02562659403912486
-0.01620048145641662
-0.008518447762388305
-0.009547299287716259
-0.03055830974491761
-0.01434322143960945
-0.02051013025825342
-0.02133296534717415
0.0100789095867005
-0.1012024582032365
-0.02211339882354892
0.009233454185998191
-0.05098693323390801
0.1584196938769795
-0.1028762120613573
-0.322534037867892
-0.03013611542763963
-0.02543363700727983
0.1487567535621881
0.09047908846068019
-0.003297604370943422
0.05042723211947697
-0.015741970630978
-0.01445665333630825
0.002245352039551262
0.01182171489067267
-0.06718927669431095
-0.00532516695787529
-0.05764001231890025
-0.02242606744092599
-0.01570233294631582
-0.03651953088247398
-0.03292323235231772
-0.00665223284321518
-0.01486528675788506
-0.0393878381128787
0.03603034576094533
-0.03884988088816298
-0.01351433391875698
-0.1162635632723303
-0.03185368486976717
-0.03859749953630247
-0.678790305005171
0.01713778595374755
-0.01113628552782656
-0.005255471486831985
0.1668412323243197
-0.08689291656808597
-0.03507142008695868
-0.2475877183919517
-0.01641712445897113
-0.0165906382252868
0.06147753025961786
-0.1856769895854918
-0.2251260734352329
-0.1971253350632424
-0.6876231031256597
0.008396441226021976
-0.01816967181679808
-0.01618946362605479
-0.08169039669189268
0.1175897236735911
-0.02138381851012421
-0.2508602995039405
-0.03505775632026147
-0.006462545574841946
0.2762446612344971
-0.01120161130039556
-0.0940563087002861
-0.148716534671958
-0.004758295868544152
-0.04050123394170028
-0.04519669200721979
-0.2047703518366151
-0.008891568833182772
-0.04234273624049838
-0.002843106590686678
-0.5523203120900055
-0.2009241919990797
-0.1753633916188579
-0.02283587786311606
-0.007111106066155472
-0.05993951404809938
-0.05835089596767225
-0.01541653183355138
-0.06752872498459406
0.003302379967066571
-0.01834202767465689
-0.09573133991339466
-0.2671290513777506
-0.008198968065520567
-0.02608183995424265
-0.02207237941881639
-0.07421506732542855
-0.09134258813375205
-0.08775323880714297
-0.01136905377510241
-0.9273200377470299
0.1603889731709721
-0.08077320039721683
-0.2579933414000017
-0.04265641121473632
-0.01017662604445408
-0.2485049249510364
-0.183570597097698
-0.03343655810202474
-0.1243298757104731
-0.01832820457427026
0.5622430895249163
-0.02394295152275507
-0.2270569248944512
-0.0262105865877228
-0.005037756959213245
-0.01177945121767218
-1.256922934513849
-0.1845090164364141
-0.2344736718448493
0.005413267075228419
-0.03703259613740375
-0.2497011923204437
-0.06538763068416986
-0.05095997142175717
-0.1415109923616552
-0.1930292258212284
-0.06777176258192213
-1.231711507114227
-0.1467103563595177
-0.5205090462456665
0.07829698843645201
-0.007083824295680492
-0.02199943128410074
-0.04254416876368624
-0.04090497299823688
-0.02874380294860432
-0.132313211076433
0.07960491555044427
-0.003619023138637584
-0.009695925996296656
-0.5797172302366493
-0.8649877331778164
-0.1863458612842848
-0.008068191142394682
-0.1343569652983449
0.0009467525548627435
-0.0007914364768752447
-0.0020297320394976
-0.06023741993199784
-0.2396024592134732
-0.01345823115938009
-0.1216774379491439
-0.1544315898265565
-0.01322745887059943
-0.03593891672562062
0.02206903174066717
-0.05729966963062399
-0.06967218299480413
-0.5035741980646508
-0.2481483558179007
-0.08129319644352491
-0.07239685063263797
-0.0199187085857145
-0.1199297622857626
-0.1555691967495808
-0.07663475597497778
0.02539787917968641
-0.08433896982099916
-0.04800067394534553
-0.01493533510930547
-0.1100637658089649
-0.2723721153523074
-0.05668931589475335
-0.01854219402102976
0.001283919586176943
-0.01011620321667307
-0.01112507781946981
-0.2201913325150454
-0.01477849431468881
-0.2230848342237093
-0.01058213717354973
-0.06535570008621421
-0.003488784864769492
-0.02319147388970448
-0.377900405913864
-0.907599413935235
-0.01131356022224014
-1.051799644938404
-0.6143248723478539
-0.01078706735810778
-0.6526847676460797
-0.1760754885131742
-0.005437090520196169
-0.1300147902898104
-0.01715132821642891
-0.1214096527174775
-0.06765664114416997
-0.07491192644048962
-0.005351284553120706
-0.002911378964994586
-1.333171747695011
-0.01107757368498988
-0.1888267166468335
0.0005316390371577295
-1.015883521527908
-1.230292299660956
-0.08197036823496558
0.02013329343619148
0.1642407060034619
-0.004845694835020757
-0.02301646293844989
-0.004273608003669395
-0.2516555475499814
0.3661451418011735
-0.04089208807171325
-0.2101372992573743
-0.0149976822640867
-0.6594812307899495
-0.07540543156064121
0.1915707489568076
-0.2859780434353525
-0.04982155668361402
-0.06874767944178124
-0.01585168346514281
-0.02171455074456061
-0.5749719594344337
-0.1451760578783476
-0.08726630543868774
-0.1264718155501617
-0.5582131127521489
-0.04420638091497936
-0.9114029525071703
-0.0007457640530325235
-0.2374480912612842
-1.044618547805554
0.170336009666872
0.2927441165731614
-0.179851270621614
-0.1941659860317246
-0.2061632756270427
-0.06835236397707353
0.02335175234114633
0.05076308840055337
0.004314237855468769
-0.1632567464039736
0.02499040581629253
-1.352019599311443
-0.08507461210884872
-0.4718748202872362
-0.3286377149113261
-0.2052502299135952
-0.1755409118241898
-0.01693056051019369
-0.01543976674161507
-0.1037993398630174
0.1698914290007495
0.3858541921754242
-0.2217234641696332
-0.1440009248189857
-0.2409242384413289
-0.06243670159752115
-0.1528813119211466
-0.1634411281903714
-0.1254112831247527
-0.1192871711606542
0.4674633194833417
-0.2696458663358879
0.4297972460745395
-0.6006498833816644
0.07016541846363597
-0.2032858652637471
-0.06604035503588292
-0.07370383721559712
-0.8763425440684318
-0.2235043840824681
-0.1891826539866221
-0.3461579740324303
-0.4567517418741656
0.5706073799167707
-0.2046750668225146
-0.0001128489910542581
-0.07118127251943812
0.3427278414760898
-0.03786342235319994
-0.1267286357739705
-0.178329335492872
-0.06399163340815166
-0.01649577750837977
-0.1932386405807095
0.1917165630223895
-0.01272360135486611
-0.09610480655502816
-0.1680602043618946
-0.3122364902395516
-0.3142970693502274
-0.06754116868805814
-0.01020493741718245
-0.07588765885418072
-0.6580528059226144
-0.666371766796943
-0.337756868108629
-0.05763461366100262
-0.05226749249872722
-0.02543910092156988
-0.06744234551960876
-0.05819635528957467
-0.3583547711414174
-0.9535382532063429
-0.009900852806895562
-0.08278247341927718
-1.133906134981846
-1.028706709328004
-0.103324817437923
-0.03825653848746471
-0.07028917856072693
0.3913672701522239
-0.3456081898550248
-0.05151176084344872
-0.5963454088165301
-0.1255975470551501
-0.2540365660840805
-0.2089755416978275
0.4744369894191474
-0.6258176811261746
0.07208916841221573
-0.02957367820258271
-0.556490009098043
-0.05124973382733058
-0.3591607649531652
0.1059834082632121
-0.1896790516038718
-0.05973190031711123
-0.1354861992371615
-0.3642667523464702
-0.08969918341561155
0.513574314780059
0.08500179960347982
0.4714738481119824
-0.1142169246966178
-0.1992172356327987
-0.52252618798123
-0.1295349190840261
0.02710523446478119
-0.05339690685168431
0.1034783316322236
-0.3100772643893286
0.2361167041813778
0.009203734930657667
-0.003322169368326747
-0.5153899210024663
-0.1864191717483593
-0.08987534670897679
0.5812459358320117
0.1381471749827929
0.3471212862256614
0.225750787253689
-0.5588809007824082
-0.2128183831255125
-0.2191524085149281
-0.2390786008257439
-0.06017744336105661
-0.6968423315009787
-0.1955474365986971
0.3066300711668599
-0.209339963319611
-0.01108395170071234
-0.1726035519256651
-0.009288333913666902
-0.1587988751102195
-0.4340453608542102
-0.07706708315787784
-0.1969446166752619
-0.07253294380675609
-0.09459797898465915
-0.1433914842719839
-0.07370533444170764
-0.4547103157551022
-0.4171116611331788
-0.02710574803734753
-0.07406115175778187
0.3257266228644363
-0.2461800256455461
-0.1837427775355803
0.5260603429379181
-0.2063478550262692
0.01704232402603361
-0.4477951600220013
0.04480831502903755
-0.06246357597311063
-0.1549486290824939
-0.5808758775487035
0.1628111946089539
-0.5830355078101374
-0.5321531737137274
-0.1069570074407604
-0.5049926177038568
-0.03741298249613949
-0.1433763286003252
-0.4078295029455945
-0.01635277204574818
0.2858981281234403
0.4893063173130005
-0.1587445673900973
-0.008617868071672759
-0.06950688131012239
0.5253373028651814
-0.0334678368230616
-0.4373674065693589
-0.03275325577159198
0.459948457648429
-0.01458310528264403
-0.5413893210917149
-0.2428350886625753
0.1752141587218521
-0.3089690473703955
-0.1777214931491631
0.05256793889704763
0.03383041845118364
0.05387145482865918
-0.2978830106396594
-0.1567385035748875
0.4126854385042272
)
;

boundaryField
{
    FrontBack
    {
        type            empty;
    }
    Top
    {
        type            zeroGradient;
    }
    In
    {
        type            zeroGradient;
    }
    Bottom
    {
        type            zeroGradient;
    }
    Out
    {
        type            fixedValue;
        value           uniform 0;
    }
    circle
    {
        type            zeroGradient;
    }
}


// ************************************************************************* //
