/*--------------------------------*- C++ -*----------------------------------*\
| =========                 |                                                 |
| \\      /  F ield         | OpenFOAM: The Open Source CFD Toolbox           |
|  \\    /   O peration     | Version:  2412                                  |
|   \\  /    A nd           | Website:  www.openfoam.com                      |
|    \\/     M anipulation  |                                                 |
\*---------------------------------------------------------------------------*/
FoamFile
{
    version     2.0;
    format      ascii;
    arch        "LSB;label=32;scalar=64";
    class       volScalarField;
    location    "668";
    object      yPlus;
}
// * * * * * * * * * * * * * * * * * * * * * * * * * * * * * * * * * * * * * //

dimensions      [0 0 0 0 0 0 0];

internalField   uniform 0;

boundaryField
{
    FrontBack
    {
        type            empty;
    }
    Top
    {
        type            calculated;
        value           nonuniform List<scalar> 
15
(
142.2899996203772
133.5845911085686
138.0649846953138
144.4047989644813
159.7664848104701
131.3674576800867
140.1340840637261
135.3545402848611
153.4552646937726
135.7265425419457
136.0901353144931
136.7718186947853
125.2667993784106
132.9136488710276
123.9557485342519
)
;
    }
    In
    {
        type            calculated;
        value           uniform 0;
    }
    Bottom
    {
        type            calculated;
        value           nonuniform List<scalar> 
15
(
155.5672735330062
158.1192351807028
141.0876479630788
142.0430819162166
141.1784060373354
148.4273361757811
142.7020512093002
143.1467380221792
143.4216231365206
134.0604206133411
125.7265383032691
141.5566401626521
122.404828780744
123.4857881956455
124.1305171667922
)
;
    }
    Out
    {
        type            calculated;
        value           uniform 0;
    }
    circle
    {
        type            calculated;
        value           nonuniform List<scalar> 
32
(
56.06071467611639
22.06208721681352
65.25610369697652
25.02573366754547
19.91918541448568
56.19124751976729
56.64215101836091
23.7789902892976
22.26277828943818
65.49767304995869
39.8356358539252
62.94586809797911
50.57780298643037
16.90587199691102
23.02196038246187
17.94805361320747
39.26887403339735
59.76841170315716
61.03004072270113
24.6781311631837
65.76268415781252
63.79084872627013
63.05705760309034
59.89959071699769
64.12923554544186
45.96502398004746
66.42573720715048
32.0736923953919
37.97831730564289
55.73068148137254
21.07409648082388
43.13509132354781
)
;
    }
}


// ************************************************************************* //
