/*--------------------------------*- C++ -*----------------------------------*\
| =========                 |                                                 |
| \\      /  F ield         | OpenFOAM: The Open Source CFD Toolbox           |
|  \\    /   O peration     | Version:  2412                                  |
|   \\  /    A nd           | Website:  www.openfoam.com                      |
|    \\/     M anipulation  |                                                 |
\*---------------------------------------------------------------------------*/
FoamFile
{
    version     2.0;
    format      ascii;
    arch        "LSB;label=32;scalar=64";
    class       volVectorField;
    location    "0.7";
    object      cellDisplacement;
}
// * * * * * * * * * * * * * * * * * * * * * * * * * * * * * * * * * * * * * //

dimensions      [0 1 0 0 0 0 0];

internalField   nonuniform List<vector> 
256
(
(0.00214634 -0.00294366 0)
(0.004129 -0.00535636 0)
(0.00626162 -0.00718347 0)
(0.0085956 -0.00831745 0)
(0.0111609 -0.00867981 0)
(0.0138663 -0.00818377 0)
(0.0164287 -0.00676229 0)
(0.0185524 -0.00449384 0)
(0.00952556 -0.0128149 0)
(0.0153523 -0.0190351 0)
(0.0215331 -0.0233595 0)
(0.0283115 -0.0257075 0)
(0.0356238 -0.0258583 0)
(0.0431086 -0.0236217 0)
(0.050104 -0.0189515 0)
(0.0556242 -0.0121097 0)
(0.0197037 -0.0260567 0)
(0.0289906 -0.0347722 0)
(0.0389641 -0.0404807 0)
(0.0498233 -0.0430414 0)
(0.0613664 -0.0421643 0)
(0.0729559 -0.0376199 0)
(0.0834305 -0.029435 0)
(0.09144 -0.0181655 0)
(0.0324991 -0.0422051 0)
(0.045008 -0.0522552 0)
(0.0584415 -0.0582352 0)
(0.0729852 -0.0600941 0)
(0.0882159 -0.0574653 0)
(0.103153 -0.0501326 0)
(0.11637 -0.0382849 0)
(0.126086 -0.022765 0)
(0.0478296 -0.0608357 0)
(0.0632426 -0.0710246 0)
(0.0798741 -0.0763186 0)
(0.0976917 -0.0766468 0)
(0.116037 -0.071631 0)
(0.13367 -0.0611288 0)
(0.1488 -0.0455221 0)
(0.159552 -0.0259466 0)
(0.0655445 -0.0814055 0)
(0.0836781 -0.0907177 0)
(0.103158 -0.0943891 0)
(0.123805 -0.0924409 0)
(0.14469 -0.0844957 0)
(0.164294 -0.0705297 0)
(0.180728 -0.0511383 0)
(0.191988 -0.0277204 0)
(0.0856273 -0.103423 0)
(0.106196 -0.110847 0)
(0.128236 -0.112099 0)
(0.151247 -0.107213 0)
(0.174076 -0.0958814 0)
(0.195047 -0.0782271 0)
(0.212099 -0.0550697 0)
(0.223411 -0.0280414 0)
(0.108012 -0.12629 0)
(0.130848 -0.130979 0)
(0.155056 -0.129051 0)
(0.179939 -0.120652 0)
(0.204133 -0.105558 0)
(0.225792 -0.0840763 0)
(0.242976 -0.0572113 0)
(0.253825 -0.0267877 0)
(0.132838 -0.14948 0)
(0.157608 -0.150558 0)
(0.183629 -0.144796 0)
(0.209871 -0.132382 0)
(0.234816 -0.113239 0)
(0.256621 -0.0878309 0)
(0.273314 -0.0573866 0)
(0.28328 -0.0237977 0)
(0.160192 -0.172312 0)
(0.186683 -0.169045 0)
(0.214053 -0.158825 0)
(0.241087 -0.141957 0)
(0.266152 -0.118518 0)
(0.287399 -0.0892023 0)
(0.303062 -0.0553098 0)
(0.311793 -0.0188238 0)
(0.19039 -0.193914 0)
(0.2182 -0.185626 0)
(0.246434 -0.170408 0)
(0.273593 -0.148734 0)
(0.298036 -0.120879 0)
(0.318077 -0.0876951 0)
(0.332173 -0.050598 0)
(0.339363 -0.0114671 0)
(0.223716 -0.21323 0)
(0.252454 -0.199209 0)
(0.280852 -0.178523 0)
(0.307357 -0.151781 0)
(0.330409 -0.119514 0)
(0.34854 -0.0826898 0)
(0.360577 -0.0426741 0)
(0.36581 -0.00126428 0)
(0.260873 -0.228818 0)
(0.289831 -0.208402 0)
(0.31754 -0.181797 0)
(0.342389 -0.149889 0)
(0.363076 -0.113367 0)
(0.378506 -0.0732338 0)
(0.387872 -0.0308196 0)
(0.390748 0.0124233 0)
(0.302411 -0.238221 0)
(0.330579 -0.210777 0)
(0.35626 -0.178139 0)
(0.37814 -0.141319 0)
(0.395342 -0.101053 0)
(0.407208 -0.0582987 0)
(0.413302 -0.0140865 0)
(0.413478 0.0303557 0)
(0.348265 -0.237526 0)
(0.373819 -0.202787 0)
(0.395502 -0.164626 0)
(0.412757 -0.123784 0)
(0.425257 -0.0808667 0)
(0.432751 -0.0365625 0)
(0.435101 0.00834829 0)
(0.432291 0.0530771 0)
(0.392684 -0.219249 0)
(0.412284 -0.179704 0)
(0.427912 -0.138428 0)
(0.43942 -0.0958183 0)
(0.446696 -0.0522862 0)
(0.44967 -0.0082506 0)
(0.448313 0.0358645 0)
(0.442639 0.0796342 0)
(-0.00161293 -0.0197911 0)
(0.00144083 -0.0198564 0)
(0.00407115 -0.0185241 0)
(0.00578191 -0.0160402 0)
(0.0063479 -0.012905 0)
(0.00578606 -0.00950856 0)
(0.00430072 -0.00612715 0)
(0.00221612 -0.00290291 0)
(-0.00383906 -0.0586948 0)
(0.00468722 -0.0586119 0)
(0.0120211 -0.0550346 0)
(0.0170335 -0.048627 0)
(0.0191198 -0.0403706 0)
(0.0182708 -0.0312563 0)
(0.0149043 -0.02201 0)
(0.00960076 -0.0129107 0)
(-0.00502638 -0.095606 0)
(0.0082701 -0.0951816 0)
(0.0197007 -0.0897448 0)
(0.0277304 -0.0802377 0)
(0.0315739 -0.0680616 0)
(0.0311533 -0.0545059 0)
(0.0269171 -0.0405375 0)
(0.0195705 -0.0266005 0)
(-0.00521035 -0.130853 0)
(0.0122598 -0.129798 0)
(0.0272815 -0.12277 0)
(0.0381471 -0.110937 0)
(0.0439179 -0.0958116 0)
(0.0444637 -0.0788815 0)
(0.0402291 -0.0612917 0)
(0.0318688 -0.0434807 0)
(-0.0044141 -0.164509 0)
(0.0167648 -0.162727 0)
(0.0350116 -0.154387 0)
(0.0485226 -0.140735 0)
(0.056345 -0.123444 0)
(0.0582911 -0.104057 0)
(0.0547354 -0.0837628 0)
(0.0463343 -0.063073 0)
(-0.00256112 -0.196714 0)
(0.0219037 -0.194122 0)
(0.043053 -0.184654 0)
(0.0591143 -0.169681 0)
(0.0690856 -0.150845 0)
(0.0727595 -0.129727 0)
(0.0704765 -0.107572 0)
(0.0628276 -0.0848259 0)
(0.000396702 -0.227552 0)
(0.027836 -0.224148 0)
(0.0516719 -0.213754 0)
(0.0701574 -0.197766 0)
(0.0823602 -0.177879 0)
(0.0880463 -0.15564 0)
(0.087486 -0.132255 0)
(0.0813143 -0.108215 0)
(0.00463669 -0.257175 0)
(0.0347507 -0.252908 0)
(0.0610529 -0.24169 0)
(0.0819247 -0.224993 0)
(0.0964342 -0.204431 0)
(0.104343 -0.181498 0)
(0.105921 -0.157436 0)
(0.101802 -0.132679 0)
(0.010316 -0.285627 0)
(0.0428905 -0.280487 0)
(0.0715465 -0.268613 0)
(0.0947304 -0.251358 0)
(0.111588 -0.230339 0)
(0.121929 -0.20706 0)
(0.12597 -0.182684 0)
(0.124427 -0.157672 0)
(0.0177646 -0.312985 0)
(0.0525855 -0.306934 0)
(0.0834267 -0.294425 0)
(0.108879 -0.276765 0)
(0.128171 -0.255476 0)
(0.141115 -0.232006 0)
(0.147934 -0.207558 0)
(0.149375 -0.182547 0)
(0.0273158 -0.339201 0)
(0.0641619 -0.332145 0)
(0.0970425 -0.318965 0)
(0.124733 -0.300958 0)
(0.14656 -0.279521 0)
(0.162314 -0.25598 0)
(0.17218 -0.231506 0)
(0.176988 -0.20656 0)
(0.0394369 -0.364067 0)
(0.0780322 -0.355866 0)
(0.112826 -0.341988 0)
(0.142767 -0.32361 0)
(0.167229 -0.302013 0)
(0.18601 -0.278399 0)
(0.199232 -0.253829 0)
(0.207702 -0.228787 0)
(0.0546357 -0.387194 0)
(0.0947749 -0.377738 0)
(0.131373 -0.363079 0)
(0.163557 -0.344231 0)
(0.190778 -0.322297 0)
(0.212804 -0.298365 0)
(0.229713 -0.273449 0)
(0.242242 -0.247959 0)
(0.0737412 -0.407871 0)
(0.115014 -0.396984 0)
(0.153212 -0.381387 0)
(0.187627 -0.36187 0)
(0.217758 -0.33932 0)
(0.24339 -0.314577 0)
(0.264437 -0.288581 0)
(0.281428 -0.261817 0)
(0.0967906 -0.424468 0)
(0.138778 -0.411966 0)
(0.178369 -0.395174 0)
(0.214987 -0.374637 0)
(0.248209 -0.350929 0)
(0.2777 -0.32473 0)
(0.303311 -0.296665 0)
(0.325312 -0.267116 0)
(0.122637 -0.432702 0)
(0.164459 -0.418598 0)
(0.204697 -0.400463 0)
(0.242963 -0.378471 0)
(0.27889 -0.352834 0)
(0.312131 -0.323799 0)
(0.342365 -0.291645 0)
(0.369303 -0.256683 0)
)
;

boundaryField
{
    walls
    {
        type            cellMotion;
        value           uniform (0 0 0);
    }
    cylinder
    {
        type            cellMotion;
        value           nonuniform List<vector> 
16
(
(0.392684 -0.219249 0)
(0.412284 -0.179704 0)
(0.427912 -0.138428 0)
(0.43942 -0.0958183 0)
(0.446696 -0.0522862 0)
(0.44967 -0.0082506 0)
(0.448313 0.0358645 0)
(0.442639 0.0796342 0)
(0.122637 -0.432702 0)
(0.164459 -0.418598 0)
(0.204697 -0.400463 0)
(0.242963 -0.378471 0)
(0.27889 -0.352834 0)
(0.312131 -0.323799 0)
(0.342365 -0.291645 0)
(0.369303 -0.256683 0)
)
;
    }
    outlet
    {
        type            cellMotion;
        value           nonuniform List<vector> 0();
    }
    inlet
    {
        type            cellMotion;
        value           uniform (0 0 0);
    }
    frontAndBack
    {
        type            empty;
    }
    procBoundary0to1
    {
        type            processor;
        value           nonuniform List<vector> 
16
(
(0.0197833 -0.00160493 0)
(0.058673 -0.00381511 0)
(0.0955712 -0.00498704 0)
(0.13081 -0.00515253 0)
(0.16446 -0.00433509 0)
(0.196669 -0.00245466 0)
(0.227515 0.000533932 0)
(0.257154 0.00481056 0)
(0.285617 0.0105207 0)
(0.312994 0.0179985 0)
(0.339217 0.0275572 0)
(0.364091 0.0396707 0)
(0.387223 0.0548015 0)
(0.407873 0.0738164 0)
(0.424473 0.0967986 0)
(0.432702 0.122637 0)
)
;
    }
    procBoundary0to2
    {
        type            processor;
        value           nonuniform List<vector> 
16
(
(-0.00450838 -0.0185437 0)
(-0.0121547 -0.0555983 0)
(-0.0182393 -0.0914009 0)
(-0.0228722 -0.126031 0)
(-0.0260885 -0.159482 0)
(-0.0279013 -0.191902 0)
(-0.0282616 -0.223309 0)
(-0.0270452 -0.253711 0)
(-0.0240923 -0.283153 0)
(-0.019142 -0.311665 0)
(-0.0117985 -0.339234 0)
(-0.0015685 -0.365701 0)
(0.0121916 -0.390671 0)
(0.0302308 -0.41343 0)
(0.053045 -0.432279 0)
(0.0796342 -0.442639 0)
)
;
    }
}


// ************************************************************************* //
