/*--------------------------------*- C++ -*----------------------------------*\
| =========                 |                                                 |
| \\      /  F ield         | OpenFOAM: The Open Source CFD Toolbox           |
|  \\    /   O peration     | Version:  2412                                  |
|   \\  /    A nd           | Website:  www.openfoam.com                      |
|    \\/     M anipulation  |                                                 |
\*---------------------------------------------------------------------------*/
FoamFile
{
    version     2.0;
    format      ascii;
    arch        "LSB;label=32;scalar=64";
    class       surfaceScalarField;
    location    "0.7";
    object      meshPhi;
}
// * * * * * * * * * * * * * * * * * * * * * * * * * * * * * * * * * * * * * //

dimensions      [0 3 -1 0 0 0 0];

internalField   nonuniform List<scalar> 
480
(
0.00157254
-0.00326936
-0.00143522
0.00177935
-0.00420582
0.00194235
-0.00518584
0.00199306
-0.00572795
0.00197593
-0.00586569
0.00190838
-0.00564622
0.00190319
-0.00506164
-0.00403293
0.00475008
-0.00686423
-0.00437236
0.00535342
-0.00842376
0.00578724
-0.00999838
0.0059422
-0.01079
0.00591712
-0.0108879
0.0057843
-0.0103769
0.00578515
-0.00923553
-0.00729027
0.00801311
-0.0106223
-0.00753023
0.00896763
-0.0125147
0.00956613
-0.0144215
0.00980847
-0.0152655
0.00981351
-0.0152198
0.00968637
-0.0143408
0.0097072
-0.0125943
-0.00979734
0.0114376
-0.0144206
-0.0109766
0.0126338
-0.0164082
0.0133228
-0.0183426
0.0136236
-0.0190649
0.0136688
-0.0187443
0.0135611
-0.0174169
0.0135751
-0.0150667
-0.0115344
0.0151458
-0.0181823
-0.0148194
0.0164451
-0.0200792
0.0171549
-0.0218703
0.0174689
-0.0223454
0.0175326
-0.021673
0.0174114
-0.0198598
0.0173586
-0.0168633
-0.0126279
0.0192285
-0.0216584
-0.0191
0.0204769
-0.0233897
0.021128
-0.0248368
0.0213753
-0.0249293
0.0213988
-0.0238095
0.0212234
-0.0215147
0.0210735
-0.0179841
-0.013205
0.0235645
-0.0243414
-0.0236318
0.0247306
-0.0259371
0.0252731
-0.027115
0.0253573
-0.0268152
0.0252377
-0.0252238
0.0249669
-0.0224811
0.0247415
-0.0185327
-0.0133823
0.0280293
-0.026225
-0.0283393
0.0291732
-0.0275849
0.0295766
-0.0284547
0.0294371
-0.027821
0.0290478
-0.0258349
0.0286228
-0.0226734
0.028356
-0.0184376
-0.0131739
0.0329559
-0.0276872
-0.0336803
0.0338385
-0.0284699
0.0340201
-0.0287478
0.0336339
-0.0277878
0.0329294
-0.0255422
0.0322676
-0.0221269
0.0319152
-0.0177461
-0.0125632
0.0387345
-0.0282628
-0.0400265
0.0389399
-0.0285077
0.0386825
-0.028072
0.0379667
-0.0267007
0.0369529
-0.0243284
0.0359496
-0.0208737
0.0353572
-0.0165057
-0.0115746
0.0451926
-0.0275075
-0.0471118
0.0444927
-0.0273341
0.0435333
-0.0262832
0.0423202
-0.0245008
0.0409762
-0.0220572
0.0396218
-0.0187992
0.038644
-0.0147449
-0.0102029
0.0519294
-0.0251739
-0.0545531
0.0502765
-0.0246225
0.0484733
-0.0230561
0.0466676
-0.0209979
0.0449326
-0.0186045
0.0433025
-0.0157597
0.0419876
-0.0123868
-0.008535
0.0588887
-0.0211081
-0.062329
0.0562173
-0.0201954
0.0535472
-0.0183005
0.0510834
-0.0162446
0.0488504
-0.0140982
0.0469875
-0.0118157
0.0455212
-0.00929077
-0.00637335
0.0661969
-0.0150158
-0.0705771
0.06239
-0.0139887
0.0587737
-0.0121777
0.0554992
-0.0104369
0.0526903
-0.00876026
0.0504966
-0.0070954
0.0489352
-0.00533191
-0.00335913
0.0731762
-0.00637647
-0.078599
0.0679983
-0.00565566
0.063276
-0.00463349
0.0591542
-0.00367827
0.05578
-0.00277286
0.0532453
-0.00187643
0.0516246
-0.000958894
-1.92211e-05
0.0706354
-0.0772116
0.0645649
0.0593282
0.0550287
0.0517354
0.0494971
0.0483381
0.00233376
-0.00277132
0.00255613
-0.000863621
0.00252678
0.000905604
0.00234463
0.00225437
0.00208702
0.00304905
0.0017626
0.00336151
0.00144639
0.00352434
0.00391694
0.00681189
-0.00504896
0.00736253
-0.00163601
0.00733702
0.00151894
0.00692232
0.00397379
0.00628056
0.00553018
0.00542914
0.00628643
0.00451547
0.0066292
0.00707355
0.0109389
-0.00684556
0.0116562
-0.00229973
0.0117152
0.00187264
0.0112638
0.00519897
0.0104528
0.00740649
0.00929902
0.00859737
0.00789855
0.00910526
0.00949283
0.0148014
-0.00814026
0.0155712
-0.00274908
0.0157377
0.00214723
0.0153686
0.00607513
0.0145473
0.00877911
0.0132721
0.010336
0.0115421
0.0109901
0.0112878
0.0184705
-0.00895821
0.0192337
-0.00302185
0.0195058
0.00231663
0.0192928
0.00663669
0.018588
0.00969887
0.0173497
0.0115468
0.0154748
0.0123448
0.0126052
0.0219694
-0.00935863
0.0227094
-0.00311621
0.0230943
0.00246345
0.0231053
0.00699914
0.0226524
0.0102903
0.0215791
0.0123332
0.0196789
0.0131983
0.0134387
0.0253282
-0.00938251
0.0260512
-0.00304269
0.0265705
0.00258664
0.0269123
0.00721745
0.0268167
0.0106146
0.0258798
0.0126527
0.0240018
0.0134543
0.0136844
0.0286086
-0.00910748
0.0293319
-0.00283061
0.0300064
0.00273843
0.0306678
0.00727737
0.0309071
0.0105309
0.0301616
0.0124538
0.0284833
0.0132461
0.0134785
0.0318771
-0.00846109
0.0326516
-0.00237478
0.0334771
0.00293503
0.0342036
0.00712728
0.0346838
0.0101022
0.0344621
0.0119117
0.0333713
0.0127483
0.0131092
0.0352098
-0.00753854
0.0360551
-0.0018663
0.0369998
0.00299722
0.0377364
0.00681058
0.038385
0.00955262
0.0388531
0.0112735
0.0388028
0.0122081
0.0127529
0.0385448
-0.00627693
0.03945
-0.0012517
0.0405422
0.00302653
0.0415596
0.0064117
0.0425554
0.00891074
0.0437268
0.0105616
0.044835
0.0114954
0.0120284
0.0418351
-0.00462119
0.0428247
-0.000468366
0.0441393
0.00305323
0.0456324
0.00585879
0.047343
0.00796479
0.0493766
0.00933516
0.0514254
0.0101143
0.0106175
0.0452085
-0.00269991
0.0462988
0.000448767
0.0479203
0.00306871
0.0500003
0.00510765
0.0525659
0.00656527
0.055521
0.00756634
0.0584773
0.00825246
0.00875344
0.0486242
-0.000689417
0.049915
0.00130801
0.0519564
0.00294321
0.0546986
0.00420684
0.0580785
0.00510241
0.0619034
0.00577928
0.0659032
0.00635667
0.00681316
0.0515949
0.00112503
0.0531634
0.0020104
0.0556731
0.00277304
0.0590456
0.00340006
0.0631898
0.00390935
0.0679244
0.00430749
0.0730442
0.00467573
0.00502095
0.049278
0.051254
0.0541285
0.057782
0.0620939
0.0669012
0.0720073
)
;

boundaryField
{
    walls
    {
        type            calculated;
        value           uniform 0;
    }
    cylinder
    {
        type            calculated;
        value           nonuniform List<scalar> 
16
(
1.30025e-11
-2.56821e-11
-1.65827e-11
2.28971e-11
-8.12787e-12
4.47085e-12
1.34717e-11
-1.09696e-11
1.09721e-11
-1.34696e-11
-4.46747e-12
8.13096e-12
-2.28932e-11
1.65876e-11
2.56844e-11
-1.30005e-11
)
;
    }
    outlet
    {
        type            calculated;
        value           nonuniform List<scalar> 0();
    }
    inlet
    {
        type            calculated;
        value           uniform 0;
    }
    frontAndBack
    {
        type            empty;
    }
    procBoundary0to1
    {
        type            processor;
        value           nonuniform List<scalar> 
16
(
0.00204074
0.00611322
0.0100903
0.0139478
0.0176923
0.0213332
0.0248875
0.0283593
0.0317529
0.0350388
0.0381601
0.0413102
0.0447096
0.0481087
0.0509603
0.0482555
)
;
    }
    procBoundary0to2
    {
        type            processor;
        value           nonuniform List<scalar> 
16
(
-0.00207578
-0.00619538
-0.0101704
-0.0139725
-0.0176161
-0.0211289
-0.0245574
-0.0279521
-0.0313522
-0.0347422
-0.0380378
-0.0413171
-0.0447632
-0.0481847
-0.0510228
-0.0482731
)
;
    }
}


// ************************************************************************* //
