/*--------------------------------*- C++ -*----------------------------------*\
| =========                 |                                                 |
| \\      /  F ield         | OpenFOAM: The Open Source CFD Toolbox           |
|  \\    /   O peration     | Version:  2412                                  |
|   \\  /    A nd           | Website:  www.openfoam.com                      |
|    \\/     M anipulation  |                                                 |
\*---------------------------------------------------------------------------*/
FoamFile
{
    version     2.0;
    format      ascii;
    arch        "LSB;label=32;scalar=64";
    class       pointVectorField;
    location    "0.7";
    object      pointDisplacement;
}
// * * * * * * * * * * * * * * * * * * * * * * * * * * * * * * * * * * * * * //

dimensions      [0 1 0 0 0 0 0];

internalField   nonuniform List<vector> 
578
(
(0 0 0)
(0 0 0)
(0 0 0)
(0 0 0)
(0 0 0)
(0 0 0)
(0 0 0)
(0 0 0)
(0 0 0)
(0.00572601 -0.00769628 0)
(0.00776374 -0.0100168 0)
(0.0118 -0.01373 0)
(0.0161602 -0.0161509 0)
(0.0209126 -0.0171597 0)
(0.0259369 -0.0166123 0)
(0.0308845 -0.0144104 0)
(0.0352002 -0.0106096 0)
(0.0381981 -0.00552932 0)
(0.0144121 -0.0193453 0)
(0.0183767 -0.023166 0)
(0.0261975 -0.0294199 0)
(0.0346485 -0.0331637 0)
(0.0437764 -0.034216 0)
(0.053266 -0.0323439 0)
(0.0624131 -0.0274366 0)
(0.0701762 -0.0196921 0)
(0.0753672 -0.0097881 0)
(0.0256903 -0.0342988 0)
(0.0315387 -0.038831 0)
(0.0428444 -0.0464536 0)
(0.0550492 -0.0504852 0)
(0.068098 -0.0507175 0)
(0.0814309 -0.046874 0)
(0.0939955 -0.0388956 0)
(0.104361 -0.027185 0)
(0.111016 -0.0127812 0)
(0.0393876 -0.0520902 0)
(0.0471372 -0.0565994 0)
(0.0616392 -0.0644831 0)
(0.0772485 -0.0678506 0)
(0.0937381 -0.0664877 0)
(0.110282 -0.0601175 0)
(0.125521 -0.0487917 0)
(0.137734 -0.0331473 0)
(0.145266 -0.0145582 0)
(0.0553705 -0.0722201 0)
(0.065068 -0.0760225 0)
(0.0824904 -0.0831428 0)
(0.101137 -0.084979 0)
(0.120567 -0.081333 0)
(0.139691 -0.0719729 0)
(0.156899 -0.0571006 0)
(0.1703 -0.0375944 0)
(0.178205 -0.0151177 0)
(0.0735516 -0.0941584 0)
(0.0852582 -0.0966313 0)
(0.105323 -0.102047 0)
(0.126621 -0.101568 0)
(0.14847 -0.095037 0)
(0.16955 -0.0823077 0)
(0.188072 -0.0637578 0)
(0.202091 -0.0404999 0)
(0.209931 -0.0144198 0)
(0.0939039 -0.11736 0)
(0.107669 -0.117922 0)
(0.130094 -0.12078 0)
(0.153634 -0.117286 0)
(0.17737 -0.107354 0)
(0.199789 -0.0909564 0)
(0.21901 -0.068658 0)
(0.233112 -0.0417801 0)
(0.240509 -0.0123666 0)
(0.11648 -0.141265 0)
(0.132327 -0.139367 0)
(0.156799 -0.138883 0)
(0.182143 -0.131752 0)
(0.207215 -0.117983 0)
(0.230371 -0.0976926 0)
(0.24971 -0.071633 0)
(0.263383 -0.0412939 0)
(0.27 -0.00880588 0)
(0.141418 -0.165273 0)
(0.159333 -0.160389 0)
(0.185511 -0.155842 0)
(0.212184 -0.14452 0)
(0.238011 -0.126545 0)
(0.261281 -0.102209 0)
(0.280134 -0.0724338 0)
(0.292894 -0.0388233 0)
(0.298449 -0.00351562 0)
(0.168949 -0.188646 0)
(0.188873 -0.180264 0)
(0.216365 -0.171009 0)
(0.243821 -0.155006 0)
(0.269751 -0.132538 0)
(0.292452 -0.104079 0)
(0.310213 -0.070697 0)
(0.321628 -0.0340396 0)
(0.325866 0.00382841 0)
(0.199421 -0.210483 0)
(0.2212 -0.198032 0)
(0.249513 -0.18347 0)
(0.277094 -0.16238 0)
(0.302387 -0.135235 0)
(0.323803 -0.102692 0)
(0.339876 -0.065904 0)
(0.349509 -0.0264866 0)
(0.352142 0.0136385 0)
(0.23337 -0.229611 0)
(0.256734 -0.212447 0)
(0.285204 -0.192004 0)
(0.312076 -0.165507 0)
(0.33585 -0.133636 0)
(0.355172 -0.0971897 0)
(0.368906 -0.0573368 0)
(0.376277 -0.015565 0)
(0.376987 0.0264244 0)
(0.271502 -0.244173 0)
(0.295947 -0.221578 0)
(0.323597 -0.194787 0)
(0.348631 -0.162782 0)
(0.369783 -0.126391 0)
(0.386072 -0.0864648 0)
(0.396752 -0.0440839 0)
(0.401372 -0.000507659 0)
(0.399846 0.0428684 0)
(0.31417 -0.251191 0)
(0.338811 -0.222332 0)
(0.3641 -0.189066 0)
(0.385722 -0.151938 0)
(0.402923 -0.111718 0)
(0.415177 -0.0691551 0)
(0.422117 -0.0251116 0)
(0.423561 0.0194563 0)
(0.41954 0.0635368 0)
(0.358867 -0.245168 0)
(0.381878 -0.209749 0)
(0.402481 -0.171303 0)
(0.418977 -0.130577 0)
(0.431091 -0.0881051 0)
(0.438634 -0.044415 0)
(0.441484 -8.36624e-05 0)
(0.439601 0.044286 0)
(0.433034 0.0880802 0)
(0.381913 -0.238541 0)
(0.403455 -0.199958 0)
(0.421112 -0.15945 0)
(0.434713 -0.117406 0)
(0.444127 -0.074231 0)
(0.449265 -0.0303415 0)
(0.450075 0.0138403 0)
(0.446552 0.0578887 0)
(0.438727 0.10138 0)
(0 0 0)
(0 0 0)
(0 0 0)
(0 0 0)
(0 0 0)
(0 0 0)
(0 0 0)
(0 0 0)
(0 0 0)
(0.00572601 -0.00769628 0)
(0.00776374 -0.0100168 0)
(0.0118 -0.01373 0)
(0.0161602 -0.0161509 0)
(0.0209126 -0.0171597 0)
(0.0259369 -0.0166123 0)
(0.0308845 -0.0144104 0)
(0.0352002 -0.0106096 0)
(0.0381981 -0.00552932 0)
(0.0144121 -0.0193453 0)
(0.0183767 -0.023166 0)
(0.0261975 -0.0294199 0)
(0.0346485 -0.0331637 0)
(0.0437764 -0.034216 0)
(0.053266 -0.0323439 0)
(0.0624131 -0.0274366 0)
(0.0701762 -0.0196921 0)
(0.0753672 -0.0097881 0)
(0.0256903 -0.0342988 0)
(0.0315387 -0.038831 0)
(0.0428444 -0.0464536 0)
(0.0550492 -0.0504852 0)
(0.068098 -0.0507175 0)
(0.0814309 -0.046874 0)
(0.0939955 -0.0388956 0)
(0.104361 -0.027185 0)
(0.111016 -0.0127812 0)
(0.0393876 -0.0520902 0)
(0.0471372 -0.0565994 0)
(0.0616392 -0.0644831 0)
(0.0772485 -0.0678506 0)
(0.0937381 -0.0664877 0)
(0.110282 -0.0601175 0)
(0.125521 -0.0487917 0)
(0.137734 -0.0331473 0)
(0.145266 -0.0145582 0)
(0.0553705 -0.0722201 0)
(0.065068 -0.0760225 0)
(0.0824904 -0.0831428 0)
(0.101137 -0.084979 0)
(0.120567 -0.081333 0)
(0.139691 -0.0719729 0)
(0.156899 -0.0571006 0)
(0.1703 -0.0375944 0)
(0.178205 -0.0151177 0)
(0.0735516 -0.0941584 0)
(0.0852582 -0.0966313 0)
(0.105323 -0.102047 0)
(0.126621 -0.101568 0)
(0.14847 -0.095037 0)
(0.16955 -0.0823077 0)
(0.188072 -0.0637578 0)
(0.202091 -0.0404999 0)
(0.209931 -0.0144198 0)
(0.0939039 -0.11736 0)
(0.107669 -0.117922 0)
(0.130094 -0.12078 0)
(0.153634 -0.117286 0)
(0.17737 -0.107354 0)
(0.199789 -0.0909564 0)
(0.21901 -0.068658 0)
(0.233112 -0.0417801 0)
(0.240509 -0.0123666 0)
(0.11648 -0.141265 0)
(0.132327 -0.139367 0)
(0.156799 -0.138883 0)
(0.182143 -0.131752 0)
(0.207215 -0.117983 0)
(0.230371 -0.0976926 0)
(0.24971 -0.071633 0)
(0.263383 -0.0412939 0)
(0.27 -0.00880588 0)
(0.141418 -0.165273 0)
(0.159333 -0.160389 0)
(0.185511 -0.155842 0)
(0.212184 -0.14452 0)
(0.238011 -0.126545 0)
(0.261281 -0.102209 0)
(0.280134 -0.0724338 0)
(0.292894 -0.0388233 0)
(0.298449 -0.00351562 0)
(0.168949 -0.188646 0)
(0.188873 -0.180264 0)
(0.216365 -0.171009 0)
(0.243821 -0.155006 0)
(0.269751 -0.132538 0)
(0.292452 -0.104079 0)
(0.310213 -0.070697 0)
(0.321628 -0.0340396 0)
(0.325866 0.00382841 0)
(0.199421 -0.210483 0)
(0.2212 -0.198032 0)
(0.249513 -0.18347 0)
(0.277094 -0.16238 0)
(0.302387 -0.135235 0)
(0.323803 -0.102692 0)
(0.339876 -0.065904 0)
(0.349509 -0.0264866 0)
(0.352142 0.0136385 0)
(0.23337 -0.229611 0)
(0.256734 -0.212447 0)
(0.285204 -0.192004 0)
(0.312076 -0.165507 0)
(0.33585 -0.133636 0)
(0.355172 -0.0971897 0)
(0.368906 -0.0573368 0)
(0.376277 -0.015565 0)
(0.376987 0.0264244 0)
(0.271502 -0.244173 0)
(0.295947 -0.221578 0)
(0.323597 -0.194787 0)
(0.348631 -0.162782 0)
(0.369783 -0.126391 0)
(0.386072 -0.0864648 0)
(0.396752 -0.0440839 0)
(0.401372 -0.000507659 0)
(0.399846 0.0428684 0)
(0.31417 -0.251191 0)
(0.338811 -0.222332 0)
(0.3641 -0.189066 0)
(0.385722 -0.151938 0)
(0.402923 -0.111718 0)
(0.415177 -0.0691551 0)
(0.422117 -0.0251116 0)
(0.423561 0.0194563 0)
(0.41954 0.0635368 0)
(0.358867 -0.245168 0)
(0.381878 -0.209749 0)
(0.402481 -0.171303 0)
(0.418977 -0.130577 0)
(0.431091 -0.0881051 0)
(0.438634 -0.044415 0)
(0.441484 -8.36624e-05 0)
(0.439601 0.044286 0)
(0.433034 0.0880802 0)
(0.381913 -0.238541 0)
(0.403455 -0.199958 0)
(0.421112 -0.15945 0)
(0.434713 -0.117406 0)
(0.444127 -0.074231 0)
(0.449265 -0.0303415 0)
(0.450075 0.0138403 0)
(0.446552 0.0578887 0)
(0.438727 0.10138 0)
(0 0 0)
(0 0 0)
(0 0 0)
(0 0 0)
(0 0 0)
(0 0 0)
(0 0 0)
(0 0 0)
(-0.00555226 -0.0381966 0)
(0.000158775 -0.0392928 0)
(0.0055611 -0.038068 0)
(0.00974683 -0.0346141 0)
(0.0120973 -0.0295297 0)
(0.0124047 -0.0235345 0)
(0.0108275 -0.0172285 0)
(0.00774934 -0.0109694 0)
(-0.0098337 -0.0753649 0)
(0.00101619 -0.0770737 0)
(0.011176 -0.0746979 0)
(0.0191385 -0.0684637 0)
(0.0238882 -0.0593691 0)
(0.0250544 -0.0485814 0)
(0.0228316 -0.0370955 0)
(0.0177596 -0.0255202 0)
(-0.0128508 -0.111012 0)
(0.00257033 -0.112906 0)
(0.0168851 -0.109422 0)
(0.0282301 -0.10097 0)
(0.0353636 -0.0888059 0)
(0.0378021 -0.0743529 0)
(0.0357161 -0.0588333 0)
(0.0296705 -0.0430024 0)
(-0.0146547 -0.145257 0)
(0.00485073 -0.147014 0)
(0.0228374 -0.142463 0)
(0.0372545 -0.13225 0)
(0.0467523 -0.117774 0)
(0.0507785 -0.100589 0)
(0.0494575 -0.0820342 0)
(0.0433245 -0.0629416 0)
(-0.0152448 -0.178189 0)
(0.00792725 -0.179556 0)
(0.0291921 -0.174011 0)
(0.0464382 -0.162403 0)
(0.0582842 -0.146216 0)
(0.0641431 -0.127059 0)
(0.0640941 -0.10632 0)
(0.05863 -0.084857 0)
(-0.0145809 -0.209905 0)
(0.0119002 -0.210668 0)
(0.0361255 -0.204203 0)
(0.056011 -0.191498 0)
(0.070195 -0.17408 0)
(0.078084 -0.153562 0)
(0.0797198 -0.131339 0)
(0.0755636 -0.10827 0)
(-0.0125637 -0.24047 0)
(0.0169134 -0.240476 0)
(0.0438375 -0.233154 0)
(0.0662126 -0.219582 0)
(0.082733 -0.201301 0)
(0.092815 -0.179899 0)
(0.0964753 -0.156748 0)
(0.0941666 -0.1327 0)
(-0.00903854 -0.269947 0)
(0.0231581 -0.269076 0)
(0.0525697 -0.26095 0)
(0.0773235 -0.246691 0)
(0.0961813 -0.227811 0)
(0.10859 -0.205867 0)
(0.114564 -0.182208 0)
(0.114562 -0.157669 0)
(-0.00377841 -0.298385 0)
(0.0308997 -0.296532 0)
(0.0626217 -0.287637 0)
(0.0896545 -0.272814 0)
(0.110852 -0.253511 0)
(0.125715 -0.231252 0)
(0.134258 -0.207362 0)
(0.136953 -0.182662 0)
(0.00354721 -0.325796 0)
(0.0404682 -0.322837 0)
(0.0743131 -0.313136 0)
(0.103528 -0.297799 0)
(0.127094 -0.278204 0)
(0.144551 -0.255773 0)
(0.155902 -0.231794 0)
(0.161639 -0.207084 0)
(0.0133608 -0.352073 0)
(0.0522485 -0.347837 0)
(0.0880239 -0.337257 0)
(0.119348 -0.321398 0)
(0.145328 -0.301546 0)
(0.165536 -0.279002 0)
(0.179945 -0.254956 0)
(0.189037 -0.230205 0)
(0.0261906 -0.376927 0)
(0.0667319 -0.37123 0)
(0.104259 -0.359681 0)
(0.137635 -0.343241 0)
(0.166085 -0.323054 0)
(0.189208 -0.300289 0)
(0.206944 -0.276034 0)
(0.219724 -0.251035 0)
(0.042719 -0.399807 0)
(0.0845545 -0.392458 0)
(0.1236 -0.379807 0)
(0.158944 -0.362653 0)
(0.189928 -0.341943 0)
(0.216179 -0.318657 0)
(0.237581 -0.293763 0)
(0.254445 -0.267976 0)
(0.0634769 -0.419523 0)
(0.106097 -0.41033 0)
(0.146351 -0.396385 0)
(0.18355 -0.378275 0)
(0.217141 -0.3567 0)
(0.246755 -0.332404 0)
(0.272196 -0.306158 0)
(0.293601 -0.27857 0)
(0.0880704 -0.433031 0)
(0.130699 -0.421939 0)
(0.1716 -0.406554 0)
(0.210272 -0.387191 0)
(0.246276 -0.364225 0)
(0.279244 -0.338084 0)
(0.30889 -0.309225 0)
(0.335092 -0.278046 0)
(0.10138 -0.438727 0)
(0.143894 -0.426678 0)
(0.185023 -0.410519 0)
(0.22437 -0.390407 0)
(0.261556 -0.366535 0)
(0.296223 -0.339133 0)
(0.328038 -0.308465 0)
(0.356693 -0.274826 0)
(0 0 0)
(0 0 0)
(0 0 0)
(0 0 0)
(0 0 0)
(0 0 0)
(0 0 0)
(0 0 0)
(-0.00555226 -0.0381966 0)
(0.000158775 -0.0392928 0)
(0.0055611 -0.038068 0)
(0.00974683 -0.0346141 0)
(0.0120973 -0.0295297 0)
(0.0124047 -0.0235345 0)
(0.0108275 -0.0172285 0)
(0.00774934 -0.0109694 0)
(-0.0098337 -0.0753649 0)
(0.00101619 -0.0770737 0)
(0.011176 -0.0746979 0)
(0.0191385 -0.0684637 0)
(0.0238882 -0.0593691 0)
(0.0250544 -0.0485814 0)
(0.0228316 -0.0370955 0)
(0.0177596 -0.0255202 0)
(-0.0128508 -0.111012 0)
(0.00257033 -0.112906 0)
(0.0168851 -0.109422 0)
(0.0282301 -0.10097 0)
(0.0353636 -0.0888059 0)
(0.0378021 -0.0743529 0)
(0.0357161 -0.0588333 0)
(0.0296705 -0.0430024 0)
(-0.0146547 -0.145257 0)
(0.00485073 -0.147014 0)
(0.0228374 -0.142463 0)
(0.0372545 -0.13225 0)
(0.0467523 -0.117774 0)
(0.0507785 -0.100589 0)
(0.0494575 -0.0820342 0)
(0.0433245 -0.0629416 0)
(-0.0152448 -0.178189 0)
(0.00792725 -0.179556 0)
(0.0291921 -0.174011 0)
(0.0464382 -0.162403 0)
(0.0582842 -0.146216 0)
(0.0641431 -0.127059 0)
(0.0640941 -0.10632 0)
(0.05863 -0.084857 0)
(-0.0145809 -0.209905 0)
(0.0119002 -0.210668 0)
(0.0361255 -0.204203 0)
(0.056011 -0.191498 0)
(0.070195 -0.17408 0)
(0.078084 -0.153562 0)
(0.0797198 -0.131339 0)
(0.0755636 -0.10827 0)
(-0.0125637 -0.24047 0)
(0.0169134 -0.240476 0)
(0.0438375 -0.233154 0)
(0.0662126 -0.219582 0)
(0.082733 -0.201301 0)
(0.092815 -0.179899 0)
(0.0964753 -0.156748 0)
(0.0941666 -0.1327 0)
(-0.00903854 -0.269947 0)
(0.0231581 -0.269076 0)
(0.0525697 -0.26095 0)
(0.0773235 -0.246691 0)
(0.0961813 -0.227811 0)
(0.10859 -0.205867 0)
(0.114564 -0.182208 0)
(0.114562 -0.157669 0)
(-0.00377841 -0.298385 0)
(0.0308997 -0.296532 0)
(0.0626217 -0.287637 0)
(0.0896545 -0.272814 0)
(0.110852 -0.253511 0)
(0.125715 -0.231252 0)
(0.134258 -0.207362 0)
(0.136953 -0.182662 0)
(0.00354721 -0.325796 0)
(0.0404682 -0.322837 0)
(0.0743131 -0.313136 0)
(0.103528 -0.297799 0)
(0.127094 -0.278204 0)
(0.144551 -0.255773 0)
(0.155902 -0.231794 0)
(0.161639 -0.207084 0)
(0.0133608 -0.352073 0)
(0.0522485 -0.347837 0)
(0.0880239 -0.337257 0)
(0.119348 -0.321398 0)
(0.145328 -0.301546 0)
(0.165536 -0.279002 0)
(0.179945 -0.254956 0)
(0.189037 -0.230205 0)
(0.0261906 -0.376927 0)
(0.0667319 -0.37123 0)
(0.104259 -0.359681 0)
(0.137635 -0.343241 0)
(0.166085 -0.323054 0)
(0.189208 -0.300289 0)
(0.206944 -0.276034 0)
(0.219724 -0.251035 0)
(0.042719 -0.399807 0)
(0.0845545 -0.392458 0)
(0.1236 -0.379807 0)
(0.158944 -0.362653 0)
(0.189928 -0.341943 0)
(0.216179 -0.318657 0)
(0.237581 -0.293763 0)
(0.254445 -0.267976 0)
(0.0634769 -0.419523 0)
(0.106097 -0.41033 0)
(0.146351 -0.396385 0)
(0.18355 -0.378275 0)
(0.217141 -0.3567 0)
(0.246755 -0.332404 0)
(0.272196 -0.306158 0)
(0.293601 -0.27857 0)
(0.0880704 -0.433031 0)
(0.130699 -0.421939 0)
(0.1716 -0.406554 0)
(0.210272 -0.387191 0)
(0.246276 -0.364225 0)
(0.279244 -0.338084 0)
(0.30889 -0.309225 0)
(0.335092 -0.278046 0)
(0.10138 -0.438727 0)
(0.143894 -0.426678 0)
(0.185023 -0.410519 0)
(0.22437 -0.390407 0)
(0.261556 -0.366535 0)
(0.296223 -0.339133 0)
(0.328038 -0.308465 0)
(0.356693 -0.274826 0)
)
;

boundaryField
{
    walls
    {
        type            fixedValue;
        value           uniform (0 0 0);
    }
    cylinder
    {
        type            solidBodyMotionDisplacement;
        value           nonuniform List<vector> 
34
(
(0.381913 -0.238541 0)
(0.381913 -0.238541 0)
(0.403455 -0.199958 0)
(0.403455 -0.199958 0)
(0.421112 -0.15945 0)
(0.421112 -0.15945 0)
(0.434713 -0.117406 0)
(0.434713 -0.117406 0)
(0.444127 -0.074231 0)
(0.444127 -0.074231 0)
(0.449265 -0.0303415 0)
(0.449265 -0.0303415 0)
(0.450075 0.0138403 0)
(0.450075 0.0138403 0)
(0.446552 0.0578887 0)
(0.446552 0.0578887 0)
(0.438727 0.10138 0)
(0.438727 0.10138 0)
(0.10138 -0.438727 0)
(0.10138 -0.438727 0)
(0.143894 -0.426678 0)
(0.143894 -0.426678 0)
(0.185023 -0.410519 0)
(0.185023 -0.410519 0)
(0.22437 -0.390407 0)
(0.22437 -0.390407 0)
(0.261556 -0.366535 0)
(0.261556 -0.366535 0)
(0.296223 -0.339133 0)
(0.296223 -0.339133 0)
(0.328038 -0.308465 0)
(0.328038 -0.308465 0)
(0.356693 -0.274826 0)
(0.356693 -0.274826 0)
)
;
        solidBodyMotionFunction oscillatingRotatingMotion;
        oscillatingRotatingMotionCoeffs
        {
            origin          ( 0 0 0 );
            axis            ( 0 0 1 );
            omega           1.5;
            amplitude       ( 0 0 30 );
        }
    }
    outlet
    {
        type            fixedValue;
        value           nonuniform List<vector> 0();
    }
    inlet
    {
        type            fixedValue;
        value           uniform (0 0 0);
    }
    frontAndBack
    {
        type            empty;
    }
    procBoundary0to1
    {
        type            processor;
    }
    procBoundary0to2
    {
        type            processor;
    }
}


// ************************************************************************* //
