/*--------------------------------*- C++ -*----------------------------------*\
| =========                 |                                                 |
| \\      /  F ield         | OpenFOAM: The Open Source CFD Toolbox           |
|  \\    /   O peration     | Version:  2412                                  |
|   \\  /    A nd           | Website:  www.openfoam.com                      |
|    \\/     M anipulation  |                                                 |
\*---------------------------------------------------------------------------*/
FoamFile
{
    version     2.0;
    format      ascii;
    arch        "LSB;label=32;scalar=64";
    class       volVectorField;
    location    "1418";
    object      U;
}
// * * * * * * * * * * * * * * * * * * * * * * * * * * * * * * * * * * * * * //

dimensions      [0 1 -1 0 0 0 0];

internalField   nonuniform List<vector> 
808
(
(0.7562650376342855 -0.01750672909029067 0)
(1.031564650974162 -0.01262418769996777 0)
(1.111067615115486 -0.006078206828929963 -1.723584933740202e-20)
(1.08512212246785 0.01259558374078172 0)
(1.363593926089225 0.01363231199396693 -3.841403089552773e-19)
(1.038754737862916 -0.009396675726417402 -7.301473048413569e-20)
(1.01431536351658 -0.02108136349978075 -2.420989909016154e-20)
(1.079217740891511 -0.005365089548740231 9.059455493258572e-21)
(1.25449785566678 -0.02096945565700138 6.28641595714398e-20)
(1.085245799607894 0.009955287156852382 0)
(1.008557769797452 -0.008466112692578078 0)
(1.305926563122324 -0.05403631162196836 -3.48913799665997e-19)
(1.08634309783051 -0.002023959688186696 2.04439429429915e-20)
(0.6752105221718379 0.006358007763092497 0)
(1.27666960014448 -0.1162032754922206 0)
(1.081609345972709 -0.0003962141184785304 -3.867281067475226e-20)
(1.224588976346236 -0.1444279850815282 -9.475430491360087e-20)
(1.074051230624327 -0.0002422704449320287 3.207549279920761e-20)
(0.9898368041413904 0.0035232386061991 0)
(1.026468497715113 0.009706798085046708 0)
(1.032717926824773 -0.01180197502499345 0)
(0.9875510313939491 0.04488846915983287 0)
(1.051103611378901 -0.0059686781023374 5.736306800002256e-20)
(1.053718821910133 0.009107209102872152 0)
(0.9330313099350761 0.1978198590794755 4.581092343992019e-19)
(1.163242256398124 -0.08522546498611676 0)
(1.185925618791364 -0.01930228292780622 1.554172864124097e-19)
(1.077328968962609 0.009611987893677842 5.223828483842103e-20)
(1.083624580730781 0.002233301297920794 5.110199931113226e-21)
(1.071744181714822 0.03089116131065382 0)
(1.075265080276749 0.002818607753272705 -1.180989049090804e-20)
(1.033152220840757 0.006829974254064166 -1.900243188258426e-19)
(1.060040663851276 0.01458967651155547 -2.354050966124825e-20)
(1.088870814732385 0.00565153997490093 -2.93761781604656e-20)
(1.121398203309329 0.03863859215062228 0)
(0.7549885884023232 -0.1229611511960232 -4.544736990598892e-19)
(0.9548214753907676 -0.00584972340925908 0)
(1.068763992593037 0.02221683118659908 0)
(1.068799297103991 0.007263914444087221 0)
(1.073765438847335 0.008823430755566131 -2.823035385404507e-20)
(1.092997599930363 0.0243262118137282 1.090768820943648e-19)
(1.151031317283467 0.003044244369673753 2.137812244837141e-19)
(1.095945955762279 -0.002249660642647223 0)
(1.015280614818088 -0.009203352601399241 0)
(1.131840229375337 -0.09282634400496452 -1.622922227535813e-19)
(1.044084797932305 -0.01163381620890637 -8.262594439317686e-20)
(1.058109965498536 0.02663150344857887 -2.69675455775014e-20)
(1.231066771512949 -0.1125324966976904 -5.574612830518429e-20)
(1.067507379088548 0.01202935597298104 -4.115392057138289e-20)
(1.258271948662529 0.01623106296217343 0)
(0.99671549997524 -0.01927786626180666 2.203469393489771e-21)
(1.044744191318015 -0.0020134922496854 0)
(1.087552743766313 -0.002074444443069168 0)
(0.9993464667923783 0.007441260760254756 -1.859117236118698e-20)
(1.250753493314349 0.03350446233489225 -2.371801827331846e-19)
(1.063441627124316 0.01806423369942918 5.936775932487497e-20)
(0.9916188583692916 0.01093582401482834 0)
(1.017448632311428 -0.006299960573919953 2.474455825479674e-20)
(1.107626847882048 -0.0007144839970944345 -1.169128444802541e-19)
(1.061086981063826 0.03113810134058131 0)
(-0.08992615840344789 0.004113200557233112 7.58318361351263e-20)
(1.15486105322486 -0.05212456819753008 -1.868744851498949e-19)
(1.006150562931923 -0.005708630628746619 -2.717484919124884e-20)
(1.187692888676375 0.06851568412418328 -1.217582333063682e-19)
(0.9974232570481275 -0.009443614511763048 3.090732697961943e-20)
(1.084296134915992 -0.005461850851458839 0)
(1.249391237410078 0.09542966039122922 0)
(0.6960866125675029 0.003174281579008325 -7.430946520830329e-20)
(0.98848363389048 -0.01402173426191448 -3.2201954464929e-20)
(1.459729838864185 -0.01942822646762089 4.42427178205236e-19)
(1.06049221333341 0.007612173794970906 -6.5860948072865e-20)
(1.367938575242847 0.09435711722946527 2.858800748309171e-19)
(1.05482962003476 0.006851327941031345 -1.960172107143157e-22)
(1.081026970541626 -0.0138977166532866 -2.762315514878768e-22)
(1.16457828012287 -0.236221192949394 0)
(1.021867850095526 -0.01502759613775388 0)
(1.017045418007763 0.01800262642860077 -3.029825236124622e-20)
(1.386481716574229 0.3484897515670284 4.203948277106761e-19)
(1.097378083434584 -0.04249446743717542 9.548531275131838e-20)
(1.045861990609382 0.2097851510591155 2.45228949109884e-19)
(1.123978822236933 -0.06034187199158022 1.170934705041942e-19)
(0.9219382721290718 0.005152826176147533 0)
(0.9753285062229883 0.01851217676200092 0)
(1.00405320371804 -0.04870745873408654 3.003407522191906e-21)
(1.009822418733761 -0.01348823484780256 7.787495583615823e-21)
(1.030113326617518 0.0268570742510728 1.365199611738282e-20)
(1.528855877733164 0.03440584425984342 3.230341217883558e-19)
(1.289448977133091 0.07062291727752315 5.594027317814937e-19)
(1.072359916359678 0.00312128589493747 -8.938016098599053e-20)
(1.195621032490364 -0.09360843270526481 0)
(1.033784646569395 0.001899638722905803 1.306341954708796e-19)
(1.16537312952489 0.02159078378454767 -3.160220058396635e-19)
(1.001470713564933 0.03244376955573136 0)
(0.9996265512344993 0.002021135817562842 0)
(1.044386186873585 3.84543736130412e-05 7.935061772749263e-20)
(1.216822725163808 0.1098610748002418 4.119321856193181e-19)
(1.011117092900671 0.006983501479645331 0)
(1.091202429027186 -0.06795802580633536 -1.060987887541874e-19)
(1.151341381150098 0.03715749360810919 0)
(1.216134569536341 0.09380306392286386 -1.9313953404727e-19)
(1.10825855414975 -0.0288765080789825 -7.792627585953931e-20)
(1.027314900509576 0.01190259498208404 0)
(1.085045438065901 -0.00459209545491027 0)
(1.01905920422306 0.0263866426612598 7.919519730555548e-20)
(1.072443104717385 0.05648751930987807 -9.606805946091812e-21)
(1.103787107973178 -0.004150766763540967 6.385266020523308e-20)
(1.109283959813571 -0.09210374564750121 1.493781493997387e-19)
(0.964089539678646 0.004118606600784558 0)
(1.065949727817669 0.03119323604329485 3.72842746401686e-20)
(1.168759081671393 -0.07674038349151578 2.283903521287441e-19)
(1.051581364880178 0.04710736742436495 -2.867968434203525e-20)
(1.022795422882856 0.06767015005620808 3.676219867586959e-20)
(1.090176864674997 0.02604010011439386 0)
(1.017959777493813 0.01551958019763919 0)
(1.028995339724779 0.009371836612468157 7.847320894031002e-20)
(0.9485763959894346 -0.03297449098640474 0)
(1.052763856123948 -0.005486037410825834 -7.537486364981945e-21)
(1.342190891089494 0.05689088648211171 -1.554324794607623e-19)
(1.079787383932286 -0.01312588332579273 2.660986516934085e-20)
(0.7439795022325705 -0.001723878770508515 0)
(0.5933736181723122 0.1943075591014729 -1.102783001407179e-19)
(0.7061848617381814 -0.002494821284459346 0)
(0.698762766102928 0.01462640962061121 0)
(1.077673586252808 0.003659895426532136 -6.558283681740755e-22)
(0.9906522639482462 0.0144994032260333 0)
(1.278900627273273 0.1222335209001287 2.530449024211713e-19)
(1.012280009192138 -0.02784333016226072 -7.54674625018205e-21)
(1.045615250281059 0.01782121640470197 1.57408761177064e-21)
(1.058681592757857 -0.01191105597834111 0)
(1.126612762629388 -0.009117869541284424 -5.089518095199946e-20)
(1.272213374523853 0.1331955259504246 -2.284776813301997e-19)
(1.089267712524562 -0.01100629169136954 -8.625629984227737e-20)
(1.070563648061665 0.0266797218326736 -1.081269030532321e-19)
(1.040897911615346 0.04677797849615013 7.273550763503738e-20)
(1.022622777323743 -0.003720080981808088 -3.477103132972241e-20)
(1.060858365642017 0.02361837907351749 5.805703464898171e-21)
(1.135924876996555 0.003149404592856133 1.035149398531891e-20)
(1.039040525789519 -0.01497675075143108 -4.804493937216385e-22)
(1.087362235784225 0.03471683927061647 0)
(1.028137263309862 0.01373262640669986 0)
(0.7737492059193568 -0.07435537712680518 -1.811244438500165e-19)
(1.030251190112683 -0.00169541484193918 -6.656639827779353e-20)
(1.13018774730707 -0.003565695022563881 -1.24498381328587e-20)
(0.7034279858757559 0.006566883971838577 7.18216724442069e-20)
(1.17489232318379 0.01960784466313708 -1.956298289938661e-19)
(1.137239602996061 0.006734405452262428 5.029962426502517e-21)
(1.128989924159309 -0.01002707882285935 3.399998689142992e-20)
(1.000934478441616 -0.002948353567887974 -6.997202138668979e-20)
(1.103112505907341 -0.06092594043126123 0)
(0.9892114941882173 0.005325156988880945 0)
(1.05781674253291 0.007035641573792207 0)
(1.005643213363939 0.1884435451589299 -2.399383094904647e-19)
(0.7791845201120964 0.01243044682836199 0)
(0.8569805921029673 0.1013794499063297 -8.287940248539276e-20)
(0.08554049263666526 0.03444613371523513 -2.972895420607166e-19)
(1.171780650240596 -0.03073774285472823 -2.274900332850366e-20)
(0.671289164021563 -0.007316192763667947 2.450526935891486e-20)
(1.16661753324865 -0.100006911244836 6.893374824300633e-20)
(1.12451552761374 -0.001653502510879161 -5.719134346821103e-21)
(1.153969084265954 -0.04866629669940267 2.210631742289538e-20)
(0.09109247250720595 -0.2146914447121999 0)
(0.237490220639084 0.06964724474357037 0)
(1.261774879389971 0.1077891421588503 1.88383443663533e-19)
(1.021086390459065 0.01980774678700764 0)
(0.737796403957498 -0.006247284614220968 0)
(1.07516676793416 -0.01146959244333241 2.740562369678689e-20)
(0.9747739442554872 0.002854224909074562 0)
(1.298106383104958 0.1233555304669203 -1.52327915703355e-19)
(1.057384377185568 0.0109951808540971 0)
(0.9933665498833156 -0.006950442698333458 0)
(1.065076364831348 0.008329691180677275 0)
(1.006214034594502 0.02087714111295268 2.079156619720247e-20)
(0.937540639573457 0.01380594740287191 1.217413714343602e-20)
(1.176824450053668 -0.1998988960533094 0)
(1.005146929548939 -0.005185061977112296 8.014452791537336e-20)
(1.059158428453187 0.006382697158964246 0)
(0.774631567850107 -0.003285648542893163 0)
(1.218325872538539 0.02734970628550568 1.635801636080337e-20)
(0.7049713455386319 0.001366122034652957 0)
(1.434815207734642 0.08508566223752573 -5.1621455855694e-20)
(0.9952012781381738 -0.005633668257347897 1.692233860658518e-20)
(1.273425080737969 -0.002873511794474769 -2.985202275929576e-19)
(1.05957065553755 0.009036005584041384 1.344929694470137e-19)
(1.00091124701087 -0.01354132671987283 0)
(1.210385362203182 -0.1415210720005148 2.053333679075829e-19)
(0.7331826599232989 0.01378532748372082 0)
(1.098465093465749 -0.004939365155365666 0)
(1.155412291808604 0.0684983176825357 1.923757096035175e-20)
(1.006646091054245 -0.006397116681611693 -3.046259079660882e-20)
(1.122233664961071 0.05269252638212549 -1.734660044415254e-19)
(0.1120015720899117 -0.09261130796623826 0)
(1.072821131760468 0.03926263529193149 0)
(0.6617574178722306 -0.002889650764600441 -5.314877094585671e-22)
(1.012136441483961 -0.01947527971231552 9.235863385962765e-20)
(1.06134284424582 0.0008595257353498579 0)
(1.076336503896383 -0.1339587897534458 3.746437768168971e-19)
(1.002780145716432 -0.006152765203000445 -3.324721045098387e-21)
(1.003315122221711 -0.004539966599263911 8.521687040557551e-22)
(1.093965453961534 -0.009247765411252322 0)
(1.020713563887754 0.02044237845272627 -6.555626980266836e-20)
(1.106580954262673 -0.001571505252498797 6.434225005349322e-22)
(1.074617759271162 -0.01101926524570869 6.658304181166769e-20)
(1.085686705503058 0.02219061443268336 0)
(1.328305470099275 0.1575261042229956 0)
(1.002049848096114 0.0003998431088331417 4.409112438234777e-20)
(1.318689922976708 -0.130355289370726 1.590546186085916e-19)
(0.01959474169026934 -0.1739858943221508 -2.36126537441355e-19)
(1.071142624070195 -0.005363673386735284 0)
(1.112094803789548 -0.005445839526577027 1.164727029185268e-20)
(0.7267342923165717 0.01779579730465705 0)
(1.059196341606494 0.01106440315384532 0)
(0.8638684261236507 0.162446222813168 4.625228664001845e-19)
(1.282071387166839 0.129229111051996 1.924203418517589e-19)
(0.6542904288449722 -0.003098250331277902 -6.503529999831324e-20)
(1.039679850801761 0.004968596504079454 -5.449855509593786e-21)
(1.054755293076123 -0.0002208843456671223 6.479858092048339e-20)
(1.363779849675715 0.1184286432063265 6.619167079165283e-19)
(1.335321986347735 0.2518467550869199 0)
(1.059039308991912 0.007232131330488835 0)
(1.000291157754757 -0.00464069025916794 1.417044301819257e-20)
(0.9928183395229496 -0.003418382813712745 3.971767669684013e-21)
(1.38319298457406 0.1993587695266335 4.301030966579123e-19)
(0.6818532644945207 0.0004678908972301358 9.959323120432614e-20)
(1.005662505381978 -0.002204604524238404 -6.019766637922713e-20)
(1.098220857267792 0.01312562230605037 2.560955096458687e-20)
(0.6694558791134076 0.004956149384846955 0)
(1.066088180920577 -0.01201938433507999 0)
(1.017069057906726 0.147394609167128 -1.414193134159154e-19)
(1.091201327423909 -0.002977577665361016 -2.563603858589658e-20)
(0.98199188324932 9.583133929360218e-05 3.305287888179588e-20)
(0.9912116909878984 0.006014880204671297 0)
(0.6381576712485109 -0.001076297305199284 0)
(0.9767034002384108 -0.001214171595005296 0)
(0.6420900303092272 -0.001430881408850106 2.634541085367524e-21)
(1.088802221517592 -0.05520840060081055 1.208265167577705e-19)
(1.111043598605206 -0.004873622808419102 1.146727272781214e-21)
(0.9579329308211696 -0.0008585007431130882 3.881365767674945e-20)
(1.017091385958747 0.01013713327453418 1.740548238855188e-20)
(1.066619832044363 0.004504298866825246 -2.516130589570184e-21)
(0.6347432187591153 0.008875470431186272 -3.616827277022193e-20)
(1.005942038281193 0.009262946972110039 -7.04904275919482e-22)
(1.037555720650321 0.006750522744888191 5.419554964321234e-21)
(0.9856649585577641 -0.007521189502648002 0)
(0.6099553994805139 -0.000452447863694585 0)
(1.068919748985616 0.02248762317216151 0)
(1.016585511227597 -0.01682850593580255 1.030795710894337e-20)
(1.023582670651606 -0.008910309018133413 0)
(0.9926284297291188 0.01338935311290106 -9.910130523751197e-21)
(1.009061616626753 0.001945628196040403 0)
(1.133502375951651 0.003438181566552859 -1.172598321869511e-20)
(0.03368787192741464 -0.1429604751219095 -3.806664045235349e-20)
(1.034609523040817 -0.01853574846158847 -5.77866061314667e-22)
(1.04172529869016 0.005858277593965665 0)
(1.082350437058564 0.07017040198870463 8.44961593780139e-20)
(0.9671257813296875 -0.001850671774900114 3.107840791683884e-20)
(1.020121861192331 0.01668032683639277 -2.264662960271264e-20)
(1.004005409345859 -0.002878673990988696 2.422232044000843e-20)
(1.038937095760799 -0.008101095084178223 0)
(0.6408979917138515 -0.004076080538502436 0)
(1.025894734565179 0.02452421078148968 -7.772827013311418e-20)
(1.088099538452321 -0.004430386471565655 5.045901935089257e-20)
(1.014173251280249 0.007660992329624852 0)
(0.9798578273548857 -0.0008377296703453988 -1.948518623856041e-21)
(0.8564607238095628 0.0085485232483731 -9.766632679087398e-21)
(1.014000368755209 0.002608670548032169 -9.569340808368673e-21)
(1.022194042073969 0.00441286713199494 1.883055290189423e-20)
(0.9840828965125135 0.003258972884884997 0)
(1.006366558478822 0.01182545238246933 3.271238363499185e-20)
(1.111159029058558 0.0001850148609595949 0)
(0.9317649037634779 0.01051444056831108 -3.100963918155257e-20)
(0.9540989576109642 -0.001230756483414945 0)
(0.9045427456356563 0.2036634563896955 4.987010322144213e-20)
(1.011004737693152 0.06718854106584718 0)
(0.9914651018339604 0.005005623973869 -2.271762068877651e-20)
(1.059119711035152 -0.05045263664621089 -2.848758091985775e-20)
(0.993637292053592 0.0007038291448862949 3.254548808137165e-20)
(1.007809026111735 0.007059486430195194 0)
(0.9794982405184838 0.0008793507488729272 -3.015681999761875e-20)
(1.176217764830445 0.1039141476269421 -3.419436658450768e-19)
(1.069211659845906 -0.2648459447642827 0)
(0.9937450774998713 0.0003409964813003662 -2.271453377464371e-20)
(0.9732201215416628 0.001366315691760477 4.829199921941716e-21)
(0.9617998763442971 0.0006634905435960826 1.000899165479399e-21)
(0.7459580679929991 -0.001049601368050009 0)
(1.122923505324923 -0.07256157413995649 0)
(1.002797855413564 0.001151863810724504 -2.270854060751168e-20)
(0.9098863230158487 0.01212947569547608 -1.033397742107352e-20)
(0.8432169528470759 -0.000427203430221192 2.87689684096796e-21)
(1.01359475699898 -0.008858703634154535 0)
(0.9605890682326919 0.0141385620448607 1.434930001990942e-20)
(1.005567635059395 -0.0002144557956524198 -2.253700907552768e-20)
(1.025253952328603 -0.003359839531400096 -2.503956421259991e-20)
(1.114944963109253 -0.002284334147706242 -4.920575660330385e-21)
(1.118109242703957 -0.002946086242098515 0)
(1.011118417049035 -0.004581666916111496 0)
(1.020994493998665 -0.001905875225790152 0)
(0.9425511703138698 0.002843021908783184 -1.966744568808865e-20)
(1.017854517299044 0.01351464967982879 5.554795698531244e-20)
(1.087780264870737 -0.006107081272022652 -2.33510086947019e-20)
(1.039799321539111 -0.007340407762732135 0)
(1.108612879301891 -0.002389553254363862 1.846739733712581e-21)
(0.9940896318175414 0.001569105195207869 -2.242858762849613e-20)
(0.9821950364636189 0.0003422611960880015 0)
(1.010118122440725 0.002893467747711948 4.678163635085145e-20)
(1.365035575587829 -0.3143784677637161 -1.123923205555775e-18)
(1.121185295952494 -0.04363262676973415 -1.10267043042545e-19)
(0.9683554779242787 0.008172643286328132 4.410283825453405e-20)
(0.7645251498298353 0.003232043186994491 -3.418958272879578e-20)
(1.224079218466094 0.05116351977573225 0)
(1.219664066996816 -0.1265281438850515 -1.478070368863807e-19)
(1.083755978520989 -0.004305226693390071 0)
(1.008285332420599 0.0005150767984235432 2.296203422658575e-20)
(-0.1973818583711541 -0.1282971764280552 0)
(0.9939676001136085 -0.004661162956607453 0)
(1.012364207992762 -0.02306579152964205 4.103265374069782e-20)
(0.7064366132303199 -0.01944652972314422 0)
(1.096787739303012 -0.01482665062027111 2.258108892796325e-21)
(1.040319680892169 -0.001466657459866361 1.659925162499831e-20)
(0.6332323180412039 0.004123797267722855 0)
(1.447928365031427 -0.1239244591577296 0)
(0.9858891288327628 0.001717104452359401 -1.067841492598361e-20)
(1.069735381597428 -0.01509623884804531 0)
(1.03777710375789 0.0004590590005865424 2.057198319116246e-20)
(1.082180836364875 0.002056077698909403 0)
(1.012304168343886 -0.003214366745833655 -1.142665400853482e-21)
(1.005860952288998 0.003236828777987353 0)
(1.007911987973161 0.002068089659701722 -1.14187633104705e-21)
(1.00448011480213 -0.02056876772440072 0)
(1.036460994965394 -0.006797632905812921 1.742375596297107e-20)
(-0.1818533867188271 0.03366459732619515 2.764740454418226e-19)
(0.7988037994545045 0.0234243933886322 5.732627158032072e-20)
(1.005237316454183 0.00194515220761296 0)
(1.124337773610364 0.009914456488228788 -1.170096185768441e-20)
(1.113965531774469 0.005281116364893957 8.949993365150942e-21)
(1.054447989281644 -0.01275692172914442 -1.317054379344865e-19)
(0.9987749353269847 0.0103876628631938 8.41033618633165e-23)
(1.081567654769332 -0.003437979541338804 0)
(1.188853041822879 0.0521333476932833 0)
(0.8351931373861604 -0.07571928369529496 4.601288167838181e-19)
(1.089454812297733 -0.000154072420615701 0)
(1.033928871276814 0.00763402330422283 -7.632287745276396e-21)
(1.04245845838427 0.005289693571201346 5.721398365632017e-21)
(1.054990227586895 -0.05882194731181205 -7.601200976803504e-21)
(1.139248245379618 -0.001432913823633853 1.708652875657313e-19)
(1.084491841858194 -0.0005256433428635575 0)
(0.994162905108434 0.001805194898540264 0)
(0.9974573742096546 -0.0267905689372778 -2.432314735351942e-21)
(0.9902228105972785 0.003570430401078505 0)
(1.031262736367361 -0.03710455609577468 6.486535389101608e-20)
(1.290689020168584 -0.0961703280186214 0)
(1.040430743422634 0.002582153034841649 -4.629107166984201e-21)
(0.9861827690569595 0.01696391630681533 -8.930028675992982e-20)
(1.032932959594731 0.04273060785212581 -2.343301682712671e-21)
(-0.07364595999904669 0.173432790032123 -1.72687141521864e-19)
(-0.0711067747190756 -0.2935040311520232 -1.300527993342861e-19)
(0.8914157820378553 0.1274283141552575 0)
(0.281048168372017 -0.0346473282595863 -3.148878513482369e-19)
(1.005949966336055 -0.0005817108891318908 -1.060702058147859e-20)
(1.063889701432311 0.002726904882383643 -2.073296939691666e-20)
(0.9915523089915022 -0.02109539291900245 3.102101392233438e-20)
(1.025340728412341 -0.03146968231135749 2.685902016027731e-21)
(1.010191395611903 -0.03114539095684035 -6.673687667219039e-20)
(0.9888695299741779 0.004847725749892826 -3.485654771981204e-20)
(0.9933567487116073 0.005197023097602334 0)
(1.024738557076807 -0.00233736900774438 -3.467428825372508e-21)
(1.93417599147573 -0.156423875352106 1.069775650504315e-18)
(1.044546455054655 -0.004518346166897359 0)
(0.996306518412339 0.008340461259351875 1.503641657152986e-20)
(1.003626983509613 -0.0004915668505837606 3.997993607631209e-20)
(1.164055687919123 0.1581343440738502 0)
(1.002775172334411 -0.01312392812594486 7.444319914578788e-21)
(0.9520200159722139 0.003253837806430248 0)
(1.037840084682448 0.04174336091134156 0)
(1.306503420761358 0.1534466693187162 2.28407383825924e-19)
(1.078698401209471 0.0007082318490703207 2.329546602476695e-20)
(1.016256441739638 0.02996197210523411 4.486764906753153e-20)
(1.081900699056608 0.003013449802977867 -2.24362084964776e-20)
(1.053891348401668 -0.01909341990639213 -8.038571144878788e-21)
(-0.3879379863950064 -0.04973875457662667 0)
(0.9997948408634151 0.01298898395889199 0)
(0.1188748434243653 0.05335289393146282 -9.392074939168137e-20)
(1.006489097081136 0.02020915666940134 -4.022395285977086e-20)
(1.005319220809145 -0.02660232224280967 0)
(1.001387823391741 0.005338112194013837 -4.882878493010833e-21)
(1.082039724123726 -0.04246494923932537 0)
(0.993862531924638 -0.01803014175925114 -8.099914401706186e-21)
(1.101900122144738 -0.05527151039874709 0)
(1.444538350378112 0.171282185538527 0)
(1.05491071596911 -0.01208779440210841 0)
(0.9910319239345562 -0.02500502941700167 -4.167832368296951e-20)
(0.9980101672437409 -0.03273349021216023 -3.522515748200902e-21)
(1.014997639177247 -0.02144094802319549 -2.095504684498059e-20)
(0.9965920831165034 0.01672460618173121 -5.4555529661568e-20)
(0.9961107129165578 0.009948550822036616 -1.465406077841171e-20)
(0.9952944697429646 -0.02830767121425549 0)
(1.001961742304279 0.02373898842151868 1.8903520901255e-20)
(1.050789748401712 -0.02908846746419506 0)
(1.111207388329897 -0.03612084738615021 2.557749620962918e-19)
(0.9955114374669638 0.01656215108185494 4.501080416015233e-20)
(0.6150341849080606 -0.008694264498725622 0)
(1.150101295014978 0.1631106446269378 7.086584526097631e-23)
(0.8352770825227874 -0.08069468100353486 0)
(1.138131897969925 0.07275663742066985 -2.768315871271505e-19)
(1.315947386131914 -0.3892505596308017 1.286263793862982e-19)
(1.069179695667383 0.06569045502346452 -1.237963841360678e-20)
(1.011791009225729 -0.03141290551640716 0)
(0.9557569353036008 -0.2157544047255806 0)
(0.541554862858339 0.1742998206303785 0)
(1.016265117810033 0.01174505333629251 1.163211979418667e-21)
(0.7019422255879472 -0.02127201017743847 0)
(0.9992857273455005 0.01637937989127021 3.463370143639036e-20)
(1.027446488903393 -0.002614405771037036 -2.713316694317539e-20)
(1.078973728869959 -0.00804765068415598 2.662634889496761e-21)
(1.053968290854118 -0.02803104116982467 2.658038452264448e-20)
(1.042725748388637 0.01171335398178564 0)
(1.060250710190134 0.02043743904964733 -8.61728467598977e-21)
(1.050053328566118 0.03637344808067017 -1.782887128263152e-20)
(0.9837812035837332 -0.02261811557687755 0)
(0.6248870637470755 0.005102666938711947 9.168640078296095e-20)
(0.8941536622835015 -0.005940064293397002 -8.844185166617584e-20)
(0.9093710790232724 0.005240131367435034 1.451828112959242e-20)
(0.6296317206974982 -0.006442417289986893 1.409425722348016e-20)
(0.981002754338171 0.0004513050657514026 2.464605576212957e-20)
(1.004415199575605 -0.01749441746914693 -3.39293870494683e-20)
(0.9842198406744268 -0.03514107565530514 -2.8667191446288e-20)
(1.085627185965172 0.00163285914872412 0)
(1.019674944965009 0.005278239513551298 1.028263920563064e-20)
(1.132439126662635 0.0485302455268608 1.336453955424777e-19)
(1.031045024260027 0.04175999566492914 0)
(1.02265672692203 0.002578473915503813 0)
(1.584053782150143 -0.1681359138811604 4.378238645320767e-19)
(1.05853231104769 -0.0432919556208845 0)
(1.01929577980697 0.0105908049472417 -3.667921245072412e-20)
(1.082205848926252 0.006286045729477384 0)
(0.4913491314502743 -0.0005842718408999616 0)
(0.007555665340611513 0.01633873687951583 0)
(0.9913434143488066 -0.02383792190149404 1.245843998622501e-20)
(1.301657238265845 -0.09653595251569132 3.695084734727281e-19)
(1.031401002070958 0.03544359140760549 0)
(1.022415718253283 0.003576087007321201 -2.191827701381242e-20)
(0.9368904112431412 -0.1605104668035475 -4.830988974164218e-21)
(1.256954789998372 0.0755571036045872 0)
(0.5973271867625196 0.7290887272460133 0)
(1.310018783840454 0.1424460019533982 1.051363658581924e-19)
(1.676954681966019 -0.02631444997474462 0)
(1.056961542856303 0.1278292188204391 0)
(0.7193278109994825 -0.01175259879035689 4.13657104217374e-21)
(1.046442854731219 0.0452827157146946 0)
(0.7576983381813701 0.1218263924719567 1.375668953324937e-19)
(0.996795756522541 -0.01638137129146627 3.579608733150331e-19)
(1.039120916085379 -0.04050544223000865 2.754304167689821e-20)
(-0.3785598257140412 -0.04468296252398424 0)
(1.072297208893208 -0.01629217503427292 0)
(1.084014786674014 -0.007579305764907933 0)
(0.6488069860089655 -0.5044562356718892 -2.47758511886108e-19)
(0.989631791454881 -0.0005834779880945666 0)
(1.092405989879062 -0.02169562277829892 6.154656071619295e-22)
(1.187599812815483 0.1208181336746599 -2.030166988821629e-19)
(1.098922617290269 -0.04714355371773972 0)
(1.006082158630822 -0.02087277919409635 0)
(0.7722517736248175 -0.1854920623378056 -1.623323699336166e-19)
(0.8818617944384081 -0.1370256646616648 1.465187500776065e-19)
(1.033504640734726 0.01398411478637366 -2.086462429641261e-20)
(1.023126586506557 -0.008992033218985084 -4.381094307383843e-20)
(0.8766416395877651 0.00583147696153755 2.720258810252364e-22)
(1.505395489328799 -0.1947490359217794 0)
(1.308807523632436 0.1125480659185515 2.971854817443397e-20)
(1.241209061893831 -0.07587601889127039 -3.294769087738874e-21)
(1.095748094334942 -0.01864126290802378 -3.995719844155914e-20)
(1.035377327475365 -0.01646083460299185 2.974559063297084e-20)
(1.092825733673948 -0.03908904344435997 9.435210743566381e-20)
(1.03201850925778 0.02064617475935054 0)
(1.050599278234464 -0.0364716799779676 0)
(1.115926257792793 -0.00896409471633469 0)
(1.099185259746032 -0.04136473636367103 0)
(0.9982883054490483 0.01095238070490232 0)
(1.152195540168295 0.08147172599173466 9.480308188847133e-20)
(1.339737949438413 -0.1571870035831692 0)
(1.038329302973636 -0.02754412719786704 -2.565213855962272e-22)
(1.047714386113276 0.05310270387637551 0)
(1.010202060046664 0.01423346889017711 -3.831783409411982e-20)
(1.033700498361098 -0.007452393887376592 9.299221058013872e-21)
(1.088945688786862 0.01344120187349501 -3.198362715500189e-20)
(1.084732841196499 -0.02817901772329538 0)
(1.071204555049084 0.003512496527229895 0)
(1.103364616570547 0.09297289574781205 -1.404269242924479e-18)
(0.9353498444069378 -0.1497627471476724 -7.090486392968865e-20)
(1.17473118328515 0.1175295721528085 1.14919351116532e-19)
(-0.4622083192245029 -0.0256498402511149 -2.907651103962033e-19)
(1.017929354546228 0.02938504181255567 -8.642120689321859e-20)
(1.006451560811815 0.002992259551829903 0)
(-0.2464601499984743 -0.005415862386126805 3.569688629735646e-19)
(-0.03285162787113011 0.3000070747136449 7.445905221767789e-21)
(0.9952086324092762 -0.006271893443386268 9.22193959144552e-20)
(0.1835541293407788 -0.04507831856791451 1.291739833596465e-19)
(1.085217554702945 0.08899808042029561 1.409275103953244e-20)
(0.09360581249889662 -0.1105490725133869 -5.453218459233219e-20)
(1.108413589140103 0.003038046334778352 0)
(1.097178666276472 0.2508937239305163 0)
(1.021063862747992 0.02150745656984198 -1.691739159801418e-20)
(1.062427746979268 0.05386331521388985 0)
(1.025617201859928 0.02343690166229247 -8.324659837631101e-21)
(1.263042178047127 -0.5489922153206305 8.019853403137378e-19)
(-0.1097976692362381 -0.2413374396823517 2.105179260231379e-19)
(1.300853255788285 0.1126369797678043 -6.183117256191793e-19)
(1.122722630028427 -0.00136273896348865 0)
(1.123797547995281 0.1065403590227574 0)
(0.5220750681625396 0.07695056010109398 2.422185890915703e-19)
(1.023515856225883 -0.02025696980738432 9.526850601662583e-20)
(1.006358450600571 -0.0231962971845528 0)
(1.211191915260373 0.2704446442088382 -9.702792489032869e-20)
(1.259484484153696 0.1274607516593661 -1.517771184065766e-19)
(1.026538810871939 0.003215059428241752 1.577032804115135e-20)
(1.29840004309104 -0.08515178804790224 -4.969281951854595e-19)
(0.3053109857253897 -0.02190838874395013 2.892464171458474e-19)
(0.8318384465107417 -0.1490649333353406 6.873269779517559e-19)
(1.040954113337273 0.05566772822713256 1.099126249086679e-19)
(1.038261966435181 0.00344836711962779 1.605950637800698e-21)
(1.000896384575567 0.01917710421998109 2.875153605239779e-20)