/*--------------------------------*- C++ -*----------------------------------*\
| =========                 |                                                 |
| \\      /  F ield         | OpenFOAM: The Open Source CFD Toolbox           |
|  \\    /   O peration     | Version:  2412                                  |
|   \\  /    A nd           | Website:  www.openfoam.com                      |
|    \\/     M anipulation  |                                                 |
\*---------------------------------------------------------------------------*/
FoamFile
{
    version     2.0;
    format      ascii;
    arch        "LSB;label=32;scalar=64";
    class       surfaceScalarField;
    location    "47.8";
    object      phi;
}
// * * * * * * * * * * * * * * * * * * * * * * * * * * * * * * * * * * * * * //

dimensions      [0 3 -1 0 0 0 0];

oriented        oriented;

internalField   nonuniform List<scalar> 
1171
(
-0.945399
0.945399
0.759607
-1.05652
0.296911
-0.202187
-0.846142
1.04833
0.054601
-0.0747253
-0.269631
0.344356
-0.759607
0.0693758
0.690231
0.88528
-0.179956
-0.705324
0.819042
-1.02244
0.203399
-0.342215
-0.0466853
0.388901
-0.00615596
0.593483
-0.587327
-0.637609
1.08114
-0.443532
-0.416941
0.98032
-0.161278
0.31897
0.0757961
-0.394766
0.991644
-0.0113243
0.394639
-0.0756691
1.00742
-0.0157751
0.759183
-0.96137
-0.780597
0.607853
0.172744
0.250698
-0.888306
0.559667
-0.915836
0.356169
-1.07756
0.662414
0.415143
-0.639202
0.633046
0.0387892
-0.26137
0.222581
-0.00967777
-0.649438
0.659116
0.455025
-0.50171
-0.873709
0.925366
-0.0516567
1.03712
-0.0296964
0.928747
-1.08816
0.159412
1.06383
-0.0267138
-0.695224
-0.0853729
1.26808
-0.866489
-0.401594
0.190121
-0.0764217
-0.394684
0.471106
-0.276958
0.180592
0.096366
-0.587634
-0.468885
0.987981
-0.0592342
-0.0149466
0.848273
-0.833327
0.505668
0.762416
0.517061
0.0141801
0.440845
-0.772557
-0.113179
0.885736
0.607991
0.245559
-0.85355
-0.0699994
0.701642
-0.631643
-0.505822
-0.571735
-0.392709
-0.69545
0.01699
0.248059
-0.265049
-0.935883
-0.0353289
0.971211
0.358893
0.0300075
0.856642
0.0286376
-0.59439
-0.0448129
0.0493604
-0.821918
0.167882
0.972938
-1.14082
-0.406623
0.0158373
0.390786
-0.711968
-0.223914
-0.793137
0.961019
0.616559
0.464581
-0.573147
0.991303
-0.816426
-0.174877
0.139893
-0.169739
0.0298461
-0.447808
-0.0539017
-0.344607
0.961166
0.00400969
0.409711
-0.413721
-0.522375
1.13037
0.698365
-0.811544
0.366639
-0.0479308
-0.318709
0.778631
-0.778631
-0.965907
0.047983
-0.317614
-0.683934
0.668987
-0.043612
-0.145897
0.189509
0.868002
-0.0197286
1.05622
-0.810657
0.215613
-0.314783
0.0991698
0.971363
-0.114721
-0.672779
-0.0540265
0.726806
0.152278
-0.237487
0.0852087
0.802591
-0.982547
-0.447472
0.313279
0.134192
0.645235
-0.654913
0.890436
-0.40355
-0.486886
0.497727
-0.695739
0.0388861
0.656853
0.117813
0.663555
0.0403908
-0.703946
0.143257
-0.0952738
-0.520549
0.113926
0.0352846
-0.899129
0.863844
-0.573642
-0.75428
0.0590562
0.486261
-0.0454161
0.272985
-0.832009
0.559024
0.424165
0.575835
0.599912
-0.550552
-0.370649
0.00518456
0.365465
0.552272
0.226359
-0.693139
0.623139
0.0915769
0.871967
0.00548901
-0.678268
-0.763102
0.798386
0.609528
0.129392
0.320551
-0.449943
-0.159504
0.525869
0.175773
0.701045
-0.905127
0.204082
0.650352
0.34095
-0.430818
0.710601
-0.581209
0.408683
0.150985
-0.0616162
-0.560241
-0.249714
0.809955
-0.121492
-0.657139
-0.615419
0.368407
0.247012
0.657048
-0.651559
0.300744
1.04221
0.0140028
-0.763102
0.00225967
0.137633
0.698365
0.780879
-0.780879
0.840073
-0.825288
-0.0147844
-0.457217
0.881382
-0.194796
-0.325753
0.759569
-0.66901
-0.0905597
-0.878767
0.318526
0.11265
-0.707039
0.811544
-0.971047
-0.198485
0.137303
0.0611823
0.109989
-0.990814
0.880825
0.533533
-0.0164717
-0.294884
0.599176
-0.304292
-0.650823
0.760812
-0.159378
0.747761
-0.60579
-0.141971
1.00335
-0.514655
-0.488695
0.719263
-0.070415
-0.0432981
0.0415029
0.00179521
-0.799093
-0.658814
-0.187328
-0.683934
0.576775
-0.560938
0.148721
0.546999
-0.69572
0.777886
0.167513
0.494567
0.505433
-0.119683
-0.592991
0.712674
0.785187
-0.0841426
-0.719263
0.798386
0.178575
-0.439945
0.0213761
-0.0466335
0.0252574
0.679856
-0.451279
-0.228577
0.690231
0.0274733
0.0889475
0.541952
0.137905
0.00141264
0.00500939
-0.00642203
-0.00413468
-0.0391634
0.166019
-0.213949
-0.940257
0.0513995
-0.141871
-0.0324663
0.137885
0.785759
0.743826
-0.167991
0.473794
-0.325074
-0.167447
0.38306
0.63682
0.0534115
0.233249
-1.05854
-0.971047
0.313477
0.668987
-0.168519
0.0226219
-0.837158
0.969549
-0.132391
0.490848
-0.100062
0.793429
0.304261
0.347296
0.0473428
-0.680494
0.680494
0.233023
0.652713
-0.0200532
0.429765
0.451052
0.0692648
-0.0478886
0.540818
-0.00728563
-0.650823
0.565844
0.193725
0.0343973
0.00710558
-0.63682
0.141617
0.827932
-0.0143852
-0.717426
0.731811
0.756096
-0.824502
0.068406
-0.777886
-0.0480814
0.0626999
-0.0146185
0.0841642
-0.134553
-0.112123
0.246676
-0.0125508
0.0139635
0.71465
-0.729035
0.911591
0.136738
-0.370338
-0.626872
0.99721
0.00155943
-0.00155943
0.142487
0.397466
0.692689
-1.09015
-0.182102
-0.561884
0.743986
-0.0122124
0.201721
0.390483
-0.238205
1.14993
-0.752469
0.828775
1.01602
-0.323331
0.195687
0.760812
0.599534
0.263353
0.662013
-0.657139
0.319506
0.0463781
-0.00136415
-0.0450139
0.787155
0.264464
-1.05162
-0.583758
0.557045
0.542783
-0.583758
-0.599534
0.557045
-0.0479034
1.11038
-0.198785
-0.552272
0.478833
0.0734392
0.51831
0.71798
-1.23629
0.339416
0.810519
0.792247
0.413513
-1.20576
0.265637
0.750383
0.478833
-0.530713
-0.608663
-0.609616
-0.219029
-0.0587911
-0.00269976
0.00269976
0.394687
0.644717
-0.863747
0.692167
-0.371615
-0.946859
0.432204
-0.684192
0.460277
0.00222648
-0.811683
0.809457
0.448942
-0.0997349
0.88689
-1.16348
-0.949698
0.110249
0.83945
0.613833
-0.241222
-0.372612
0.805994
-0.865228
1.12878
-0.80367
-0.325113
-0.216613
-0.688515
-0.145515
0.737981
-0.592466
-1.08109
0.864479
-0.437595
0.762093
-0.324498
-0.903715
0.144663
0.759052
0.00571875
-0.00415933
0.42397
0.0346927
-0.985392
0.950699
-0.734944
0.615262
0.935686
0.244309
-1.18
-0.014012
-0.00262723
0.368092
-0.357677
0.0428943
0.894741
-0.892515
-0.766977
-1.03264
0.34413
-0.0671215
-0.935341
0.131671
0.579566
-0.105772
0.380933
0.2329
-0.650197
0.794859
0.486886
-0.911418
-0.836783
0.273593
0.192212
0.588257
-0.78047
-0.125884
-0.574765
0.581635
0.174461
0.0619391
0.824951
0.974728
1.01509
-0.883417
0.0491541
-0.0491541
-0.112961
-0.497629
0.256407
0.322144
-0.00866718
0.37477
0.699067
-0.0341675
0.0216166
0.657448
0.342552
0.798828
-0.587634
-0.757246
-0.516006
-0.505388
0.505388
-0.203299
-0.114315
0.731982
-0.918305
0.186323
-0.537237
-0.55513
0.348444
-1.04389
-0.957521
0.632408
-0.536406
0.880536
0.703458
0.134449
-0.837907
-0.840504
-0.17036
0.800628
-0.630267
0.258454
-0.0259623
0.00504169
0.0209206
-0.226267
-0.271362
1.08043
0.834945
-0.487182
-0.347763
0.462333
0.729887
-0.496863
0.0076719
-0.28463
0.114077
0.769869
-0.883946
-0.340435
-0.111805
0.125496
-0.995445
-0.0561744
-0.783856
0.0194711
0.727987
-0.747459
-0.790766
0.00690976
0.644206
-0.756011
0.238199
-0.372752
-0.601499
-0.239005
0.37556
0.726
-0.0153992
0.0123708
-0.0123708
0.00230963
0.0861166
-0.0397385
-0.0221403
-0.0120271
-0.70727
0.306118
0.848093
-0.756625
-0.0914683
-0.641833
0.661304
0.728658
-0.084452
-0.659925
-0.130841
-1.14685
0.0202207
0.0289334
-0.593193
-0.805439
-0.911145
0.509551
-0.139428
0.0879301
0.0514982
-0.382738
-0.210455
0.461856
0.712049
-0.0523507
0.0198844
1.23445
0.510914
0.219439
-0.730353
-0.565768
0.183029
-0.0170184
-0.00894395
0.645514
-0.895228
0.00573215
-0.00573215
-0.73008
0.687782
0.0422979
-0.184834
-0.105151
-0.685636
0.175724
0.53695
-0.0602938
-0.855996
-0.230229
0.110235
0.119994
0.650839
-0.742307
0.343241
0.266874
-0.610115
-0.159925
-0.652154
-0.0953042
-0.219165
-0.0545046
0.460497
-0.514398
0.207446
0.704399
-0.911845
0.497727
-0.0644222
-0.0750061
0.417537
-0.472042
0.599258
-0.0918566
-0.507402
-0.283624
0.301566
-0.0179416
0.621439
0.0707276
0.0765037
-0.307634
0.163853
0.143781
-0.205139
0.207399
-0.244741
-0.212398
0.106273
0.106125
0.772601
-0.383395
0.19856
0.547674
0.238909
-0.726091
0.436756
-0.436756
-0.218758
-0.412046
-0.224642
-0.412046
-0.670444
-0.847985
0.178976
-0.126987
0.732027
0.0383206
0.127731
0.59827
0.110731
0.123351
0.00600921
-0.129361
-0.0167523
0.67919
-0.977635
0.350763
-0.0612629
0.0941898
-0.032927
-0.714719
-0.168882
-0.611228
0.830667
-0.531789
-0.113
-0.359042
-0.327376
-0.0836287
0.0836287
0.0511937
0.0115061
0.143572
0.295329
-0.749169
0.137941
-0.062627
0.468745
0.531255
0.691765
0.050927
-0.0343797
-0.0165474
-0.294559
-0.561437
-0.633249
0.110473
-0.116284
0.00581079
-0.107409
-0.417609
-0.0499323
0.586882
-0.54627
-0.16845
-0.282739
0.103662
0.217488
-0.535528
-0.19729
-0.205097
-0.00885219
-0.50047
0.435738
0.0647321
-0.237467
0.290554
-0.862289
-0.531202
0.570129
-0.842284
0.682359
0.427137
-0.0352327
0.0630484
-0.0278157
-0.0810032
-0.638474
0.0154862
0.622988
-0.891024
0.624148
-0.737109
-0.345227
0.0100233
-0.0100233
-0.299962
0.401143
-0.033051
0.0555253
-0.00459827
0.594129
0.739391
-0.535309
0.00889181
0.0110468
0.00132404
0.00453431
-0.00453431
-0.501987
0.572714
0.0116366
-0.0116366
-0.763444
-0.0127382
0.018457
-0.582175
0.720117
0.639858
-0.59756
0.0711083
-0.0711083
-0.0738804
0.0259918
-0.00337574
-0.890585
0.40189
-0.450488
-0.00415933
0.575584
0.0316539
-0.607238
-0.694382
0.148113
-0.320654
-0.0140949
0.334749
-0.0423415
-0.0100092
-0.599421
-0.0390527
0.0289334
0.00593081
-0.000198655
-0.00368428
0.00368428
-0.285868
0.391993
-0.451568
0.140144
0.658684
-0.132084
-0.00732915
0.00732915
0.507632
-0.302628
0.00846391
0.0189101
0.000374982
0.478231
-0.78086
-0.489126
0.687687
-0.0493456
0.330751
0.748404
0.00230963
-0.110478
0.117584
-0.643986
0.551929
-0.426163
-0.118798
-0.0177858
-0.0252621
-0.05652
0.443767
-0.0919898
-0.415412
0.66263
-0.00183455
0.00768057
-0.00768057
-0.0974732
0.00946092
-0.575592
0.613913
-0.147356
0.507186
-0.215197
0.974381
0.6861
0.00593081
-0.86923
0.775047
0.15836
-0.154941
-0.00341899
0.450219
0.0933421
-0.0130612
0.0715896
-0.0585284
0.00937689
-0.00937689
-0.773888
0.0219542
-0.0482982
0.0672083
-0.0892727
0.0892727
0.0110468
-0.00501952
0.689115
0.138817
-0.321066
-0.0965439
-0.513314
-0.124379
-0.0692399
0.0692399
-0.0904278
0.0819989
-0.0819989
0.0280554
-0.0280554
-0.348447
-0.0823719
0.244237
0.0690426
0.0420768
-0.755355
-0.073032
0.164761
0.0138139
-0.262271
0.080867
-0.080867
-0.459588
-0.0548103
0.237623
-0.015042
0.00224652
-0.607898
0.655802
-0.0563515
-0.0340763
0.0796055
-0.0536137
-0.0108905
-0.157426
0.168316
-0.153836
-0.218916
-0.0840988
0.0840988
0.0574792
-0.0574792
-0.0321671
-0.0957004
0.127867
0.0279929
-0.184454
-0.0298124
0.0311365
-0.227132
0.619125
-0.0261495
0.492984
0.00360141
-0.0100234
-0.0533845
0.0533845
-0.721623
0.326135
-0.130449
-0.213679
-0.0238082
-0.0187663
0.0210128
0.21245
0.0342258
0.00421349
-0.00383851
0.0805424
0.0299311
0.0540187
0.110742
0.0145733
0.00531111
0.00194842
0.00254616
0.00700149
0.0114089
-0.0184104
0.00336622
0.00176685
0.0299042
-0.0299042
0.0528233
-0.0402425
0.0402425
-0.193824
-0.00747728
0.0157496
-0.076417
0.0186786
0.0759843
-0.0759843
0.277182
-0.248368
0.0945323
-0.0695604
-0.178808
-0.0186535
0.0186535
0.401816
0.255036
-0.515893
-0.0819743
-0.03431
0.54196
0.107598
-0.0762525
-0.420961
0.0880404
-0.158218
0.174966
-0.0167483
-0.0460533
0.0460533
0.836444
-0.596127
-0.0172304
0.0205967
-0.00564406
-0.283197
-0.00113188
0.00517388
-0.0504101
-0.615662
0.568125
-0.670733
0.0148589
0.233107
0.0158554
0.0253291
-0.163862
-0.336917
0.2605
-0.059742
0.027575
0.165186
0.13638
0.250391
0.272255
-0.256399
0.00680284
-0.118011
-0.227773
0.0709928
-0.016974
0.167135
-0.141806
-0.0698757
0.150418
-0.40386
0.128089
-0.10941
0.060566
-0.475978
0.18014
0.172523
-0.242399
0.00598034
-0.176499
0.175367
0.00488266
0.145535
-0.0286059
0.0529506
0.454681
0.0112507
0.029765
-0.0132041
0.0419462
-0.244522
-0.202724
0.589604
0.175479
0.0621438
0.0837767
-0.0609097
-0.0064998
0.00308081
-0.0302901
0.171191
-0.156332
-0.0267549
0.013906
-0.107406
-0.0309636
-0.0214438
0.254732
0.00617646
-0.0601135
-0.318978
-0.0174865
0.215418
0.145865
0.180271
0.057725
0.101718
0.0581858
0.535944
-0.016462
0.0986181
0.0472641
0.0629159
-0.11018
-0.260857
-0.20359
0.024782
-0.221246
0.294196
)
;

boundaryField
{
    FrontBack
    {
        type            empty;
    }
    Top
    {
        type            calculated;
        value           uniform 0;
    }
    In
    {
        type            calculated;
        value           uniform -1;
    }
    Bottom
    {
        type            calculated;
        value           uniform 0;
    }
    Out
    {
        type            calculated;
        value           nonuniform List<scalar> 10(1.13166 1.04902 1.21828 1.07616 1.13149 0.969412 1.0394 1.09237 0.655514 0.636688);
    }
    circle
    {
        type            calculated;
        value           uniform 0;
    }
}


// ************************************************************************* //
