/*--------------------------------*- C++ -*----------------------------------*\
| =========                 |                                                 |
| \\      /  F ield         | OpenFOAM: The Open Source CFD Toolbox           |
|  \\    /   O peration     | Version:  2412                                  |
|   \\  /    A nd           | Website:  www.openfoam.com                      |
|    \\/     M anipulation  |                                                 |
\*---------------------------------------------------------------------------*/
FoamFile
{
    version     2.0;
    format      ascii;
    arch        "LSB;label=32;scalar=64";
    class       surfaceScalarField;
    location    "509";
    object      phi;
}
// * * * * * * * * * * * * * * * * * * * * * * * * * * * * * * * * * * * * * //

dimensions      [0 3 -1 0 0 0 0];

oriented        oriented;

internalField   nonuniform List<scalar> 
1171
(
-0.9279220570570186
0.9279220570067002
0.7874454187781178
-1.099241868951067
0.3117964502518074
-0.1899867875006756
-0.7651070708749327
0.9550938584566797
0.07207793254200549
-0.1169967240857305
-0.2123742836475163
0.3293710075189017
-0.7874454196813685
0.06947104384455274
0.7179743758489409
0.8116529718824644
-0.1779765249706283
-0.6336764469172879
0.8742102138324531
-1.044220566991974
0.1700103531985631
-0.2854743582377073
-0.09755965243045275
0.3830340110126459
-0.03628357633456933
0.5489877483920063
-0.5127041721360899
-0.5045051830941132
0.8249493365304125
-0.3204441535421293
-0.402471077448153
1.045952104197654
-0.171741892316413
0.3923482353118747
0.04914413204513551
-0.4414923679868027
1.045950554029383
1.549551431054446e-06
0.443348963352463
-0.05100072976242607
1.056565878302482
-0.01061533147825513
0.5795465155383804
-0.7695332957225938
-0.7242320012456965
0.5566821698827588
0.1675498313041853
0.2164844844707197
-0.7209896725697877
0.5503232365771031
-0.922757207452415
0.3724339701828221
-1.094193838830519
0.686542423803329
0.4076514151523125
-0.5955828903722377
0.5592993196140689
0.01767656369799576
-0.2563529496836179
0.2386763848503917
-0.02294799553284773
-0.5221632202795645
0.5451112163253158
0.4004470319685271
-0.4980066769539545
-0.9189395807706066
0.941581964327324
-0.02264238356694638
1.067586976537762
-0.01102110173275407
0.9348543641527934
-1.116656436116124
0.1818020719187059
1.06703874977916
0.0005482195821781715
-0.6644543213253131
-0.0597776836324373
1.262323912855636
-0.8642502406677283
-0.3980736721774963
0.1480991618413494
-0.1096593566861768
-0.326145746572946
0.4358051035325931
-0.2855762014337377
0.1915312419326427
0.0940449599974207
-0.5836729654363214
-0.5155689018766213
1.014033386133489
-0.07917902329004291
0.009905677218418051
0.8254821262417399
-0.8353878034469784
0.5718083825103661
0.6905155310604933
0.4393283957524362
-0.03054403460647696
0.4309910668577542
-0.8079737127434488
-0.1025066608591673
0.9104803735527711
0.5020962737712126
0.2538306492124052
-0.7559269230212964
0.006968254290460206
0.5276168938521721
-0.5345851483200182
-0.489950428136381
-0.6042434168145649
-0.4227641285352266
-0.6938923080606231
-0.02706929294822749
0.2703636231401245
-0.2432943295149466
-0.9247035768622744
-0.005066771670196602
0.9297703485559039
0.3087442144760414
0.07428980740951749
0.7617744903572041
0.0498784820827487
-0.5330867351795276
-0.06249615146416012
0.04604129752354734
-0.854015013342031
0.07518164910100895
0.8634730499288531
-0.9386546990399364
-0.3468601218103814
-0.04127664840854554
0.3881367701120682
-0.682038103929093
-0.2426654731559626
-0.6338440514282425
0.7090256974607749
0.6136211121254187
0.2113282198596221
-0.5432481988528266
0.9456569168247779
-0.7790255769243611
-0.1666313399029714
0.0134034002302431
-0.01273171312029978
-0.0006716884524923634
-0.4033951755542444
-0.09461150044957067
-0.2408094932309888
0.8544305983489334
0.04738631960000762
0.3351624647038467
-0.382548783958759
-0.4608883153134518
0.9629845893206312
0.6804080724392514
-0.7829147378718427
0.3204444141565138
-0.01706261474192023
-0.3033818003592836
0.930735946731205
-0.9307359467209384
-0.7813324769620186
0.1106606569071098
-0.3230349351711673
-0.7499449608237758
0.7598506368810934
-0.09013120103137728
-0.1434315209906484
0.2335627223908139
0.8649559960096621
-0.0394738707096116
1.054289537828476
-0.8004588907285667
0.1864676769579568
-0.3159661426582225
0.1294984656865455
0.8588462669499641
-0.09707177494916946
-0.6115534074788735
-0.0389881846740818
0.6505415921609475
0.1235389670123638
-0.2307457684154942
0.107206800383545
0.8056440398169283
-0.983620562941758
-0.4348478406478227
0.329403349521407
0.105444490872209
0.5324154310881839
-0.5553634311162436
1.021914858016004
-0.4561872984226527
-0.5657275596094579
0.5991507257625515
-0.7193727794254072
0.06674600503188054
0.6526267747572662
0.1029193451683593
0.569730235606441
0.05538653636965642
-0.6251167720791041
0.1943229138895276
-0.08366225084859509
-0.4925969534354119
0.1457368291124621
0.05024062864976975
-0.8865313525786399
0.8362907238909064
-0.4730190862405078
-0.7133139458102592
0.04885962713408862
0.4372874720208906
-0.006296401688856642
0.2999096991453083
-0.8552475672078675
0.5553378678412312
0.4157424921831757
0.584257507792345
0.5604660002086423
-0.5144247099581104
-0.3678307358203912
0.03762420472542273
0.3302065328555471
0.6813183708102626
0.2494175754999497
-0.5660252204688837
0.5729934765404918
0.111141721201793
0.8751150849008543
0.01016218894783004
-0.6217155987051299
-0.7491309587763112
0.7993715854274838
0.5307420493115281
0.0698252130950159
0.3020306048230472
-0.3718558180197026
-0.1674725974222856
0.4436025701362568
0.08401432685366703
0.8757005567059195
-0.8036443646118658
-0.07205619218283918
0.635284367744914
0.310372545787427
-0.430464470238215
0.5739113393993561
-0.5040861295842344
0.4171712828840928
0.1331519445152625
-0.04675374019062483
-0.594114969420692
-0.1378597862436292
0.7319747556970689
-0.1497831473776957
-0.780952797240218
-0.6109844221004979
0.3605011522317825
0.2504832707784101
0.6219741165795216
-0.6118119300821973
0.2392398087181071
1.011300228821608
0.04298931071746163
-0.7491309594466564
0.2344150846983638
-0.2210116756492922
0.6804080701275805
0.8017654761706059
-0.801765476142305
0.8376717336094407
-0.8331593255982641
-0.004512408082107774
-0.4453692321694224
0.8611117246552126
-0.1473192457221046
-0.3452777053259826
0.7347237387748955
-0.6685067186520567
-0.06621702005681669
-0.7345393038690418
0.1404243353227777
0.1388948826632934
-0.6719816177967305
0.7829147458146736
-0.9503873431831578
-0.3685659629783182
0.291032211005595
0.0775337521414444
0.1458594191918247
-1.009973696997519
0.8641142777814139
0.4812830937514592
-0.04195469793207954
-0.3081269828649069
0.5863957118495809
-0.2782687290747557
-0.7385481156343312
0.8844075376658698
-0.1570514662994586
0.7313861192130066
-0.8434579636257716
0.1120718442603286
0.976063689063389
-0.5398382580555843
-0.4362254309856362
0.755011733720802
-0.06503342781251974
-0.03204664433422219
0.185219412232378
-0.1531727672236446
-0.7758100981383708
-0.8420993978170918
0.07699233432020862
-0.7499449620337295
0.5136496535767332
-0.5549263005387015
0.09818418921954422
0.7187993368711265
-0.8169835262054586
0.7536433784277922
0.1742786678035479
0.5029165383866019
0.4970834616319478
-0.0507100996018747
-0.6121241142581166
0.6628342137938753
0.884128188579718
-0.0084276350622518
-0.755011733731717
0.799371582785354
0.1913683784567127
-0.4477213312612009
0.01611368229953607
0.003530049222386358
-0.01964373461041161
0.5885106481791927
-0.4377402931878844
-0.1507703552646234
0.7179743755307784
0.01052606157839877
-0.110713277539334
0.4375619691203599
0.150948674816196
-0.01639559444928696
-0.005990827515853208
0.02238642210496868
-0.03107379605785872
-0.0009728409668938983
0.2447986332154026
-0.2618612642156611
-0.9588169452642408
0.00132653746140932
-0.1594453624704059
-0.1237673362628391
0.09438254230860967
0.7221750924646454
0.7290099426009903
-0.144752435123273
0.6729622079750001
-0.5747780157950237
-0.2117542332291623
0.3982219076656972
0.6955587984081304
0.02241557713358954
0.2417739854543351
-1.074933316798576
-0.9503873457557027
0.3024478043798302
0.759850635946803
-0.2090098685390981
0.06557834322048015
-0.7235016294892617
0.9111210371117445
-0.187619407669443
0.4155572773482446
-0.02742050232096634
0.7712572936198945
0.2806272113087898
0.3745695540192592
0.06877942189708904
-0.6586996876534214
0.6586996876731002
0.2146195303234792
0.6958608374920007
-0.05603810297639808
0.391200569443594
0.3797669964771655
-0.01564729336842912
0.03176097978510963
0.4486995897193804
0.03258350615100243
-0.7385481145367658
0.5340361162041165
0.2006876177594083
0.3024390107649368
-0.1172196098258064
-0.6955588004661117
0.1801062903302253
0.731014748536816
-0.0101462458594297
-0.8136951476914789
0.8238413935749345
0.6963535356917884
-0.7920442637295251
0.09569072802447028
-0.7536433725752468
-0.1498068386866651
0.2112731640726694
-0.06146632458502856
0.07724279041144402
-0.1793083432719786
-0.1118754269137939
0.2911837697481411
-0.009676568747661827
-0.006719020733376178
0.7062829321208003
-0.7164291710303698
0.8861146560071983
0.06897920938191172
-0.3097394469840574
-0.52298877932104
0.8327282265216933
0.102740952312495
-0.102740953909203
0.3286564077255944
0.4790045921040296
0.6079056476249258
-1.08691023985347
-0.1941230700053955
-0.5855470732967815
0.7796701432937702
0.01221439720093623
0.2213483163795246
0.3766759682853308
-0.2531370149059964
1.014701429921359
-0.535696841214487
0.6668111929630157
0.992423621140042
-0.3845179764541474
0.2293567278614091
0.8844075407696365
0.7126656452444814
0.2137973457936873
0.7277846136342778
-0.7809527974163115
0.3413003067887314
-0.2837669854877977
0.2572449561633596
0.02652202926449571
0.8520558059572776
-0.01099963261891013
-0.841056173506445
-0.7020503064182199
0.7025985225949705
0.5546307673572966
-0.7020503095272604
-0.7126656452489223
0.7025985186629193
-0.03360979693857802
0.9055001376754592
-0.01938547777475588
-0.6813183794723655
0.6122535206773853
0.0690648587928633
0.5387586669708703
0.5385117237972562
-1.077270390763576
0.4890570586174544
0.5256443704576363
0.5475901625278896
0.4584669145331386
-1.006057077113512
0.4954144515916355
0.4970091685413504
0.6122535269324539
-0.5257007985431856
-0.4664676999317329
-0.5557665468041849
-0.515698987041626
-0.1246586209106483
-0.01272958722558585
0.01272958806588896
0.5095959902818474
0.5242307258995372
-1.039929713058973
0.5732943093581143
-0.2712637038639225
-0.8832729442897355
0.3434346866038722
-0.6326792251690713
0.3900137510528415
-0.0001700142464610549
-0.8283366912066703
0.8285067054516613
0.420882963971735
-0.02368734437124233
0.8757431535898009
-0.9435835028420074
-0.8348519391014193
0.0574197614128063
0.7774321777255986
0.5506405051000802
-0.4364757520623661
-0.1141647529255884
0.6500693193136943
-0.7292483427240921
0.8844793823370519
-0.828075174530264
-0.05640420764406533
-0.01316904329055344
-0.7904753240969109
-0.1110309715773721
0.7155005063907364
-0.6044695348117225
-0.9407218492806951
0.9275528057366033
-0.7361029972136833
0.6886384062337874
0.04746459098803008
-0.8006332746188884
0.02819119378978478
0.7724420809128865
0.06178515536487999
0.04095580076786473
0.4330616441642886
0.05910413884175023
-0.849659687652455
0.7905555486907744
-0.6446662663526217
0.5939561598493894
0.8900106573062233
0.07272453524599835
-0.9627351926558281
0.05515871900532256
-0.04992670671642781
0.3801332291577812
-0.3815874890008957
0.06562134006698261
0.8407852577228269
-0.840955277416561
-0.7316540587548866
-0.8099449092001155
0.01946958435127035
-0.1685215464425595
-0.8479692041297958
0.01989402163120188
0.6240311497914857
0.04893105968382341
0.01711571976973027
0.5335247704333501
-0.8143691747953512
0.8425603725401281
0.5657275623358935
-0.8520240438448425
-0.8679973139056021
0.03750282613415187
-0.03397668833854375
0.8344180214133264
-0.8004413330552665
-0.01946251136416189
-0.7656307424211689
0.5442981594059062
0.1520553779983533
-0.02004885039398717
0.895792002889604
0.9849725671582089
0.8606808089989997
-0.8407867923984501
0.1475494420483234
-0.1475494437088255
-0.1178014665589587
-0.4669206676237779
0.03044490875467863
0.2714070696911847
0.03104073497767099
0.3850956025940502
0.8763294943601561
0.005883586400363348
-0.01556013973368207
0.6586041804645482
0.3413958195553226
0.783543748658153
-0.5836729656117813
-0.7780433085006274
-0.8114409578972893
-0.6799561287549652
0.6799561287510767
-0.1681130161740169
-0.1549219123083287
0.6017467816484421
-0.8113585093579732
0.2096117277251401
-0.4939510750269258
-0.5688630508589637
0.2780800492970277
-0.9719723582654551
-0.8989525219579441
0.8425483033689097
-0.8199373423499019
0.8394069274936387
0.6484895185507984
0.13451214514685
-0.7830016637058801
-0.7639763665584838
-0.1462770863641827
0.7253252087191719
-0.5790481223487479
0.02262303060766789
-0.01316632063894876
0.01626271340756238
-0.003096391820949214
-0.3529397439295003
-0.1139809220422244
0.8798268321790198
0.7381574084732112
-0.2384450043001352
-0.4997124043960097
0.6239926575520874
0.6856102512973631
-0.4709907215248827
-0.0003624380532482466
-0.2852137685569199
0.01519948288087533
0.7464032753223113
-0.7616027580886038
-0.3234828392040046
-0.0716727903939841
0.07590935488844193
-0.9661992077602534
0.1251430386012163
-0.6768463622841269
0.05411321475453458
0.6403323745516525
-0.6944455892793445
-0.7566393194193269
0.07979295712127084
0.5894744435437685
-0.6611472338641166
0.156186303048277
-0.3354946512794258
-0.7724440887581812
0.008467722195192042
0.3711612955626109
0.6002563343108226
-0.02634499235260771
0.02216392249104859
-0.02216392393397918
-0.01872040214454313
-0.05271196628598516
-0.2310550015703776
0.02071186113559878
-0.01482830294575162
-0.7235130321507078
0.2794089175399053
0.678413131544328
-0.690210854253369
0.01179772286798387
-0.5970667055245213
0.6511799191426701
0.6543698266206702
-0.06489538499738341
-0.6311390432845146
-0.1255002781600245
-1.049717620484875
0.01123894909202686
0.1363104971380493
-0.708313550389748
-0.7421700172669
-0.7639218101245172
0.3658481383713774
-0.4073367179040781
0.4681093272900982
-0.06077260928609139
-0.6746281111795308
-0.03368543911183985
0.499610211141178
0.7306821120527482
-0.2345861175689371
0.110818782762344
0.957731488299289
0.4461047038887518
0.1325244664735314
-0.5786291704044442
-0.6776074916404422
0.002979382266253024
-0.04450698133982928
0.03134063355644189
0.6376191838243359
-0.7754789717887852
-0.002821697665322333
0.002821697217969288
-0.5999938646647395
0.6495064465453572
-0.04951258184172929
-0.6604917717535316
-0.1138524870603445
-0.671824112926847
0.05304990808966153
0.6097843003330612
-0.1375924603151649
-0.8181011971686944
-0.5640299707023545
0.5719510384290568
-0.007921066949217402
0.6316061465780128
-0.6198084232816913
0.3223066822297735
0.2137022244319332
-0.5360089066731125
-0.1045508349954415
-0.6027968241100259
-0.09164876335221919
-0.153889159972665
-0.5109800753340985
0.4043533113904319
-0.4989648146633654
0.1259725225531923
0.6787351949542358
-0.8047077175157842
0.5991507257570513
-0.3748608463475738
-0.03247588394512286
0.05948018526532747
-0.5704602616836406
0.5514848475299274
-0.0403212764752962
-0.511163571239535
-0.3126830852501398
0.3053258475887587
0.007357238784462941
0.4507657238181151
0.1225285814791208
0.05157300501695128
-0.3161631883787353
0.157149548662579
0.1590136399248293
0.2538635059881006
-0.01944843168743863
-0.2970313813790833
-0.3133436926479657
0.3608608039420083
-0.0475171082507878
0.7919542295201959
-0.6293106150383977
-0.03118115680046937
0.4995216385722206
0.2849603126272546
-0.5234053219622675
0.5774419959728573
-0.5774419959718712
-0.2897898818386399
-0.58651935537011
-0.2955205851797243
-0.5865193555957106
-0.5968870522084815
-0.8384792669084763
0.1699725448503593
-0.5988657012771618
0.8212259619400099
-0.003441457321510126
0.119044640870971
0.4812116941885867
0.09673510463451712
0.1855301239658468
-0.03616719913321569
-0.1493629240932298
-0.02691467211055594
0.5908418854256142
-0.9427610356393161
0.4197722519987525
-0.003757372827221474
-1.466152322593265e-05
0.0037720344638682
-0.6439435054945024
-0.132107457638383
-0.4658353892033913
0.5983598567967394
-0.5035927472462136
-0.3148054397853401
-0.2556548061656466
-0.2723410680087512
-0.1116782087288317
0.1116782094302753
0.1535351322779425
0.05773803514154816
0.1967690761012393
0.4486608945200392
-0.569810359799639
0.103974965164245
0.253487570915178
0.466258355131031
0.5337416454581261
0.6455291614661263
0.08101115338670645
0.003177058486188046
-0.08418821222680203
-0.2770270401324423
-0.5410741570346865
-0.5451182812681793
0.1145585108821857
-0.1264397127773154
0.01188120232627857
-0.1058407660571565
-0.3855989859285098
-0.04846245147443955
0.6582467675382727
-0.499407410713016
-0.1445360947630673
-0.3275371419791266
0.2867917220319326
0.127505215262201
-0.6084634517838454
-0.2042802302599667
-0.2625368767034593
0.000675632262040951
-0.42097321979087
0.3220704146026413
0.09890280534808961
-0.08938353146020565
0.2916876526185967
-0.8959310698453175
-0.457566941596362
0.6313320902954991
-0.7731177345780341
0.6685668996251647
0.3412738547564463
-0.1259242579077472
0.224925193505927
-0.0990009362361907
0.03137149049291073
-0.586174934266518
0.02889731098870635
0.5572776230634566
-0.9006546562832739
0.5474115300258063
-0.6652129966240933
-0.1002127366918088
0.1091091838111654
-0.1091091861389331
-0.3165256329495177
0.3604508415613872
0.01968238251756605
0.02094400693131211
0.06006711628996154
0.5043970578750943
0.6671379939661964
-0.7391941884306873
0.02447405298145886
0.02036931753315308
0.001794588861549854
-0.006308200458254584
0.00630820127062546
-0.4101830657532944
0.5327116429406941
0.0155559415421772
-0.01555594144587639
-0.7925959421943453
-0.05997527977500638
0.1217604261171037
-0.4508010695650762
0.5547760301704169
0.449579003018855
-0.4990915851978507
0.1500079681198511
-0.15000796948907
0.04417757835226226
-0.01241658545495899
-0.04118854153177279
-0.9765449315334439
0.5403195015531008
-0.4709556837610981
0.04095580081172583
0.5150035476383169
0.03054096876453267
-0.5455445165770397
-0.6162119364385075
0.1168045257732518
-0.3294351681262787
0.01358486507068126
0.3158503021938503
-0.154210765787972
-0.08037536989251932
-0.540892855632088
-0.04528207656345024
0.136310498023733
-0.04137272662001
0.03855102534371551
0.08168445268603081
-0.08168445026820902
-0.5305714652942659
0.4830543494264862
-0.4146939711633834
0.1613050482973314
0.6222387003963725
-0.09741747969456288
-0.005901195707853659
0.005901195817246297
0.5330043457439894
-0.07493867577679682
0.006368227353077156
0.02720131467744842
0.03464761628682042
0.689478320577686
-0.7644169964165934
-0.6627035791342853
0.6315224224708839
-0.1105048271131587
0.313529609482813
0.7456742513101519
-0.01872040104128676
-0.2656719594880338
0.1484523649362082
-0.7446302773252118
0.4839102459404019
-0.424176354631001
-0.1012083889478825
0.00340530285514457
-0.01468694948683533
0.02388894447064737
0.412350504902202
-0.1216439687709937
-0.3895196038089275
0.6290930273108729
0.01903775481736601
0.009182453082596864
-0.009182453318425049
-0.3551784502257182
-0.08191057217194712
-0.5604424832262629
0.5570010257807341
-0.237799687656339
0.4647517495041874
-0.1505784944972248
0.7301250131859361
0.6706348399515915
-0.04137272668566309
-0.6162725284720199
0.559921562606971
0.2826035717063122
-0.2789822108728054
-0.003621360139384942
0.5421388933036335
0.09343677075458308
-0.03874148565767341
0.1967470555397718
-0.1580055695118468
0.1204259361079851
-0.1204259337537568
-0.8586529315895327
0.002458522133252138
-0.1131068212939068
0.1403081349113291
-0.1317162346780602
0.1317162356708569
0.02036932189474901
-0.02462161306634413
0.6709449323264945
0.06006981639595725
-0.3228856923034357
-0.06271329348709417
-0.4712939980353442
-0.04493357118081051
-0.1515265119236029
0.1515265133294902
-0.04001063619474269
0.1434712041696715
-0.1434712053965279
0.1366607603764741
-0.1366607585300897
-0.3159781389813584
-0.1144863312237192
0.2262651573036332
0.1031381915385556
0.03481153234598697
-0.8212213836342876
-0.1975677478947441
0.1700852309706073
0.02128313944944141
-0.2647869106101102
0.1260177536332739
-0.1260177547124762
-0.4142371323945959
-0.08472767953417527
0.2360840945835828
0.002592284870293896
0.04031173053047686
-0.5443427062633036
0.5779525032289077
-0.02737472724303404
-0.01263590835118612
-0.02558819295237394
0.01317159111103156
0.006536748313968035
-0.184497331575402
0.1779605832133523
-0.1076674213060426
-0.22782723248079
-0.1445883736170709
0.1445883748835957
0.07260090049298265
-0.07260089985657182
-0.01914598559822324
-0.1086289771617376
0.127774962050192
0.2357909994051515
-0.1831846233465183
-0.0213776378593442
0.02317222038695331
-0.1306389832769949
0.6136933357313199
-0.03907730946950345
0.4241370504948184
-0.04114879309560217
0.06353519691738971
-0.1533493758766664
0.1533493775413116
-0.6363156836051317
0.3084721793786224
-0.07911545233189839
-0.2344019503994711
0.003656177862775556
-0.1223382683021964
0.1626499995787715
0.1941372067885364
0.09704655526645464
0.09494171686661246
-0.06029410048931371
0.07294641129683693
0.04161210032166719
0.06404854050637619
0.1060366933698651
-0.09890024467089958
0.2097190528443625
0.01200415468228697
-0.1137285464537184
-0.1022000841669883
0.09687297620405014
0.005327106713630581
0.0111868661612975
-0.02211103985723558
0.03750904768994347
-0.03750904758606328
0.07440878627512672
-0.05513618081392156
0.05513618110288349
-0.2244379417948751
-0.05019334827636784
0.01173311113376633
-0.1031700055479459
0.01623482390558847
0.1086294750256732
-0.1086294757161806
0.2930400069748909
-0.2710583254387252
0.1633908985069144
-0.05042751143377821
-0.2206308158969441
-0.01707790246127105
0.01707790206890449
0.3674184191281054
0.2852083454734285
-0.5277323742559816
-0.0939461423730367
-0.03249356788791589
0.5287234619599902
0.2102027926947757
-0.1686254012181024
-0.3817685408576029
0.07659568462822361
-0.1474476822155172
0.1870648404548713
-0.03961715786786669
-0.06701739379401654
0.06701739330723161
0.8222699359361731
-0.5604063292008031
-0.002555649871589964
0.01374251600166784
-0.02003802447587839
-0.2870293754974957
-0.01745345594007628
-0.01287213105434862
-0.1319894072260288
-0.572199110583163
0.5560216787750103
-0.5685831311448564
-0.006938138030134296
0.0992682709200686
-0.00182286432724319
0.01668861983443313
-0.1674857050193592
-0.3363867690603025
0.2332167633463234
-0.05423784734203631
0.03509186116007508
0.1321017987728319
0.1732240464076547
0.3401620319124357
0.2762946585713306
-0.2781175234988301
-0.0636490571795354
-0.1549275770645336
-0.2208170898934946
0.07466899319209219
-0.01062045027155097
0.2138678140593867
-0.1971791946759045
-0.08622904994730228
0.1591754660037349
-0.3548809119823583
0.2084330777690032
-0.1921982538352049
0.08966891884365435
-0.4791885205705981
0.1741927151019402
0.1703696656125279
-0.2565987267650471
0.07283066852128467
-0.19459355039834
0.1771400948458587
0.01738827963626863
0.1417871839926289
-0.03958022712514189
0.0660423705669569
0.46696197559751
0.02043114493836229
-0.08008674294331758
0.05629978633240981
0.1256211808472145
-0.260434246045309
-0.2309422694536827
0.5597067867239479
0.1572960413898432
0.0787880550443321
0.07528737002908596
-0.03105618279580117
-0.0005210340187153249
-0.003100326415916577
-0.03263384232710499
0.1709107388330529
-0.177848877311933
-0.05619780106745261
0.02061657276792951
-0.1469044044240599
-0.0528063803600627
0.1535212357326678
0.2770691430554991
-0.04049468604850167
0.01265056131566622
-0.2552477448767179
-0.1305687104473529
0.2359910027984147
0.1789383670642668
0.1295338081092335
0.02166955153524385
0.08869764897637919
0.05209866412681399
0.4522983937581804
0.01733127134292341
0.09758508915290022
0.04325429886906249
0.07207379933560901
-0.1153280969458174
-0.242524026506957
-0.2006079239870068
-0.02002289604288109
-0.2021193747501608
0.275270635691556
)
;

boundaryField
{
    FrontBack
    {
        type            empty;
    }
    Top
    {
        type            calculated;
        value           uniform 0;
    }
    In
    {
        type            calculated;
        value           uniform -1;
    }
    Bottom
    {
        type            calculated;
        value           uniform 0;
    }
    Out
    {
        type            calculated;
        value           nonuniform List<scalar> 10(1.036647221631146 1.064459465372361 1.022234246730932 1.021058823213824 0.9969786375640318 1.012708155604607 1.033826716344641 1.062814125865799 0.8672318817497071 0.8820399405720157);
    }
    circle
    {
        type            calculated;
        value           uniform 0;
    }
}


// ************************************************************************* //
