/*--------------------------------*- C++ -*----------------------------------*\
| =========                 |                                                 |
| \\      /  F ield         | OpenFOAM: The Open Source CFD Toolbox           |
|  \\    /   O peration     | Version:  2412                                  |
|   \\  /    A nd           | Website:  www.openfoam.com                      |
|    \\/     M anipulation  |                                                 |
\*---------------------------------------------------------------------------*/
FoamFile
{
    version     2.0;
    format      ascii;
    arch        "LSB;label=32;scalar=64";
    class       volVectorField;
    location    "1";
    object      cellDisplacement;
}
// * * * * * * * * * * * * * * * * * * * * * * * * * * * * * * * * * * * * * //

dimensions      [0 1 0 0 0 0 0];

internalField   nonuniform List<vector> 
256
(
(0.0223028 -0.00278345 0)
(0.022593 0.000660032 0)
(0.02131 0.0037232 0)
(0.0186653 0.00581277 0)
(0.0151216 0.0066012 0)
(0.0111621 0.0060848 0)
(0.00716857 0.0045137 0)
(0.00333507 0.00226827 0)
(0.0661929 -0.006981 0)
(0.0667101 0.00265999 0)
(0.0632492 0.0111607 0)
(0.0563479 0.0171437 0)
(0.0470615 0.0198365 0)
(0.0365488 0.0191697 0)
(0.0256882 0.0156224 0)
(0.0149414 0.00994186 0)
(0.108075 -0.00969759 0)
(0.108387 0.0053547 0)
(0.102996 0.0185364 0)
(0.0927617 0.0280164 0)
(0.0791164 0.0327766 0)
(0.0635576 0.0326768 0)
(0.0472798 0.0282558 0)
(0.0308451 0.0203659 0)
(0.148114 -0.010996 0)
(0.147896 0.00881215 0)
(0.140825 0.0260805 0)
(0.128008 0.0387506 0)
(0.111083 0.0456846 0)
(0.0917671 0.0466979 0)
(0.0713718 0.042296 0)
(0.0504806 0.0333224 0)
(0.186453 -0.010869 0)
(0.185502 0.0131476 0)
(0.176957 0.034035 0)
(0.162155 0.0496598 0)
(0.142836 0.058848 0)
(0.120803 0.0613884 0)
(0.09743 0.0577312 0)
(0.0732613 0.0486742 0)
(0.223235 -0.00925445 0)
(0.221404 0.0185144 0)
(0.21165 0.0426754 0)
(0.195334 0.061086 0)
(0.174294 0.0725895 0)
(0.150351 0.0769632 0)
(0.124956 0.0746397 0)
(0.0985499 0.0663614 0)
(0.258593 -0.00602272 0)
(0.255846 0.0251408 0)
(0.245014 0.0522852 0)
(0.227547 0.0733367 0)
(0.205344 0.0872234 0)
(0.180147 0.093699 0)
(0.153467 0.0931821 0)
(0.125722 0.0864278 0)
(0.292704 -0.000961704 0)
(0.288911 0.0332662 0)
(0.277046 0.0631312 0)
(0.258707 0.0867312 0)
(0.235747 0.103061 0)
(0.209873 0.111904 0)
(0.182493 0.113589 0)
(0.154104 0.108996 0)
(0.325595 0.00619815 0)
(0.320584 0.0431739 0)
(0.307761 0.0755654 0)
(0.28874 0.101644 0)
(0.265322 0.120499 0)
(0.239147 0.131918 0)
(0.211534 0.136207 0)
(0.183002 0.134318 0)
(0.357177 0.0157918 0)
(0.350851 0.0552483 0)
(0.337107 0.0900156 0)
(0.317522 0.118542 0)
(0.293812 0.140003 0)
(0.26755 0.154217 0)
(0.240013 0.16147 0)
(0.211637 0.162739 0)
(0.387366 0.0283103 0)
(0.379629 0.0700155 0)
(0.364945 0.107027 0)
(0.344818 0.137981 0)
(0.320857 0.162152 0)
(0.29457 0.179378 0)
(0.26718 0.189911 0)
(0.239081 0.194816 0)
(0.416024 0.0444357 0)
(0.406696 0.0881456 0)
(0.390975 0.12727 0)
(0.370243 0.160668 0)
(0.345945 0.187697 0)
(0.31948 0.208167 0)
(0.292058 0.222314 0)
(0.264094 0.231288 0)
(0.442555 0.0649827 0)
(0.431429 0.110354 0)
(0.414483 0.151475 0)
(0.39297 0.187372 0)
(0.368144 0.217431 0)
(0.341216 0.241462 0)
(0.313264 0.259692 0)
(0.284789 0.273157 0)
(0.465906 0.0907685 0)
(0.452747 0.137492 0)
(0.434318 0.180508 0)
(0.411633 0.218966 0)
(0.385763 0.252291 0)
(0.357715 0.280308 0)
(0.328461 0.303107 0)
(0.298393 0.321566 0)
(0.483907 0.12232 0)
(0.468469 0.16986 0)
(0.448278 0.214423 0)
(0.423973 0.255366 0)
(0.396304 0.292231 0)
(0.36601 0.324759 0)
(0.333814 0.3529 0)
(0.300014 0.377134 0)
(0.491129 0.157447 0)
(0.473331 0.204828 0)
(0.450975 0.250236 0)
(0.424276 0.293235 0)
(0.393491 0.333409 0)
(0.358917 0.370372 0)
(0.320886 0.403769 0)
(0.279764 0.433277 0)
(0.00336572 0.00216887 0)
(0.0061771 0.00423896 0)
(0.00831346 0.00646496 0)
(0.00969797 0.00897724 0)
(0.0102393 0.0118182 0)
(0.00982683 0.0148939 0)
(0.00838898 0.0179487 0)
(0.00596075 0.0205618 0)
(0.0148002 0.00980416 0)
(0.0220265 0.0158742 0)
(0.0271767 0.0224588 0)
(0.0301282 0.029849 0)
(0.0306482 0.0380394 0)
(0.0285084 0.0466729 0)
(0.0236055 0.0549758 0)
(0.0161717 0.061817 0)
(0.0301593 0.020411 0)
(0.0403809 0.0302104 0)
(0.0472235 0.0409248 0)
(0.0505893 0.0528934 0)
(0.0501331 0.0659615 0)
(0.0455477 0.0794256 0)
(0.0368001 0.0920115 0)
(0.0244283 0.102076 0)
(0.0489676 0.0338988 0)
(0.0607934 0.0472 0)
(0.0681034 0.0618271 0)
(0.0708213 0.0780477 0)
(0.068506 0.0954575 0)
(0.0608562 0.112992 0)
(0.0479798 0.128919 0)
(0.0308045 0.14131 0)
(0.0706642 0.0501902 0)
(0.0827944 0.0668106 0)
(0.089418 0.085117 0)
(0.0904993 0.105207 0)
(0.0855478 0.126393 0)
(0.0743189 0.147229 0)
(0.0571458 0.165659 0)
(0.0353016 0.179433 0)
(0.0946726 0.0692621 0)
(0.105863 0.0890221 0)
(0.110747 0.110764 0)
(0.109293 0.134308 0)
(0.10101 0.15864 0)
(0.0857782 0.181997 0)
(0.0642279 0.202129 0)
(0.0379046 0.216477 0)
(0.120361 0.0911378 0)
(0.129501 0.113899 0)
(0.131628 0.138761 0)
(0.126821 0.165275 0)
(0.114615 0.192114 0)
(0.0950688 0.21724 0)
(0.06908 0.238197 0)
(0.0385184 0.252487 0)
(0.147063 0.11593 0)
(0.153117 0.141516 0)
(0.151593 0.169175 0)
(0.142685 0.19814 0)
(0.126029 0.226767 0)
(0.101929 0.252851 0)
(0.0715345 0.273838 0)
(0.0369765 0.287514 0)
(0.174018 0.143811 0)
(0.175985 0.172002 0)
(0.170005 0.202071 0)
(0.156342 0.232868 0)
(0.134818 0.262522 0)
(0.105999 0.288711 0)
(0.0713066 0.309046 0)
(0.0330059 0.321662 0)
(0.200367 0.175083 0)
(0.197295 0.205568 0)
(0.186067 0.237519 0)
(0.167071 0.269433 0)
(0.140376 0.299278 0)
(0.10681 0.324786 0)
(0.0679876 0.343847 0)
(0.0262453 0.354881 0)
(0.225038 0.210179 0)
(0.21602 0.242544 0)
(0.198817 0.27572 0)
(0.17401 0.307906 0)
(0.141956 0.337045 0)
(0.103705 0.361033 0)
(0.0610266 0.3781 0)
(0.0162206 0.386981 0)
(0.246689 0.249759 0)
(0.230804 0.283414 0)
(0.20695 0.316947 0)
(0.175955 0.348366 0)
(0.138499 0.375714 0)
(0.0958093 0.397211 0)
(0.0496825 0.411509 0)
(0.00223736 0.417794 0)
(0.263178 0.294651 0)
(0.239545 0.328683 0)
(0.208515 0.361357 0)
(0.171226 0.390657 0)
(0.128616 0.414947 0)
(0.0819475 0.432908 0)
(0.0328993 0.443656 0)
(-0.0166461 0.446812 0)
(0.271241 0.345759 0)
(0.239004 0.378698 0)
(0.200579 0.408678 0)
(0.157327 0.434048 0)
(0.11026 0.453745 0)
(0.0605696 0.467039 0)
(0.00957703 0.47347 0)
(-0.0413092 0.472996 0)
(0.265466 0.403305 0)
(0.224518 0.432541 0)
(0.179569 0.457045 0)
(0.13166 0.476174 0)
(0.0816453 0.489582 0)
(0.0303404 0.497054 0)
(-0.0213565 0.498515 0)
(-0.0725363 0.494051 0)
(0.235949 0.458612 0)
(0.189861 0.479531 0)
(0.141944 0.495832 0)
(0.0926605 0.507357 0)
(0.0424847 0.513996 0)
(-0.00810036 0.515685 0)
(-0.0586074 0.512408 0)
(-0.10855 0.504196 0)
)
;

boundaryField
{
    walls
    {
        type            cellMotion;
        value           uniform (0 0 0);
    }
    cylinder
    {
        type            cellMotion;
        value           nonuniform List<vector> 
16
(
(0.491129 0.157447 0)
(0.473331 0.204828 0)
(0.450975 0.250236 0)
(0.424276 0.293235 0)
(0.393491 0.333409 0)
(0.358917 0.370372 0)
(0.320886 0.403769 0)
(0.279764 0.433277 0)
(0.235949 0.458612 0)
(0.189861 0.479531 0)
(0.141944 0.495832 0)
(0.0926605 0.507357 0)
(0.0424847 0.513996 0)
(-0.00810036 0.515685 0)
(-0.0586074 0.512408 0)
(-0.10855 0.504196 0)
)
;
    }
    outlet
    {
        type            cellMotion;
        value           uniform (0 0 0);
    }
    inlet
    {
        type            cellMotion;
        value           nonuniform List<vector> 0();
    }
    frontAndBack
    {
        type            empty;
    }
    procBoundary1to0
    {
        type            processor;
        value           nonuniform List<vector> 
16
(
(0.0205773 -0.00595403 0)
(0.0618629 -0.0161487 0)
(0.102149 -0.0243888 0)
(0.141405 -0.0307479 0)
(0.179545 -0.0352296 0)
(0.216601 -0.0378193 0)
(0.252615 -0.0384235 0)
(0.28764 -0.0368761 0)
(0.32178 -0.0329054 0)
(0.354985 -0.0261505 0)
(0.387067 -0.0161374 0)
(0.417858 -0.00216991 0)
(0.446853 0.0166944 0)
(0.473016 0.0413375 0)
(0.494056 0.0725468 0)
(0.504196 0.10855 0)
)
;
    }
    procBoundary1to3
    {
        type            processor;
        value           nonuniform List<vector> 
16
(
(0.00279218 0.0222874 0)
(0.00700907 0.0661486 0)
(0.00974473 0.108006 0)
(0.0110611 0.148026 0)
(0.0109498 0.186351 0)
(0.00934761 0.223125 0)
(0.00612415 0.258482 0)
(0.00106616 0.292596 0)
(-0.00609612 0.325496 0)
(-0.0156981 0.357092 0)
(-0.0282302 0.387298 0)
(-0.0443735 0.415975 0)
(-0.0649397 0.442525 0)
(-0.0907448 0.465891 0)
(-0.122312 0.483903 0)
(-0.157447 0.491129 0)
)
;
    }
}


// ************************************************************************* //
