/*--------------------------------*- C++ -*----------------------------------*\
| =========                 |                                                 |
| \\      /  F ield         | OpenFOAM: The Open Source CFD Toolbox           |
|  \\    /   O peration     | Version:  2412                                  |
|   \\  /    A nd           | Website:  www.openfoam.com                      |
|    \\/     M anipulation  |                                                 |
\*---------------------------------------------------------------------------*/
FoamFile
{
    version     2.0;
    format      ascii;
    arch        "LSB;label=32;scalar=64";
    class       surfaceScalarField;
    location    "1";
    object      meshPhi;
}
// * * * * * * * * * * * * * * * * * * * * * * * * * * * * * * * * * * * * * //

dimensions      [0 3 -1 0 0 0 0];

internalField   nonuniform List<scalar> 
480
(
0.000342029
-0.00147698
0.000360614
-0.00115806
0.000385251
-0.000755903
0.000377019
-0.000403337
0.000308732
-0.000186311
0.00022944
-6.70694e-05
0.000133975
1.47515e-05
3.619e-05
5.52945e-05
0.000990161
-0.00263162
0.00104377
-0.00205156
0.00113395
-0.00134509
0.00111827
-0.00073328
0.00092191
-0.000362028
0.00070643
-0.000151039
0.000428101
-1.57725e-05
-7.7356e-06
0.000202655
0.00157904
-0.00351837
0.00165801
-0.00272168
0.00185092
-0.00177759
0.0018432
-0.000986695
0.00151782
-0.000535834
0.00120812
-0.000260143
0.000773928
-8.38499e-05
-0.000102301
0.000432401
0.00212686
-0.00413091
0.00220543
-0.00316745
0.00242723
-0.00213142
0.00242343
-0.0013214
0.00206594
-0.000789889
0.00171677
-0.000397869
0.00117224
-0.000176064
-0.000217642
0.00075653
0.00265314
-0.00454561
0.00270189
-0.00348553
0.00274491
-0.00246316
0.00271513
-0.00168343
0.00254059
-0.00103975
0.00221533
-0.000526439
0.00162502
-0.000276474
-0.00032768
0.00118372
0.00317407
-0.00475548
0.00319767
-0.00364319
0.00305913
-0.00260969
0.00299316
-0.00178513
0.00299878
-0.00109293
0.00271208
-0.000589155
0.0021336
-0.000354304
-0.000410272
0.0017193
0.00370461
-0.0047759
0.00372609
-0.00362911
0.00360619
-0.00255906
0.00353928
-0.00169108
0.00352094
-0.00102778
0.00324061
-0.000589842
0.00270658
-0.000385601
-0.00045067
0.0023649
0.00425404
-0.00462135
0.00427696
-0.00346375
0.00424112
-0.00240411
0.00419508
-0.00155659
0.00410509
-0.000934684
0.00383649
-0.000543079
0.00337257
-0.000365722
-0.000435461
0.00314205
0.00482084
-0.00428828
0.00483877
-0.00315648
0.00484162
-0.00215344
0.00481709
-0.00136768
0.00473077
-0.000800641
0.00451576
-0.000455123
0.00416488
-0.000302989
-0.000373119
0.0040781
0.0054086
-0.00385205
0.00541165
-0.00277847
0.00543196
-0.00184863
0.00544338
-0.00113397
0.00541003
-0.00063334
0.00529829
-0.00033224
0.00511528
-0.000202494
-0.000275782
0.0051999
0.00601804
-0.00333722
0.00600667
-0.00235655
0.00604844
-0.00151511
0.00611413
-0.000880094
0.00617635
-0.000443365
0.00622076
-0.000188801
0.00625474
-8.96011e-05
-0.000177094
0.00654184
0.00665706
-0.00267253
0.00664802
-0.00186461
0.00672944
-0.0011533
0.00687949
-0.000617664
0.00707737
-0.000257515
0.00730997
-5.58186e-05
0.0075906
5.87344e-06
-9.01911e-05
0.00809607
0.00729909
-0.00182937
0.00732827
-0.00125212
0.00748117
-0.00072916
0.00775345
-0.000326852
0.00811268
-6.30855e-05
0.00854938
7.83059e-05
0.00907106
0.000110906
3.28864e-05
0.00977845
0.00787628
-0.000885785
0.00798547
-0.000540716
0.00824325
-0.00022556
0.00865442
2.01562e-05
0.00918406
0.00018353
0.0098237
0.000274735
0.0105618
0.00030188
0.000264613
0.0114418
0.00830107
-1.88591e-05
0.00851118
0.000125312
0.00888909
0.000256919
0.00942648
0.00036328
0.010103
0.000443676
0.0109039
0.000500218
0.0118015
0.000533146
0.000542693
0.0127749
0.00765579
0.00796604
0.00841853
0.00899304
0.0096701
0.0104255
0.0112268
0.0120302
4.1711e-05
-0.000294333
7.13043e-05
-0.000510978
0.000112334
-0.000817987
0.000156725
-0.0010896
0.000197626
-0.00129758
0.000237603
-0.00141301
0.000279689
-0.00141818
-0.00130272
0.000174577
-0.000781637
0.000266454
-0.00118382
0.000375795
-0.00171358
0.000496594
-0.0021505
0.000613259
-0.00246798
0.000723515
-0.00262556
0.000838271
-0.00258344
-0.00233294
0.000410247
-0.00142913
0.000557564
-0.00197567
0.000714831
-0.00263743
0.000891162
-0.00316601
0.00106549
-0.00353237
0.00122719
-0.00367821
0.00139552
-0.00355227
-0.00315127
0.00074946
-0.00215758
0.00095075
-0.0028084
0.00114468
-0.00354936
0.0013532
-0.00410068
0.00156205
-0.00443698
0.00175638
-0.0045137
0.00195921
-0.00427411
-0.0037236
0.00119752
-0.00293135
0.00145268
-0.00365216
0.00167555
-0.00441224
0.00189419
-0.00493799
0.00211103
-0.00520057
0.00232049
-0.00517343
0.00253673
-0.00480993
-0.00411903
0.00175732
-0.00367728
0.00206071
-0.00442612
0.00231001
-0.0051689
0.00252206
-0.00563689
0.00271715
-0.00577871
0.00291767
-0.00560466
0.00312444
-0.0051075
-0.0043094
0.00242932
-0.00435393
0.00277294
-0.0050974
0.00304038
-0.00577525
0.00323869
-0.0061553
0.00339324
-0.00617255
0.00355025
-0.00584605
0.00371759
-0.00521255
-0.00432433
0.00322121
-0.00493112
0.00357684
-0.00560844
0.00385195
-0.0061697
0.00403716
-0.00644708
0.00414287
-0.00635277
0.00422252
-0.00589468
0.00431958
-0.0051391
-0.00418176
0.00413717
-0.00537039
0.0044601
-0.00592421
0.00471295
-0.00630276
0.00488083
-0.0064379
0.00494089
-0.00625497
0.00493139
-0.00572444
0.00494368
-0.00489796
-0.00389797
0.00520224
-0.00564278
0.00543331
-0.00603048
0.00560766
-0.006178
0.00572535
-0.00612971
0.00574212
-0.00586504
0.00566708
-0.00533021
0.00560246
-0.00451691
-0.00353598
0.00644747
-0.00570922
0.00653202
-0.00592443
0.00655784
-0.00583882
0.00655182
-0.0055803
0.00650089
-0.00519954
0.0063864
-0.00466331
0.00626956
-0.00393266
-0.00307031
0.00787279
-0.00544716
0.00776425
-0.00550759
0.00758173
-0.00522039
0.00738979
-0.0047845
0.00722049
-0.0042871
0.00705727
-0.00374239
0.00690773
-0.0031218
-0.00243208
0.00940242
-0.00466662
0.00906171
-0.00460155
0.00865069
-0.00419987
0.00825034
-0.00369132
0.00792416
-0.00316532
0.00767651
-0.00265981
0.00749054
-0.00215948
-0.00165366
0.0108917
-0.00324278
0.0103041
-0.00312846
0.00965853
-0.00275118
0.0090588
-0.00231431
0.00857798
-0.00189124
0.00822886
-0.00151119
0.00799912
-0.00116581
-0.000841174
0.012008
-0.00124181
0.0111629
-0.00114371
0.0103265
-0.000953639
0.009595
-0.000747248
0.00901681
-0.000551789
0.00860344
-0.000376415
0.00835069
-0.00021719
-6.86425e-05
0.0110247
0.0100635
0.0092204
0.00853181
0.00801424
0.0076718
0.00750294
)
;

boundaryField
{
    walls
    {
        type            calculated;
        value           uniform 0;
    }
    cylinder
    {
        type            calculated;
        value           nonuniform List<scalar> 
16
(
1.7026e-12
-2.0897e-12
-6.92476e-13
1.26247e-12
-3.55262e-12
2.57483e-12
3.98697e-12
-2.01752e-12
2.0182e-12
-3.98439e-12
-2.57325e-12
3.55304e-12
-1.26102e-12
6.94056e-13
2.09138e-12
-1.70164e-12
)
;
    }
    outlet
    {
        type            calculated;
        value           uniform 0;
    }
    inlet
    {
        type            calculated;
        value           nonuniform List<scalar> 0();
    }
    frontAndBack
    {
        type            empty;
    }
    procBoundary1to0
    {
        type            processor;
        value           nonuniform List<scalar> 
16
(
-0.000300949
-0.000886022
-0.00144437
-0.00199023
-0.00253544
-0.00308613
-0.00364617
-0.00422375
-0.00482514
-0.00545654
-0.00610916
-0.0067659
-0.00738791
-0.00791578
-0.00826572
-0.00750201
)
;
    }
    procBoundary1to3
    {
        type            processor;
        value           nonuniform List<scalar> 
16
(
0.000332331
0.000979006
0.00159365
0.0021857
0.00276286
0.00332846
0.00388604
0.00444559
0.00501662
0.00560926
0.00621543
0.00681984
0.0073922
0.00789618
0.00825868
0.00750261
)
;
    }
}


// ************************************************************************* //
