/*--------------------------------*- C++ -*----------------------------------*\
| =========                 |                                                 |
| \\      /  F ield         | OpenFOAM: The Open Source CFD Toolbox           |
|  \\    /   O peration     | Version:  2412                                  |
|   \\  /    A nd           | Website:  www.openfoam.com                      |
|    \\/     M anipulation  |                                                 |
\*---------------------------------------------------------------------------*/
FoamFile
{
    version     2.0;
    format      ascii;
    arch        "LSB;label=32;scalar=64";
    class       pointVectorField;
    location    "1";
    object      pointDisplacement;
}
// * * * * * * * * * * * * * * * * * * * * * * * * * * * * * * * * * * * * * //

dimensions      [0 1 0 0 0 0 0];

internalField   nonuniform List<vector> 
578
(
(0 0 0)
(0 0 0)
(0 0 0)
(0 0 0)
(0 0 0)
(0 0 0)
(0 0 0)
(0 0 0)
(0 0 0)
(0.0427724 -0.00799705 0)
(0.0445083 -0.00162785 0)
(0.0435359 0.00455263 0)
(0.0399624 0.0094787 0)
(0.0343546 0.0123765 0)
(0.0275067 0.0129493 0)
(0.020149 0.0113619 0)
(0.0127645 0.00808131 0)
(0.00888409 0.00589528 0)
(0.0846109 -0.0143292 0)
(0.0873966 -0.00217768 0)
(0.0853984 0.00943129 0)
(0.078901 0.0187307 0)
(0.0688766 0.024468 0)
(0.0566124 0.0261419 0)
(0.0432931 0.0239537 0)
(0.0296985 0.0185599 0)
(0.0223985 0.0149362 0)
(0.124979 -0.0189764 0)
(0.12817 -0.00163788 0)
(0.125082 0.0147015 0)
(0.116203 0.0278611 0)
(0.102794 0.0363292 0)
(0.0864268 0.0394855 0)
(0.0685303 0.0375088 0)
(0.0500275 0.0310871 0)
(0.0397826 0.0267696 0)
(0.163923 -0.0219727 0)
(0.167039 2.27621e-05 0)
(0.162844 0.0205266 0)
(0.152035 0.0371458 0)
(0.136069 0.0482558 0)
(0.11667 0.0531801 0)
(0.0953863 0.0520579 0)
(0.073186 0.0455417 0)
(0.0604885 0.0412631 0)
(0.201501 -0.0232988 0)
(0.204192 0.00288826 0)
(0.198922 0.0271027 0)
(0.186568 0.046878 0)
(0.1687 0.0605643 0)
(0.147118 0.0674713 0)
(0.123432 0.0677107 0)
(0.0986096 0.0618915 0)
(0.083924 0.0583405 0)
(0.237802 -0.02288 0)
(0.239809 0.00710179 0)
(0.233517 0.0346651 0)
(0.219925 0.0573595 0)
(0.200671 0.073576 0)
(0.177579 0.0826412 0)
(0.152277 0.0846504 0)
(0.125738 0.0801932 0)
(0.10947 0.0779969 0)
(0.272927 -0.0205661 0)
(0.274049 0.012866 0)
(0.266738 0.0434681 0)
(0.252113 0.0688843 0)
(0.231874 0.0876037 0)
(0.20782 0.0989925 0)
(0.181541 0.103121 0)
(0.154011 0.100587 0)
(0.136475 0.100307 0)
(0.306966 -0.0161269 0)
(0.306981 0.020432 0)
(0.298605 0.053797 0)
(0.283094 0.0817804 0)
(0.262163 0.102998 0)
(0.23756 0.116864 0)
(0.210804 0.12343 0)
(0.182844 0.123311 0)
(0.16424 0.125435 0)
(0.339918 -0.00925311 0)
(0.33858 0.0301175 0)
(0.329101 0.0660136 0)
(0.312809 0.0964532 0)
(0.291379 0.120184 0)
(0.266492 0.136675 0)
(0.239599 0.145975 0)
(0.2116 0.148711 0)
(0.191991 0.15365 0)
(0.371679 0.000470112 0)
(0.36878 0.0423568 0)
(0.358155 0.0805889 0)
(0.341121 0.113402 0)
(0.319278 0.13968 0)
(0.294227 0.15895 0)
(0.267362 0.171262 0)
(0.239523 0.177254 0)
(0.218815 0.185361 0)
(0.402106 0.013629 0)
(0.39745 0.0577428 0)
(0.38558 0.0981262 0)
(0.367764 0.133245 0)
(0.345488 0.162131 0)
(0.320238 0.184357 0)
(0.29335 0.199954 0)
(0.26564 0.209592 0)
(0.243567 0.221167 0)
(0.430846 0.0310082 0)
(0.424193 0.0769964 0)
(0.41091 0.119322 0)
(0.392183 0.156702 0)
(0.369343 0.188294 0)
(0.343717 0.213691 0)
(0.316528 0.232912 0)
(0.288581 0.246609 0)
(0.264595 0.261877 0)
(0.457101 0.0534721 0)
(0.448172 0.100917 0)
(0.433255 0.144967 0)
(0.413363 0.184583 0)
(0.389642 0.219012 0)
(0.363228 0.247867 0)
(0.335185 0.271133 0)
(0.306254 0.28936 0)
(0.279381 0.308468 0)
(0.479235 0.0817778 0)
(0.467766 0.130133 0)
(0.45096 0.175583 0)
(0.429559 0.217318 0)
(0.404431 0.254707 0)
(0.376465 0.287383 0)
(0.346523 0.315247 0)
(0.315201 0.338641 0)
(0.283829 0.361687 0)
(0.493332 0.115284 0)
(0.479214 0.163668 0)
(0.460266 0.20988 0)
(0.436879 0.253349 0)
(0.409517 0.29359 0)
(0.37869 0.330223 0)
(0.344918 0.362986 0)
(0.308631 0.391818 0)
(0.270323 0.418077 0)
(0.498864 0.13332 0)
(0.483394 0.181575 0)
(0.463269 0.228081 0)
(0.438682 0.272391 0)
(0.409871 0.314078 0)
(0.377112 0.35274 0)
(0.340722 0.388005 0)
(0.30105 0.419533 0)
(0.258479 0.447021 0)
(0 0 0)
(0 0 0)
(0 0 0)
(0 0 0)
(0 0 0)
(0 0 0)
(0 0 0)
(0 0 0)
(0 0 0)
(0.0427724 -0.00799705 0)
(0.0445083 -0.00162785 0)
(0.0435359 0.00455263 0)
(0.0399624 0.0094787 0)
(0.0343546 0.0123765 0)
(0.0275067 0.0129493 0)
(0.020149 0.0113619 0)
(0.0127645 0.00808131 0)
(0.00888409 0.00589528 0)
(0.0846109 -0.0143292 0)
(0.0873966 -0.00217768 0)
(0.0853984 0.00943129 0)
(0.078901 0.0187307 0)
(0.0688766 0.024468 0)
(0.0566124 0.0261419 0)
(0.0432931 0.0239537 0)
(0.0296985 0.0185599 0)
(0.0223985 0.0149362 0)
(0.124979 -0.0189764 0)
(0.12817 -0.00163788 0)
(0.125082 0.0147015 0)
(0.116203 0.0278611 0)
(0.102794 0.0363292 0)
(0.0864268 0.0394855 0)
(0.0685303 0.0375088 0)
(0.0500275 0.0310871 0)
(0.0397826 0.0267696 0)
(0.163923 -0.0219727 0)
(0.167039 2.27621e-05 0)
(0.162844 0.0205266 0)
(0.152035 0.0371458 0)
(0.136069 0.0482558 0)
(0.11667 0.0531801 0)
(0.0953863 0.0520579 0)
(0.073186 0.0455417 0)
(0.0604885 0.0412631 0)
(0.201501 -0.0232988 0)
(0.204192 0.00288826 0)
(0.198922 0.0271027 0)
(0.186568 0.046878 0)
(0.1687 0.0605643 0)
(0.147118 0.0674713 0)
(0.123432 0.0677107 0)
(0.0986096 0.0618915 0)
(0.083924 0.0583405 0)
(0.237802 -0.02288 0)
(0.239809 0.00710179 0)
(0.233517 0.0346651 0)
(0.219925 0.0573595 0)
(0.200671 0.073576 0)
(0.177579 0.0826412 0)
(0.152277 0.0846504 0)
(0.125738 0.0801932 0)
(0.10947 0.0779969 0)
(0.272927 -0.0205661 0)
(0.274049 0.012866 0)
(0.266738 0.0434681 0)
(0.252113 0.0688843 0)
(0.231874 0.0876037 0)
(0.20782 0.0989925 0)
(0.181541 0.103121 0)
(0.154011 0.100587 0)
(0.136475 0.100307 0)
(0.306966 -0.0161269 0)
(0.306981 0.020432 0)
(0.298605 0.053797 0)
(0.283094 0.0817804 0)
(0.262163 0.102998 0)
(0.23756 0.116864 0)
(0.210804 0.12343 0)
(0.182844 0.123311 0)
(0.16424 0.125435 0)
(0.339918 -0.00925311 0)
(0.33858 0.0301175 0)
(0.329101 0.0660136 0)
(0.312809 0.0964532 0)
(0.291379 0.120184 0)
(0.266492 0.136675 0)
(0.239599 0.145975 0)
(0.2116 0.148711 0)
(0.191991 0.15365 0)
(0.371679 0.000470112 0)
(0.36878 0.0423568 0)
(0.358155 0.0805889 0)
(0.341121 0.113402 0)
(0.319278 0.13968 0)
(0.294227 0.15895 0)
(0.267362 0.171262 0)
(0.239523 0.177254 0)
(0.218815 0.185361 0)
(0.402106 0.013629 0)
(0.39745 0.0577428 0)
(0.38558 0.0981262 0)
(0.367764 0.133245 0)
(0.345488 0.162131 0)
(0.320238 0.184357 0)
(0.29335 0.199954 0)
(0.26564 0.209592 0)
(0.243567 0.221167 0)
(0.430846 0.0310082 0)
(0.424193 0.0769964 0)
(0.41091 0.119322 0)
(0.392183 0.156702 0)
(0.369343 0.188294 0)
(0.343717 0.213691 0)
(0.316528 0.232912 0)
(0.288581 0.246609 0)
(0.264595 0.261877 0)
(0.457101 0.0534721 0)
(0.448172 0.100917 0)
(0.433255 0.144967 0)
(0.413363 0.184583 0)
(0.389642 0.219012 0)
(0.363228 0.247867 0)
(0.335185 0.271133 0)
(0.306254 0.28936 0)
(0.279381 0.308468 0)
(0.479235 0.0817778 0)
(0.467766 0.130133 0)
(0.45096 0.175583 0)
(0.429559 0.217318 0)
(0.404431 0.254707 0)
(0.376465 0.287383 0)
(0.346523 0.315247 0)
(0.315201 0.338641 0)
(0.283829 0.361687 0)
(0.493332 0.115284 0)
(0.479214 0.163668 0)
(0.460266 0.20988 0)
(0.436879 0.253349 0)
(0.409517 0.29359 0)
(0.37869 0.330223 0)
(0.344918 0.362986 0)
(0.308631 0.391818 0)
(0.270323 0.418077 0)
(0.498864 0.13332 0)
(0.483394 0.181575 0)
(0.463269 0.228081 0)
(0.438682 0.272391 0)
(0.409871 0.314078 0)
(0.377112 0.35274 0)
(0.340722 0.388005 0)
(0.30105 0.419533 0)
(0.258479 0.447021 0)
(0 0 0)
(0 0 0)
(0 0 0)
(0 0 0)
(0 0 0)
(0 0 0)
(0 0 0)
(0 0 0)
(0.0115683 0.00799583 0)
(0.0159178 0.0122377 0)
(0.0188375 0.0169187 0)
(0.020198 0.0221556 0)
(0.0198341 0.0278468 0)
(0.017617 0.0336244 0)
(0.0135677 0.0388439 0)
(0.00801367 0.0427421 0)
(0.026836 0.0190563 0)
(0.0342097 0.0273517 0)
(0.0387964 0.0365177 0)
(0.0403994 0.0466753 0)
(0.0387403 0.0575211 0)
(0.0336499 0.0682791 0)
(0.0252845 0.0777434 0)
(0.0143636 0.0845529 0)
(0.045084 0.0329157 0)
(0.0541435 0.0450298 0)
(0.0592082 0.0584136 0)
(0.0600414 0.0730843 0)
(0.0562936 0.0884612 0)
(0.0478294 0.103351 0)
(0.0350319 0.116107 0)
(0.0190286 0.124897 0)
(0.0658245 0.0495127 0)
(0.0753037 0.0652314 0)
(0.0797399 0.082544 0)
(0.0788759 0.101275 0)
(0.0723408 0.120526 0)
(0.0601061 0.13872 0)
(0.0428314 0.153864 0)
(0.0220414 0.163823 0)
(0.0885268 0.06881 0)
(0.0972383 0.0879241 0)
(0.100023 0.108847 0)
(0.0966223 0.131141 0)
(0.0866968 0.153579 0)
(0.0703949 0.174279 0)
(0.0486623 0.190962 0)
(0.0233817 0.20139 0)
(0.112634 0.0908189 0)
(0.119472 0.11311 0)
(0.119659 0.137279 0)
(0.11297 0.162594 0)
(0.0991492 0.187518 0)
(0.0785613 0.209922 0)
(0.0524437 0.227362 0)
(0.0229738 0.237684 0)
(0.13755 0.11561 0)
(0.141501 0.14084 0)
(0.138221 0.167845 0)
(0.127573 0.19559 0)
(0.109438 0.22227 0)
(0.0844201 0.245568 0)
(0.0540321 0.263049 0)
(0.0206664 0.272809 0)
(0.16259 0.143305 0)
(0.162718 0.171197 0)
(0.155196 0.200577 0)
(0.140002 0.230098 0)
(0.117217 0.257746 0)
(0.0877031 0.281151 0)
(0.0532047 0.298055 0)
(0.0162288 0.306853 0)
(0.186963 0.174108 0)
(0.182381 0.204301 0)
(0.169909 0.235494 0)
(0.14968 0.266056 0)
(0.122017 0.293863 0)
(0.0880296 0.316639 0)
(0.0496292 0.332398 0)
(0.0093509 0.339817 0)
(0.209728 0.208338 0)
(0.199592 0.240355 0)
(0.181525 0.272673 0)
(0.155875 0.303454 0)
(0.12322 0.330579 0)
(0.0848782 0.351984 0)
(0.0428569 0.36599 0)
(-0.000382147 0.371594 0)
(0.229685 0.246473 0)
(0.213186 0.279682 0)
(0.188961 0.312272 0)
(0.157618 0.342303 0)
(0.119991 0.367798 0)
(0.077543 0.387007 0)
(0.0322728 0.398631 0)
(-0.0135558 0.402039 0)
(0.245098 0.289133 0)
(0.221484 0.322637 0)
(0.190678 0.35438 0)
(0.153574 0.382474 0)
(0.111204 0.405246 0)
(0.065062 0.421364 0)
(0.017018 0.429975 0)
(-0.030953 0.430799 0)
(0.253278 0.336967 0)
(0.221926 0.369407 0)
(0.184408 0.398747 0)
(0.141837 0.42341 0)
(0.0953166 0.442212 0)
(0.0462127 0.454308 0)
(-0.00390278 0.459262 0)
(-0.0534364 0.457075 0)
(0.250067 0.390127 0)
(0.210895 0.419322 0)
(0.167242 0.444066 0)
(0.120169 0.463456 0)
(0.0706464 0.476907 0)
(0.0197286 0.484055 0)
(-0.0314519 0.484781 0)
(-0.0817603 0.479224 0)
(0.228833 0.443675 0)
(0.183834 0.46639 0)
(0.136319 0.484218 0)
(0.0869812 0.49686 0)
(0.0364745 0.504135 0)
(-0.0145325 0.50595 0)
(-0.0653469 0.502312 0)
(-0.11528 0.493329 0)
(0.213418 0.470204 0)
(0.166303 0.488858 0)
(0.117585 0.502805 0)
(0.0677357 0.511909 0)
(0.0172336 0.516083 0)
(-0.0334344 0.515287 0)
(-0.0837804 0.509529 0)
(-0.13332 0.498864 0)
(0 0 0)
(0 0 0)
(0 0 0)
(0 0 0)
(0 0 0)
(0 0 0)
(0 0 0)
(0 0 0)
(0.0115683 0.00799583 0)
(0.0159178 0.0122377 0)
(0.0188375 0.0169187 0)
(0.020198 0.0221556 0)
(0.0198341 0.0278468 0)
(0.017617 0.0336244 0)
(0.0135677 0.0388439 0)
(0.00801367 0.0427421 0)
(0.026836 0.0190563 0)
(0.0342097 0.0273517 0)
(0.0387964 0.0365177 0)
(0.0403994 0.0466753 0)
(0.0387403 0.0575211 0)
(0.0336499 0.0682791 0)
(0.0252845 0.0777434 0)
(0.0143636 0.0845529 0)
(0.045084 0.0329157 0)
(0.0541435 0.0450298 0)
(0.0592082 0.0584136 0)
(0.0600414 0.0730843 0)
(0.0562936 0.0884612 0)
(0.0478294 0.103351 0)
(0.0350319 0.116107 0)
(0.0190286 0.124897 0)
(0.0658245 0.0495127 0)
(0.0753037 0.0652314 0)
(0.0797399 0.082544 0)
(0.0788759 0.101275 0)
(0.0723408 0.120526 0)
(0.0601061 0.13872 0)
(0.0428314 0.153864 0)
(0.0220414 0.163823 0)
(0.0885268 0.06881 0)
(0.0972383 0.0879241 0)
(0.100023 0.108847 0)
(0.0966223 0.131141 0)
(0.0866968 0.153579 0)
(0.0703949 0.174279 0)
(0.0486623 0.190962 0)
(0.0233817 0.20139 0)
(0.112634 0.0908189 0)
(0.119472 0.11311 0)
(0.119659 0.137279 0)
(0.11297 0.162594 0)
(0.0991492 0.187518 0)
(0.0785613 0.209922 0)
(0.0524437 0.227362 0)
(0.0229738 0.237684 0)
(0.13755 0.11561 0)
(0.141501 0.14084 0)
(0.138221 0.167845 0)
(0.127573 0.19559 0)
(0.109438 0.22227 0)
(0.0844201 0.245568 0)
(0.0540321 0.263049 0)
(0.0206664 0.272809 0)
(0.16259 0.143305 0)
(0.162718 0.171197 0)
(0.155196 0.200577 0)
(0.140002 0.230098 0)
(0.117217 0.257746 0)
(0.0877031 0.281151 0)
(0.0532047 0.298055 0)
(0.0162288 0.306853 0)
(0.186963 0.174108 0)
(0.182381 0.204301 0)
(0.169909 0.235494 0)
(0.14968 0.266056 0)
(0.122017 0.293863 0)
(0.0880296 0.316639 0)
(0.0496292 0.332398 0)
(0.0093509 0.339817 0)
(0.209728 0.208338 0)
(0.199592 0.240355 0)
(0.181525 0.272673 0)
(0.155875 0.303454 0)
(0.12322 0.330579 0)
(0.0848782 0.351984 0)
(0.0428569 0.36599 0)
(-0.000382147 0.371594 0)
(0.229685 0.246473 0)
(0.213186 0.279682 0)
(0.188961 0.312272 0)
(0.157618 0.342303 0)
(0.119991 0.367798 0)
(0.077543 0.387007 0)
(0.0322728 0.398631 0)
(-0.0135558 0.402039 0)
(0.245098 0.289133 0)
(0.221484 0.322637 0)
(0.190678 0.35438 0)
(0.153574 0.382474 0)
(0.111204 0.405246 0)
(0.065062 0.421364 0)
(0.017018 0.429975 0)
(-0.030953 0.430799 0)
(0.253278 0.336967 0)
(0.221926 0.369407 0)
(0.184408 0.398747 0)
(0.141837 0.42341 0)
(0.0953166 0.442212 0)
(0.0462127 0.454308 0)
(-0.00390278 0.459262 0)
(-0.0534364 0.457075 0)
(0.250067 0.390127 0)
(0.210895 0.419322 0)
(0.167242 0.444066 0)
(0.120169 0.463456 0)
(0.0706464 0.476907 0)
(0.0197286 0.484055 0)
(-0.0314519 0.484781 0)
(-0.0817603 0.479224 0)
(0.228833 0.443675 0)
(0.183834 0.46639 0)
(0.136319 0.484218 0)
(0.0869812 0.49686 0)
(0.0364745 0.504135 0)
(-0.0145325 0.50595 0)
(-0.0653469 0.502312 0)
(-0.11528 0.493329 0)
(0.213418 0.470204 0)
(0.166303 0.488858 0)
(0.117585 0.502805 0)
(0.0677357 0.511909 0)
(0.0172336 0.516083 0)
(-0.0334344 0.515287 0)
(-0.0837804 0.509529 0)
(-0.13332 0.498864 0)
)
;

boundaryField
{
    walls
    {
        type            fixedValue;
        value           uniform (0 0 0);
    }
    cylinder
    {
        type            solidBodyMotionDisplacement;
        value           nonuniform List<vector> 
34
(
(0.498864 0.13332 0)
(0.498864 0.13332 0)
(0.483394 0.181575 0)
(0.483394 0.181575 0)
(0.463269 0.228081 0)
(0.463269 0.228081 0)
(0.438682 0.272391 0)
(0.438682 0.272391 0)
(0.409871 0.314078 0)
(0.409871 0.314078 0)
(0.377112 0.35274 0)
(0.377112 0.35274 0)
(0.340722 0.388005 0)
(0.340722 0.388005 0)
(0.30105 0.419533 0)
(0.30105 0.419533 0)
(0.258479 0.447021 0)
(0.258479 0.447021 0)
(0.213418 0.470204 0)
(0.213418 0.470204 0)
(0.166303 0.488858 0)
(0.166303 0.488858 0)
(0.117585 0.502805 0)
(0.117585 0.502805 0)
(0.0677357 0.511909 0)
(0.0677357 0.511909 0)
(0.0172336 0.516083 0)
(0.0172336 0.516083 0)
(-0.0334344 0.515287 0)
(-0.0334344 0.515287 0)
(-0.0837804 0.509529 0)
(-0.0837804 0.509529 0)
(-0.13332 0.498864 0)
(-0.13332 0.498864 0)
)
;
        solidBodyMotionFunction oscillatingRotatingMotion;
        oscillatingRotatingMotionCoeffs
        {
            origin          ( 0 0 0 );
            axis            ( 0 0 1 );
            omega           1.5;
            amplitude       ( 0 0 30 );
        }
    }
    outlet
    {
        type            fixedValue;
        value           uniform (0 0 0);
    }
    inlet
    {
        type            fixedValue;
        value           nonuniform List<vector> 0();
    }
    frontAndBack
    {
        type            empty;
    }
    procBoundary1to0
    {
        type            processor;
    }
    procBoundary1to3
    {
        type            processor;
    }
}


// ************************************************************************* //
