/*--------------------------------*- C++ -*----------------------------------*\
| =========                 |                                                 |
| \\      /  F ield         | OpenFOAM: The Open Source CFD Toolbox           |
|  \\    /   O peration     | Version:  2412                                  |
|   \\  /    A nd           | Website:  www.openfoam.com                      |
|    \\/     M anipulation  |                                                 |
\*---------------------------------------------------------------------------*/
FoamFile
{
    version     2.0;
    format      ascii;
    arch        "LSB;label=32;scalar=64";
    class       volScalarField;
    location    "923";
    object      yPlus;
}
// * * * * * * * * * * * * * * * * * * * * * * * * * * * * * * * * * * * * * //

dimensions      [0 0 0 0 0 0 0];

internalField   uniform 0;

boundaryField
{
    FrontBack
    {
        type            empty;
    }
    Top
    {
        type            calculated;
        value           nonuniform List<scalar> 
15
(
142.2887502289332
133.5760031781863
138.0623281014364
144.396708830916
159.7623126169181
131.3667303124456
140.1268814589936
135.3473645366489
153.4549214139504
135.7241116115808
136.0843911821873
136.7751178036628
125.262804957266
132.9124140419673
123.9569479651369
)
;
    }
    In
    {
        type            calculated;
        value           uniform 0;
    }
    Bottom
    {
        type            calculated;
        value           nonuniform List<scalar> 
15
(
155.5679436050796
158.1183736565625
141.0947049244485
142.0501431517527
141.1816499511772
148.4352842832999
142.7072970153284
143.1492810107272
143.421271347458
134.0642734283298
125.729665147812
141.5599276219511
122.4056299977532
123.4853866415596
124.1336968130799
)
;
    }
    Out
    {
        type            calculated;
        value           uniform 0;
    }
    circle
    {
        type            calculated;
        value           nonuniform List<scalar> 
32
(
55.99600394202546
21.90931661034691
65.21874271130481
25.85409868280609
20.24212208076263
56.23691249630271
56.59516207872161
23.75556534505572
22.16392417780071
65.46124137661684
39.77229863584859
62.90487873933422
50.65427860490277
17.64042420803081
22.72056448924248
18.15180015250893
39.35861263153975
59.82959657870434
61.06983097979911
25.29332831242814
65.80039508735307
63.75342798569924
63.10452788165695
59.85924930407176
64.16664866836307
46.02032003617548
66.46673372157559
32.1476122525992
37.91037370272594
55.68410311488158
21.22229290688837
43.08525855157717
)
;
    }
}


// ************************************************************************* //
