/*--------------------------------*- C++ -*----------------------------------*\
| =========                 |                                                 |
| \\      /  F ield         | OpenFOAM: The Open Source CFD Toolbox           |
|  \\    /   O peration     | Version:  2412                                  |
|   \\  /    A nd           | Website:  www.openfoam.com                      |
|    \\/     M anipulation  |                                                 |
\*---------------------------------------------------------------------------*/
FoamFile
{
    version     2.0;
    format      ascii;
    arch        "LSB;label=32;scalar=64";
    class       volVectorField;
    location    "48.8";
    object      U;
}
// * * * * * * * * * * * * * * * * * * * * * * * * * * * * * * * * * * * * * //

dimensions      [0 1 -1 0 0 0 0];

internalField   nonuniform List<vector> 
808
(
(0.896356 -0.0128581 0)
(0.995129 -0.0418436 0)
(1.01435 -0.258789 0)
(1.06608 0.0125479 -2.53843e-21)
(1.49525 -0.232632 0)
(0.937823 -0.0204427 0)
(1.09096 -0.0523324 -8.46528e-21)
(1.13115 -0.0433787 0)
(1.3594 -0.184467 3.15196e-20)
(1.20558 -0.0454354 -5.91096e-21)
(1.19072 0.145306 9.99075e-21)
(1.39871 -0.191496 0)
(0.98625 -0.0411377 0)
(0.716615 -0.0192906 0)
(1.03118 0.0529675 1.46431e-20)
(1.06032 -0.0304296 0)
(0.876507 0.0759834 -5.80577e-21)
(0.950838 -0.0146061 -1.58234e-22)
(1.16455 -0.133621 0)
(1.09527 0.00480624 0)
(1.14687 0.124901 -1.39396e-20)
(0.923906 0.123313 1.1515e-19)
(1.07064 0.00708403 -1.98889e-20)
(1.1591 -0.0250333 0)
(0.960591 0.176815 0)
(1.37222 0.039514 -2.42601e-20)
(1.28029 -0.124786 1.35177e-20)
(1.00055 -0.0279941 -1.09709e-20)
(1.04498 0.00117964 0)
(1.05394 0.0140343 -2.95666e-22)
(0.983743 0.00691657 8.51415e-24)
(1.10552 -0.00479718 0)
(1.07068 0.0560194 0)
(1.09222 -0.0239466 9.25163e-21)
(1.25852 -0.0168652 5.56183e-21)
(0.749955 -0.120906 1.08998e-19)
(0.844493 -0.0298775 -1.92387e-20)
(1.04776 0.0474644 2.33595e-21)
(1.17628 0.0616886 -6.87553e-21)
(1.13158 0.0426281 0)
(1.22071 -0.0407072 -8.72266e-21)
(1.26231 -0.0888043 0)
(1.0023 -0.0225535 -1.3768e-20)
(1.14588 -0.00747554 1.64077e-20)
(1.33774 -0.168015 0)
(1.0088 0.0161168 -2.56705e-20)
(1.00911 0.0354945 4.67144e-21)
(1.25819 -0.207067 2.23471e-20)
(1.16663 0.0556008 -1.49545e-20)
(1.40169 -0.0914641 -4.55322e-20)
(1.08422 -0.0214303 1.5935e-20)
(1.13569 -0.0479031 0)
(1.11035 -0.00214343 1.239e-20)
(1.23054 0.00244729 0)
(1.31736 0.219771 1.68843e-21)
(1.06712 0.0469244 -5.85593e-21)
(1.27196 0.0798856 0)
(1.34264 -0.0151322 1.29997e-21)
(1.21765 -0.0607116 6.34538e-21)
(1.13681 0.0266733 -2.39892e-21)
(-0.00307943 0.146245 0)
(1.21673 -0.187428 -1.11062e-20)
(1.25073 -0.0576254 0)
(1.35556 0.00686304 -2.51843e-20)
(1.17614 -0.0176653 -1.57553e-20)
(1.02965 -0.0295966 -1.37737e-20)
(1.41292 0.0175187 2.74321e-20)
(0.666709 0.0183398 0)
(1.16965 0.0251365 0)
(1.50554 -0.311627 0)
(0.884556 0.0270521 -4.45086e-22)
(1.3677 -0.0817302 -5.49724e-20)
(0.994636 0.0470374 0)
(1.05176 -0.0368607 -7.85353e-21)
(1.13749 -0.323727 -4.91413e-20)
(1.07943 0.00335924 -3.09504e-20)
(1.12383 0.014477 -7.11038e-22)
(1.32299 0.49588 2.47427e-20)
(1.07337 -0.0466062 0)
(1.00477 0.273342 -1.93707e-19)
(1.36268 -0.00669837 1.0905e-20)
(0.749435 0.0112169 0)
(0.855234 0.0195079 -1.94387e-20)
(0.97353 -0.111324 3.98534e-21)
(1.08936 -0.0227889 2.44279e-20)
(1.15285 0.008783 -2.20209e-22)
(1.39233 -0.198291 0)
(1.34031 0.280782 0)
(1.07456 0.00616651 -2.25832e-20)
(1.43678 0.0872418 2.66846e-20)
(1.06755 -0.0125478 1.49045e-20)
(1.30158 -0.0630852 -1.57559e-21)
(0.965532 0.0217016 1.88449e-20)
(1.00312 -0.0266226 0)
(1.10948 0.00552759 2.62481e-21)
(1.30888 0.091575 -5.25248e-20)
(0.782251 0.00916116 -3.70821e-21)
(1.37414 -0.100404 0)
(1.28612 -0.0375559 0)
(1.40135 0.0570636 -4.79511e-20)
(1.07332 -0.0348536 -1.04252e-20)
(1.10144 0.0102941 -2.99277e-22)
(0.938444 0.0208097 1.46896e-20)
(1.14765 -0.0110847 8.35927e-22)
(1.21444 -0.000346843 -1.59344e-21)
(0.999342 -0.00296564 1.94186e-20)
(1.50048 -0.194395 0)
(1.00946 0.304406 0)
(1.08472 0.0311735 1.28814e-20)
(1.21208 -0.191923 -3.6838e-21)
(1.20735 -0.00303396 -4.9478e-22)
(1.03494 0.0355921 -1.26643e-19)
(1.14797 0.0355232 -5.1291e-21)
(1.2187 0.238141 5.61356e-21)
(0.822528 0.0201698 0)
(0.922611 -0.0524026 7.44569e-20)
(1.1328 0.0179361 -1.29321e-20)
(1.49974 -0.198403 -2.331e-20)
(1.13985 -0.0463137 -1.32891e-20)
(0.924617 0.0162909 1.82512e-21)
(-0.175881 0.13631 0)
(0.844387 -0.0193111 1.90902e-21)
(0.789333 0.0233419 0)
(1.05364 0.0038744 -1.07993e-22)
(1.01509 0.0278316 0)
(1.30563 0.313953 3.38636e-21)
(1.03796 -0.0435971 -3.08659e-20)
(1.39089 0.227452 -1.272e-21)
(1.13985 -0.0491419 0)
(1.08805 -0.0193658 0)
(0.851678 0.168698 0)
(1.14998 -0.0342483 -5.75649e-21)
(1.20665 -0.0217995 4.26533e-21)
(1.06903 0.107718 -3.81678e-20)
(0.853539 -0.037561 0)
(1.08743 0.0191605 -3.37987e-21)
(0.901822 0.122275 3.43259e-21)
(1.03143 0.0220116 -6.20833e-21)
(0.987742 0.0323268 8.30367e-21)
(1.10771 0.00990552 2.50882e-22)
(0.00163453 0.0983199 0)
(1.08531 -0.0113051 -1.63202e-20)
(0.837968 -0.232333 2.13763e-21)
(0.706648 0.026632 -7.74975e-21)
(1.25902 0.164305 4.4036e-21)
(1.08526 0.286405 3.23836e-21)
(1.0431 0.0230926 1.81412e-20)
(0.991682 0.0308365 0)
(1.16132 -0.385303 -1.02495e-20)
(1.11854 0.310663 0)
(0.933859 0.0305166 1.62529e-20)
(0.964553 0.275722 1.54558e-19)
(0.962822 0.0351965 0)
(0.823215 0.0924882 0)
(-0.104734 0.131879 -6.67574e-20)
(1.34128 0.123464 -8.23401e-21)
(0.668604 -0.0210646 0)
(1.50413 -0.0024189 0)
(0.934018 -0.0751049 0)
(1.3589 0.0805778 1.00285e-20)
(-0.0644608 -0.129475 0)
(-0.0442646 0.114035 2.97834e-20)
(1.2179 0.0913212 1.14517e-19)
(0.996858 0.0361553 2.71947e-21)
(0.855068 -0.00341649 0)
(1.04618 -0.0522564 1.85646e-20)
(0.878011 0.0212828 0)
(0.961764 0.0868427 -1.23695e-19)
(1.02596 0.048412 2.41936e-20)
(1.17943 -0.0279703 4.80016e-21)
(1.08277 0.0157007 9.7971e-21)
(1.01397 0.0681404 -1.39866e-20)
(0.796157 0.372008 -3.2238e-21)
(1.1441 -0.336861 2.40706e-22)
(0.912499 -0.0123765 0)
(1.06344 0.0103145 -1.44882e-20)
(0.872182 0.00491173 -1.49532e-20)
(1.36077 -0.0959417 2.39221e-21)
(0.671725 0.0206712 0)
(1.18452 -0.107543 0)
(1.15894 -0.065318 7.35245e-21)
(1.38704 0.211189 6.54276e-21)
(1.10113 0.0146464 8.07785e-21)
(1.03386 0.0214424 1.84848e-20)
(0.906832 0.127699 -8.93684e-20)
(0.813488 0.00417059 2.53996e-20)
(1.11998 -0.0226503 1.11702e-20)
(1.28863 0.0214052 -3.2351e-21)
(1.14644 -0.0292544 -8.86421e-21)
(1.24958 -0.00273137 2.77212e-21)
(-0.0913306 0.178293 4.75513e-20)
(1.21679 -0.0149288 0)
(0.617248 -0.0120355 0)
(1.05507 -0.0190248 -6.31929e-21)
(1.08452 0.0119148 1.48283e-20)
(0.0891624 0.141747 0)
(0.881295 -0.0271236 8.80391e-22)
(1.16353 -0.0791043 -3.84173e-21)
(0.975087 0.00180626 1.81858e-21)
(1.07688 0.0308832 -9.24594e-21)
(0.997247 0.0246584 2.1672e-21)
(1.06071 -0.0673183 3.38889e-21)
(1.08181 0.0268012 0)
(0.501169 0.000883435 0)
(1.04973 -0.0694819 0)
(1.16138 0.105667 -2.18871e-20)
(-0.0748279 -0.101587 6.08378e-20)
(1.07547 0.0295604 -2.06579e-23)
(1.04775 -0.187136 0)
(0.745139 0.0261896 -1.57624e-20)
(1.06143 0.30153 7.14811e-22)
(0.0175724 -0.0375492 -2.06916e-19)
(0.923076 0.179052 -4.41796e-20)
(0.634628 -0.0189539 0)
(0.939189 0.237784 0)
(0.917749 0.0124162 1.50257e-20)
(1.1653 -0.0588572 8.15401e-21)
(1.27519 0.394088 -7.15482e-21)
(1.10627 0.105389 4.66404e-22)
(1.29836 -0.0957919 -1.43859e-22)
(0.958664 0.297675 0)
(1.35792 0.42011 -2.43472e-20)
(0.652452 -0.0135585 0)
(0.802424 -0.0166161 -5.56525e-21)
(1.10628 -0.0288897 4.60176e-22)
(0.608669 0.0106656 0)
(1.10006 -0.00667871 0)
(0.208162 0.419899 -3.81526e-20)
(1.29943 -0.28382 6.40187e-21)
(0.752372 -0.0139127 5.11731e-21)
(0.989742 -0.00576268 0)
(0.560418 -0.0107787 0)
(0.7652 -0.0132293 -5.37149e-21)
(0.564792 -0.0165072 -1.03358e-21)
(1.3614 -0.0142121 2.12594e-22)
(1.21499 -0.0449816 2.00474e-21)
(0.725689 0.016279 -2.77325e-21)
(1.23991 -0.0176646 1.86044e-22)
(1.17289 -0.0299456 -4.39434e-22)
(0.554544 0.0122354 7.46119e-21)
(1.3246 -0.0389854 -1.00757e-21)
(1.21596 -0.143012 0)
(0.974766 0.0816707 0)
(0.507949 0.0158218 0)
(1.09812 -0.0273681 0)
(1.1324 -0.0806899 -3.48277e-21)
(1.09275 -0.155765 0)
(1.2184 -0.0748244 0)
(0.927748 -0.115449 0)
(1.03156 0.185671 0)
(-0.0395889 -0.0789002 6.41031e-20)
(1.05341 -0.0674144 2.3898e-21)
(0.864232 0.0110332 0)
(1.2069 -0.0167652 -3.86008e-21)
(1.08893 0.0221014 3.45774e-21)
(1.11557 0.0440323 5.90009e-21)
(1.0601 -0.138305 6.54394e-21)
(0.969835 -0.139964 0)
(0.570262 -0.0123403 1.11827e-20)
(1.05084 0.0413938 1.36035e-20)
(1.25294 -0.255678 0)
(1.16057 0.161861 6.43036e-23)
(1.16998 0.118301 6.34709e-21)
(0.852308 0.171843 1.97382e-20)
(1.18993 -0.0187904 8.66563e-21)
(1.04154 0.148988 -9.55439e-21)
(1.15715 0.230964 0)
(1.1043 0.168489 -2.00608e-20)
(1.25786 0.245505 1.70691e-21)
(0.760016 -0.133362 2.33261e-21)
(0.908871 -0.223791 0)
(0.00425841 -0.0221597 0)
(0.965642 0.10836 -1.82699e-20)
(1.11408 0.0559036 0)
(1.23574 -0.161371 1.33717e-20)
(1.28534 0.12562 1.01669e-22)
(1.04435 0.19409 9.18409e-21)
(1.13223 0.102114 -6.04339e-21)
(1.31151 0.117405 6.6972e-20)
(1.02856 -0.324604 4.96097e-20)
(1.0786 -0.068342 -7.85713e-22)
(0.830757 -0.294738 0)
(1.04591 0.125328 0)
(0.904822 0.00244658 -3.13338e-20)
(1.38061 -0.362093 -6.73108e-20)
(1.00442 -0.00895643 0)
(0.729645 0.267398 9.12544e-21)
(0.761467 0.269685 0)
(0.8409 -0.269183 2.81892e-21)
(0.718199 0.112374 -1.18776e-20)
(0.813301 0.0150285 -9.78062e-21)
(1.05747 -0.156357 0)
(1.29705 0.19364 -1.18605e-22)
(1.23013 0.0955413 -1.57647e-21)
(0.897739 -0.342505 3.38207e-21)
(1.0142 -0.0291916 -5.91357e-21)
(0.755018 -0.416664 0)
(1.09105 0.0631895 0)
(1.14738 -0.259485 6.80173e-21)
(0.888041 -0.360112 -2.84765e-21)
(1.22175 0.183225 -1.75228e-21)
(1.06474 -0.0131749 -5.38166e-21)
(1.04433 -0.0163371 -6.23679e-22)
(1.03404 0.0677546 0)
(0.469422 -0.148669 1.73285e-20)
(1.33979 0.0509266 -1.26546e-20)
(0.721325 -0.251787 -4.21598e-21)
(0.455469 -0.183125 -2.08745e-20)
(1.39071 -0.0303711 2.5481e-20)
(1.04137 0.0549439 8.15483e-20)
(1.11759 -0.173478 -7.1688e-21)
(1.04598 -0.0666361 1.29756e-22)
(-0.0893555 -0.0635372 -1.05313e-20)
(0.998955 -0.00638561 0)
(1.03529 -0.0874779 -1.53147e-20)
(0.828991 -0.0355442 2.1261e-20)
(1.09932 -0.0299905 9.32865e-21)
(0.997968 -0.277132 5.50522e-21)
(0.535026 -0.0235055 1.09241e-21)
(1.44764 -0.350905 -1.79641e-20)
(1.06825 -0.0339833 0)
(1.055 -0.0183314 -2.27758e-21)
(1.13513 0.0124603 -4.97372e-21)
(1.02824 0.0913947 0)
(0.878763 0.0929377 9.98857e-22)
(1.08886 0.0165473 6.25762e-21)
(0.922423 -0.138487 -2.31457e-20)
(1.10736 -0.0702213 -1.38128e-20)
(0.868123 -0.119085 5.4768e-22)
(-0.0522269 -0.0193286 0)
(0.524271 -0.274952 2.15019e-20)
(1.15798 -0.0379116 0)
(1.12045 0.0470583 2.29662e-20)
(1.16021 0.222225 0)
(1.11825 -0.0366294 1.16616e-20)
(1.0149 0.0252875 0)
(0.964285 -0.0715733 0)
(1.34287 -0.0257621 1.64556e-20)
(0.803549 -0.0922135 0)
(1.11081 0.228764 2.30229e-22)
(1.17443 -0.00427706 6.4088e-22)
(1.03384 0.00278271 5.97715e-21)
(1.29279 -0.19641 -1.05844e-20)
(1.24297 0.110181 2.31797e-23)
(1.27336 -0.234114 -1.21482e-20)
(1.03854 -0.0111552 0)
(1.07737 -0.0267595 0)
(1.03024 0.0484682 3.61357e-21)
(1.19305 -0.0795575 0)
(1.41884 0.220412 -1.99458e-20)
(0.949595 -0.00360291 3.01176e-21)
(1.02766 0.0115348 2.76686e-20)
(1.20176 -0.0305155 1.83649e-22)
(-0.0124304 -0.0187197 0)
(-0.0488672 -0.11686 0)
(0.100081 0.369258 -5.27181e-20)
(-0.0882246 -0.0393145 0)
(0.78271 0.225585 1.22326e-20)
(1.15441 0.0352649 -4.343e-21)
(1.07006 0.0491584 -9.94126e-21)
(1.11696 -0.140637 -5.09004e-21)
(1.14673 -0.10821 0)
(0.721605 -0.0264122 -4.19833e-21)
(1.06475 0.0830031 0)
(1.0936 -0.0262478 2.18261e-21)
(0.580479 -0.111523 0)
(0.775384 0.308197 6.62589e-23)
(1.07726 0.112012 0)
(1.24018 0.033781 0)
(0.308364 0.0478917 -2.13892e-21)
(0.683139 0.472112 -5.73247e-22)
(0.873415 0.265267 5.90464e-21)
(1.00888 0.0181534 -9.62277e-21)
(0.373784 0.0429294 0)
(1.20582 0.0556307 5.78021e-21)
(1.251 0.0405915 6.42239e-21)
(1.28604 -0.129284 1.81783e-21)
(0.565061 0.28459 8.43464e-21)
(-0.074548 -0.0386352 -1.19449e-19)
(1.15996 0.108343 0)
(-0.0252898 0.0235427 0)
(1.22449 0.0856868 9.78088e-21)
(0.600381 0.27701 -9.07356e-21)
(1.19918 0.0463687 -1.7958e-20)
(1.08238 -0.0334603 0)
(1.1156 0.102734 7.20854e-21)
(1.25115 -0.360023 9.78822e-21)
(0.710893 0.00303628 -1.35068e-20)
(1.1125 -0.0389984 -6.55457e-21)
(1.06306 -0.0641906 -8.08506e-22)
(0.504018 -0.518402 8.68762e-21)
(1.12619 0.0326917 -3.36556e-20)
(1.13676 0.0217578 0)
(1.12837 0.115776 0)
(1.09758 -0.0907389 -3.66299e-21)
(1.2404 0.0403485 -5.80403e-21)
(0.707944 -0.395306 -2.98795e-20)
(1.18894 -0.0848574 -1.03598e-20)
(1.14103 0.0581794 1.38604e-20)
(0.524208 0.000796117 2.51184e-20)
(0.174333 0.32928 -8.65361e-21)
(0.686447 -0.313819 2.61857e-20)
(1.16846 0.181248 -6.36291e-21)
(1.26492 -0.487091 9.84547e-21)
(1.25139 -0.0263918 1.93362e-21)
(1.12145 -0.0718514 4.34101e-21)
(0.946727 -0.238739 9.07196e-20)
(-0.113475 -0.219061 0)
(1.24675 0.0163184 1.29338e-21)
(0.116735 -0.342088 -7.50266e-21)
(1.2109 0.128691 -8.46389e-21)
(1.18734 -0.176899 3.254e-21)
(1.07104 0.02173 0)
(0.3657 -0.0179704 0)
(1.14636 -0.033948 0)
(1.45551 0.12721 -8.88697e-21)
(1.1987 -0.0175883 1.03602e-21)
(1.08783 -0.0478155 8.83611e-21)
(0.492007 0.0162922 0)
(0.657565 0.00356045 0)
(0.646544 0.000133887 3.35484e-22)
(0.453863 -0.00934763 0)
(1.2691 0.0687785 0)
(1.01833 -0.0114236 2.42463e-20)
(0.35984 -0.168025 0)
(0.952916 0.0557578 0)
(1.1368 0.0571897 0)
(1.17001 0.171206 -1.59835e-20)
(1.22179 0.00211188 -6.38053e-21)
(0.944211 -0.0341843 1.34192e-20)
(1.37421 -0.391455 -1.40528e-19)
(0.430375 -0.302578 -2.89015e-21)
(1.10583 0.112173 7.69764e-21)
(1.03439 0.276381 0)
(0.299976 -0.559053 0)
(-0.206412 0.536816 0)
(1.12049 -0.0538032 8.90761e-21)
(1.34213 -0.257732 -4.57466e-20)
(1.32205 -0.0382094 0)
(1.03653 0.0312697 -1.5299e-20)
(0.835669 -0.306725 0)
(1.50233 -0.0717081 9.01874e-20)
(0.411891 0.518565 1.2514e-19)
(0.434765 -0.0102196 0)
(1.18696 -0.268021 1.50896e-19)
(-0.0663784 -0.00622982 0)
(0.25233 -0.587572 -1.0004e-20)
(1.30958 -0.0233978 0)
(-0.218044 0.349658 7.50105e-21)
(0.984787 -0.0521779 0)
(1.16755 -0.178438 -3.4657e-21)
(-0.191777 0.134976 -1.0268e-20)
(1.1016 -0.0516742 4.65482e-21)
(1.034 0.305783 -3.36842e-21)
(0.587367 -0.530838 -8.8792e-20)
(1.04992 0.101372 -4.89524e-21)
(1.18684 -0.0983313 2.27403e-21)
(1.17002 0.240452 -2.86686e-20)
(1.16263 -0.210433 2.04326e-21)
(1.14154 -0.0552592 2.27223e-21)
(0.362448 0.0134421 -8.79063e-20)
(0.0675172 0.172741 -6.38122e-21)
(1.21778 0.223081 4.63627e-21)
(1.05526 -0.040934 0)
(0.775249 0.40487 -8.10776e-22)
(1.45934 -0.418205 1.11093e-19)
(1.10763 -0.00664363 -8.49052e-20)
(1.45288 0.155713 5.8627e-20)
(1.0617 -0.0108434 1.09278e-20)
(1.02396 0.17636 2.73723e-20)
(1.05783 -0.011625 0)
(1.14616 -0.0174522 0)
(1.07901 -0.145348 -6.10095e-21)
(1.08666 -0.0193714 -4.50241e-21)
(1.09577 -0.240698 -2.05415e-21)
(1.08713 0.07031 -1.15651e-20)
(1.30479 0.0304553 -1.84663e-20)
(0.419168 0.0215541 0)
(0.998096 0.00443758 2.43702e-20)
(1.2344 -0.0735763 0)
(1.09987 0.0733016 -8.04171e-21)
(1.13717 0.00635836 0)
(1.03742 -0.00810181 1.40344e-20)
(1.22907 0.0149014 4.00292e-21)
(0.952713 0.256174 0)
(0.0897849 -0.0234771 2.0958e-19)
(0.887457 -0.219007 -7.11551e-20)
(1.19278 0.0987042 -1.37615e-20)
(-0.155618 0.081066 4.58838e-20)
(1.15969 0.0148222 -2.03806e-22)
(0.834291 0.321415 1.80324e-21)
(-0.121806 0.0885111 -4.78048e-20)
(-0.0230858 0.00851907 -2.78894e-20)
(1.02242 -0.0248948 0)
(-0.0372408 -0.0566024 0)
(1.08734 -0.0726016 0)
(0.114288 -0.114754 0)
(1.0934 -0.0356835 0)
(0.213942 0.0457514 0)
(1.12671 0.0295176 0)
(1.0802 -0.15278 0)
(1.39335 0.103797 2.03265e-21)
(0.621717 -0.303516 -2.7357e-20)
(-0.114343 0.281085 0)
(1.29247 -0.00749186 8.8381e-20)
(1.09925 0.0732992 7.73812e-21)
(1.06715 0.0187871 0)
(-0.0371267 -0.0500472 0)
(1.15059 -0.0112601 -6.141e-21)
(1.15251 -0.0377181 1.72919e-21)
(1.16278 0.384802 0)
(0.445882 -0.00848483 9.08974e-20)
(1.12064 0.0527961 2.05604e-21)
(0.291179 -0.0522863 -6.93126e-20)
(-0.05819 0.0285246 -2.74144e-20)
(-0.0383165 0.049455 7.26704e-20)
(0.186941 -0.504151 6.31977e-21)
(0.904865 0.399286 -1.69664e-21)
(1.14664 0.0629532 -1.59954e-20)
(1.02314 -0.00965922 0)
(1.07239 -0.0531515 -1.99767e-20)
(1.23135 -0.0333362 6.85817e-21)
(-0.0171589 -0.0471154 1.18818e-19)
(0.974463 -0.0709762 -5.66282e-20)
(0.931453 0.35477 1.1686e-21)
(1.16876 0.174381 6.50764e-24)
(0.121289 -0.0236577 4.78337e-20)
(0.310873 -0.032663 -6.49435e-20)
(0.616764 0.0239435 -8.26064e-20)
(1.34651 0.162506 -2.76555e-21)
(-0.052951 -0.0514393 0)
(1.20214 0.348184 -4.27644e-21)
(0.865586 -0.113506 4.47047e-20)
(1.03032 -0.117358 -4.31092e-20)
(1.1711 0.0501394 0)
(1.5187 -0.152419 9.74031e-20)
(1.15934 0.0438217 -3.8993e-21)
(-0.0283824 -0.0689568 -4.26108e-20)
(0.273046 0.114621 0)
(0.914227 0.0283505 -2.76621e-21)
(1.11645 0.0140628 3.49428e-21)
(1.20113 -0.394322 2.12502e-20)
(1.1577 -0.0183987 3.47096e-21)
(1.11673 0.0384227 0)
(1.26044 -0.136778 -2.01907e-20)
(-0.116942 0.0745777 -9.48676e-20)
(1.23859 0.0121777 7.51673e-21)
(1.09707 0.16259 -8.44043e-21)
(1.06905 0.0741663 1.32269e-20)
(-0.0508443 -0.0975768 2.17993e-20)
(-0.0113562 0.0155778 -5.81839e-20)
(0.597848 0.216832 0)
(0.449446 -0.126655 0)
(1.1507 0.0928893 -2.49483e-20)
(1.05256 0.0605611 1.6382e-20)
(1.06795 -0.00475396 0)
(0.653721 0.289849 4.2569e-20)
(0.715856 0.089712 -9.3524e-21)
(1.09884 0.104212 0)
(1.05492 0.0584454 0)
(1.11474 -0.058166 0)
(1.22039 -0.0851168 0)
(1.02609 0.0534981 4.53231e-21)
(-0.0427755 0.0397094 2.99362e-20)
(1.35277 0.0270132 3.72531e-21)
(1.47483 -0.0928772 -1.07852e-19)
(1.06727 -0.0473341 -8.02174e-21)
(0.198665 0.294487 0)
(0.975754 0.0781062 0)
(0.646735 -0.00897705 -1.42252e-21)
(0.532688 0.00953276 -5.24054e-20)
(0.0669627 0.0377357 4.30787e-20)
(0.955871 -0.000628503 2.58487e-21)
(0.81443 -0.283514 0)
(0.774555 -0.0857643 0)
(1.02134 -0.148606 0)
(0.540615 0.514242 1.49765e-20)
(-0.00774379 0.00647221 -2.97035e-20)
(1.01945 0.137012 -6.80622e-21)
(-0.0376577 -0.0883808 8.36104e-20)
(1.14289 -0.0693685 3.01541e-21)
(1.16624 0.306497 5.46806e-20)
(1.10797 -0.068994 8.14195e-21)
(0.631295 0.0874591 1.1486e-19)
(1.14795 0.278078 1.98653e-21)
(0.832576 0.279282 0)
(0.558087 0.271802 0)
(0.909381 0.196999 -1.94448e-21)
(-0.268598 0.293161 0)
(0.618696 0.0317288 4.82642e-21)
(0.635929 -0.438008 -4.2743e-21)
(0.234905 0.0498955 -1.02576e-19)
(1.13888 -0.211894 2.32946e-20)
(1.03317 0.360275 1.08631e-20)
(0.986108 0.0132191 0)
(1.2332 0.11311 -8.99138e-22)
(0.671047 0.0118172 0)
(1.02798 -0.00804949 -4.14856e-22)
(0.565546 0.00213846 0)
(0.719384 0.122692 0)
(0.987309 -0.0287347 -9.9579e-21)
(1.43842 0.167513 -9.41746e-21)
(1.09795 -0.082751 4.67853e-21)
(0.543216 -0.512541 0)
(1.13472 -0.13814 9.36416e-22)
(0.808109 0.374554 7.36798e-20)
(-0.0437544 0.0166252 1.02184e-21)
(1.21153 -0.077172 4.0786e-21)
(1.21613 0.0159468 -2.16934e-21)
(1.15731 -0.1932 8.26025e-22)
(0.814231 0.0106571 -1.06637e-20)
(0.0568761 0.019591 3.26338e-20)
(-0.0234257 -0.0372473 -6.55704e-20)
(-0.184163 0.351487 0)
(-0.0928203 0.410094 0)
(1.23302 -0.621004 4.02785e-20)
(1.13119 -0.0352735 -2.2172e-21)
(0.946315 -0.483026 -5.68187e-20)
(1.17476 0.329615 7.18317e-21)
(1.37126 0.195083 2.72306e-20)
(0.604068 0.421326 0)
(0.245913 0.413459 -1.19786e-19)
(0.597888 0.477258 0)
(0.113267 0.224691 0)
(1.14504 -0.470101 0)
(-0.0491487 0.0539077 3.10771e-22)
(1.16512 -0.0051994 0)
(0.739022 -0.285498 -5.15874e-21)
(0.595781 0.691901 2.01434e-20)
(1.2702 -0.0482055 3.37304e-21)
(-0.0210353 -0.11199 -1.58501e-19)
(0.756685 -0.201575 -3.35611e-20)
(0.449606 0.144813 -1.23768e-20)
(1.20529 0.0751681 0)
(1.36259 0.356556 2.57682e-20)
(1.22357 0.566989 9.75829e-22)
(0.151777 -0.0207701 -1.88181e-20)
(0.992122 0.144702 2.42278e-20)
(0.984718 -0.0328825 1.59545e-21)
(0.919837 -0.000681101 -7.76919e-22)
(0.0324071 -0.0314887 0)
(0.662349 -0.66854 -2.79804e-20)
(0.617322 0.194779 0)
(0.215014 0.0330947 0)
(-0.0365306 0.0311882 0)
(0.0350094 -0.0518175 -6.15467e-20)
(1.23099 -0.0381326 -4.77241e-21)
(-0.0341844 0.0413798 0)
(-0.0195418 0.0302472 0)
(1.45797 0.118481 -5.50375e-20)
(-0.0251076 -0.103901 7.11682e-20)
(0.114563 0.231064 -1.03349e-19)
(0.380979 0.0142919 0)
(0.174386 -0.289542 8.00564e-20)
(1.19521 -0.230706 0)
(1.00337 -0.280399 0)
(0.0592524 -0.062149 1.51673e-19)
(1.1436 0.0215982 -3.66441e-22)
(1.11578 0.338253 3.18907e-20)
(0.255664 0.0290464 4.18006e-20)
(0.415784 -0.535705 -3.0496e-20)
(1.32416 0.0759859 0)
(1.22075 0.201994 1.86857e-20)
(1.22123 0.212423 -2.29529e-20)
(0.10267 0.0821407 -2.37125e-20)
(-0.0834667 0.0479078 0)
(1.07005 -0.0497226 -1.82554e-20)
(1.10751 -0.211787 -1.16114e-20)
(0.593899 -0.416029 0)
(1.099 -0.144563 -2.36759e-20)
(0.00324925 0.395579 0)
(0.574883 0.0469346 0)
(1.24936 0.000918307 6.76576e-22)
(0.995685 0.0246817 7.07018e-22)
(1.08087 0.74564 -2.07774e-20)
(0.231396 -0.392416 1.25317e-19)
(1.11993 0.0560783 -8.69521e-22)
(1.20444 0.0673333 -4.09235e-21)
(-0.0362565 0.0638722 2.78276e-20)
(0.788496 0.733889 3.33717e-20)
(1.37941 -0.330436 -1.61751e-20)
(-0.162525 0.290929 3.85775e-20)
(1.17118 0.00151536 0)
(0.43603 0.188096 -8.51003e-21)
(0.942273 -0.656625 3.85551e-21)
(0.901056 0.642912 -1.35945e-20)
(0.681131 -0.00637612 -8.7919e-20)
(1.13074 -0.0192465 -1.65944e-20)
(1.07571 -0.0752449 6.60381e-21)
(1.16878 0.042753 6.75784e-21)
(1.10553 0.114664 7.85287e-21)
(1.13588 -0.105647 0)
(0.908984 0.110713 1.18227e-20)
(0.886301 0.460045 0)
(1.3858 0.054085 6.19865e-23)
(1.16773 0.10093 5.04874e-21)
(0.749195 0.264777 0)
(0.515167 0.110616 9.78206e-20)
(0.895564 0.712334 -8.58273e-22)
(1.06837 0.282707 -2.44913e-20)
(1.03809 -0.00378017 1.27441e-20)
(0.417087 0.487854 0)
(1.32965 -0.45318 0)
(1.02251 -0.0710148 7.72006e-21)
(1.26488 0.50616 0)
(-0.025745 0.0382393 -3.5797e-20)
(1.31012 -0.398285 -2.57223e-20)
(1.16724 0.509363 0)
(0.456752 0.210672 1.72265e-19)
(1.12351 0.318977 -1.06917e-19)
(0.830817 -0.649253 -2.22933e-20)
(1.17432 0.0217832 4.81525e-21)
(0.914382 0.153957 7.12167e-20)
(1.0825 0.163231 6.24297e-20)
(1.0726 0.705461 2.46858e-21)
(0.920393 -0.443762 5.93251e-20)
(1.43782 0.175312 2.80031e-20)
(1.12371 -0.00689952 -2.51106e-21)
(0.0429843 -0.0672646 1.3473e-19)
(1.11668 -0.712034 4.40437e-20)
(0.89356 -0.733284 4.28688e-20)
(0.257927 -0.347802 0)
(0.975199 -0.152009 6.96474e-20)
(0.363893 0.3019 -4.47189e-19)
(-0.122783 0.378888 2.73328e-20)
(0.214357 0.0359975 1.74122e-20)
(0.796239 -0.0450245 -1.01512e-19)
(1.08051 0.529253 0)
(0.980211 0.214423 8.72652e-20)
(1.08561 0.0252997 5.26134e-21)
(0.91506 0.440243 -9.49881e-20)
(0.811976 -0.746486 -6.32949e-21)
(0.937759 0.0162724 -4.9107e-20)
(0.980077 0.487901 0)
(1.25993 -0.0644834 5.57655e-21)
(1.41741 -0.497352 1.82285e-20)
(1.24126 -0.321378 1.30782e-20)
(-0.0612128 0.365849 3.97548e-20)
(0.197506 -0.00620764 -1.8308e-20)
(0.979985 -0.122168 -5.76701e-20)
(0.353218 0.522897 0)
(0.928552 0.00726476 3.91281e-20)
(1.15792 0.638713 6.83903e-20)
(-0.0810956 0.143553 2.03272e-19)
(-0.0559144 0.0794982 -2.31596e-20)
(-0.122946 -0.0165712 5.06454e-20)
(1.09835 0.0147417 -7.32504e-21)
(1.19539 -0.467022 0)
(1.0922 -0.740512 -2.90499e-20)
(0.701733 0.344579 0)
(0.109308 0.13836 -1.53322e-19)
(1.09559 0.0520625 6.24824e-21)
(-0.0557823 -0.0879401 -4.01991e-20)
(1.04898 0.0516799 -1.19123e-20)
(0.0962373 0.0147702 4.65072e-20)
(0.842918 0.129478 0)
(1.22993 0.0512908 1.80516e-20)
(0.0378798 0.0477837 -1.97708e-20)
(-0.148164 0.449614 -4.72566e-20)
(-0.279644 0.464966 0)
(0.146057 -0.00294089 0)
(1.22182 -0.00382326 -6.73864e-21)
(0.47686 0.00298461 2.11322e-19)
(1.30685 -0.72972 -4.20318e-20)
(1.14044 -0.140949 5.41715e-20)
(1.06169 0.241801 -3.57735e-20)
(0.378697 -0.57661 1.35886e-19)
(1.55677 0.283878 -2.76609e-20)
(0.167448 -0.0439304 5.31603e-20)
(0.209294 0.2994 1.99514e-19)
(0.207691 -0.0217433 -1.96796e-19)
(0.957199 -0.496871 -4.10965e-20)
(1.45518 0.390439 2.80301e-20)
(0.585296 -0.696102 4.53448e-20)
(1.10502 -0.0655602 -7.03272e-21)
(0.44585 0.252066 8.30328e-20)
(1.18149 0.295139 -4.18836e-20)
(0.663368 0.637823 -4.281e-20)
(1.39329 -0.623577 0)
(1.42051 0.523991 3.00071e-20)
(1.07393 -0.529679 -1.3688e-20)
(1.39165 0.609992 -8.31132e-20)
(1.15883 0.000145808 0)
(-0.0436945 0.0579076 0)
(1.2545 0.732005 0)
(1.28091 -0.0689246 -2.79552e-21)
(0.753362 -0.311174 -2.03197e-19)
(0.483332 -0.0914744 0)
(-0.0423275 0.0820658 -2.35799e-20)
(1.02922 -0.242544 9.16234e-20)
(-0.138305 0.293094 0)
(0.324583 0.0162061 1.23683e-20)
(1.13599 0.0178965 0)
(1.41681 0.279994 0)
(1.1758 0.0238755 -5.15682e-21)
(0.368628 -0.30481 0)
(1.00689 0.14209 4.23053e-20)
(1.30812 0.288211 0)
(-0.0610225 0.118386 1.91676e-21)
(0.822611 -0.40541 0)
(1.5202 0.340041 -4.17787e-20)
(1.23143 0.366218 6.24496e-21)
(0.844153 0.645505 -1.03645e-20)
(1.00183 0.1498 -9.62112e-20)
(0.96817 -0.203844 -4.46586e-20)
(1.45459 0.294574 2.46221e-20)
(0.998044 0.131629 0)
(0.568298 -0.0802251 0)
)
;

boundaryField
{
    FrontBack
    {
        type            empty;
    }
    Top
    {
        type            noSlip;
    }
    In
    {
        type            fixedValue;
        value           uniform (1 0 0);
    }
    Bottom
    {
        type            noSlip;
    }
    Out
    {
        type            zeroGradient;
    }
    circle
    {
        type            noSlip;
    }
}


// ************************************************************************* //
