/*--------------------------------*- C++ -*----------------------------------*\
| =========                 |                                                 |
| \\      /  F ield         | OpenFOAM: The Open Source CFD Toolbox           |
|  \\    /   O peration     | Version:  2412                                  |
|   \\  /    A nd           | Website:  www.openfoam.com                      |
|    \\/     M anipulation  |                                                 |
\*---------------------------------------------------------------------------*/
FoamFile
{
    version     2.0;
    format      ascii;
    arch        "LSB;label=32;scalar=64";
    class       volVectorField;
    location    "1187.5";
    object      U;
}
// * * * * * * * * * * * * * * * * * * * * * * * * * * * * * * * * * * * * * //

dimensions      [0 1 -1 0 0 0 0];

internalField   nonuniform List<vector> 
808
(
(0.7562742567278313 -0.01752505609383566 0)
(1.031362549787713 -0.01251811139576796 0)
(1.11423330368055 -0.0005664635730424887 -1.747101591552174e-20)
(1.085131089351184 0.01256977476471515 0)
(1.36045585654621 0.0132658281834698 -3.823529474920101e-19)
(1.038684487799965 -0.009423710375288882 -7.285616883212854e-20)
(1.014366951111604 -0.02039710235037409 -2.413826019667767e-20)
(1.078931375331563 -0.004790017815033978 8.99924278702666e-21)
(1.25227524740218 -0.0216214367310019 6.265707196241799e-20)
(1.084990036557353 0.00876830238971494 0)
(1.00902596259697 -0.01229364932459512 0)
(1.303351101770742 -0.05423406515002401 -3.466877224596511e-19)
(1.08629404675003 -0.001699991098666876 2.040866285837672e-20)
(0.6751127899455122 0.006384516612406987 0)
(1.27779273379803 -0.1230888975250016 0)
(1.081941939046542 -0.0002356969718531792 -3.855592441548596e-20)
(1.227523091850909 -0.1526710671817556 -9.801835454003134e-20)
(1.074418419031526 -0.0003499630443788529 3.195341415395924e-20)
(0.9894206459083823 0.005896455986541463 0)
(1.026976336413735 0.009291039835622518 0)
(1.036868363197029 -0.01597778529875516 0)
(0.9875823168291347 0.04542374907936056 0)
(1.051032937399394 -0.006209416636725525 5.780988401636361e-20)
(1.053760817294875 0.008255026269486748 0)
(0.9338772568960131 0.1999341832967282 4.565915778735336e-19)
(1.161203168745487 -0.09048782906603994 0)
(1.184390252420136 -0.01997949609544988 1.542308287162092e-19)
(1.077166400926942 0.009625558825506987 5.236560342285676e-20)
(1.083987699507145 0.001834932258672817 5.119402803122678e-21)
(1.071923758528889 0.03097614510013791 0)
(1.075427873719439 0.002582373142493726 -1.183399732688796e-20)
(1.033458411013114 0.006327711009030115 -1.879311846505015e-19)
(1.060005211206141 0.01457215480682918 -2.36686352476621e-20)
(1.088752349077952 0.005400357309368132 -2.936266280847838e-20)
(1.121084771761223 0.03634620768023146 0)
(0.7548632654404528 -0.1199755117513 -4.550447468221589e-19)
(0.954512490953414 -0.005736813478405454 0)
(1.068875179975175 0.02236957387294702 0)
(1.068822314648728 0.007212754364163924 0)
(1.073739631565023 0.008622095993379694 -2.816576977746047e-20)
(1.09306099131886 0.0226361586000472 1.079064094967986e-19)
(1.149879520990697 0.001881994338258529 2.115983033220128e-19)
(1.095575130738129 -0.002405538694832284 0)
(1.015379542427822 -0.009420948793040496 0)
(1.127103784686093 -0.09613143968302662 -1.653739946888715e-19)
(1.044055418294449 -0.01180039933171965 -8.335154465370684e-20)
(1.058333283262411 0.02668993947860301 -2.712231044287998e-20)
(1.229065810222651 -0.1122369312818502 -5.572692373662011e-20)
(1.067591682912009 0.01214137817820481 -4.088667381369753e-20)
(1.255788016164608 0.01493660125545006 0)
(0.997341636943391 -0.01850915229194244 2.168625256641884e-21)
(1.044658404336409 -0.002573642358379245 0)
(1.087294582232556 -0.002318915715253679 0)
(0.9978200920005666 0.007906304752052069 -1.917790520890269e-20)
(1.252672144073185 0.0325625990251396 -2.385499758673067e-19)
(1.063615308157142 0.0183154462627422 5.898238529064618e-20)
(0.9884575181505967 0.01076481062035671 0)
(1.014445580794879 -0.009338225857859098 2.561994237407353e-20)
(1.107025434958217 -0.001757113791571902 -1.156857707420784e-19)
(1.061607154421725 0.03132042677167018 0)
(-0.07134939918851022 -0.02733081857637594 7.578116502235486e-20)
(1.153609609944293 -0.05234664782056113 -1.850587280059129e-19)
(1.001957201798303 -0.007164306633790396 -2.81506598696906e-20)
(1.186505942334653 0.06418159300183547 -1.198459225169873e-19)
(0.9971959450893771 -0.01056850667405347 3.08321153266586e-20)
(1.083876568121981 -0.005494346452024966 0)
(1.245589589403606 0.09107089461794807 0)
(0.6960427404543413 0.003163527312502849 -7.443654247765151e-20)
(0.9888955414750835 -0.01599258877939038 -3.211516849331625e-20)
(1.456323771092831 -0.01941053881796802 4.403924511652409e-19)
(1.060658537727839 0.007573504340869408 -6.565213018435912e-20)
(1.364241477164602 0.09376612485967024 2.851373979018949e-19)
(1.054860843036619 0.006731618412573889 -1.904109949068835e-22)
(1.080970855684939 -0.01414453726573714 -3.25043206851382e-22)
(1.162527524935046 -0.2349234889588988 0)
(1.022650453717751 -0.01486147524007029 0)
(1.017893773813576 0.0179386190398277 -3.007495950726516e-20)
(1.389815789954946 0.3497421642726605 4.23310794999769e-19)
(1.097303453041386 -0.04216949858331954 9.530032708989158e-20)
(1.046916469595693 0.2112895121190044 2.40976514208246e-19)
(1.122597140530142 -0.06294987270615651 1.178631268051402e-19)
(0.9220917021385365 0.005202330675097135 0)
(0.9754513871744037 0.01857996210706317 0)
(1.003973958385863 -0.04843481677398784 3.146018420108832e-21)
(1.010585437226538 -0.01370577375456194 7.711708430147416e-21)
(1.031248543810395 0.02625889174208104 1.356324536372327e-20)
(1.525101527992654 0.03432250393943251 3.220102474105146e-19)
(1.291878426291399 0.07012587420312102 5.622180835448465e-19)
(1.072704500971702 0.002952407188730035 -8.847178625794608e-20)
(1.195048500617961 -0.09932020436604674 0)
(1.033984672678039 0.001533418185971836 1.291999802928626e-19)
(1.164049129273235 0.01998388656626607 -3.127495619133997e-19)
(1.001529710358601 0.03254489401574264 0)
(0.9996298779027333 0.001974978771582887 0)
(1.044146087128726 -0.0003237237585594825 7.972515825926306e-20)
(1.215718900516739 0.1014649868012014 3.996594060355095e-19)
(1.011150605771789 0.006942060119308021 0)
(1.087489178667185 -0.06996017230292842 -1.069705948382535e-19)
(1.150428752352513 0.03485220081905931 0)
(1.213060726650811 0.08856335117989614 -1.878404500089689e-19)
(1.108250960800334 -0.02876589003100677 -7.779357798633501e-20)
(1.027978418788292 0.01176715335844715 0)
(1.085435594383809 -0.004633848089365789 0)
(1.020195892284611 0.02612344994237488 7.861486662335515e-20)
(1.075540052984284 0.05512746876570875 -9.266425304077487e-21)
(1.103623219917754 -0.004362071723279135 6.416378393061865e-20)
(1.103705613376718 -0.09430997117168673 1.53403351615797e-19)
(0.9610157918905446 -0.00267166341625273 0)
(1.066387127836467 0.03145690790772623 3.703918314680192e-20)
(1.167318854326962 -0.07660718524363831 2.26158612788452e-19)
(1.053944151336776 0.04625238037576219 -2.853826967963188e-20)
(1.023046547794601 0.06816613251864523 3.647499673184533e-20)
(1.090522891057315 0.02623653237265965 0)
(1.014043745500398 0.01385794177709361 0)
(1.028962481078094 0.009387574772825317 7.860742067683206e-20)
(0.9485694535445575 -0.03202957704014563 0)
(1.053277500225929 -0.00548812619315229 -7.442485821507463e-21)
(1.338808175994855 0.05628222929063025 -1.547574885031284e-19)
(1.079663326775084 -0.01329801680988172 2.638058565263551e-20)
(0.7441982922064466 -0.001774122090400554 0)
(0.5517008665515895 0.1666836834919894 -1.025851346645804e-19)
(0.7058687364042328 -0.002488404012052356 0)
(0.6990514775996759 0.01466869553182382 0)
(1.077836318759738 0.003484958835155889 -6.472126635375457e-22)
(0.9906431069211747 0.01443256149598171 0)
(1.28125260973349 0.1222286370575073 2.547613114262311e-19)
(1.01221352474528 -0.02797162643645502 -7.405258498065769e-21)
(1.039624540545693 0.01727017287197016 1.230802935722146e-21)
(1.058421171567283 -0.01241198609708318 0)
(1.126368948511796 -0.009240177190142265 -5.114335169491766e-20)
(1.262509244201285 0.1224543555756721 -2.174196812571068e-19)
(1.088808079434922 -0.01088571302712586 -8.563632930713377e-20)
(1.071081663934464 0.02521642171235021 -1.069540648156043e-19)
(1.041115971101348 0.0467825332331276 7.392564125256179e-20)
(1.022381966595988 -0.003536553540467504 -3.469088540140248e-20)
(1.061312799765103 0.02370469586071523 5.732503288518231e-21)
(1.13855108400796 0.0008218189039740709 1.045732518888479e-20)
(1.040632149074 -0.01253313872061461 -4.680843297390136e-22)
(1.087639311996721 0.03480710571908983 0)
(1.028742888004351 0.01345787746918123 0)
(0.7916271405356586 -0.07813512019669941 -1.843562136629483e-19)
(1.030303557899491 -0.002116066266218818 -6.556977776746942e-20)
(1.136924195699047 0.002560449671485346 -1.28034837897826e-20)
(0.7035343070871711 0.006544305669103543 7.15942979134848e-20)
(1.176125836124363 0.01868973994622345 -1.966661902847455e-19)
(1.13086548482567 -0.002723444030856793 5.665944130553279e-21)
(1.129054443270284 -0.01010536635613267 3.370315233950711e-20)
(1.00093560477226 -0.002989883756299352 -6.742605908903277e-20)
(1.095559799253108 -0.05763614955748794 0)
(0.9883266615959864 0.001182671716317718 0)
(1.057945570698652 0.007032264326066488 0)
(1.006283337378933 0.1898467457715572 -2.364009293799829e-19)
(0.7794816794651735 0.01243318243388121 0)
(0.857051414287194 0.1036747633545236 -8.207538336768477e-20)
(0.1052443762815925 0.03233664157237127 -3.021765327041697e-19)
(1.172697063199979 -0.03264512581374537 -2.285710484939148e-20)
(0.6712363506033902 -0.007371166437825154 2.44894062201205e-20)
(1.162440509541787 -0.1051609651709228 7.003947068155847e-20)
(1.129172361145266 0.0006867433111284108 -6.024108961307513e-21)
(1.154210136958189 -0.05108192417392644 2.221146097976847e-20)
(0.07233769872387968 -0.1896818494267534 0)
(0.2591832147848189 0.06436792375513913 0)
(1.256479991619222 0.1038183479389622 1.845029839635027e-19)
(1.02149148105168 0.01988409604259985 0)
(0.7375592014578013 -0.006303303294016936 0)
(1.074802013602281 -0.01160569904800617 2.726841877842183e-20)
(0.9751755113744297 0.002877965031734029 0)
(1.289875883838568 0.1183807867105833 -1.437067904577555e-19)
(1.057367217871342 0.0110454930224373 0)
(0.9923432690571951 -0.007951379987948161 0)
(1.065329843176655 0.008076727020709305 0)
(1.006258006392293 0.0209103886015105 2.163216676444479e-20)
(0.9249741317062419 0.003601498811207517 1.270329833040198e-20)
(1.175000971099222 -0.1989200292338845 0)
(1.004978065869504 -0.005225356090715678 7.985448910070982e-20)
(1.059238537505951 0.006162304484778594 0)
(0.7745357575531856 -0.0033472703441526 0)
(1.216234421919174 0.02564796278394708 1.618862472195153e-20)
(0.7051225341077423 0.001348058565105882 0)
(1.431093030489533 0.08492717872924165 -5.128677679694276e-20)
(0.9938179968746887 -0.005531394916720314 1.662920100431799e-20)
(1.275691935359065 -0.004363046935874328 -2.999118377179673e-19)
(1.060020498310527 0.00888070706167661 1.331253911277729e-19)
(1.000899353300492 -0.01355862885717406 0)
(1.211974367043026 -0.1528428801109487 2.0451985353409e-19)
(0.7331653088410214 0.01378791825443074 0)
(1.098008652554468 -0.004998458285810859 0)
(1.155544230356985 0.06418122221108524 1.900799847363218e-20)
(1.006301532916895 -0.007020816581383956 -3.04616282148725e-20)
(1.122642070716336 0.04963252500527313 -1.711699583625826e-19)
(0.1570492563518676 -0.09145276883628348 0)
(1.07404975720007 0.03748703327499732 0)
(0.6615327891279433 -0.002875020611371821 -5.2545134808121e-22)
(1.012063955440812 -0.01973154079198864 9.062302960008576e-20)
(1.06177735095943 0.0007969624065645702 0)
(1.08659526947129 -0.1406314707724917 3.800095477650281e-19)
(1.00249458403954 -0.00614062576910796 -3.327157594249056e-21)
(1.002329081729696 -0.003900660438149066 1.314994120111693e-21)
(1.094036846869551 -0.009175940665877177 0)
(1.020806568096629 0.02014053850519643 -6.618564624558596e-20)
(1.106812586937035 -0.001663578899961378 6.349689935189675e-22)
(1.07396980623845 -0.01061937218587619 6.60190771434818e-20)
(1.085640668613954 0.02224313549412368 0)
(1.324035958505543 0.1577161581020461 0)
(1.002093243340512 0.0005569617440929558 4.407724105100391e-20)
(1.32210327780178 -0.1337115794242676 1.596696868241414e-19)
(0.009429680258018519 -0.1367827127566705 -2.344014254758186e-19)
(1.071161408289049 -0.005454866912479798 0)
(1.113239647388226 -0.001074974351899001 1.191679412851975e-20)
(0.7268823954150566 0.0178373853681599 0)
(1.058831721763166 0.006865094691965008 0)
(0.8622925759974547 0.1623827407161638 4.63598183480675e-19)
(1.281044385996843 0.1175374072533761 1.830671715226193e-19)
(0.6541136541665959 -0.003114152595207616 -6.475968181132762e-20)
(1.041005654813081 0.0008708788091854356 -2.423858215048925e-21)
(1.054941608113429 -0.0002243913727269197 6.46961499879432e-20)
(1.359482030618361 0.1182264239406164 6.582102109201477e-19)
(1.338180725556463 0.2525937382526823 0)
(1.05709388162923 0.009009793281602237 0)
(0.9959351277614915 -0.00495655144512926 1.393844367801006e-20)
(0.9944139147249961 -0.004754688764474723 1.299985578274335e-21)
(1.386191500113773 0.1997146146772258 4.324980590879951e-19)
(0.6817694927913216 0.0006109052862076957 9.930863811093907e-20)
(1.005714791244797 -0.002102239314140939 -6.005316301593707e-20)
(1.098012556447747 0.01312676912697581 2.552781337888786e-20)
(0.6694541310339119 0.004974537182695836 0)
(1.066081280218683 -0.01203465842410198 0)
(0.9943773633715315 0.1251660825374216 -1.336071354804164e-19)
(1.082844988406118 0.005668399673500212 -2.550984744065676e-20)
(0.9818924587100971 2.444587302613407e-05 3.307226193786827e-20)
(0.9912112495670236 0.005988824599712094 0)
(0.6381670438763709 -0.001146490806651148 0)
(0.9768124205534381 -0.001307623866491012 0)
(0.6419571382935734 -0.001436895714486895 2.68406711710162e-21)
(1.086909365493814 -0.05696327710435339 1.2175222389834e-19)
(1.109242558095659 -0.004491057287523316 1.181432162725842e-21)
(0.9580722996592651 -0.0008833308277166211 3.889449473314704e-20)
(1.016640188605841 0.01077958423895398 1.70167911498777e-20)
(1.063946853936539 0.0106525504265626 -2.196837541871408e-21)
(0.6348270915600022 0.00885078183682321 -3.624362493202962e-20)
(1.003610281113704 0.01275562065308884 -6.443015298919947e-22)
(1.03697611810046 0.01166934376365957 5.078947936859896e-21)
(0.9868833059552389 -0.003683626297401984 0)
(0.6100636318881986 -0.000450738214914089 0)
(1.068971131105053 0.02265142316128833 0)
(1.015673416678228 -0.01625721334882636 1.046636574285415e-20)
(1.021861533731856 -0.002243140483399549 0)
(0.9931262599096184 0.0146232374632515 -9.482454184628655e-21)
(1.010860770331854 0.006745750219429096 0)
(1.132756964627145 -0.002493826836037752 -1.256370065429778e-20)
(0.03098053882200221 -0.1380190086306247 -4.321102145098406e-20)
(1.034982004093962 -0.01622214095222174 -7.018733347340116e-22)
(1.045599275755472 0.009383731026423689 0)
(1.087650964069403 0.06801589144952848 8.391280207835883e-20)
(0.9688116411300918 -0.000739434480651427 3.114649097494132e-20)
(1.020293871094637 0.01706924978630842 -2.253230996324161e-20)
(1.007045036793233 2.024336913994e-05 2.41248945079402e-20)
(1.039888774816232 -0.005962188632624319 0)
(0.64098603681872 -0.004060937522636105 0)
(1.026024877466274 0.02447430721417541 -7.909588386441803e-20)
(1.082370756920952 0.005077169395122772 5.025879081100757e-20)
(1.011670983482985 0.004925568294610512 0)
(0.9818176725827914 -0.001060732693074492 -1.908747955022441e-21)
(0.8622951054942122 0.01741746406800829 -1.410426100957269e-20)
(1.013940866076206 0.003008509822779552 -9.726699271847519e-21)
(1.02519893404455 -0.001123797444505555 1.801979836037781e-20)
(0.9788064859713942 -0.001546007464827284 0)
(1.007258698137411 0.008894151946260252 3.235091579054956e-20)
(1.10808368114378 -0.004479851033121002 0)
(0.9339445757427736 0.007898075260046388 -3.385621313881526e-20)
(0.9559313914992544 0.005035605180782729 0)
(0.9028727717138071 0.2041936031465995 5.011397719951568e-20)
(1.011217362159267 0.06761184358337162 0)
(0.9907529692117991 0.004104918427176274 -2.311828035632668e-20)
(1.054138626081014 -0.04940190763957144 -2.732879387798477e-20)
(0.9931501011098195 -0.001193790506697587 3.315155165237825e-20)
(1.007784933047883 0.003000127777950065 0)
(0.9805756841586554 -0.000348178270755424 -3.082543238054364e-20)
(1.177463798647738 0.09566083983428632 -3.315594603640014e-19)
(1.067596270240646 -0.2630956762186999 0)
(0.9950108945467456 0.001457191320084871 -2.228681073078582e-20)
(0.9788249677156616 0.00829009029498275 4.777682988376295e-21)
(0.9577547671249527 -0.002092914335344358 1.061185932299171e-21)
(0.7460385868874198 -0.001093371972226009 0)
(1.113466661551071 -0.0707815815704896 0)
(1.007063842298107 -0.0006476347288193861 -2.175654155766545e-20)
(0.9015826788931773 -0.0005594756798342669 -1.082983862488273e-20)
(0.8438946904843027 0.007244888531847755 5.562800100174062e-21)
(1.010181405284888 0.001448820832734478 0)
(0.958277908553121 0.007913192136523011 1.584753224825547e-20)
(1.005783303376895 -0.0001966002880992027 -2.250576100389178e-20)
(1.025428085636291 0.001424386289537559 -2.495708908675057e-20)
(1.111904432639392 -0.006114560723438487 -4.888179199297873e-21)
(1.114128356896714 -0.005461695395905423 0)
(1.009842399943325 0.005610245569478019 0)
(1.025470492873665 -0.001540770200284022 0)
(0.9499475588849935 0.01083964981541361 -2.095823396400276e-20)
(1.017881654522514 0.01315135560044095 5.599717380925577e-20)
(1.084240503957544 0.004438409069161904 -2.323073962043257e-20)
(1.036842802958475 0.005206129725822458 0)
(1.108157271978731 -0.004682314151939345 1.809338037382983e-21)
(0.995525646315217 0.0009694402126350498 -2.229656629355659e-20)
(0.9797040369855538 0.001061478514749366 0)
(1.010667131240085 0.00186874347281194 4.704169468706217e-20)
(1.361931224945881 -0.3135052948264699 -1.119706583158825e-18)
(1.120916537156774 -0.04586108642235422 -1.109922266060351e-19)
(0.9760803105480805 0.01214293593682269 4.725154905326633e-20)
(0.7780750645917591 0.02203426311716125 -3.627874576327281e-20)
(1.221820276085547 0.04852183214697845 0)
(1.213583794706186 -0.1350121844164339 -1.480705445592507e-19)
(1.084898041469179 0.0003340226684181433 0)
(1.009497100552525 0.0009615926761853808 2.252906796469931e-20)
(-0.1889263910552037 -0.07206210459544067 0)
(0.9939716962165057 -0.004676132458414104 0)
(1.01233144575582 -0.02305830426571195 3.919868737383091e-20)
(0.7062103895529881 -0.01941105064394199 0)
(1.096801049327793 -0.01503670437293585 2.364257190605363e-21)
(1.03937007467068 0.00350890203740979 1.404133761133489e-20)
(0.6331574854540499 0.004176258211305877 0)
(1.444696907507179 -0.1235824037341366 0)
(0.9861471219403781 0.002207931513791804 -1.06902932960465e-20)
(1.069598544783684 -0.01499447988631406 0)
(1.038011215269274 0.0005846308181986657 2.072680497268501e-20)
(1.087551121932451 -0.003978970237885245 0)
(1.010148972704682 -0.004938750348683709 -1.257909204463319e-21)
(1.006227312087105 0.003247197846083476 0)
(1.011247075695699 -0.002964006988710998 -6.376251830068672e-22)
(1.003611759265672 -0.02002543393013428 0)
(1.034598638693292 -0.002774077125143533 1.862119577164458e-20)
(-0.2125314378246342 0.05253742923565172 2.795207193854392e-19)
(0.8190727066530705 0.03942060917910568 5.98653894674585e-20)
(1.005113357145351 0.002379105425670824 0)
(1.12286603599996 0.01908709248533184 -1.311457589802056e-20)
(1.109197638088885 0.009556692584600643 9.755465153009944e-21)
(1.053851696397749 -0.01293936078334756 -1.321796419052105e-19)
(0.9987741409617777 0.01039814430916837 -2.152893907397229e-22)
(1.085035091279191 -0.003497307358891985 0)
(1.18726374563769 0.04926344184510791 0)
(0.8350306473326012 -0.07360305657761496 4.608198263583012e-19)
(1.095464696727001 -0.0131527530468337 0)
(1.033037510049553 0.008053540231084554 -7.682502882801391e-21)
(1.042748696194708 0.005393639445473748 5.710687573584085e-21)
(1.050635446834628 -0.05940202259003103 -7.548376588196132e-21)
(1.139969753933429 -0.002637360807828434 1.718036046408324e-19)
(1.076836250977069 0.001924480344183586 0)
(0.9949173934283838 0.001841096611359452 0)
(0.9981101183418528 -0.02464142452539718 -2.367277775681892e-21)
(0.9915014415235853 0.003174167829148946 0)
(1.029117973647523 -0.03679523898110046 6.49905764284796e-20)
(1.293716009618079 -0.09887973749491649 0)
(1.044464576353843 -0.008208080919456864 -2.028848717122368e-21)
(0.986177133721574 0.01679840222588804 -9.028394832675239e-20)
(1.035222939255626 0.04269213567610346 -2.333137925825712e-21)
(-0.08862891772964931 0.1953367805998572 -1.710914028411488e-19)
(-0.06534682286675528 -0.2791289071300173 -1.342739881189246e-19)
(0.859559457276678 0.1107369124161349 0)
(0.2770598088600978 -0.009396980141773537 -2.882835846020248e-19)
(1.012764305585141 -0.0169453316220149 -1.085595339483991e-20)
(1.064021715210044 0.002654742006333676 -2.070235903848029e-20)
(0.9933283207037003 -0.02119741619660418 3.004560866338849e-20)
(1.026570235690943 -0.02718719412973578 2.613776521362729e-21)
(1.008723369103458 -0.03032472384598636 -6.692471567134405e-20)
(0.9887196173758681 0.004920240967127593 -3.492397845452679e-20)
(0.9939104716474551 0.004442929926139643 0)
(1.024373015380128 -0.001870661529764562 -3.54082797058465e-21)
(1.929747925414229 -0.155967495880501 1.065687206270352e-18)
(1.052630345901216 -0.01897547108282003 0)
(0.9966142244924755 0.007231104942250011 1.485459891275581e-20)
(1.003235132887959 -0.0004349867576823336 4.022236232709117e-20)
(1.177807127973434 0.1481412175950458 0)
(1.008188678858423 -0.02164270208001563 -2.838971176450457e-22)
(0.9531505745939383 0.001096872382505703 0)
(1.037850443229523 0.04171048064829662 0)
(1.292474433190348 0.1513217779851493 2.154102920224608e-19)
(1.07780073308812 -0.007238392541100651 2.320563739987066e-20)
(1.016934388234507 0.0320968440260101 4.526330168537132e-20)
(1.077642224212164 -0.001220127418827063 -2.236178004192619e-20)
(1.058439483582491 -0.02084954419635947 5.567233371882486e-22)
(-0.3866232941820661 -0.03572759458253777 0)
(0.9985586367902866 0.01276147913637902 0)
(0.1255911702112193 0.05682554175681506 -9.152919314142692e-20)
(1.005464932039178 0.02177374736738956 -4.006299512214031e-20)
(1.002724960286029 -0.01486411573600364 0)
(1.000373105944511 0.005539131678859834 -4.939372424080949e-21)
(1.081760727482776 -0.04213895099615851 0)
(0.995145283071323 -0.01916515598169144 -8.020391910164953e-21)
(1.092986197756187 -0.04557747490329567 0)
(1.440381280625425 0.1712414201366655 0)
(1.054391838965641 -0.0116741446281351 0)
(0.9919343129820991 -0.02355224981665712 -4.040653176408663e-20)
(0.9819317329811573 -0.02030165227468533 -2.785280689556475e-21)
(1.019899856484662 -0.02006229651073383 -2.067974658742982e-20)
(0.9971309376815868 0.01727360049624092 -5.419584243314343e-20)
(0.9955624676269631 0.009343246412868223 -1.447683760270392e-20)
(0.994772697555159 -0.02634320570636233 0)
(1.001854142900895 0.02538678235402122 1.889891920677441e-20)
(1.035187196960499 -0.02515033175800043 0)
(1.110408243084592 -0.03646332318318485 2.528743276833548e-19)
(0.9951056172784759 0.01695017051589258 4.490973204529837e-20)
(0.6150837978134445 -0.008683168626811828 0)
(1.153990487772532 0.1451462414792432 -1.018308414221493e-21)
(0.826084609625634 -0.09148772309333641 0)
(1.139270875380959 0.0726019972527305 -2.790374026408612e-19)
(1.313022341421563 -0.3875099917245456 1.274929247362641e-19)
(1.075440057817581 0.0659607416970161 -1.307462360377362e-20)
(1.010579537551413 -0.0293193049888485 0)
(0.9546869361559683 -0.2137081198984382 0)
(0.5368832460746722 0.1667117621400055 0)
(1.012658806700004 0.01382206176315873 1.009031669379208e-21)
(0.7135689493822063 -0.01135934264249041 0)
(0.9980446856587434 0.0170242769496594 3.449234513579536e-20)
(1.022844037111094 0.0001329872301940689 -2.670911695974557e-20)
(1.07914568671652 -0.00800863456447462 2.656646412808075e-21)
(1.04805570541697 -0.01351799684147828 2.768802200325788e-20)
(1.042973416647808 0.01092513100125719 0)
(1.053053051136367 0.02569379176815731 -9.540614237235366e-21)
(1.051659679861067 0.03515923919816859 -1.771133978770897e-20)
(0.9833668796503534 -0.02168898063801705 0)
(0.6249002410915532 0.005136134643631256 9.178595061953627e-20)
(0.8941746484544832 -0.005927330427554785 -8.853806399639715e-20)
(0.9093506247243717 0.005256637182884299 1.445822448972481e-20)
(0.6296292187690709 -0.006408742631424673 1.410658062291931e-20)
(0.9794793811685689 -0.0004429736571725444 2.551916790743246e-20)
(1.004423991223756 -0.01762564080141119 -3.312625319783206e-20)
(0.9707193255675487 -0.01356448835650412 -2.983575173208444e-20)
(1.085589418245896 0.001462803771889745 0)
(1.018635782077271 0.004914994248197176 1.08614800557207e-20)
(1.133337336298776 0.04810854290655875 1.345668236301618e-19)
(1.033398883567545 0.042906200906791 0)
(1.022237665936322 0.002636936436854818 0)
(1.580095948307845 -0.1674979183184877 4.357357944292775e-19)
(1.042751973249487 -0.02681088763808164 0)
(1.022619506947863 0.008565646656825318 -3.571666828212898e-20)
(1.086716117299175 -0.002137210255299031 0)
(0.4885137908768767 -0.01010562648974294 0)
(-0.03797258934584014 0.00283560351581339 0)
(0.9902526682199623 -0.02345471867086726 1.247569864289323e-20)
(1.299192305874663 -0.09633988210086528 3.668659965404679e-19)
(1.032473689142171 0.0392634714603557 0)
(1.022654856531322 0.003428802385922154 -2.188165015463404e-20)
(0.9363396863804759 -0.1656182685295563 -3.682006979544519e-21)
(1.253498845349578 0.07312516821251445 0)
(0.5992705109656642 0.732708367772524 0)
(1.30477453584938 0.1435063461582501 1.056903041333511e-19)
(1.672841901407599 -0.02608771960919291 0)
(1.072267885363663 0.1288178072121134 0)
(0.7322309786206489 0.003386772848217651 3.258465329689546e-21)
(1.049418509669067 0.04952875159943454 0)
(0.7207580226231494 0.1003857719478101 1.305333169687022e-19)
(0.9968255457026 -0.01625875077250766 3.585488002594821e-19)
(1.035674101032385 -0.03819593717048667 2.642262469173888e-20)
(-0.3692204282794486 -0.04469306730272999 0)
(1.07170054029631 -0.01612656811686852 0)
(1.092215368683669 -0.01718976812309912 0)
(0.6470400394063378 -0.5001411789348637 -2.509039429210291e-19)
(0.9919786900750658 1.975440881052894e-05 0)
(1.091807191815964 -0.0222120221794548 6.422368533193097e-22)
(1.189355420844105 0.1209265058335492 -2.044549192893909e-19)
(1.094984946107781 -0.03751033046285492 0)
(1.005033022721022 -0.02084384340908409 0)
(0.8025895518535633 -0.1976302998184679 -1.72758655193339e-19)
(0.8992346157196845 -0.1437142012054822 1.490659170093903e-19)
(1.031513847748718 0.01014904008676723 -2.076037107864429e-20)
(1.023131892222923 -0.009262615216379328 -4.291846887849767e-20)
(0.8668029299083762 -0.001666299031375557 -2.563112428314136e-22)
(1.501884249822929 -0.1940065676281245 0)
(1.3029678522785 0.1112681560977231 3.110057214760633e-20)
(1.242914203386675 -0.07987135729141769 -3.102743053099179e-21)
(1.095918104113766 -0.01881129797335303 -3.967823725423691e-20)
(1.042756113132796 -0.01795057356930656 2.953899267151029e-20)
(1.092799215493968 -0.03919277117125784 9.518039580409816e-20)
(1.032760433716349 0.01991752639581935 0)
(1.049170787211034 -0.03161064351957883 0)
(1.115850165865698 -0.009049440594800067 0)
(1.096341341028181 -0.02857187256748882 0)
(0.9980554068374203 0.0107185208989958 0)
(1.153903761076182 0.07586647072248477 9.320711112372167e-20)
(1.345664528100146 -0.1590690992474921 0)
(1.043019994563519 -0.02335227451528686 -2.288261965344804e-22)
(1.052004229870562 0.05500595128083653 0)
(1.009920423739316 0.01431921018676197 -3.823275509732201e-20)
(1.033492067091634 -0.008157177353321448 9.343208467266061e-21)
(1.088998455114885 0.01330707645305768 -3.17044026577284e-20)
(1.084195341377447 -0.02969599307620106 0)
(1.076241622294811 -0.005695146501417363 0)
(1.101150037213628 0.09282683518311946 -1.401513507053975e-18)
(0.9348425882708714 -0.1479669126444081 -7.111112630188496e-20)
(1.180041723225315 0.1084315573518169 1.117941046853785e-19)
(-0.4562417645583333 -0.01622539461629457 -2.931869930328989e-19)
(1.019323566781856 0.02959228083627891 -8.578120322077971e-20)
(1.006879915146708 -0.005793800082743163 0)
(-0.2615741576319399 0.01910380089395809 3.571450920928879e-19)
(-0.04644140183101043 0.3412034586644341 7.617638098667602e-21)
(0.9952175893216416 -0.006331357611921745 8.965480368694894e-20)
(0.185823703589541 -0.04161152777836834 1.3466168384628e-19)
(1.095840972528338 0.09008892451217214 1.48660176776922e-20)
(0.09339289869563813 -0.1066494515154705 -5.356687100674602e-20)
(1.107978530051538 0.003166848025120622 0)
(1.094307212326346 0.2509766620667397 0)
(1.021442275630348 0.02197746111896701 -1.680445688323811e-20)
(1.068210707255925 0.06130972198397203 0)
(1.02408136948072 0.02592618374691004 -8.808340912467628e-21)
(1.259974673115154 -0.5474113236196461 7.980829698936924e-19)
(-0.08312023094713702 -0.2184243968147323 2.101876075350711e-19)
(1.296333558006928 0.1115188336900059 -6.126189346679672e-19)
(1.124956714068775 0.0007089913157714823 0)
(1.134969619579491 0.1041373290145682 0)
(0.5212515924086962 0.07796877364573768 2.450535288731237e-19)
(1.022881667153954 -0.02094221214041833 9.567650771311614e-20)
(1.0053069962303 -0.02347004766213765 0)
(1.213424874672703 0.2716279110995068 -9.824885271208607e-20)
(1.249845770533886 0.1290712497427138 -1.509232718765168e-19)
(1.026495320978522 0.002677071105286672 1.587051739607096e-20)
(1.295597933811857 -0.08487857531018969 -4.954807174863129e-19)
(0.3082256754553311 -0.02228226603304787 2.810293339766094e-19)
(0.8350097872003976 -0.1501248023444052 6.885393754602353e-19)
(1.056887479920909 0.07151869969480382 1.086665309531181e-19)
(1.040625143397206 -0.005210965923824633 1.270761376476769e-21)
(1.000833057051577 0.01987767096690192 2.859453824979971e-20)