/*--------------------------------*- C++ -*----------------------------------*\
| =========                 |                                                 |
| \\      /  F ield         | OpenFOAM: The Open Source CFD Toolbox           |
|  \\    /   O peration     | Version:  2412                                  |
|   \\  /    A nd           | Website:  www.openfoam.com                      |
|    \\/     M anipulation  |                                                 |
\*---------------------------------------------------------------------------*/
FoamFile
{
    version     2.0;
    format      ascii;
    arch        "LSB;label=32;scalar=64";
    class       volVectorField;
    location    "0.8";
    object      cellDisplacement;
}
// * * * * * * * * * * * * * * * * * * * * * * * * * * * * * * * * * * * * * //

dimensions      [0 1 0 0 0 0 0];

internalField   nonuniform List<vector> 
256
(
(0.00211296 0.0210539 0)
(-0.00113708 0.0212041 0)
(-0.00397456 0.0198518 0)
(-0.00587585 0.0173188 0)
(-0.00654509 0.0139877 0)
(-0.00598565 0.0103024 0)
(-0.00445413 0.00664531 0)
(-0.00226759 0.00312779 0)
(0.00517437 0.0624946 0)
(-0.00391208 0.0626053 0)
(-0.0118179 0.0590164 0)
(-0.0173237 0.0524181 0)
(-0.0196685 0.0436031 0)
(-0.0188865 0.0338172 0)
(-0.0153938 0.0237946 0)
(-0.00985311 0.0139134 0)
(0.00699551 0.101888 0)
(-0.00717882 0.101693 0)
(-0.0194911 0.0962773 0)
(-0.0282342 0.0863822 0)
(-0.0324983 0.0734477 0)
(-0.0321824 0.0588785 0)
(-0.0278105 0.0438037 0)
(-0.0201214 0.0286766 0)
(0.00762673 0.139521 0)
(-0.011007 0.138717 0)
(-0.0271686 0.131703 0)
(-0.0389288 0.119344 0)
(-0.0452239 0.103254 0)
(-0.0459525 0.0851287 0)
(-0.0415681 0.0661564 0)
(-0.0328174 0.0468676 0)
(0.0070796 0.175452 0)
(-0.0155186 0.173995 0)
(-0.0351104 0.165588 0)
(-0.0496545 0.151287 0)
(-0.0581209 0.132936 0)
(-0.060292 0.11218 0)
(-0.0566198 0.0903581 0)
(-0.0478063 0.0679927 0)
(0.00526679 0.209933 0)
(-0.0208491 0.207697 0)
(-0.043507 0.198031 0)
(-0.0607233 0.182315 0)
(-0.0714085 0.162306 0)
(-0.0753864 0.139757 0)
(-0.0730086 0.11596 0)
(-0.0649615 0.0914277 0)
(0.00212289 0.243024 0)
(-0.027173 0.239913 0)
(-0.0526445 0.22921 0)
(-0.0723767 0.212386 0)
(-0.0853922 0.191284 0)
(-0.0914245 0.167542 0)
(-0.0908281 0.142492 0)
(-0.0843055 0.116636 0)
(-0.00256746 0.274924 0)
(-0.0346955 0.270779 0)
(-0.0627472 0.259143 0)
(-0.0849611 0.241537 0)
(-0.100332 0.219689 0)
(-0.108678 0.195263 0)
(-0.110281 0.169544 0)
(-0.105856 0.142959 0)
(-0.00895104 0.305535 0)
(-0.0436855 0.300353 0)
(-0.0741788 0.287905 0)
(-0.0987619 0.269671 0)
(-0.116602 0.247384 0)
(-0.127461 0.222628 0)
(-0.131613 0.196632 0)
(-0.129864 0.169844 0)
(-0.0174234 0.334975 0)
(-0.0545008 0.328662 0)
(-0.0872579 0.315428 0)
(-0.114229 0.296716 0)
(-0.134586 0.274158 0)
(-0.148177 0.24926 0)
(-0.155216 0.223276 0)
(-0.156576 0.196551 0)
(-0.0283344 0.363142 0)
(-0.0675733 0.355665 0)
(-0.102516 0.341652 0)
(-0.131819 0.322513 0)
(-0.154829 0.299719 0)
(-0.171326 0.274763 0)
(-0.181547 0.248803 0)
(-0.186404 0.222279 0)
(-0.0423448 0.389892 0)
(-0.0834654 0.381102 0)
(-0.120428 0.366245 0)
(-0.152098 0.346629 0)
(-0.17786 0.323627 0)
(-0.197516 0.298491 0)
(-0.211226 0.272434 0)
(-0.219956 0.245872 0)
(-0.0599964 0.414718 0)
(-0.102764 0.404404 0)
(-0.141624 0.388593 0)
(-0.175679 0.368358 0)
(-0.204351 0.344922 0)
(-0.227458 0.319431 0)
(-0.245054 0.292946 0)
(-0.258081 0.265854 0)
(-0.0822083 0.436767 0)
(-0.126242 0.424751 0)
(-0.166851 0.407747 0)
(-0.203283 0.386655 0)
(-0.235114 0.362344 0)
(-0.262006 0.335894 0)
(-0.283962 0.308206 0)
(-0.301686 0.279754 0)
(-0.10924 0.454171 0)
(-0.154026 0.440223 0)
(-0.19612 0.421753 0)
(-0.234947 0.399335 0)
(-0.270037 0.373649 0)
(-0.301085 0.345365 0)
(-0.327972 0.315228 0)
(-0.351073 0.283553 0)
(-0.139432 0.462023 0)
(-0.184047 0.446132 0)
(-0.226889 0.425944 0)
(-0.267547 0.401654 0)
(-0.305627 0.373495 0)
(-0.340764 0.34174 0)
(-0.37262 0.306694 0)
(-0.400887 0.268694 0)
(-0.00216519 0.00314813 0)
(-0.00420697 0.00575464 0)
(-0.00636544 0.00770041 0)
(-0.00879697 0.00895877 0)
(-0.011501 0.00940324 0)
(-0.0143931 0.00894178 0)
(-0.0172077 0.00749967 0)
(-0.0196145 0.00515316 0)
(-0.00972729 0.0137906 0)
(-0.0156579 0.0204399 0)
(-0.0220415 0.0251372 0)
(-0.0291216 0.0277597 0)
(-0.0368701 0.0280773 0)
(-0.044942 0.0258747 0)
(-0.0525956 0.0210668 0)
(-0.0589037 0.0139283 0)
(-0.0201585 0.0280294 0)
(-0.0297137 0.0374333 0)
(-0.0400205 0.0436135 0)
(-0.0514442 0.0465536 0)
(-0.0637348 0.0458555 0)
(-0.0762541 0.0412635 0)
(-0.0879121 0.0328081 0)
(-0.0969705 0.0209548 0)
(-0.0333761 0.0454649 0)
(-0.0462586 0.0562886 0)
(-0.0602662 0.0628353 0)
(-0.0756468 0.0650916 0)
(-0.0919368 0.0625811 0)
(-0.108211 0.0550805 0)
(-0.122879 0.0427264 0)
(-0.133906 0.0263209 0)
(-0.0492412 0.0655466 0)
(-0.0652776 0.0766271 0)
(-0.0826795 0.0824476 0)
(-0.101632 0.0831087 0)
(-0.121395 0.0781086 0)
(-0.140674 0.0672455 0)
(-0.157503 0.0508349 0)
(-0.169657 0.0300761 0)
(-0.0677269 0.0877825 0)
(-0.0866633 0.0979396 0)
(-0.107265 0.102119 0)
(-0.129317 0.10034 0)
(-0.151941 0.0922254 0)
(-0.173433 0.0776179 0)
(-0.191628 0.057108 0)
(-0.204349 0.0321921 0)
(-0.0887559 0.111548 0)
(-0.110457 0.119771 0)
(-0.133872 0.121371 0)
(-0.158622 0.116464 0)
(-0.183428 0.104674 0)
(-0.206406 0.0860576 0)
(-0.225315 0.0614462 0)
(-0.237971 0.032623 0)
(-0.112421 0.136273 0)
(-0.136601 0.141552 0)
(-0.162546 0.139772 0)
(-0.189421 0.131067 0)
(-0.215762 0.115174 0)
(-0.23953 0.0923682 0)
(-0.258475 0.0637308 0)
(-0.270702 0.0312022 0)
(-0.138782 0.161252 0)
(-0.165257 0.162717 0)
(-0.193243 0.156787 0)
(-0.221707 0.143713 0)
(-0.248909 0.123374 0)
(-0.272777 0.0962747 0)
(-0.291238 0.0636993 0)
(-0.302478 0.0277549 0)
(-0.168101 0.185764 0)
(-0.196512 0.182541 0)
(-0.226119 0.171789 0)
(-0.255505 0.153847 0)
(-0.282864 0.128806 0)
(-0.306168 0.0973804 0)
(-0.323474 0.0610628 0)
(-0.33329 0.0219463 0)
(-0.20071 0.208896 0)
(-0.230734 0.200209 0)
(-0.261339 0.183986 0)
(-0.290922 0.160749 0)
(-0.31762 0.13082 0)
(-0.339572 0.0951568 0)
(-0.355093 0.0553184 0)
(-0.363036 0.0133928 0)
(-0.237153 0.229406 0)
(-0.268238 0.214464 0)
(-0.299105 0.192201 0)
(-0.327952 0.163381 0)
(-0.353048 0.128525 0)
(-0.372813 0.0888348 0)
(-0.385925 0.0458473 0)
(-0.391646 0.00143544 0)
(-0.27806 0.245491 0)
(-0.309434 0.223493 0)
(-0.339496 0.194766 0)
(-0.366486 0.160218 0)
(-0.38891 0.120695 0)
(-0.405567 0.0773374 0)
(-0.415606 0.0316982 0)
(-0.418622 -0.0146396 0)
(-0.324165 0.254386 0)
(-0.354591 0.224622 0)
(-0.38236 0.189144 0)
(-0.405948 0.149198 0)
(-0.42439 0.105604 0)
(-0.436953 0.0594505 0)
(-0.443226 0.0119194 0)
(-0.443099 -0.0357132 0)
(-0.375567 0.251521 0)
(-0.402945 0.213674 0)
(-0.426039 0.172187 0)
(-0.444241 0.127906 0)
(-0.457218 0.0815094 0)
(-0.464735 0.0337531 0)
(-0.466685 -0.0145217 0)
(-0.463099 -0.0624715 0)
(-0.425293 0.228106 0)
(-0.445604 0.185322 0)
(-0.461623 0.140753 0)
(-0.473196 0.094828 0)
(-0.480212 0.0479901 0)
(-0.482604 0.000689962 0)
(-0.480347 -0.0466168 0)
(-0.473465 -0.0934746 0)
)
;

boundaryField
{
    walls
    {
        type            cellMotion;
        value           uniform (0 0 0);
    }
    cylinder
    {
        type            cellMotion;
        value           nonuniform List<vector> 
16
(
(-0.139432 0.462023 0)
(-0.184047 0.446132 0)
(-0.226889 0.425944 0)
(-0.267547 0.401654 0)
(-0.305627 0.373495 0)
(-0.340764 0.34174 0)
(-0.37262 0.306694 0)
(-0.400887 0.268694 0)
(-0.425293 0.228106 0)
(-0.445604 0.185322 0)
(-0.461623 0.140753 0)
(-0.473196 0.094828 0)
(-0.480212 0.0479901 0)
(-0.482604 0.000689962 0)
(-0.480347 -0.0466168 0)
(-0.473465 -0.0934746 0)
)
;
    }
    outlet
    {
        type            cellMotion;
        value           uniform (0 0 0);
    }
    inlet
    {
        type            cellMotion;
        value           nonuniform List<vector> 0();
    }
    frontAndBack
    {
        type            empty;
    }
    procBoundary3to1
    {
        type            processor;
        value           nonuniform List<vector> 
16
(
(0.00515929 0.0196427 0)
(0.0139338 0.0588905 0)
(0.0209577 0.0970051 0)
(0.0263247 0.133904 0)
(0.0300686 0.169706 0)
(0.0321939 0.204365 0)
(0.0326054 0.238034 0)
(0.0312042 0.270732 0)
(0.027731 0.302547 0)
(0.0219494 0.333331 0)
(0.0133693 0.363098 0)
(0.00143368 0.391689 0)
(-0.0146601 0.418658 0)
(-0.0357174 0.443123 0)
(-0.0624747 0.463106 0)
(-0.0934746 0.473465 0)
)
;
    }
    procBoundary3to2
    {
        type            processor;
        value           nonuniform List<vector> 
16
(
(-0.0210903 0.00211487 0)
(-0.062489 0.00517838 0)
(-0.101916 0.00699996 0)
(-0.139494 0.00763736 0)
(-0.175454 0.00708078 0)
(-0.209884 0.00527925 0)
(-0.24301 0.00211573 0)
(-0.274867 -0.00255452 0)
(-0.305512 -0.00896762 0)
(-0.334921 -0.0174111 0)
(-0.363112 -0.0283506 0)
(-0.389853 -0.042331 0)
(-0.414685 -0.0600048 0)
(-0.436756 -0.0821986 0)
(-0.454165 -0.109241 0)
(-0.462023 -0.139432 0)
)
;
    }
}


// ************************************************************************* //
