/*--------------------------------*- C++ -*----------------------------------*\
| =========                 |                                                 |
| \\      /  F ield         | OpenFOAM: The Open Source CFD Toolbox           |
|  \\    /   O peration     | Version:  2412                                  |
|   \\  /    A nd           | Website:  www.openfoam.com                      |
|    \\/     M anipulation  |                                                 |
\*---------------------------------------------------------------------------*/
FoamFile
{
    version     2.0;
    format      ascii;
    arch        "LSB;label=32;scalar=64";
    class       surfaceScalarField;
    location    "0.8";
    object      meshPhi;
}
// * * * * * * * * * * * * * * * * * * * * * * * * * * * * * * * * * * * * * //

dimensions      [0 3 -1 0 0 0 0];

internalField   nonuniform List<scalar> 
480
(
0.0019189
-0.00220109
0.00206328
-0.000804665
0.00198691
0.000522366
0.00180682
0.00154805
0.00158483
0.00214402
0.00136407
0.00238647
0.00104306
0.00232657
0.00201968
0.000790836
0.00563752
-0.00404087
0.00599943
-0.00159185
0.00576136
0.000761573
0.00528699
0.00260617
0.00471674
0.00374818
0.00411642
0.00425371
0.00318529
0.00413419
0.00353151
0.00246689
0.00900009
-0.005521
0.00945934
-0.00234251
0.00916808
0.000751915
0.00853913
0.00326186
0.00777674
0.00485726
0.00688676
0.00557114
0.00544271
0.00540335
0.00457552
0.00434375
0.011919
-0.00665832
0.0123348
-0.00294877
0.0122376
0.00069834
0.0115885
0.00364702
0.0107291
0.0055426
0.0096229
0.00639339
0.00780307
0.00619878
0.00524176
0.00644198
0.0145804
-0.00736622
0.0149407
-0.00334157
0.0150504
0.000619745
0.0144623
0.00381915
0.0135693
0.00587922
0.0123367
0.00681429
0.0103012
0.00663649
0.0056774
0.00882804
0.0170994
-0.00761398
0.0175777
-0.00343947
0.0177046
0.00059529
0.0171935
0.00384088
0.0163306
0.00595278
0.0150559
0.00691498
0.0129561
0.0067843
0.00593812
0.0115428
0.0195545
-0.00752091
0.02016
-0.00328502
0.0202576
0.000643399
0.0198329
0.00379462
0.0190307
0.00584908
0.0177638
0.00677913
0.0157573
0.00673018
0.00608744
0.0145802
0.0221122
-0.0072263
0.0226439
-0.00304833
0.0227516
0.000736389
0.0224102
0.00369409
0.0216917
0.00561973
0.0205401
0.00655
0.0187961
0.0066476
0.00626706
0.0180252
0.0246835
-0.00662772
0.0250882
-0.00262039
0.0252021
0.000901293
0.0249554
0.00359996
0.0244165
0.00540665
0.0235452
0.00636869
0.0222496
0.00663665
0.0065104
0.0219961
0.0271973
-0.00591848
0.0275224
-0.00221253
0.0276692
0.00102237
0.0276038
0.003524
0.0273605
0.00524313
0.0269404
0.00626368
0.0262704
0.00669871
0.00676275
0.0265909
0.0296611
-0.00514916
0.0299779
-0.00183449
0.0302686
0.00109968
0.0304976
0.00340112
0.03069
0.00506185
0.0308644
0.00614182
0.030926
0.00669934
0.00688562
0.0319073
0.0320923
-0.00407637
0.0324978
-0.00131777
0.0330416
0.00116292
0.0337112
0.00319448
0.0345001
0.00474477
0.0353575
0.00582693
0.0362111
0.00644853
0.00670742
0.0379339
0.0345121
-0.00271608
0.0350615
-0.000594097
0.0359655
0.00134751
0.03719
0.00298884
0.0386769
0.00430749
0.0403324
0.00527666
0.0420566
0.00587185
0.00613192
0.0445527
0.0368096
-0.0010375
0.0375975
0.00036152
0.0389452
0.00165456
0.0407641
0.00277703
0.0429869
0.00371086
0.0455314
0.0044316
0.0482668
0.00490359
0.00511457
0.0515887
0.0386703
0.000717462
0.0397652
0.00135297
0.0415615
0.00194665
0.0439781
0.00248032
0.0469366
0.00293947
0.0503664
0.0033185
0.0541321
0.00359862
0.00376579
0.0582098
0.0361706
0.0376325
0.0397449
0.0424248
0.0455722
0.0490796
0.0528003
0.0565442
0.00072416
-0.00217365
0.00081684
-0.00266525
0.000955915
-0.00345933
0.00102157
-0.00411971
0.00106471
-0.0044284
0.00114064
-0.00432271
0.00128713
-0.00369386
-0.00262148
0.00229653
-0.00472193
0.00261309
-0.00566111
0.00294965
-0.0069766
0.00309669
-0.00787346
0.00322969
-0.00821265
0.00347833
-0.00791269
0.00390424
-0.00671764
-0.00476023
0.00409502
-0.00744594
0.00456798
-0.00856791
0.00505707
-0.0101269
0.0052663
-0.0112372
0.00545605
-0.0115179
0.00590123
-0.0109262
0.00654669
-0.00921011
-0.00647889
0.00608301
-0.0101766
0.00650218
-0.0112003
0.00708906
-0.0125653
0.00750106
-0.0137205
0.00779355
-0.0140871
0.00840203
-0.0132559
0.00918083
-0.0110447
-0.00773658
0.00836764
-0.012922
0.00866301
-0.0139077
0.00911577
-0.014889
0.00973259
-0.0156548
0.0102963
-0.0159791
0.0109971
-0.0150364
0.0117935
-0.0123794
-0.00857487
0.0110205
-0.0154147
0.011355
-0.0164219
0.0115968
-0.0172166
0.0121988
-0.017513
0.0129646
-0.0174182
0.0136739
-0.0161506
0.0143948
-0.0131482
-0.00902414
0.0140199
-0.0175024
0.0144585
-0.0184178
0.0146624
-0.0190218
0.0151368
-0.0190088
0.0158192
-0.0184258
0.0164376
-0.0167231
0.017044
-0.0134863
-0.00921249
0.0173994
-0.0190986
0.0178316
-0.0198051
0.018056
-0.0201166
0.0183847
-0.019755
0.0188373
-0.018737
0.0192802
-0.016684
0.0197641
-0.0133208
-0.00909411
0.0211962
-0.0201001
0.021485
-0.0205211
0.021623
-0.0204518
0.0217759
-0.0197178
0.0219741
-0.018309
0.0222055
-0.0160196
0.022539
-0.0127036
-0.00867842
0.0254847
-0.0204095
0.0254781
-0.0205078
0.0254055
-0.0200381
0.0253098
-0.0189421
0.0252275
-0.0172541
0.0252158
-0.0148902
0.0253398
-0.011774
-0.00809496
0.0303854
-0.0199224
0.0299069
-0.0197487
0.0294309
-0.0188781
0.0289497
-0.0174552
0.0285279
-0.0155806
0.0282441
-0.0132671
0.028131
-0.0104744
-0.00729482
0.0359316
-0.0183709
0.0347884
-0.0180046
0.0336978
-0.016794
0.0326953
-0.0151335
0.0318704
-0.0132061
0.031274
-0.0110643
0.0309367
-0.00868283
-0.00607988
0.0419937
-0.0154646
0.04006
-0.0149951
0.0381985
-0.0136001
0.0365689
-0.0118904
0.0352587
-0.0101136
0.0342887
-0.00827603
0.0337334
-0.0063819
-0.00441273
0.0484078
-0.0110155
0.0455652
-0.0105216
0.0428208
-0.00919646
0.0404603
-0.00775306
0.0385671
-0.00634343
0.0371825
-0.00497709
0.0363558
-0.00362667
-0.00227795
0.0542635
-0.00462506
0.0503253
-0.00419087
0.0467031
-0.00344204
0.0436342
-0.00268675
0.0411974
-0.0019623
0.0394356
-0.0012615
0.0383828
-0.000578443
9.15181e-05
0.0517128
0.0471944
0.0433082
0.0401498
0.0377604
0.0361637
0.035371
)
;

boundaryField
{
    walls
    {
        type            calculated;
        value           uniform 0;
    }
    cylinder
    {
        type            calculated;
        value           nonuniform List<scalar> 
16
(
8.03875e-12
-9.87027e-12
-3.27399e-12
5.95697e-12
-1.67745e-11
1.21528e-11
1.88197e-11
-9.52623e-12
9.52745e-12
-1.88171e-11
-1.21524e-11
1.6776e-11
-5.95619e-12
3.27514e-12
9.87054e-12
-8.03828e-12
)
;
    }
    outlet
    {
        type            calculated;
        value           uniform 0;
    }
    inlet
    {
        type            calculated;
        value           nonuniform List<scalar> 0();
    }
    frontAndBack
    {
        type            empty;
    }
    procBoundary3to1
    {
        type            processor;
        value           nonuniform List<scalar> 
16
(
-0.00167782
-0.00498441
-0.00814224
-0.0111592
-0.0139753
-0.0164925
-0.0189455
-0.0215771
-0.0242528
-0.0268579
-0.0294003
-0.0318983
-0.0343455
-0.0365924
-0.0382958
-0.0354169
)
;
    }
    procBoundary3to2
    {
        type            processor;
        value           nonuniform List<scalar> 
16
(
0.00156331
0.00461822
0.00751551
0.0102986
0.0129294
0.0153241
0.0177137
0.0203274
0.0230192
0.0256708
0.0282995
0.0309315
0.0335779
0.0361002
0.0380763
0.0353718
)
;
    }
}


// ************************************************************************* //
