/*--------------------------------*- C++ -*----------------------------------*\
| =========                 |                                                 |
| \\      /  F ield         | OpenFOAM: The Open Source CFD Toolbox           |
|  \\    /   O peration     | Version:  2412                                  |
|   \\  /    A nd           | Website:  www.openfoam.com                      |
|    \\/     M anipulation  |                                                 |
\*---------------------------------------------------------------------------*/
FoamFile
{
    version     2.0;
    format      ascii;
    arch        "LSB;label=32;scalar=64";
    class       pointVectorField;
    location    "0.8";
    object      pointDisplacement;
}
// * * * * * * * * * * * * * * * * * * * * * * * * * * * * * * * * * * * * * //

dimensions      [0 1 0 0 0 0 0];

internalField   nonuniform List<vector> 
578
(
(0 0 0)
(0 0 0)
(0 0 0)
(0 0 0)
(0 0 0)
(0 0 0)
(0 0 0)
(0 0 0)
(0 0 0)
(0.00662178 0.0405601 0)
(0.000572734 0.0418964 0)
(-0.00521458 0.0407352 0)
(-0.00976764 0.0372145 0)
(-0.0123807 0.0318812 0)
(-0.0127966 0.0254562 0)
(-0.0111931 0.0186445 0)
(-0.00798635 0.0118517 0)
(-0.00585378 0.00828349 0)
(0.011787 0.0801106 0)
(0.00027879 0.0822232 0)
(-0.010605 0.0799569 0)
(-0.0192337 0.0735809 0)
(-0.0244558 0.0640125 0)
(-0.025835 0.0524734 0)
(-0.0235898 0.0400946 0)
(-0.0183071 0.0275545 0)
(-0.0147727 0.0208339 0)
(0.0154921 0.118121 0)
(-0.000886374 0.120504 0)
(-0.0162178 0.11715 0)
(-0.028471 0.108478 0)
(-0.0362432 0.0956549 0)
(-0.0389902 0.0802188 0)
(-0.0369047 0.0635242 0)
(-0.030605 0.0464046 0)
(-0.0263919 0.0369515 0)
(0.017785 0.154687 0)
(-0.00295464 0.156966 0)
(-0.0222091 0.152547 0)
(-0.0377298 0.142026 0)
(-0.0480019 0.126751 0)
(-0.0524222 0.108418 0)
(-0.0511369 0.0884954 0)
(-0.0447373 0.0678881 0)
(-0.0405572 0.0561371 0)
(0.0186569 0.189903 0)
(-0.00600906 0.19181 0)
(-0.0287557 0.186369 0)
(-0.0472623 0.174346 0)
(-0.0599948 0.157253 0)
(-0.0663255 0.136838 0)
(-0.0663561 0.114607 0)
(-0.0606375 0.0914888 0)
(-0.0571601 0.077849 0)
(0.0180468 0.223877 0)
(-0.010165 0.225179 0)
(-0.0360538 0.218749 0)
(-0.0573256 0.205522 0)
(-0.0724916 0.187112 0)
(-0.0809248 0.165264 0)
(-0.0826906 0.141482 0)
(-0.0783153 0.116688 0)
(-0.076148 0.101517 0)
(0.0158366 0.256714 0)
(-0.0155878 0.257193 0)
(-0.044326 0.249793 0)
(-0.0681944 0.235602 0)
(-0.0857801 0.21626 0)
(-0.0964765 0.193484 0)
(-0.10033 0.168753 0)
(-0.0978548 0.142967 0)
(-0.0975334 0.126541 0)
(0.0118455 0.288468 0)
(-0.022486 0.287927 0)
(-0.0538378 0.279572 0)
(-0.0801734 0.264593 0)
(-0.100177 0.244602 0)
(-0.113286 0.221278 0)
(-0.119533 0.196057 0)
(-0.119437 0.169801 0)
(-0.121422 0.152298 0)
(0.00581492 0.319128 0)
(-0.0311525 0.317407 0)
(-0.0649166 0.308111 0)
(-0.0936168 0.292455 0)
(-0.116056 0.272011 0)
(-0.131722 0.24839 0)
(-0.140638 0.222986 0)
(-0.143345 0.196626 0)
(-0.148017 0.178106 0)
(-0.00262398 0.348664 0)
(-0.041971 0.345633 0)
(-0.0779723 0.335372 0)
(-0.108964 0.319099 0)
(-0.133875 0.298301 0)
(-0.152242 0.274504 0)
(-0.164084 0.249058 0)
(-0.169956 0.222771 0)
(-0.177634 0.203171 0)
(-0.0139855 0.37698 0)
(-0.0554432 0.372469 0)
(-0.0935055 0.361183 0)
(-0.126722 0.344278 0)
(-0.154158 0.323143 0)
(-0.175391 0.299175 0)
(-0.190416 0.273651 0)
(-0.199794 0.247383 0)
(-0.210746 0.226464 0)
(-0.0289111 0.40376 0)
(-0.0721567 0.397545 0)
(-0.112079 0.3851 0)
(-0.147462 0.367471 0)
(-0.1775 0.345901 0)
(-0.201799 0.321639 0)
(-0.220318 0.295849 0)
(-0.233579 0.269306 0)
(-0.248015 0.246566 0)
(-0.0481678 0.428333 0)
(-0.0928178 0.420172 0)
(-0.134378 0.406384 0)
(-0.171861 0.38785 0)
(-0.204605 0.365584 0)
(-0.232228 0.340666 0)
(-0.254614 0.31414 0)
(-0.272182 0.286716 0)
(-0.290225 0.261345 0)
(-0.0724396 0.449304 0)
(-0.117949 0.438986 0)
(-0.16082 0.423625 0)
(-0.200302 0.403881 0)
(-0.23584 0.380507 0)
(-0.267049 0.354329 0)
(-0.293739 0.326194 0)
(-0.316146 0.296713 0)
(-0.337907 0.267337 0)
(-0.10121 0.4632 0)
(-0.146729 0.450642 0)
(-0.190303 0.433516 0)
(-0.231401 0.412176 0)
(-0.26956 0.38704 0)
(-0.304398 0.358573 0)
(-0.335633 0.327271 0)
(-0.363169 0.293558 0)
(-0.388187 0.257994 0)
(-0.116734 0.468873 0)
(-0.16213 0.455173 0)
(-0.205964 0.43709 0)
(-0.247815 0.414797 0)
(-0.287279 0.38851 0)
(-0.323976 0.358481 0)
(-0.357553 0.325 0)
(-0.387687 0.288388 0)
(-0.414087 0.249 0)
(0 0 0)
(0 0 0)
(0 0 0)
(0 0 0)
(0 0 0)
(0 0 0)
(0 0 0)
(0 0 0)
(0 0 0)
(0.00662178 0.0405601 0)
(0.000572734 0.0418964 0)
(-0.00521458 0.0407352 0)
(-0.00976764 0.0372145 0)
(-0.0123807 0.0318812 0)
(-0.0127966 0.0254562 0)
(-0.0111931 0.0186445 0)
(-0.00798635 0.0118517 0)
(-0.00585378 0.00828349 0)
(0.011787 0.0801106 0)
(0.00027879 0.0822232 0)
(-0.010605 0.0799569 0)
(-0.0192337 0.0735809 0)
(-0.0244558 0.0640125 0)
(-0.025835 0.0524734 0)
(-0.0235898 0.0400946 0)
(-0.0183071 0.0275545 0)
(-0.0147727 0.0208339 0)
(0.0154921 0.118121 0)
(-0.000886374 0.120504 0)
(-0.0162178 0.11715 0)
(-0.028471 0.108478 0)
(-0.0362432 0.0956549 0)
(-0.0389902 0.0802188 0)
(-0.0369047 0.0635242 0)
(-0.030605 0.0464046 0)
(-0.0263919 0.0369515 0)
(0.017785 0.154687 0)
(-0.00295464 0.156966 0)
(-0.0222091 0.152547 0)
(-0.0377298 0.142026 0)
(-0.0480019 0.126751 0)
(-0.0524222 0.108418 0)
(-0.0511369 0.0884954 0)
(-0.0447373 0.0678881 0)
(-0.0405572 0.0561371 0)
(0.0186569 0.189903 0)
(-0.00600906 0.19181 0)
(-0.0287557 0.186369 0)
(-0.0472623 0.174346 0)
(-0.0599948 0.157253 0)
(-0.0663255 0.136838 0)
(-0.0663561 0.114607 0)
(-0.0606375 0.0914888 0)
(-0.0571601 0.077849 0)
(0.0180468 0.223877 0)
(-0.010165 0.225179 0)
(-0.0360538 0.218749 0)
(-0.0573256 0.205522 0)
(-0.0724916 0.187112 0)
(-0.0809248 0.165264 0)
(-0.0826906 0.141482 0)
(-0.0783153 0.116688 0)
(-0.076148 0.101517 0)
(0.0158366 0.256714 0)
(-0.0155878 0.257193 0)
(-0.044326 0.249793 0)
(-0.0681944 0.235602 0)
(-0.0857801 0.21626 0)
(-0.0964765 0.193484 0)
(-0.10033 0.168753 0)
(-0.0978548 0.142967 0)
(-0.0975334 0.126541 0)
(0.0118455 0.288468 0)
(-0.022486 0.287927 0)
(-0.0538378 0.279572 0)
(-0.0801734 0.264593 0)
(-0.100177 0.244602 0)
(-0.113286 0.221278 0)
(-0.119533 0.196057 0)
(-0.119437 0.169801 0)
(-0.121422 0.152298 0)
(0.00581492 0.319128 0)
(-0.0311525 0.317407 0)
(-0.0649166 0.308111 0)
(-0.0936168 0.292455 0)
(-0.116056 0.272011 0)
(-0.131722 0.24839 0)
(-0.140638 0.222986 0)
(-0.143345 0.196626 0)
(-0.148017 0.178106 0)
(-0.00262398 0.348664 0)
(-0.041971 0.345633 0)
(-0.0779723 0.335372 0)
(-0.108964 0.319099 0)
(-0.133875 0.298301 0)
(-0.152242 0.274504 0)
(-0.164084 0.249058 0)
(-0.169956 0.222771 0)
(-0.177634 0.203171 0)
(-0.0139855 0.37698 0)
(-0.0554432 0.372469 0)
(-0.0935055 0.361183 0)
(-0.126722 0.344278 0)
(-0.154158 0.323143 0)
(-0.175391 0.299175 0)
(-0.190416 0.273651 0)
(-0.199794 0.247383 0)
(-0.210746 0.226464 0)
(-0.0289111 0.40376 0)
(-0.0721567 0.397545 0)
(-0.112079 0.3851 0)
(-0.147462 0.367471 0)
(-0.1775 0.345901 0)
(-0.201799 0.321639 0)
(-0.220318 0.295849 0)
(-0.233579 0.269306 0)
(-0.248015 0.246566 0)
(-0.0481678 0.428333 0)
(-0.0928178 0.420172 0)
(-0.134378 0.406384 0)
(-0.171861 0.38785 0)
(-0.204605 0.365584 0)
(-0.232228 0.340666 0)
(-0.254614 0.31414 0)
(-0.272182 0.286716 0)
(-0.290225 0.261345 0)
(-0.0724396 0.449304 0)
(-0.117949 0.438986 0)
(-0.16082 0.423625 0)
(-0.200302 0.403881 0)
(-0.23584 0.380507 0)
(-0.267049 0.354329 0)
(-0.293739 0.326194 0)
(-0.316146 0.296713 0)
(-0.337907 0.267337 0)
(-0.10121 0.4632 0)
(-0.146729 0.450642 0)
(-0.190303 0.433516 0)
(-0.231401 0.412176 0)
(-0.26956 0.38704 0)
(-0.304398 0.358573 0)
(-0.335633 0.327271 0)
(-0.363169 0.293558 0)
(-0.388187 0.257994 0)
(-0.116734 0.468873 0)
(-0.16213 0.455173 0)
(-0.205964 0.43709 0)
(-0.247815 0.414797 0)
(-0.287279 0.38851 0)
(-0.323976 0.358481 0)
(-0.357553 0.325 0)
(-0.387687 0.288388 0)
(-0.414087 0.249 0)
(0 0 0)
(0 0 0)
(0 0 0)
(0 0 0)
(0 0 0)
(0 0 0)
(0 0 0)
(0 0 0)
(-0.00791455 0.0107615 0)
(-0.0120475 0.0147533 0)
(-0.0165645 0.0173978 0)
(-0.0215596 0.018569 0)
(-0.0269205 0.0181017 0)
(-0.0322894 0.0158783 0)
(-0.0371008 0.011945 0)
(-0.0405643 0.00662034 0)
(-0.0187966 0.0249184 0)
(-0.0268448 0.0316643 0)
(-0.0356453 0.0357826 0)
(-0.0452852 0.0370855 0)
(-0.0554498 0.0352972 0)
(-0.0654361 0.0302851 0)
(-0.0741213 0.0222193 0)
(-0.0801106 0.011787 0)
(-0.0323641 0.0418131 0)
(-0.0440559 0.0500606 0)
(-0.0568376 0.0545466 0)
(-0.0706882 0.0550481 0)
(-0.0850392 0.0512257 0)
(-0.0988308 0.043 0)
(-0.110447 0.0307279 0)
(-0.118113 0.0154942 0)
(-0.0485281 0.0610008 0)
(-0.0636161 0.0695755 0)
(-0.0800535 0.073399 0)
(-0.097655 0.0722527 0)
(-0.115565 0.0657847 0)
(-0.132339 0.0539996 0)
(-0.14602 0.0375097 0)
(-0.154669 0.0177889 0)
(-0.0672192 0.0820016 0)
(-0.0854701 0.0898146 0)
(-0.105226 0.0920362 0)
(-0.126079 0.0884776 0)
(-0.146878 0.0788292 0)
(-0.165837 0.0632254 0)
(-0.180819 0.0425674 0)
(-0.189876 0.0186617 0)
(-0.0883933 0.104294 0)
(-0.109567 0.110336 0)
(-0.132276 0.110108 0)
(-0.155841 0.103458 0)
(-0.178825 0.0901713 0)
(-0.199227 0.0705767 0)
(-0.214853 0.0458513 0)
(-0.223841 0.0180522 0)
(-0.112053 0.127325 0)
(-0.135875 0.130655 0)
(-0.161127 0.127204 0)
(-0.186828 0.116876 0)
(-0.21131 0.0995926 0)
(-0.232466 0.0759148 0)
(-0.248152 0.0472543 0)
(-0.256673 0.0158418 0)
(-0.138261 0.15049 0)
(-0.164423 0.150247 0)
(-0.191746 0.14287 0)
(-0.218975 0.128361 0)
(-0.244277 0.106817 0)
(-0.265541 0.0790268 0)
(-0.28076 0.0465951 0)
(-0.288423 0.0118502 0)
(-0.167161 0.173112 0)
(-0.195298 0.168498 0)
(-0.224167 0.156567 0)
(-0.252277 0.137459 0)
(-0.277715 0.111472 0)
(-0.298452 0.0796065 0)
(-0.312655 0.0436091 0)
(-0.319081 0.00581892 0)
(-0.199015 0.194396 0)
(-0.228697 0.184669 0)
(-0.258501 0.167622 0)
(-0.286764 0.143574 0)
(-0.311596 0.113047 0)
(-0.331115 0.0772253 0)
(-0.343757 0.0379184 0)
(-0.348617 -0.00261971 0)
(-0.234215 0.213285 0)
(-0.264882 0.197748 0)
(-0.294866 0.175102 0)
(-0.322427 0.145879 0)
(-0.345806 0.110832 0)
(-0.363389 0.0712777 0)
(-0.373956 0.0289822 0)
(-0.376936 -0.0139799 0)
(-0.273233 0.228251 0)
(-0.304104 0.206256 0)
(-0.333304 0.177654 0)
(-0.359146 0.143203 0)
(-0.380129 0.103835 0)
(-0.395015 0.0609096 0)
(-0.402978 0.0160636 0)
(-0.403722 -0.0289041 0)
(-0.316585 0.237027 0)
(-0.346518 0.208018 0)
(-0.373627 0.173327 0)
(-0.396486 0.133911 0)
(-0.414 0.0907445 0)
(-0.425373 0.0450712 0)
(-0.430163 -0.00171184 0)
(-0.428307 -0.0481614 0)
(-0.364363 0.236058 0)
(-0.391553 0.199888 0)
(-0.414715 0.159574 0)
(-0.433007 0.11601 0)
(-0.445868 0.0700314 0)
(-0.452931 0.0226051 0)
(-0.454047 -0.0252352 0)
(-0.449292 -0.0724354 0)
(-0.412495 0.219568 0)
(-0.434177 0.177877 0)
(-0.451371 0.133809 0)
(-0.463786 0.0879539 0)
(-0.471239 0.0408909 0)
(-0.473622 -0.00675584 0)
(-0.470916 -0.0543392 0)
(-0.463197 -0.101209 0)
(-0.436499 0.207213 0)
(-0.454708 0.163431 0)
(-0.468537 0.118075 0)
(-0.477855 0.0715814 0)
(-0.48257 0.0243988 0)
(-0.482638 -0.0230188 0)
(-0.478057 -0.0702148 0)
(-0.468873 -0.116734 0)
(0 0 0)
(0 0 0)
(0 0 0)
(0 0 0)
(0 0 0)
(0 0 0)
(0 0 0)
(0 0 0)
(-0.00791455 0.0107615 0)
(-0.0120475 0.0147533 0)
(-0.0165645 0.0173978 0)
(-0.0215596 0.018569 0)
(-0.0269205 0.0181017 0)
(-0.0322894 0.0158783 0)
(-0.0371008 0.011945 0)
(-0.0405643 0.00662034 0)
(-0.0187966 0.0249184 0)
(-0.0268448 0.0316643 0)
(-0.0356453 0.0357826 0)
(-0.0452852 0.0370855 0)
(-0.0554498 0.0352972 0)
(-0.0654361 0.0302851 0)
(-0.0741213 0.0222193 0)
(-0.0801106 0.011787 0)
(-0.0323641 0.0418131 0)
(-0.0440559 0.0500606 0)
(-0.0568376 0.0545466 0)
(-0.0706882 0.0550481 0)
(-0.0850392 0.0512257 0)
(-0.0988308 0.043 0)
(-0.110447 0.0307279 0)
(-0.118113 0.0154942 0)
(-0.0485281 0.0610008 0)
(-0.0636161 0.0695755 0)
(-0.0800535 0.073399 0)
(-0.097655 0.0722527 0)
(-0.115565 0.0657847 0)
(-0.132339 0.0539996 0)
(-0.14602 0.0375097 0)
(-0.154669 0.0177889 0)
(-0.0672192 0.0820016 0)
(-0.0854701 0.0898146 0)
(-0.105226 0.0920362 0)
(-0.126079 0.0884776 0)
(-0.146878 0.0788292 0)
(-0.165837 0.0632254 0)
(-0.180819 0.0425674 0)
(-0.189876 0.0186617 0)
(-0.0883933 0.104294 0)
(-0.109567 0.110336 0)
(-0.132276 0.110108 0)
(-0.155841 0.103458 0)
(-0.178825 0.0901713 0)
(-0.199227 0.0705767 0)
(-0.214853 0.0458513 0)
(-0.223841 0.0180522 0)
(-0.112053 0.127325 0)
(-0.135875 0.130655 0)
(-0.161127 0.127204 0)
(-0.186828 0.116876 0)
(-0.21131 0.0995926 0)
(-0.232466 0.0759148 0)
(-0.248152 0.0472543 0)
(-0.256673 0.0158418 0)
(-0.138261 0.15049 0)
(-0.164423 0.150247 0)
(-0.191746 0.14287 0)
(-0.218975 0.128361 0)
(-0.244277 0.106817 0)
(-0.265541 0.0790268 0)
(-0.28076 0.0465951 0)
(-0.288423 0.0118502 0)
(-0.167161 0.173112 0)
(-0.195298 0.168498 0)
(-0.224167 0.156567 0)
(-0.252277 0.137459 0)
(-0.277715 0.111472 0)
(-0.298452 0.0796065 0)
(-0.312655 0.0436091 0)
(-0.319081 0.00581892 0)
(-0.199015 0.194396 0)
(-0.228697 0.184669 0)
(-0.258501 0.167622 0)
(-0.286764 0.143574 0)
(-0.311596 0.113047 0)
(-0.331115 0.0772253 0)
(-0.343757 0.0379184 0)
(-0.348617 -0.00261971 0)
(-0.234215 0.213285 0)
(-0.264882 0.197748 0)
(-0.294866 0.175102 0)
(-0.322427 0.145879 0)
(-0.345806 0.110832 0)
(-0.363389 0.0712777 0)
(-0.373956 0.0289822 0)
(-0.376936 -0.0139799 0)
(-0.273233 0.228251 0)
(-0.304104 0.206256 0)
(-0.333304 0.177654 0)
(-0.359146 0.143203 0)
(-0.380129 0.103835 0)
(-0.395015 0.0609096 0)
(-0.402978 0.0160636 0)
(-0.403722 -0.0289041 0)
(-0.316585 0.237027 0)
(-0.346518 0.208018 0)
(-0.373627 0.173327 0)
(-0.396486 0.133911 0)
(-0.414 0.0907445 0)
(-0.425373 0.0450712 0)
(-0.430163 -0.00171184 0)
(-0.428307 -0.0481614 0)
(-0.364363 0.236058 0)
(-0.391553 0.199888 0)
(-0.414715 0.159574 0)
(-0.433007 0.11601 0)
(-0.445868 0.0700314 0)
(-0.452931 0.0226051 0)
(-0.454047 -0.0252352 0)
(-0.449292 -0.0724354 0)
(-0.412495 0.219568 0)
(-0.434177 0.177877 0)
(-0.451371 0.133809 0)
(-0.463786 0.0879539 0)
(-0.471239 0.0408909 0)
(-0.473622 -0.00675584 0)
(-0.470916 -0.0543392 0)
(-0.463197 -0.101209 0)
(-0.436499 0.207213 0)
(-0.454708 0.163431 0)
(-0.468537 0.118075 0)
(-0.477855 0.0715814 0)
(-0.48257 0.0243988 0)
(-0.482638 -0.0230188 0)
(-0.478057 -0.0702148 0)
(-0.468873 -0.116734 0)
)
;

boundaryField
{
    walls
    {
        type            fixedValue;
        value           uniform (0 0 0);
    }
    cylinder
    {
        type            solidBodyMotionDisplacement;
        value           nonuniform List<vector> 
34
(
(-0.116734 0.468873 0)
(-0.116734 0.468873 0)
(-0.16213 0.455173 0)
(-0.16213 0.455173 0)
(-0.205964 0.43709 0)
(-0.205964 0.43709 0)
(-0.247815 0.414797 0)
(-0.247815 0.414797 0)
(-0.287279 0.38851 0)
(-0.287279 0.38851 0)
(-0.323976 0.358481 0)
(-0.323976 0.358481 0)
(-0.357553 0.325 0)
(-0.357553 0.325 0)
(-0.387687 0.288388 0)
(-0.387687 0.288388 0)
(-0.414087 0.249 0)
(-0.414087 0.249 0)
(-0.436499 0.207213 0)
(-0.436499 0.207213 0)
(-0.454708 0.163431 0)
(-0.454708 0.163431 0)
(-0.468537 0.118075 0)
(-0.468537 0.118075 0)
(-0.477855 0.0715814 0)
(-0.477855 0.0715814 0)
(-0.48257 0.0243988 0)
(-0.48257 0.0243988 0)
(-0.482638 -0.0230188 0)
(-0.482638 -0.0230188 0)
(-0.478057 -0.0702148 0)
(-0.478057 -0.0702148 0)
(-0.468873 -0.116734 0)
(-0.468873 -0.116734 0)
)
;
        solidBodyMotionFunction oscillatingRotatingMotion;
        oscillatingRotatingMotionCoeffs
        {
            origin          ( 0 0 0 );
            axis            ( 0 0 1 );
            omega           1.5;
            amplitude       ( 0 0 30 );
        }
    }
    outlet
    {
        type            fixedValue;
        value           uniform (0 0 0);
    }
    inlet
    {
        type            fixedValue;
        value           nonuniform List<vector> 0();
    }
    frontAndBack
    {
        type            empty;
    }
    procBoundary3to1
    {
        type            processor;
    }
    procBoundary3to2
    {
        type            processor;
    }
}


// ************************************************************************* //
