/*--------------------------------*- C++ -*----------------------------------*\
| =========                 |                                                 |
| \\      /  F ield         | OpenFOAM: The Open Source CFD Toolbox           |
|  \\    /   O peration     | Version:  2412                                  |
|   \\  /    A nd           | Website:  www.openfoam.com                      |
|    \\/     M anipulation  |                                                 |
\*---------------------------------------------------------------------------*/
FoamFile
{
    version     2.0;
    format      ascii;
    arch        "LSB;label=32;scalar=64";
    class       volScalarField;
    location    "1420.5";
    object      yPlus;
}
// * * * * * * * * * * * * * * * * * * * * * * * * * * * * * * * * * * * * * //

dimensions      [0 0 0 0 0 0 0];

internalField   uniform 0;

boundaryField
{
    FrontBack
    {
        type            empty;
    }
    Top
    {
        type            calculated;
        value           nonuniform List<scalar> 
15
(
142.2713446680181
133.5573535680867
138.0668685448098
144.3920626288245
159.7655302161191
131.3677227011119
140.1141113228269
135.3489502043095
153.4327001189501
135.7433059567505
136.0870474379886
136.7768281751178
125.2382967677252
132.9007095262701
123.9479976781193
)
;
    }
    In
    {
        type            calculated;
        value           uniform 0;
    }
    Bottom
    {
        type            calculated;
        value           nonuniform List<scalar> 
15
(
155.5660116868412
158.1112878517097
141.1006403798955
142.0788052397455
141.1873809872634
148.4547357869415
142.7113750963032
143.1703223166004
143.4233468933849
134.0609973191566
125.7373386812714
141.5574012007248
122.4130871378852
123.4915834739588
124.1444865263932
)
;
    }
    Out
    {
        type            calculated;
        value           uniform 0;
    }
    circle
    {
        type            calculated;
        value           nonuniform List<scalar> 
32
(
56.31453599383126
21.8968204384456
65.28050560277228
24.6208876541351
19.47882425761152
56.23533540443997
56.77202719815637
24.17353426101662
22.21866185557784
65.49852224803874
40.14645628332909
63.01020309884257
50.37872475129689
14.42530778652694
23.33582967456824
19.42529915223553
38.96005257277713
59.65525322719259
61.05851051609688
25.94092849929008
65.76360615889284
63.77651022684495
63.00245162823572
59.8729918987865
64.14413536670816
46.03188427765828
66.40682320604925
32.17894923702452
37.91951447224778
55.6933572451317
21.29254532571212
43.0897123815141
)
;
    }
}


// ************************************************************************* //
