/*--------------------------------*- C++ -*----------------------------------*\
| =========                 |                                                 |
| \\      /  F ield         | OpenFOAM: The Open Source CFD Toolbox           |
|  \\    /   O peration     | Version:  2412                                  |
|   \\  /    A nd           | Website:  www.openfoam.com                      |
|    \\/     M anipulation  |                                                 |
\*---------------------------------------------------------------------------*/
FoamFile
{
    version     2.0;
    format      ascii;
    arch        "LSB;label=32;scalar=64";
    class       volVectorField;
    location    "0.3";
    object      cellDisplacement;
}
// * * * * * * * * * * * * * * * * * * * * * * * * * * * * * * * * * * * * * //

dimensions      [0 1 0 0 0 0 0];

internalField   nonuniform List<vector> 
1024
(
(0.00139298 -0.00156606 0)
(0.00261178 -0.00274618 0)
(0.00391314 -0.00364076 0)
(0.00525488 -0.00412223 0)
(0.00657731 -0.00412126 0)
(0.0079278 -0.0036701 0)
(0.00912209 -0.00272903 0)
(0.0100463 -0.00139336 0)
(0.0103384 0.00017929 0)
(0.00989305 0.00170093 0)
(0.00894704 0.00291946 0)
(0.00768037 0.0036783 0)
(0.00614979 0.003854 0)
(0.00450623 0.00343589 0)
(0.00298226 0.00260358 0)
(0.00147303 0.00139273 0)
(0.00595979 -0.00655693 0)
(0.00953542 -0.00962893 0)
(0.0131434 -0.0116348 0)
(0.0168647 -0.0125163 0)
(0.0206877 -0.0121882 0)
(0.0243646 -0.0105549 0)
(0.0275847 -0.00765281 0)
(0.0297731 -0.00373156 0)
(0.0304274 0.000693408 0)
(0.0294297 0.00498468 0)
(0.0269912 0.00850141 0)
(0.0234701 0.0107837 0)
(0.0193049 0.0115731 0)
(0.0149676 0.0109266 0)
(0.0106146 0.00893506 0)
(0.00643558 0.00593384 0)
(0.0121604 -0.0131712 0)
(0.0176777 -0.0173621 0)
(0.0233725 -0.0199566 0)
(0.0292409 -0.0207959 0)
(0.0350819 -0.0197252 0)
(0.040652 -0.0167285 0)
(0.0453618 -0.0118755 0)
(0.0485666 -0.00559425 0)
(0.0494868 0.00137422 0)
(0.0478944 0.00806969 0)
(0.0442289 0.0136296 0)
(0.0390444 0.017446 0)
(0.0328453 0.0191215 0)
(0.0261827 0.0185818 0)
(0.0196243 0.0161408 0)
(0.0131488 0.0119732 0)
(0.0197435 -0.0210964 0)
(0.027035 -0.0258867 0)
(0.0344779 -0.0284763 0)
(0.0421059 -0.0288153 0)
(0.0497345 -0.0267749 0)
(0.0568034 -0.022275 0)
(0.0626774 -0.0154986 0)
(0.0664402 -0.00702727 0)
(0.0674346 0.00218598 0)
(0.065476 0.011033 0)
(0.0609052 0.0184788 0)
(0.0543265 0.0237597 0)
(0.0464869 0.0264375 0)
(0.0381448 0.0264804 0)
(0.0296863 0.0239877 0)
(0.0213741 0.0192974 0)
(0.0286645 -0.0302129 0)
(0.0373573 -0.0349266 0)
(0.0463425 -0.0370964 0)
(0.0555292 -0.03661 0)
(0.0644967 -0.0333082 0)
(0.0727166 -0.0272067 0)
(0.0793447 -0.01856 0)
(0.0835523 -0.00807017 0)
(0.0845886 0.00317946 0)
(0.0822079 0.0139246 0)
(0.0768857 0.0230731 0)
(0.069337 0.0298294 0)
(0.0603144 0.0336861 0)
(0.0505318 0.0344745 0)
(0.0407038 0.0324531 0)
(0.0309217 0.0277816 0)
(0.0386697 -0.0402041 0)
(0.0486433 -0.0444164 0)
(0.0588834 -0.0457119 0)
(0.069259 -0.0440607 0)
(0.0793588 -0.0393416 0)
(0.0884043 -0.0315657 0)
(0.0955822 -0.021096 0)
(0.0999162 -0.00873871 0)
(0.100861 0.00432314 0)
(0.0982193 0.0168153 0)
(0.0923782 0.0275718 0)
(0.0840433 0.0357387 0)
(0.0740772 0.0408073 0)
(0.0633613 0.04268 0)
(0.052393 0.0413826 0)
(0.0415087 0.0372124 0)
(0.0497249 -0.0509265 0)
(0.0606714 -0.054114 0)
(0.0719852 -0.0542179 0)
(0.0833762 -0.0511677 0)
(0.0942247 -0.0448436 0)
(0.103824 -0.0353531 0)
(0.111243 -0.023136 0)
(0.115667 -0.00903692 0)
(0.116505 0.00570394 0)
(0.113547 0.0197483 0)
(0.107271 0.0319755 0)
(0.098431 0.0415601 0)
(0.0878727 0.047975 0)
(0.0763593 0.0509876 0)
(0.0646533 0.0507862 0)
(0.0529568 0.0475245 0)
(0.0616007 -0.0620698 0)
(0.073468 -0.063928 0)
(0.0856105 -0.0625147 0)
(0.0976762 -0.0578278 0)
(0.109095 -0.0497935 0)
(0.118985 -0.0385645 0)
(0.126517 -0.0246408 0)
(0.130832 -0.00895091 0)
(0.131431 0.00728511 0)
(0.128266 0.0227835 0)
(0.121722 0.0364306 0)
(0.112506 0.0473813 0)
(0.101487 0.0551281 0)
(0.0895492 0.0595394 0)
(0.0772558 0.0605786 0)
(0.0649765 0.0585314 0)
(0.0743728 -0.0735541 0)
(0.0868819 -0.0736667 0)
(0.0996664 -0.070483 0)
(0.112261 -0.0639815 0)
(0.123923 -0.0541359 0)
(0.133893 -0.0411588 0)
(0.141276 -0.0256273 0)
(0.145434 -0.00844702 0)
(0.145821 0.0091722 0)
(0.142409 0.0259782 0)
(0.135637 0.0409259 0)
(0.126226 0.0532504 0)
(0.115001 0.0624482 0)
(0.102701 0.0682486 0)
(0.0900715 0.0707874 0)
(0.0774354 0.0702558 0)
(0.0878542 -0.0850934 0)
(0.100963 -0.0831903 0)
(0.114181 -0.0779863 0)
(0.126983 -0.0695162 0)
(0.138721 -0.0577916 0)
(0.14853 -0.0430893 0)
(0.155695 -0.0260053 0)
(0.159505 -0.00747649 0)
(0.159577 0.0113561 0)
(0.155985 0.0293792 0)
(0.149111 0.0456027 0)
(0.139601 0.0592624 0)
(0.128223 0.0698654 0)
(0.115791 0.077274 0)
(0.102962 0.0814229 0)
(0.0900556 0.0826214 0)
(0.102158 -0.0964831 0)
(0.115621 -0.0922696 0)
(0.129079 -0.0848443 0)
(0.141941 -0.0742759 0)
(0.153472 -0.0606357 0)
(0.16296 -0.0442418 0)
(0.169656 -0.0257364 0)
(0.173029 -0.00598678 0)
(0.172798 0.0139662 0)
(0.169008 0.0330801 0)
(0.162051 0.0504614 0)
(0.152531 0.0654406 0)
(0.14117 0.0775727 0)
(0.1287 0.0865946 0)
(0.115732 0.0925772 0)
(0.102709 0.0956852 0)
(0.117163 -0.107408 0)
(0.130946 -0.100647 0)
(0.144453 -0.0908317 0)
(0.157089 -0.0780412 0)
(0.168193 -0.0624747 0)
(0.177085 -0.0444736 0)
(0.183169 -0.0246675 0)
(0.185989 -0.00384863 0)
(0.185365 0.0170488 0)
(0.181402 0.0371421 0)
(0.174437 0.0556331 0)
(0.165 0.0719083 0)
(0.15372 0.0855505 0)
(0.141262 0.0963643 0)
(0.128267 0.104268 0)
(0.115041 0.109502 0)
(0.133073 -0.117416 0)
(0.146948 -0.107907 0)
(0.160289 -0.0954912 0)
(0.172429 -0.0804774 0)
(0.1828 -0.0629978 0)
(0.190844 -0.0435352 0)
(0.196089 -0.0226066 0)
(0.198247 -0.000907103 0)
(0.19722 0.0207843 0)
(0.193094 0.0416975 0)
(0.186159 0.0611853 0)
(0.176853 0.0787212 0)
(0.165716 0.0939262 0)
(0.153317 0.106582 0)
(0.140203 0.116587 0)
(0.126723 0.124088 0)
(0.149851 -0.125898 0)
(0.163689 -0.113281 0)
(0.176502 -0.0982391 0)
(0.187782 -0.080957 0)
(0.197067 -0.0617762 0)
(0.203977 -0.0410515 0)
(0.208217 -0.0192359 0)
(0.209624 0.00309517 0)
(0.208145 0.0253289 0)
(0.203857 0.046881 0)
(0.196983 0.0672303 0)
(0.187849 0.0859507 0)
(0.176861 0.102701 0)
(0.164458 0.117269 0)
(0.151113 0.129504 0)
(0.137163 0.139483 0)
(0.167504 -0.131631 0)
(0.180868 -0.115798 0)
(0.192672 -0.0981048 0)
(0.202612 -0.0788311 0)
(0.210452 -0.0582283 0)
(0.215985 -0.0365931 0)
(0.21906 -0.01426 0)
(0.219595 0.00837363 0)
(0.217586 0.0308366 0)
(0.213103 0.0527146 0)
(0.206273 0.0736822 0)
(0.197312 0.0934069 0)
(0.186452 0.111646 0)
(0.174012 0.128148 0)
(0.160239 0.142814 0)
(0.145468 0.155532 0)
(0.184414 -0.132334 0)
(0.196497 -0.113621 0)
(0.206687 -0.0938141 0)
(0.214887 -0.0731035 0)
(0.221018 -0.0516888 0)
(0.22502 -0.0297764 0)
(0.226855 -0.00757716 0)
(0.226506 0.014695 0)
(0.223975 0.0368257 0)
(0.219287 0.0586017 0)
(0.212487 0.0798134 0)
(0.20364 0.100256 0)
(0.192833 0.119734 0)
(0.180168 0.138058 0)
(0.165769 0.155053 0)
(0.149773 0.170555 0)
(0.00148675 0.00134359 0)
(0.00271704 0.0026214 0)
(0.00356026 0.00387742 0)
(0.0040615 0.00525927 0)
(0.00409496 0.00665283 0)
(0.00361925 0.00793568 0)
(0.00269557 0.00909656 0)
(0.00137115 0.00990484 0)
(-0.000178212 0.0101752 0)
(-0.00169562 0.00979626 0)
(-0.00292271 0.00889051 0)
(-0.00366109 0.00759115 0)
(-0.0038307 0.00608558 0)
(-0.00341125 0.00446668 0)
(-0.00258359 0.00295707 0)
(-0.00138131 0.00145879 0)
(0.00642075 0.00592946 0)
(0.00941595 0.00943871 0)
(0.0114773 0.0131482 0)
(0.0123749 0.016937 0)
(0.0120326 0.0207357 0)
(0.010407 0.0243772 0)
(0.00755054 0.0274569 0)
(0.00369428 0.029537 0)
(-0.000692311 0.0301856 0)
(-0.00497905 0.0292004 0)
(-0.00845865 0.0266659 0)
(-0.0107347 0.0232321 0)
(-0.0115044 0.0191285 0)
(-0.0108485 0.0148415 0)
(-0.00886575 0.0105335 0)
(-0.00588343 0.00638365 0)
(0.0128852 0.012058 0)
(0.0171164 0.0176535 0)
(0.0196795 0.0233534 0)
(0.0205455 0.0292997 0)
(0.0195011 0.0352039 0)
(0.0165014 0.0406479 0)
(0.011728 0.0452082 0)
(0.00554452 0.0482017 0)
(-0.00135142 0.0490673 0)
(-0.00803766 0.0475049 0)
(-0.0135994 0.0438586 0)
(-0.0173721 0.0386967 0)
(-0.0190103 0.0325724 0)
(-0.0184519 0.0259817 0)
(-0.0160135 0.0194806 0)
(-0.0118696 0.0130522 0)
(0.0207982 0.0197221 0)
(0.025511 0.0269632 0)
(0.0281509 0.0345154 0)
(0.0285017 0.0422127 0)
(0.0264479 0.0497811 0)
(0.0219849 0.0567826 0)
(0.0153203 0.0624577 0)
(0.00698415 0.0660763 0)
(-0.00215447 0.067024 0)
(-0.0109947 0.065039 0)
(-0.0184097 0.0603921 0)
(-0.0236623 0.0539038 0)
(-0.0262895 0.0461451 0)
(-0.026297 0.0378756 0)
(-0.0238011 0.0294857 0)
(-0.0191292 0.0212297 0)
(0.0298098 0.0286185 0)
(0.0345528 0.0373912 0)
(0.0366941 0.0463714 0)
(0.0362177 0.0555918 0)
(0.0329363 0.0645814 0)
(0.026877 0.0726629 0)
(0.018369 0.0791314 0)
(0.00804161 0.0831408 0)
(-0.00311058 0.084092 0)
(-0.0138522 0.0816902 0)
(-0.0230108 0.0763917 0)
(-0.0297062 0.0688672 0)
(-0.0334994 0.0599193 0)
(-0.0342443 0.0502128 0)
(-0.032202 0.0404512 0)
(-0.027539 0.0307316 0)
(0.0398195 0.0387329 0)
(0.0439631 0.0486457 0)
(0.0452873 0.0589549 0)
(0.043635 0.0693493 0)
(0.0389195 0.079362 0)
(0.0312203 0.0883335 0)
(0.0209135 0.0953283 0)
(0.00873175 0.0995354 0)
(-0.00424236 0.100412 0)
(-0.0167264 0.097718 0)
(-0.0274596 0.0918175 0)
(-0.0355878 0.0835478 0)
(-0.0405884 0.0736521 0)
(-0.0423989 0.0630035 0)
(-0.0410724 0.0521022 0)
(-0.0368954 0.0412799 0)
(0.0504768 0.049768 0)
(0.0536882 0.060774 0)
(0.0537631 0.0720374 0)
(0.0507107 0.0834086 0)
(0.0444173 0.0942518 0)
(0.0350151 0.103725 0)
(0.0229688 0.111016 0)
(0.00906244 0.115283 0)
(-0.00557497 0.116024 0)
(-0.019612 0.113015 0)
(-0.0318563 0.106756 0)
(-0.0413767 0.0979306 0)
(-0.0477162 0.0874303 0)
(-0.0506658 0.0759812 0)
(-0.0504151 0.0643361 0)
(-0.0471337 0.0527008 0)
(0.06166 0.0617352 0)
(0.0634733 0.0735125 0)
(0.06207 0.085673 0)
(0.0573788 0.0977313 0)
(0.0493799 0.109053 0)
(0.0382549 0.118882 0)
(0.0245213 0.126271 0)
(0.00900831 0.130487 0)
(-0.00713973 0.131008 0)
(-0.0226314 0.127784 0)
(-0.036252 0.121186 0)
(-0.047164 0.112015 0)
(-0.0548381 0.101046 0)
(-0.0591711 0.0891645 0)
(-0.0601578 0.0769281 0)
(-0.0580803 0.064708 0)
(0.073109 0.0744483 0)
(0.0732453 0.0869669 0)
(0.0700503 0.099686 0)
(0.0635591 0.112242 0)
(0.0537617 0.123901 0)
(0.0409041 0.133774 0)
(0.025544 0.141076 0)
(0.0085414 0.145114 0)
(-0.00898676 0.145402 0)
(-0.0257776 0.141924 0)
(-0.0407396 0.135161 0)
(-0.0529986 0.125759 0)
(-0.0621237 0.114575 0)
(-0.0678507 0.102325 0)
(-0.0703245 0.0897503 0)
(-0.0697496 0.0771643 0)
(0.0846971 0.0879797 0)
(0.0827777 0.100973 0)
(0.077599 0.114167 0)
(0.0691415 0.126976 0)
(0.0574805 0.138653 0)
(0.0428968 0.14843 0)
(0.0259842 0.155494 0)
(0.00759732 0.159219 0)
(-0.0111648 0.159215 0)
(-0.0291865 0.155571 0)
(-0.045371 0.148653 0)
(-0.0589904 0.13917 0)
(-0.0695245 0.127828 0)
(-0.076852 0.115445 0)
(-0.0809338 0.102664 0)
(-0.0820785 0.0898075 0)
(0.0960969 0.102249 0)
(0.0919168 0.115656 0)
(0.0845112 0.12906 0)
(0.0739667 0.141889 0)
(0.060403 0.153426 0)
(0.0441226 0.162858 0)
(0.0257437 0.169504 0)
(0.00611636 0.17279 0)
(-0.0137732 0.172475 0)
(-0.0328636 0.168619 0)
(-0.0502455 0.161657 0)
(-0.0651533 0.152157 0)
(-0.0772283 0.140821 0)
(-0.0861693 0.128399 0)
(-0.0920846 0.115477 0)
(-0.0951355 0.102504 0)
(0.107085 0.117329 0)
(0.100363 0.130995 0)
(0.090551 0.144466 0)
(0.0778252 0.157086 0)
(0.0623104 0.168161 0)
(0.0444013 0.177024 0)
(0.0247058 0.183034 0)
(0.00396653 0.18578 0)
(-0.0168658 0.185095 0)
(-0.036968 0.181084 0)
(-0.0553957 0.174124 0)
(-0.0716586 0.164679 0)
(-0.0852096 0.153456 0)
(-0.0959782 0.141012 0)
(-0.103798 0.128084 0)
(-0.109004 0.114883 0)
(0.117181 0.133256 0)
(0.10767 0.147085 0)
(0.0953175 0.160362 0)
(0.0803215 0.172464 0)
(0.0628974 0.182803 0)
(0.0435021 0.190798 0)
(0.0226186 0.195991 0)
(0.00100963 0.198099 0)
(-0.0206602 0.197014 0)
(-0.0415245 0.192871 0)
(-0.0610222 0.185914 0)
(-0.0784801 0.176658 0)
(-0.0936738 0.165504 0)
(-0.106236 0.153179 0)
(-0.116231 0.140057 0)
(-0.123654 0.126667 0)
(0.125721 0.150063 0)
(0.113154 0.163831 0)
(0.0981257 0.176595 0)
(0.0808729 0.187834 0)
(0.061723 0.197082 0)
(0.0410116 0.203957 0)
(0.0192539 0.208162 0)
(-0.00304322 0.209529 0)
(-0.0252382 0.208027 0)
(-0.0467883 0.203721 0)
(-0.0671011 0.196864 0)
(-0.0858139 0.187721 0)
(-0.102511 0.176771 0)
(-0.11707 0.164358 0)
(-0.129245 0.151073 0)
(-0.13922 0.13712 0)
(0.13156 0.167612 0)
(0.115742 0.180947 0)
(0.098063 0.192723 0)
(0.0788012 0.202641 0)
(0.0582018 0.210461 0)
(0.0365822 0.215978 0)
(0.0142645 0.219037 0)
(-0.00835114 0.219561 0)
(-0.0308049 0.217543 0)
(-0.0526741 0.213058 0)
(-0.0736335 0.206228 0)
(-0.0933476 0.19727 0)
(-0.111573 0.186417 0)
(-0.128062 0.173984 0)
(-0.142716 0.160221 0)
(-0.155418 0.145465 0)
(0.132334 0.184414 0)
(0.113621 0.196497 0)
(0.0938141 0.206687 0)
(0.0731035 0.214887 0)
(0.0516888 0.221018 0)
(0.0297764 0.22502 0)
(0.00757716 0.226855 0)
(-0.014695 0.226506 0)
(-0.0368257 0.223975 0)
(-0.0586017 0.219287 0)
(-0.0798134 0.212487 0)
(-0.100256 0.20364 0)
(-0.119734 0.192833 0)
(-0.138058 0.180168 0)
(-0.155053 0.165769 0)
(-0.170555 0.149773 0)
(-0.00133019 0.00147379 0)
(-0.00259049 0.00269565 0)
(-0.00382103 0.00352922 0)
(-0.00518377 0.00402277 0)
(-0.00654717 0.00404741 0)
(-0.0079221 0.00361061 0)
(-0.0091268 0.00267899 0)
(-0.0100488 0.00134269 0)
(-0.010336 -0.000224621 0)
(-0.00988924 -0.00173755 0)
(-0.00894348 -0.00294941 0)
(-0.00767725 -0.00370485 0)
(-0.0061481 -0.0038735 0)
(-0.00450601 -0.00344744 0)
(-0.0029827 -0.00261063 0)
(-0.00147355 -0.00139595 0)
(-0.00587218 0.00637137 0)
(-0.00933358 0.00935114 0)
(-0.0129766 0.0113897 0)
(-0.0166797 0.0122519 0)
(-0.0206077 0.0119793 0)
(-0.0243471 0.0103847 0)
(-0.0275911 0.0075038 0)
(-0.0297768 0.00359459 0)
(-0.0304201 -0.00081358 0)
(-0.0294165 -0.00508838 0)
(-0.0269782 -0.00859009 0)
(-0.023461 -0.0108575 0)
(-0.0193001 -0.0116274 0)
(-0.0149661 -0.0109632 0)
(-0.0106154 -0.00895687 0)
(-0.00643709 -0.00594573 0)
(-0.0119432 0.0127965 0)
(-0.0174631 0.0170101 0)
(-0.023071 0.0195449 0)
(-0.0290022 0.0204161 0)
(-0.034966 0.0194112 0)
(-0.0406227 0.0164676 0)
(-0.0453638 0.0116486 0)
(-0.0485668 0.00538734 0)
(-0.0494714 -0.00155355 0)
(-0.0478718 -0.00822574 0)
(-0.0442075 -0.0137634 0)
(-0.0390283 -0.0175583 0)
(-0.0328362 -0.0192066 0)
(-0.0261798 -0.0186402 0)
(-0.0196247 -0.0161787 0)
(-0.013151 -0.0119953 0)
(-0.0195312 0.0206678 0)
(-0.0266892 0.02537 0)
(-0.0341716 0.0280038 0)
(-0.0418381 0.0283575 0)
(-0.0495937 0.0263841 0)
(-0.0567591 0.021942 0)
(-0.062672 0.015209 0)
(-0.0664343 0.00677008 0)
(-0.0674117 -0.0024066 0)
(-0.0654431 -0.0112233 0)
(-0.0608736 -0.0186427 0)
(-0.0543033 -0.0239 0)
(-0.0464738 -0.0265462 0)
(-0.0381393 -0.0265587 0)
(-0.029686 -0.0240402 0)
(-0.0213765 -0.0193305 0)
(-0.0283493 0.0296422 0)
(-0.0370417 0.034391 0)
(-0.0459696 0.0365405 0)
(-0.0552493 0.0361086 0)
(-0.0643401 0.032867 0)
(-0.0726577 0.0268246 0)
(-0.0793323 0.0182286 0)
(-0.0835381 0.00778285 0)
(-0.0845559 -0.00341833 0)
(-0.0821649 -0.0141324 0)
(-0.0768451 -0.0232539 0)
(-0.0693061 -0.0299839 0)
(-0.0602957 -0.0338102 0)
(-0.0505236 -0.0345677 0)
(-0.0407019 -0.0325191 0)
(-0.0309238 -0.0278256 0)
(-0.0383816 0.0396238 0)
(-0.0482342 0.0437903 0)
(-0.058531 0.0451532 0)
(-0.068969 0.0435383 0)
(-0.0791889 0.0388768 0)
(-0.0883335 0.031159 0)
(-0.0955578 0.0207459 0)
(-0.0998924 0.00844165 0)
(-0.100819 -0.00456632 0)
(-0.0981657 -0.0170163 0)
(-0.0923276 -0.027746 0)
(-0.0840047 -0.0358954 0)
(-0.0740531 -0.0409382 0)
(-0.0633491 -0.0427825 0)
(-0.0523892 -0.0414587 0)
(-0.04151 -0.0372659 0)
(-0.0493492 0.0502657 0)
(-0.0603068 0.0535211 0)
(-0.0715827 0.0536453 0)
(-0.0830766 0.0506553 0)
(-0.0940449 0.04438 0)
(-0.103743 0.0349445 0)
(-0.111207 0.022786 0)
(-0.115631 0.00875062 0)
(-0.116451 -0.00592356 0)
(-0.113484 -0.0199266 0)
(-0.107212 -0.0321324 0)
(-0.098385 -0.041702 0)
(-0.0878426 -0.0481 0)
(-0.0763432 -0.0510924 0)
(-0.0646468 -0.0508682 0)
(-0.0529567 -0.0475856 0)
(-0.0612533 0.0614519 0)
(-0.0730078 0.0633196 0)
(-0.0852159 0.0619877 0)
(-0.0973651 0.0573438 0)
(-0.108908 0.0493576 0)
(-0.118894 0.038179 0)
(-0.126469 0.0243173 0)
(-0.130785 0.00869398 0)
(-0.131368 -0.00747313 0)
(-0.128194 -0.0229215 0)
(-0.121655 -0.0365474 0)
(-0.112454 -0.047497 0)
(-0.101451 -0.0552388 0)
(-0.0895285 -0.0596372 0)
(-0.0772463 -0.060661 0)
(-0.0649746 -0.0585964 0)
(-0.0739143 0.0729007 0)
(-0.086432 0.0731193 0)
(-0.0992114 0.0699947 0)
(-0.111936 0.0635575 0)
(-0.123731 0.0537492 0)
(-0.133795 0.0408182 0)
(-0.14122 0.0253428 0)
(-0.145378 0.00823329 0)
(-0.145751 -0.00930963 0)
(-0.142331 -0.0260661 0)
(-0.135565 -0.0410007 0)
(-0.126169 -0.0533286 0)
(-0.114961 -0.0625314 0)
(-0.102676 -0.0683327 0)
(-0.0900589 -0.0708634 0)
(-0.077431 -0.0703205 0)
(-0.0874077 0.0845027 0)
(-0.100431 0.0826766 0)
(-0.113724 0.0775819 0)
(-0.126646 0.0691625 0)
(-0.138525 0.0574749 0)
(-0.148428 0.0428091 0)
(-0.155633 0.025777 0)
(-0.159444 0.00731621 0)
(-0.159504 -0.0114436 0)
(-0.155907 -0.0294168 0)
(-0.149039 -0.0456274 0)
(-0.139542 -0.0592982 0)
(-0.128181 -0.0699184 0)
(-0.115764 -0.0773359 0)
(-0.102946 -0.0814864 0)
(-0.0900489 -0.0826799 0)
(-0.101691 0.0959485 0)
(-0.115138 0.0918636 0)
(-0.12863 0.0845211 0)
(-0.141622 0.0740141 0)
(-0.153284 0.0603987 0)
(-0.16286 0.0440316 0)
(-0.169592 0.0255675 0)
(-0.172967 0.00588102 0)
(-0.172729 -0.0140036 0)
(-0.168935 -0.0330711 0)
(-0.161984 -0.0504432 0)
(-0.152475 -0.0654387 0)
(-0.141128 -0.0775917 0)
(-0.128671 -0.086631 0)
(-0.115714 -0.0926223 0)
(-0.1027 -0.0957319 0)
(-0.116807 0.107011 0)
(-0.130545 0.100333 0)
(-0.144098 0.0906159 0)
(-0.15683 0.0778648 0)
(-0.168037 0.0623157 0)
(-0.176996 0.0443304 0)
(-0.183107 0.0245587 0)
(-0.185932 0.00379202 0)
(-0.185303 -0.0170448 0)
(-0.181339 -0.0371011 0)
(-0.17438 -0.0555869 0)
(-0.164951 -0.0718771 0)
(-0.153682 -0.0855427 0)
(-0.141235 -0.0963759 0)
(-0.128249 -0.104292 0)
(-0.115031 -0.109532 0)
(-0.132859 0.117127 0)
(-0.146709 0.107718 0)
(-0.160066 0.0953614 0)
(-0.17226 0.0803753 0)
(-0.182689 0.0629029 0)
(-0.190774 0.0434509 0)
(-0.196037 0.0225465 0)
(-0.198199 0.000890234 0)
(-0.197172 -0.0207587 0)
(-0.193046 -0.0416454 0)
(-0.186115 -0.0611303 0)
(-0.176816 -0.0786803 0)
(-0.165686 -0.0939037 0)
(-0.153294 -0.106576 0)
(-0.140187 -0.116593 0)
(-0.126713 -0.124103 0)
(-0.149783 0.125739 0)
(-0.163592 0.113181 0)
(-0.176401 0.0981752 0)
(-0.187697 0.0809056 0)
(-0.197005 0.0617286 0)
(-0.203932 0.0410103 0)
(-0.208182 0.0192123 0)
(-0.209593 -0.00309349 0)
(-0.208114 -0.0253015 0)
(-0.203827 -0.0468402 0)
(-0.196956 -0.0671895 0)
(-0.187826 -0.0859182 0)
(-0.176842 -0.10268 0)
(-0.164443 -0.117258 0)
(-0.151103 -0.129501 0)
(-0.137156 -0.139488 0)
(-0.1675 0.131568 0)
(-0.180846 0.115763 0)
(-0.192643 0.0980825 0)
(-0.202585 0.0788134 0)
(-0.21043 0.0582122 0)
(-0.215968 0.0365805 0)
(-0.219046 0.0142544 0)
(-0.219582 -0.00836926 0)
(-0.217574 -0.0308238 0)
(-0.213092 -0.0526976 0)
(-0.206263 -0.0736655 0)
(-0.197303 -0.093393 0)
(-0.186444 -0.111636 0)
(-0.174007 -0.128142 0)
(-0.160234 -0.142812 0)
(-0.145465 -0.155532 0)
(-0.184414 0.132334 0)
(-0.196497 0.113621 0)
(-0.206687 0.0938141 0)
(-0.214887 0.0731035 0)
(-0.221018 0.0516888 0)
(-0.22502 0.0297764 0)
(-0.226855 0.00757716 0)
(-0.226506 -0.014695 0)
(-0.223975 -0.0368257 0)
(-0.219287 -0.0586017 0)
(-0.212487 -0.0798134 0)
(-0.20364 -0.100256 0)
(-0.192833 -0.119734 0)
(-0.180168 -0.138058 0)
(-0.165769 -0.155053 0)
(-0.149773 -0.170555 0)
(-0.00148739 -0.00134579 0)
(-0.00271828 -0.00262458 0)
(-0.00356199 -0.00388002 0)
(-0.00406451 -0.00526119 0)
(-0.00409982 -0.00665438 0)
(-0.00362523 -0.00793713 0)
(-0.0027036 -0.00909851 0)
(-0.00138226 -0.00990822 0)
(0.000162377 -0.0101838 0)
(0.00168057 -0.00983974 0)
(0.00290061 -0.00892723 0)
(0.00366102 -0.00768298 0)
(0.00383563 -0.00616437 0)
(0.00345908 -0.00458778 0)
(0.00261375 -0.00304097 0)
(0.00141542 -0.00153427 0)
(-0.00642278 -0.0059389 0)
(-0.00941915 -0.00944771 0)
(-0.0114826 -0.0131555 0)
(-0.0123833 -0.0169425 0)
(-0.0120451 -0.0207405 0)
(-0.0104251 -0.0243823 0)
(-0.00757533 -0.0274641 0)
(-0.00372854 -0.0295491 0)
(0.000645822 -0.0302213 0)
(0.00491547 -0.0292858 0)
(0.00843716 -0.0269281 0)
(0.0107274 -0.0234684 0)
(0.0115473 -0.0193886 0)
(0.0109102 -0.0150863 0)
(0.00897519 -0.0108045 0)
(0.00596077 -0.00658097 0)
(-0.0128883 -0.0120751 0)
(-0.0171215 -0.0176685 0)
(-0.0196876 -0.023365 0)
(-0.0205585 -0.029309 0)
(-0.0195214 -0.0352125 0)
(-0.01653 -0.0406574 0)
(-0.0117674 -0.0452213 0)
(-0.00559849 -0.0482254 0)
(0.00127572 -0.049125 0)
(0.00795294 -0.0476877 0)
(0.0135221 -0.0441313 0)
(0.0173529 -0.0390435 0)
(0.0190395 -0.0329254 0)
(0.018573 -0.0264062 0)
(0.0161381 -0.0198606 0)
(0.0119942 -0.0133782 0)
(-0.0208022 -0.0197477 0)
(-0.0255175 -0.0269839 0)
(-0.0281615 -0.0345317 0)
(-0.0285189 -0.042226 0)
(-0.0264741 -0.0497938 0)
(-0.0220228 -0.0567974 0)
(-0.0153727 -0.0624782 0)
(-0.00705569 -0.0661134 0)
(0.00205379 -0.0671144 0)
(0.0108622 -0.0652321 0)
(0.0183208 -0.0607833 0)
(0.0236196 -0.0543136 0)
(0.0263368 -0.0466143 0)
(0.0263893 -0.038345 0)
(0.0239604 -0.0299861 0)
(0.0192891 -0.0216597 0)
(-0.0298142 -0.028652 0)
(-0.0345604 -0.0374181 0)
(-0.0367067 -0.0463923 0)
(-0.0362381 -0.0556094 0)
(-0.0329676 -0.0645989 0)
(-0.0269224 -0.0726831 0)
(-0.0184315 -0.0791603 0)
(-0.0081283 -0.0831918 0)
(0.00298456 -0.0842009 0)
(0.0137026 -0.0819484 0)
(0.022868 -0.0767493 0)
(0.0296471 -0.0693288 0)
(0.0335128 -0.0604137 0)
(0.0343636 -0.0507902 0)
(0.0323552 -0.0410076 0)
(0.0277238 -0.031248 0)
(-0.039824 -0.0387742 0)
(-0.0439714 -0.048678 0)
(-0.0453014 -0.0589806 0)
(-0.0436579 -0.0693714 0)
(-0.0389546 -0.0793841 0)
(-0.0312709 -0.0883597 0)
(-0.0209832 -0.0953658 0)
(-0.00883055 -0.0995996 0)
(0.00409972 -0.10055 0)
(0.0165384 -0.0979635 0)
(0.0273125 -0.0922406 0)
(0.0355035 -0.0840264 0)
(0.0406102 -0.074214 0)
(0.042484 -0.0635869 0)
(0.0412463 -0.0527304 0)
(0.0371109 -0.0418708 0)
(-0.0504808 -0.0498155 0)
(-0.0536967 -0.0608115 0)
(-0.0537781 -0.0720674 0)
(-0.0507351 -0.0834349 0)
(-0.0444544 -0.0942785 0)
(-0.0350686 -0.103756 0)
(-0.0230434 -0.111062 0)
(-0.0091695 -0.115361 0)
(0.00541514 -0.116173 0)
(0.019422 -0.113309 0)
(0.0316688 -0.10714 0)
(0.0412847 -0.0984281 0)
(0.0477042 -0.0879794 0)
(0.0507715 -0.0766216 0)
(0.0505825 -0.0649805 0)
(0.0473616 -0.0533255 0)
(-0.0616627 -0.061787 0)
(-0.0634814 -0.0735536 0)
(-0.0620851 -0.0857065 0)
(-0.0574036 -0.097761 0)
(-0.0494177 -0.109084 0)
(-0.0383086 -0.118919 0)
(-0.0245966 -0.126323 0)
(-0.00911889 -0.130577 0)
(0.00697633 -0.131182 0)
(0.0224155 -0.128054 0)
(0.0360808 -0.121607 0)
(0.0470552 -0.112498 0)
(0.0548438 -0.101625 0)
(0.0592471 -0.0897783 0)
(0.0603394 -0.0775855 0)
(0.0583496 -0.0653721 0)
(-0.0731103 -0.0745011 0)
(-0.0732522 -0.0870097 0)
(-0.0700647 -0.0997214 0)
(-0.0635832 -0.112274 0)
(-0.0537975 -0.123935 0)
(-0.0409555 -0.133814 0)
(-0.0256166 -0.141135 0)
(-0.00865153 -0.145215 0)
(0.00881719 -0.145579 0)
(0.0255836 -0.142232 0)
(0.040547 -0.13554 0)
(0.0529053 -0.126239 0)
(0.0621019 -0.115111 0)
(0.0679509 -0.102939 0)
(0.0705227 -0.0904103 0)
(0.070055 -0.0778327 0)
(-0.0846961 -0.0880296 0)
(-0.0827832 -0.101014 0)
(-0.0776117 -0.114202 0)
(-0.069163 -0.127008 0)
(-0.0575133 -0.138687 0)
(-0.042943 -0.148473 0)
(-0.0260509 -0.155557 0)
(-0.00770393 -0.159328 0)
(0.0110079 -0.15941 0)
(0.0289783 -0.155843 0)
(0.0452158 -0.149039 0)
(0.058892 -0.13961 0)
(0.0695344 -0.128344 0)
(0.0769487 -0.116037 0)
(0.0811602 -0.103292 0)
(0.0824173 -0.0904757 0)
(-0.0960942 -0.102291 0)
(-0.0919201 -0.115692 0)
(-0.0845216 -0.129092 0)
(-0.0739852 -0.14192 0)
(-0.0604303 -0.153459 0)
(-0.0441613 -0.1629 0)
(-0.0258035 -0.16957 0)
(-0.00621387 -0.172904 0)
(0.0136173 -0.172657 0)
(0.0326977 -0.168907 0)
(0.050086 -0.162002 0)
(0.0650961 -0.152554 0)
(0.0772299 -0.141299 0)
(0.0862894 -0.128923 0)
(0.0922917 -0.116076 0)
(0.0954869 -0.103089 0)
(-0.107081 -0.117359 0)
(-0.100365 -0.131023 0)
(-0.0905589 -0.144492 0)
(-0.0778392 -0.157113 0)
(-0.0623316 -0.168191 0)
(-0.0444329 -0.177064 0)
(-0.0247572 -0.183098 0)
(-0.00405673 -0.18589 0)
(0.016737 -0.185278 0)
(0.0367946 -0.181333 0)
(0.055298 -0.174411 0)
(0.0715861 -0.165035 0)
(0.0852461 -0.153833 0)
(0.0960565 -0.141484 0)
(0.10399 -0.128557 0)
(0.109247 -0.115392 0)
(-0.117177 -0.133273 0)
(-0.10767 -0.147103 0)
(-0.0953225 -0.160381 0)
(-0.0803314 -0.172485 0)
(-0.0629127 -0.182828 0)
(-0.0435264 -0.190833 0)
(-0.0226621 -0.19605 0)
(-0.00108311 -0.198196 0)
(0.0205376 -0.197163 0)
(0.0414172 -0.193058 0)
(0.0609128 -0.186151 0)
(0.0784605 -0.176889 0)
(0.0936648 -0.165814 0)
(0.106303 -0.153486 0)
(0.116291 -0.140437 0)
(0.123817 -0.126997 0)
(-0.125718 -0.150071 0)
(-0.113154 -0.16384 0)
(-0.0981285 -0.176607 0)
(-0.0808788 -0.187847 0)
(-0.0617327 -0.197099 0)
(-0.0410289 -0.203983 0)
(-0.0192843 -0.208203 0)
(0.00298771 -0.209596 0)
(0.0251658 -0.208122 0)
(0.0467022 -0.203844 0)
(0.0670539 -0.196986 0)
(0.0857771 -0.187876 0)
(0.102516 -0.176926 0)
(0.117065 -0.164563 0)
(0.129272 -0.151266 0)
(0.139237 -0.137367 0)
(-0.131559 -0.167615 0)
(-0.115742 -0.180951 0)
(-0.0980641 -0.192728 0)
(-0.0788036 -0.202646 0)
(-0.0582062 -0.210469 0)
(-0.0365898 -0.215989 0)
(-0.0142784 -0.219055 0)
(0.00832731 -0.219589 0)
(0.0307728 -0.217581 0)
(0.0526448 -0.213101 0)
(0.0736122 -0.206276 0)
(0.0933355 -0.197324 0)
(0.111568 -0.186478 0)
(0.128058 -0.174054 0)
(0.142694 -0.160323 0)
(0.155418 -0.145552 0)
(-0.132334 -0.184414 0)
(-0.113621 -0.196497 0)
(-0.0938141 -0.206687 0)
(-0.0731035 -0.214887 0)
(-0.0516888 -0.221018 0)
(-0.0297764 -0.22502 0)
(-0.00757716 -0.226855 0)
(0.014695 -0.226506 0)
(0.0368257 -0.223975 0)
(0.0586017 -0.219287 0)
(0.0798134 -0.212487 0)
(0.100256 -0.20364 0)
(0.119734 -0.192833 0)
(0.138058 -0.180168 0)
(0.155053 -0.165769 0)
(0.170555 -0.149773 0)
)
;

boundaryField
{
    walls
    {
        type            cellMotion;
        value           uniform (0 0 0);
    }
    cylinder
    {
        type            cellMotion;
        value           nonuniform List<vector> 
64
(
(0.184414 -0.132334 0)
(0.196497 -0.113621 0)
(0.206687 -0.0938141 0)
(0.214887 -0.0731035 0)
(0.221018 -0.0516888 0)
(0.22502 -0.0297764 0)
(0.226855 -0.00757716 0)
(0.226506 0.014695 0)
(0.223975 0.0368257 0)
(0.219287 0.0586017 0)
(0.212487 0.0798134 0)
(0.20364 0.100256 0)
(0.192833 0.119734 0)
(0.180168 0.138058 0)
(0.165769 0.155053 0)
(0.149773 0.170555 0)
(0.132334 0.184414 0)
(0.113621 0.196497 0)
(0.0938141 0.206687 0)
(0.0731035 0.214887 0)
(0.0516888 0.221018 0)
(0.0297764 0.22502 0)
(0.00757716 0.226855 0)
(-0.014695 0.226506 0)
(-0.0368257 0.223975 0)
(-0.0586017 0.219287 0)
(-0.0798134 0.212487 0)
(-0.100256 0.20364 0)
(-0.119734 0.192833 0)
(-0.138058 0.180168 0)
(-0.155053 0.165769 0)
(-0.170555 0.149773 0)
(-0.184414 0.132334 0)
(-0.196497 0.113621 0)
(-0.206687 0.0938141 0)
(-0.214887 0.0731035 0)
(-0.221018 0.0516888 0)
(-0.22502 0.0297764 0)
(-0.226855 0.00757716 0)
(-0.226506 -0.014695 0)
(-0.223975 -0.0368257 0)
(-0.219287 -0.0586017 0)
(-0.212487 -0.0798134 0)
(-0.20364 -0.100256 0)
(-0.192833 -0.119734 0)
(-0.180168 -0.138058 0)
(-0.165769 -0.155053 0)
(-0.149773 -0.170555 0)
(-0.132334 -0.184414 0)
(-0.113621 -0.196497 0)
(-0.0938141 -0.206687 0)
(-0.0731035 -0.214887 0)
(-0.0516888 -0.221018 0)
(-0.0297764 -0.22502 0)
(-0.00757716 -0.226855 0)
(0.014695 -0.226506 0)
(0.0368257 -0.223975 0)
(0.0586017 -0.219287 0)
(0.0798134 -0.212487 0)
(0.100256 -0.20364 0)
(0.119734 -0.192833 0)
(0.138058 -0.180168 0)
(0.155053 -0.165769 0)
(0.170555 -0.149773 0)
)
;
    }
    outlet
    {
        type            cellMotion;
        value           uniform (0 0 0);
    }
    inlet
    {
        type            cellMotion;
        value           uniform (0 0 0);
    }
    frontAndBack
    {
        type            empty;
    }
}


// ************************************************************************* //
