/*--------------------------------*- C++ -*----------------------------------*\
| =========                 |                                                 |
| \\      /  F ield         | OpenFOAM: The Open Source CFD Toolbox           |
|  \\    /   O peration     | Version:  2412                                  |
|   \\  /    A nd           | Website:  www.openfoam.com                      |
|    \\/     M anipulation  |                                                 |
\*---------------------------------------------------------------------------*/
FoamFile
{
    version     2.0;
    format      ascii;
    arch        "LSB;label=32;scalar=64";
    class       surfaceScalarField;
    location    "0.3";
    object      meshPhi;
}
// * * * * * * * * * * * * * * * * * * * * * * * * * * * * * * * * * * * * * //

dimensions      [0 3 -1 0 0 0 0];

internalField   nonuniform List<scalar> 
1984
(
0.00330587
-0.00879584
-0.00314007
0.00372811
-0.0100691
0.00401623
-0.0115285
0.00396874
-0.0121228
0.0038984
-0.0116258
0.00405381
-0.0102672
0.0045055
-0.00805584
0.00484806
-0.00510832
0.00475611
-0.00169304
0.00463045
0.00182096
0.00476632
0.00515856
0.0047699
0.00786371
0.0042917
0.00915236
0.00343299
0.00873788
0.00255315
0.00728557
0.00605368
0.00222156
0.0100773
-0.0170286
-0.00953311
0.0112997
-0.0194022
0.0120511
-0.0217474
0.0120051
-0.0225803
0.0118171
-0.0216254
0.0121558
-0.0189683
0.0132014
-0.0146551
0.0140154
-0.00906034
0.0138703
-0.00285777
0.0136462
0.00331617
0.0139622
0.00910573
0.013914
0.0138424
0.0126348
0.0162921
0.0104269
0.0160416
0.00808427
0.0140127
0.0119876
0.00715153
0.0171081
-0.0246202
-0.0162674
0.0190362
-0.0276945
0.0200644
-0.0305421
0.0200654
-0.0312897
0.01978
-0.0297319
0.0200763
-0.0258303
0.0212555
-0.0196769
0.0222327
-0.0119551
0.0221948
-0.00362844
0.022074
0.00452462
0.0224733
0.012063
0.022328
0.0182219
0.0206067
0.0217175
0.0177015
0.0220563
0.0144401
0.0200152
0.0175944
0.0130658
0.0244344
-0.0315121
-0.0234592
0.0268301
-0.0348894
0.0279721
-0.0377044
0.0279936
-0.0381134
0.027602
-0.0359474
0.0277
-0.0309531
0.0287256
-0.0232623
0.0296705
-0.0138292
0.0297828
-0.00391463
0.0298578
0.00557795
0.0302998
0.0142306
0.0300919
0.0213384
0.0282884
0.0256946
0.025221
0.0267703
0.0215135
0.025108
0.022754
0.0200158
0.0321261
-0.0376497
-0.031239
0.0346893
-0.0408996
0.0358061
-0.043416
0.0357676
-0.0433126
0.0352031
-0.0403987
0.034987
-0.0343806
0.0356722
-0.0254778
0.0364831
-0.0148587
0.0367662
-0.00390708
0.0370656
0.00646595
0.0375635
0.0158037
0.0373855
0.0234678
0.0357601
0.0284605
0.0329243
0.0302683
0.0292304
0.0292093
0.0272444
0.0279781
0.0401339
-0.0426204
-0.0395578
0.0425984
-0.0455349
0.0435489
-0.0474529
0.0433328
-0.0467072
0.0425144
-0.0431084
0.0419104
-0.0362998
0.0421026
-0.0265331
0.0427259
-0.0150757
0.043229
-0.00348852
0.043752
0.00727744
0.044344
0.0168324
0.0443079
0.0247016
0.0430786
0.0301053
0.0407873
0.0325606
0.0374858
0.0322
0.0307482
0.0367114
0.0482969
-0.046097
-0.0482421
0.0504946
-0.048472
0.0511566
-0.0498233
0.0506494
-0.0484756
0.0495017
-0.0442262
0.0484787
-0.0368032
0.0481629
-0.0265222
0.0485718
-0.0146778
0.0492519
-0.00288396
0.0499792
0.00789807
0.0507158
0.0173666
0.0509624
0.0252008
0.050337
0.0308196
0.0487899
0.0337633
0.0460029
0.0339284
0.0328309
0.0456847
0.0567246
-0.0482416
-0.0574104
0.0584344
-0.0499022
0.0586118
-0.0504895
0.0576708
-0.0485108
0.0561271
-0.0437655
0.0546814
-0.0359929
0.0539728
-0.0255784
0.0541739
-0.0137978
0.0549003
-0.00219342
0.0558111
0.00828552
0.0567785
0.0173891
0.0574841
0.0249758
0.0575849
0.030595
0.0567264
0.0337397
0.0544621
0.0342675
0.0336165
0.0546532
0.0656802
-0.0490075
-0.0672697
0.0664834
-0.0497538
0.0659346
-0.0494538
0.0644104
-0.0469499
0.0623923
-0.0418799
0.0605314
-0.0340202
0.059508
-0.0238237
0.0595222
-0.0125034
0.0602348
-0.00149634
0.0613237
0.00835324
0.0626401
0.016897
0.063912
0.0240543
0.0646151
0.0294287
0.0643628
0.0326017
0.0628743
0.0335383
0.0334841
0.0639135
0.0751004
-0.0479592
-0.0777313
0.0746589
-0.0478653
0.0731612
-0.0467477
0.0709091
-0.0438284
0.0683455
-0.0386626
0.0661029
-0.0310356
0.0647998
-0.0214512
0.0646156
-0.0110038
0.0653082
-0.000914487
0.0666199
0.008071
0.0683491
0.0158299
0.070083
0.0223542
0.071338
0.027397
0.0718833
0.0306787
0.0715908
0.032124
0.0327479
0.0740356
0.0847201
-0.0450689
-0.0885773
0.082825
-0.044248
0.0802313
-0.0424589
0.0771777
-0.0392415
0.07406
-0.034205
0.0714603
-0.027177
0.0698811
-0.0185768
0.069495
-0.00929929
0.0701889
-0.000372291
0.0717202
0.00747868
0.0737725
0.014232
0.0759616
0.0200625
0.0779957
0.0247946
0.0797228
0.0281612
0.0812319
0.0300986
0.0312979
0.0854728
0.0944229
-0.0400383
-0.09968
0.0910144
-0.0388169
0.0872493
-0.0365681
0.0833441
-0.0332476
0.0796616
-0.0286009
0.0766868
-0.022492
0.0748104
-0.0152233
0.0742151
-0.00741236
0.0749127
6.47201e-05
0.0766085
0.00661983
0.0789872
0.0123166
0.0818279
0.0173481
0.0849543
0.0216467
0.0883586
0.0249611
0.0920403
0.0270856
0.0285681
0.0980097
0.104478
-0.0327312
-0.111196
0.0994409
-0.0313503
0.0943839
-0.0289468
0.0895461
-0.0258401
0.0852132
-0.0218819
0.0817821
-0.0170108
0.0795298
-0.0113584
0.0787186
-0.00528779
0.0794378
0.000509964
0.0813689
0.00557511
0.0842224
0.0100673
0.087913
0.0142457
0.0924375
0.0179175
0.0977253
0.0207597
0.103448
0.0227234
0.0242661
0.111011
0.115018
-0.0229535
-0.123272
0.108134
-0.0217056
0.101607
-0.0195642
0.0956422
-0.0170413
0.0905246
-0.0141006
0.0865493
-0.0107295
0.0839533
-0.00694696
0.0829927
-0.00291069
0.0837586
0.00101065
0.0860225
0.00449934
0.0895446
0.00766419
0.094277
0.0106542
0.100196
0.0133077
0.107116
0.015434
0.114703
0.0170407
0.0184405
0.123779
0.125191
-0.0108729
-0.134939
0.11629
-0.00994555
0.108127
-0.00860674
0.100957
-0.0071447
0.0950377
-0.00556946
0.0905768
-0.00388598
0.0877533
-0.00210679
0.0867308
-0.00023311
0.0876051
0.00163152
0.0902643
0.00336021
0.0945426
0.00495864
0.100309
0.00645029
0.107425
0.00780974
0.115706
0.0090011
0.124895
0.0100025
0.0109009
0.135339
0.128865
-0.140314
0.118318
0.109004
0.101161
0.094963
0.0905505
0.0880072
0.0874033
0.0887549
0.0919745
0.0969197
0.103408
0.111234
0.120162
0.129916
0.140417
0.00248384
-0.00587452
0.00310021
-0.00760545
0.00373876
-0.00966519
0.00397985
-0.0108579
0.00385135
-0.0105597
0.00374806
-0.0090914
0.00383391
-0.00701309
0.0039663
-0.00434087
0.00402509
-0.000993249
0.00396794
0.00259793
0.00413915
0.00593401
0.00436151
0.00851718
0.00403064
0.00957048
0.00324088
0.00888945
0.00238408
0.00726382
0.00588066
0.00203779
0.00778169
-0.0123298
0.00957917
-0.0152299
0.0111995
-0.0184866
0.0118365
-0.020025
0.0115713
-0.0192586
0.0112967
-0.0165812
0.0114654
-0.0127103
0.0117671
-0.00776413
0.0118693
-0.00174624
0.0117276
0.00463957
0.0121784
0.0105039
0.0127426
0.0149978
0.0118949
0.0170235
0.00989758
0.016359
0.0076156
0.0140356
0.0117643
0.00665409
0.0139018
-0.0192042
0.0165034
-0.022671
0.018628
-0.0262503
0.0194842
-0.0276411
0.0191899
-0.0262557
0.018799
-0.0224793
0.0189157
-0.017103
0.0192236
-0.0103295
0.0192933
-0.00224426
0.0191999
0.00626465
0.0198448
0.0139656
0.0205227
0.0197573
0.0194533
0.0226384
0.016889
0.022453
0.0137204
0.0200511
0.0173274
0.0123238
0.0208649
-0.0260461
0.0238036
-0.0295552
0.0260273
-0.0328811
0.0269092
-0.0336501
0.0266014
-0.0315251
0.0261132
-0.026847
0.0261075
-0.0203017
0.0263115
-0.0121342
0.0263374
-0.00251694
0.0263909
0.00749894
0.0271365
0.0164099
0.0277884
0.0230474
0.026745
0.0266455
0.0241066
0.0271187
0.0205254
0.0250385
0.0223357
0.0190174
0.0286083
-0.0325668
0.0314729
-0.0357383
0.0334669
-0.0383538
0.0341993
-0.0383273
0.0338181
-0.0354072
0.0331833
-0.0298802
0.0329735
-0.0223938
0.0330248
-0.0132254
0.0330444
-0.00259617
0.0332711
0.00836496
0.0340745
0.0180038
0.0346895
0.0251553
0.0338276
0.0292997
0.0314533
0.0304286
0.0279114
0.0289019
0.0265597
0.0266646
0.0369125
-0.038088
0.0394247
-0.0407165
0.0409753
-0.0425043
0.041395
-0.0415364
0.0408332
-0.0378094
0.039984
-0.0316373
0.0394473
-0.0235
0.0393231
-0.0136573
0.0394178
-0.00247372
0.0398056
0.00888546
0.0406648
0.0187868
0.0412996
0.0261596
0.0407549
0.0306858
0.0389006
0.0324122
0.0357623
0.0315372
0.0296991
0.0350206
0.0453369
-0.0419871
0.0474743
-0.0441132
0.0485151
-0.0451365
0.0485196
-0.0433615
0.0476658
-0.0389575
0.0465382
-0.0322812
0.0456485
-0.0237555
0.045322
-0.0135909
0.0454675
-0.00223603
0.0459851
0.00909851
0.0469236
0.0188961
0.0476982
0.0262553
0.0476245
0.0310089
0.0464411
0.0331991
0.0438113
0.0328355
0.0313671
0.0435759
0.0536958
-0.0442311
0.055443
-0.0457725
0.0560037
-0.0461337
0.0555378
-0.0436888
0.0543071
-0.038765
0.0528533
-0.0318319
0.0516807
-0.0232163
0.0511376
-0.0130846
0.051221
-0.00194921
0.0518423
0.00898711
0.0529281
0.0183709
0.0540084
0.0255158
0.0545009
0.0303233
0.0539015
0.0327313
0.0517562
0.0327264
0.0316817
0.0520393
0.06227
-0.0450219
0.0633954
-0.045951
0.0633724
-0.0455526
0.0624023
-0.0425688
0.0607493
-0.0373335
0.0589303
-0.0303727
0.057492
-0.0219416
0.0567329
-0.0121646
0.0567157
-0.00159656
0.0574434
0.00863879
0.0587872
0.0173803
0.0602818
0.024101
0.0612168
0.0287265
0.0611027
0.0311878
0.0596389
0.0315576
0.031046
0.0606527
0.071592
-0.0444536
0.0716276
-0.0446996
0.0707705
-0.0435187
0.0691249
-0.0400705
0.0669687
-0.0347278
0.0647868
-0.027976
0.0630653
-0.0199823
0.062093
-0.0108678
0.0620155
-0.00117622
0.0628976
0.00806426
0.0645664
0.0158958
0.066393
0.0219872
0.0677383
0.0263519
0.0682953
0.0289382
0.067917
0.0298007
0.0299673
0.0701882
0.0818666
-0.0423136
0.0803635
-0.0419181
0.0782603
-0.0400103
0.0756925
-0.0362354
0.0729511
-0.0310136
0.0704039
-0.0246889
0.06841
-0.0173957
0.0672578
-0.00924698
0.0671651
-0.000726585
0.0682503
0.00724804
0.0701898
0.0140021
0.0723798
0.0194349
0.0743851
0.0235408
0.0760158
0.026275
0.0773636
0.027694
0.0285208
0.0813845
0.0929197
-0.0381664
0.0895572
-0.0372606
0.0859113
-0.0348595
0.0822362
-0.0310633
0.0787762
-0.0262068
0.0757959
-0.0205741
0.0735398
-0.0142582
0.072264
-0.00732764
0.0722707
-0.000235456
0.0735941
0.00630549
0.0758481
0.0119151
0.0786246
0.0166248
0.0816509
0.0204334
0.0848855
0.0232483
0.0883807
0.0250071
0.0262463
0.0941312
0.104315
-0.031568
0.0989982
-0.0304009
0.0937237
-0.0278978
0.0887998
-0.0244369
0.0844993
-0.0203001
0.0810146
-0.0156762
0.0784937
-0.0106089
0.0771824
-0.00515066
0.0774164
0.000314287
0.0790653
0.0052928
0.0818241
0.00969926
0.0854257
0.013649
0.0898244
0.0170193
0.0949333
0.0195719
0.10049
0.0213341
0.0227989
0.10784
0.115511
-0.0223348
0.108281
-0.0212365
0.101383
-0.019041
0.0952074
-0.0163389
0.0900233
-0.0132992
0.0860028
-0.0100256
0.0832585
-0.00653521
0.0820098
-0.00280814
0.0825001
0.000935981
0.0846191
0.00435104
0.0880748
0.00745237
0.0927327
0.0103422
0.0985356
0.0128664
0.105336
0.0148847
0.112809
0.0164179
0.0178182
0.121739
0.125597
-0.0107107
0.116477
-0.00981321
0.108085
-0.00846283
0.100779
-0.00696175
0.0948009
-0.00536261
0.0903204
-0.00370705
0.0874304
-0.0019975
0.0862988
-0.000196975
0.0870679
0.00161987
0.0896817
0.00332524
0.0939138
0.00490811
0.0996442
0.00637894
0.106697
0.0077108
0.114927
0.00888274
0.124071
0.00987482
0.0107733
0.134458
0.128967
0.118368
0.109005
0.101126
0.0949147
0.0904958
0.0879393
0.0873145
0.0886473
0.0918551
0.0967898
0.103268
0.111081
0.119997
0.129745
0.140238
0.00227719
-0.00526809
0.00277032
-0.00688112
0.00316911
-0.00847621
0.00345755
-0.00933698
0.00376588
-0.00949029
0.00404905
-0.00864733
0.0045049
-0.00654141
0.0048193
-0.00356645
0.00471965
-0.000238306
0.00460884
0.00307488
0.00477119
0.00624307
0.00480196
0.00880459
0.0043357
0.00988012
0.00347287
0.00920659
0.00257554
0.00753727
0.00614608
0.00222124
0.00724324
-0.0113214
0.00869956
-0.0140561
0.00973533
-0.0166535
0.0105729
-0.0178279
0.0113739
-0.0177574
0.012094
-0.0158983
0.013174
-0.0118762
0.0139262
-0.00636763
0.0137601
-0.000359843
0.0135774
0.00551648
0.0139675
0.0110268
0.0139941
0.0154726
0.0127517
0.0175385
0.0105373
0.0168603
0.00815039
0.0144672
0.0121817
0.00716393
0.0131347
-0.0179247
0.0153045
-0.0212886
0.0167927
-0.0243289
0.0179759
-0.0254409
0.0189903
-0.0247216
0.0198851
-0.0216815
0.0211629
-0.0159893
0.0220788
-0.00850485
0.0220122
-0.000484206
0.0219502
0.00728363
0.0224596
0.0144664
0.0224274
0.0202603
0.0207682
0.023288
0.0178636
0.0231116
0.0145488
0.0206298
0.0178974
0.0131126
0.0198881
-0.024577
0.0224762
-0.0281358
0.0242206
-0.031159
0.0255105
-0.0318327
0.0264953
-0.0302956
0.0273407
-0.0260835
0.02855
-0.0189856
0.029451
-0.00999089
0.0295294
-0.000517785
0.029669
0.00855026
0.0302444
0.0168244
0.0301791
0.0235291
0.0284637
0.0273984
0.025413
0.0279549
0.02166
0.0258377
0.0231594
0.0201084
0.0274015
-0.030988
0.0300934
-0.0343781
0.031861
-0.0369764
0.0330662
-0.0370235
0.0338416
-0.0345405
0.0344557
-0.0292019
0.0354071
-0.0209837
0.0361984
-0.0109711
0.0364408
-0.000589047
0.0367994
0.00930063
0.0374417
0.0182621
0.0374279
0.0255689
0.035917
0.030136
0.033122
0.0314784
0.029404
0.0300007
0.0277313
0.0281168
0.0354323
-0.0364892
0.0379714
-0.0395042
0.0395669
-0.0415072
0.0405255
-0.0407843
0.0409734
-0.0374098
0.041225
-0.0311596
0.0417403
-0.0221291
0.0423719
-0.0114373
0.0428261
-0.000562828
0.0433927
0.00967144
0.0441287
0.0188957
0.0442728
0.0265018
0.0431847
0.031595
0.040964
0.0336948
0.0376697
0.0329924
0.0312816
0.0368866
0.0435403
-0.0404997
0.0458729
-0.0431307
0.0471977
-0.044554
0.0478126
-0.0431545
0.0478518
-0.0389977
0.0476673
-0.032033
0.0477039
-0.0225082
0.0481454
-0.0115381
0.048767
-0.000562609
0.0495146
0.0096522
0.0503838
0.0188439
0.0508188
0.026539
0.0503608
0.0320009
0.048918
0.03473
0.0461756
0.0346599
0.0333692
0.0458799
0.0514932
-0.0428694
0.0535871
-0.0450438
0.0546252
-0.0459593
0.0548456
-0.0439981
0.0544308
-0.0392694
0.0537839
-0.0318659
0.0534365
-0.022179
0.053684
-0.0113123
0.0543392
-0.000592109
0.0552378
0.0092926
0.0563161
0.0181819
0.0572102
0.0257647
0.0574999
0.0313878
0.0567805
0.0344712
0.0546004
0.0348835
0.0341142
0.0548462
0.0595089
-0.0438147
0.0611787
-0.045447
0.0617962
-0.045753
0.0615738
-0.0433593
0.060685
-0.0382822
0.0595885
-0.0307053
0.0589231
-0.0211632
0.0589887
-0.0107396
0.0596156
-0.0006216
0.0606573
0.00865737
0.0620527
0.017048
0.0635005
0.0242986
0.0644061
0.0298121
0.0643229
0.0330649
0.0629533
0.0339977
0.0338978
0.0640779
0.0682918
-0.0436336
0.0690074
-0.0444956
0.0688911
-0.0440258
0.0680437
-0.0412468
0.0666366
-0.0360467
0.0651421
-0.0286093
0.064191
-0.0195674
0.0640641
-0.00992402
0.0646634
-0.000653249
0.0658964
0.00780386
0.0676644
0.0154523
0.0695493
0.0221473
0.0710053
0.0274247
0.0717356
0.0308785
0.0715871
0.032403
0.0330415
0.0741417
0.0782926
-0.0419705
0.0774455
-0.0419946
0.0761574
-0.040744
0.0744252
-0.0376355
0.0723933
-0.0325197
0.0705015
-0.0255781
0.0692676
-0.0173858
0.068954
-0.00878298
0.0695592
-0.000565396
0.0709879
0.00684506
0.0730387
0.0135435
0.0753439
0.0195725
0.0775582
0.0245675
0.0794671
0.0281449
0.0811302
0.0302036
0.0314553
0.0854962
0.0894592
-0.0381492
0.0867246
-0.0375165
0.0838961
-0.0356768
0.0809836
-0.0324093
0.0781519
-0.0276522
0.0757726
-0.0215617
0.0742199
-0.0145779
0.0737146
-0.00728258
0.0743393
-0.000346201
0.0759258
0.00588986
0.0782731
0.011571
0.0811894
0.0167851
0.0844608
0.0213167
0.0880235
0.0248204
0.0918511
0.0270646
0.0286119
0.0979487
0.101496
-0.0317076
0.0967367
-0.0307204
0.092127
-0.0285798
0.0878166
-0.0254804
0.0840068
-0.0214301
0.0809984
-0.0165481
0.0790146
-0.0110708
0.078297
-0.00533323
0.0789666
0.00012435
0.0808031
0.00500136
0.0836149
0.00950099
0.0873476
0.0138102
0.0919722
0.0176381
0.097379
0.0206075
0.103223
0.0226582
0.0242529
0.110898
0.113738
-0.0224763
0.10687
-0.0214618
0.100413
-0.0194449
0.0946165
-0.0169223
0.0897343
-0.0139307
0.0859996
-0.0105487
0.0835837
-0.00684691
0.0826968
-0.00296642
0.0834365
0.000799998
0.0856386
0.00420971
0.0891286
0.00738531
0.0938803
0.0104377
0.0998555
0.0131634
0.106848
0.0153493
0.114516
0.016998
0.0184232
0.123672
0.124839
-0.0107669
0.115884
-0.00988876
0.10768
-0.00858354
0.100523
-0.00712241
0.0946746
-0.00553447
0.090311
-0.0038467
0.0875711
-0.00208574
0.0865862
-0.000248775
0.0874512
0.00158042
0.0900841
0.00329218
0.0943474
0.00489399
0.10012
0.00640047
0.107258
0.00777687
0.115571
0.0089821
0.124798
0.00999305
0.0108968
0.135279
0.128816
0.118252
0.10892
0.101071
0.0948837
0.0904905
0.0879653
0.08737
0.0887199
0.0919339
0.0968756
0.103365
0.111196
0.120131
0.129893
0.140402
0.00248117
-0.00587044
0.00311153
-0.00764694
0.00376361
-0.00976817
0.00401685
-0.0110506
0.00389527
-0.0108697
0.00379236
-0.00953512
0.00387247
-0.00761567
0.00401182
-0.00515828
0.00414514
-0.00211789
0.00431924
0.00125095
0.00459768
0.00462026
0.00473746
0.00743452
0.00450867
0.00900482
0.00398845
0.00910748
0.00332743
0.00813731
0.00724833
0.00778871
-0.0123318
0.00961838
-0.0153061
0.0112719
-0.018672
0.0119403
-0.020369
0.0116957
-0.0198139
0.0114251
-0.0173891
0.0115833
-0.0138211
0.0119151
-0.00928692
0.0122682
-0.0038312
0.0127592
0.00212865
0.0134846
0.00804016
0.0138338
0.0130041
0.0132513
0.0159256
0.0118788
0.0164125
0.0100634
0.0150084
0.0135205
0.0139413
-0.0192126
0.0165775
-0.0227736
0.0187434
-0.0264962
0.0196423
-0.0280972
0.0193812
-0.0269932
0.0190025
-0.0235595
0.0191179
-0.0186003
0.0195013
-0.0124068
0.0199892
-0.00512756
0.0207345
0.00272726
0.0217417
0.0104531
0.0222303
0.0169616
0.0214951
0.0209992
0.0196399
0.0220712
0.0170218
0.0206881
0.018951
0.0209472
-0.0260525
0.0239143
-0.0296721
0.0261805
-0.0331656
0.0271125
-0.034178
0.0268493
-0.0323806
0.0263863
-0.0281114
0.0264012
-0.0220759
0.0267392
-0.0146419
0.0272793
-0.00604627
0.0282085
0.00313347
0.0293769
0.0120723
0.0299723
0.0196035
0.0292698
0.0244833
0.027283
0.0262052
0.0242538
0.0251729
0.023498
0.028734
-0.032558
0.0316181
-0.0358548
0.0336526
-0.0386545
0.0344402
-0.0388914
0.0341145
-0.0363257
0.0335223
-0.0312445
0.0333636
-0.0243349
0.0336083
-0.0160231
0.0341853
-0.00657548
0.0352392
0.0034293
0.0365131
0.0130935
0.0372238
0.0212387
0.0367169
0.0267403
0.0349031
0.029131
0.031833
0.0286538
0.0272986
0.0370754
-0.0380518
0.0395994
-0.0408184
0.0411882
-0.0428014
0.041667
-0.042104
0.0411712
-0.0387374
0.040384
-0.0330266
0.0399358
-0.0255102
0.0400641
-0.0166126
0.0407322
-0.00670078
0.0418731
0.00365509
0.0432292
0.013588
0.0441085
0.0219987
0.0439517
0.0279126
0.0425476
0.0308881
0.0397297
0.0310189
0.030102
0.0455258
-0.0419166
0.0476713
-0.0441893
0.0487487
-0.0454116
0.0488156
-0.0439039
0.0480379
-0.039851
0.046992
-0.0336296
0.0462353
-0.0257389
0.0462257
-0.0165559
0.046951
-0.00650631
0.0481495
0.00383369
0.0495932
0.0136903
0.0507229
0.0220969
0.0510612
0.0282369
0.0502115
0.0316807
0.0478851
0.0324168
0.0319908
0.053895
-0.0441263
0.0556525
-0.0458169
0.0562507
-0.046374
0.0558503
-0.0441827
0.0547037
-0.039585
0.0533529
-0.0330786
0.0523661
-0.025082
0.0522094
-0.0159323
0.0528777
-0.00606284
0.0541173
0.00395904
0.0556969
0.0134453
0.0572028
0.0216229
0.0581211
0.0277993
0.0579439
0.0315562
0.0564007
0.0328542
0.0329932
0.0624601
-0.0448906
0.0636053
-0.0459635
0.0636241
-0.0457487
0.0627224
-0.0429948
0.0611599
-0.0380496
0.0594681
-0.0314705
0.0582764
-0.0236219
0.057969
-0.0147821
0.058544
-0.00539379
0.059833
0.00403211
0.061646
0.0129385
0.063591
0.0206844
0.0650956
0.026685
0.0657489
0.0305771
0.0652791
0.0323239
0.0330724
0.0717497
-0.044312
0.0718223
-0.0446869
0.0710159
-0.0436685
0.0694422
-0.0404193
0.0673817
-0.0353193
0.0653548
-0.0288929
0.06394
-0.0214275
0.0634704
-0.0131802
0.0639776
-0.00454272
0.0653808
0.00403647
0.0674762
0.0121179
0.0698162
0.0192191
0.0719625
0.0248601
0.0735907
0.0287237
0.0744226
0.0308083
0.0320959
0.0819701
-0.0421857
0.0805266
-0.041895
0.0784869
-0.0401204
0.0759938
-0.0365034
0.073354
-0.0314702
0.0709908
-0.0254141
0.0693497
-0.018589
0.0687251
-0.0112041
0.0692162
-0.00358925
0.0707557
0.00388451
0.0730717
0.0109414
0.0758362
0.017259
0.0787373
0.022416
0.0814936
0.0260998
0.0838645
0.0283254
0.0299179
0.0929601
-0.0380755
0.0896777
-0.0372434
0.0861049
-0.0349376
0.0825066
-0.0312531
0.079155
-0.0265343
0.0763798
-0.0211156
0.0744934
-0.0151904
0.073741
-0.00889839
0.0742614
-0.00252314
0.0759113
0.00368061
0.0784797
0.00958305
0.0817799
0.0149749
0.0856012
0.0194842
0.0897002
0.0227877
0.0936898
0.0249479
0.0266539
0.104306
-0.0315218
0.0990739
-0.0303965
0.093873
-0.0279496
0.0890238
-0.0245568
0.0848313
-0.0205097
0.0815469
-0.0160395
0.0793623
-0.0112591
0.0784907
-0.00626119
0.0790694
-0.00125759
0.0809251
0.00353548
0.0838761
0.00814166
0.0878582
0.0125135
0.0927885
0.0162102
0.0983146
0.0189213
0.103931
0.0208536
0.0225416
0.115484
-0.0223214
0.10832
-0.0212402
0.101481
-0.0190691
0.0953656
-0.0163978
0.0902693
-0.0134036
0.0864016
-0.0102126
0.0838991
-0.00688021
0.0829224
-0.00338395
0.0835992
0.000136428
0.0857928
0.00347914
0.0893339
0.00668866
0.0941941
0.009741
0.100254
0.0123584
0.107152
0.0143977
0.114523
0.0159926
0.0174415
0.125577
-0.0107098
0.116492
-0.00981573
0.108132
-0.00847059
0.100858
-0.00697673
0.094927
-0.00538917
0.0905232
-0.00375573
0.0877488
-0.0020882
0.0867294
-0.000349043
0.0875646
0.00141551
0.0901787
0.00310868
0.0944494
0.00471454
0.100247
0.00621613
0.107384
0.00755902
0.115614
0.00872621
0.124684
0.00972449
0.0106473
0.128962
0.118371
0.109015
0.101145
0.0949442
0.090543
0.0880119
0.0874102
0.0887505
0.0919581
0.0968995
0.103391
0.111216
0.120133
0.129862
)
;

boundaryField
{
    walls
    {
        type            calculated;
        value           uniform 0;
    }
    cylinder
    {
        type            calculated;
        value           nonuniform List<scalar> 
64
(
2.33085e-11
-4.60437e-11
-2.9734e-11
4.10452e-11
-1.45759e-11
8.01165e-12
2.41502e-11
-1.96695e-11
1.96678e-11
-2.41519e-11
-8.01355e-12
1.45739e-11
-4.10463e-11
2.97338e-11
4.60446e-11
-2.33103e-11
2.33085e-11
-4.60437e-11
-2.9734e-11
4.10452e-11
-1.45759e-11
8.01165e-12
2.41502e-11
-1.96695e-11
1.96678e-11
-2.41519e-11
-8.01355e-12
1.45739e-11
-4.10463e-11
2.97338e-11
4.60446e-11
-2.33103e-11
2.33085e-11
-4.60437e-11
-2.9734e-11
4.10452e-11
-1.45759e-11
8.01165e-12
2.41502e-11
-1.96695e-11
1.96678e-11
-2.41519e-11
-8.01355e-12
1.45739e-11
-4.10463e-11
2.97338e-11
4.60446e-11
-2.33103e-11
2.33085e-11
-4.60437e-11
-2.9734e-11
4.10452e-11
-1.45759e-11
8.01165e-12
2.41502e-11
-1.96695e-11
1.96678e-11
-2.41519e-11
-8.01355e-12
1.45739e-11
-4.10463e-11
2.97338e-11
4.60446e-11
-2.33103e-11
)
;
    }
    outlet
    {
        type            calculated;
        value           uniform 0;
    }
    inlet
    {
        type            calculated;
        value           uniform 0;
    }
    frontAndBack
    {
        type            empty;
    }
}


// ************************************************************************* //
