/*--------------------------------*- C++ -*----------------------------------*\
| =========                 |                                                 |
| \\      /  F ield         | OpenFOAM: The Open Source CFD Toolbox           |
|  \\    /   O peration     | Version:  2412                                  |
|   \\  /    A nd           | Website:  www.openfoam.com                      |
|    \\/     M anipulation  |                                                 |
\*---------------------------------------------------------------------------*/
FoamFile
{
    version     2.0;
    format      ascii;
    arch        "LSB;label=32;scalar=64";
    class       pointVectorField;
    location    "0.3";
    object      pointDisplacement;
}
// * * * * * * * * * * * * * * * * * * * * * * * * * * * * * * * * * * * * * //

dimensions      [0 1 0 0 0 0 0];

internalField   nonuniform List<vector> 
2176
(
(0 0 0)
(0 0 0)
(0 0 0)
(0 0 0)
(0 0 0)
(0 0 0)
(0 0 0)
(0 0 0)
(0 0 0)
(0 0 0)
(0 0 0)
(0 0 0)
(0 0 0)
(0 0 0)
(0 0 0)
(0 0 0)
(0 0 0)
(0.00359101 -0.00395909 0)
(0.00486125 -0.00511546 0)
(0.00729295 -0.00691359 0)
(0.00979047 -0.00798609 0)
(0.0123469 -0.00824901 0)
(0.0148963 -0.00764852 0)
(0.0172632 -0.00616658 0)
(0.0191523 -0.00388854 0)
(0.0201726 -0.00106894 0)
(0.020051 0.00189124 0)
(0.0188428 0.00453556 0)
(0.0167943 0.00648445 0)
(0.0141656 0.00748695 0)
(0.0112383 0.00745926 0)
(0.0082643 0.0064795 0)
(0.00536561 0.00471129 0)
(0.00385494 0.0035585 0)
(0.00890315 -0.00979528 0)
(0.011327 -0.0116807 0)
(0.015929 -0.014652 0)
(0.0206557 -0.0162365 0)
(0.0254739 -0.0163199 0)
(0.0302062 -0.0148133 0)
(0.034506 -0.0117159 0)
(0.0378416 -0.00722313 0)
(0.0395877 -0.00181898 0)
(0.0393356 0.00378214 0)
(0.0371612 0.00880367 0)
(0.0334558 0.0126019 0)
(0.0286833 0.0147451 0)
(0.0233356 0.0150638 0)
(0.0178523 0.0136565 0)
(0.0124544 0.01075 0)
(0.00959827 0.00885863 0)
(0.0156647 -0.0171832 0)
(0.0191518 -0.0193861 0)
(0.0256426 -0.0229319 0)
(0.032304 -0.0245241 0)
(0.0390483 -0.0240413 0)
(0.0455799 -0.0213891 0)
(0.0513897 -0.0166055 0)
(0.0557815 -0.0100064 0)
(0.0580043 -0.0022683 0)
(0.0575962 0.00566751 0)
(0.0546492 0.012809 0)
(0.0496474 0.0183384 0)
(0.0431941 0.0217038 0)
(0.03593 0.0226697 0)
(0.0284194 0.021311 0)
(0.0209655 0.0178616 0)
(0.0169089 0.0156295 0)
(0.0237111 -0.0259005 0)
(0.0282028 -0.0280439 0)
(0.0363084 -0.0316107 0)
(0.0446212 -0.0327637 0)
(0.0529774 -0.0313908 0)
(0.0609515 -0.0274031 0)
(0.0679024 -0.0208942 0)
(0.0730225 -0.0122945 0)
(0.0755242 -0.00243465 0)
(0.0749477 0.00758283 0)
(0.0713895 0.0166327 0)
(0.0653839 0.0237938 0)
(0.0576354 0.0284398 0)
(0.0488863 0.0302834 0)
(0.0397816 0.0293648 0)
(0.030685 0.0258968 0)
(0.0255734 0.0237106 0)
(0.0328926 -0.0357276 0)
(0.0383386 -0.0374563 0)
(0.0478153 -0.0405543 0)
(0.0575141 -0.0408847 0)
(0.0671732 -0.0383429 0)
(0.0762591 -0.0328659 0)
(0.0840288 -0.0246142 0)
(0.0896171 -0.0141199 0)
(0.092248 -0.00232703 0)
(0.0914878 0.00956289 0)
(0.0874417 0.0203509 0)
(0.08068 0.0290605 0)
(0.0719619 0.0350254 0)
(0.0620901 0.0379256 0)
(0.0517645 0.0377637 0)
(0.0414 0.0347271 0)
(0.0353587 0.0329356 0)
(0.0430652 -0.046428 0)
(0.0494356 -0.0474346 0)
(0.0600567 -0.0496322 0)
(0.0708881 -0.0488041 0)
(0.0815691 -0.0448653 0)
(0.0914688 -0.0377846 0)
(0.0997804 -0.0277929 0)
(0.105619 -0.015504 0)
(0.108254 -0.00193661 0)
(0.1073 0.0116501 0)
(0.102871 0.0240318 0)
(0.0955487 0.0342176 0)
(0.0861248 0.0415292 0)
(0.0754364 0.0456246 0)
(0.0642109 0.0464755 0)
(0.0528991 0.0442472 0)
(0.0460374 0.0431577 0)
(0.0541106 -0.0577784 0)
(0.0613756 -0.0577794 0)
(0.0729469 -0.0587109 0)
(0.0846765 -0.0564459 0)
(0.0961083 -0.0509185 0)
(0.106549 -0.0421455 0)
(0.115159 -0.030427 0)
(0.121081 -0.0164417 0)
(0.123624 -0.00124832 0)
(0.122452 0.0138827 0)
(0.117717 0.027738 0)
(0.109999 0.0393419 0)
(0.100092 0.0480185 0)
(0.0888362 0.0534187 0)
(0.0769739 0.055488 0)
(0.0649831 0.0543753 0)
(0.0573724 0.0542404 0)
(0.0659507 -0.0695738 0)
(0.0740925 -0.068325 0)
(0.0864213 -0.0676644 0)
(0.0988187 -0.0637142 0)
(0.110755 -0.0564433 0)
(0.12149 -0.045918 0)
(0.130184 -0.0324994 0)
(0.13603 -0.0169158 0)
(0.138393 -0.000233118 0)
(0.136995 0.0163073 0)
(0.132022 0.0315325 0)
(0.124038 0.044501 0)
(0.113822 0.0545582 0)
(0.102203 0.0613503 0)
(0.089914 0.0648022 0)
(0.0774577 0.0650569 0)
(0.0691621 0.0660992 0)
(0.0785397 -0.0816213 0)
(0.0875302 -0.0788952 0)
(0.100439 -0.0763464 0)
(0.11329 -0.0705023 0)
(0.125488 -0.0613628 0)
(0.136283 -0.0490467 0)
(0.144863 -0.0339701 0)
(0.150491 -0.0168871 0)
(0.152596 0.00115378 0)
(0.150959 0.0189739 0)
(0.145797 0.0354739 0)
(0.137657 0.0497633 0)
(0.127278 0.0612112 0)
(0.115447 0.0694668 0)
(0.1029 0.0744448 0)
(0.0901532 0.076288 0)
(0.0812064 0.0786909 0)
(0.091854 -0.0936857 0)
(0.101663 -0.0892764 0)
(0.114978 -0.0845851 0)
(0.128063 -0.0766639 0)
(0.140296 -0.065559 0)
(0.150936 -0.0514403 0)
(0.159224 -0.0347664 0)
(0.164483 -0.0162982 0)
(0.166238 0.00296773 0)
(0.164352 0.0219477 0)
(0.159049 0.0396326 0)
(0.150835 0.0551936 0)
(0.140395 0.0680385 0)
(0.128487 0.0778323 0)
(0.115814 0.0844766 0)
(0.102886 0.0880898 0)
(0.0932899 0.092009 0)
(0.105902 -0.105514 0)
(0.116486 -0.0992162 0)
(0.130042 -0.0921577 0)
(0.143158 -0.0820038 0)
(0.155191 -0.0688584 0)
(0.165443 -0.0529548 0)
(0.17323 -0.0347763 0)
(0.177972 -0.0150558 0)
(0.179305 0.0052983 0)
(0.177152 0.0253115 0)
(0.171734 0.0440803 0)
(0.163515 0.0608617 0)
(0.153118 0.0751197 0)
(0.141227 0.0865242 0)
(0.128507 0.0949577 0)
(0.115456 0.100518 0)
(0.105153 0.106079 0)
(0.120728 -0.116745 0)
(0.132048 -0.108355 0)
(0.145677 -0.0987255 0)
(0.158583 -0.0862123 0)
(0.170144 -0.0709963 0)
(0.179745 -0.0533661 0)
(0.186809 -0.0338154 0)
(0.190883 -0.0130024 0)
(0.191713 0.00827311 0)
(0.189277 0.0291703 0)
(0.18378 0.0489151 0)
(0.175621 0.0668618 0)
(0.165333 0.0825266 0)
(0.153516 0.095607 0)
(0.140777 0.105954 0)
(0.127576 0.113617 0)
(0.116449 0.120947 0)
(0.136416 -0.126883 0)
(0.148406 -0.116132 0)
(0.161875 -0.103731 0)
(0.174268 -0.0887891 0)
(0.185035 -0.0715468 0)
(0.193685 -0.0523332 0)
(0.199792 -0.0316001 0)
(0.203052 -0.00990737 0)
(0.203315 0.0120797 0)
(0.200585 0.0336751 0)
(0.195029 0.0542488 0)
(0.186968 0.0732708 0)
(0.176829 0.0903233 0)
(0.165099 0.105118 0)
(0.152285 0.117485 0)
(0.138815 0.127417 0)
(0.126661 0.136644 0)
(0.152946 -0.135097 0)
(0.165495 -0.121652 0)
(0.178452 -0.106351 0)
(0.18991 -0.0890252 0)
(0.199494 -0.0699384 0)
(0.206882 -0.0494019 0)
(0.211819 -0.0277754 0)
(0.214131 -0.00549889 0)
(0.213743 0.016914 0)
(0.210677 0.0389431 0)
(0.205059 0.0601274 0)
(0.19711 0.0800659 0)
(0.187125 0.0984233 0)
(0.175455 0.114937 0)
(0.162466 0.12943 0)
(0.148509 0.14183 0)
(0.134963 0.153116 0)
(0.169451 -0.139823 0)
(0.182345 -0.123335 0)
(0.194204 -0.10532 0)
(0.204234 -0.085947 0)
(0.212258 -0.0654462 0)
(0.21813 -0.0440559 0)
(0.221738 -0.022038 0)
(0.223009 0.000318691 0)
(0.221919 0.0226902 0)
(0.21849 0.0447489 0)
(0.21279 0.0662043 0)
(0.204932 0.0867887 0)
(0.195064 0.106258 0)
(0.183373 0.124392 0)
(0.170056 0.141013 0)
(0.155324 0.155983 0)
(0.139785 0.169507 0)
(0.177912 -0.141394 0)
(0.190915 -0.123275 0)
(0.202079 -0.103968 0)
(0.211296 -0.0836602 0)
(0.218479 -0.0625468 0)
(0.223557 -0.0408309 0)
(0.226483 -0.0187218 0)
(0.227228 0.00356752 0)
(0.225784 0.0258225 0)
(0.222165 0.0478289 0)
(0.216408 0.0693746 0)
(0.208566 0.0902522 0)
(0.198715 0.110261 0)
(0.186951 0.129207 0)
(0.173386 0.146909 0)
(0.158152 0.163197 0)
(0.141394 0.177912 0)
(0 0 0)
(0 0 0)
(0 0 0)
(0 0 0)
(0 0 0)
(0 0 0)
(0 0 0)
(0 0 0)
(0 0 0)
(0 0 0)
(0 0 0)
(0 0 0)
(0 0 0)
(0 0 0)
(0 0 0)
(0 0 0)
(0 0 0)
(0.00359101 -0.00395909 0)
(0.00486125 -0.00511546 0)
(0.00729295 -0.00691359 0)
(0.00979047 -0.00798609 0)
(0.0123469 -0.00824901 0)
(0.0148963 -0.00764852 0)
(0.0172632 -0.00616658 0)
(0.0191523 -0.00388854 0)
(0.0201726 -0.00106894 0)
(0.020051 0.00189124 0)
(0.0188428 0.00453556 0)
(0.0167943 0.00648445 0)
(0.0141656 0.00748695 0)
(0.0112383 0.00745926 0)
(0.0082643 0.0064795 0)
(0.00536561 0.00471129 0)
(0.00385494 0.0035585 0)
(0.00890315 -0.00979528 0)
(0.011327 -0.0116807 0)
(0.015929 -0.014652 0)
(0.0206557 -0.0162365 0)
(0.0254739 -0.0163199 0)
(0.0302062 -0.0148133 0)
(0.034506 -0.0117159 0)
(0.0378416 -0.00722313 0)
(0.0395877 -0.00181898 0)
(0.0393356 0.00378214 0)
(0.0371612 0.00880367 0)
(0.0334558 0.0126019 0)
(0.0286833 0.0147451 0)
(0.0233356 0.0150638 0)
(0.0178523 0.0136565 0)
(0.0124544 0.01075 0)
(0.00959827 0.00885863 0)
(0.0156647 -0.0171832 0)
(0.0191518 -0.0193861 0)
(0.0256426 -0.0229319 0)
(0.032304 -0.0245241 0)
(0.0390483 -0.0240413 0)
(0.0455799 -0.0213891 0)
(0.0513897 -0.0166055 0)
(0.0557815 -0.0100064 0)
(0.0580043 -0.0022683 0)
(0.0575962 0.00566751 0)
(0.0546492 0.012809 0)
(0.0496474 0.0183384 0)
(0.0431941 0.0217038 0)
(0.03593 0.0226697 0)
(0.0284194 0.021311 0)
(0.0209655 0.0178616 0)
(0.0169089 0.0156295 0)
(0.0237111 -0.0259005 0)
(0.0282028 -0.0280439 0)
(0.0363084 -0.0316107 0)
(0.0446212 -0.0327637 0)
(0.0529774 -0.0313908 0)
(0.0609515 -0.0274031 0)
(0.0679024 -0.0208942 0)
(0.0730225 -0.0122945 0)
(0.0755242 -0.00243465 0)
(0.0749477 0.00758283 0)
(0.0713895 0.0166327 0)
(0.0653839 0.0237938 0)
(0.0576354 0.0284398 0)
(0.0488863 0.0302834 0)
(0.0397816 0.0293648 0)
(0.030685 0.0258968 0)
(0.0255734 0.0237106 0)
(0.0328926 -0.0357276 0)
(0.0383386 -0.0374563 0)
(0.0478153 -0.0405543 0)
(0.0575141 -0.0408847 0)
(0.0671732 -0.0383429 0)
(0.0762591 -0.0328659 0)
(0.0840288 -0.0246142 0)
(0.0896171 -0.0141199 0)
(0.092248 -0.00232703 0)
(0.0914878 0.00956289 0)
(0.0874417 0.0203509 0)
(0.08068 0.0290605 0)
(0.0719619 0.0350254 0)
(0.0620901 0.0379256 0)
(0.0517645 0.0377637 0)
(0.0414 0.0347271 0)
(0.0353587 0.0329356 0)
(0.0430652 -0.046428 0)
(0.0494356 -0.0474346 0)
(0.0600567 -0.0496322 0)
(0.0708881 -0.0488041 0)
(0.0815691 -0.0448653 0)
(0.0914688 -0.0377846 0)
(0.0997804 -0.0277929 0)
(0.105619 -0.015504 0)
(0.108254 -0.00193661 0)
(0.1073 0.0116501 0)
(0.102871 0.0240318 0)
(0.0955487 0.0342176 0)
(0.0861248 0.0415292 0)
(0.0754364 0.0456246 0)
(0.0642109 0.0464755 0)
(0.0528991 0.0442472 0)
(0.0460374 0.0431577 0)
(0.0541106 -0.0577784 0)
(0.0613756 -0.0577794 0)
(0.0729469 -0.0587109 0)
(0.0846765 -0.0564459 0)
(0.0961083 -0.0509185 0)
(0.106549 -0.0421455 0)
(0.115159 -0.030427 0)
(0.121081 -0.0164417 0)
(0.123624 -0.00124832 0)
(0.122452 0.0138827 0)
(0.117717 0.027738 0)
(0.109999 0.0393419 0)
(0.100092 0.0480185 0)
(0.0888362 0.0534187 0)
(0.0769739 0.055488 0)
(0.0649831 0.0543753 0)
(0.0573724 0.0542404 0)
(0.0659507 -0.0695738 0)
(0.0740925 -0.068325 0)
(0.0864213 -0.0676644 0)
(0.0988187 -0.0637142 0)
(0.110755 -0.0564433 0)
(0.12149 -0.045918 0)
(0.130184 -0.0324994 0)
(0.13603 -0.0169158 0)
(0.138393 -0.000233118 0)
(0.136995 0.0163073 0)
(0.132022 0.0315325 0)
(0.124038 0.044501 0)
(0.113822 0.0545582 0)
(0.102203 0.0613503 0)
(0.089914 0.0648022 0)
(0.0774577 0.0650569 0)
(0.0691621 0.0660992 0)
(0.0785397 -0.0816213 0)
(0.0875302 -0.0788952 0)
(0.100439 -0.0763464 0)
(0.11329 -0.0705023 0)
(0.125488 -0.0613628 0)
(0.136283 -0.0490467 0)
(0.144863 -0.0339701 0)
(0.150491 -0.0168871 0)
(0.152596 0.00115378 0)
(0.150959 0.0189739 0)
(0.145797 0.0354739 0)
(0.137657 0.0497633 0)
(0.127278 0.0612112 0)
(0.115447 0.0694668 0)
(0.1029 0.0744448 0)
(0.0901532 0.076288 0)
(0.0812064 0.0786909 0)
(0.091854 -0.0936857 0)
(0.101663 -0.0892764 0)
(0.114978 -0.0845851 0)
(0.128063 -0.0766639 0)
(0.140296 -0.065559 0)
(0.150936 -0.0514403 0)
(0.159224 -0.0347664 0)
(0.164483 -0.0162982 0)
(0.166238 0.00296773 0)
(0.164352 0.0219477 0)
(0.159049 0.0396326 0)
(0.150835 0.0551936 0)
(0.140395 0.0680385 0)
(0.128487 0.0778323 0)
(0.115814 0.0844766 0)
(0.102886 0.0880898 0)
(0.0932899 0.092009 0)
(0.105902 -0.105514 0)
(0.116486 -0.0992162 0)
(0.130042 -0.0921577 0)
(0.143158 -0.0820038 0)
(0.155191 -0.0688584 0)
(0.165443 -0.0529548 0)
(0.17323 -0.0347763 0)
(0.177972 -0.0150558 0)
(0.179305 0.0052983 0)
(0.177152 0.0253115 0)
(0.171734 0.0440803 0)
(0.163515 0.0608617 0)
(0.153118 0.0751197 0)
(0.141227 0.0865242 0)
(0.128507 0.0949577 0)
(0.115456 0.100518 0)
(0.105153 0.106079 0)
(0.120728 -0.116745 0)
(0.132048 -0.108355 0)
(0.145677 -0.0987255 0)
(0.158583 -0.0862123 0)
(0.170144 -0.0709963 0)
(0.179745 -0.0533661 0)
(0.186809 -0.0338154 0)
(0.190883 -0.0130024 0)
(0.191713 0.00827311 0)
(0.189277 0.0291703 0)
(0.18378 0.0489151 0)
(0.175621 0.0668618 0)
(0.165333 0.0825266 0)
(0.153516 0.095607 0)
(0.140777 0.105954 0)
(0.127576 0.113617 0)
(0.116449 0.120947 0)
(0.136416 -0.126883 0)
(0.148406 -0.116132 0)
(0.161875 -0.103731 0)
(0.174268 -0.0887891 0)
(0.185035 -0.0715468 0)
(0.193685 -0.0523332 0)
(0.199792 -0.0316001 0)
(0.203052 -0.00990737 0)
(0.203315 0.0120797 0)
(0.200585 0.0336751 0)
(0.195029 0.0542488 0)
(0.186968 0.0732708 0)
(0.176829 0.0903233 0)
(0.165099 0.105118 0)
(0.152285 0.117485 0)
(0.138815 0.127417 0)
(0.126661 0.136644 0)
(0.152946 -0.135097 0)
(0.165495 -0.121652 0)
(0.178452 -0.106351 0)
(0.18991 -0.0890252 0)
(0.199494 -0.0699384 0)
(0.206882 -0.0494019 0)
(0.211819 -0.0277754 0)
(0.214131 -0.00549889 0)
(0.213743 0.016914 0)
(0.210677 0.0389431 0)
(0.205059 0.0601274 0)
(0.19711 0.0800659 0)
(0.187125 0.0984233 0)
(0.175455 0.114937 0)
(0.162466 0.12943 0)
(0.148509 0.14183 0)
(0.134963 0.153116 0)
(0.169451 -0.139823 0)
(0.182345 -0.123335 0)
(0.194204 -0.10532 0)
(0.204234 -0.085947 0)
(0.212258 -0.0654462 0)
(0.21813 -0.0440559 0)
(0.221738 -0.022038 0)
(0.223009 0.000318691 0)
(0.221919 0.0226902 0)
(0.21849 0.0447489 0)
(0.21279 0.0662043 0)
(0.204932 0.0867887 0)
(0.195064 0.106258 0)
(0.183373 0.124392 0)
(0.170056 0.141013 0)
(0.155324 0.155983 0)
(0.139785 0.169507 0)
(0.177912 -0.141394 0)
(0.190915 -0.123275 0)
(0.202079 -0.103968 0)
(0.211296 -0.0836602 0)
(0.218479 -0.0625468 0)
(0.223557 -0.0408309 0)
(0.226483 -0.0187218 0)
(0.227228 0.00356752 0)
(0.225784 0.0258225 0)
(0.222165 0.0478289 0)
(0.216408 0.0693746 0)
(0.208566 0.0902522 0)
(0.198715 0.110261 0)
(0.186951 0.129207 0)
(0.173386 0.146909 0)
(0.158152 0.163197 0)
(0.141394 0.177912 0)
(0 0 0)
(0 0 0)
(0 0 0)
(0 0 0)
(0 0 0)
(0 0 0)
(0 0 0)
(0 0 0)
(0 0 0)
(0 0 0)
(0 0 0)
(0 0 0)
(0 0 0)
(0 0 0)
(0 0 0)
(0 0 0)
(0.00500213 0.00482072 0)
(0.00679244 0.00726213 0)
(0.00787599 0.00980178 0)
(0.00815319 0.0123976 0)
(0.00755303 0.0149321 0)
(0.00608274 0.0172304 0)
(0.00383953 0.0190195 0)
(0.00105456 0.0199769 0)
(-0.00188798 0.0198681 0)
(-0.00452287 0.0186654 0)
(-0.00645801 0.016617 0)
(-0.00744728 0.0140236 0)
(-0.00741041 0.0111366 0)
(-0.0064314 0.00819636 0)
(-0.0046735 0.00532255 0)
(-0.00352621 0.00382356 0)
(0.0114592 0.0112622 0)
(0.0144293 0.0158961 0)
(0.0160297 0.0206849 0)
(0.0161267 0.0255487 0)
(0.0146246 0.0302513 0)
(0.0115595 0.0344377 0)
(0.00713882 0.0376212 0)
(0.00180316 0.039272 0)
(-0.00376673 0.0390153 0)
(-0.00877607 0.0368326 0)
(-0.0125529 0.0331352 0)
(-0.0146693 0.0284244 0)
(-0.0149667 0.0231414 0)
(-0.0135552 0.0177143 0)
(-0.0106623 0.0123611 0)
(-0.00877817 0.00952743 0)
(0.0190857 0.019098 0)
(0.0226252 0.0256225 0)
(0.0242326 0.0323502 0)
(0.0237627 0.0391326 0)
(0.0211217 0.0456155 0)
(0.0163946 0.0512903 0)
(0.00990167 0.0555057 0)
(0.00225867 0.0576145 0)
(-0.00563635 0.0571821 0)
(-0.0127666 0.0542215 0)
(-0.0182708 0.049234 0)
(-0.0215961 0.0428477 0)
(-0.0225264 0.0356587 0)
(-0.0211541 0.0282157 0)
(-0.017715 0.0208191 0)
(-0.0154864 0.0167947 0)
(0.0276802 0.0281754 0)
(0.031242 0.0363165 0)
(0.0324053 0.0446804 0)
(0.0310393 0.0530521 0)
(0.0270733 0.0609661 0)
(0.0206467 0.0677754 0)
(0.0121842 0.0727205 0)
(0.00244184 0.0751035 0)
(-0.00752999 0.0744821 0)
(-0.0165722 0.0708991 0)
(-0.0237057 0.0649088 0)
(-0.0283009 0.057228 0)
(-0.0300962 0.0485549 0)
(-0.0291519 0.0395211 0)
(-0.0256844 0.0304879 0)
(-0.0234942 0.025416 0)
(0.0370534 0.0383532 0)
(0.0401404 0.047849 0)
(0.0404735 0.0575776 0)
(0.03794 0.067234 0)
(0.0324984 0.0762497 0)
(0.024352 0.0838809 0)
(0.0140177 0.089302 0)
(0.00235562 0.0918137 0)
(-0.0094851 0.0909968 0)
(-0.0202669 0.0869231 0)
(-0.0289483 0.080175 0)
(-0.0348555 0.0715154 0)
(-0.0376963 0.0617157 0)
(-0.0374955 0.0514594 0)
(-0.0344467 0.0411593 0)
(-0.0326418 0.0351637 0)
(0.0470055 0.0494876 0)
(0.049193 0.0601148 0)
(0.0483636 0.07095 0)
(0.0444324 0.081607 0)
(0.0374016 0.091434 0)
(0.0275346 0.0996174 0)
(0.0154212 0.105308 0)
(0.00199374 0.10783 0)
(-0.0115413 0.106809 0)
(-0.0239176 0.102343 0)
(-0.0340761 0.0950306 0)
(-0.0413262 0.0856589 0)
(-0.0453545 0.0750355 0)
(-0.0461543 0.0638749 0)
(-0.0438998 0.0526258 0)
(-0.0427892 0.0458147 0)
(0.0573449 0.0614578 0)
(0.0582656 0.073012 0)
(0.0559945 0.084727 0)
(0.050482 0.0961269 0)
(0.0417736 0.106494 0)
(0.0301934 0.11499 0)
(0.0163909 0.12078 0)
(0.00133771 0.123216 0)
(-0.013742 0.121973 0)
(-0.0275913 0.1172 0)
(-0.0391672 0.109488 0)
(-0.0477811 0.099623 0)
(-0.0531089 0.0884246 0)
(-0.0551174 0.0766219 0)
(-0.0539668 0.0646907 0)
(-0.0538056 0.0571365 0)
(0.0678918 0.0741768 0)
(0.0672262 0.0864747 0)
(0.0632769 0.0988486 0)
(0.0560284 0.110748 0)
(0.04558 0.121419 0)
(0.0323078 0.130017 0)
(0.0169031 0.135752 0)
(0.000353831 0.138017 0)
(-0.0161363 0.136543 0)
(-0.031353 0.131527 0)
(-0.0442925 0.123545 0)
(-0.0542873 0.113366 0)
(-0.0610051 0.101796 0)
(-0.0643897 0.0895616 0)
(-0.0645967 0.0771605 0)
(-0.0656066 0.0689231 0)
(0.0784767 0.087605 0)
(0.0759327 0.100464 0)
(0.0700981 0.113284 0)
(0.0609922 0.12546 0)
(0.0487637 0.136206 0)
(0.0338323 0.144708 0)
(0.016915 0.150239 0)
(-0.00100574 0.15225 0)
(-0.0187813 0.15054 0)
(-0.035271 0.145339 0)
(-0.0495278 0.137199 0)
(-0.0609139 0.126849 0)
(-0.0690955 0.115061 0)
(-0.0740018 0.102565 0)
(-0.0757877 0.0898685 0)
(-0.0781525 0.0809757 0)
(0.0888891 0.101728 0)
(0.0842137 0.114981 0)
(0.0763128 0.12804 0)
(0.0652521 0.140253 0)
(0.0512266 0.150858 0)
(0.0346852 0.159086 0)
(0.0163575 0.164264 0)
(-0.00280904 0.165935 0)
(-0.0217494 0.16398 0)
(-0.0394184 0.158636 0)
(-0.0549419 0.150422 0)
(-0.0677274 0.140008 0)
(-0.0774492 0.128139 0)
(-0.0840194 0.115514 0)
(-0.0875712 0.102634 0)
(-0.0914533 0.0930903 0)
(0.0988799 0.116572 0)
(0.0918452 0.130061 0)
(0.0817189 0.143143 0)
(0.068628 0.155158 0)
(0.0528079 0.165382 0)
(0.0347399 0.173118 0)
(0.0151292 0.177788 0)
(-0.00514242 0.179044 0)
(-0.0251198 0.176827 0)
(-0.0438694 0.17138 0)
(-0.0606142 0.163165 0)
(-0.0748141 0.152791 0)
(-0.0861502 0.140937 0)
(-0.0945142 0.128259 0)
(-0.100016 0.115255 0)
(-0.105547 0.105006 0)
(0.108085 0.132181 0)
(0.0984814 0.145745 0)
(0.0860059 0.158612 0)
(0.0708372 0.170145 0)
(0.0532737 0.179711 0)
(0.0338018 0.186723 0)
(0.0130701 0.190736 0)
(-0.00814119 0.191505 0)
(-0.0290068 0.189023 0)
(-0.0487282 0.183506 0)
(-0.066639 0.175353 0)
(-0.0822557 0.165085 0)
(-0.0952758 0.153301 0)
(-0.105565 0.140597 0)
(-0.113178 0.12744 0)
(-0.120483 0.116363 0)
(0.115938 0.148574 0)
(0.103568 0.161987 0)
(0.0886573 0.174332 0)
(0.0714485 0.185062 0)
(0.0522767 0.193673 0)
(0.0315893 0.199737 0)
(0.00995355 0.202953 0)
(-0.0119874 0.203174 0)
(-0.033555 0.200414 0)
(-0.0541093 0.194849 0)
(-0.0731033 0.186797 0)
(-0.0901183 0.176673 0)
(-0.104872 0.164964 0)
(-0.117195 0.15218 0)
(-0.127089 0.138744 0)
(-0.1363 0.126627 0)
(0.121544 0.16563 0)
(0.106267 0.178543 0)
(0.088958 0.189966 0)
(0.06989 0.19952 0)
(0.0493692 0.206881 0)
(0.0277684 0.211792 0)
(0.00552311 0.214079 0)
(-0.0168648 0.21367 0)
(-0.0388792 0.210591 0)
(-0.0600496 0.204973 0)
(-0.0799724 0.197027 0)
(-0.0983086 0.187052 0)
(-0.1148 0.175392 0)
(-0.129269 0.16242 0)
(-0.141646 0.148483 0)
(-0.152924 0.134958 0)
(0.123303 0.182392 0)
(0.105296 0.194236 0)
(0.0859292 0.204254 0)
(0.0654321 0.212267 0)
(0.0440466 0.21813 0)
(0.0220364 0.22173 0)
(-0.000311944 0.222995 0)
(-0.0226767 0.221899 0)
(-0.0447308 0.218468 0)
(-0.066182 0.212768 0)
(-0.0867617 0.20491 0)
(-0.106225 0.195045 0)
(-0.124353 0.183358 0)
(-0.140967 0.170045 0)
(-0.15593 0.155318 0)
(-0.16945 0.139786 0)
(0.123275 0.190915 0)
(0.103968 0.202079 0)
(0.0836602 0.211296 0)
(0.0625468 0.218479 0)
(0.0408309 0.223557 0)
(0.0187218 0.226483 0)
(-0.00356752 0.227228 0)
(-0.0258225 0.225784 0)
(-0.0478289 0.222165 0)
(-0.0693746 0.216408 0)
(-0.0902522 0.208566 0)
(-0.110261 0.198715 0)
(-0.129207 0.186951 0)
(-0.146909 0.173386 0)
(-0.163197 0.158152 0)
(-0.177912 0.141394 0)
(0 0 0)
(0 0 0)
(0 0 0)
(0 0 0)
(0 0 0)
(0 0 0)
(0 0 0)
(0 0 0)
(0 0 0)
(0 0 0)
(0 0 0)
(0 0 0)
(0 0 0)
(0 0 0)
(0 0 0)
(0 0 0)
(0.00500213 0.00482072 0)
(0.00679244 0.00726213 0)
(0.00787599 0.00980178 0)
(0.00815319 0.0123976 0)
(0.00755303 0.0149321 0)
(0.00608274 0.0172304 0)
(0.00383953 0.0190195 0)
(0.00105456 0.0199769 0)
(-0.00188798 0.0198681 0)
(-0.00452287 0.0186654 0)
(-0.00645801 0.016617 0)
(-0.00744728 0.0140236 0)
(-0.00741041 0.0111366 0)
(-0.0064314 0.00819636 0)
(-0.0046735 0.00532255 0)
(-0.00352621 0.00382356 0)
(0.0114592 0.0112622 0)
(0.0144293 0.0158961 0)
(0.0160297 0.0206849 0)
(0.0161267 0.0255487 0)
(0.0146246 0.0302513 0)
(0.0115595 0.0344377 0)
(0.00713882 0.0376212 0)
(0.00180316 0.039272 0)
(-0.00376673 0.0390153 0)
(-0.00877607 0.0368326 0)
(-0.0125529 0.0331352 0)
(-0.0146693 0.0284244 0)
(-0.0149667 0.0231414 0)
(-0.0135552 0.0177143 0)
(-0.0106623 0.0123611 0)
(-0.00877817 0.00952743 0)
(0.0190857 0.019098 0)
(0.0226252 0.0256225 0)
(0.0242326 0.0323502 0)
(0.0237627 0.0391326 0)
(0.0211217 0.0456155 0)
(0.0163946 0.0512903 0)
(0.00990167 0.0555057 0)
(0.00225867 0.0576145 0)
(-0.00563635 0.0571821 0)
(-0.0127666 0.0542215 0)
(-0.0182708 0.049234 0)
(-0.0215961 0.0428477 0)
(-0.0225264 0.0356587 0)
(-0.0211541 0.0282157 0)
(-0.017715 0.0208191 0)
(-0.0154864 0.0167947 0)
(0.0276802 0.0281754 0)
(0.031242 0.0363165 0)
(0.0324053 0.0446804 0)
(0.0310393 0.0530521 0)
(0.0270733 0.0609661 0)
(0.0206467 0.0677754 0)
(0.0121842 0.0727205 0)
(0.00244184 0.0751035 0)
(-0.00752999 0.0744821 0)
(-0.0165722 0.0708991 0)
(-0.0237057 0.0649088 0)
(-0.0283009 0.057228 0)
(-0.0300962 0.0485549 0)
(-0.0291519 0.0395211 0)
(-0.0256844 0.0304879 0)
(-0.0234942 0.025416 0)
(0.0370534 0.0383532 0)
(0.0401404 0.047849 0)
(0.0404735 0.0575776 0)
(0.03794 0.067234 0)
(0.0324984 0.0762497 0)
(0.024352 0.0838809 0)
(0.0140177 0.089302 0)
(0.00235562 0.0918137 0)
(-0.0094851 0.0909968 0)
(-0.0202669 0.0869231 0)
(-0.0289483 0.080175 0)
(-0.0348555 0.0715154 0)
(-0.0376963 0.0617157 0)
(-0.0374955 0.0514594 0)
(-0.0344467 0.0411593 0)
(-0.0326418 0.0351637 0)
(0.0470055 0.0494876 0)
(0.049193 0.0601148 0)
(0.0483636 0.07095 0)
(0.0444324 0.081607 0)
(0.0374016 0.091434 0)
(0.0275346 0.0996174 0)
(0.0154212 0.105308 0)
(0.00199374 0.10783 0)
(-0.0115413 0.106809 0)
(-0.0239176 0.102343 0)
(-0.0340761 0.0950306 0)
(-0.0413262 0.0856589 0)
(-0.0453545 0.0750355 0)
(-0.0461543 0.0638749 0)
(-0.0438998 0.0526258 0)
(-0.0427892 0.0458147 0)
(0.0573449 0.0614578 0)
(0.0582656 0.073012 0)
(0.0559945 0.084727 0)
(0.050482 0.0961269 0)
(0.0417736 0.106494 0)
(0.0301934 0.11499 0)
(0.0163909 0.12078 0)
(0.00133771 0.123216 0)
(-0.013742 0.121973 0)
(-0.0275913 0.1172 0)
(-0.0391672 0.109488 0)
(-0.0477811 0.099623 0)
(-0.0531089 0.0884246 0)
(-0.0551174 0.0766219 0)
(-0.0539668 0.0646907 0)
(-0.0538056 0.0571365 0)
(0.0678918 0.0741768 0)
(0.0672262 0.0864747 0)
(0.0632769 0.0988486 0)
(0.0560284 0.110748 0)
(0.04558 0.121419 0)
(0.0323078 0.130017 0)
(0.0169031 0.135752 0)
(0.000353831 0.138017 0)
(-0.0161363 0.136543 0)
(-0.031353 0.131527 0)
(-0.0442925 0.123545 0)
(-0.0542873 0.113366 0)
(-0.0610051 0.101796 0)
(-0.0643897 0.0895616 0)
(-0.0645967 0.0771605 0)
(-0.0656066 0.0689231 0)
(0.0784767 0.087605 0)
(0.0759327 0.100464 0)
(0.0700981 0.113284 0)
(0.0609922 0.12546 0)
(0.0487637 0.136206 0)
(0.0338323 0.144708 0)
(0.016915 0.150239 0)
(-0.00100574 0.15225 0)
(-0.0187813 0.15054 0)
(-0.035271 0.145339 0)
(-0.0495278 0.137199 0)
(-0.0609139 0.126849 0)
(-0.0690955 0.115061 0)
(-0.0740018 0.102565 0)
(-0.0757877 0.0898685 0)
(-0.0781525 0.0809757 0)
(0.0888891 0.101728 0)
(0.0842137 0.114981 0)
(0.0763128 0.12804 0)
(0.0652521 0.140253 0)
(0.0512266 0.150858 0)
(0.0346852 0.159086 0)
(0.0163575 0.164264 0)
(-0.00280904 0.165935 0)
(-0.0217494 0.16398 0)
(-0.0394184 0.158636 0)
(-0.0549419 0.150422 0)
(-0.0677274 0.140008 0)
(-0.0774492 0.128139 0)
(-0.0840194 0.115514 0)
(-0.0875712 0.102634 0)
(-0.0914533 0.0930903 0)
(0.0988799 0.116572 0)
(0.0918452 0.130061 0)
(0.0817189 0.143143 0)
(0.068628 0.155158 0)
(0.0528079 0.165382 0)
(0.0347399 0.173118 0)
(0.0151292 0.177788 0)
(-0.00514242 0.179044 0)
(-0.0251198 0.176827 0)
(-0.0438694 0.17138 0)
(-0.0606142 0.163165 0)
(-0.0748141 0.152791 0)
(-0.0861502 0.140937 0)
(-0.0945142 0.128259 0)
(-0.100016 0.115255 0)
(-0.105547 0.105006 0)
(0.108085 0.132181 0)
(0.0984814 0.145745 0)
(0.0860059 0.158612 0)
(0.0708372 0.170145 0)
(0.0532737 0.179711 0)
(0.0338018 0.186723 0)
(0.0130701 0.190736 0)
(-0.00814119 0.191505 0)
(-0.0290068 0.189023 0)
(-0.0487282 0.183506 0)
(-0.066639 0.175353 0)
(-0.0822557 0.165085 0)
(-0.0952758 0.153301 0)
(-0.105565 0.140597 0)
(-0.113178 0.12744 0)
(-0.120483 0.116363 0)
(0.115938 0.148574 0)
(0.103568 0.161987 0)
(0.0886573 0.174332 0)
(0.0714485 0.185062 0)
(0.0522767 0.193673 0)
(0.0315893 0.199737 0)
(0.00995355 0.202953 0)
(-0.0119874 0.203174 0)
(-0.033555 0.200414 0)
(-0.0541093 0.194849 0)
(-0.0731033 0.186797 0)
(-0.0901183 0.176673 0)
(-0.104872 0.164964 0)
(-0.117195 0.15218 0)
(-0.127089 0.138744 0)
(-0.1363 0.126627 0)
(0.121544 0.16563 0)
(0.106267 0.178543 0)
(0.088958 0.189966 0)
(0.06989 0.19952 0)
(0.0493692 0.206881 0)
(0.0277684 0.211792 0)
(0.00552311 0.214079 0)
(-0.0168648 0.21367 0)
(-0.0388792 0.210591 0)
(-0.0600496 0.204973 0)
(-0.0799724 0.197027 0)
(-0.0983086 0.187052 0)
(-0.1148 0.175392 0)
(-0.129269 0.16242 0)
(-0.141646 0.148483 0)
(-0.152924 0.134958 0)
(0.123303 0.182392 0)
(0.105296 0.194236 0)
(0.0859292 0.204254 0)
(0.0654321 0.212267 0)
(0.0440466 0.21813 0)
(0.0220364 0.22173 0)
(-0.000311944 0.222995 0)
(-0.0226767 0.221899 0)
(-0.0447308 0.218468 0)
(-0.066182 0.212768 0)
(-0.0867617 0.20491 0)
(-0.106225 0.195045 0)
(-0.124353 0.183358 0)
(-0.140967 0.170045 0)
(-0.15593 0.155318 0)
(-0.16945 0.139786 0)
(0.123275 0.190915 0)
(0.103968 0.202079 0)
(0.0836602 0.211296 0)
(0.0625468 0.218479 0)
(0.0408309 0.223557 0)
(0.0187218 0.226483 0)
(-0.00356752 0.227228 0)
(-0.0258225 0.225784 0)
(-0.0478289 0.222165 0)
(-0.0693746 0.216408 0)
(-0.0902522 0.208566 0)
(-0.110261 0.198715 0)
(-0.129207 0.186951 0)
(-0.146909 0.173386 0)
(-0.163197 0.158152 0)
(-0.177912 0.141394 0)
(0 0 0)
(0 0 0)
(0 0 0)
(0 0 0)
(0 0 0)
(0 0 0)
(0 0 0)
(0 0 0)
(0 0 0)
(0 0 0)
(0 0 0)
(0 0 0)
(0 0 0)
(0 0 0)
(0 0 0)
(0 0 0)
(-0.00476926 0.00496503 0)
(-0.00717137 0.00674128 0)
(-0.0096619 0.00780602 0)
(-0.0122548 0.00808701 0)
(-0.0148627 0.00752011 0)
(-0.0172602 0.0060592 0)
(-0.0191567 0.00379171 0)
(-0.0201717 0.000980519 0)
(-0.0200443 -0.00196781 0)
(-0.0188344 -0.00460039 0)
(-0.0167871 -0.00653927 0)
(-0.014161 -0.0075305 0)
(-0.0112362 -0.00748973 0)
(-0.00826418 -0.00649872 0)
(-0.00536643 -0.00472225 0)
(-0.00385609 -0.00356502 0)
(-0.0111455 0.0113819 0)
(-0.0157088 0.0143309 0)
(-0.020432 0.0159107 0)
(-0.0253189 0.0160279 0)
(-0.0301454 0.0145747 0)
(-0.0344963 0.011514 0)
(-0.0378447 0.00704306 0)
(-0.039583 0.00165803 0)
(-0.039321 -0.00392204 0)
(-0.0371436 -0.00892433 0)
(-0.0334409 -0.0127042 0)
(-0.0286736 -0.0148265 0)
(-0.023331 -0.0151224 0)
(-0.0178515 -0.0136952 0)
(-0.0124557 -0.0107734 0)
(-0.00960047 -0.0088736 0)
(-0.0189055 0.018969 0)
(-0.0253495 0.0224927 0)
(-0.0320256 0.0240937 0)
(-0.0388575 0.0236557 0)
(-0.0454973 0.0210643 0)
(-0.0513704 0.0163277 0)
(-0.0557792 0.00976117 0)
(-0.0579933 0.00205221 0)
(-0.0575728 -0.00585414 0)
(-0.054622 -0.0129701 0)
(-0.0496243 -0.0184761 0)
(-0.0431787 -0.0218155 0)
(-0.0359224 -0.0227524 0)
(-0.0284173 -0.0213678 0)
(-0.0209667 -0.017898 0)
(-0.0169118 -0.0156538 0)
(-0.0279043 0.0275299 0)
(-0.035974 0.031091 0)
(-0.0443141 0.0322665 0)
(-0.0527661 0.030943 0)
(-0.0608513 0.0270162 0)
(-0.0678721 0.02056 0)
(-0.0730131 0.0120031 0)
(-0.0755053 0.0021836 0)
(-0.0749148 -0.00779723 0)
(-0.0713524 -0.0168184 0)
(-0.0653523 -0.0239537 0)
(-0.0576139 -0.0285717 0)
(-0.0488748 -0.0303845 0)
(-0.0397776 -0.0294374 0)
(-0.0306855 -0.0259457 0)
(-0.0255767 -0.0237445 0)
(-0.0380075 0.0368788 0)
(-0.047452 0.0399846 0)
(-0.0571905 0.0403502 0)
(-0.0669492 0.0378605 0)
(-0.0761451 0.0324422 0)
(-0.0839872 0.0242466 0)
(-0.0895984 0.0138034 0)
(-0.0922198 0.0020604 0)
(-0.0914449 -0.0097856 0)
(-0.0873947 -0.0205418 0)
(-0.0806399 -0.029227 0)
(-0.0719338 -0.035167 0)
(-0.0620742 -0.0380383 0)
(-0.051758 -0.0378482 0)
(-0.0413994 -0.034787 0)
(-0.0353618 -0.0329785 0)
(-0.0490751 0.0468186 0)
(-0.0596751 0.049045 0)
(-0.0705518 0.0482625 0)
(-0.0813343 0.0443746 0)
(-0.0913435 0.0373487 0)
(-0.0997275 0.027414 0)
(-0.105589 0.015183 0)
(-0.108215 0.00167507 0)
(-0.107247 -0.0118606 0)
(-0.102814 -0.0242093 0)
(-0.0955001 -0.034375 0)
(-0.0860901 -0.0416679 0)
(-0.0754158 -0.0457404 0)
(-0.0642013 -0.0465669 0)
(-0.0528968 -0.0443154 0)
(-0.0460398 -0.0432084 0)
(-0.0609894 0.0571598 0)
(-0.0725407 0.0581353 0)
(-0.0843246 0.0559221 0)
(-0.0958638 0.0504446 0)
(-0.106414 0.0417221 0)
(-0.115095 0.0300601 0)
(-0.121039 0.0161375 0)
(-0.123574 0.00101063 0)
(-0.122389 -0.0140636 0)
(-0.117652 -0.0278854 0)
(-0.109943 -0.0394747 0)
(-0.100051 -0.0481418 0)
(-0.0888106 -0.0535283 0)
(-0.0769607 -0.0555798 0)
(-0.0649786 -0.0544479 0)
(-0.0573735 -0.0542967 0)
(-0.0736627 0.0677176 0)
(-0.0859817 0.0671218 0)
(-0.0984472 0.0632334 0)
(-0.110501 0.0560108 0)
(-0.121348 0.0455309 0)
(-0.13011 0.0321659 0)
(-0.135978 0.0166461 0)
(-0.138334 3.41322e-05 0)
(-0.136924 -0.0164451 0)
(-0.13195 -0.0316368 0)
(-0.123976 -0.0445974 0)
(-0.113776 -0.0546552 0)
(-0.102173 -0.0614443 0)
(-0.0898971 -0.0648873 0)
(-0.0774506 -0.065129 0)
(-0.0691616 -0.0661578 0)
(-0.0870591 0.0783192 0)
(-0.0999651 0.0758577 0)
(-0.112896 0.0700849 0)