/*--------------------------------*- C++ -*----------------------------------*\
| =========                 |                                                 |
| \\      /  F ield         | OpenFOAM: The Open Source CFD Toolbox           |
|  \\    /   O peration     | Version:  2412                                  |
|   \\  /    A nd           | Website:  www.openfoam.com                      |
|    \\/     M anipulation  |                                                 |
\*---------------------------------------------------------------------------*/
FoamFile
{
    version     2.0;
    format      ascii;
    arch        "LSB;label=32;scalar=64";
    class       volScalarField;
    location    "1626";
    object      p;
}
// * * * * * * * * * * * * * * * * * * * * * * * * * * * * * * * * * * * * * //

dimensions      [0 2 -2 0 0 0 0];

internalField   nonuniform List<scalar> 
808
(
-0.03589733397100239
0.04495270267772537
-0.01163540293318247
0.03503608734660259
-0.3036981890072958
-0.0547720683345204
-0.01465107918108342
-0.02397062769967775
-0.2001124178880809
-0.08569047944769453
-0.009800468940686946
-0.2577493300899923
-0.03059152320899794
-0.01306074434772699
-0.1203735736990805
-0.01406089571007872
-0.1383046795712057
-0.01358803773556465
-0.01234971688563179
-0.05695281576612467
-0.006105782496331102
0.1182706767863775
-0.06095017248211187
-0.07341663655840695
0.176517500190464
-0.09958197018270791
-0.1552646158572575
-0.02031055230605106
-0.01735919187968589
-0.02591390911628392
-0.02018427003522064
-0.0598720101622805
-0.02288378292419861
-0.01681651781097595
-0.101274496827392
0.3439392602088585
-0.03866055481208187
-0.01667576941984604
-0.02325658922307214
-0.02655266075644027
-0.0920098691265082
-0.1290960645461053
-0.0508834537070954
-0.0207570259060486
-0.05436988766091464
-0.03997838687877098
-0.01228233950699477
-0.1876375665355185
-0.02756973647718776
-0.2074926748633112
-0.0162600254144774
-0.06897657419568719
-0.05960195632394434
-0.01447043752260466
-0.1905251090079081
-0.02894581566311941
-0.0105129759210516
-0.01386118925718382
-0.1024342083802672
-0.0406449679467584
-0.1006643539016845
-0.1286175443705303
-0.01350749388818421
-0.1309152005183239
-0.01707545604583145
-0.05069026142552696
-0.1679177564830087
-0.03562627775021746
-0.01482249575327456
-0.4460588470817844
-0.02694073262586893
-0.307553915366225
-0.02199373216461413
-0.02052140921675733
-0.06750217138347687
-0.017373140319045
-0.04349731762078479
-0.3588925578507098
-0.03556819924932147
0.04209637012881212
-0.09035776975461696
-0.01724965877771416
0.05685245960983739
0.04342044732454146
-0.01659984404543017
-0.05327412299850264
-0.5487459322209868
-0.2229726799097707
-0.05340254610502011
-0.1115247839059445
-0.05803103291645866
-0.1350834224335452
0.04066382230051831
-0.02390811059008401
-0.06065141066656419
-0.1212985777686787
-0.03846459988271568
-0.05178849618723864
-0.1183346176231493
-0.1412587574337624
-0.05220382836231911
-0.0483707770270297
-0.05563017486171361
-0.04575432653353072
-0.05793212842295693
-0.07333194281948957
-0.04092862192156373
-0.01108106102873367
-0.04104647169743446
-0.1267328986756916
-0.0512122854499339
0.08332688435020719
-0.04310255622915968
-0.007897449495120352
-0.02778617069172988
0.1800873542705405
-0.0398380649137982
-0.2734038674112382
-0.02037203656243307
-0.05487222726890827
-0.02963621536200496
-0.04793412489175732
0.01261054947358946
-0.05010671205465182
-0.03411201966621064
-0.2142325594738612
-0.04291774597702829
-0.00488916197353221
-0.07775827765454506
-0.06764147767073478
-0.1505042429602167
-0.02102934034237398
-0.07661518278283432
-0.04120236326562648
-0.02278857990258156
-0.01658020594870349
-0.006299396645132271
-0.007483078709247849
-0.05312291172068743
-0.05095064349469811
-0.2078112071859007
-0.05812838080204111
-0.00853338288428181
-0.02273779652142391
-0.1449792328996815
-0.00213634713609892
-0.07780682083363727
-0.02377095413307015
-0.001067478655087376
-0.01016744673158006
-0.03386634067979528
0.09555804040870791
-0.039802202625263
0.2527203099958434
-0.2616916494618139
-0.1304668409713624
-0.03724151004928129
-0.09122461533913397
-0.009068370638599717
-0.111867425322419
-0.1833800566535789
-0.2124169115906763
-0.1842759376111054
0.05537350566123241
-0.06192370109350594
-0.02031487733503755
-0.06793155848253721
-0.1747791620392767
-0.0238755259474467
-0.0186225947820604
-0.05332793513725698
-0.01810791074353392
-0.006030363637811747
-0.1106194428747745
-0.02287555901881371
-0.04668146559196411
-0.06887838117614994
-0.1640586331466392
-0.03369265767771139
-0.3954984421101719
-0.01778913770755476
-0.2225941954768721
-0.04544857732713682
0.03051647059062676
-0.1047124098232517
-0.01426391172504993
-0.04168581699266691
-0.1062034129423556
-0.01773251758717976
-0.09733382694799035
-0.2040032870450895
-0.07308237770005389
-0.02378164641916105
-0.049888651729177
-0.04382917910125259
-0.2028946213686944
-0.02192000996121789
-0.01900203283178709
-0.01137310199254057
-0.0547170864880771
-0.05207339051311528
-0.02248774791416036
-0.02078873812588018
-0.2461016393239651
0.1279999921286035
-0.2007016067515516
-0.2069478772940533
-0.0117618069533034
-0.0115935303989279
-0.06766540459463873
-0.00947483523269009
-0.5121649999792305
-0.1251304069709004
-0.01904073471225674
-0.001593437147006002
-0.02425238657394006
-0.2867526136164606
-0.2736724595152549
-0.007241624581645921
-0.01785570676685656
-0.002332061517694307
-0.3441561508706155
-0.02831601088941148
-0.02920300220924769
-0.01254286665960543
-0.01973020886972234
0.05092656135996698
-0.113100031858936
-0.01374009746441812
-0.02075060978453601
-0.04302999086789307
-0.01822527690083369
-0.01618640881552454
-0.02337063025422717
-0.06682883527464369
-0.0117816447362364
-0.01904146230883214
-0.008625367602644745
-0.00103151344704423
-0.02951490393534782
-0.001634634166053731
-0.002250569778638263
-0.006081893743757362
-0.02559466044304178
-0.008053441108915408
0.001624970568644189
-0.004109697625824772
0.001114273454943106
0.00244881338274207
-0.008521575102781414
-0.1394673585908562
-0.003020278466675139
-0.0008865677809575611
-0.04819030995834082
-0.02144430112028749
-0.0248447156768076
-0.0142876314399152
-0.006092242598815832
-0.02092176566089509
-0.03741643023719246
-0.014238323875972
-0.0127116527010207
-0.01200581896691072
0.005970482717771268
-0.01012238326392765
-0.01240708195992313
-0.01124064338988611
-0.01065655894102859
-0.009995707458234686
-0.01113718730936703
-0.01405347237394759
-0.3082471011097589
0.06103310142902015
-0.01519009822592545
-0.0167292610152599
-0.01292560978165776
-0.01252904111682779
-0.008615674373771769
-0.09891472447562004
0.00891813433702671
-0.01395488416565825
-0.01469986143036554
-0.01082617210592443
-0.05333746697206837
-0.009218962474524812
-0.01395876795627567
-0.009126666732049336
-0.001336725915609071
-0.009800484623857237
-0.01056825946205415
-0.0248561580388658
-0.01625440634674669
-0.01205794709140485
-0.01329958365810316
-0.00865575645835014
-0.01317432638290624
-0.01134047892060293
-0.05731041167803975
-0.01289040659058984
-0.01165212999029004
-0.00873651104855358
-0.0149635683578684
-0.01412003392244996
-0.01574124488668615
-1.381225230096138
-0.09829886652307739
-0.01270335518916603
0.02247534296225684
-0.1660010557787146
-0.09341908084322524
-0.01136123615453089
-0.01409270993676366
-0.2571202357863438
-0.03089950183400665
-0.02055674921819034
-0.01100523582152972
-0.01978178070004683
-0.01121424448013172
-0.03068794244598878
-0.4160673441448222
-0.01218809870290458
-0.01409418473092579
-0.004848976312262172
-0.01041197650855551
-0.009282767655665628
-0.01431596805059823
-0.009658396523323764
-0.02625933515476667
-0.01129286832927238
-0.1605991805946047
0.01742403046335027
-0.00775630130523765
0.002880062717901046
0.01264529974789288
-0.04736511102181065
0.02988769953778546
-0.01273878329086673
-0.1362170513010561
0.2819274825185952
-0.007433974013802255
-0.01312179930266701
-0.008399098135505968
-0.03332136396096012
-0.1223707747219295
-0.01326541262168306
-0.01235754195020864
-0.01708765811890365
-0.01362670845716723
-0.04098038815289508
-0.2138838295860926
-0.01135097315850571
-0.04119685990135383
-0.03982447280704591
-0.1663520048945251
-0.1635839096216009
-0.1475736177556013
-0.2595855827532003
-0.006519183776550714
-0.02126839616575974
-0.01465620685683358
-0.0129056961367956
-0.03284576356072164
-0.02437786762992968
-0.01444684735677443
-0.01505117209024729
-1.083684581999663
-0.004615195573814277
-0.0137671644850932
-0.01839815564606994
-0.01792041410602255
0.003731418219078519
-0.013921328300593
-0.02793019607739421
-0.1669851033040651
-0.01355434586898017
-0.02197998604982668
-0.01401190354298718
0.002076404471437509
-0.1788856320467802
-0.01337311523522626
-0.1447541261999807
-0.01602157224114662
0.009844699752672277
-0.01446218414619049
-0.0231600031618148
-0.01582689268943253
0.005472107485096952
-0.2778104275788944
-0.0255783698083033
-0.01615927317723269
-0.008164519750337907
-0.009497697513233873
-0.03055961117773641
-0.01433744524845303
-0.0204725625654062
-0.02132745180652913
0.01026146849447659
-0.1012366951610349
-0.02211106935116822
0.009236537267309648
-0.05085341158302727
0.1580877570149989
-0.1027770624658528
-0.3225661463672123
-0.03015565331092853
-0.0254026345773277
0.1487595670445014
0.09002589363822988
-0.003287641820378275
0.05037338178892055
-0.01572559240976167
-0.01447884163613555
0.002250077140788477
0.01189203268920297
-0.0672055079701873
-0.005338460603332772
-0.05765018461634234
-0.02237804230650448
-0.01570233367865701
-0.03651984374493127
-0.03292211004394113
-0.006649643410691755
-0.01487177449754472
-0.03940750431540072
0.03620499336161447
-0.03884871090788454
-0.0135083200364103
-0.1161648661241478
-0.0318577693827122
-0.03854231868016822
-0.6789073518168437
0.01730911012197936
-0.01111239369313587
-0.005251652732874828
0.1661315416182899
-0.0864649502446387
-0.03502547467403599
-0.2476514021023163
-0.01642682487962801
-0.01658551653601345
0.061278118336001
-0.1857079081442275
-0.22514239574008
-0.1973763563931597
-0.6877800178317086
0.00814783532649921
-0.0180876661520784
-0.01621135539331996
-0.08124245436762763
0.1176018803183802
-0.02133750808797422
-0.250614710340233
-0.0350052994478243
-0.006441289572264679
0.2762804778426161
-0.01120985940476186
-0.09408323995769378
-0.148609873186889
-0.004740670733590386
-0.04044831916637134
-0.04533230089573666
-0.2050105749469143
-0.008887468609336495
-0.04236126447151229
-0.002791010118573857
-0.552407965643708
-0.2009894273313468
-0.1752778525236464
-0.0227972730254089
-0.007050515161114388
-0.0598665574302068
-0.05836249103627696
-0.01534762503202678
-0.06745629748121369
0.003278562488500154
-0.01833998921844076
-0.09567749121878816
-0.2668896980221263
-0.008116118467705206
-0.02609617857134145
-0.02206961243048412
-0.07413972939439364
-0.09136041495165359
-0.08768229489332273
-0.01138553957556979
-0.9276930095628809
0.1603977684347844
-0.08063579288557905
-0.2580708308896127
-0.04265713712899697
-0.01020642618140214
-0.248707413415739
-0.1833302828186141
-0.03345531043907259
-0.124684689933606
-0.01835339136917471
0.5622888273116051
-0.02389079296801952
-0.2274260261083111
-0.02621040265809354
-0.005057319466126732
-0.01178072329388879
-1.256962253204233
-0.1844614713597076
-0.2345674129829734
0.005418440019421683
-0.03696956175956279
-0.2501533027605135
-0.06532331575403905
-0.05090778078837049
-0.1414154670712389
-0.1931207545579845
-0.06769561211472197
-1.231952297075306
-0.1462281634120933
-0.5199978403353396
0.07832390846160651
-0.007084605464818561
-0.02199720722367856
-0.04247076685471
-0.04092539568141224
-0.02874569112157625
-0.1322832416249383
0.07960563675312432
-0.003530112359074777
-0.009692400546682297
-0.5801070342633531
-0.8652656033416691
-0.1865116799408456
-0.008062735685194356
-0.1347453026608385
0.0009854107820461719
-0.0007702545576684929
-0.00198859281677325
-0.06017179590750921
-0.239681642735525
-0.01345079457912289
-0.1220215365356939
-0.154417980621068
-0.01322558016164662
-0.03594616572111213
0.02197175525023261
-0.05723887871556727
-0.06959156365227538
-0.503771168089088
-0.2479219190464588
-0.08128220781618792
-0.07230652789989073
-0.01991431714864765
-0.1202789035836164
-0.1551809317064105
-0.07640731817149457
0.02530292138658108
-0.08424809052338925
-0.04792215426283416
-0.01493060394728687
-0.1097678845566011
-0.2721408032805014
-0.05660333210016252
-0.01853439742389058
0.001248332610438711
-0.01009618482634228
-0.01112139198960165
-0.2196711962017546
-0.0148050691871286
-0.2231578598910081
-0.01055094663821303
-0.06530262015257893
-0.003481538425584632
-0.02318859563726329
-0.3775464906016924
-0.9071893053595109
-0.01131514421229138
-1.05188552472501
-0.6145611898289067
-0.01076978395201953
-0.6526845889477495
-0.1758373616388928
-0.005466798221301817
-0.1301575657591197
-0.017131100778743
-0.1213098050951068
-0.06767945542957249
-0.07492848020323045
-0.005313994211794602
-0.002863977863691059
-1.33308546728863
-0.01107078671657519
-0.1885457097248207
0.00053595175764601
-1.015863925166871
-1.230009358842063
-0.08200354241277261
0.02020975499031274
0.1642634849997966
-0.004831028890870451
-0.0230165884622862
-0.004267217600399161
-0.2519721608208827
0.3661846582617248
-0.04083587915040963
-0.2100309270225322
-0.01497684910720187
-0.6594266735737694
-0.07543397228638057
0.191621609668217
-0.2854820492337009
-0.04976937608894299
-0.06868186766265329
-0.01584522974968095
-0.02171098174387798
-0.5745415588920497
-0.1449453973456008
-0.08701119596093973
-0.1266997154583472
-0.5582571647001074
-0.04415112616473394
-0.9114252169468323
-0.0006807071539052744
-0.2372818242446992
-1.044584995216578
0.1703184399099857
0.2927763995965172
-0.1802172840389238
-0.1941911534899274
-0.2060610543163424
-0.06836433375575743
0.02330946549541963
0.05076337968248067
0.004303527301313104
-0.1636356933239986
0.02503749382151866
-1.35184764052206
-0.08499748776590095
-0.4717318326158237
-0.3285506953583734
-0.2048387502594498
-0.17543099444022
-0.01692655656558207
-0.01544021552985994
-0.1041533668337628
0.1699195328498487
0.3858908585806799
-0.2215791811075763
-0.1435151683045654
-0.2410275942808929
-0.06238154896083265
-0.1524947838947787
-0.1631720296430083
-0.1253350008455151
-0.1196510334283083
0.4674703192366272
-0.2692926195622639
0.4298490523675033
-0.6008362782515981
0.07015634899622152
-0.2036010668310343
-0.06597014571189801
-0.07361636455645469
-0.8760139631052425
-0.2234390840311173
-0.1891183487749905
-0.3459409260905948
-0.456531815646568
0.5706509304655446
-0.2046168790339915
-0.0001305993129980873
-0.07120893159139771
0.3427612162182378
-0.03788593763136307
-0.1270981344927198
-0.1782585783316542
-0.06392957245655338
-0.01649523500129098
-0.193176021715513
0.1917765815133636
-0.01272670695545088
-0.09601700694207586
-0.167883734303272
-0.3122230886480347
-0.3143735697926987
-0.06706378969271103
-0.01020782216906316
-0.07595630147150405
-0.6580328110611661
-0.6663349307986157
-0.3380447809636324
-0.0575711033363071
-0.05228853552966282
-0.02543965548714281
-0.0673565039427672
-0.05822538567776678
-0.3581038292469073
-0.9534618223689378
-0.009920837842346994
-0.0826975415036811
-1.133771701189461
-1.02848439619711
-0.1032761062837864
-0.03817057148060481
-0.07030762082199871
0.3913937716184478
-0.3456585721065225
-0.05138635387858455
-0.5961979189190899
-0.1251566845764257
-0.254096743102133
-0.208892955051308
0.4744701882729039
-0.62561154618545
0.07210667339912734
-0.02957429573781423
-0.5562079237533055
-0.05116227123720912
-0.3590911809940469
0.1059919307696368
-0.189568003947823
-0.05966430841433636
-0.1358139454245361
-0.3642784242426753
-0.08968503326250547
0.5136166232442051
0.08500197454051252
0.4715024092934439
-0.1135032757359283
-0.1990443112912767
-0.5227888902715678
-0.1294660068798734
0.0271829045563095
-0.0533215691142355
0.1035344806718994
-0.3100326252434726
0.2361427274620218
0.009272167566750792
-0.003304941339915829
-0.5154523021553113
-0.1864671423689932
-0.08908734832291609
0.5812885514404823
0.1381553458385704
0.3471258451791246
0.2257917118187079
-0.5587812072576417
-0.2123279141538019
-0.2192395205091819
-0.2390759768118108
-0.06010334149373303
-0.6969303032820217
-0.195549761948383
0.3066727287536428
-0.2089985612966264
-0.01108402905165341
-0.1727468113595252
-0.009210994133400624
-0.1584367484102431
-0.4337457104703316
-0.07703203426759035
-0.1967900349353049
-0.072353565525071
-0.09389034012072138
-0.143724430363187
-0.07368283140362211
-0.4550230696019931
-0.4171420786309737
-0.02707854425246927
-0.07397014069247723
0.3257784137332127
-0.2460252159993117
-0.1840280617178609
0.5260844130073781
-0.2066692323715235
0.01703755173098452
-0.4476346868616817
0.04485979254690303
-0.06248842538953706
-0.1545411285182665
-0.5806467722610003
0.1628418290974569
-0.5830961214599374
-0.5319878416833345
-0.1069656434509287
-0.5048701370845601
-0.03741653141827152
-0.1429001788693203
-0.4077447143255155
-0.01634464474554728
0.2859203783887169
0.4893360919894152
-0.1585099545676657
-0.00863516736708639
-0.06968352948987586
0.5253685320014789
-0.03347200089319071
-0.437173955546955
-0.03275509322986623
0.4599836941225314
-0.01450251094126358
-0.5411993359586464
-0.2430432609291717
0.1752247223880002
-0.3088136012016457
-0.177615531704114
0.05261270399481571
0.03390703295203047
0.05386184028701455
-0.2977174042117048
-0.1567141190510288
0.4127133787236838
)
;

boundaryField
{
    FrontBack
    {
        type            empty;
    }
    Top
    {
        type            zeroGradient;
    }
    In
    {
        type            zeroGradient;
    }
    Bottom
    {
        type            zeroGradient;
    }
    Out
    {
        type            fixedValue;
        value           uniform 0;
    }
    circle
    {
        type            zeroGradient;
    }
}


// ************************************************************************* //
