/*--------------------------------*- C++ -*----------------------------------*\
| =========                 |                                                 |
| \\      /  F ield         | OpenFOAM: The Open Source CFD Toolbox           |
|  \\    /   O peration     | Version:  2412                                  |
|   \\  /    A nd           | Website:  www.openfoam.com                      |
|    \\/     M anipulation  |                                                 |
\*---------------------------------------------------------------------------*/
FoamFile
{
    version     2.0;
    format      ascii;
    arch        "LSB;label=32;scalar=64";
    class       surfaceScalarField;
    location    "32.2";
    object      phi;
}
// * * * * * * * * * * * * * * * * * * * * * * * * * * * * * * * * * * * * * //

dimensions      [0 3 -1 0 0 0 0];

oriented        oriented;

internalField   nonuniform List<scalar> 
1171
(
-0.94525
0.94525
0.773555
-1.08443
0.310877
-0.184641
-0.706093
0.890734
0.0547495
-0.0711295
-0.280358
0.351488
-0.773555
0.086348
0.687207
0.921894
-0.210832
-0.711062
0.84221
-1.07574
0.233528
-0.358299
-0.043431
0.40173
-0.0104415
0.60839
-0.597949
-0.568089
0.9089
-0.340811
-0.429428
1.0264
-0.184186
0.214243
0.0995928
-0.313835
0.983033
0.0433626
0.23841
-0.0241675
1.02147
-0.0384347
0.677618
-0.862259
-0.781247
0.603622
0.177625
0.217783
-0.785872
0.554018
-0.912148
0.35813
-1.07996
0.671867
0.408095
-0.643974
0.633532
0.0266746
-0.245392
0.218717
0.0481459
-0.629488
0.581342
0.465606
-0.509037
-0.837509
0.880078
-0.0425687
0.987017
0.0344514
0.904635
-1.06497
0.160338
1.00455
-0.0175339
-0.698768
-0.0824786
1.29314
-0.857187
-0.435951
0.167042
-0.0898075
-0.405312
0.49512
-0.273459
0.189789
0.0836696
-0.604304
-0.480128
0.987044
-0.0824086
-0.0288751
0.893924
-0.865049
0.524428
0.76871
0.518583
0.0138938
0.451712
-0.793097
-0.106403
0.899499
0.562499
0.247815
-0.810314
0.0857933
0.556761
-0.642555
-0.509257
-0.570706
-0.380032
-0.684941
0.0232224
0.25141
-0.274633
-0.959296
-0.0308748
0.990171
0.375894
0.0258359
0.823372
0.0985216
-0.598754
-0.0452195
0.0336464
-0.826743
0.070846
0.94892
-1.01977
-0.40198
0.0294666
0.372513
-0.710779
-0.248517
-0.73336
0.804206
0.768544
0.140356
-0.584055
0.991944
-0.812951
-0.178993
-0.232964
0.12848
0.104484
-0.459743
-0.0492936
-0.270449
1.03899
0.00812985
0.425322
-0.433452
-0.517742
1.08024
0.714495
-0.820898
0.402705
-0.0684969
-0.334208
0.785387
-0.785387
-0.858552
0.0434152
-0.323773
-0.702073
0.673198
-0.0377544
-0.149239
0.186993
0.896103
-0.00217967
1.05176
-0.803947
0.226964
-0.324807
0.097843
0.944965
-0.121593
-0.667322
-0.0499408
0.717263
0.14701
-0.228457
0.0814475
0.794084
-1.00492
-0.435515
0.308127
0.127388
0.679907
-0.631761
0.875225
-0.399484
-0.475741
0.495193
-0.694482
0.0345627
0.659919
0.134651
0.652336
0.051007
-0.703343
0.141306
-0.0978904
-0.506651
0.104671
0.0348836
-0.897568
0.862685
-0.529895
-0.755549
0.0567805
0.501698
-0.0499862
0.277351
-0.834497
0.557145
0.424254
0.575746
0.59707
-0.563424
-0.410835
0.00453216
0.406303
0.550806
0.234581
-0.665253
0.751046
0.0963861
0.880432
0.00537708
-0.672699
-0.762874
0.797757
0.602395
0.0931249
0.349401
-0.442525
-0.154876
0.553466
0.00329495
0.88519
-0.778816
-0.106374
0.659936
0.332008
-0.436521
0.67233
-0.579205
0.40884
0.145178
-0.0508432
-0.779994
-0.201395
0.981388
-0.129857
-0.65553
-0.613946
0.360723
0.253223
0.656863
-0.651486
0.313733
1.02677
0.0249874
-0.762874
-0.14302
-0.0899442
0.714495
0.783791
-0.783791
0.840788
-0.825738
-0.01505
-0.45352
0.877774
-0.190798
-0.315853
0.764377
-0.672966
-0.0914108
-0.91575
0.135756
0.115297
-0.714052
0.820898
-0.975774
-0.227472
0.218014
0.00945886
0.114427
-1.01261
0.898179
0.543918
-0.0253355
-0.28935
0.594003
-0.304653
-0.667086
0.781513
-0.156088
0.623922
-0.926841
0.302919
1.12696
-0.754536
-0.372427
0.732948
-0.069077
0.0106459
-0.00982693
-0.000819001
-0.800768
-0.876388
0.170295
-0.702073
0.571953
-0.542487
0.254602
0.62722
-0.881822
0.777924
0.167327
0.491097
0.508903
-0.0684553
-0.723982
0.792437
0.989243
-0.104053
-0.732948
0.797757
0.183496
-0.428888
-0.0392019
0.0295523
0.00964968
0.667618
-0.427059
-0.24056
0.687207
-0.061213
-0.252466
0.561684
0.105934
-0.0247103
-0.000104735
0.024815
0.00776796
0.00287798
0.158447
-0.226944
-0.939879
0.0141686
-0.142122
-0.0690255
0.125123
0.809791
0.74125
-0.165503
0.676141
-0.421539
-0.164539
0.391504
0.642099
0.0451078
0.232275
-1.05801
-0.975774
0.325908
0.673198
-0.167979
0.0187405
-0.82396
1.05917
-0.235212
0.476209
-0.103696
0.793608
0.305518
0.247858
-0.00944811
-0.680481
0.680481
0.227913
0.671586
-0.0351445
0.460466
0.459975
-0.0107479
-0.0284541
0.528198
0.0157202
-0.667086
0.568494
0.195884
-0.00739621
-0.00243073
-0.642099
0.177558
0.881614
0.0411153
-0.737037
0.695922
0.7591
-0.820417
0.0613169
-0.777924
-0.0376269
0.0529142
-0.0152873
0.0878517
-0.120081
-0.100985
0.221066
-0.0065135
-0.0181968
0.788906
-0.74779
0.924619
-0.0338849
-0.296035
-0.544841
0.840875
-0.00142517
0.00142517
0.222546
0.494746
0.402962
-0.897708
-0.197457
-0.551318
0.748775
-0.0197353
0.206729
0.378224
-0.231214
0.948225
-0.453479
0.803781
0.930013
-0.527051
0.187426
0.781513
0.597327
0.237749
0.642329
-0.65553
0.319519
-0.0701344
0.0608424
0.00929198
0.951033
-0.0475462
-0.903486
-0.558893
0.541359
0.54648
-0.558893
-0.597327
0.541359
0.0146543
0.847675
0.0769442
-0.550806
0.459371
0.0914352
0.54389
0.64278
-1.18667
0.582009
0.366216
0.602991
0.588612
-1.1916
0.616097
0.313916
0.459371
-0.533409
-0.460688
-0.680436
-0.689452
-0.29962
-0.00865849
0.00865849
0.666276
0.491054
-1.18051
0.678037
-0.328637
-1.10524
0.350703
-0.691295
0.442778
-0.0814389
-0.948935
1.03037
0.451899
-0.125072
1.07611
-1.02939
-1.09516
0.161866
0.933294
0.234167
-0.305346
0.0711789
0.710702
-0.79311
0.944052
-0.987497
0.0434448
0.0130145
-0.79183
-0.213234
0.937069
-0.723835
-1.01991
1.03293
-0.707872
0.452605
0.255267
-0.555196
-0.164579
0.719775
0.00389706
-0.00532223
0.422529
0.0853432
-0.938068
0.852725
-0.81901
0.750554
1.13278
0.0639307
-1.19671
0.0376189
-0.0341765
0.440479
-0.363799
0.0389914
0.936548
-1.01799
-0.589081
-0.611467
-0.180364
-0.170516
-0.911203
-0.0762938
0.404953
0.271188
-0.172152
0.406319
-0.747789
0.583209
0.475741
-1.07401
-0.955984
-0.108309
-0.0338182
0.655144
-0.621326
0.119171
-0.622899
0.577846
0.181253
0.0926441
0.983461
1.1948
0.903616
-0.97991
0.0480355
-0.0480355
-0.0700769
-0.021317
-0.284029
0.337066
-0.0111578
0.186645
1.10263
0.0226082
-0.0291217
0.656589
0.343411
0.796616
-0.604304
-0.758839
-0.668872
-0.49879
0.49879
-0.21106
-0.112714
0.637347
-0.923124
0.285777
-0.459173
-0.547708
0.323161
-1.0081
-0.942345
0.98579
-0.743496
0.563133
0.65881
0.206712
-0.865522
-0.413605
-0.193048
0.86775
-0.674701
-0.160287
0.0183419
0.00101419
-0.0193561
-0.120355
0.0990376
0.960507
0.498551
-0.174807
-0.323744
0.56973
0.753375
-0.525462
0.0165062
-0.289965
-0.0599746
0.764255
-0.70428
-0.349291
-0.0679633
0.144895
-1.07656
0.173071
-0.716412
0.136374
0.719482
-0.855856
-0.907912
0.191499
0.721374
-0.789337
0.23001
-0.350091
-0.585553
0.171947
0.368517
0.69488
-0.0225495
-0.00769231
0.00769231
-0.00876323
-0.0122795
-0.0578549
-0.0155171
0.0381253
-0.314365
0.344785
0.723901
-0.818004
0.0941023
-0.683769
0.820143
0.807244
-0.0858704
-0.709332
-0.19858
-1.13961
0.0213243
0.0267112
-0.374339
-0.922565
-0.865243
0.429292
-0.171858
0.264279
-0.0924201
-0.308342
-0.0659976
0.462191
0.711339
-0.0561777
-0.0128479
0.904611
0.540134
0.133377
-0.673511
-0.208241
-0.1001
8.8412e-05
0.0182535
0.754506
-0.955901
0.00425417
-0.00425417
-0.714284
0.797017
-0.0827329
-0.380393
-0.154541
-0.69404
0.142262
0.650175
-0.0573622
-0.887088
-0.433881
0.29761
0.136271
0.751057
-0.656954
0.359287
0.241766
-0.601053
-0.16806
-0.699168
-0.156688
-0.17415
-0.291618
0.468758
-0.518051
0.158884
0.764433
-0.923317
0.495193
-0.264751
0.0928923
-0.12207
-0.169549
0.590912
-0.0920398
-0.498873
-0.290429
0.311269
-0.0208393
0.533417
0.144621
0.108076
-0.31618
0.173938
0.142243
0.0183329
-0.161353
-0.387397
0.103737
-0.015916
-0.0878208
0.976852
-0.217451
-0.162942
0.551054
0.370568
-0.545375
0.406758
-0.406758
-0.200827
-0.396619
-0.211091
-0.396619
-0.767418
-0.852313
0.179347
-0.50148
0.759009
0.0484258
0.125508
0.569372
0.110192
0.122547
0.00916817
-0.131715
-0.20387
0.637448
-0.970174
0.425333
-0.0637905
0.0697389
-0.00594841
-0.760572
-0.178018
-0.557155
0.690533
-0.520736
-0.0786741
-0.0908745
-0.345366
-0.0789024
0.0789024
0.0538927
-0.000978543
0.143871
0.102926
-0.658924
0.101769
-0.00294804
0.473905
0.526095
0.85863
0.0118088
0.0344111
-0.04622
-0.30165
-0.585438
-0.486497
0.118043
-0.122344
0.00430083
-0.171945
-0.407892
-0.174861
0.825036
-0.592635
-0.167937
0.049806
-0.0181441
0.257553
-0.487537
-0.201891
-0.200932
-0.0260119
-0.465659
0.423961
0.0416978
-0.0348153
0.295293
-0.865998
-0.525718
0.621166
-0.889556
0.721496
0.42629
-0.0333181
0.0564427
-0.0231246
0.163189
-0.633508
-0.00926338
0.642771
-0.890686
0.652938
-0.723015
0.0156156
0.00761968
-0.00761968
-0.299674
0.407566
0.032913
-0.0172245
0.0290333
0.579846
0.472375
-0.578748
0.0123278
-0.00299958
-0.00469274
0.00558944
-0.00558944
-0.445969
0.59059
0.0170666
-0.0170666
-0.781778
-0.00882141
0.0127185
-0.482366
0.584135
0.545182
-0.627914
0.0714586
-0.0714586
0.0142261
-0.0426802
0.00579665
-1.09074
0.718315
-0.538389
-0.00532223
0.607886
0.00313457
-0.61102
-0.711245
0.11861
-0.312831
-0.012241
0.325072
-0.0278808
-0.0282968
-0.607583
-0.0259252
0.0267112
0.00535365
-0.00109948
-0.00263361
0.00263361
-0.211149
0.123328
-0.480539
0.135291
0.661325
-0.104139
0.0087065
-0.0087065
0.508468
-0.0812177
0.00904486
0.0190915
0.000267209
0.624269
-0.705486
-0.784355
0.621413
-0.130823
0.339569
0.806329
-0.00876323
-0.0854648
0.0830341
-0.645602
0.538269
-0.26139
-0.103359
-0.0297363
-0.0266737
0.018894
0.475695
-0.0866256
-0.412247
0.719316
0.00306905
0.00118009
-0.00118009
-0.231838
-0.108224
-0.568694
0.61712
-0.134303
0.507377
-0.167397
0.845015
0.828948
0.00535365
-0.690473
0.576481
0.021644
0.0219494
-0.0435934
0.586598
0.102171
-0.0117791
0.0658748
-0.0540957
0.00914548
-0.00914548
-0.748535
0.023423
-0.0459804
0.0650719
-0.0848611
0.0848611
-0.00299958
-5.67281e-05
0.784459
0.0971551
-0.314035
-0.0938572
-0.518168
0.07145
-0.065856
0.065856
-0.0319939
0.0836097
-0.0836097
0.0263907
-0.0263907
-0.359335
-0.0771855
0.236703
0.0714241
0.0526126
-0.7445
-0.0661836
0.158498
0.0249986
-0.235649
0.0834339
-0.0834339
-0.466305
-0.051746
0.22629
-0.00757224
0.00272004
-0.670727
0.656073
0.020197
-0.0521909
0.0298103
-0.0724905
-0.0121512
-0.160624
0.172775
-0.147067
-0.203024
-0.0801512
0.0801512
0.0531567
-0.0531567
-0.0263577
-0.0934434
0.119801
-0.0423116
-0.192586
0.00702832
-0.0117211
-0.101378
0.224707
-0.0257457
0.482757
0.0107195
0.0140955
-0.050392
0.050392
-0.732278
0.313829
-0.126403
-0.206075
-0.0223825
-0.0180617
0.0207817
0.189103
0.0319627
-0.00230162
0.00256883
0.0876274
0.0304161
0.0574821
0.101016
-0.0344324
0.0215845
-0.00307408
0.00369292
0.00344233
-0.00212153
-0.00132081
-0.00417967
0.0137886
0.0264529
-0.0264529
0.0478131
-0.0449355
0.0449355
-0.189861
0.0177884
0.0317511
-0.076128
0.0172452
0.0796524
-0.0796524
0.230801
-0.233557
0.0864902
-0.0656823
-0.167875
-0.0136232
0.0136232
0.4082
0.251719
-0.523875
-0.0806438
-0.0417005
0.543491
-0.0125013
-0.0535021
-0.45946
0.113407
-0.150007
0.167494
-0.0174879
-0.0492363
0.0492363
0.919735
-0.587384
-0.0008066
-0.00337307
-0.00595872
-0.290732
-0.000175835
0.00470984
-0.0474431
-0.628821
0.569914
-0.654689
0.0142952
0.0626182
0.015464
0.0240013
-0.155965
-0.330837
0.254709
-0.0530614
0.0267037
0.173861
0.137408
0.258095
0.261028
-0.245564
0.00234286
-0.116871
-0.218316
0.0658911
-0.00840896
0.158627
-0.134625
-0.0688519
0.156479
-0.412923
0.119778
-0.102533
0.0593262
-0.471573
0.172204
0.182536
-0.251388
0.011487
-0.181639
0.181463
0.00378151
0.152698
-0.0278689
0.0464511
0.462017
0.0128297
0.00791745
0.00294053
0.0383982
-0.235804
-0.203449
0.589349
0.16438
0.06191
0.0707582
-0.0644836
0.0549425
-0.0985359
-0.0306898
0.164117
-0.149822
0.0268115
-0.0125277
-0.108292
-0.0289414
0.048396
0.252493
-0.0331699
-0.017548
-0.306719
-0.0105084
0.221528
0.138101
0.175728
0.0560939
0.0940553
0.0627835
0.517063
-0.00439489
0.109146
0.0390988
0.0695694
-0.108668
-0.272156
-0.194195
0.0263202
-0.21908
0.280399
)
;

boundaryField
{
    FrontBack
    {
        type            empty;
    }
    Top
    {
        type            calculated;
        value           uniform 0;
    }
    In
    {
        type            calculated;
        value           uniform -1;
    }
    Bottom
    {
        type            calculated;
        value           uniform 0;
    }
    Out
    {
        type            calculated;
        value           nonuniform List<scalar> 10(1.185 1.0773 1.14112 0.982313 1.23139 1.00337 1.15733 1.00688 0.607585 0.60771);
    }
    circle
    {
        type            calculated;
        value           uniform 0;
    }
}


// ************************************************************************* //
