/*--------------------------------*- C++ -*----------------------------------*\
| =========                 |                                                 |
| \\      /  F ield         | OpenFOAM: The Open Source CFD Toolbox           |
|  \\    /   O peration     | Version:  2412                                  |
|   \\  /    A nd           | Website:  www.openfoam.com                      |
|    \\/     M anipulation  |                                                 |
\*---------------------------------------------------------------------------*/
FoamFile
{
    version     2.0;
    format      ascii;
    arch        "LSB;label=32;scalar=64";
    class       volScalarField;
    location    "1029";
    object      p;
}
// * * * * * * * * * * * * * * * * * * * * * * * * * * * * * * * * * * * * * //

dimensions      [0 2 -2 0 0 0 0];

internalField   nonuniform List<scalar> 
808
(
-0.0342638671721776
0.04457595247320345
-0.01180402957729489
0.03669767630748946
-0.2990168898959557
-0.05497705826300633
-0.01492497763987167
-0.02384852649127598
-0.1966620177326056
-0.083768878300386
-0.009562669162996328
-0.2537979849131625
-0.0305810898339611
-0.01336205467893058
-0.1242904860576646
-0.01403452122608116
-0.1425335380414584
-0.01360340378557262
-0.01288283230500775
-0.05563446726431647
-0.006683366034596059
0.1173315786932014
-0.06219887476329813
-0.07161640309128997
0.1751015219029496
-0.09964661590708035
-0.1523039599420899
-0.02038176897099148
-0.01750847717642333
-0.02593435962474444
-0.02024319690838825
-0.05841239141642968
-0.02296340445296727
-0.01690939103460843
-0.09914750975491282
0.3448246690594098
-0.03914904077866682
-0.01679478318852049
-0.02289506597157834
-0.02657513381799665
-0.09002417801772415
-0.1263846848196776
-0.05175167005276751
-0.02084297847003325
-0.05548248437821048
-0.04127910033648602
-0.01223443626200564
-0.1841508391898353
-0.02702092080461403
-0.2038038779272141
-0.0164040841699631
-0.06716955413723527
-0.06062471353133696
-0.01518901499292754
-0.1933157783510691
-0.0283584902234547
-0.01090131299418311
-0.01517324905153061
-0.1001896853251059
-0.03979712121743834
-0.09882405672909408
-0.1258813821783004
-0.01381125842831536
-0.1274937572285071
-0.01703918564033842
-0.05155482087891603
-0.162728612184549
-0.03558749414980179
-0.01512301919608442
-0.4404284758657291
-0.02660293906251787
-0.3026219312828277
-0.02168453647626601
-0.02048300619729505
-0.06424384490981921
-0.01771067354200853
-0.04256005881105668
-0.3645024093383432
-0.03582936932613941
0.03981090164127621
-0.09169792458951194
-0.01707532939554955
0.05697217580352076
0.04517268906807854
-0.0169699381612084
-0.05218874961910908
-0.5422249343346848
-0.2263441676880094
-0.0521437538109733
-0.1127712917860039
-0.05652115376025283
-0.1322214540888149
0.03932807462803589
-0.0253545540804147
-0.06170803096655398
-0.1163277936857909
-0.03840270792675841
-0.05236667615635836
-0.1157389504222006
-0.1368543173345434
-0.05244336929039919
-0.04737836441422184
-0.05435341343689887
-0.04481175678695642
-0.05729974972367993
-0.07445212364523797
-0.04148449036047541
-0.01123118145722477
-0.04032415041891096
-0.1238343324245393
-0.0504227555734901
0.08205887056623977
-0.04243779057616571
-0.008271418939446135
-0.02776126354881624
0.1807522593450322
-0.03881760218386712
-0.2687634166420527
-0.02040487964663397
-0.05349316934684818
-0.0304330053207736
-0.0486489459078819
0.01348023113525494
-0.04858712287579232
-0.03550592077957724
-0.2177386514284586
-0.04106945141086516
-0.004992695043982183
-0.07576342612133731
-0.06872199995548005
-0.1424323393442397
-0.0208855057094383
-0.07500618963007254
-0.04294060620493426
-0.02279201703269702
-0.0156431259468091
-0.006391231713930073
-0.007274157157205003
-0.0524318282331809
-0.0497393017437677
-0.2168374248836071
-0.05644906420029568
-0.008429105043465506
-0.02231247777289198
-0.1472489279362104
-0.002796401561807111
-0.07618137001225368
-0.02191572081962123
-0.0009820645643018979
-0.01102394222760369
-0.03336800074849744
0.09401878331204251
-0.03865766391193538
0.2519704121142911
-0.2694128611514525
-0.1323089559774468
-0.03743378781892189
-0.0910091687108857
-0.009410661500612939
-0.1134150923142902
-0.1795520270682391
-0.2195304817793496
-0.1770053175561405
0.05637575522531883
-0.06288647441393688
-0.02039204057686625
-0.06687690039539021
-0.1657372240637999
-0.0234661485287942
-0.01836372035919752
-0.05190602700192463
-0.01962765268953203
-0.006785032178423087
-0.1073914509571426
-0.02302380782091919
-0.04504465443486317
-0.07000257220290174
-0.160702841240288
-0.03342236784412051
-0.3900455378322439
-0.01784726176462814
-0.2255341217129002
-0.04425892053650486
0.0322375712968354
-0.1063418862918077
-0.01548831038720626
-0.04244622898207357
-0.1039259667424114
-0.01767014099332829
-0.09518813936275584
-0.2079094463984377
-0.07162050925570164
-0.02381105824017744
-0.04807014462874898
-0.04273650596618643
-0.2047388628667826
-0.02201454040219127
-0.01905974904066018
-0.0112996808398621
-0.05615720267040723
-0.05058055785513157
-0.02236698669688187
-0.02081633589204249
-0.2419626333440139
0.1273111402150855
-0.2045439013212367
-0.1970974203369486
-0.01179160148726823
-0.01142848306670025
-0.06705639924685004
-0.01010987627735026
-0.5055202764202791
-0.120030648575394
-0.01914760754038455
-0.0001919506391704209
-0.02401006041794476
-0.281612683652076
-0.2780709302151079
-0.007072469891718601
-0.01718657326359194
-0.001278806849077136
-0.3489360306527382
-0.02831833867205916
-0.02916344472932165
-0.01251787354005168
-0.01966326572904651
0.04966303295871485
-0.1103581996893332
-0.01420999131473147
-0.02080823412470851
-0.04437421593201458
-0.01823619449552785
-0.01616981635418869
-0.02344297341243764
-0.0675839029115135
-0.01149781304038366
-0.01903600730012507
-0.0085991057214772
-0.0007121923646696685
-0.02950470837191941
-0.001743618368021753
-0.002169220771261016
-0.005848146924318245
-0.02560028891126547
-0.007957861355316804
0.001472450208449615
-0.004278636629046103
0.001359438949679531
0.002539305559924027
-0.008888441692598172
-0.1401666000654319
-0.002979378310048023
-0.00145623763404756
-0.04823013938148332
-0.02158493637348537
-0.02429914273074195
-0.01431867140645838
-0.006173771224772288
-0.02089796378388262
-0.03901610288215812
-0.01417565012888095
-0.01290790677608663
-0.01146894452536226
0.008661909429953487
-0.01016597553375013
-0.0118347772035452
-0.01149887525850644
-0.01061443351366284
-0.01033973599957595
-0.01212634758579713
-0.01393126735216715
-0.3043909015172733
0.05969066137811321
-0.0158451750726018
-0.01536933846735959
-0.01292780308333463
-0.01185677356880771
-0.008737765998952027
-0.09647824331564973
0.01192966032872442
-0.01364359393246371
-0.01420590797120857
-0.01063178531168975
-0.05177373240638847
-0.01029200697837727
-0.01356290733383331
-0.01007853505091461
-0.0002324245777030575
-0.01078195301097936
-0.01213059681065085
-0.02461156393201418
-0.01569948995114264
-0.01187946112706913
-0.0135230607799415
-0.007396894989138762
-0.01214689384675244
-0.01175212244941737
-0.05867132237584961
-0.01336887446613464
-0.01127960813990338
-0.00888020858594553
-0.01498052234709292
-0.01367013410040626
-0.01563336530434942
-1.368462662660921
-0.09956518980002198
-0.01333337916373173
0.02600933368488524
-0.1623013957849636
-0.09156185788650817
-0.01192178584464715
-0.01405254199680585
-0.2380356354507461
-0.02913768537472507
-0.01863735522652021
-0.011523667528513
-0.01985042226136707
-0.01025580538850446
-0.03076155396709195
-0.410652533439113
-0.0124236667436639
-0.01410490818426402
-0.004712140930922085
-0.01122630362818313
-0.01066878024101395
-0.01413235615112961
-0.006925405215571173
-0.0264998011567637
-0.01163819191501444
-0.1692655257235041
0.01840821763118652
-0.007498825293003487
0.003965537305443852
0.01361812054180595
-0.04808409423253322
0.02855343987662093
-0.01332838828516369
-0.1329851399820208
0.2826779793892067
-0.007353606732028516
-0.01357001340443086
-0.008216126593014642
-0.03266122737588938
-0.1243033981462367
-0.01225847349888972
-0.01216652613791491
-0.01681774071094073
-0.01354730945585771
-0.04128873057653532
-0.2176632171837073
-0.0103321893988002
-0.04257927430773525
-0.03924443449604714
-0.1719916208809977
-0.1605266443699473
-0.1344933913697796
-0.2318392739743982
-0.005901607655074732
-0.02102239903117229
-0.01420094758622977
-0.0129010357576576
-0.0332833205807332
-0.02448603617500464
-0.01428606032418945
-0.01490835099910651
-1.072924193335448
-0.006132868942971154
-0.01330993461230142
-0.01834898868741455
-0.02412346021770038
-2.438351590131757e-05
-0.01480067925602338
-0.02621488463330378
-0.1516121871857991
-0.01359949706679779
-0.02197502722297969
-0.01390467515309551
-0.001137965155064976
-0.1781859107756733
-0.01288147319903774
-0.145168836583085
-0.01588913679986533
0.003698502270133297
-0.01451770991646869
-0.02355558490425919
-0.01562390016893623
0.00500820706027412
-0.2732031810820634
-0.02594872887996045
-0.01609453669153215
-0.003514803025649195
-0.009910385065907436
-0.02993472715226596
-0.01414751381042707
-0.02054290557627177
-0.02102312144756575
0.01484730825409416
-0.09880936490528504
-0.0216863329721612
0.009318706994357429
-0.05503121178344883
0.1714850649830466
-0.1049804301682495
-0.3170135666467265
-0.03094870637940452
-0.02561980561117901
0.1508986699753502
0.07777452755428184
-0.003632343535269047
0.04994057699676429
-0.01530921694063393
-0.01409476386576139
0.00242287949696353
0.009692183105561183
-0.06563120165586585
-0.005825009013988867
-0.05670329147754263
-0.02234871910771428
-0.01572959791597751
-0.03653759083663747
-0.03291391147328065
-0.006651633585009382
-0.01506937493023518
-0.03759506709165074
0.03630017716923407
-0.03882073271733308
-0.01388204581644379
-0.1181766534149304
-0.03168417787476067
-0.03918644153668907
-0.6711726153192601
0.02016615596622334
-0.01039199592797313
-0.005779775047368365
0.1634724939596805
-0.08911623311095171
-0.03529920776055715
-0.2437037334692575
-0.01631323977639577
-0.01637906908519465
0.07331670175611452
-0.1811857813113452
-0.2339037015037358
-0.193158515996764
-0.6799398773588605
0.001961854227514423
-0.01833457678607156
-0.01684566962823002
-0.08416212020876836
0.1184513635721756
-0.02087580326129876
-0.2304540791266211
-0.03550003458333915
-0.006650724531514799
0.2803213319726254
-0.01117612435071705
-0.09185778874122358
-0.1514825259221975
-0.003511948982603106
-0.0409183301319937
-0.05219477997331189
-0.2021677922475208
-0.008243923057743704
-0.04065062125258889
-0.002589226402777145
-0.5458059731106361
-0.1947108957221755
-0.1778121400966386
-0.02295999710287389
-0.007701353907413892
-0.06114406846085713
-0.05714257635310412
-0.0138232175264843
-0.06865491051643788
0.004500943606038469
-0.01805463440185063
-0.09351842344537781
-0.2724066489384236
-0.007588141608919401
-0.02600111941680731
-0.02176478046683835
-0.07537027916315377
-0.08969988307947226
-0.08886625510545898
-0.01204896891586947
-0.9172691939477389
0.1619720585768687
-0.07907381011014591
-0.2506226581307614
-0.04186514629448139
-0.0101359231205238
-0.2553774780794435
-0.1927728149227545
-0.03165054998751266
-0.1255702841694741
-0.01964872494941804
0.5636988844402383
-0.02443279438790949
-0.2240483025787561
-0.02556405255823749
-0.005570254115376591
-0.01172896385902262
-1.24475940783136
-0.180385115525599
-0.228925587424388
0.005263309608643034
-0.03842006629530461
-0.2481320952974566
-0.06630840236870773
-0.0515471139095002
-0.1450481327208423
-0.1828839246021488
-0.06897741063438133
-1.219864604823621
-0.1473096893946265
-0.5302196036792622
0.0794400272594685
-0.006163475219468958
-0.0214897281552524
-0.0437589016776643
-0.03893870550052596
-0.02839663945755906
-0.1292083473126459
0.08108650851808778
-0.002037779635030748
-0.009945998107685381
-0.5725665847251336
-0.8556989873032882
-0.1797379490787095
-0.008257167487199164
-0.1350620216678516
0.0007910273210352957
-0.0001602184610602539
-0.00207295568620227
-0.06039147471746636
-0.235225224793358
-0.013298690830545
-0.1210637072079177
-0.1574442418896942
-0.01318360395828664
-0.03512518932924331
0.02582868758160809
-0.0580430692735386
-0.07098683323670019
-0.4975101692852748
-0.2164793552621476
-0.07970212892038937
-0.07436550461180662
-0.01968454726193627
-0.1222761995463586
-0.1552990436391331
-0.07606716401735707
0.02279205018534739
-0.08596337929260192
-0.04938004803631585
-0.01487726584521623
-0.1071688572153545
-0.2767863168825073
-0.0583576751109725
-0.0182623060707533
-0.0006188664256712854
-0.01000730096904495
-0.01089309579475912
-0.2239578434498219
-0.01519040808093246
-0.2183671469444331
-0.010283150629116
-0.07159805111970664
-0.004343816631073238
-0.02324597430493961
-0.3851131675974279
-0.9208506345993152
-0.01132129520461384
-1.041353424433748
-0.6071217297098859
-0.01049352127539147
-0.6631854134740076
-0.1831383764578747
-0.005989824536049586
-0.1280979197049213
-0.01669661035949188
-0.1241436252817634
-0.06572660783769758
-0.08078076652257539
-0.005074209393251042
-0.002284033464860312
-1.34654923996404
-0.01143471578413227
-0.1783363625062954
0.0007401014552348129
-1.004374050665058
-1.2446364507831
-0.07938835331123252
0.01721444348762766
0.1645664587264023
-0.004485841222582052
-0.02304117632458255
-0.004184360323914948
-0.2476867363263513
0.3657614396421145
-0.04150659637247218
-0.2128687386943781
-0.01492188889905428
-0.6489859236670497
-0.07315600673913272
0.1890090488429335
-0.291759912720681
-0.05023904461336225
-0.06951910243521293
-0.01586035403251467
-0.02164787170393305
-0.5849616069658616
-0.1478725236712668
-0.08853361310248345
-0.124676514982824
-0.5508366170659743
-0.04467916873018275
-0.9013386953551076
0.0006326345174128453
-0.2412985117875601
-1.056619392986836
0.1636634364189965
0.2893800643724647
-0.1820315969895484
-0.1895384337400903
-0.2137989674428095
-0.06680264073404613
0.02260098090884386
0.04408011477818246
0.003127630167937783
-0.1648352779218037
0.02600223469427789
-1.365967357173667
-0.08620457021372289
-0.4776740788096408
-0.3343664867035562
-0.2099259564099563
-0.1791424421101754
-0.01691372301736918
-0.01545391008734693
-0.1040409014609172
0.1744267122733162
0.3845087349883787
-0.2017569075574978
-0.14214074346279
-0.223685167312713
-0.06303923576995389
-0.1528031221512514
-0.1671043013979342
-0.126840669233296
-0.1219866632003683
0.4635096590674179
-0.2753245817209006
0.4338279084258785
-0.5937081130633802
0.07256318993346564
-0.1969498946993964
-0.06701316446417817
-0.07669855655523421
-0.8882876833693415
-0.2149456337734917
-0.1926341832819353
-0.3510174799750344
-0.4626303911256632
0.5700638482116362
-0.213167567289242
0.001905311952180356
-0.06837659559128599
0.3458455062080023
-0.03576463524490568
-0.1312261897837536
-0.181375225841892
-0.06336934543481222
-0.01650291732940241
-0.1989581662672476
0.1979315598839349
-0.01290707160761696
-0.09754056440783417
-0.1739781487078366
-0.3204056894055186
-0.309772458220336
-0.06920151282056206
-0.01010847936869544
-0.08191336026614776
-0.6486420250026023
-0.6759584542700209
-0.3328901887791801
-0.05842163360507301
-0.05031612073536301
-0.02503201031373871
-0.06901807246650847
-0.05595517418835811
-0.3635014746218274
-0.9642890265764409
-0.01022937310783231
-0.08421361988529606
-1.145802053088666
-1.040580091734127
-0.1089905831990833
-0.04057559489944433
-0.06858235721329359
0.3882957614946795
-0.3403858231888506
-0.04909295515677362
-0.6039958387530818
-0.1254838340405534
-0.2497899875343189
-0.2136419968011532
0.4732997807066185
-0.6340235480453204
0.07677415137794451
-0.029013798674802
-0.5648418230663388
-0.05330364211747277
-0.3659720206505491
0.1096992985725541
-0.1921078671826666
-0.06062875344778918
-0.1355260103508276
-0.3575261624705886
-0.08391564268150215
0.5160034111726285
0.08666815433670325
0.4693461891516707
-0.100692665352707
-0.2041028980544514
-0.5160186069449527
-0.134237243048468
0.02520794991538877
-0.05463466016585469
0.1000496336346607
-0.3018417732774639
0.2364642919734027
0.005642118384360838
-0.002982429016460617
-0.5088241068039892
-0.1828093772500418
-0.08269875151448072
0.5816629273830028
0.1394173455474868
0.3424877589134703
0.2254562628200508
-0.5665626420598669
-0.1917449606940601
-0.2255874127940324
-0.2234915979630012
-0.06133204926886129
-0.6889067080215803
-0.1897286242883506
0.3045134207643763
-0.1896374749149971
-0.01143436969744453
-0.1650267737277748
-0.0108487189806381
-0.161651716408244
-0.4412682098437866
-0.07592109655538345
-0.2050249443895938
-0.07177049557408975
-0.09077781714832235
-0.1420131180256081
-0.07231133019013408
-0.4487544910220793
-0.4105677614132848
-0.02389207396645707
-0.07643759808621799
0.3305095996132752
-0.2497784273402439
-0.1794851135707957
0.5238433636759814
-0.20289797034435
0.02071609026220411
-0.4533594661507625
0.0513229479708139
-0.06042145573973205
-0.1392083648360633
-0.5887233036889895
0.1582263467550356
-0.575787091450953
-0.5390354346345828
-0.1022098792488854
-0.5119909868851674
-0.03670853177785185
-0.1427449327299687
-0.4145445018619903
-0.01615001940757576
0.2883474359550616
0.4899984573340717
-0.162405255341474
-0.006290637898158329
-0.08326666748634538
0.5251078792922038
-0.03275260566138866
-0.4429612968725314
-0.03233551153817321
0.4620747898547291
-0.01635568722035257
-0.5479930471906931
-0.2486638681298459
0.1779947306741878
-0.3132767067418871
-0.1811781941610854
0.04797597993165295
0.03224029720036384
0.05595446065573293
-0.3020768294554974
-0.1599514324565539
0.4128581699372942
)
;

boundaryField
{
    FrontBack
    {
        type            empty;
    }
    Top
    {
        type            zeroGradient;
    }
    In
    {
        type            zeroGradient;
    }
    Bottom
    {
        type            zeroGradient;
    }
    Out
    {
        type            fixedValue;
        value           uniform 0;
    }
    circle
    {
        type            zeroGradient;
    }
}


// ************************************************************************* //
