/*--------------------------------*- C++ -*----------------------------------*\
| =========                 |                                                 |
| \\      /  F ield         | OpenFOAM: The Open Source CFD Toolbox           |
|  \\    /   O peration     | Version:  2412                                  |
|   \\  /    A nd           | Website:  www.openfoam.com                      |
|    \\/     M anipulation  |                                                 |
\*---------------------------------------------------------------------------*/
FoamFile
{
    version     2.0;
    format      ascii;
    arch        "LSB;label=32;scalar=64";
    class       volVectorField;
    location    "0.3";
    object      cellDisplacement;
}
// * * * * * * * * * * * * * * * * * * * * * * * * * * * * * * * * * * * * * //

dimensions      [0 1 0 0 0 0 0];

internalField   nonuniform List<vector> 
256
(
(0.00134688 -0.00154446 0)
(0.00254421 -0.0027184 0)
(0.0038258 -0.00360028 0)
(0.00513028 -0.0040552 0)
(0.00651606 -0.00409261 0)
(0.00788546 -0.00364739 0)
(0.00907064 -0.0027118 0)
(0.00995481 -0.00135695 0)
(0.00581983 -0.00650114 0)
(0.00932722 -0.00954527 0)
(0.0128542 -0.0114939 0)
(0.0166557 -0.0124233 0)
(0.0205237 -0.0121102 0)
(0.024246 -0.0104928 0)
(0.0274429 -0.0075978 0)
(0.0295482 -0.0036306 0)
(0.0119233 -0.0130857 0)
(0.0173421 -0.0172319 0)
(0.0230122 -0.0198051 0)
(0.028886 -0.0206356 0)
(0.0348461 -0.0196145 0)
(0.0404826 -0.016637 0)
(0.0451632 -0.011788 0)
(0.0483269 -0.00545046 0)
(0.0194192 -0.0209912 0)
(0.0266322 -0.0257487 0)
(0.0340195 -0.0282947 0)
(0.0417609 -0.0286748 0)
(0.0494594 -0.0266474 0)
(0.0566043 -0.0221675 0)
(0.0624703 -0.015398 0)
(0.0662122 -0.00685574 0)
(0.0282833 -0.0301032 0)
(0.0368982 -0.0347837 0)
(0.0459149 -0.0369516 0)
(0.0551247 -0.036453 0)
(0.0642139 -0.0331787 0)
(0.0725139 -0.0270967 0)
(0.0791535 -0.0184516 0)
(0.083382 -0.00788964 0)
(0.0382508 -0.0400986 0)
(0.0482002 -0.0442984 0)
(0.0584307 -0.0455705 0)
(0.0689287 -0.0439394 0)
(0.079098 -0.0392228 0)
(0.088222 -0.0314698 0)
(0.0954375 -0.0209994 0)
(0.0997866 -0.00856689 0)
(0.0493162 -0.0508387 0)
(0.0602387 -0.0540109 0)
(0.0716369 -0.0541225 0)
(0.0830595 -0.0510584 0)
(0.0940126 -0.0447487 0)
(0.103689 -0.0352792 0)
(0.111146 -0.0230553 0)
(0.115607 -0.00888935 0)
(0.0612228 -0.0620027 0)
(0.0731328 -0.0638623 0)
(0.0852973 -0.0624356 0)
(0.097488 -0.0577508 0)
(0.108958 -0.0497289 0)
(0.118911 -0.0385224 0)
(0.126481 -0.024602 0)
(0.130809 -0.00884342 0)
(0.0740942 -0.073523 0)
(0.0866253 -0.0736248 0)
(0.0995305 -0.0704356 0)
(0.112151 -0.0639312 0)
(0.123882 -0.0541047 0)
(0.133889 -0.0411607 0)
(0.141291 -0.0256275 0)
(0.14546 -0.00838503 0)
(0.0876856 -0.0850933 0)
(0.100886 -0.083177 0)
(0.114136 -0.0779575 0)
(0.127032 -0.0694827 0)
(0.138777 -0.0577898 0)
(0.148591 -0.0431286 0)
(0.155757 -0.0260486 0)
(0.15954 -0.00746786 0)
(0.102149 -0.0965125 0)
(0.115663 -0.0922728 0)
(0.129239 -0.0848175 0)
(0.142104 -0.0742481 0)
(0.153628 -0.060651 0)
(0.163083 -0.0443058 0)
(0.169743 -0.0258114 0)
(0.173102 -0.00600779 0)
(0.117282 -0.107452 0)
(0.131188 -0.10065 0)
(0.144725 -0.090789 0)
(0.157369 -0.078009 0)
(0.168416 -0.0624889 0)
(0.177239 -0.0445441 0)
(0.183277 -0.0247539 0)
(0.18605 -0.00389872 0)
(0.133335 -0.117461 0)
(0.147267 -0.107883 0)
(0.160646 -0.0954323 0)
(0.172736 -0.0804346 0)
(0.183025 -0.0629927 0)
(0.190997 -0.0436051 0)
(0.196184 -0.0226712 0)
(0.198324 -0.000960948 0)
(0.150116 -0.125908 0)
(0.164007 -0.113234 0)
(0.176793 -0.0981836 0)
(0.188013 -0.0808953 0)
(0.197232 -0.0617885 0)
(0.204083 -0.041074 0)
(0.208292 -0.0192962 0)
(0.209663 0.00305862 0)
(0.167663 -0.131615 0)
(0.181019 -0.115771 0)
(0.1928 -0.0980607 0)
(0.20271 -0.0788153 0)
(0.21052 -0.0582216 0)
(0.216032 -0.0366087 0)
(0.219088 -0.014276 0)
(0.21961 0.00834905 0)
(0.184414 -0.132334 0)
(0.196497 -0.113621 0)
(0.206687 -0.0938141 0)
(0.214887 -0.0731035 0)
(0.221018 -0.0516888 0)
(0.22502 -0.0297764 0)
(0.226855 -0.00757716 0)
(0.226506 0.014695 0)
(0.000216326 -0.0102592 0)
(0.00171967 -0.00990032 0)
(0.00292476 -0.00896914 0)
(0.00366785 -0.00770682 0)
(0.00381933 -0.00617224 0)
(0.00342577 -0.00458313 0)
(0.00257585 -0.003029 0)
(0.00138329 -0.00151799 0)
(0.000808945 -0.0304128 0)
(0.00503683 -0.0294574 0)
(0.00851877 -0.0270533 0)
(0.0107526 -0.0235447 0)
(0.0115083 -0.0194216 0)
(0.0108199 -0.0150834 0)
(0.00886092 -0.0107763 0)
(0.00584986 -0.0065364 0)
(0.00153314 -0.0494368 0)
(0.00814986 -0.0479554 0)
(0.0136564 -0.0443319 0)
(0.0174037 -0.0391726 0)
(0.0189917 -0.0329892 0)
(0.0184419 -0.0264143 0)
(0.0159576 -0.0198255 0)
(0.0118017 -0.0133113 0)
(0.00239351 -0.0675044 0)
(0.0111295 -0.0655772 0)
(0.0185073 -0.0610475 0)
(0.0236986 -0.054491 0)
(0.0262909 -0.0467109 0)
(0.0262327 -0.0383706 0)
(0.023728 -0.0299531 0)
(0.0190235 -0.0215809 0)
(0.00339116 -0.0846703 0)
(0.0140285 -0.0823518 0)
(0.0230994 -0.0770614 0)
(0.0297562 -0.069547 0)
(0.0334792 -0.0605418 0)
(0.0341975 -0.0508365 0)
(0.0320889 -0.0409836 0)
(0.0274047 -0.0311678 0)
(0.00455374 -0.10105 0)
(0.0169107 -0.0984006 0)
(0.0275817 -0.0925864 0)
(0.035643 -0.0842753 0)
(0.0405969 -0.0743689 0)
(0.0423233 -0.0636541 0)
(0.0409673 -0.0527204 0)
(0.0367601 -0.041798 0)
(0.00590247 -0.116703 0)
(0.0198254 -0.113762 0)
(0.031968 -0.107502 0)
(0.0414508 -0.0986973 0)
(0.0477171 -0.0881547 0)
(0.0506319 -0.0767078 0)
(0.0503153 -0.0649883 0)
(0.0470127 -0.0532698 0)
(0.00747373 -0.131697 0)
(0.0228344 -0.128501 0)
(0.0363951 -0.121971 0)
(0.0472448 -0.112774 0)
(0.0548878 -0.101812 0)
(0.0591456 -0.0898806 0)
(0.0601097 -0.0776128 0)
(0.0580345 -0.0653402 0)
(0.00931248 -0.146078 0)
(0.026 -0.142658 0)
(0.0408678 -0.135888 0)
(0.0531106 -0.126508 0)
(0.0621803 -0.115299 0)
(0.0678995 -0.103052 0)
(0.0703604 -0.0904595 0)
(0.069818 -0.0778322 0)
(0.0114776 -0.159856 0)
(0.0293798 -0.156226 0)
(0.0455274 -0.149357 0)
(0.0591089 -0.139859 0)
(0.0696477 -0.128526 0)
(0.0769624 -0.116157 0)
(0.0810879 -0.103361 0)
(0.0822807 -0.0905054 0)
(0.0140511 -0.173044 0)
(0.0330675 -0.169239 0)
(0.0503841 -0.162275 0)
(0.0653158 -0.152773 0)
(0.0773785 -0.141465 0)
(0.0863696 -0.129043 0)
(0.0923161 -0.11616 0)
(0.0954737 -0.103145 0)
(0.0171293 -0.185597 0)
(0.0371333 -0.1816 0)
(0.0555709 -0.174633 0)
(0.0718052 -0.165215 0)
(0.0854164 -0.153976 0)
(0.0961931 -0.141595 0)
(0.104101 -0.128646 0)
(0.109342 -0.11546 0)
(0.0208366 -0.197391 0)
(0.0417027 -0.193255 0)
(0.0611495 -0.186313 0)
(0.078656 -0.177024 0)
(0.0938367 -0.165925 0)
(0.106463 -0.15358 0)
(0.116455 -0.140517 0)
(0.124009 -0.127064 0)
(0.0253887 -0.208267 0)
(0.0468981 -0.203963 0)
(0.0672181 -0.197085 0)
(0.0859182 -0.187958 0)
(0.102648 -0.176998 0)
(0.117205 -0.164628 0)
(0.129442 -0.151326 0)
(0.139438 -0.137406 0)
(0.0308626 -0.217631 0)
(0.0527243 -0.213145 0)
(0.0736799 -0.206314 0)
(0.0933961 -0.197357 0)
(0.111631 -0.186507 0)
(0.128132 -0.174082 0)
(0.142785 -0.160346 0)
(0.155535 -0.145558 0)
(0.0368257 -0.223975 0)
(0.0586017 -0.219287 0)
(0.0798134 -0.212487 0)
(0.100256 -0.20364 0)
(0.119734 -0.192833 0)
(0.138058 -0.180168 0)
(0.155053 -0.165769 0)
(0.170555 -0.149773 0)
)
;

boundaryField
{
    walls
    {
        type            cellMotion;
        value           uniform (0 0 0);
    }
    cylinder
    {
        type            cellMotion;
        value           nonuniform List<vector> 
16
(
(0.184414 -0.132334 0)
(0.196497 -0.113621 0)
(0.206687 -0.0938141 0)
(0.214887 -0.0731035 0)
(0.221018 -0.0516888 0)
(0.22502 -0.0297764 0)
(0.226855 -0.00757716 0)
(0.226506 0.014695 0)
(0.0368257 -0.223975 0)
(0.0586017 -0.219287 0)
(0.0798134 -0.212487 0)
(0.100256 -0.20364 0)
(0.119734 -0.192833 0)
(0.138058 -0.180168 0)
(0.155053 -0.165769 0)
(0.170555 -0.149773 0)
)
;
    }
    outlet
    {
        type            cellMotion;
        value           nonuniform List<vector> 0();
    }
    inlet
    {
        type            cellMotion;
        value           uniform (0 0 0);
    }
    frontAndBack
    {
        type            empty;
    }
    procBoundary0to1
    {
        type            processor;
        value           nonuniform List<vector> 
16
(
(0.0103038 0.000237898 0)
(0.0304199 0.000860497 0)
(0.0494054 0.00160879 0)
(0.0673977 0.00247597 0)
(0.0845086 0.00347677 0)
(0.10085 0.00463249 0)
(0.116458 0.00596963 0)
(0.13145 0.00752387 0)
(0.145806 0.00933709 0)
(0.159628 0.0114898 0)
(0.172811 0.0140276 0)
(0.185425 0.0171003 0)
(0.197248 0.0207875 0)
(0.208159 0.0253036 0)
(0.217584 0.030822 0)
(0.223975 0.0368257 0)
)
;
    }
    procBoundary0to2
    {
        type            processor;
        value           nonuniform List<vector> 
16
(
(-0.0013259 -0.00997299 0)
(-0.00356004 -0.0297407 0)
(-0.00533154 -0.0485292 0)
(-0.00670314 -0.0665132 0)
(-0.00770831 -0.0836639 0)
(-0.00836208 -0.100123 0)
(-0.00867276 -0.115909 0)
(-0.0086158 -0.131126 0)
(-0.00816216 -0.145737 0)
(-0.00725007 -0.159802 0)
(-0.00581002 -0.173312 0)
(-0.00372814 -0.186222 0)
(-0.000800577 -0.19845 0)
(0.00316385 -0.209748 0)
(0.00841195 -0.219649 0)
(0.014695 -0.226506 0)
)
;
    }
}


// ************************************************************************* //
