/*--------------------------------*- C++ -*----------------------------------*\
| =========                 |                                                 |
| \\      /  F ield         | OpenFOAM: The Open Source CFD Toolbox           |
|  \\    /   O peration     | Version:  2412                                  |
|   \\  /    A nd           | Website:  www.openfoam.com                      |
|    \\/     M anipulation  |                                                 |
\*---------------------------------------------------------------------------*/
FoamFile
{
    version     2.0;
    format      ascii;
    arch        "LSB;label=32;scalar=64";
    class       surfaceScalarField;
    location    "0.3";
    object      meshPhi;
}
// * * * * * * * * * * * * * * * * * * * * * * * * * * * * * * * * * * * * * //

dimensions      [0 3 -1 0 0 0 0];

internalField   nonuniform List<scalar> 
480
(
0.0024986
-0.00718219
-0.0025461
0.00272207
-0.00797388
0.00300336
-0.00904966
0.0033084
-0.00996028
0.00348647
-0.0102333
0.00360679
-0.00946379
0.00370891
-0.00747546
-0.00434221
0.00789542
-0.0144024
-0.00792665
0.00858135
-0.0160382
0.009392
-0.0178983
0.0101601
-0.0191677
0.0106087
-0.0192079
0.0108689
-0.0174651
0.0110715
-0.0136098
-0.00788281
0.0140218
-0.021433
-0.0139242
0.0152812
-0.0238608
0.0164164
-0.0262417
0.0173607
-0.027326
0.0178943
-0.026757
0.01813
-0.0239466
0.0183502
-0.0185001
-0.0107913
0.0208673
-0.0280973
-0.0205976
0.0226502
-0.0310425
0.023908
-0.0335668
0.0247915
-0.0342504
0.0252248
-0.0329003
0.0253238
-0.0290294
0.0255128
-0.0222453
-0.0130381
0.0284113
-0.0342077
-0.0280765
0.0305292
-0.0373078
0.0317497
-0.0397249
0.0323857
-0.0398196
0.0325438
-0.0376258
0.0323856
-0.0327642
0.0324307
-0.0249175
-0.0147018
0.0365492
-0.0392954
-0.0363247
0.0387678
-0.0422741
0.0398124
-0.0443167
0.0400663
-0.0438632
0.039803
-0.0409496
0.0392732
-0.0352837
0.039005
-0.0266677
-0.0157924
0.0450931
-0.042981
-0.0451948
0.0472352
-0.0455923
0.0479892
-0.0472519
0.0477552
-0.0462922
0.0469646
-0.0428095
0.0459805
-0.0365914
0.0453313
-0.0275484
-0.0163976
0.0541802
-0.0454412
-0.0548651
0.0559661
-0.0473812
0.0562164
-0.0483865
0.0553854
-0.0470004
0.0539863
-0.0432062
0.0524943
-0.0367412
0.0515025
-0.0276046
-0.0165233
0.064087
-0.0465499
-0.0655806
0.0650119
-0.0475476
0.0644913
-0.0477389
0.0629126
-0.0459864
0.0608277
-0.0420719
0.05879
-0.0356355
0.0574479
-0.0266958
-0.0160218
0.0746513
-0.0458564
-0.0771282
0.074302
-0.0459209
0.0727503
-0.045234
0.0703047
-0.0431533
0.0674748
-0.0393177
0.0648907
-0.0332027
0.0631817
-0.0248501
-0.0149774
0.0854309
-0.0433291
-0.0890711
0.0835867
-0.0424709
0.0808618
-0.0409655
0.0774938
-0.0386147
0.0739355
-0.0349812
0.0708167
-0.0294812
0.068723
-0.0220794
-0.0133711
0.096091
-0.0386141
-0.101034
0.0926859
-0.0371558
0.0887133
-0.0350691
0.084398
-0.0325471
0.0801564
-0.0292093
0.0765273
-0.0245217
0.0740727
-0.0184003
-0.0112082
0.106451
-0.0317178
-0.112808
0.10142
-0.029998
0.096148
-0.0276451
0.0908766
-0.0251519
0.0859755
-0.0222279
0.0818953
-0.0184844
0.0791317
-0.0138137
-0.00834776
0.116412
-0.0224657
-0.12433
0.109651
-0.0209419
0.102966
-0.0187801
0.0967027
-0.0166045
0.0911565
-0.014251
0.0867327
-0.011525
0.0837739
-0.00834037
-0.00466983
0.125722
-0.0107581
-0.135244
0.116955
-0.00974045
0.108753
-0.0083841
0.101477
-0.00702179
0.0953486
-0.00560549
0.090693
-0.00410101
0.0876809
-0.00248795
-0.000712065
0.12894
-0.140328
0.118433
0.109135
0.101272
0.0950318
0.0905763
0.0879886
0.00408355
-0.000999479
0.00425296
0.00216842
0.00453947
0.00555194
0.00469011
0.00836386
0.00443807
0.00969963
0.0038587
0.00942833
0.00304485
0.00795929
0.00625967
0.0120977
-0.00173615
0.0125815
0.0038812
0.0133328
0.00978927
0.0137031
0.0146958
0.0130439
0.0171746
0.0114808
0.0169756
0.00923001
0.0146711
0.0119312
0.0197469
-0.00228924
0.0204919
0.00514573
0.0215403
0.0128266
0.0220412
0.019218
0.0211629
0.0226644
0.0189659
0.022808
0.015678
0.0202302
0.017016
0.0270004
-0.00269874
0.0279386
0.00603223
0.0291516
0.0148762
0.0297388
0.0222251
0.0288165
0.0264171
0.0263338
0.0270506
0.0224673
0.0246694
0.021509
0.0338893
-0.00297616
0.0349641
0.00659483
0.0362772
0.0161224
0.0369504
0.0240414
0.0361409
0.028818
0.0336953
0.0300546
0.0297047
0.0282137
0.0255003
0.0404354
-0.00306892
0.0416107
0.00689695
0.0429991
0.0166651
0.0437999
0.0248171
0.0432591
0.0300239
0.0411308
0.0318951
0.0374035
0.0307971
0.0287836
0.0466785
-0.00302215
0.0479246
0.00697575
0.0493888
0.0166439
0.0503892
0.0247941
0.0502804
0.0303215
0.0486788
0.0328207
0.0455501
0.0325712
0.0313666
0.0526706
-0.00286801
0.053967
0.00684974
0.0555409
0.0161392
0.0568664
0.0241026
0.0573126
0.0298263
0.0564434
0.0329011
0.0543107
0.0335705
0.0333098
0.0584511
-0.0025773
0.0597916
0.00658206
0.061563
0.0152831
0.0632951
0.0228856
0.0643668
0.0286579
0.0644949
0.0322174
0.0637353
0.0337236
0.0344145
0.0640418
-0.00213223
0.0654819
0.00620318
0.0675068
0.0140811
0.0696407
0.0211339
0.0714668
0.0267882
0.0728104
0.0306498
0.0736608
0.0327903
0.0342585
0.0694808
-0.00155807
0.0710405
0.00573185
0.0732725
0.012583
0.0758714
0.0189134
0.078592
0.0242316
0.0812997
0.0281053
0.0839339
0.0305219
0.0324034
0.0747298
-0.000790329
0.0763904
0.00528296
0.0788719
0.0109766
0.0820314
0.0163441
0.085757
0.0210088
0.0899688
0.0244651
0.0943812
0.0268026
0.0288832
0.0796829
7.59026e-05
0.0815224
0.00474767
0.0843575
0.00917131
0.088166
0.0134563
0.0930107
0.0171414
0.0987152
0.0198691
0.104792
0.0218896
0.0238962
0.0841838
0.000863803
0.0863145
0.00411777
0.0897029
0.00719632
0.0943636
0.010149
0.100335
0.0126568
0.107379
0.0146016
0.115065
0.0161988
0.0178225
0.087892
0.00160888
0.0904468
0.00326906
0.0946046
0.0048303
0.100269
0.00628696
0.107345
0.00758652
0.115621
0.00868537
0.124807
0.00967333
0.0106751
0.0888257
0.0920159
0.0969248
0.10338
0.111185
0.120095
0.129844
)
;

boundaryField
{
    walls
    {
        type            calculated;
        value           uniform 0;
    }
    cylinder
    {
        type            calculated;
        value           nonuniform List<scalar> 
16
(
2.33085e-11
-4.60437e-11
-2.9734e-11
4.10452e-11
-1.45759e-11
8.01165e-12
2.41502e-11
-1.96695e-11
1.96678e-11
-2.41519e-11
-8.01355e-12
1.45739e-11
-4.10463e-11
2.97338e-11
4.60446e-11
-2.33103e-11
)
;
    }
    outlet
    {
        type            calculated;
        value           nonuniform List<scalar> 0();
    }
    inlet
    {
        type            calculated;
        value           uniform 0;
    }
    frontAndBack
    {
        type            empty;
    }
    procBoundary0to1
    {
        type            processor;
        value           nonuniform List<scalar> 
16
(
0.00414781
0.0121309
0.019616
0.0267186
0.0334571
0.0397881
0.0458118
0.0516568
0.057297
0.0627406
0.0679952
0.0730824
0.0779115
0.0824624
0.086467
0.0873346
)
;
    }
    procBoundary0to2
    {
        type            processor;
        value           nonuniform List<scalar> 
16
(
-0.00394221
-0.0117211
-0.0192165
-0.0263897
-0.0332133
-0.0396488
-0.0458232
-0.0518681
-0.0577468
-0.0634198
-0.0688941
-0.0741349
-0.0790374
-0.08345
-0.0870284
-0.0874784
)
;
    }
}


// ************************************************************************* //
