/*--------------------------------*- C++ -*----------------------------------*\
| =========                 |                                                 |
| \\      /  F ield         | OpenFOAM: The Open Source CFD Toolbox           |
|  \\    /   O peration     | Version:  2412                                  |
|   \\  /    A nd           | Website:  www.openfoam.com                      |
|    \\/     M anipulation  |                                                 |
\*---------------------------------------------------------------------------*/
FoamFile
{
    version     2.0;
    format      ascii;
    arch        "LSB;label=32;scalar=64";
    class       pointVectorField;
    location    "0.3";
    object      pointDisplacement;
}
// * * * * * * * * * * * * * * * * * * * * * * * * * * * * * * * * * * * * * //

dimensions      [0 1 0 0 0 0 0];

internalField   nonuniform List<vector> 
578
(
(0 0 0)
(0 0 0)
(0 0 0)
(0 0 0)
(0 0 0)
(0 0 0)
(0 0 0)
(0 0 0)
(0 0 0)
(0.00351049 -0.00392518 0)
(0.00474609 -0.00506842 0)
(0.00713017 -0.00684063 0)
(0.00961189 -0.00790009 0)
(0.0122072 -0.00818244 0)
(0.0147995 -0.00760053 0)
(0.0171746 -0.00612726 0)
(0.0190248 -0.00383616 0)
(0.0200826 -0.000978141 0)
(0.00873477 -0.00973265 0)
(0.0110969 -0.011592 0)
(0.0156301 -0.014525 0)
(0.0203528 -0.0161004 0)
(0.0252325 -0.0162091 0)
(0.0300341 -0.0147277 0)
(0.0343487 -0.0116419 0)
(0.0376401 -0.00712632 0)
(0.0394494 -0.00165736 0)
(0.0154113 -0.0170994 0)
(0.0188265 -0.0192712 0)
(0.0252535 -0.0227816 0)
(0.0319235 -0.0243653 0)
(0.0387459 -0.0239068 0)
(0.04536 -0.0212798 0)
(0.051196 -0.0165087 0)
(0.0555631 -0.00988062 0)
(0.0578578 -0.00205831 0)
(0.0233895 -0.0258071 0)
(0.0278108 -0.0279199 0)
(0.0358706 -0.0314585 0)
(0.0442129 -0.0326081 0)
(0.0526502 -0.0312521 0)
(0.0607115 -0.0272844 0)
(0.0677023 -0.0207876 0)
(0.0728233 -0.0121543 0)
(0.0753957 -0.00219976 0)
(0.0325257 -0.0356355 0)
(0.0379126 -0.0373371 0)
(0.0473699 -0.0404177 0)
(0.0571097 -0.0407434 0)
(0.066854 -0.0382115 0)
(0.076027 -0.0327524 0)
(0.0838486 -0.0245115 0)
(0.0894583 -0.0139806 0)
(0.0921504 -0.00208724 0)
(0.0426833 -0.0463474 0)
(0.0490097 -0.0473309 0)
(0.0596368 -0.0495175 0)
(0.0705267 -0.0486876 0)
(0.081289 -0.0447542 0)
(0.0912714 -0.0376888 0)
(0.0996406 -0.0277061 0)
(0.105511 -0.0153797 0)
(0.108192 -0.00171294 0)
(0.0537475 -0.0577175 0)
(0.0609864 -0.0576983 0)
(0.07259 -0.0586252 0)
(0.0843844 -0.0563557 0)
(0.0958951 -0.0508321 0)
(0.106409 -0.0420766 0)
(0.115073 -0.0303681 0)
(0.121027 -0.016348 0)
(0.123596 -0.0010584 0)
(0.0656475 -0.0695408 0)
(0.0737806 -0.0682736 0)
(0.0861606 -0.0676058 0)
(0.0986326 -0.0636508 0)
(0.110636 -0.0563875 0)
(0.121426 -0.0458841 0)
(0.130159 -0.0324798 0)
(0.136025 -0.0168637 0)
(0.138395 -8.97662e-05 0)
(0.0783333 -0.0816205 0)
(0.0873346 -0.0788737 0)
(0.100311 -0.0763136 0)
(0.113229 -0.0704623 0)
(0.125477 -0.0613336 0)
(0.136301 -0.0490488 0)
(0.144897 -0.0339913 0)
(0.150526 -0.0168803 0)
(0.152621 0.00124612 0)
(0.0917709 -0.093714 0)
(0.10161 -0.0892812 0)
(0.114998 -0.0845688 0)
(0.128146 -0.0766347 0)
(0.140402 -0.065547 0)
(0.151035 -0.0514695 0)
(0.159308 -0.0348217 0)
(0.164548 -0.0163309 0)
(0.166281 0.00301351 0)
(0.105949 -0.105563 0)
(0.116585 -0.0992364 0)
(0.130222 -0.092142 0)
(0.143377 -0.0819714 0)
(0.155396 -0.0688507 0)
(0.165607 -0.0529958 0)
(0.173349 -0.0348502 0)
(0.178054 -0.0151139 0)
(0.179356 0.00530878 0)
(0.120894 -0.116801 0)
(0.132284 -0.108372 0)
(0.145974 -0.0986947 0)
(0.158887 -0.0861681 0)
(0.170403 -0.0709798 0)
(0.179934 -0.0534035 0)
(0.186936 -0.0338883 0)
(0.190968 -0.013066 0)
(0.19177 0.00826092 0)
(0.136646 -0.126924 0)
(0.148697 -0.116127 0)
(0.162197 -0.103684 0)
(0.174565 -0.0887344 0)
(0.185267 -0.0715223 0)
(0.193847 -0.0523582 0)
(0.199899 -0.0316543 0)
(0.203124 -0.00996115 0)
(0.203355 0.0120517 0)
(0.153132 -0.135107 0)
(0.165719 -0.121631 0)
(0.178674 -0.106308 0)
(0.190097 -0.0889809 0)
(0.199634 -0.0699206 0)
(0.206979 -0.0494127 0)
(0.211883 -0.027804 0)
(0.21417 -0.00553315 0)
(0.213759 0.0168888 0)
(0.16952 -0.139821 0)
(0.182422 -0.123324 0)
(0.194273 -0.105302 0)
(0.20429 -0.0859322 0)
(0.212299 -0.0654406 0)
(0.218159 -0.0440582 0)
(0.221756 -0.0220459 0)
(0.22302 0.000308534 0)
(0.221922 0.0226804 0)
(0.177912 -0.141394 0)
(0.190915 -0.123275 0)
(0.202079 -0.103968 0)
(0.211296 -0.0836602 0)
(0.218479 -0.0625468 0)
(0.223557 -0.0408309 0)
(0.226483 -0.0187218 0)
(0.227228 0.00356752 0)
(0.225784 0.0258225 0)
(0 0 0)
(0 0 0)
(0 0 0)
(0 0 0)
(0 0 0)
(0 0 0)
(0 0 0)
(0 0 0)
(0 0 0)
(0.00351049 -0.00392518 0)
(0.00474609 -0.00506842 0)
(0.00713017 -0.00684063 0)
(0.00961189 -0.00790009 0)
(0.0122072 -0.00818244 0)
(0.0147995 -0.00760053 0)
(0.0171746 -0.00612726 0)
(0.0190248 -0.00383616 0)
(0.0200826 -0.000978141 0)
(0.00873477 -0.00973265 0)
(0.0110969 -0.011592 0)
(0.0156301 -0.014525 0)
(0.0203528 -0.0161004 0)
(0.0252325 -0.0162091 0)
(0.0300341 -0.0147277 0)
(0.0343487 -0.0116419 0)
(0.0376401 -0.00712632 0)
(0.0394494 -0.00165736 0)
(0.0154113 -0.0170994 0)
(0.0188265 -0.0192712 0)
(0.0252535 -0.0227816 0)
(0.0319235 -0.0243653 0)
(0.0387459 -0.0239068 0)
(0.04536 -0.0212798 0)
(0.051196 -0.0165087 0)
(0.0555631 -0.00988062 0)
(0.0578578 -0.00205831 0)
(0.0233895 -0.0258071 0)
(0.0278108 -0.0279199 0)
(0.0358706 -0.0314585 0)
(0.0442129 -0.0326081 0)
(0.0526502 -0.0312521 0)
(0.0607115 -0.0272844 0)
(0.0677023 -0.0207876 0)
(0.0728233 -0.0121543 0)
(0.0753957 -0.00219976 0)
(0.0325257 -0.0356355 0)
(0.0379126 -0.0373371 0)
(0.0473699 -0.0404177 0)
(0.0571097 -0.0407434 0)
(0.066854 -0.0382115 0)
(0.076027 -0.0327524 0)
(0.0838486 -0.0245115 0)
(0.0894583 -0.0139806 0)
(0.0921504 -0.00208724 0)
(0.0426833 -0.0463474 0)
(0.0490097 -0.0473309 0)
(0.0596368 -0.0495175 0)
(0.0705267 -0.0486876 0)
(0.081289 -0.0447542 0)
(0.0912714 -0.0376888 0)
(0.0996406 -0.0277061 0)
(0.105511 -0.0153797 0)
(0.108192 -0.00171294 0)
(0.0537475 -0.0577175 0)
(0.0609864 -0.0576983 0)
(0.07259 -0.0586252 0)
(0.0843844 -0.0563557 0)
(0.0958951 -0.0508321 0)
(0.106409 -0.0420766 0)
(0.115073 -0.0303681 0)
(0.121027 -0.016348 0)
(0.123596 -0.0010584 0)
(0.0656475 -0.0695408 0)
(0.0737806 -0.0682736 0)
(0.0861606 -0.0676058 0)
(0.0986326 -0.0636508 0)
(0.110636 -0.0563875 0)
(0.121426 -0.0458841 0)
(0.130159 -0.0324798 0)
(0.136025 -0.0168637 0)
(0.138395 -8.97662e-05 0)
(0.0783333 -0.0816205 0)
(0.0873346 -0.0788737 0)
(0.100311 -0.0763136 0)
(0.113229 -0.0704623 0)
(0.125477 -0.0613336 0)
(0.136301 -0.0490488 0)
(0.144897 -0.0339913 0)
(0.150526 -0.0168803 0)
(0.152621 0.00124612 0)
(0.0917709 -0.093714 0)
(0.10161 -0.0892812 0)
(0.114998 -0.0845688 0)
(0.128146 -0.0766347 0)
(0.140402 -0.065547 0)
(0.151035 -0.0514695 0)
(0.159308 -0.0348217 0)
(0.164548 -0.0163309 0)
(0.166281 0.00301351 0)
(0.105949 -0.105563 0)
(0.116585 -0.0992364 0)
(0.130222 -0.092142 0)
(0.143377 -0.0819714 0)
(0.155396 -0.0688507 0)
(0.165607 -0.0529958 0)
(0.173349 -0.0348502 0)
(0.178054 -0.0151139 0)
(0.179356 0.00530878 0)
(0.120894 -0.116801 0)
(0.132284 -0.108372 0)
(0.145974 -0.0986947 0)
(0.158887 -0.0861681 0)
(0.170403 -0.0709798 0)
(0.179934 -0.0534035 0)
(0.186936 -0.0338883 0)
(0.190968 -0.013066 0)
(0.19177 0.00826092 0)
(0.136646 -0.126924 0)
(0.148697 -0.116127 0)
(0.162197 -0.103684 0)
(0.174565 -0.0887344 0)
(0.185267 -0.0715223 0)
(0.193847 -0.0523582 0)
(0.199899 -0.0316543 0)
(0.203124 -0.00996115 0)
(0.203355 0.0120517 0)
(0.153132 -0.135107 0)
(0.165719 -0.121631 0)
(0.178674 -0.106308 0)
(0.190097 -0.0889809 0)
(0.199634 -0.0699206 0)
(0.206979 -0.0494127 0)
(0.211883 -0.027804 0)
(0.21417 -0.00553315 0)
(0.213759 0.0168888 0)
(0.16952 -0.139821 0)
(0.182422 -0.123324 0)
(0.194273 -0.105302 0)
(0.20429 -0.0859322 0)
(0.212299 -0.0654406 0)
(0.218159 -0.0440582 0)
(0.221756 -0.0220459 0)
(0.22302 0.000308534 0)
(0.221922 0.0226804 0)
(0.177912 -0.141394 0)
(0.190915 -0.123275 0)
(0.202079 -0.103968 0)
(0.211296 -0.0836602 0)
(0.218479 -0.0625468 0)
(0.223557 -0.0408309 0)
(0.226483 -0.0187218 0)
(0.227228 0.00356752 0)
(0.225784 0.0258225 0)
(0 0 0)
(0 0 0)
(0 0 0)
(0 0 0)
(0 0 0)
(0 0 0)
(0 0 0)
(0 0 0)
(-0.000970893 -0.0201228 0)
(0.0019472 -0.0200364 0)
(0.00455896 -0.0188727 0)
(0.00647964 -0.0168407 0)
(0.00745162 -0.014226 0)
(0.00740468 -0.011321 0)
(0.00642506 -0.00836528 0)
(0.00466213 -0.00545384 0)
(-0.00164166 -0.0395541 0)
(0.0038839 -0.0393417 0)
(0.00884783 -0.0372247 0)
(0.0125946 -0.0335479 0)
(0.0146778 -0.0287991 0)
(0.0149536 -0.0234881 0)
(0.0135299 -0.0180295 0)
(0.0106219 -0.0126113 0)
(-0.00202989 -0.0580183 0)
(0.00580337 -0.0576419 0)
(0.0128671 -0.0547511 0)
(0.0183264 -0.0497819 0)
(0.0216088 -0.0433594 0)
(0.0225032 -0.0361359 0)
(0.0211034 -0.0286512 0)
(0.0176392 -0.0211748 0)
(-0.00215826 -0.0756083 0)
(0.00773775 -0.0750469 0)
(0.0166966 -0.0715303 0)
(0.0237739 -0.0655571 0)
(0.0283177 -0.0578417 0)
(0.030064 -0.049132 0)
(0.0290772 -0.0400505 0)
(0.0255779 -0.0309351 0)
(-0.0020318 -0.0923956 0)
(0.00972332 -0.091637 0)
(0.0204098 -0.087619 0)
(0.0290273 -0.0808865 0)
(0.034879 -0.0722023 0)
(0.0376625 -0.0623688 0)
(0.0374105 -0.052066 0)
(0.0343247 -0.0416857 0)
(-0.00164412 -0.108463 0)
(0.0118005 -0.107496 0)
(0.0240755 -0.10308 0)
(0.034167 -0.095783 0)
(0.0413608 -0.0863926 0)
(0.0453296 -0.0757404 0)
(0.0460756 -0.0645366 0)
(0.0437845 -0.0532153 0)
(-0.000976744 -0.123874 0)
(0.0140115 -0.122681 0)
(0.0277592 -0.117949 0)
(0.0392697 -0.110252 0)
(0.0478326 -0.100377 0)
(0.0531066 -0.0891576 0)
(0.0550658 -0.0773169 0)
(0.0538882 -0.0653254 0)
(4.05567e-06 -0.138673 0)
(0.0164077 -0.137247 0)
(0.0315272 -0.132268 0)
(0.0444086 -0.1243 0)
(0.054362 -0.114115 0)
(0.0610378 -0.102529 0)
(0.0643926 -0.0902709 0)
(0.0645994 -0.0778341 0)
(0.00134697 -0.15288 0)
(0.0190449 -0.151216 0)
(0.0354461 -0.146044 0)
(0.0496566 -0.137916 0)
(0.0610166 -0.127563 0)
(0.0691803 -0.115776 0)
(0.0740893 -0.103276 0)
(0.075903 -0.0905617 0)
(0.00312007 -0.166514 0)
(0.0219963 -0.164601 0)
(0.0395915 -0.159285 0)
(0.055086 -0.151078 0)
(0.067866 -0.14067 0)
(0.0775954 -0.128814 0)
(0.0841934 -0.116198 0)
(0.0878029 -0.103313 0)
(0.00541388 -0.179553 0)
(0.0253475 -0.177379 0)
(0.0440401 -0.171946 0)
(0.0607699 -0.163735 0)
(0.0749807 -0.15337 0)
(0.0863431 -0.141534 0)
(0.0947516 -0.128877 0)
(0.100318 -0.115872 0)
(0.00836308 -0.191923 0)
(0.0292026 -0.189468 0)
(0.0488897 -0.183958 0)
(0.0667953 -0.175805 0)
(0.0824287 -0.165546 0)
(0.0954786 -0.153782 0)
(0.105806 -0.141099 0)
(0.113482 -0.127939 0)
(0.0121514 -0.20347 0)
(0.0337087 -0.200725 0)
(0.0542424 -0.19516 0)
(0.0732344 -0.187103 0)
(0.0902631 -0.176985 0)
(0.105037 -0.165293 0)
(0.117391 -0.152525 0)
(0.127337 -0.139093 0)
(0.0169622 -0.213828 0)
(0.0389712 -0.210756 0)
(0.0601304 -0.205131 0)
(0.0800514 -0.197184 0)
(0.0983953 -0.187212 0)
(0.114901 -0.175563 0)
(0.129387 -0.162606 0)
(0.141796 -0.148672 0)
(0.0227063 -0.221943 0)
(0.0447578 -0.218512 0)
(0.0662061 -0.212811 0)
(0.0867854 -0.204953 0)
(0.106251 -0.19509 0)
(0.124385 -0.183405 0)
(0.141002 -0.1701 0)
(0.155977 -0.155373 0)
(0.0258225 -0.225784 0)
(0.0478289 -0.222165 0)
(0.0693746 -0.216408 0)
(0.0902522 -0.208566 0)
(0.110261 -0.198715 0)
(0.129207 -0.186951 0)
(0.146909 -0.173386 0)
(0.163197 -0.158152 0)
(0 0 0)
(0 0 0)
(0 0 0)
(0 0 0)
(0 0 0)
(0 0 0)
(0 0 0)
(0 0 0)
(-0.000970893 -0.0201228 0)
(0.0019472 -0.0200364 0)
(0.00455896 -0.0188727 0)
(0.00647964 -0.0168407 0)
(0.00745162 -0.014226 0)
(0.00740468 -0.011321 0)
(0.00642506 -0.00836528 0)
(0.00466213 -0.00545384 0)
(-0.00164166 -0.0395541 0)
(0.0038839 -0.0393417 0)
(0.00884783 -0.0372247 0)
(0.0125946 -0.0335479 0)
(0.0146778 -0.0287991 0)
(0.0149536 -0.0234881 0)
(0.0135299 -0.0180295 0)
(0.0106219 -0.0126113 0)
(-0.00202989 -0.0580183 0)
(0.00580337 -0.0576419 0)
(0.0128671 -0.0547511 0)
(0.0183264 -0.0497819 0)
(0.0216088 -0.0433594 0)
(0.0225032 -0.0361359 0)
(0.0211034 -0.0286512 0)
(0.0176392 -0.0211748 0)
(-0.00215826 -0.0756083 0)
(0.00773775 -0.0750469 0)
(0.0166966 -0.0715303 0)
(0.0237739 -0.0655571 0)
(0.0283177 -0.0578417 0)
(0.030064 -0.049132 0)
(0.0290772 -0.0400505 0)
(0.0255779 -0.0309351 0)
(-0.0020318 -0.0923956 0)
(0.00972332 -0.091637 0)
(0.0204098 -0.087619 0)
(0.0290273 -0.0808865 0)
(0.034879 -0.0722023 0)
(0.0376625 -0.0623688 0)
(0.0374105 -0.052066 0)
(0.0343247 -0.0416857 0)
(-0.00164412 -0.108463 0)
(0.0118005 -0.107496 0)
(0.0240755 -0.10308 0)
(0.034167 -0.095783 0)
(0.0413608 -0.0863926 0)
(0.0453296 -0.0757404 0)
(0.0460756 -0.0645366 0)
(0.0437845 -0.0532153 0)
(-0.000976744 -0.123874 0)
(0.0140115 -0.122681 0)
(0.0277592 -0.117949 0)
(0.0392697 -0.110252 0)
(0.0478326 -0.100377 0)
(0.0531066 -0.0891576 0)
(0.0550658 -0.0773169 0)
(0.0538882 -0.0653254 0)
(4.05567e-06 -0.138673 0)
(0.0164077 -0.137247 0)
(0.0315272 -0.132268 0)
(0.0444086 -0.1243 0)
(0.054362 -0.114115 0)
(0.0610378 -0.102529 0)
(0.0643926 -0.0902709 0)
(0.0645994 -0.0778341 0)
(0.00134697 -0.15288 0)
(0.0190449 -0.151216 0)
(0.0354461 -0.146044 0)
(0.0496566 -0.137916 0)
(0.0610166 -0.127563 0)
(0.0691803 -0.115776 0)
(0.0740893 -0.103276 0)
(0.075903 -0.0905617 0)
(0.00312007 -0.166514 0)
(0.0219963 -0.164601 0)
(0.0395915 -0.159285 0)
(0.055086 -0.151078 0)
(0.067866 -0.14067 0)
(0.0775954 -0.128814 0)
(0.0841934 -0.116198 0)
(0.0878029 -0.103313 0)
(0.00541388 -0.179553 0)
(0.0253475 -0.177379 0)
(0.0440401 -0.171946 0)
(0.0607699 -0.163735 0)
(0.0749807 -0.15337 0)
(0.0863431 -0.141534 0)
(0.0947516 -0.128877 0)
(0.100318 -0.115872 0)
(0.00836308 -0.191923 0)
(0.0292026 -0.189468 0)
(0.0488897 -0.183958 0)
(0.0667953 -0.175805 0)
(0.0824287 -0.165546 0)
(0.0954786 -0.153782 0)
(0.105806 -0.141099 0)
(0.113482 -0.127939 0)
(0.0121514 -0.20347 0)
(0.0337087 -0.200725 0)
(0.0542424 -0.19516 0)
(0.0732344 -0.187103 0)
(0.0902631 -0.176985 0)
(0.105037 -0.165293 0)
(0.117391 -0.152525 0)
(0.127337 -0.139093 0)
(0.0169622 -0.213828 0)
(0.0389712 -0.210756 0)
(0.0601304 -0.205131 0)
(0.0800514 -0.197184 0)
(0.0983953 -0.187212 0)
(0.114901 -0.175563 0)
(0.129387 -0.162606 0)
(0.141796 -0.148672 0)
(0.0227063 -0.221943 0)
(0.0447578 -0.218512 0)
(0.0662061 -0.212811 0)
(0.0867854 -0.204953 0)
(0.106251 -0.19509 0)
(0.124385 -0.183405 0)
(0.141002 -0.1701 0)
(0.155977 -0.155373 0)
(0.0258225 -0.225784 0)
(0.0478289 -0.222165 0)
(0.0693746 -0.216408 0)
(0.0902522 -0.208566 0)
(0.110261 -0.198715 0)
(0.129207 -0.186951 0)
(0.146909 -0.173386 0)
(0.163197 -0.158152 0)
)
;

boundaryField
{
    walls
    {
        type            fixedValue;
        value           uniform (0 0 0);
    }
    cylinder
    {
        type            solidBodyMotionDisplacement;
        value           nonuniform List<vector> 
34
(
(0.177912 -0.141394 0)
(0.177912 -0.141394 0)
(0.190915 -0.123275 0)
(0.190915 -0.123275 0)
(0.202079 -0.103968 0)
(0.202079 -0.103968 0)
(0.211296 -0.0836602 0)
(0.211296 -0.0836602 0)
(0.218479 -0.0625468 0)
(0.218479 -0.0625468 0)
(0.223557 -0.0408309 0)
(0.223557 -0.0408309 0)
(0.226483 -0.0187218 0)
(0.226483 -0.0187218 0)
(0.227228 0.00356752 0)
(0.227228 0.00356752 0)
(0.225784 0.0258225 0)
(0.225784 0.0258225 0)
(0.0258225 -0.225784 0)
(0.0258225 -0.225784 0)
(0.0478289 -0.222165 0)
(0.0478289 -0.222165 0)
(0.0693746 -0.216408 0)
(0.0693746 -0.216408 0)
(0.0902522 -0.208566 0)
(0.0902522 -0.208566 0)
(0.110261 -0.198715 0)
(0.110261 -0.198715 0)
(0.129207 -0.186951 0)
(0.129207 -0.186951 0)
(0.146909 -0.173386 0)
(0.146909 -0.173386 0)
(0.163197 -0.158152 0)
(0.163197 -0.158152 0)
)
;
        solidBodyMotionFunction oscillatingRotatingMotion;
        oscillatingRotatingMotionCoeffs
        {
            origin          ( 0 0 0 );
            axis            ( 0 0 1 );
            omega           1.5;
            amplitude       ( 0 0 30 );
        }
    }
    outlet
    {
        type            fixedValue;
        value           nonuniform List<vector> 0();
    }
    inlet
    {
        type            fixedValue;
        value           uniform (0 0 0);
    }
    frontAndBack
    {
        type            empty;
    }
    procBoundary0to1
    {
        type            processor;
    }
    procBoundary0to2
    {
        type            processor;
    }
}


// ************************************************************************* //
