/*--------------------------------*- C++ -*----------------------------------*\
| =========                 |                                                 |
| \\      /  F ield         | OpenFOAM: The Open Source CFD Toolbox           |
|  \\    /   O peration     | Version:  2412                                  |
|   \\  /    A nd           | Website:  www.openfoam.com                      |
|    \\/     M anipulation  |                                                 |
\*---------------------------------------------------------------------------*/
FoamFile
{
    version     2.0;
    format      ascii;
    arch        "LSB;label=32;scalar=64";
    class       volVectorField;
    location    "1148.5";
    object      U;
}
// * * * * * * * * * * * * * * * * * * * * * * * * * * * * * * * * * * * * * //

dimensions      [0 1 -1 0 0 0 0];

internalField   nonuniform List<vector> 
808
(
(0.7562468177270248 -0.01749869940761745 0)
(1.031327628141104 -0.01256828909794344 0)
(1.114667445426615 -0.004208380913833736 -1.798635990506855e-20)
(1.085118633452993 0.01260830741973567 0)
(1.364571280647316 0.01654499462451199 -3.919500195194041e-19)
(1.038683031067856 -0.009316884021661248 -7.157849184226336e-20)
(1.013506379960931 -0.02080671066441678 -2.323454453361219e-20)
(1.078675414688737 -0.005198928086369951 8.975483244723512e-21)
(1.25428187006868 -0.01888280174624487 6.3766623369054e-20)
(1.08450204581596 0.01033326482264845 0)
(1.013476428987094 -0.008527329258683495 0)
(1.306333170835014 -0.05189818007579271 -3.57015831068348e-19)
(1.085955859675422 -0.001763221534743234 2.032686238140743e-20)
(0.6750878514532577 0.006406419423914625 0)
(1.28526087802355 -0.1141605103474882 0)
(1.081416579768478 0.0001060953704863958 -3.815729926699699e-20)
(1.232228005940096 -0.1457451193426356 -9.863857034477168e-20)
(1.073970854042155 6.736345744747343e-05 3.164273874233265e-20)
(0.993121733950377 0.005132786875316255 0)
(1.026347844420569 0.009363715756371453 0)
(1.038817816119644 -0.01022645519388509 0)
(0.987449413801937 0.04433542517499432 0)
(1.051136353704999 -0.005971236237224203 5.504695997373027e-20)
(1.053342613691103 0.009108940561177215 0)
(0.9325707029966156 0.1970834569004909 4.614579236408761e-19)
(1.167602260287334 -0.08618122349781464 0)
(1.185757705252823 -0.0178567116052957 1.594305871095102e-19)
(1.077431374841485 0.009390152741341719 5.190375287633931e-20)
(1.084004595753527 0.002241922033534554 5.047596485563437e-21)
(1.071967676401614 0.03091072707205739 0)
(1.075563612906559 0.002656166100569955 -1.172010560797889e-20)
(1.032969441475897 0.006641213742966269 -1.971476105790926e-19)
(1.059849540381762 0.01488138336687505 -2.393908692130079e-20)
(1.089155673747039 0.005323313377384706 -2.927626857794531e-20)
(1.119572963208498 0.03914760198936508 0)
(0.7552098809186435 -0.1239094420536601 -4.533772094636829e-19)
(0.9545665911204949 -0.005855054818885653 0)
(1.068946611870626 0.02240187752304097 0)
(1.068834868513401 0.007356424985408035 0)
(1.073609596467184 0.008994478872796077 -2.837546492827007e-20)
(1.091889939636868 0.02436306296616877 1.12036358013536e-19)
(1.150404785851051 0.004203403865098363 2.195752036590797e-19)
(1.095936310613197 -0.002386489886931298 0)
(1.015888990810992 -0.008967743601494412 0)
(1.133884863105131 -0.09695340379909484 -1.646156398223174e-19)
(1.044101663422202 -0.0116116379237314 -7.901873174615384e-20)
(1.05829776220154 0.02663398858334136 -2.833991872066517e-20)
(1.231593352586499 -0.1115035975967551 -5.634710393488908e-20)
(1.067737553472577 0.0122223997074816 -4.272220117002386e-20)
(1.257363098941963 0.01905459197041799 0)
(0.996243160018645 -0.01846747403809814 2.083882482635397e-21)
(1.044570226469908 -0.001896467998489006 0)
(1.087603087085271 -0.002192786315644939 0)
(0.9988270867919585 0.006546348385925093 -1.839774162780883e-20)
(1.250778750887402 0.03507579357736745 -2.312685146670091e-19)
(1.063778536731936 0.01826478742611337 6.163033281132262e-20)
(0.9913130833725816 0.008473619557927557 0)
(1.0208967143155 -0.009418902777281097 2.347894417807175e-20)
(1.107089106652884 4.309927548652986e-06 -1.206245946505493e-19)
(1.06140501753311 0.03099087760411456 0)
(-0.07696320962714005 0.00380752291449553 6.991763182112348e-20)
(1.155079386236635 -0.05123765704104642 -1.928099961408974e-19)
(1.006180551600386 -0.008012758683160972 -2.58001325164652e-20)
(1.18365362513664 0.0700214534850587 -1.238019642657564e-19)
(0.9983872540466423 -0.009664107038071286 2.988729383996609e-20)
(1.084162192458185 -0.005538152658654845 0)
(1.244977380036788 0.1001227402770606 0)
(0.69604453742914 0.003206204844870213 -7.494999067514854e-20)
(0.9899384073219332 -0.0136195969148398 -3.113871147154475e-20)
(1.461597527042628 -0.01665204413769442 4.513556377268933e-19)
(1.060531488950598 0.007577793459481278 -6.818035278576814e-20)
(1.368718151520904 0.09944543133244552 2.933673663070361e-19)
(1.054719060494765 0.006872485246568372 -1.877208094773995e-22)
(1.081271948282928 -0.01390306080068831 -5.068579561734856e-22)
(1.165411377356922 -0.2362275299304389 0)
(1.021889042680586 -0.01439435140664961 0)
(1.017256913118329 0.01754547194718208 -3.152909906608466e-20)
(1.384959044422075 0.3491488622131637 4.140973171811253e-19)
(1.097000198774084 -0.04220685057664408 9.300611217691497e-20)
(1.045177203888668 0.2092274783893319 2.557015425888142e-19)
(1.126195300437952 -0.06132855555711719 1.147350812865295e-19)
(0.9220469176928037 0.005129855007738519 0)
(0.9754612611720349 0.01853875131404907 0)
(1.004146329816367 -0.04903312274354771 2.615089105367515e-21)
(1.01044347379417 -0.01290346338878191 7.436091878747866e-21)
(1.02995000502643 0.02601874777428043 1.407849268476134e-20)
(1.531057001764913 0.03768962002685717 3.28829071414869e-19)
(1.288808400424891 0.0722846407466301 5.461328496760101e-19)
(1.072376784546238 0.00299460274365643 -9.297932721561463e-20)
(1.20060156723675 -0.09288306549321239 0)
(1.033683646437217 0.001788952551031506 1.355296811904565e-19)
(1.164193267023744 0.02307675039133392 -3.247002427606472e-19)
(1.001425968354802 0.03227549834075726 0)
(0.9996267987580035 0.002033221470248403 0)
(1.044494424166588 -6.588117384310057e-05 7.677521506887792e-20)
(1.208659239578142 0.110518439323184 4.12832727129388e-19)
(1.011055952580262 0.006984641770314709 0)
(1.092129611483429 -0.07077720309100251 -1.049772430612957e-19)
(1.149519736347516 0.03828482375583475 0)
(1.210535301414128 0.09743396599157424 -1.950654394575658e-19)
(1.10802967879704 -0.0285840746469526 -7.621769377617433e-20)
(1.027381910673912 0.0116005942032363 0)
(1.085144315739492 -0.004660577958842801 0)
(1.019138019046858 0.02561703921697651 8.185945644060265e-20)
(1.071843316059655 0.05391127001173632 -9.415831227018789e-21)
(1.103819219742629 -0.004205511645658152 6.200527171483966e-20)
(1.111400286189834 -0.09647260139919669 1.525819571567591e-19)
(0.9611069898251473 0.002292004027012618 0)
(1.066283831658291 0.03116567280325857 3.877711113893551e-20)
(1.169160118975232 -0.07585028820367307 2.35635203345288e-19)
(1.051689568952387 0.04499235482835172 -2.928421190062009e-20)
(1.022474048130555 0.06715102950888693 3.761740032898774e-20)
(1.090504398698864 0.0260878783688807 0)
(1.014306308225048 0.01816053178408769 0)
(1.029001775246317 0.0094359219613681 7.914964275745879e-20)
(0.9487270385428711 -0.03376108037048936 0)
(1.052932430181618 -0.005699678822228812 -7.969090072796683e-21)
(1.342723609554196 0.06090924055917529 -1.599292741475715e-19)
(1.080039909256612 -0.01321929739504634 2.584619442464918e-20)
(0.7439909416532671 -0.001756233864953452 0)
(0.5537688555087215 0.1687011796136663 -8.461662317352986e-20)
(0.7060764312742459 -0.002542580333525337 0)
(0.698946888464569 0.0146442013797232 0)
(1.077653513782634 0.003606940893961151 -6.846194159052128e-22)
(0.9906380042265965 0.01452385288282147 0)
(1.278092711723964 0.123285589256407 2.467692475124423e-19)
(1.012358962397341 -0.02782078618729142 -7.978532062021844e-21)
(1.043662018444002 0.02230544174851689 1.682627719737519e-21)
(1.058578174546257 -0.01167433578424047 0)
(1.126601821700746 -0.009161932214755763 -4.942293647613508e-20)
(1.260903538553145 0.141384236103242 -2.252666672320946e-19)
(1.089248215423625 -0.01124928374795704 -8.512619213448714e-20)
(1.069652711388113 0.02630811535150819 -1.110698568623152e-19)
(1.040703258307778 0.04671976534006105 6.806997815568753e-20)
(1.022456398783208 -0.003738744237683914 -3.44669140412763e-20)
(1.061087256357378 0.02349204951527456 6.138210158835905e-21)
(1.12958458300839 -0.004766371231544878 1.07225944136111e-20)
(1.040275480211603 -0.01533430448989799 -4.773192165779683e-22)
(1.087633186626058 0.03477669375334107 0)
(1.028149183537896 0.01341740501738224 0)
(0.7665747414378109 -0.05718271103905413 -1.824055779539942e-19)
(1.030141624392773 -0.001705083400608539 -6.981271420567203e-20)
(1.131813058723543 -0.005788488380310191 -1.297744368287717e-20)
(0.7034604254894303 0.006577947490612334 7.435083883500401e-20)
(1.175024349372102 0.02073223571670483 -1.90415397732217e-19)
(1.129642033491576 0.003363799868903989 5.364399225059486e-21)
(1.128970439561742 -0.01002370550948504 3.494835603390103e-20)
(1.000940829989688 -0.002935752883900052 -7.741846323050666e-20)
(1.099181291750844 -0.06899998791226285 0)
(0.9851187220341087 0.00115400805670707 0)
(1.057943194556539 0.007085776364443791 0)
(1.005233966750213 0.1877724263254722 -2.48922324003257e-19)
(0.7793012088263833 0.01240592531729109 0)
(0.8568404047443816 0.100375668337424 -8.483887398631586e-20)
(0.07432297822915183 0.04030934165190051 -3.04026751672891e-19)
(1.173038019667698 -0.02944013584588396 -2.217774500450215e-20)
(0.6713332182398594 -0.007304804665392571 2.434175291595027e-20)
(1.170952771764461 -0.1029222901200122 6.933470516100204e-20)
(1.12313417422027 -0.006782683831168296 -5.925868661099287e-21)
(1.155927898082435 -0.04794896874313366 2.155139262928816e-20)
(0.1080471943094053 -0.219373976594367 0)
(0.253064871650262 0.0899221193790268 0)
(1.255138825749284 0.1143325164602447 1.946176566097833e-19)
(1.021338153792132 0.01979779842087627 0)
(0.7377993393716467 -0.006302864033624456 0)
(1.075396436813584 -0.01185735261500473 2.699560421881924e-20)
(0.9749450639815579 0.002779015196410745 0)
(1.291095182666101 0.1331363670791732 -1.585200865261655e-19)
(1.05748420236415 0.01123737822623661 0)
(0.9937252379685287 -0.007601908443557535 0)
(1.06503887184352 0.008211289828690042 0)
(1.006157665724488 0.02080747008292638 1.735376214058621e-20)
(0.9323876973663177 0.01445815144551867 1.061005827599331e-20)
(1.177546581153691 -0.199788313898167 0)
(1.005192845261716 -0.005195052832731897 7.779428886971718e-20)
(1.059131188375006 0.006368194682605475 0)
(0.7746760938634059 -0.003297023759074123 0)
(1.216749685065711 0.02979486445103232 1.679100308471128e-20)
(0.7049830626846743 0.001327045304782679 0)
(1.436564403737889 0.09011163036295766 -5.351653089375527e-20)
(0.9945203387099273 -0.006895422903495305 1.704075832037948e-20)
(1.273884183825595 -0.0004542773475230185 -2.916384191781366e-19)
(1.059626988999355 0.008832420029136031 1.399105574728891e-19)
(1.000907003796432 -0.01360112292018813 0)
(1.217770892304183 -0.1464330717097288 2.035606638967937e-19)
(0.733195270455737 0.01379146961173088 0)
(1.098400740609662 -0.005127347703878618 0)
(1.151334487773602 0.06877891422442982 2.042503658510709e-20)
(1.007112014565807 -0.006960312053554324 -3.022262317171982e-20)
(1.119692447830344 0.05238921490704659 -1.767270131725777e-19)
(0.102831725730573 -0.08292031603915957 0)
(1.071827811722406 0.03807177720994242 0)
(0.6616925405902413 -0.002930054199518368 -6.854931629590598e-22)
(1.01215174738597 -0.01941812224072791 9.795028278349975e-20)
(1.061469980735466 0.0006937711132102436 0)
(1.07833952197619 -0.1244247386834672 3.721989001482423e-19)
(1.002765065368671 -0.006218770504614414 -3.480827091169647e-21)
(1.002440190996515 -0.005356999713371939 7.786760282392026e-22)
(1.093921824369865 -0.009335818030626108 0)
(1.020667810132483 0.02056353181300353 -6.240884510348824e-20)
(1.106590252763804 -0.001609001745634087 6.716665018178591e-22)
(1.074203474791974 -0.01135255519631989 6.574181720832549e-20)
(1.085829001607557 0.02236026885614304 0)
(1.331745167440102 0.1659977299675699 0)
(1.001996149569181 0.0001005051850367111 4.415853130314483e-20)
(1.321654086478366 -0.1237654700287532 1.537727731565197e-19)
(0.05263446734202207 -0.1888221448162039 -2.559458373863572e-19)
(1.071331642021067 -0.005532038427354429 0)
(1.117355839708264 -0.0005485774948285753 1.213979487876853e-20)
(0.7268866644365142 0.01785286509480598 0)
(1.062946137414628 0.004573229100727524 0)
(0.871742210359803 0.1671205145382952 4.782107703117488e-19)
(1.269243727807749 0.1329828952363411 1.898493002575916e-19)
(0.6543296433035003 -0.003102452629213207 -6.301676172932891e-20)
(1.041749296393869 -0.003338560357444593 -7.023253172929661e-21)
(1.054792313250563 -0.0002884103505286043 6.641231751184085e-20)
(1.363311214840633 0.1256887488607825 6.82648025248591e-19)
(1.334031150535099 0.2525479516374081 0)
(1.060320647017457 0.000254569118789844 0)
(0.9988530966300441 -0.007284850175749815 1.537020765119326e-20)
(0.9935787986830461 -0.01101096594665222 5.274568638514789e-21)
(1.381878061175126 0.2004222026468287 4.232871251314028e-19)
(0.6817012278949588 0.0005487114898454072 9.848294772768024e-20)
(1.005568298345644 -0.002085329927280153 -5.971628706604171e-20)
(1.098144198851388 0.01301557082766023 2.543851929740817e-20)
(0.6694749656923165 0.005004916295289655 0)
(1.066090338812539 -0.01201228713224974 0)
(1.00430133806689 0.1484560223673851 -1.225310219769534e-19)
(1.089182119290056 -0.00857537818432645 -2.442084807413111e-20)
(0.9821274781726961 4.156271316419915e-06 3.27922361466027e-20)
(0.9912104586606042 0.006039465070556239 0)
(0.6383039878164819 -0.001100879833172994 0)
(0.9768310207068589 -0.001180272532011876 0)
(0.6421289824564035 -0.00149731146095865 2.689816317206179e-21)
(1.090487917189731 -0.05665302265891481 1.194617073437148e-19)
(1.113551219247445 -0.0005914872819171087 1.224907692469245e-21)
(0.9579405015621582 -0.0009135679996030576 3.911092419923969e-20)
(1.01585548981653 0.01017143765043536 1.684396572428181e-20)
(1.066413827159671 0.001419349964856659 -2.429111776444057e-21)
(0.6347052570618962 0.008865917185311574 -3.644526938461951e-20)
(1.002939954364356 0.00886060933984056 -9.25937916041187e-22)
(1.035439668575866 0.008911472035400511 5.226511695596207e-21)
(0.9875402722206399 -0.01270909778738299 0)
(0.6100010594999344 -0.0004936539224918041 0)
(1.068629764384965 0.02266617279307295 0)
(1.016912888847762 -0.01577457566786459 1.050915721943177e-20)
(1.023264103661385 -0.008352917297526893 0)
(0.9912329223490409 0.01433554262016097 -9.590282570820305e-21)
(1.011256269448035 0.001897207407102367 0)
(1.127427627998992 -0.002622938731533363 -1.153496240742358e-20)
(0.03989756078566384 -0.142623102725367 -4.202625028169208e-20)
(1.036413124277691 -0.01725317432349632 -6.842790225481149e-22)
(1.042138699229469 0.004647131601028416 0)
(1.08201115569538 0.0655741121993816 8.433832736917638e-20)
(0.968809775793243 -0.002327654079434944 3.112524576049642e-20)
(1.020596545500102 0.01688065587268746 -2.374787015785727e-20)
(1.001576331220125 0.0001105412708892214 2.498262903605532e-20)
(1.040469932392193 -0.005971293454274136 0)
(0.6408947955395043 -0.00400336216227544 0)
(1.025800417961056 0.02454153357452751 -7.23149540265823e-20)
(1.082350953061922 -0.003437378633860045 4.801092455249178e-20)
(1.017050535045407 0.003665379760260883 0)
(0.9792107944803998 -0.00295463814883385 -1.943403819649855e-21)
(0.8724017043336986 0.02000027838320829 -1.093371663155489e-20)
(1.014029026134563 0.002714461334407882 -1.013599217560541e-20)
(1.025917921524116 0.004937520246196833 1.826636209082967e-20)
(0.9826315173941731 0.004366527473025027 0)
(1.002355576814504 0.01085431965243475 3.511280327796966e-20)
(1.108082095050028 -0.001389619384812433 0)
(0.9246122810641433 0.000168765054646491 -3.223055257574453e-20)
(0.9598129094600243 0.005029495712552092 0)
(0.9164794475674323 0.2112281985123495 5.193145518113781e-20)
(1.01073455080204 0.06675740986600574 0)
(0.9930162737242715 0.004195107178715556 -2.279605453853857e-20)
(1.056683733751784 -0.05424350505934452 -2.88199093803432e-20)
(0.9913329189227872 0.0001979115193507068 3.393432068897775e-20)
(1.011981339843342 0.004914544743820241 0)
(0.9778951195377591 -7.475121272105174e-05 -3.162468582813233e-20)
(1.168624219720758 0.1023826768568836 -3.399675698466483e-19)
(1.069958495206664 -0.2652081651289313 0)
(0.9930823266601717 0.001428298555052346 -2.22111133932219e-20)
(0.9790413279994872 0.00418572273815843 5.054137114891832e-21)
(0.9636003104986309 0.005847246051090018 1.009207778046809e-21)
(0.745919366838609 -0.001061731691592514 0)
(1.121519931142826 -0.08211300722438809 0)
(1.005057071027993 0.004247595525218991 -2.205088858524465e-20)
(0.9025891832938473 0.007788136220619901 -9.644841813990585e-21)
(0.8550234624766633 0.01521515781555524 3.634233405191217e-21)
(1.013650685664621 -0.001195239299751509 0)
(0.9501376719495389 0.006194410905276592 1.449780098563388e-20)
(1.005643951572252 -0.0002645661979983517 -2.31000096695004e-20)
(1.020569362960715 -0.001159378978476644 -2.583104066946492e-20)
(1.113599480773589 -0.001767961927413925 -4.934445479332385e-21)
(1.119161789584489 0.0007784930035635809 0)
(1.014513935942197 -0.01021645847412339 0)
(1.020313897763927 0.003000855183554103 0)
(0.9439153615281691 -3.28026205157801e-06 -2.107309359136325e-20)
(1.017864294259509 0.01358599102693292 5.320015830929511e-20)
(1.081028032892084 0.0001828325233350523 -2.217375174561022e-20)
(1.039963315274999 -0.004535639756016532 0)
(1.106110389317937 -0.005539718075585612 1.842378121307075e-21)
(0.9954578520924874 0.002706140214776604 -2.212854445242423e-20)
(0.9868316782463873 0.006272180596066101 0)
(1.011738682925741 0.003154216673377023 4.654682056554535e-20)
(1.367824715837636 -0.3146043379223186 -1.134360530030766e-18)
(1.122904339184988 -0.04355525521749337 -1.080484847809442e-19)
(0.965608658891311 0.002499378411664089 4.689859722103357e-20)
(0.7742189153423629 0.008993350728712518 -3.101420463062833e-20)
(1.221572340710562 0.05408077261528497 0)
(1.225433325078271 -0.1323402278325203 -1.461645693887134e-19)
(1.078180844375189 0.00422580996082223 0)
(1.008414300051009 0.001566367798460631 2.245257373930047e-20)
(-0.1668573870342017 -0.1281824736594483 0)
(0.9939667529621387 -0.004646414257151169 0)
(1.012453370585886 -0.02317031193342845 4.628858707894932e-20)
(0.7062460145094029 -0.01945487374644143 0)
(1.096790524517212 -0.0148257000665526 2.111671453692508e-21)
(1.043913091040607 -0.01218447736062221 1.804019418861069e-20)
(0.6331499931675563 0.004136785846980111 0)
(1.449733663398146 -0.122353021241474 0)
(0.9867694703345748 0.001284898044058267 -1.083615724262496e-20)
(1.069813320471408 -0.01500227693080046 0)
(1.0379572589516 0.0003896926177710105 2.152747072822207e-20)
(1.082292432782318 0.006378870745292626 0)
(1.009794356991002 0.005464186477024219 -1.038295275842198e-21)
(1.005867116200869 0.00296226903794492 0)
(1.012757508869294 -0.01214878645510598 3.395126617029968e-22)
(1.003674083167326 -0.02085568277241092 0)
(1.034606877919687 0.00380804443789824 1.703404910816202e-20)
(-0.1857727500818606 0.03068220082266812 2.633690723800872e-19)
(0.8064671422301091 0.02413278400628474 5.232810439570975e-20)
(1.005742307954026 0.001867761997888272 0)
(1.132614493027109 0.01965608569212063 -1.165409107193906e-20)
(1.122738547655008 0.01745747652068036 8.34182601328332e-21)
(1.054439601817885 -0.01303798473742409 -1.275590046718839e-19)
(0.998785387333787 0.01034872982628069 1.320323715160723e-21)
(1.077333493025989 0.006449798594128589 0)
(1.18599633216287 0.05419571511909644 0)
(0.8354667454251475 -0.07667033458442886 4.587974659211434e-19)
(1.098716972390645 -0.00413946462596174 0)
(1.032936028519324 0.007352890741254548 -7.386542430243437e-21)
(1.042531605757845 0.005154900634253253 6.120596112488408e-21)
(1.05493959774986 -0.06149205998955646 -7.522944276105135e-21)
(1.139802019196928 -0.0006429522589217131 1.662764784096074e-19)
(1.0855933493974 -0.008725441874528599 0)
(0.9947136887218295 0.001245900812607937 0)
(0.9959061271830778 -0.02536634599828639 -2.292309614042524e-21)
(0.9904654580094737 0.002770848426250165 0)
(1.030734345114058 -0.03879306908884165 6.356867785892295e-20)
(1.292499296017967 -0.09180042986874266 0)
(1.045364184392833 -0.009548318555158858 -2.290194858482915e-21)
(0.9861580936681832 0.01701128486281219 -8.456953850879422e-20)
(1.033616169452366 0.04086517313945891 -2.425329283154963e-21)
(-0.08557013487548046 0.1468172684582009 -1.640757558719206e-19)
(-0.06648966834066465 -0.303737953383297 -1.37881665335466e-19)
(0.888713435405783 0.1416838175680907 0)
(0.2954523696436885 -0.02325747343198407 -3.312386564278812e-19)
(1.007629977449481 -0.005190411891317141 -1.588931864997284e-20)
(1.063829376064671 0.002660310155537626 -2.118934004497151e-20)
(0.9917944487162842 -0.01850934468410181 2.929200341119287e-20)
(1.021047393979968 -0.03030318745415157 2.532524429129829e-21)
(1.009305946605449 -0.03240813537015683 -6.52569342123905e-20)
(0.9888048893586963 0.004808714247031702 -3.465622824760795e-20)
(0.9928695657984489 0.004821745682231788 0)
(1.025352335375177 -0.002178807642346549 -3.549920720147739e-21)
(1.939355831924087 -0.1554344167493923 1.07977620621766e-18)
(1.045217186061785 -0.002515056849358424 0)
(0.9952320382364626 0.008362586467048705 1.556123617555689e-20)
(1.003016338765143 -0.0001590015485284814 4.071469101623987e-20)
(1.162392044712773 0.1371563326519429 0)
(0.9972440307653365 0.0001206526972848552 5.552381114695238e-21)
(0.948550660273024 -0.00219500366361047 0)
(1.037836013943949 0.04177297809345371 0)
(1.308832919564556 0.166652665593686 2.365526632655875e-19)
(1.086391696173148 -0.006338483122394361 2.270318149826138e-20)
(1.018331794632884 0.03037704175852686 4.696489299388297e-20)
(1.088018172101126 -0.008715040937675467 -2.191285104709213e-20)
(1.046106408785513 -0.003732656288317844 -5.857721019810118e-21)
(-0.3841559699894885 -0.0491523748393856 0)
(0.9988545714089083 0.01451305385972577 0)
(0.1064689943901558 0.0570758646441273 -8.631716366522161e-20)
(1.00714866479005 0.02201581612547249 -4.173722475533185e-20)
(0.994102845294732 -0.008401118314440776 0)
(1.001141009497875 0.005769651455714475 -5.043099811338122e-21)
(1.081658561744855 -0.04236625667440048 0)
(0.9951220409298838 -0.01657440561014933 -7.733255698365475e-21)
(1.095633772808849 -0.05933510238943114 0)
(1.444995341397998 0.179311567813197 0)
(1.054445891193105 -0.01214062198901321 0)
(0.9901901971253594 -0.02330512512130166 -3.934013933904944e-20)
(0.9952782160720918 -0.04842177090889759 -2.58923796536134e-21)
(1.015259839657316 -0.01758764767596799 -1.704173615530719e-20)
(0.997258297155857 0.01663956186724964 -5.695250170609201e-20)
(0.9953097619142531 0.01066380348431452 -1.516549030318084e-20)
(0.9938682117016995 -0.02819723871097374 0)
(1.003242496191694 0.02446844724494885 1.971993079960859e-20)
(1.055362283521555 -0.04452381660250004 0)
(1.111310151342797 -0.03549250145387293 2.649209453872877e-19)
(0.9957443086601463 0.01715357160732368 4.6888678368267e-20)
(0.6150916161364355 -0.008673505232682767 0)
(1.134022855769794 0.1425947185576535 -5.145123011913075e-21)
(0.8608051203520616 -0.09948558415807515 0)
(1.137833386776002 0.07334468751490188 -2.672162524496932e-19)
(1.317355673940513 -0.3891807696736952 1.305166120189133e-19)
(1.071470294396401 0.06070969852614171 -1.28727410038016e-20)
(1.010062208711705 -0.03201742531688533 0)
(0.9562612723523405 -0.2165279954985242 0)
(0.5022472896383335 0.1444610699907366 0)
(1.01492610054535 0.008786790264099014 1.311626108314894e-21)
(0.6859545220771428 -0.03071486450749184 0)
(0.9993557042748015 0.01796911771358758 3.593182836820217e-20)
(1.024167744543109 -0.005368595666857108 -2.807987639687138e-20)
(1.079046155339138 -0.008108979830595216 2.811467659631015e-21)
(1.041557903665705 -0.0157250950787579 3.318200481243553e-20)
(1.04234371248427 0.01155094400046843 0)
(1.064852678104634 0.02713307790576074 -9.521426286329035e-21)
(1.049623219927863 0.03507337885021222 -1.838846036088915e-20)
(0.9827627368334046 -0.02261177584659732 0)
(0.6249385993471651 0.005108802418365492 9.177471513252908e-20)
(0.8941565515949277 -0.005877175587846707 -8.852751217550094e-20)
(0.9093800585494002 0.005328613720636786 1.445532363936612e-20)
(0.6295551075411743 -0.006399115713878866 1.404331931328876e-20)
(0.9790667965569995 0.001435971235279561 2.585492494851499e-20)
(1.00445520166334 -0.01747093807395197 -3.640097864281301e-20)
(0.9749626482093876 -0.03120351383343964 -3.568438587387343e-20)
(1.08551172193358 0.001605101774844715 0)
(1.020159142243577 0.004514503258864769 1.020857854290688e-20)
(1.132293155704561 0.04910040184200898 1.293804395174231e-19)
(1.032700760259337 0.04017317825025774 0)
(1.022408433729612 0.002535461280555191 0)
(1.58643684703509 -0.1669267944000627 4.430777544574803e-19)
(1.050875879145208 -0.04523394121017614 0)
(1.016612674497475 0.007522731430613217 -3.834972613040657e-20)
(1.086098752145362 0.001604548008482927 0)
(0.4810470559744368 -0.03050676828983755 0)
(-0.005374779413708944 0.02607966209913291 0)
(0.9907458916879883 -0.02445772038349944 1.211998852274788e-20)
(1.302338112018241 -0.09507674741741048 3.780613220171486e-19)
(1.035309425283311 0.0357722074736902 0)
(1.022226951564536 0.003381648367868336 -2.259842002043437e-20)
(0.9625868774573264 -0.1616604112477786 2.160301878348534e-21)
(1.254677188735923 0.0795560182335333 0)
(0.5967833194871595 0.7285769642033089 0)
(1.314496758376802 0.1515772904817733 1.118902767229402e-19)
(1.680110657512854 -0.02446993745606067 0)
(1.050544914953927 0.107251101388878 0)
(0.7076110533519776 -0.02342797811366046 3.044206459137916e-21)
(1.051415411559767 0.04381031664997947 0)
(0.7417613704193345 0.1204483602485529 1.191821213173958e-19)
(0.9967599073164609 -0.01656745113710144 3.565608893133733e-19)
(1.035276159853883 -0.04263215271047523 2.788186732890162e-20)
(-0.3819421429114746 -0.003308219295151417 0)
(1.072007180553681 -0.01648985762629038 0)
(1.090983021032973 -0.004325067339615002 0)
(0.649315533322282 -0.5052359546907866 -2.459054015227793e-19)
(0.9904336213010577 -0.001704285010154838 0)
(1.092275252608447 -0.02121145761340891 3.76349385758595e-22)
(1.18698466307805 0.1214729188805479 -1.979618091196051e-19)
(1.09060097865328 -0.04750410961329744 0)
(1.005898846453074 -0.02141278999150938 0)
(0.7969304993988003 -0.1775547023597691 -1.652559976342464e-19)
(0.8852038145183707 -0.1259439212429658 1.551365868216133e-19)
(1.028409179580819 0.01396745609946469 -2.27147205080141e-20)
(1.023105655071205 -0.008987664172590315 -4.663534481732879e-20)
(0.879930078316732 0.0155403280721753 6.663013021790978e-23)
(1.507468246929025 -0.1933380114991833 0)
(1.305414644917046 0.1218181458879109 3.099396045100627e-20)
(1.244782098472536 -0.0731037852592505 -3.137923408194336e-21)
(1.095708559452488 -0.01841342948330868 -3.843350124310132e-20)
(1.038012490493829 -0.01107943293865354 2.421561474697205e-20)
(1.092839828000922 -0.03906517813123135 9.023301753451109e-20)
(1.031716859307457 0.02008229144728082 0)
(1.045076946649975 -0.03725732252950897 0)
(1.11595177444196 -0.008949328487813945 0)
(1.08908508101607 -0.03510734149368763 0)
(0.9980185025365955 0.01124791491496828 0)
(1.147370641525581 0.07980040385172445 9.585944487778552e-20)
(1.338022941400282 -0.1478200789454436 0)
(1.035126991793442 -0.02375265649826821 -1.976803796200656e-22)
(1.050838048459777 0.05004101246592678 0)
(1.010240075289236 0.0146691498049877 -3.991917344238058e-20)
(1.033948460982751 -0.007528717276072278 9.030574429685484e-21)
(1.088924554116326 0.01345715217525741 -3.287576622015363e-20)
(1.085572854890242 -0.02838219787096364 0)
(1.072198604319122 0.00479757693620235 0)
(1.109371594380254 0.09495738591472351 -1.429721379438291e-18)
(0.935688775387879 -0.1506270972608829 -7.052238315247478e-20)
(1.167066786459617 0.1107989123606493 1.121481047192973e-19)
(-0.4851502980213439 0.006993626241528606 -2.909722062472639e-19)
(1.018439785970067 0.02850851429956286 -8.933428312221806e-20)
(1.003976936704011 0.002799834617374046 0)
(-0.2882615231471662 0.02279559995630728 3.552972295465194e-19)
(-0.04652998528351036 0.2912418939610428 7.985918341650675e-21)
(0.9952234939231651 -0.006256673206251655 9.995593946190967e-20)
(0.1898839398547624 -0.04130323944782766 1.410230494390024e-19)
(1.089258471215266 0.08039897100286249 1.464910140106392e-20)
(0.09420571035893753 -0.1115023979960298 -5.553185616210775e-20)
(1.108171080400244 0.002974584317373677 0)
(1.105321481123818 0.2590514328033156 0)
(1.021594873097415 0.02156937595699636 -1.748631866674725e-20)
(1.071566593668519 0.05123771255967822 0)
(1.027114257938576 0.02559428623663255 -9.379685121970043e-21)
(1.264857140879997 -0.5495882085747708 8.0769625378802e-19)
(-0.1164449198182096 -0.2085536117975633 2.216687938079767e-19)
(1.29885382689969 0.1188893627724296 -6.381513217596302e-19)
(1.121502643190765 -0.003742054409716034 0)
(1.123165822746451 0.09592187790396282 0)
(0.5296447413555647 0.08294259676461574 2.555243589187707e-19)
(1.023798038854476 -0.02063596480152966 9.260874015864134e-20)
(1.006400262399141 -0.02386986187510984 0)
(1.210129994009751 0.2705114084004154 -9.465036388951509e-20)
(1.264053545920421 0.1390034146800058 -1.615706612251502e-19)
(1.026664761584613 0.003247509183437287 1.521157693786411e-20)
(1.302561412071023 -0.08463678653509639 -5.035978820088176e-19)
(0.2916541064280079 -0.01351518968604 2.640014908691589e-19)
(0.8242600459670153 -0.1444521896551083 6.634871500787209e-19)
(1.044845550457165 0.04957377745937551 1.058530724632256e-19)
(1.039589284758412 -0.002138132940645219 1.884040775189879e-21)
(1.001524144025612 0.01963036228406695 3.013903038726978e-20)