/*--------------------------------*- C++ -*----------------------------------*\
| =========                 |                                                 |
| \\      /  F ield         | OpenFOAM: The Open Source CFD Toolbox           |
|  \\    /   O peration     | Version:  2412                                  |
|   \\  /    A nd           | Website:  www.openfoam.com                      |
|    \\/     M anipulation  |                                                 |
\*---------------------------------------------------------------------------*/
FoamFile
{
    version     2.0;
    format      ascii;
    arch        "LSB;label=32;scalar=64";
    class       volScalarField;
    location    "47";
    object      p;
}
// * * * * * * * * * * * * * * * * * * * * * * * * * * * * * * * * * * * * * //

dimensions      [0 2 -2 0 0 0 0];

internalField   nonuniform List<scalar> 
808
(
0.145617
0.038865
-0.0237583
0.145481
-0.171179
0.0441294
0.0361729
0.0398455
-0.0711519
0.0161055
0.0411428
-0.0876036
0.0365547
0.0373547
-0.406437
0.0380467
-0.447095
0.0345548
0.00935909
0.0385885
0.000392654
0.363338
0.0657606
0.0355682
0.43866
-0.159003
-0.0136855
0.0102642
0.0334007
0.0232169
0.0281171
0.0490932
0.0298879
0.0203318
-0.0329891
0.631469
0.0312886
0.0274329
0.0451976
0.0243636
-0.00757017
-0.0133667
0.0425765
0.0401542
-0.0855353
0.0812305
0.0293391
0.0494244
0.0389506
-0.105363
0.0369497
0.0538829
0.0464388
0.0181258
-0.129276
0.0373685
0.0200817
0.0271463
0.0190584
0.0349583
-0.291459
0.0427194
0.0405608
-0.110814
0.036291
0.0509438
-0.163953
0.0280872
0.0225347
-0.223546
0.0433345
-0.254567
0.046774
0.0394099
0.217863
0.0201167
0.0190644
-0.1397
0.0336003
0.286496
-0.105287
0.0307109
0.0434414
0.29432
0.0197063
0.00287764
-0.296845
-0.158475
0.0560899
-0.229226
0.0689135
-0.0512068
0.237914
0.146931
0.0429543
-0.131248
0.0232722
-0.0689927
-0.0562098
-0.123472
0.0355323
0.0292695
0.0688461
0.00665133
-0.0610127
0.0556358
-0.0982171
-0.00542246
0.036552
0.068496
-0.043972
0.311226
0.0423196
0.0648987
0.030599
0.455748
0.0420614
-0.203496
0.0308024
0.0860053
-0.20752
0.0460417
0.0415736
0.0876061
0.0997098
-0.0983682
0.137675
0.0594626
0.0665411
0.0660888
-0.135095
0.0355788
-0.00660284
0.10172
0.0317752
0.0377637
0.00835922
0.00540176
0.045793
0.0384751
-0.423194
0.0769769
-0.0403078
0.0418875
-0.0701371
0.0818912
0.123569
0.181018
0.0882049
0.0135065
0.0406388
0.320928
0.0594288
0.5242
-0.395006
-0.125606
0.0379141
-0.188919
-0.0102741
-0.130211
-0.269499
-0.407084
-0.183252
0.0476743
0.0624364
0.0292271
0.0511777
-0.178412
0.0416997
0.0355618
0.0687432
0.143492
0.0335482
0.157058
0.0330087
0.0983607
0.0665986
-0.0916722
0.0443169
-0.284366
0.0368729
-0.197636
0.0457264
0.285247
-0.408624
0.111715
0.0323843
-0.0895084
0.0337889
-0.0451468
-0.418815
-0.0271842
0.0288372
0.112308
0.0458935
-0.425344
0.0297377
0.0491414
0.0145827
0.0671011
0.0954187
0.0403444
0.0334104
-0.25921
0.365289
-0.373998
-0.276584
0.0222601
-0.0198787
0.0421389
0.000371325
-0.338228
-0.122054
0.0296043
-0.0585821
0.0395007
-0.259206
-0.0979384
-0.00594253
0.0481115
-0.0277229
-0.14979
0.0421792
0.0417022
0.00799426
0.0339871
0.118443
-0.153807
0.0747617
0.02892
0.108722
0.0348147
0.0398855
0.0225016
-0.0756899
-0.00607535
0.0192115
-0.000103531
-0.0098353
0.019204
-0.00205644
-0.0152262
0.00978049
0.015026
-0.00849969
0.0187326
-0.0144506
-0.014906
0.0139181
0.0583914
-0.26536
-7.4924e-05
0.0064449
-0.085261
0.024347
0.0353666
0.0426826
0.008721
0.0377177
0.10978
0.082434
-0.0106445
0.00398415
0.0442191
0.0155933
0.021441
0.0243572
0.0790787
0.0472987
-0.0350787
-0.014169
-0.338548
0.254617
0.00221538
0.0584548
0.0313797
-0.00713033
0.0184036
-0.11482
0.304326
0.0522421
-0.0271214
0.0105753
0.113777
-0.00597143
0.0191354
-0.0220009
0.0310375
-0.00176828
0.00529596
0.0444446
0.0312954
0.0545439
0.0230326
0.0175705
0.0371506
-0.0581202
0.0467332
0.0610337
0.024808
0.0407423
0.0416083
0.0235246
0.00481328
-0.428973
-0.0938761
-0.057098
-0.00157181
-0.10805
-0.297039
0.0427718
0.0378023
-0.281374
0.155506
0.182255
0.0376694
0.0342352
0.0457673
0.00948147
-0.162579
0.0466171
0.0116639
0.0335768
-0.0181958
-0.0231086
0.0449178
0.0299503
0.0351371
-0.00428156
-0.330447
-0.055818
0.0308609
-1.89552e-05
0.0418004
0.0258801
0.215189
0.0038413
-0.0954211
0.552962
-0.0239788
0.0067876
0.040687
0.0376805
-0.0746089
0.0603662
0.040751
0.0594226
0.0762288
0.000268254
-0.341929
0.0456315
0.0940102
-0.0316841
-0.34576
-0.266944
-0.176776
-0.261771
-0.00986898
0.0488593
0.0487558
0.0560294
0.0246563
0.0168795
0.0576118
0.0159235
-0.425988
-0.0299241
0.0647284
0.0167334
-0.27313
-0.0871545
-0.0202242
0.139681
-0.243511
-0.00883897
-0.0223043
0.0162952
-0.122679
-0.311448
0.0534277
-0.41606
0.0416461
-0.0954
0.0137249
0.0346772
0.0414073
0.125138
-0.275137
0.0332003
0.0392963
0.0174263
0.0250403
0.0265678
0.060413
0.0418951
0.0219877
0.0627102
0.0732538
0.0433981
0.0234154
-0.180575
-0.0397871
0.0294968
0.042316
-0.0964736
0.0291869
0.445093
-0.235606
-0.00514732
-0.268162
0.0461312
0.0342131
0.0384909
-0.0260315
0.0321664
0.0145856
-0.0249147
0.0370298
0.00200069
-0.00393534
-0.00836433
-0.00895077
0.0253708
0.144758
-0.0304196
0.0228493
0.0226917
-0.0129812
-0.0471452
0.0395213
-0.30453
0.0835158
0.0819223
-0.0213617
-0.232124
-0.279465
0.033643
-0.0326161
-0.045574
0.0474575
0.0326393
-0.145952
0.157665
-0.248984
-0.37792
-0.320274
-0.152854
-0.0810269
-0.197212
0.358829
0.0354918
-0.324811
0.0331799
-0.0386687
0.607412
0.0207127
0.0504004
0.0104819
0.127483
0.0245395
-0.249915
-0.452591
0.0806802
0.0935822
0.00455038
-0.197877
-0.216623
-0.306335
0.0318661
0.005607
0.0874996
0.0162279
0.0413221
0.074456
0.130527
0.0539355
-0.103756
-0.406789
0.0496922
-0.0748413
0.0490443
0.00202525
0.107524
-0.0532722
-0.0330862
-0.395324
0.465345
-0.138977
-0.331493
4.69056e-05
-0.0713432
-0.362993
-0.364027
0.148462
-0.271129
-0.203331
0.871462
0.0331032
-0.299039
0.0346174
-0.142695
0.0189037
-0.373003
-0.434261
-0.224881
0.011315
-0.214905
-0.300111
-0.00241678
0.00382074
0.0545724
-0.218563
0.021164
-0.425659
-0.43021
-0.500146
-0.283711
-0.0855908
0.0373534
0.0998986
0.153939
-0.0152689
-0.307084
0.324747
0.0342417
0.0301573
-0.372092
-0.424283
-0.247222
0.0237105
-0.287699
0.104575
-0.0196199
0.00899388
-0.158646
-0.157269
0.0203173
-0.277094
-0.431822
0.0157786
0.0229921
0.022292
0.00659602
0.024185
-0.312014
-0.281108
-0.0361188
0.0749271
0.0544192
-0.266735
-0.402925
-0.11123
-0.3214
0.0211619
0.0879606
0.0228292
-0.114563
-0.402141
0.0800114
0.0610816
-0.209848
0.0318463
0.0292831
-0.437106
0.0169099
-0.182519
0.0244329
-0.442775
-0.0566834
-0.00092183
-0.478965
-0.575803
0.010693
-0.39069
-0.38845
0.0201027
-0.158311
-0.380279
0.00341781
-0.288027
0.050299
0.044601
0.0960856
-0.294245
0.110602
-0.0892624
-0.561726
-0.0403038
-0.361777
0.0371734
-0.233255
-0.628713
0.134557
0.237453
0.447149
-0.00187205
0.0126525
-0.00229747
-0.280139
0.637493
0.034727
-0.287469
0.0507847
0.00350057
0.11674
0.45883
-0.481568
-0.00928465
-0.0321655
0.0530593
0.0265298
-0.572517
-0.326204
-0.301846
-0.48704
-0.203683
0.0279387
-0.278752
0.0916903
-0.350975
-0.411936
0.461266
0.556113
-0.506357
0.15459
-0.368
0.0145442
-0.176402
0.350972
-0.11641
-0.26525
-0.084771
-0.62463
-0.0284233
-0.26907
-0.0826538
-0.41245
-0.375984
0.00247469
0.0127433
-0.267901
0.490993
0.660646
-0.212612
-0.41134
-0.256186
-0.0387178
-0.403283
-0.393779
-0.230271
-0.25927
0.722324
-0.440176
0.77323
-0.342342
0.354102
-0.240124
0.00657675
0.139035
-0.618104
0.283304
-0.368363
-0.405556
-0.434442
0.860031
-0.350847
0.237284
0.183303
0.668722
0.155281
-0.558942
-0.419325
-0.100754
0.0186652
0.0219091
0.568223
0.0333124
-0.0304301
-0.392491
0.0458814
-0.0696019
-0.206213
0.0208139
-0.538089
-0.0865037
-0.244155
-0.305986
0.0188034
0.135125
0.0221024
0.0597022
0.142443
-0.436113
-0.456651
-0.0403058
0.00118137
-0.574074
-0.627916
0.114481
0.166317
0.119701
0.638017
-0.0284372
-0.2334
-0.477253
-0.393152
-0.010635
0.0310995
0.748687
-0.560903
0.417688
0.0168203
-0.546509
0.13114
-0.152143
0.41852
-0.203528
0.0234609
-0.279228
-0.0157512
0.247139
0.833591
0.353659
0.737479
-0.247965
-0.402048
-0.350878
0.117477
0.249129
0.0559785
0.344315
0.197043
0.502043
0.234904
-0.0240926
-0.129684
0.0658158
-0.445158
0.882792
0.425007
0.611064
0.509871
-0.352795
-0.250606
-0.383076
-0.306019
0.0455904
-0.33216
0.154726
0.574267
-0.235688
0.0407095
-0.291567
0.167603
-0.422761
-0.478238
-0.0875925
-0.391868
-0.472964
-0.3359
-0.28488
-0.0544169
-0.353239
-0.0719541
-0.11911
0.118005
0.690869
-0.291758
-0.253923
0.806813
-0.255701
0.321675
-0.309622
0.439994
0.121491
-0.174652
-0.50605
0.398007
-0.209945
-0.409717
0.23116
-0.359287
0.00725724
-0.396829
-0.194656
0.0301655
0.592074
0.785392
-0.397041
0.256296
-0.302693
0.818391
0.0196013
-0.400872
0.0026035
0.781552
0.189059
-0.410794
-0.39488
0.48348
-0.278504
-0.00860673
0.303964
0.238238
0.320958
-0.326682
-0.432345
0.690872
)
;

boundaryField
{
    FrontBack
    {
        type            empty;
    }
    Top
    {
        type            zeroGradient;
    }
    In
    {
        type            zeroGradient;
    }
    Bottom
    {
        type            zeroGradient;
    }
    Out
    {
        type            fixedValue;
        value           uniform 0;
    }
    circle
    {
        type            zeroGradient;
    }
}


// ************************************************************************* //
