/*--------------------------------*- C++ -*----------------------------------*\
| =========                 |                                                 |
| \\      /  F ield         | OpenFOAM: The Open Source CFD Toolbox           |
|  \\    /   O peration     | Version:  2412                                  |
|   \\  /    A nd           | Website:  www.openfoam.com                      |
|    \\/     M anipulation  |                                                 |
\*---------------------------------------------------------------------------*/
FoamFile
{
    version     2.0;
    format      ascii;
    arch        "LSB;label=32;scalar=64";
    class       surfaceScalarField;
    location    "47";
    object      phi;
}
// * * * * * * * * * * * * * * * * * * * * * * * * * * * * * * * * * * * * * //

dimensions      [0 3 -1 0 0 0 0];

oriented        oriented;

internalField   nonuniform List<scalar> 
1171
(
-0.945443
0.945443
0.767492
-1.06742
0.299925
-0.391172
-0.769652
1.16082
0.0545567
-0.0677353
-0.270238
0.337973
-0.767492
0.0802971
0.687195
0.917697
-0.188912
-0.728785
0.839242
-1.00818
0.168941
-0.346621
-0.039834
0.386455
-0.00220508
0.597821
-0.595616
-0.518253
1.00573
-0.487477
-0.414356
0.9987
-0.159458
0.358577
0.0544008
-0.412978
1.02152
-0.0228159
0.401283
-0.0427064
1.04648
-0.0249687
0.669298
-1.06047
-0.787048
0.60862
0.178428
0.410431
-0.928683
0.564742
-0.918153
0.353411
-1.07689
0.661951
0.414941
-0.638147
0.635942
0.0413113
-0.264096
0.222785
-0.0250232
-0.622387
0.64741
0.458056
-0.49789
-0.870024
0.911133
-0.0411088
1.03225
0.0142344
0.923884
-1.08276
0.15888
1.07011
-0.0378641
-0.701849
-0.0851991
1.24169
-0.853879
-0.387806
0.20009
-0.072073
-0.406531
0.478604
-0.276367
0.177442
0.0989245
-0.591572
-0.475846
0.975128
-0.0512436
-0.00407481
0.842827
-0.838753
0.510415
0.731271
0.525748
0.02047
0.437586
-0.773065
-0.109079
0.882144
0.600923
0.23386
-0.834783
-0.0435233
0.630774
-0.58725
-0.504585
-0.572307
-0.394683
-0.688081
0.0225059
0.243522
-0.266028
-0.927029
-0.0309237
0.957953
0.365851
0.020604
0.874054
0.0436429
-0.597223
-0.0409242
0.0493239
-0.822389
0.208453
0.914394
-1.12285
-0.403807
0.0084857
0.395321
-0.70472
-0.222309
-0.721706
0.93016
0.542435
0.463294
-0.575146
0.984665
-0.81593
-0.168735
0.21045
-0.274288
0.0638374
-0.449171
-0.0487185
-0.337479
0.879914
-0.0147832
0.432079
-0.417296
-0.489157
1.09008
0.701213
-0.810292
0.376996
-0.0679161
-0.30908
0.773671
-0.773671
-0.976634
0.0422243
-0.312462
-0.683342
0.679267
-0.0357128
-0.142136
0.177849
0.876005
-0.0331773
1.04273
-0.808874
0.215288
-0.312802
0.0975141
1.00907
-0.135012
-0.679331
-0.0439315
0.723262
0.151476
-0.238996
0.0875194
0.806967
-0.995879
-0.451589
0.315633
0.135956
0.615804
-0.640827
0.888225
-0.402538
-0.485688
0.493542
-0.696344
0.0397162
0.656627
0.174283
0.663543
0.0487816
-0.712325
0.135876
-0.0936519
-0.523859
0.120052
0.0339345
-0.89808
0.864146
-0.567986
-0.759286
0.0574366
0.491296
-0.0537101
0.272613
-0.832071
0.559458
0.423799
0.576201
0.597248
-0.547924
-0.362213
-0.0300711
0.392284
0.557575
0.216096
-0.655887
0.612363
0.0847647
0.887264
0.00155181
-0.680883
-0.764172
0.798106
0.619612
0.114466
0.353807
-0.468273
-0.160438
0.4815
0.149274
0.775624
-0.727019
-0.048605
0.643374
0.34129
-0.426665
0.71076
-0.596295
0.410278
0.154464
-0.0613458
-0.570574
-0.184643
0.755217
-0.121249
-0.652422
-0.613752
0.368773
0.244979
0.654191
-0.65264
0.30226
1.02668
0.0160583
-0.764172
0.0705215
0.139929
0.701213
0.775612
-0.775612
0.840644
-0.825775
-0.0148685
-0.456963
0.880762
-0.193162
-0.330697
0.760101
-0.668173
-0.091928
-0.795229
0.224655
0.110892
-0.708115
0.810292
-0.97073
-0.165887
0.148107
0.0177802
0.122129
-0.97532
0.853191
0.542594
-0.016846
-0.295588
0.599378
-0.30379
-0.646632
0.768761
-0.161738
0.810506
-0.621913
-0.188593
1.11545
-0.538902
-0.576546
0.714266
-0.0722625
-0.041006
0.0483587
-0.00735269
-0.80021
-0.836388
0.0667352
-0.683342
0.573047
-0.564561
-0.108414
0.674636
-0.566222
0.77904
0.166403
0.494455
0.505545
-0.0394018
-0.577339
0.61674
0.682132
0.0934914
-0.714266
0.798106
0.176472
-0.440568
0.00979606
-0.0355933
0.0257972
0.669977
-0.453912
-0.216065
0.687195
0.0601594
-0.0258818
0.52377
0.146208
0.00515429
0.0040658
-0.0092201
-0.00378974
-0.0372163
0.132128
-0.200044
-0.93735
0.0513557
-0.139244
-0.0337588
0.119201
0.752602
0.74413
-0.167929
0.371979
-0.480393
-0.165785
0.381073
0.630573
0.0566219
0.232557
-1.05833
-0.97073
0.312141
0.679267
-0.161074
0.0189376
-0.803958
0.940609
-0.136651
0.487682
-0.0923608
0.791883
0.303656
0.29273
0.108553
-0.680451
0.680451
0.228034
0.654109
-0.0108187
0.442898
0.467785
0.0471929
-0.0373968
0.547513
-0.00491904
-0.646632
0.567653
0.192448
0.0666821
-0.0183234
-0.630573
0.154992
0.785617
-0.0116647
-0.730342
0.742007
0.754125
-0.82472
0.0705943
-0.77904
-0.0385624
0.0498626
-0.0113002
0.0818466
-0.147647
-0.114189
0.261836
-0.00905979
0.0142141
0.750612
-0.762277
0.845377
0.315447
-0.532372
-0.439872
0.972244
0.000216177
-0.000216176
0.118036
0.307891
0.894705
-1.2026
-0.19358
-0.561873
0.755452
-0.0152992
0.193148
0.393134
-0.241658
1.09469
-0.786797
0.743263
0.995386
-0.10068
0.199972
0.768761
0.609303
0.262388
0.648745
-0.652422
0.319549
-0.00249205
-0.0503682
0.0528603
0.768193
0.121395
-0.889588
-0.584334
0.54647
0.543037
-0.584334
-0.609303
0.54647
-0.0400829
1.06058
-0.215201
-0.557575
0.485578
0.0719969
0.510079
0.666703
-1.17678
0.352263
0.742425
0.701562
0.414045
-1.11561
0.244434
0.750952
0.485578
-0.516446
-0.590445
-0.681545
-0.279385
0.0527222
0.00101408
-0.00101408
0.525003
0.641477
-0.920861
0.733944
-0.380137
-0.987826
0.448924
-0.670842
0.448533
0.0848406
-0.895799
0.810958
0.448542
0.0502577
0.717935
-1.25408
-0.916928
-0.00486231
0.921791
0.461571
-0.127445
-0.334126
0.788119
-0.839362
1.11164
-0.935515
-0.176124
-0.0888612
-0.638157
-0.0641573
0.734302
-0.670145
-0.916187
0.827326
-0.485219
0.725966
-0.240747
-1.01034
0.350632
0.659708
0.00405479
-0.00383861
0.427077
0.14244
-1.0652
0.922758
-0.697383
0.657982
0.945805
0.14207
-1.08788
0.0288769
0.0118764
0.380407
-0.3559
0.0430985
0.963056
-0.878216
-0.694893
-0.946168
0.308011
-0.0958387
-1.04624
0.110723
0.673811
-0.301832
0.219267
0.242304
-0.517353
0.867985
0.485688
-0.845541
-0.774117
0.286461
-0.0978088
0.725898
-0.628089
-0.235279
-0.792701
0.58079
0.173335
-0.208545
0.92648
0.822464
1.05096
-0.94024
0.0465719
-0.0465719
-0.117057
-0.516039
0.388593
0.332531
-0.0203903
0.352889
0.691201
-0.0266834
0.0176236
0.65818
0.34182
0.798111
-0.591572
-0.752252
-0.506694
-0.505362
0.505362
-0.202735
-0.109727
0.706225
-0.992672
0.286447
-0.517991
-0.580038
0.366604
-1.05468
-1.02492
0.848792
-0.53427
0.842281
0.70177
0.166892
-0.868662
-0.747442
-0.158436
0.804735
-0.646299
0.333715
-0.0258067
0.00539307
0.0204136
-0.133618
-0.382421
1.07283
0.745957
-0.433355
-0.312602
0.411831
0.727124
-0.499089
0.00524981
-0.281616
0.249236
0.712464
-0.961699
-0.352915
-0.0850201
0.119135
-0.915525
0.0259363
-0.825779
-0.0118211
0.781914
-0.770093
-0.838659
0.0128795
0.656721
-0.741741
0.2324
-0.380048
-0.487208
-0.260233
0.376178
0.74756
-0.0368002
0.0147387
-0.0147387
0.00507988
0.0127539
-0.015246
-0.0212592
-0.00542425
-0.789041
0.314132
0.802351
-0.825557
0.0232058
-0.72008
0.708259
0.721505
-0.064784
-0.723248
-0.115411
-1.19954
0.0202031
0.0263688
-0.539805
-0.787406
-0.864999
0.477193
-0.260958
0.239765
0.021193
-0.622558
0.0827531
0.581452
0.712737
-0.0317185
-0.0020403
1.17576
0.470513
0.243681
-0.714193
-0.5447
-0.077858
-0.0158584
-0.00994831
0.667035
-0.851678
0.00722025
-0.00722025
-0.69643
0.67185
0.0245799
-0.325433
-0.0768803
-0.695954
0.0549372
0.561803
-0.0538616
-0.85439
-0.051284
0.236119
-0.184835
0.817299
-0.794093
0.329552
0.26797
-0.597522
-0.12037
-0.694144
-0.0759496
-0.225917
0.00365323
0.464254
-0.512972
0.179828
0.704288
-0.884116
0.493542
-0.105694
-0.155265
0.21388
-0.210227
0.599191
-0.0884959
-0.510695
-0.280344
0.298865
-0.0185205
0.593526
0.140418
0.0273614
-0.305654
0.161794
0.14386
-0.0567276
0.127249
-0.185447
-0.157153
0.318452
-0.1613
0.769199
-0.476675
0.151243
0.550743
0.204864
-0.638219
0.436305
-0.436305
-0.211242
-0.415087
-0.222573
-0.415087
-0.610682
-0.847365
0.179193
-0.0880821
0.72651
0.0346297
0.179654
0.567906
0.109642
0.118351
0.0082224
-0.126574
0.148037
0.787024
-1.0267
0.586828
0.0657042
0.0572025
-0.122907
-0.711083
-0.170834
-0.553672
0.797353
-0.55453
0.0416958
-0.251923
-0.32947
-0.0847742
0.0847742
0.0407597
0.00910284
0.138554
0.367014
-0.773181
0.219508
0.015336
0.468095
0.531905
0.685343
0.04309
-0.0147072
-0.0283828
-0.287905
-0.566484
-0.551269
0.108137
-0.114185
0.00604805
-0.0660354
-0.419193
0.0347372
0.527066
-0.550444
-0.160639
-0.232592
0.113875
0.0850719
-0.39764
-0.194513
-0.186542
-0.0135023
-0.504017
0.421778
0.0822388
-0.111384
0.290279
-0.862587
-0.533897
0.675103
-0.823489
0.703118
0.454774
-0.0447523
0.0779032
-0.0331509
-0.0858342
-0.636397
0.0177647
0.618633
-0.891929
0.615476
-0.732533
-0.177909
0.00827235
-0.00827235
-0.300404
0.44561
-0.0652025
0.0448553
-0.00176526
0.582812
0.615768
-0.664373
0.009262
0.013844
0.000894766
0.0025001
-0.0025001
-0.536033
0.676451
0.0103164
-0.0103164
-0.763751
-0.0109338
0.0149885
-0.542915
0.762423
0.590365
-0.565785
0.0686607
-0.0686607
-0.0285124
-0.00888437
0.00660583
-0.915955
0.339409
-0.51484
-0.00383861
0.573179
0.029119
-0.602298
-0.687673
0.137229
-0.323946
-0.0131045
0.33705
-0.0272575
-0.00446098
-0.596046
-0.0403519
0.0263688
0.00592957
0.00129067
-0.00258832
0.00258832
-0.50055
0.33925
-0.435583
0.137883
0.660228
-0.146287
-0.00934565
0.00934565
0.507811
-0.155336
0.00805617
0.0180964
-0.00133851
0.48115
-0.636486
-0.589268
0.740511
-0.0692305
0.322864
0.760148
0.00507988
-0.133473
0.11515
-0.658346
0.554527
-0.347761
-0.114494
-0.0152557
-0.0251974
-0.0359664
0.462866
-0.0937129
-0.416982
0.669941
-0.00351418
0.0105143
-0.0105143
-0.170896
-0.133536
-0.576259
0.610889
-0.158941
0.505665
-0.233466
0.902764
0.799904
0.00592957
-0.825883
0.774022
0.0781903
-0.184536
0.106346
0.629127
0.090275
-0.014262
0.0787926
-0.0645306
0.0116737
-0.0116737
-0.79128
0.0220888
-0.0449025
0.0629989
-0.0906665
0.0906665
0.013844
-0.00426577
0.709275
0.0763419
-0.323801
-0.0953925
-0.515667
-0.154402
-0.0715256
0.0715256
-0.0568952
0.0798662
-0.0798662
0.0308398
-0.0308398
-0.347151
-0.0795145
0.246027
0.069606
0.049273
-0.73902
-0.0647954
0.165601
0.0108706
-0.271617
0.0790368
-0.0790368
-0.460339
-0.052633
0.239252
-0.0164676
0.00334126
-0.604512
0.644595
0.0338853
-0.0907805
0.00481426
-0.0136986
-0.0112055
-0.154444
0.165649
-0.152848
-0.2272
-0.0858773
0.0858773
0.0583688
-0.0583688
-0.0332029
-0.0960973
0.1293
0.0711686
-0.18283
-0.0296756
0.0305704
-0.355772
0.695023
-0.0264054
0.406651
0.00229781
-0.0115179
-0.0562767
0.0562767
-0.714768
0.329266
-0.129293
-0.215863
-0.0231324
-0.0232093
0.0265506
0.215589
0.046247
0.00234987
-0.00368838
0.0787114
0.0294258
0.0530362
0.112565
0.0111668
-0.0132071
0.00329406
0.00574255
0.00530967
0.0166756
-0.0219853
0.00332965
-0.00121637
0.0306055
-0.0306055
0.0555833
-0.0387964
0.0387964
-0.194107
-0.00577536
0.0163348
-0.0779181
0.0191661
0.0742703
-0.0742703
0.297828
-0.256206
0.103358
-0.070042
-0.186164
-0.0197213
0.0197213
0.401971
0.254657
-0.512936
-0.0817222
-0.0324632
0.539854
0.0759829
-0.0872262
-0.449368
0.0681645
-0.15949
0.176893
-0.0174033
-0.0448444
0.0448444
0.828312
-0.595633
-0.0191513
0.022481
-0.00589227
-0.280561
-0.000829411
0.00478924
-0.0458577
-0.613583
0.5683
-0.661501
0.0143516
0.231568
0.015249
0.0254368
-0.165382
-0.340012
0.262094
-0.0609662
0.0277633
0.165516
0.133349
0.198488
0.27567
-0.260421
0.00660034
-0.115045
-0.228968
0.0718504
-0.0188142
0.171813
-0.146376
-0.0694552
0.148167
-0.39353
0.134573
-0.115406
0.061707
-0.478689
0.181682
0.170125
-0.23958
0.0011335
-0.173793
0.172964
0.00476656
0.1434
-0.02848
0.0554251
0.452386
0.0108842
0.0466392
-0.00932294
0.0378016
-0.246371
-0.204056
0.588276
0.176765
0.0624872
0.0871565
-0.0611643
0.0472766
0.0590692
-0.0300377
0.172902
-0.15855
0.0106729
0.0114191
-0.104485
-0.0303934
-0.00253425
0.255668
0.00540642
0.033578
-0.319561
-0.0102363
0.213224
0.150672
0.178593
0.0564069
0.102895
0.0429948
0.539817
-0.0186912
0.09572
0.0488519
0.0609432
-0.109795
-0.258279
-0.207079
0.0209156
-0.223021
0.298645
)
;

boundaryField
{
    FrontBack
    {
        type            empty;
    }
    Top
    {
        type            calculated;
        value           uniform 0;
    }
    In
    {
        type            calculated;
        value           uniform -1;
    }
    Bottom
    {
        type            calculated;
        value           uniform 0;
    }
    Out
    {
        type            calculated;
        value           nonuniform List<scalar> 10(1.05383 1.02653 1.27199 0.986859 1.08075 1.03034 1.16648 1.09803 0.647547 0.63766);
    }
    circle
    {
        type            calculated;
        value           uniform 0;
    }
}


// ************************************************************************* //
