/*--------------------------------*- C++ -*----------------------------------*\
| =========                 |                                                 |
| \\      /  F ield         | OpenFOAM: The Open Source CFD Toolbox           |
|  \\    /   O peration     | Version:  2412                                  |
|   \\  /    A nd           | Website:  www.openfoam.com                      |
|    \\/     M anipulation  |                                                 |
\*---------------------------------------------------------------------------*/
FoamFile
{
    version     2.0;
    format      ascii;
    arch        "LSB;label=32;scalar=64";
    class       volVectorField;
    location    "47";
    object      U;
}
// * * * * * * * * * * * * * * * * * * * * * * * * * * * * * * * * * * * * * //

dimensions      [0 1 -1 0 0 0 0];

internalField   nonuniform List<vector> 
808
(
(0.898093 -0.00835636 0)
(1.0022 -0.0333621 0)
(1.26562 0.173101 0)
(1.06635 0.0098632 -3.08011e-21)
(1.44855 -0.276007 0)
(0.952659 -0.0292806 0)
(1.14172 -0.0282237 -7.85584e-21)
(1.08793 -0.000819382 0)
(1.32242 -0.211577 1.51679e-20)
(1.21975 -0.0913111 4.97335e-21)
(1.24568 -0.194803 3.32558e-21)
(1.35141 -0.24152 0)
(0.977091 -0.00478941 0)
(0.732542 -0.014415 0)
(1.23533 -0.116341 2.60308e-20)
(1.09403 0.00170262 0)
(1.1112 -0.0872606 -9.35814e-21)
(1.01587 -0.0164938 -1.72895e-22)
(1.35441 0.127808 0)
(1.12307 0.00311128 0)
(1.3651 -0.163343 -4.64164e-21)
(0.927125 0.136669 1.04103e-19)
(1.0694 -0.0016621 -1.22059e-20)
(1.16593 -0.0388169 0)
(0.975115 0.206035 0)
(1.25947 -0.108445 -3.3093e-20)
(1.25353 -0.170239 -2.7505e-21)
(1.00073 -0.0218378 -6.03606e-21)
(1.12493 -0.0303899 0)
(1.05834 0.0343825 -1.12392e-22)
(1.0324 -0.0539428 7.8452e-24)
(1.12117 -0.00858524 0)
(1.02638 0.0452085 0)
(1.11557 -0.0295509 4.99707e-21)
(1.27321 -0.0840965 2.39808e-21)
(0.745111 -0.0866351 1.13724e-19)
(0.865603 -0.0242301 -1.30332e-20)
(1.03457 0.0410393 8.61595e-22)
(1.16869 0.0212558 -6.61891e-21)
(1.07778 0.0272671 0)
(1.25096 -0.0731797 -3.02771e-21)
(1.26042 -0.127232 0)
(0.99035 -0.0103941 -8.3948e-21)
(1.13437 -0.0472678 1.10863e-20)
(1.09175 -0.252887 0)
(1.00931 0.0142819 -1.73901e-20)
(1.01045 0.0341013 2.45225e-21)
(1.23203 -0.236849 -1.34694e-20)
(1.14968 0.050432 -1.34673e-20)
(1.37427 -0.176081 -2.19095e-20)
(1.13879 -0.0317509 1.25908e-20)
(1.14207 -0.0715421 0)
(1.10801 -0.0144726 7.56579e-21)
(1.16513 -0.0913978 0)
(1.3412 0.177748 7.7792e-21)
(1.04339 0.0500569 -5.02107e-21)
(1.1986 -0.114728 0)
(1.14111 -0.210899 8.96312e-22)
(1.22342 -0.0929235 -5.33863e-21)
(1.1272 0.0511981 -1.78811e-21)
(-0.140574 -0.603619 0)
(1.20219 -0.19957 2.26006e-21)
(1.05481 -0.119459 0)
(1.4028 -0.110344 -1.66485e-20)
(1.11575 -0.0839699 -1.21202e-20)
(1.02847 -0.0284501 -9.05178e-21)
(1.28724 -0.12681 1.55318e-20)
(0.64562 0.0052013 0)
(1.18224 -0.0728325 0)
(1.4169 -0.334952 0)
(0.891668 0.0177808 -4.11785e-22)
(1.22736 -0.132351 -3.30249e-20)
(0.994593 0.0248988 0)
(1.04826 -0.0482865 -6.00802e-21)
(1.10364 -0.315265 -6.43489e-20)
(1.18154 -0.0335741 -1.06419e-20)
(1.14424 0.036402 -2.86808e-22)
(1.37082 0.495828 2.77203e-20)
(1.10356 -0.0243575 0)
(1.02464 0.298562 -1.67047e-19)
(1.29026 -0.0561298 1.50768e-20)
(0.756503 0.0155932 0)
(0.860054 0.0499448 -1.18018e-20)
(0.966614 -0.104852 4.70496e-21)
(1.14768 -0.0565319 6.75475e-21)
(1.19058 0.0173534 3.97478e-22)
(1.27155 -0.223131 0)
(1.38143 0.258895 0)
(1.08494 -0.00026161 -2.61587e-20)
(1.46263 -0.0750604 3.14403e-20)
(1.08358 -0.0171444 2.12472e-20)
(1.29152 -0.125048 -7.92351e-22)
(0.968587 0.0278528 1.52801e-20)
(1.00403 -0.0292 0)
(1.09975 0.000802326 1.58421e-21)
(1.22232 -0.1165 -3.82213e-20)
(0.778139 0.0225265 -2.96739e-21)
(1.23261 -0.0717583 0)
(1.30742 -0.0936721 0)
(1.37442 -0.105963 -2.62441e-20)
(1.10428 -0.0340344 -6.54738e-21)
(1.127 0.0125982 -2.68727e-22)
(0.944696 0.0292005 1.78444e-20)
(1.18522 0.0198297 3.37203e-22)
(1.33676 0.0219992 -1.49873e-20)
(0.995133 -0.00136182 1.20092e-20)
(1.29805 -0.151312 0)
(0.813956 0.0109444 0)
(1.07893 0.0426098 1.11925e-20)
(1.1809 -0.206732 -1.17938e-20)
(1.28257 0.00529017 5.03024e-21)
(1.04983 0.0495685 -1.15168e-19)
(1.14221 0.0475314 -4.519e-21)
(1.05248 0.0700082 9.13687e-21)
(0.803114 0.0225605 0)
(0.917965 -0.0357641 7.7251e-20)
(1.13228 0.036345 -1.28338e-20)
(1.40683 -0.244555 -1.19052e-20)
(1.1223 -0.0556658 -8.93452e-21)
(0.929797 0.0119334 2.47289e-21)
(-0.128043 -0.45905 0)
(0.842817 -0.0183551 1.1636e-21)
(0.782098 0.0278964 0)
(1.05682 0.000980774 -1.36466e-22)
(1.01696 0.0280974 0)
(1.34288 0.297126 1.36156e-20)
(1.02996 -0.0522155 -4.06107e-20)
(1.12016 0.126452 4.23728e-21)
(1.14074 -0.0555338 0)
(1.08609 -0.0272671 0)
(0.487695 0.012448 0)
(1.11106 -0.0375174 -4.74854e-21)
(1.24728 -0.0486605 1.13715e-21)
(1.0759 0.112985 -2.80255e-20)
(0.840705 -0.00401571 0)
(1.0909 0.0332582 -3.1609e-21)
(0.970642 -0.266612 3.74099e-22)
(1.11171 -0.135695 -1.42796e-21)
(0.977887 0.034292 7.475e-21)
(1.12593 0.0120421 2.25286e-22)
(0.0935301 0.193062 0)
(1.09087 -0.0207759 -2.35224e-20)
(1.19608 0.0449159 -2.49711e-21)
(0.700448 0.0230693 -6.72706e-21)
(1.27935 0.137158 1.5458e-22)
(0.796445 -0.205083 3.63525e-21)
(1.04393 0.0173044 2.21073e-20)
(0.989839 0.0303918 0)
(1.04655 -0.0491232 1.91382e-20)
(0.852319 -0.100439 0)
(0.925711 0.0243051 1.41696e-20)
(0.975882 0.302911 1.34163e-19)
(0.967797 0.0313887 0)
(0.822304 0.129892 0)
(-0.0441527 0.228304 -1.01048e-19)
(1.33863 0.0730266 -1.69924e-20)
(0.67616 -0.0211622 0)
(1.45365 -0.142368 0)
(1.09921 -0.164727 0)
(1.33492 -0.00515378 1.76512e-20)
(-0.0270719 0.0716611 0)
(-0.0245992 0.262328 4.78687e-20)
(0.939613 -0.0404744 5.11133e-20)
(0.996756 0.0402001 2.54339e-21)
(0.84847 -0.0034187 0)
(1.01404 -0.0408945 1.33516e-20)
(0.881595 0.0270451 0)
(0.660732 0.000304315 -5.52656e-20)
(0.995741 0.0372624 2.22706e-20)
(1.11351 -0.0931106 3.58441e-21)
(1.08829 0.0168872 1.16056e-20)
(1.01771 0.0753336 -1.03416e-20)
(0.610478 -0.216307 -3.61911e-21)
(1.11907 -0.331233 9.41802e-22)
(0.907255 -0.0283982 0)
(1.06532 0.00205476 -1.87629e-20)
(0.869726 0.00906867 -9.98228e-21)
(1.35067 -0.162486 1.20305e-21)
(0.700534 0.0199832 0)
(1.04258 -0.130263 0)
(1.07345 -0.0680671 3.39309e-21)
(1.42421 0.174079 1.41275e-20)
(1.10534 0.0260724 9.35213e-21)
(1.03744 0.0221674 2.17681e-20)
(1.07556 -0.235842 -8.97466e-20)
(0.813218 0.00424995 1.8256e-20)
(1.11637 -0.0183135 7.39609e-21)
(1.36906 -0.108478 -2.6062e-21)
(1.08014 -0.0691181 -6.63146e-21)
(1.31134 -0.0536438 2.23318e-21)
(-0.0603324 0.161493 7.50169e-20)
(1.27244 -0.0418638 0)
(0.606876 -0.0230763 0)
(1.05811 -0.0232729 -9.43193e-21)
(1.09004 0.0155342 1.52119e-20)
(0.334521 0.0660708 0)
(0.868095 -0.0117841 5.87994e-22)
(1.03688 -0.0526083 -5.09018e-21)
(1.01264 1.4933e-05 2.68536e-21)
(1.07739 0.0231127 -6.51063e-21)
(1.00116 0.0232842 2.60862e-21)
(1.00003 -0.026206 4.49016e-21)
(1.05199 0.02773 0)
(0.340294 -0.00689799 0)
(1.05039 -0.0632485 0)
(1.28889 0.0562104 -4.12672e-20)
(-0.0483057 0.103844 4.65136e-20)
(1.12248 -0.0160763 -2.85465e-23)
(1.24095 0.261172 0)
(0.729807 0.0206778 -1.39989e-20)
(1.23331 -0.23276 -9.72672e-22)
(0.00569726 -0.0361471 -1.34372e-19)
(0.690491 -0.0137049 -2.16128e-20)
(0.617811 -0.023044 0)
(1.12822 -0.250073 0)
(0.936185 0.0290474 1.43907e-20)
(1.00898 -0.0894295 4.8911e-21)
(1.32129 0.389629 1.09788e-20)
(1.14077 -0.242907 8.80731e-23)
(1.03777 -0.129609 -4.86442e-21)
(1.07242 -0.284198 0)
(1.40636 0.413383 -6.22991e-20)
(0.655685 0.000485881 0)
(0.814238 -0.0233519 -5.93296e-21)
(1.0669 -0.02994 8.24062e-23)
(0.594592 0.0145298 0)
(1.10039 -0.00660509 0)
(0.0168793 -0.102255 -2.79918e-20)
(0.976591 -0.12722 -1.3358e-20)
(0.745975 -0.0215841 4.11538e-21)
(0.990984 -0.00528157 0)
(0.579541 -0.0172319 0)
(0.783768 -0.0159429 -6.25592e-21)
(0.542201 -0.0243247 -9.59727e-22)
(1.26392 -0.0759895 2.10965e-22)
(1.26879 0.220453 -1.44075e-21)
(0.734294 0.0143418 -2.61984e-21)
(1.11696 -0.0666952 2.45634e-22)
(1.1366 -0.295669 -8.30049e-23)
(0.564825 0.0124172 6.58111e-21)
(1.14462 -0.154671 -2.85022e-22)
(1.06432 -0.0754599 0)
(0.969163 -0.424294 0)
(0.530016 0.0162155 0)
(1.03374 -0.0126471 0)
(1.26097 0.0137961 -4.35347e-21)
(0.998968 -0.158606 0)
(1.09171 -0.03164 0)
(1.01918 -0.207085 0)
(0.888868 -0.286084 0)
(-0.009196 0.0169868 4.12805e-20)
(1.25335 -0.111074 1.58123e-21)
(0.888659 -0.263391 0)
(1.37717 0.00912814 1.32872e-20)
(1.1965 -0.0943681 2.15855e-21)
(1.08032 0.0557085 5.767e-21)
(1.08911 0.131629 7.20634e-21)
(1.15789 -0.0540079 0)
(0.596261 -0.0114937 1.2431e-20)
(1.05515 0.0305047 1.00583e-20)
(1.00974 0.0673914 0)
(1.27575 -0.102102 9.82682e-22)
(1.13562 -0.0926363 2.28529e-21)
(0.608748 0.390656 -3.40061e-21)
(1.17968 0.0516474 2.07348e-21)
(1.23891 0.0598085 -2.26725e-21)
(0.875681 0.139032 0)
(1.05847 -0.0978481 -3.13484e-20)
(0.932806 0.0239061 -7.73213e-21)
(0.752258 -0.291536 -9.3223e-21)
(1.04892 0.30473 0)
(-0.00300466 -0.0155605 0)
(0.978151 0.121516 -1.63263e-20)
(1.25006 -0.0317485 0)
(1.11117 -0.0296176 -1.67634e-20)
(1.08002 0.016288 1.6678e-21)
(1.30258 -0.0836722 2.17983e-21)
(1.03806 0.0200678 -1.80722e-21)
(1.31705 -0.0939714 5.621e-20)
(1.0031 -0.303207 6.49526e-20)
(1.09811 0.0491645 -1.12909e-21)
(1.09484 0.209717 0)
(0.933447 0.272529 0)
(0.908356 0.00387354 -3.83906e-20)
(1.10953 -0.150772 1.80144e-21)
(1.21497 0.15836 0)
(0.63831 -0.430219 -1.98763e-21)
(0.520961 0.269649 0)
(0.815144 0.37495 2.12939e-21)
(0.725392 -0.338686 1.49964e-21)
(0.829276 0.0301614 -8.67256e-21)
(0.999622 0.0827132 0)
(1.13625 0.117618 -1.94543e-21)
(1.10424 0.219507 1.20305e-21)
(0.81498 0.0621807 -6.01199e-21)
(1.08621 0.164315 -6.62171e-21)
(0.990199 0.0949338 0)
(1.09195 0.0503211 0)
(0.922789 0.209417 9.51205e-21)
(0.83191 0.193702 -2.151e-21)
(1.05893 -0.0378468 1.20437e-20)
(1.18665 0.0309901 -6.71879e-21)
(1.00701 0.310652 5.18071e-22)
(1.22523 -0.0164382 0)
(0.415057 -0.13577 1.21136e-20)
(1.30198 -0.0248854 -1.93336e-20)
(0.96415 -0.0669934 1.11859e-20)
(0.505253 0.471312 3.59469e-21)
(1.39319 -0.146618 1.50234e-20)
(1.06574 -0.300211 8.68463e-20)
(1.04881 0.283161 -9.76287e-21)
(1.12199 0.0460783 -9.4551e-22)
(-0.0990373 0.108962 -7.94076e-21)
(1.00133 -0.00720364 0)
(1.03688 -0.0839126 -1.73735e-20)
(0.83294 -0.0275965 1.44035e-20)
(1.09988 -0.0585958 7.13642e-21)
(0.746006 -0.154503 -1.1377e-21)
(0.518846 -0.0077369 5.40161e-22)
(1.39011 -0.369808 -1.50033e-20)
(1.19209 0.0342391 0)
(1.09399 0.0279053 -5.24851e-21)
(1.15305 0.0445072 -3.20003e-21)
(1.1853 0.16053 0)
(0.803978 0.320663 8.3167e-21)
(1.15165 0.00444131 5.00842e-21)
(0.771416 -0.305331 1.51699e-20)
(1.11118 -0.0208265 -1.62223e-20)
(0.921528 0.339796 -2.48862e-21)
(-0.0410807 0.214831 0)
(0.7648 0.452435 2.73798e-20)
(1.21832 0.0600631 0)
(1.03657 0.312622 8.23558e-21)
(0.965511 0.318571 0)
(1.10053 -0.0201481 5.78118e-21)
(1.01278 0.0226568 0)
(1.02264 0.312758 0)
(1.3709 -0.129062 1.24e-20)
(0.788439 -0.0637596 0)
(1.30808 -0.3345 -8.23418e-21)
(1.12103 -0.0496056 3.03871e-22)
(1.08894 0.0299456 3.84541e-21)
(1.12523 -0.11069 9.1244e-21)
(1.24594 0.0771324 -1.08902e-20)
(1.13698 -0.176666 1.78442e-20)
(1.23555 0.00677805 0)
(1.15607 0.00266272 0)
(1.13847 -0.0136692 2.78956e-21)
(1.15126 -0.022531 0)
(1.52825 0.147009 -3.66572e-20)
(0.803847 -0.347094 -4.44779e-21)
(1.02711 0.00818827 1.88341e-20)
(1.28411 0.048972 -1.047e-22)
(-0.0169534 0.122067 0)
(-0.011255 0.0531154 0)
(-0.028875 -0.020436 -3.00634e-20)
(-0.113036 0.0621023 0)
(0.879792 -0.339154 -3.77732e-21)
(1.15903 0.0227954 -4.55158e-21)
(1.21453 -0.0451892 -9.45562e-21)
(1.19291 0.129304 -7.15196e-22)
(1.1125 -0.00588454 0)
(0.705751 -0.00843534 -3.22277e-21)
(1.13314 -0.0554694 0)
(1.19777 -0.008042 4.72887e-21)
(0.508788 -0.106761 0)
(0.961402 -0.247933 2.01538e-22)
(1.06305 -0.0177568 0)
(1.13251 0.0398081 0)
(0.783745 -0.107073 4.21254e-20)
(0.851341 -0.159177 1.30692e-21)
(0.745292 -0.268745 -1.45235e-21)
(1.01109 0.0182876 -1.20495e-20)
(0.104635 -0.008341 0)
(1.2332 -0.269636 1.73249e-21)
(1.1827 0.136732 -2.75345e-22)
(1.18218 -0.262561 -5.98497e-21)
(0.922922 -0.0540001 -1.43744e-20)
(-0.0588327 0.185119 -1.05073e-19)
(1.05914 0.0623034 0)
(-0.0353781 0.0579005 0)
(1.09802 0.120199 1.3058e-20)
(0.640612 0.242938 1.54706e-20)
(1.15074 0.0739418 -5.8017e-21)
(1.10522 -0.0328786 0)
(1.20588 -0.113911 8.02052e-21)
(0.954291 -0.100841 -1.82673e-20)
(0.548733 -0.0254506 -8.09824e-21)
(1.11055 -0.0150156 -6.09618e-21)
(1.20429 0.0191788 -6.48472e-22)
(0.170183 0.337008 3.54665e-21)
(1.29984 -0.0234583 -8.22664e-21)
(1.11254 0.0629977 0)
(1.07047 0.0173347 0)
(1.12809 0.0208785 -4.74676e-21)
(1.11873 0.127778 2.4886e-22)
(0.207349 -0.0297119 9.26251e-21)
(1.18159 -0.11612 -2.76398e-20)
(1.07244 0.0647658 1.59037e-20)
(0.528339 -0.000437414 1.49529e-20)
(0.307598 -0.303722 -7.38134e-20)
(-0.0108444 -0.269648 -2.05317e-21)
(1.19019 0.168811 -7.19357e-21)
(1.21046 -0.472652 2.1207e-21)
(1.44767 0.0819936 -1.16316e-20)
(1.13399 -0.0280431 5.62531e-21)
(0.926109 -0.209861 9.75923e-20)
(0.199215 -0.177751 0)
(1.17022 -0.135334 3.65917e-22)
(0.663832 0.192182 -4.08043e-20)
(1.08426 0.0868087 -1.12986e-20)
(1.00084 -0.0424444 7.95735e-21)
(1.10153 0.0340769 0)
(0.685615 0.290853 0)
(1.16436 -0.0454197 0)
(1.13919 0.305942 -7.07103e-22)
(1.27016 -0.0108734 -1.1329e-20)
(1.12059 -0.00169665 9.25676e-21)
(0.497532 0.0169024 0)
(0.653695 0.0131412 0)
(0.642699 -0.0042872 4.72932e-22)
(0.463123 -0.0152531 0)
(1.08672 0.123395 0)
(1.01742 -0.00955042 3.19526e-20)
(0.423032 0.542977 0)
(0.912897 0.016613 0)
(1.18786 -0.0483064 0)
(1.1921 0.162576 5.08279e-21)
(1.26593 0.0741107 6.3434e-21)
(0.948572 -0.0277727 8.85493e-21)
(1.27691 -0.388039 -9.42277e-20)
(0.345823 0.243556 -8.78076e-21)
(1.13254 -0.144475 1.05741e-20)
(1.23416 -0.111341 0)
(-0.0980473 -0.360528 0)
(-0.354748 -0.229309 0)
(1.10576 -0.0325555 1.13014e-20)
(1.29669 -0.274706 -6.7399e-21)
(1.29479 0.219535 0)
(1.11011 0.00632803 -1.31897e-20)
(0.316416 -0.321257 0)
(1.47072 -0.162561 4.84594e-20)
(0.430794 0.552197 8.37944e-20)
(0.271998 0.00426469 0)
(1.0892 -0.268219 1.01129e-19)
(0.642553 -0.18345 0)
(0.342079 0.234634 2.054e-20)
(1.3881 0.175701 0)
(-0.127961 -0.196615 -4.01505e-21)
(0.984618 -0.0520155 0)
(1.14841 0.034557 8.0256e-21)
(-0.165051 0.124826 -7.99736e-21)
(1.10021 -0.0268603 4.24228e-21)
(1.22338 -0.258402 5.04218e-21)
(0.555792 -0.472481 -9.63956e-20)
(1.05395 -0.111406 -3.80374e-21)
(1.18251 -0.123558 9.63996e-21)
(1.20175 0.233319 -8.98145e-21)
(1.01582 0.0790211 2.17686e-20)
(1.10285 -0.0250254 2.09195e-21)
(0.0230948 -0.524015 -5.31168e-20)
(0.247117 0.181179 -1.19284e-20)
(1.06531 -0.00679769 5.13669e-21)
(1.05955 -0.0431821 0)
(0.622505 -0.135708 -3.89639e-21)
(1.37887 -0.424964 6.53565e-20)
(0.913603 -0.0429928 -4.59464e-20)
(1.52822 0.0403674 1.05063e-19)
(1.08126 -0.0700112 6.86291e-21)
(1.33256 -0.080512 4.29752e-21)
(1.06003 -0.0117706 0)
(1.17906 -0.0112425 0)
(1.16097 0.0743923 -7.31571e-21)
(1.08504 -0.0245784 -4.31771e-21)
(0.976214 0.191399 -2.24607e-20)
(1.0508 0.0286604 -1.2942e-20)
(1.42143 -0.0583503 -2.71261e-20)
(0.600839 0.0214713 0)
(1.2422 0.0590539 1.36066e-20)
(1.35728 0.1457 0)
(1.06776 0.0441956 -9.21059e-21)
(1.12955 0.000139134 0)
(1.04084 -0.0087068 1.81752e-20)
(1.20535 0.00181104 1.36782e-20)
(1.14102 0.0280684 0)
(0.0631218 -0.0259675 1.42019e-19)
(0.880229 -0.187274 -7.65368e-20)
(1.23149 -0.105194 -1.64822e-20)
(-0.145253 0.164671 5.10664e-20)
(1.1911 0.0494765 1.16205e-22)
(0.891513 0.0142765 1.58087e-20)
(-0.102591 0.239042 -5.32101e-20)
(-0.0347803 0.191549 -3.63447e-20)
(1.01566 -0.0284057 0)
(-0.0230737 -0.013762 0)
(1.32147 0.0388054 0)
(0.110216 -0.068707 0)
(1.09246 -0.0229444 0)
(0.155779 0.0462848 0)
(1.09115 0.068141 0)
(1.32942 0.256631 0)
(1.2193 0.147004 -5.5648e-21)
(0.568226 -0.278777 -1.80911e-20)
(-0.101574 0.129444 0)
(1.10711 -0.0838362 4.77946e-20)
(1.01858 -0.224416 1.77953e-21)
(1.38343 0.013317 0)
(-0.0317443 -0.0346269 0)
(1.12932 -0.019546 -4.36953e-22)
(1.12346 -0.0325652 5.13568e-22)
(1.20194 0.395904 0)
(0.185469 0.00897089 4.68787e-20)
(1.1155 0.0340806 9.53699e-22)
(0.24087 -0.0496125 -4.78997e-20)
(-0.0635117 0.0557852 -4.41723e-20)
(-0.0309594 0.0529249 1.11792e-19)
(0.925984 0.253667 4.77414e-20)
(1.1571 -0.169823 -1.48746e-20)
(1.09416 0.0746369 -1.57863e-20)
(1.02028 -0.0103876 0)
(1.06811 -0.0639184 -2.60725e-20)
(1.23385 0.106801 -6.81753e-21)
(-0.0035862 0.0860352 1.12088e-19)
(0.969305 -0.0655928 -6.23446e-20)
(0.542436 0.13992 5.30817e-21)
(0.912581 -0.145597 -6.74191e-21)
(0.0864069 -0.026329 3.04829e-20)
(0.257231 -0.0341791 -4.36074e-20)
(0.380962 -0.00707013 -4.24882e-20)
(1.11654 0.200972 6.45847e-21)
(-0.0427076 -0.0166573 0)
(0.808172 0.141964 1.13855e-20)
(1.20971 0.147367 -1.79573e-21)
(1.06732 0.200371 1.73098e-21)
(1.28089 -0.0922364 0)
(1.48582 -0.216256 5.4117e-20)
(1.09971 0.0406472 -5.63729e-21)
(-8.23896e-05 0.0492009 -3.47165e-20)
(0.579226 0.0294288 0)
(0.925229 0.00816818 -3.8932e-21)
(1.12973 0.0324232 2.60471e-21)
(0.754931 -0.23965 -7.72277e-21)
(1.12313 -0.0158216 -1.8148e-22)
(1.11337 0.0300238 0)
(1.13365 -0.16125 -1.31284e-20)
(-0.181665 0.0685134 -5.79888e-20)
(1.29291 -0.033849 9.58801e-21)
(1.11538 0.165016 -9.31757e-21)
(1.06591 0.00900708 1.48016e-20)
(-0.0294369 0.00792535 1.3692e-20)
(-0.0320161 0.0866332 -9.09272e-20)
(0.636385 -0.0712593 0)
(0.976438 0.0980671 0)
(1.15259 0.0684384 -1.03615e-20)
(1.05387 0.0591537 1.04314e-20)
(1.14573 -0.0224193 0)
(0.351142 -0.115653 2.08288e-20)
(0.889415 0.0690593 -1.57999e-20)
(1.10383 0.09001 0)
(1.08493 -0.0045785 0)
(1.46982 0.212801 0)
(1.23685 0.115984 0)
(1.19011 -0.155098 1.62548e-22)
(-0.0440971 0.0528872 4.82523e-20)
(1.14131 0.142882 5.05111e-21)
(1.37308 -0.17654 -5.86833e-20)
(1.33162 -0.0522322 -3.09365e-21)
(0.299496 -0.305203 0)
(1.21382 0.0480381 0)
(0.652521 -0.0105147 -7.54735e-22)
(0.638501 0.0060255 -7.88433e-20)
(0.100276 0.0350292 6.30033e-20)
(0.991084 0.0258982 6.00873e-21)
(0.73894 -0.26735 0)
(0.680711 -0.0852396 0)
(1.33163 0.00310532 0)
(0.567386 0.544913 4.26083e-20)
(-0.0279394 0.115535 -4.17955e-20)
(0.918235 -0.237408 1.67339e-21)
(-0.00714735 0.114571 6.26592e-20)
(1.05393 -0.0305983 4.8526e-21)
(1.19861 0.306805 1.7128e-20)
(1.10779 -0.0907027 1.21524e-20)
(0.541718 -0.44849 6.94248e-20)
(0.849301 -0.041113 6.27703e-21)
(1.30571 -0.166305 0)
(0.60313 0.290331 0)
(0.990789 0.154299 -7.43406e-21)
(-0.238259 0.1195 0)
(0.622052 0.0300404 4.16327e-21)
(0.590709 -0.404413 -2.24836e-21)
(0.283491 0.0519981 -1.42867e-19)
(1.11331 -0.211503 4.27067e-20)
(1.06189 0.384456 8.77845e-21)
(0.981594 0.0325068 0)
(1.19833 -0.233817 -2.327e-23)
(0.679784 0.011418 0)
(0.992664 -0.00613047 -5.84846e-22)
(0.448059 -0.00502056 0)
(0.718224 0.166434 0)
(0.980409 -0.0303103 -6.51451e-21)
(1.48104 0.105669 -1.97229e-20)
(1.04682 0.0101212 6.07162e-21)
(0.508179 -0.47279 0)
(1.12424 -0.147304 5.25478e-21)
(0.822467 0.409512 6.39451e-20)
(-0.0322806 0.0172678 1.57967e-21)
(1.1441 -0.0570013 4.79512e-21)
(1.17798 -0.0116975 -1.02634e-20)
(1.02305 -0.0130149 1.45066e-21)
(0.797671 0.00957481 -5.73219e-21)
(0.0849295 0.0191797 5.08142e-20)
(-0.0180675 0.171803 -6.43459e-20)
(-0.290166 -0.0727531 0)
(-0.0438347 0.0381966 0)
(1.16309 -0.595031 2.70295e-20)
(1.11701 -0.0230827 -2.04124e-21)
(0.874852 -0.453815 -3.39206e-20)
(0.945559 0.183213 -2.21605e-20)
(1.44994 0.150004 4.74068e-20)
(0.639385 0.447549 0)
(0.257476 0.447725 -1.01881e-19)
(0.615483 0.524008 0)
(0.424267 -0.0287021 0)
(1.10168 -0.454475 0)
(-0.0561004 0.252593 -8.1809e-22)
(1.18924 -0.0176191 0)
(1.0715 0.414786 -4.40448e-20)
(0.62708 0.735969 2.25043e-20)
(1.37767 0.338678 7.63407e-21)
(-0.0497571 0.0570596 -9.52364e-20)
(1.02463 0.443183 -1.62032e-20)
(0.504324 0.155233 -1.71564e-20)
(1.19412 0.0321341 0)
(1.42098 0.334825 5.41785e-20)
(1.27039 0.582617 2.16363e-20)
(0.222744 -0.0323028 -3.02855e-20)
(1.17948 0.0747407 4.56534e-20)
(0.938697 -0.0100088 1.17759e-21)
(0.962808 0.0207719 -1.32887e-21)
(0.0133516 0.00983301 0)
(0.626649 -0.61082 -3.36948e-20)
(0.620108 0.243179 0)
(-0.0501198 -0.0273072 0)
(-0.0560923 0.111916 0)
(-0.069213 0.047228 -3.46672e-20)
(1.1844 -0.0329828 -5.57461e-21)
(0.000448839 0.131735 0)
(-0.0465494 0.165114 0)
(1.42431 0.0394464 -9.81512e-20)
(-0.0287515 0.0123622 4.34558e-20)
(0.120063 0.263287 -9.57911e-20)
(0.479016 0.0144983 0)
(0.162816 -0.244543 8.42081e-20)
(1.08015 -0.23041 0)
(0.982507 -0.262914 0)
(-0.0387482 0.0407247 8.7863e-20)
(1.12612 0.0083363 -1.17032e-22)
(1.15123 0.350364 2.21664e-20)
(0.31209 0.0280592 6.01486e-20)
(0.38991 -0.490932 -4.6131e-20)
(1.47633 -0.0335971 0)
(1.34691 0.162737 2.97358e-20)
(1.31217 0.184847 -3.64997e-20)
(0.105452 0.12407 -2.29807e-20)
(-0.0574109 0.246472 0)
(1.06763 -0.0494378 -1.98228e-20)
(1.08503 -0.204218 -2.09715e-20)
(0.570802 -0.361649 0)
(1.0922 -0.142775 -2.94693e-20)
(0.148621 -0.0187189 0)
(0.794215 0.041643 0)
(1.45502 0.00423988 2.40061e-20)
(0.989932 -0.00139454 8.22914e-22)
(1.12172 0.77612 -3.80622e-21)
(0.216089 -0.351719 1.43114e-19)
(1.0578 -0.0139766 -3.17444e-21)
(1.19458 0.0403471 1.50735e-21)
(-0.0584448 0.226817 4.26613e-20)
(0.8294 0.771635 1.37601e-20)
(1.32297 -0.350416 -1.31904e-20)
(-0.0290773 -0.352653 5.33397e-20)
(1.17293 0.0439814 0)
(0.667493 -0.280872 -1.29742e-20)
(0.878506 -0.615918 2.02816e-21)
(0.952058 0.673375 -3.86766e-20)
(0.556372 -0.0255443 -5.62315e-20)
(1.11982 -0.0237801 -8.34017e-21)
(1.07459 -0.0825927 9.36661e-21)
(1.1272 0.083071 5.61593e-21)
(1.10895 0.109705 1.52207e-21)
(1.12494 -0.122859 0)
(1.0305 0.0873366 1.99793e-20)
(0.94766 0.480697 0)
(1.26972 0.162516 1.66527e-21)
(1.16486 0.0773319 -1.85952e-21)
(0.81946 0.275734 0)
(0.58592 0.115066 1.36281e-19)
(0.931866 0.748851 -1.93485e-22)
(1.09843 0.29088 -1.70233e-20)
(1.04229 -0.0101578 1.58197e-20)
(0.430412 0.54003 0)
(1.27041 -0.451099 0)
(0.904521 -0.395499 4.56129e-21)
(1.3282 0.51409 0)
(-0.00741169 0.0745717 -5.7852e-20)
(1.25845 -0.397024 7.56787e-21)
(1.20526 0.522311 0)
(0.458778 0.266137 1.63434e-19)
(1.20385 0.324065 -1.55813e-19)
(0.792895 -0.599281 -3.03513e-20)
(1.14415 0.0808158 1.27001e-21)
(1.0123 0.15448 1.08558e-19)
(1.10166 0.161494 4.08694e-20)
(1.11996 0.733446 -5.06503e-21)
(0.885245 -0.405173 7.16227e-20)
(1.46079 0.0877507 5.43746e-20)
(1.10939 -0.0107692 -1.18272e-21)
(0.00725093 0.0194748 8.1208e-20)
(1.05739 -0.675376 1.1298e-20)
(0.847756 -0.685566 6.5377e-20)
(0.242193 -0.276135 0)
(0.967181 -0.132676 7.76335e-20)
(0.373393 0.359199 -4.24269e-19)
(-0.231826 -0.0130249 1.48952e-20)
(0.371711 0.0707604 3.16772e-20)
(0.68176 -0.0522295 -6.65189e-20)
(1.11842 0.552569 0)
(1.00072 0.230144 7.30397e-20)
(1.08509 0.0221807 3.02034e-21)
(0.944074 0.472265 -8.24407e-20)
(0.758513 -0.695553 -1.10859e-20)
(0.931186 0.0436998 -4.87621e-20)
(1.0066 0.5147 0)
(1.19968 0.338499 -1.78541e-20)
(1.35333 -0.494269 1.00137e-20)
(1.20601 -0.319882 7.99359e-21)
(0.0142253 -0.341214 5.272e-20)
(0.194476 0.0625198 -1.80194e-20)
(0.968341 -0.103294 -5.84288e-20)
(0.373298 0.572108 0)
(0.928476 0.0395277 3.88549e-20)
(1.21444 0.658969 1.09396e-19)
(-0.227281 -0.0351331 1.20752e-19)
(-0.0537767 0.269358 -3.65242e-20)
(-0.0906462 0.16378 4.48133e-20)
(1.08906 0.00350614 -3.97073e-21)
(1.11414 -0.447031 0)
(1.03982 -0.700348 -5.61667e-20)
(0.716203 0.386845 0)
(-0.0868593 0.00375705 -7.37747e-20)
(1.09194 -0.0217995 1.06434e-20)
(-0.0231873 0.141267 -2.60905e-20)
(1.05278 0.0439601 -1.25155e-20)
(0.140858 0.0358063 7.501e-20)
(0.963046 0.126614 0)
(1.37013 -0.0834652 2.65162e-20)
(0.151198 0.105367 -3.59599e-20)
(-0.196529 -0.151349 -6.25734e-20)
(-0.279916 -0.0744401 0)
(0.0974663 0.0203904 0)
(1.33391 -0.0306622 -4.4226e-21)
(0.389225 -0.00424119 1.36783e-19)
(1.23828 -0.698663 -5.52952e-21)
(0.975892 -0.38741 6.67572e-21)
(1.09035 0.250815 -2.38254e-20)
(0.352367 -0.510511 1.47686e-19)
(1.61798 0.219221 -4.741e-20)
(0.0351396 0.0445723 3.05614e-20)
(0.216295 0.360154 1.89092e-19)
(0.0854103 0.0442433 -1.16813e-19)
(0.927148 -0.462659 -4.62092e-20)
(1.52334 0.372081 4.84063e-20)
(0.544816 -0.638701 5.45864e-20)
(1.10163 -0.0721373 -8.95774e-21)
(0.124751 0.0521613 3.79331e-20)
(1.28643 0.289325 -6.46296e-20)
(0.688114 0.683062 -3.48498e-20)
(1.31189 -0.60266 0)
(1.50073 0.523843 4.37453e-20)
(1.03052 -0.500488 -1.13675e-20)
(1.45625 0.619382 -1.41485e-19)
(1.17735 0.0619572 0)
(-0.0529682 0.171139 0)
(1.3059 0.753785 0)
(1.21344 0.134966 -5.66467e-21)
(0.7259 -0.266615 -2.1197e-19)
(0.477361 -0.0406616 0)
(-0.0394384 0.230958 -3.61039e-20)
(1.01174 -0.228932 1.09756e-19)
(-0.203957 -0.288344 0)
(0.324443 0.0760906 1.21774e-20)
(1.13638 0.0547599 0)
(1.5097 0.245091 0)
(1.17917 0.0788921 -1.35987e-21)
(0.35425 -0.243406 0)
(1.02155 0.151738 3.30773e-20)
(1.38986 0.267208 0)
(-0.0523782 0.251324 -1.59048e-21)
(0.802091 -0.359764 0)
(1.57421 0.296034 -7.16535e-20)
(1.27476 0.369315 -9.58368e-21)
(0.873118 0.683966 -8.50272e-21)
(1.02055 0.153148 -8.07507e-20)
(0.955537 -0.186462 -5.27436e-20)
(1.51976 0.259913 4.19078e-20)
(1.19995 0.0208683 0)
(0.566968 -0.0332769 0)
)
;

boundaryField
{
    FrontBack
    {
        type            empty;
    }
    Top
    {
        type            noSlip;
    }
    In
    {
        type            fixedValue;
        value           uniform (1 0 0);
    }
    Bottom
    {
        type            noSlip;
    }
    Out
    {
        type            zeroGradient;
    }
    circle
    {
        type            noSlip;
    }
}


// ************************************************************************* //
