/*--------------------------------*- C++ -*----------------------------------*\
| =========                 |                                                 |
| \\      /  F ield         | OpenFOAM: The Open Source CFD Toolbox           |
|  \\    /   O peration     | Version:  2412                                  |
|   \\  /    A nd           | Website:  www.openfoam.com                      |
|    \\/     M anipulation  |                                                 |
\*---------------------------------------------------------------------------*/
FoamFile
{
    version     2.0;
    format      ascii;
    arch        "LSB;label=32;scalar=64";
    class       volVectorField;
    location    "25.3";
    object      U;
}
// * * * * * * * * * * * * * * * * * * * * * * * * * * * * * * * * * * * * * //

dimensions      [0 1 -1 0 0 0 0];

internalField   nonuniform List<vector> 
808
(
(0.895463 -0.0112272 0)
(1.01824 -0.0368255 0)
(1.14808 -0.0869142 0)
(1.06775 0.0103412 -2.44109e-21)
(1.4824 -0.280542 0)
(0.955618 -0.024397 0)
(1.12719 -0.0542702 -2.54027e-21)
(1.14076 -0.0483995 0)
(1.35498 -0.222828 2.58195e-20)
(1.22767 -0.0854304 -7.65027e-21)
(1.18256 0.0348396 9.12906e-21)
(1.38663 -0.247356 0)
(0.999636 -0.0476602 0)
(0.742931 -0.0229 0)
(0.895092 0.0846146 1.45551e-20)
(1.08583 -0.0374967 0)
(0.782752 0.0365903 -4.67429e-21)
(0.983395 -0.0335247 -7.77833e-23)
(1.16971 -0.0315659 0)
(1.1144 0.000363847 0)
(1.1872 0.0196506 -1.27392e-20)
(0.928094 0.121602 1.15341e-19)
(1.07542 0.0140116 -1.53915e-20)
(1.17559 -0.0358217 0)
(0.949704 0.179025 0)
(1.35373 0.0815968 -2.62637e-20)
(1.28368 -0.168191 8.57212e-21)
(0.960072 -0.0303798 -4.25657e-21)
(1.07125 -0.025957 0)
(1.04433 0.0314075 -2.67811e-22)
(0.974824 -0.0210156 3.90487e-24)
(1.12199 -0.016262 0)
(1.06453 0.0389528 0)
(1.07031 -0.024329 3.48612e-21)
(1.2993 -0.0675286 7.91641e-21)
(0.743109 -0.120146 1.12038e-19)
(0.874151 -0.0290702 -7.39096e-21)
(1.03492 0.0307815 1.4801e-21)
(1.19896 0.0561451 -2.55857e-21)
(1.10676 0.0363097 0)
(1.25426 -0.0620242 -1.45808e-20)
(1.27461 -0.127414 0)
(1.01138 -0.00261813 -9.12963e-21)
(1.12525 -0.0309715 9.78851e-21)
(1.26828 -0.0197202 0)
(1.01094 0.0174067 -2.20295e-20)
(1.00117 0.0363889 2.34916e-21)
(1.25626 -0.244935 6.99432e-21)
(1.18032 0.0520273 -5.29835e-21)
(1.40842 -0.166395 -3.73005e-20)
(1.12076 -0.055576 5.31845e-21)
(1.14687 -0.067381 0)
(1.12101 0.000574886 8.15065e-21)
(1.15991 -0.0101396 0)
(1.31491 0.241243 2.74886e-21)
(1.07846 0.0410838 -2.09477e-21)
(1.2343 0.0117109 0)
(1.24395 -0.0142297 3.7079e-21)
(1.23302 -0.0890147 8.2121e-21)
(1.14759 0.0246626 -2.48227e-22)
(-0.320479 0.274943 0)
(1.21696 -0.212471 -7.04346e-21)
(1.22756 -0.0291642 0)
(1.41629 -0.0671164 -2.75522e-20)
(1.14954 -0.0226393 -1.04761e-20)
(1.0429 -0.0284917 -8.95015e-21)
(1.37061 -0.100083 2.96038e-20)
(0.655857 0.0198666 0)
(1.13901 -0.0235745 0)
(1.45539 -0.349869 0)
(0.898259 0.0319068 -2.00668e-22)
(1.27034 -0.134506 -4.2444e-20)
(1.01323 0.0551795 0)
(1.0577 -0.0351358 -3.49204e-21)
(1.12828 -0.336748 -5.63894e-20)
(1.11368 -0.0375808 -1.32569e-20)
(1.14268 0.0162477 2.11245e-22)
(1.31174 0.4957 2.44375e-20)
(1.10331 -0.0435275 0)
(1.01038 0.27743 -1.92617e-19)
(1.36382 0.0490604 1.4855e-20)
(0.746126 0.015992 0)
(0.844033 0.0283214 -1.09966e-20)
(0.969833 -0.111032 4.26211e-21)
(1.10925 -0.0425273 1.05232e-20)
(1.18474 0.00722793 1.16802e-21)
(1.30354 -0.232749 0)
(1.33994 0.287996 0)
(1.08784 0.000820509 -1.26417e-20)
(1.38112 0.117923 2.99532e-20)
(1.07743 -0.0193713 1.18499e-20)
(1.32061 -0.113919 -1.44052e-21)
(0.964596 0.024836 1.82983e-20)
(1.00407 -0.0229424 0)
(1.11497 0.0185882 1.83638e-21)
(1.31638 -0.0210736 -7.25415e-20)
(0.755369 0.0186029 -2.94846e-21)
(1.38196 -0.0362644 0)
(1.32045 -0.0825017 0)
(1.43074 -0.0673035 -4.67688e-20)
(1.10285 -0.0482496 -3.94113e-21)
(1.12218 0.00641176 -5.48788e-23)
(0.948864 0.0200875 1.05076e-20)
(1.17746 -0.00792773 -2.48354e-22)
(1.29015 0.0137174 -1.86349e-20)
(1.00357 0.00553449 1.51402e-20)
(1.48293 -0.0480212 0)
(0.91884 0.1093 0)
(1.10022 0.0285728 4.29616e-21)
(1.20706 -0.216705 -6.89885e-21)
(1.25647 0.00306519 8.8104e-21)
(1.04454 0.0441161 -1.27033e-19)
(1.16021 0.0359432 -1.57905e-21)
(1.2531 0.144091 1.89738e-21)
(0.795672 0.0198812 0)
(0.918301 -0.0504535 7.69541e-20)
(1.14652 0.0156018 -4.74928e-21)
(1.45039 -0.257576 -1.88048e-20)
(1.13662 -0.0411091 -7.33708e-21)
(0.928941 0.0174352 2.38681e-21)
(-0.431317 0.0344312 0)
(0.860734 -0.0176443 2.36462e-21)
(0.80177 0.0217027 0)
(1.06133 0.00293638 -8.88564e-23)
(1.01182 0.0288126 0)
(1.30379 0.324261 4.46903e-21)
(1.03637 -0.0520985 -3.08727e-20)
(1.41534 0.122027 -1.00534e-21)
(1.14851 -0.0631161 0)
(1.09378 -0.0211801 0)
(0.673081 -0.004746 0)
(1.14687 -0.0391186 -3.51224e-21)
(1.23943 -0.0484196 8.14273e-21)
(1.06572 0.111588 -3.64821e-20)
(0.852483 -0.0300926 0)
(1.10323 0.0205776 -1.16266e-21)
(1.06076 0.133911 4.43648e-21)
(1.15576 0.0563793 -1.32896e-21)
(0.99716 0.0320089 3.48998e-21)
(1.12548 0.00470891 4.6006e-23)
(-0.0217459 0.0327454 0)
(1.09505 -0.0225515 -1.31526e-20)
(1.02027 -0.0358698 3.7997e-21)
(0.721659 0.0246705 -3.45489e-21)
(1.25562 0.173753 4.10251e-21)
(1.11754 0.210867 2.86775e-21)
(1.04636 0.0176513 1.64721e-20)
(0.991242 0.0263171 0)
(1.22196 -0.141738 -2.88652e-20)
(1.11343 0.133378 0)
(0.946406 0.0322111 7.07188e-21)
(0.966887 0.276861 1.53865e-19)
(0.971053 0.0354369 0)
(0.818343 0.0925891 0)
(-0.104643 0.0186269 -6.11169e-20)
(1.33817 0.141526 -9.58333e-21)
(0.681814 -0.0219119 0)
(1.43845 0.0675403 0)
(1.12166 0.0350611 0)
(1.35387 0.114601 1.11325e-20)
(-0.0494305 -0.127341 0)
(-0.0573772 0.0381431 2.87028e-20)
(1.05371 -0.0292365 9.0401e-20)
(1.00715 0.0373115 9.22904e-22)
(0.860639 -0.000197927 0)
(1.03994 -0.049144 1.06028e-20)
(0.89102 0.0213131 0)
(0.795005 -0.0200339 -9.76811e-20)
(1.04037 0.0481183 8.75852e-21)
(1.14957 -0.0361378 3.3624e-21)
(1.09382 0.00911096 6.02033e-21)
(1.01318 0.0681417 -1.30417e-20)
(0.825578 0.212786 -2.85494e-21)
(1.14114 -0.350165 5.43885e-22)
(0.916287 -0.0250364 0)
(1.06831 0.00121071 -1.32094e-20)
(0.873951 0.00860706 -1.224e-20)
(1.37932 -0.159515 2.18709e-21)
(0.68637 0.0277684 0)
(1.06886 -0.140783 0)
(1.14491 -0.042417 4.57309e-21)
(1.3818 0.21996 7.5555e-21)
(1.11441 0.0138681 4.28977e-21)
(1.03585 0.0181716 1.94545e-20)
(0.658147 0.108145 -6.48867e-20)
(0.81303 0.00343331 2.16511e-20)
(1.13877 -0.0194468 5.33918e-21)
(1.36952 -0.0507205 -4.79842e-21)
(1.13085 -0.0335138 -6.03147e-21)
(1.30922 -0.0356998 4.1118e-21)
(-0.105798 0.0513823 4.40594e-20)
(1.26162 -0.0251804 0)
(0.625512 -0.0156963 0)
(1.06216 -0.0270069 -6.28525e-21)
(1.09843 0.0107962 5.8212e-21)
(0.0179962 0.0798228 0)
(0.883089 -0.0252314 4.60696e-22)
(1.15601 -0.0595834 -2.73956e-21)
(0.957954 0.0292619 1.40062e-21)
(1.0783 0.0409559 -8.17795e-21)
(1.00476 0.0193246 2.63245e-21)
(1.06013 -0.0501397 2.41662e-21)
(1.05828 0.03176 0)
(0.363155 -0.0397595 0)
(1.04761 -0.0643024 0)
(1.11655 0.111599 -2.359e-20)
(-0.049717 -0.127707 4.73258e-20)
(1.08525 0.0423591 -1.24029e-23)
(1.0925 -0.0812611 0)
(0.758394 0.0213386 -6.65635e-21)
(1.08578 0.0915933 1.82645e-21)
(-0.00373292 -0.0405405 -1.57033e-19)
(0.852854 0.0409301 -5.51731e-20)
(0.637956 -0.0167839 0)
(0.845593 0.111818 0)
(0.931756 0.0365638 7.19892e-21)
(1.04027 -0.109193 6.09748e-21)
(1.26998 0.397182 -5.73353e-21)
(1.06134 0.0586578 1.48277e-23)
(1.24229 -0.0485731 -2.02871e-21)
(0.964011 0.143388 0)
(1.35275 0.422769 -2.74347e-20)
(0.667679 -0.0240763 0)
(0.796649 -0.0242566 -3.42423e-21)
(1.0574 -0.0327059 3.12299e-22)
(0.598705 0.0136764 0)
(1.10042 -0.00634585 0)
(0.0873841 0.0951053 -4.58698e-20)
(1.21683 -0.134189 -2.84575e-22)
(0.716692 -0.0161398 2.19692e-21)
(0.990084 -0.00259624 0)
(0.550358 -0.0179246 0)
(0.750054 -0.0202062 -3.01478e-21)
(0.539955 -0.0169252 -3.55984e-22)
(1.35473 0.0468422 2.78961e-22)
(1.24197 -0.0459107 -1.45609e-21)
(0.694199 0.0199701 -2.10326e-21)
(1.1556 -0.019182 2.16119e-22)
(1.11181 0.0210853 -1.39714e-23)
(0.546194 0.0161508 5.77583e-21)
(1.27212 -0.011877 3.9305e-22)
(1.21001 -0.0451576 0)
(0.873185 0.113149 0)
(0.48736 0.0195736 0)
(1.05743 -0.02316 0)
(1.16161 0.0140087 -1.52921e-22)
(1.03688 -0.0058697 0)
(1.1982 -0.0350079 0)
(0.990032 0.0277434 0)
(1.13993 0.164717 0)
(-0.028845 -0.0589504 4.83082e-20)
(1.20164 0.0316879 1.18012e-22)
(1.10189 0.0758389 0)
(1.29765 0.00952197 8.73031e-21)
(1.15446 0.0596707 1.13705e-21)
(1.12804 0.0380189 1.04202e-21)
(1.14054 -0.106013 4.58471e-21)
(1.14831 -0.000703513 0)
(0.576195 -0.0167274 6.58288e-21)
(1.05078 0.0449542 1.26844e-20)
(1.3098 -0.139933 0)
(1.18325 0.0255172 -1.90969e-21)
(1.20948 0.0787409 2.67955e-21)
(0.664437 -0.0009769 8.41193e-21)
(1.13607 0.0141265 6.55194e-21)
(1.16869 0.0170264 -5.50577e-21)
(1.10677 0.0634656 0)
(1.20142 0.154622 -1.0673e-20)
(1.22142 0.11364 7.15124e-22)
(0.640668 0.0211402 1.46659e-20)
(0.770944 -0.147729 0)
(-0.016785 -0.0233931 0)
(0.972445 0.110271 -1.83894e-20)
(1.12261 -0.0121093 0)
(1.33449 -0.106069 3.27365e-20)
(1.25421 0.060747 2.73618e-22)
(1.13143 0.0477994 5.29285e-21)
(1.20634 0.0633865 -2.54324e-21)
(1.35973 0.0106111 1.02261e-19)
(1.0224 -0.328147 5.6931e-20)
(1.13117 -0.0549335 1.99358e-22)
(0.871706 -0.125751 0)
(0.879275 -0.00605033 0)
(0.905668 0.00346209 -2.78311e-20)
(1.34515 -0.135789 -6.46516e-20)
(1.12125 -0.036219 0)
(0.601829 0.212985 1.79866e-20)
(0.423508 0.00854042 0)
(0.683639 -0.162389 5.09922e-21)
(0.785887 0.120324 -2.11532e-20)
(0.815714 0.0254702 -4.59393e-21)
(1.17244 -0.100353 0)
(1.30717 0.0688905 -3.19181e-22)
(1.18961 0.0205554 2.01735e-21)
(0.719553 -0.139315 -2.60698e-21)
(1.15239 -0.0462546 -4.17734e-21)
(0.677439 -0.159398 0)
(1.09219 0.0731766 0)
(1.1742 -0.145264 4.13107e-21)
(0.844458 -0.160826 -5.15114e-21)
(1.32837 0.119325 -6.53171e-22)
(1.10831 -0.0505691 -3.67036e-21)
(0.999294 -0.052819 -4.2241e-23)
(1.08038 -0.019308 0)
(0.424111 -0.140632 1.42029e-20)
(1.3411 0.101693 -1.82051e-20)
(0.788019 -0.0476639 -1.74779e-20)
(0.0848266 -0.265171 -8.89626e-21)
(1.42228 -0.11823 2.51181e-20)
(0.869843 0.0528894 5.94674e-20)
(1.27793 -0.109977 -4.36665e-21)
(1.09017 -0.0508683 5.66452e-22)
(-0.06219 -0.120362 -8.10748e-21)
(1.00013 -0.00647416 0)
(1.03286 -0.0876513 -1.60901e-20)
(0.852402 -0.0347884 8.16812e-21)
(1.11085 -0.0403695 4.14793e-21)
(0.872007 -0.0813193 8.70156e-22)
(0.511724 -0.022961 2.37852e-22)
(1.42307 -0.381729 -1.58607e-20)
(1.0942 0.0330813 0)
(1.00722 0.0213319 1.11715e-22)
(1.13034 0.0297837 -2.79756e-21)
(1.21565 -0.0257799 0)
(0.686852 -0.0450447 -8.74542e-21)
(1.11888 0.0447414 3.24106e-21)
(0.694477 0.00570536 3.26576e-21)
(1.15579 -0.0563923 5.71287e-21)
(0.814781 -0.117207 4.99219e-21)
(-0.0384825 -0.0666078 0)
(0.245365 -0.0896696 3.61167e-21)
(1.13128 0.00819473 0)
(0.981353 -0.0473925 5.46605e-21)
(0.968037 0.0652864 0)
(1.13544 -0.00931422 3.80068e-21)
(1.01678 0.0273806 0)
(1.07447 -0.0942962 0)
(1.38945 -0.104042 2.03088e-20)
(0.798993 -0.0915127 0)
(1.06177 0.0796309 2.18759e-20)
(1.12444 -0.0190505 1.58578e-22)
(1.04282 0.0326697 3.36189e-21)
(1.32974 -0.0659197 -1.91324e-20)
(1.24141 0.130234 -2.2401e-21)
(1.28302 -0.0902957 1.67927e-21)
(1.10733 0.0412984 0)
(1.15252 -0.048811 0)
(1.09026 0.0660722 2.12192e-21)
(1.24248 -0.0400147 0)
(1.38585 0.217579 -2.07515e-20)
(0.808627 0.0611167 2.72234e-21)
(1.02683 0.0174526 2.38734e-20)
(1.23887 -0.00156634 -1.76244e-22)
(-0.0095791 -0.025517 0)
(-0.0377767 -0.0947209 0)
(0.0589407 0.122209 -4.36369e-20)
(-0.0581953 -0.109746 0)
(0.592378 0.184638 -4.42295e-21)
(1.17958 0.04648 -1.97322e-21)
(1.13145 -0.038696 -5.17397e-21)
(1.19751 -0.140903 -8.48412e-21)
(1.22255 -0.0640976 0)
(0.682027 -0.0176969 -1.89209e-21)
(1.12951 0.0837012 0)
(1.10613 0.0339886 2.93275e-23)
(0.514963 -0.110464 0)
(0.647547 0.13985 -4.6286e-22)
(1.14001 0.0846615 0)
(1.17443 0.0315251 0)
(0.524356 0.132569 3.28563e-20)
(0.460162 0.212866 -1.32441e-21)
(0.910411 0.138451 2.88365e-21)
(1.01004 0.0178136 -9.26208e-21)
(0.215153 -0.081097 0)
(1.21276 0.0380398 -1.8195e-20)
(1.24765 0.0223982 -2.66748e-21)
(1.17745 -0.0266691 2.89964e-21)
(0.463923 0.047181 1.26272e-20)
(-0.0546687 -0.0916545 -9.59599e-20)
(1.18946 0.082093 0)
(-0.0310499 0.0308443 0)
(1.23323 0.056814 5.6912e-22)
(0.292158 0.0349681 -1.35879e-20)
(1.15308 0.0224705 -1.36919e-20)
(1.109 -0.0446853 0)
(1.13607 -0.0138954 3.58479e-21)
(1.28553 -0.281855 2.75729e-20)
(0.567697 -0.0449981 -1.00958e-20)
(1.14323 -0.0419395 -7.16447e-22)
(1.14771 -0.0637209 -2.22733e-22)
(0.473871 -0.331205 3.43996e-20)
(1.18396 -0.0714262 -1.57237e-20)
(1.14425 0.0244725 0)
(1.18538 0.0979591 0)
(1.17459 -0.0998412 3.46636e-21)
(1.22468 0.0344815 2.41068e-21)
(0.830778 -0.217092 -8.53961e-20)
(1.19358 -0.113933 -1.3267e-20)
(1.14919 0.0483842 3.89574e-21)
(0.516944 -0.000789807 1.37878e-20)
(0.334454 0.171742 -6.58223e-20)
(0.209246 -0.0426289 4.87728e-20)
(1.16881 0.187524 -6.40056e-21)
(1.24343 -0.497349 6.06155e-21)
(1.32207 0.0315105 -9.92114e-21)
(1.2037 -0.0674687 -4.10785e-21)
(0.94041 -0.238719 9.46441e-20)
(-0.307069 -0.0257611 0)
(1.20696 0.00807675 -5.04566e-22)
(-0.211228 0.00191353 -2.4542e-20)
(1.22029 0.0933444 -4.92499e-22)
(1.23202 -0.0880851 4.11597e-21)
(1.08642 0.0325063 0)
(0.455167 -0.0949555 0)
(1.16739 -0.0503615 0)
(1.32027 0.0833356 -2.71963e-21)
(1.24213 -0.0244641 -1.83876e-20)
(1.14894 -0.0476355 -2.16706e-21)
(0.451966 0.0166713 0)
(0.602454 0.0108607 0)
(0.60398 -0.00290491 5.29918e-22)
(0.422055 -0.013984 0)
(1.23557 0.0287969 0)
(1.02216 -0.0147069 2.42931e-20)
(0.24956 -0.27706 0)
(0.937593 0.0454146 0)
(1.11394 -0.00191244 0)
(1.16843 0.186515 -1.22046e-20)
(1.24975 0.00970451 5.03824e-21)
(0.967131 -0.0318615 7.65476e-21)
(1.3094 -0.402342 -1.13289e-19)
(0.559792 -0.273298 6.61858e-21)
(1.22197 0.125665 4.79277e-21)
(1.15628 0.0495739 0)
(-0.18156 -0.0425412 0)
(-0.227664 0.197976 0)
(1.16953 -0.0368721 -4.51034e-21)
(1.32876 -0.287979 -2.81497e-20)
(1.33107 0.0253766 0)
(1.0773 0.0513872 -7.83215e-21)
(0.595152 -0.0164042 0)
(1.5166 -0.154313 7.76774e-20)
(0.408915 0.514128 1.25227e-19)
(0.305901 -0.0515696 0)
(1.1156 -0.278248 1.21619e-19)
(0.0382251 0.195701 0)
(-0.0832272 -0.416156 1.37028e-20)
(1.30695 0.0318032 0)
(-0.209112 0.169208 5.56316e-21)
(0.983597 -0.0499461 0)
(1.29103 -0.141926 -1.45064e-20)
(-0.145415 -0.00801237 -7.96124e-21)
(1.13002 -0.0337217 8.48223e-22)
(1.11778 0.0690534 -1.12021e-20)
(0.578547 -0.525349 -9.17039e-20)
(1.15268 0.0744067 -1.72349e-21)
(1.19552 -0.12406 3.26073e-21)
(1.17497 0.24895 -2.57864e-20)
(1.17728 -0.278313 -4.3056e-21)
(1.17103 -0.0228429 -2.52748e-22)
(-0.0695643 0.144391 -6.16349e-20)
(0.0122133 0.07763 -6.2318e-21)
(1.32522 0.170007 3.16566e-21)
(1.05771 -0.0486439 0)
(0.576368 0.220246 3.36035e-22)
(1.41581 -0.442241 8.63512e-20)
(0.965237 -0.0748848 -6.44483e-20)
(1.40621 0.167833 5.97145e-20)
(1.07897 -0.0351041 4.13106e-21)
(1.14798 0.014515 1.3209e-20)
(1.06186 -0.00745119 0)
(1.17474 -0.0262 0)
(1.2541 -0.125682 3.33839e-21)
(1.08843 -0.0192237 -4.55345e-21)
(1.14829 -0.208734 4.95126e-21)
(1.11177 0.0605873 -5.10953e-21)
(1.40424 -0.0128746 -4.21928e-20)
(0.408319 0.0251544 0)
(1.13418 -0.0807851 1.07946e-20)
(1.28616 0.0172485 0)
(1.1308 0.0618397 -2.53109e-21)
(1.14566 0.0265029 0)
(1.0409 -0.00877905 1.27957e-20)
(1.2409 0.0442115 1.12485e-20)
(1.02021 0.0214825 0)
(0.0580192 -0.0289973 1.64542e-19)
(0.884588 -0.217792 -7.4234e-20)
(1.26528 0.0409635 -2.74612e-20)
(-0.112314 -0.0343077 3.87268e-20)
(1.18792 0.0193573 1.95602e-22)
(0.654626 0.0840293 -3.32179e-21)
(-0.0947697 -0.0175456 -4.0371e-20)
(-0.0191167 -0.0148581 -2.45824e-20)
(1.02096 -0.0289403 0)
(-0.0322951 -0.0434559 0)
(1.15714 0.0217113 0)
(0.112626 -0.11136 0)
(1.11712 -0.0310672 0)
(0.146029 0.0293354 0)
(1.13226 0.0337597 0)
(1.12137 -0.0118791 0)
(1.41038 0.0731976 2.48445e-21)
(0.585108 -0.289749 -2.2387e-20)
(-0.133123 0.111383 0)
(1.17083 -0.0823391 6.70794e-20)
(1.30666 0.0896966 1.65651e-21)
(1.22679 0.0404108 0)
(-0.038484 -0.0443849 0)
(1.16575 0.0132964 4.23497e-22)
(1.17539 -0.0100522 -8.98014e-22)
(1.16182 0.387522 0)
(0.291966 -0.0774275 6.5876e-20)
(1.1226 0.0642275 1.51949e-21)
(0.242644 -0.0520663 -5.55245e-20)
(-0.0585439 0.038441 -2.75831e-20)
(-0.0352852 0.0482346 7.27661e-20)
(0.0377979 -0.1288 1.28855e-21)
(0.914967 0.103898 3.12577e-21)
(1.15721 0.0542549 -2.46922e-21)
(1.02456 -0.00758135 0)
(1.07047 -0.0678422 -2.14201e-20)
(1.23805 0.00737358 -5.41528e-21)
(-0.0116422 -0.0440115 9.72523e-20)
(0.98028 -0.0732375 -5.96444e-20)
(0.801019 0.149829 8.74327e-22)
(1.19395 0.123709 -1.06783e-22)
(0.079276 -0.0313677 3.57735e-20)
(0.254725 -0.0376798 -5.04449e-20)
(0.440811 -0.0551233 -5.97492e-20)
(1.29603 0.075537 -5.24238e-21)
(-0.0562006 -0.0432695 0)
(1.09036 0.208661 -2.70506e-21)
(1.0516 -0.129002 2.12744e-20)
(1.14395 -0.124286 -2.05135e-20)
(1.24706 0.0675818 0)
(1.52208 -0.21638 7.73427e-20)
(1.15761 0.0439792 -3.0343e-21)
(-0.0187896 -0.0543097 -3.39543e-20)
(0.240073 0.0811015 0)
(0.902304 0.0404207 -2.07597e-21)
(1.13078 0.0168365 3.61579e-22)
(0.83929 -0.112059 2.89922e-20)
(1.17051 0.0124756 6.1504e-22)
(1.11888 0.0540709 0)
(1.16342 -0.16767 -1.55972e-20)
(-0.0844737 -0.0605114 -7.09911e-20)
(1.29866 -0.0224853 1.96388e-20)
(1.09851 0.17425 -8.62637e-21)
(1.10149 0.063718 5.84369e-21)
(-0.0453792 -0.0746682 1.63034e-20)
(-0.0180626 0.0190845 -5.49887e-20)
(0.713882 0.113845 0)
(0.640056 0.0910531 0)
(1.15128 0.104659 -2.05669e-20)
(1.05089 0.0694267 1.42736e-20)
(1.1002 0.0365525 0)
(0.593176 0.0795377 5.31708e-20)
(0.698048 0.0864825 -9.67979e-21)
(1.0981 0.111366 0)
(1.09005 0.0605611 0)
(1.24252 0.0264122 0)
(1.20223 -0.0225309 0)
(1.13577 0.0852855 3.7743e-21)
(-0.0425477 0.0418716 3.01232e-20)
(1.27748 0.00471646 6.30019e-21)
(1.429 -0.179706 -8.83311e-20)
(1.1625 0.0375179 -5.74386e-21)
(-0.00315225 0.182133 0)
(1.1246 -0.0693764 0)
(0.614414 -0.0177499 -3.79471e-22)
(0.51643 0.00842936 -5.22912e-20)
(0.065704 0.0364503 4.28752e-20)
(0.924605 0.0214568 3.47835e-23)
(0.754812 -0.275296 0)
(0.693106 -0.0913752 0)
(1.12049 -0.0126939 0)
(0.535575 0.508856 1.45032e-20)
(-0.010817 0.000673782 -2.67453e-20)
(1.1331 0.0851187 -3.3231e-21)
(-0.0257669 -0.0851053 6.53952e-20)
(1.15208 -0.0490887 1.78412e-21)
(1.16816 0.315082 4.91839e-20)
(1.11229 -0.0847994 8.09813e-21)
(0.302721 0.105851 8.07107e-20)
(1.14193 0.204132 8.0589e-22)
(0.964844 -0.00865381 0)
(0.550435 0.267964 0)
(0.829288 0.00712429 4.86836e-21)
(-0.196241 0.0807036 0)
(0.605368 0.0289928 2.26296e-21)
(0.610816 -0.422586 -3.30272e-21)
(0.22994 0.0486954 -1.01996e-19)
(1.12815 -0.227544 3.08911e-20)
(1.03413 0.36097 1.07636e-20)
(0.980154 0.0158394 0)
(1.2189 0.0424324 1.19056e-22)
(0.627983 0.0165705 0)
(0.984796 -0.0219575 -6.55126e-22)
(0.45562 -0.0189643 0)
(0.712251 0.123445 0)
(1.00502 -0.0222925 -4.72104e-21)
(1.42753 0.184136 -1.03878e-20)
(1.13174 -0.0562764 1.69058e-21)
(0.527579 -0.497893 0)
(1.13619 -0.153747 1.90339e-21)
(0.801612 0.373444 7.35433e-20)
(-0.0404105 0.0200839 1.02334e-21)
(1.23885 -0.0121558 9.2124e-21)
(1.22679 0.0437479 -8.42005e-21)
(1.19632 -0.104695 7.07148e-22)
(0.794931 0.00924602 -5.03504e-21)
(0.0578951 0.0182612 3.26639e-20)
(-0.0175258 -0.0554525 -5.40823e-20)
(-0.187286 0.108313 0)
(-0.171007 0.221794 0)
(1.19588 -0.619253 3.33321e-20)
(1.1556 -0.0277737 2.4663e-22)
(0.898951 -0.469284 -4.52245e-20)
(1.09834 0.144589 5.19239e-21)
(1.35022 0.206851 2.81462e-20)
(0.597324 0.416088 0)
(0.244497 0.410646 -1.19675e-19)
(0.592778 0.474754 0)
(-0.0316486 0.118503 0)
(1.12906 -0.481366 0)
(-0.0406439 -0.0100404 -1.04102e-23)
(1.19209 -0.0140834 0)
(0.71411 -0.0399672 -1.85661e-21)
(0.589895 0.686274 2.00176e-20)
(1.25387 0.0349246 4.77077e-21)
(-0.0340552 -0.119982 -1.15805e-19)
(0.463709 -0.19902 -3.08493e-21)
(0.441569 0.142414 -1.22873e-20)
(1.20783 0.100538 0)
(1.34989 0.36057 2.74813e-20)
(1.21477 0.564398 1.79738e-21)
(0.14888 -0.014743 -1.91593e-20)
(0.968545 0.1335 2.61183e-20)
(0.938999 -0.0350536 6.25964e-22)
(0.898792 0.0239197 -1.9713e-22)
(-0.00325609 -0.0402813 0)
(0.651587 -0.660722 -3.01076e-20)
(0.612954 0.194473 0)
(0.0958191 -0.0926194 0)
(-0.0418242 0.0384668 0)
(0.00330932 -0.114375 -4.44042e-20)
(1.25188 -0.000902753 -1.05925e-20)
(-0.0361108 0.0333351 0)
(-0.0254413 0.0196386 0)
(1.45492 0.129662 -5.73633e-20)
(-0.0391074 -0.0979413 5.22264e-20)
(0.113988 0.230145 -1.03305e-19)
(0.37116 0.0154055 0)
(0.17103 -0.284042 8.16543e-20)
(1.10561 -0.24031 0)
(0.999177 -0.286942 0)
(0.0115453 -0.105677 1.10042e-19)
(1.15281 0.0425767 -1.60787e-22)
(1.11977 0.34176 3.09987e-20)
(0.251918 0.0277968 4.16126e-20)
(0.407101 -0.523641 -3.63784e-20)
(1.24727 0.0972304 0)
(1.19441 0.198958 1.90633e-20)
(1.20182 0.216005 -2.34192e-20)
(0.102048 0.0832117 -2.37642e-20)
(-0.0617644 -0.0315445 0)
(1.07091 -0.0573798 -1.94776e-20)
(1.10539 -0.223994 -1.52263e-20)
(0.585995 -0.411594 0)
(1.09828 -0.150339 -2.58928e-20)
(-0.0957295 0.199215 0)
(0.5503 0.0398996 0)
(1.38411 0.0200037 2.89031e-20)
(0.986037 0.0402809 4.3391e-22)
(1.07073 0.740484 -2.06661e-20)
(0.227299 -0.384199 1.31495e-19)
(1.11465 0.0480199 5.52057e-22)
(1.20896 0.0832314 -1.83295e-21)
(-0.0410684 0.0284449 2.62919e-20)
(0.780284 0.727399 3.33783e-20)
(1.35687 -0.367239 -1.37099e-20)
(-0.0501069 0.198792 6.36913e-20)
(1.13171 0.0248275 0)
(0.153049 0.0911746 -6.14122e-21)
(0.907356 -0.641096 2.97892e-21)
(0.890987 0.636637 -1.31648e-20)
(0.566318 -0.0330432 -6.63769e-20)
(1.14755 -0.00364428 -5.15178e-21)
(1.07558 -0.0830574 6.95363e-21)
(1.17539 0.0396452 5.48815e-22)
(1.10546 0.123114 6.08965e-21)
(1.13385 -0.125528 0)
(0.883814 0.11151 1.22354e-20)
(0.875317 0.455321 0)
(1.30598 0.0365495 1.99127e-21)
(1.16846 0.11862 2.26139e-21)
(0.738454 0.261936 0)
(0.506745 0.108852 9.7272e-20)
(0.887464 0.707405 -9.69057e-22)
(1.07282 0.289895 -2.38066e-20)
(1.04195 -0.00968033 1.22633e-20)
(0.413477 0.485017 0)
(1.30439 -0.473711 0)
(0.665258 0.0669488 5.23929e-21)
(1.25207 0.503092 0)
(-0.0249254 0.0424207 -3.65147e-20)
(1.2907 -0.415654 -1.02064e-20)
(1.15919 0.508773 0)
(0.452469 0.210263 1.72525e-19)
(1.10809 0.31549 -1.06654e-19)
(0.819796 -0.646772 -2.56578e-20)
(1.17413 0.0316441 -8.3779e-22)
(0.89685 0.15093 7.1103e-20)
(1.08529 0.169576 5.8578e-20)
(1.06276 0.700128 2.44174e-21)
(0.908263 -0.44311 6.50925e-20)
(1.42097 0.202167 3.06717e-20)
(1.13334 0.00951677 -1.06079e-21)
(0.00720613 -0.0694851 9.78044e-20)
(1.09016 -0.707124 2.84594e-20)
(0.876836 -0.725835 5.24117e-20)
(0.253389 -0.341687 0)
(0.973023 -0.150278 7.36439e-20)
(0.360959 0.300685 -4.47734e-19)
(-0.0914508 0.105713 2.49167e-20)
(0.213263 0.0286969 1.83828e-20)
(0.693538 -0.0580563 -7.79754e-20)
(1.07322 0.526635 0)
(0.987873 0.219937 8.54185e-20)
(1.08656 0.032129 4.17289e-21)
(0.90552 0.438274 -9.4819e-20)
(0.788538 -0.731698 -8.19188e-21)
(0.929104 0.0187173 -4.99885e-20)
(0.973393 0.486403 0)
(1.17356 -0.0176259 -3.52057e-21)
(1.38944 -0.51519 1.38539e-20)
(1.23241 -0.341169 9.8872e-21)
(-0.21966 0.228218 3.0186e-20)
(0.194998 -0.00466218 -1.83959e-20)
(0.975973 -0.121285 -5.91526e-20)
(0.350022 0.519115 0)
(0.91607 0.0113987 3.98297e-20)
(1.14633 0.633529 6.84304e-20)
(-0.0698929 -0.0279966 1.52328e-19)
(-0.0578668 0.0121534 -2.18417e-20)
(-0.0888437 -0.0889281 4.0597e-20)
(1.09923 0.0257564 -5.69458e-21)
(1.14245 -0.464162 0)
(1.07353 -0.740021 -4.10654e-20)
(0.696327 0.343673 0)
(0.0424161 -0.0288918 -1.1417e-19)
(1.12512 0.0449582 3.23127e-21)
(-0.0403434 -0.10765 -3.03479e-20)
(1.04733 0.0576788 -1.20773e-20)
(0.0976462 0.0225307 4.74106e-20)
(0.822492 0.126017 0)
(1.34417 -0.00491038 4.12445e-20)
(0.026177 0.0273915 -2.08726e-20)
(-0.197397 0.1971 -3.58583e-20)
(-0.227151 0.196523 0)
(0.0879884 -0.0205757 0)
(1.30464 -0.00872864 -1.23893e-20)
(0.392291 -0.0100542 1.61158e-19)
(1.27589 -0.730921 -2.46774e-20)
(0.920511 0.0538204 4.23953e-20)
(1.06706 0.250107 -3.39907e-20)
(0.371226 -0.56621 1.40393e-19)
(1.53279 0.292009 -2.84743e-20)
(0.084675 -0.0838305 3.82292e-20)
(0.207288 0.298008 1.99656e-19)
(0.112737 -0.0527902 -1.4238e-19)
(0.946563 -0.497657 -4.3523e-20)
(1.43979 0.391986 2.90255e-20)
(0.571771 -0.683634 4.87918e-20)
(1.1072 -0.0822806 -7.09429e-21)
(0.238389 0.0539902 6.22204e-20)
(1.16027 0.291639 -4.18016e-20)
(0.658077 0.63403 -4.27566e-20)
(1.34859 -0.626577 0)
(1.40127 0.519994 2.99599e-20)
(1.05886 -0.532603 -1.27893e-20)
(1.37609 0.605858 -8.3723e-20)
(1.17951 0.0108472 0)
(-0.0480525 0.0466964 0)
(1.24206 0.726964 0)
(1.2108 -0.0243097 -6.81056e-21)
(0.745151 -0.308219 -2.08857e-19)
(0.477602 -0.0899108 0)
(-0.0515848 0.0430559 -2.22874e-20)
(1.02367 -0.248417 9.8951e-20)
(-0.220052 0.188544 0)
(0.321657 0.0177217 1.24278e-20)
(1.14771 0.023067 0)
(1.3948 0.280817 0)
(1.19064 0.0299496 8.97196e-22)
(0.363334 -0.300316 0)
(1.01048 0.149363 4.07571e-20)
(1.29109 0.290677 0)
(-0.0763364 0.0279065 4.20893e-22)
(0.81505 -0.403039 0)
(1.50401 0.3485 -4.32213e-20)
(1.23321 0.369482 5.00424e-21)
(0.83625 0.641342 -1.03382e-20)
(1.00796 0.157524 -9.42178e-20)
(0.970663 -0.207028 -4.82113e-20)
(1.43789 0.301793 2.54565e-20)
(0.95689 0.103714 0)
(0.564249 -0.0779091 0)
)
;

boundaryField
{
    FrontBack
    {
        type            empty;
    }
    Top
    {
        type            noSlip;
    }
    In
    {
        type            fixedValue;
        value           uniform (1 0 0);
    }
    Bottom
    {
        type            noSlip;
    }
    Out
    {
        type            zeroGradient;
    }
    circle
    {
        type            noSlip;
    }
}


// ************************************************************************* //
