/*--------------------------------*- C++ -*----------------------------------*\
| =========                 |                                                 |
| \\      /  F ield         | OpenFOAM: The Open Source CFD Toolbox           |
|  \\    /   O peration     | Version:  2412                                  |
|   \\  /    A nd           | Website:  www.openfoam.com                      |
|    \\/     M anipulation  |                                                 |
\*---------------------------------------------------------------------------*/
FoamFile
{
    version     2.0;
    format      ascii;
    arch        "LSB;label=32;scalar=64";
    class       volVectorField;
    location    "17.6";
    object      U;
}
// * * * * * * * * * * * * * * * * * * * * * * * * * * * * * * * * * * * * * //

dimensions      [0 1 -1 0 0 0 0];

internalField   nonuniform List<vector> 
808
(
(0.891859 -0.011424 0)
(1.02355 -0.0350321 0)
(1.20611 0.028857 0)
(1.07048 0.0100761 -2.38106e-21)
(1.46767 -0.292191 0)
(0.960717 -0.030317 0)
(1.14108 -0.0476398 -7.34889e-23)
(1.10709 -0.0323823 0)
(1.34093 -0.230085 2.22047e-20)
(1.23009 -0.0976084 -6.45537e-21)
(1.22434 -0.0927826 4.18115e-21)
(1.37006 -0.259915 0)
(0.992514 -0.0380903 0)
(0.739531 -0.0230738 0)
(0.973815 0.0440597 2.02781e-20)
(1.07318 -0.0267339 0)
(0.868448 0.0471158 -6.69231e-21)
(0.991293 -0.0322583 -3.93074e-23)
(1.24906 0.0430987 0)
(1.12255 -0.000858818 0)
(1.26161 -0.0825504 -5.83535e-21)
(0.928701 0.125314 1.09562e-19)
(1.07486 0.0117666 -1.10477e-20)
(1.17997 -0.0455103 0)
(0.954006 0.18855 0)
(1.32788 0.0423416 -3.39004e-20)
(1.27483 -0.182753 6.07621e-21)
(0.964202 -0.0203489 -6.7032e-22)
(1.07457 -0.024714 0)
(1.04141 0.0404702 -2.015e-22)
(0.987594 -0.0257478 1.25988e-24)
(1.12737 -0.0194044 0)
(1.02919 0.0415308 0)
(1.07042 -0.0179047 6.00048e-22)
(1.30106 -0.0902591 7.57579e-21)
(0.74175 -0.109733 1.11717e-19)
(0.872818 -0.0283415 -2.13819e-21)
(1.0148 0.0418307 6.65995e-22)
(1.18787 0.0472072 -9.93994e-22)
(1.07856 0.039798 0)
(1.26187 -0.0828682 -1.46624e-20)
(1.2731 -0.141404 0)
(1.0054 -0.00131349 -5.52714e-21)
(1.12648 -0.0498486 3.90049e-21)
(1.21933 -0.0719641 0)
(1.01105 0.017326 -1.76152e-20)
(0.99176 0.0363787 8.61469e-22)
(1.24778 -0.253699 9.57467e-22)
(1.17375 0.056403 -1.07279e-21)
(1.39495 -0.191055 -3.20774e-20)
(1.139 -0.0460089 5.0738e-22)
(1.14984 -0.0759607 0)
(1.11987 -0.00353917 4.92434e-21)
(1.13426 -0.0181497 0)
(1.32571 0.230583 5.1446e-21)
(1.06896 0.0479851 -3.82416e-22)
(1.16768 -0.0278721 0)
(1.18732 -0.103894 2.54287e-21)
(1.23308 -0.103331 6.92935e-21)
(1.1491 0.0375482 7.32946e-22)
(-0.18581 -0.0126524 0)
(1.21262 -0.215103 -4.9928e-21)
(1.16583 -0.0749632 0)
(1.41979 -0.114318 -2.53605e-20)
(1.1391 -0.0605044 -4.7298e-21)
(1.03988 -0.0303587 -5.58368e-21)
(1.31164 -0.135064 2.43279e-20)
(0.626751 0.0164619 0)
(1.15382 -0.0719968 0)
(1.4276 -0.353391 0)
(0.884732 0.0287072 -1.03644e-22)
(1.22578 -0.144816 -3.78846e-20)
(1.00016 0.0458059 0)
(1.05568 -0.0503582 -1.69783e-21)
(1.118 -0.333809 -5.82669e-20)
(1.13998 -0.0524512 -3.09292e-21)
(1.1542 0.0222325 6.10001e-22)
(1.32382 0.498773 2.50514e-20)
(1.11343 -0.0407116 0)
(1.01537 0.285826 -1.80633e-19)
(1.35512 0.0157693 1.91313e-20)
(0.730721 0.0225028 0)
(0.841769 0.0354761 -5.64992e-21)
(0.967771 -0.108369 4.30321e-21)
(1.13198 -0.053245 2.44147e-21)
(1.20082 0.00693812 1.7445e-21)
(1.26905 -0.236435 0)
(1.35134 0.287508 0)
(1.09394 -0.00192089 -8.43592e-21)
(1.41991 0.0840415 3.74413e-20)
(1.08121 -0.0221301 1.07816e-20)
(1.31511 -0.133418 -1.27352e-21)
(0.965213 0.0266297 1.65908e-20)
(1.00421 -0.0239888 0)
(1.11612 0.0157919 1.12671e-21)
(1.24361 -0.0966128 -6.18387e-20)
(0.755366 0.0233606 -7.6268e-22)
(1.34939 -0.0605966 0)
(1.32177 -0.105114 0)
(1.40371 -0.10333 -3.89744e-20)
(1.10924 -0.0455666 -9.05086e-22)
(1.13118 0.00582003 3.82775e-23)
(0.954417 0.0234029 9.03278e-21)
(1.1945 -0.00349434 -7.17171e-22)
(1.33813 0.0071884 -2.41224e-20)
(1.00022 0.00660534 1.09663e-20)
(1.46169 -0.059028 0)
(0.902271 0.06717 0)
(1.09803 0.0345935 7.15647e-22)
(1.19725 -0.222402 -8.09352e-21)
(1.28982 -0.00853397 1.34947e-20)
(1.04868 0.0483502 -1.20976e-19)
(1.15933 0.0418106 -2.31979e-22)
(1.15908 0.123678 4.19702e-21)
(0.793626 0.0187009 0)
(0.917036 -0.0452503 7.61481e-20)
(1.15064 0.0225722 -1.38107e-21)
(1.41923 -0.265388 -1.61554e-20)
(1.1178 -0.053638 -3.34046e-21)
(0.925061 0.0142744 2.55371e-21)
(-0.302179 -0.0329281 0)
(0.862599 -0.0171338 2.069e-21)
(0.804264 0.0239317 0)
(1.06373 0.000987584 -8.19147e-23)
(1.01254 0.0286698 0)
(1.31497 0.321634 7.98877e-21)
(1.03344 -0.0556572 -3.08662e-20)
(1.30384 0.159508 1.95653e-21)
(1.14872 -0.0689835 0)
(1.09128 -0.0242344 0)
(0.555482 -0.0100221 0)
(1.1175 -0.039996 -1.82269e-21)
(1.25318 -0.0597079 8.47088e-21)
(1.06787 0.113559 -3.17433e-20)
(0.846573 -0.0205057 0)
(1.10734 0.0235401 -2.74685e-22)
(1.08248 -0.0202183 3.13569e-21)
(1.14452 -0.00187877 -9.3475e-22)
(0.987885 0.0355479 1.47691e-21)
(1.13396 0.00396336 -3.20895e-23)
(0.00329126 0.0736554 0)
(1.09674 -0.0252349 -1.20568e-20)
(1.16017 0.00616643 1.39521e-21)
(0.716387 0.0262872 -1.35348e-21)
(1.26399 0.171485 2.68344e-21)
(1.02467 0.055218 5.09363e-21)
(1.04979 0.0172638 1.57846e-20)
(0.990303 0.0261127 0)
(1.13629 -0.114735 -1.4833e-20)
(1.0326 0.0446601 0)
(0.934877 0.0318338 2.6438e-21)
(0.969057 0.285004 1.44562e-19)
(0.966958 0.036348 0)
(0.818157 0.103771 0)
(-0.100106 0.0637295 -6.8706e-20)
(1.34667 0.135131 -1.35649e-20)
(0.676325 -0.0237311 0)
(1.47019 0.0231846 0)
(1.12636 -0.0362487 0)
(1.36108 0.0867668 1.5551e-20)
(-0.0386214 -0.0693376 0)
(-0.0544397 0.0930386 3.31369e-20)
(0.962086 -0.0495839 7.27194e-20)
(1.00469 0.0404342 1.95908e-22)
(0.861321 0.000395819 0)
(1.03272 -0.0457196 5.06787e-21)
(0.895234 0.0222379 0)
(0.695792 -0.0262611 -7.86015e-20)
(1.02304 0.0489359 2.37321e-21)
(1.12422 -0.0558826 1.6902e-21)
(1.09863 0.00814302 4.41408e-21)
(1.01502 0.0708625 -1.11741e-20)
(0.694906 0.0126283 -5.07103e-21)
(1.13377 -0.349253 6.5033e-22)
(0.91609 -0.0254195 0)
(1.07097 -0.000538003 -1.27033e-20)
(0.875248 0.0104566 -9.31162e-21)
(1.37085 -0.177221 1.93357e-21)
(0.691351 0.0278584 0)
(1.03067 -0.143271 0)
(1.10802 -0.0518495 1.75875e-21)
(1.39447 0.216252 1.0801e-20)
(1.12008 0.0164447 2.64182e-21)
(1.03697 0.0166126 1.94794e-20)
(0.742695 0.0344393 -8.14185e-20)
(0.814867 0.00364031 1.75157e-20)
(1.13641 -0.018262 1.88105e-21)
(1.38421 -0.0969924 -4.68666e-21)
(1.10724 -0.0549262 -3.5095e-21)
(1.32055 -0.0623778 4.01592e-21)
(-0.104538 0.0864627 5.01633e-20)
(1.28064 -0.0486884 0)
(0.601425 -0.0200914 0)
(1.06166 -0.0290717 -6.32439e-21)
(1.10367 0.0105855 2.06678e-21)
(0.0618647 0.0926766 0)
(0.876171 -0.022343 1.88228e-22)
(1.1064 -0.0562773 -1.91262e-21)
(0.976092 0.0170356 -2.01599e-22)
(1.07944 0.0374252 -6.6428e-21)
(1.00958 0.0205875 2.74226e-21)
(1.03553 -0.0447353 1.68716e-21)
(1.04611 0.032913 0)
(0.326937 -0.0353259 0)
(1.0482 -0.0627031 0)
(1.14857 0.109348 -2.93649e-20)
(-0.0427139 -0.0643324 4.44285e-20)
(1.06415 0.009607 -3.47911e-24)
(1.20521 0.0729363 0)
(0.754747 0.0207129 -2.59242e-21)
(1.14977 -0.0251527 7.03312e-22)
(-0.00492203 -0.0382324 -1.42685e-19)
(0.733968 0.00228754 -4.04215e-20)
(0.62023 -0.021552 0)
(0.993381 -0.0261678 0)
(0.923237 0.038012 4.49888e-21)
(0.998193 -0.110648 5.4409e-21)
(1.28149 0.398564 5.62879e-22)
(1.11555 -0.0462563 -5.83495e-24)
(1.13324 -0.0819629 -4.05525e-21)
(1.01971 -0.013963 0)
(1.36491 0.424585 -4.00459e-20)
(0.645285 -0.0186945 0)
(0.800644 -0.0211064 -2.10646e-21)
(1.05277 -0.00970737 1.07639e-22)
(0.567637 0.0161247 0)
(1.09972 -0.0061423 0)
(0.0083313 0.00962774 -3.69058e-20)
(1.11588 -0.0918697 -7.29096e-21)
(0.728327 -0.0100519 6.23081e-22)
(0.991094 -0.00272416 0)
(0.531706 -0.0170727 0)
(0.759161 -0.0162001 -1.67311e-21)
(0.523158 -0.0145 -4.13318e-22)
(1.33691 0.028184 3.46539e-22)
(1.25292 0.0837943 -2.45632e-21)
(0.699529 0.0117402 -3.98002e-22)
(1.11148 -0.0259419 3.85918e-24)
(1.15839 -0.061188 5.49841e-24)
(0.529945 0.0170895 1.23033e-21)
(1.17311 -0.0455233 3.12422e-22)
(1.15354 -0.0441291 0)
(0.95764 -0.0510543 0)
(0.486548 0.0181841 0)
(1.03092 -0.00550318 0)
(1.15251 0.00923727 -5.4239e-22)
(1.07096 -0.0476061 0)
(1.12109 -0.0225989 0)
(1.03689 -0.0293104 0)
(1.0551 -0.0124078 0)
(-0.0218102 -0.0352536 4.37736e-20)
(1.20524 0.00779043 3.9786e-22)
(1.07781 -0.0155503 0)
(1.35583 -0.0111505 1.91949e-20)
(1.1547 0.0041653 2.87811e-22)
(1.11262 0.0536225 -1.10512e-21)
(1.12991 -0.0105446 3.39052e-21)
(1.15702 -0.00290015 0)
(0.557843 -0.017993 3.86737e-21)
(1.05236 0.0433678 1.08679e-20)
(1.20572 -0.0441508 0)
(1.20749 -0.0229063 -7.58163e-22)
(1.16304 0.0179507 1.54653e-21)
(0.670517 0.190081 -1.63678e-21)
(1.13551 0.0307327 2.76704e-21)
(1.19872 0.00425307 -2.73432e-21)
(1.05277 0.072777 0)
(1.14212 0.0547717 -1.60207e-20)
(1.14478 0.0602394 -2.89845e-21)
(0.722113 -0.104718 6.06399e-21)
(0.924906 0.0717278 0)
(-0.0166418 -0.0210193 0)
(0.976012 0.114604 -1.73977e-20)
(1.14517 -0.0171325 0)
(1.27102 -0.0749176 2.2635e-20)
(1.16923 0.0490621 5.48665e-22)
(1.16845 -0.00316162 2.62867e-21)
(1.14081 0.0496453 -1.31911e-21)
(1.33762 -0.055723 8.98331e-20)
(1.01493 -0.321773 5.88239e-20)
(1.11165 -0.0296245 -4.05169e-22)
(0.996731 0.0304801 0)
(0.934259 0.0985103 0)
(0.90164 0.00169393 -2.64416e-20)
(1.26289 -0.119635 -4.71841e-20)
(1.14819 0.00876212 0)
(0.590349 -0.0833291 1.36204e-20)
(0.341311 0.167717 0)
(0.770716 0.0379042 6.31501e-21)
(0.793367 -0.0729356 -1.58005e-20)
(0.808167 0.0284911 -2.72528e-21)
(1.14582 -0.0187959 0)
(1.25786 0.0817168 -6.40011e-22)
(1.18236 0.0927947 2.5981e-21)
(0.742551 -0.0488867 -8.47139e-21)
(1.16479 0.0100878 -3.00158e-21)
(0.843636 -0.0203097 0)
(1.09261 0.071442 0)
(1.06266 -0.0293263 7.79507e-21)
(0.804804 -0.020134 -6.37923e-21)
(1.25945 0.0385934 4.58289e-21)
(1.127 -0.021615 -2.4789e-21)
(1.03864 0.0799033 3.90253e-22)
(1.11648 -0.0147884 0)
(0.409785 -0.136859 1.30907e-20)
(1.3418 0.0840032 -2.41054e-20)
(0.901367 -0.0481569 -7.06186e-21)
(0.0697062 0.108731 1.73063e-21)
(1.41475 -0.155913 2.25359e-20)
(0.931937 -0.0353925 7.58786e-20)
(1.20004 0.00250746 -7.96021e-21)
(1.10172 -0.0198737 -2.44549e-22)
(-0.0621137 -0.0583386 -7.58719e-21)
(1.00051 -0.00685143 0)
(1.03358 -0.0855904 -1.61059e-20)
(0.855684 -0.0332116 2.36303e-21)
(1.10053 -0.0566096 2.01669e-21)
(0.77677 -0.0862611 -5.78677e-22)
(0.51432 -0.0153761 -5.81075e-22)
(1.4063 -0.38638 -1.51524e-20)
(1.12424 0.0397427 0)
(1.01227 0.00220344 7.88205e-22)
(1.13387 0.0376778 -1.48969e-21)
(1.23809 0.0159206 0)
(0.792385 0.0683033 -6.92862e-21)
(1.12719 0.0381555 2.07695e-21)
(0.729078 -0.118414 1.88016e-20)
(1.15008 -0.0373652 8.15047e-21)
(0.874994 0.0490352 4.21153e-21)
(-0.0371903 0.00095285 0)
(0.559411 0.166167 3.14346e-20)
(1.15602 0.0350961 0)
(1.01418 0.205063 1.59064e-20)
(0.962525 0.237389 0)
(1.12842 -0.00798452 -1.10627e-21)
(1.01593 0.0267016 0)
(1.04684 0.0251106 0)
(1.39036 -0.133339 1.91806e-20)
(0.794284 -0.0829076 0)
(1.20068 -0.140407 9.93309e-21)
(1.09511 -0.0162967 1.21322e-22)
(1.05182 0.0395467 1.79017e-21)
(1.27145 -0.0786412 -1.39704e-20)
(1.24671 0.118873 -6.85549e-21)
(1.23988 -0.101388 1.18598e-20)
(1.15493 0.0333089 0)
(1.18005 -0.0433596 0)
(1.10436 0.0368594 1.72288e-21)
(1.22516 -0.0283878 0)
(1.41468 0.21413 -2.68663e-20)
(0.798207 -0.108682 -7.61707e-22)
(1.02753 0.016446 1.91813e-20)
(1.28371 0.00706497 -3.79645e-22)
(-0.0124386 0.0124238 0)
(-0.028216 -0.0514625 0)
(0.0121307 0.0776594 -3.60789e-20)
(-0.0625578 -0.061238 0)
(0.722022 -0.108179 -9.4278e-21)
(1.17071 0.0416382 -1.18475e-21)
(1.17025 -0.047093 -2.52098e-21)
(1.22224 -0.0656037 -3.97943e-21)
(1.2014 -0.0417528 0)
(0.6991 -0.00316932 -2.01593e-22)
(1.13353 0.0428917 0)
(1.10413 0.022873 -8.06456e-24)
(0.49702 -0.108398 0)
(0.80253 -0.0719182 -1.86844e-22)
(1.11151 0.0592571 0)
(1.14278 0.035619 0)
(0.637403 0.00551585 4.10474e-20)
(0.618895 0.00703068 -1.553e-21)
(0.886581 0.0122198 2.61722e-21)
(1.0116 0.0174656 -9.01248e-21)
(0.158423 -0.0619119 0)
(1.22847 -0.130029 -1.39149e-20)
(1.24813 0.0864342 -8.90744e-21)
(1.16458 -0.130234 -4.36827e-23)
(0.710272 0.02418 4.00733e-21)
(-0.0513919 -0.0231 -9.29192e-20)
(1.13526 0.0833479 0)
(-0.0347188 0.042026 0)
(1.18015 0.107661 -1.45865e-21)
(0.402727 0.160135 -4.31252e-21)
(1.13242 0.0450339 -5.99335e-21)
(1.11225 -0.0424578 0)
(1.18447 -0.070205 1.97571e-21)
(1.20651 -0.159779 1.41655e-20)
(0.529684 -0.0460175 -9.00769e-21)
(1.14412 -0.0363419 9.90445e-22)
(1.1775 -0.0455113 -4.47356e-23)
(0.00812569 -0.122223 1.73363e-20)
(1.25495 -0.0512484 -5.76193e-21)
(1.1436 0.0411596 0)
(1.13602 0.0775112 0)
(1.18287 -0.0484598 3.98228e-21)
(1.19343 0.0872263 8.05009e-21)
(0.64537 -0.172151 -3.76283e-20)
(1.19068 -0.124584 -1.51825e-20)
(1.12292 0.0609688 -2.12651e-22)
(0.494016 -0.00224063 6.63494e-21)
(0.165525 -0.0673988 -7.59311e-20)
(0.00697902 -0.336787 2.71252e-20)
(1.17521 0.186418 -6.6379e-21)
(1.22723 -0.492798 4.55389e-21)
(1.41828 0.0448733 -1.66069e-20)
(1.19895 -0.0429868 -4.71923e-21)
(0.933879 -0.230086 9.46285e-20)
(-0.358478 -0.158709 0)
(1.16645 -0.0421196 -4.01079e-22)
(0.0931791 0.0726895 -2.23444e-20)
(1.15953 0.110098 1.2622e-21)
(1.14619 -0.0591069 5.43591e-21)
(1.08463 0.040427 0)
(0.571842 0.0485051 0)
(1.17462 -0.0576638 0)
(1.30604 0.212149 -8.44001e-21)
(1.27198 -0.0322515 -2.73902e-20)
(1.15277 -0.0444752 -3.2715e-21)
(0.468839 0.008566 0)
(0.634374 -0.00315324 0)
(0.646148 0.00671101 6.59842e-22)
(0.461549 -0.00708192 0)
(1.16947 0.062822 0)
(1.0206 -0.0139485 2.42952e-20)
(0.121427 0.145449 0)
(0.911749 0.0309827 0)
(1.11515 -0.0104724 0)
(1.17631 0.184525 -3.71522e-21)
(1.28346 0.0369189 1.39774e-20)
(0.964794 -0.0304157 4.26226e-21)
(1.28132 -0.399866 -1.03539e-19)
(0.469823 -0.0639957 -4.26052e-21)
(1.20969 0.0347612 5.65112e-21)
(1.22651 -0.0129518 0)
(-0.349648 -0.120866 0)
(-0.236531 0.0766298 0)
(1.16104 -0.0343438 -6.7903e-21)
(1.31381 -0.292673 -2.10293e-20)
(1.36657 0.118625 0)
(1.08109 0.0408856 -5.08874e-21)
(0.418933 -0.129968 0)
(1.49821 -0.176818 6.62512e-20)
(0.413886 0.523218 1.10781e-19)
(0.269444 -0.0394681 0)
(1.08798 -0.276666 1.11135e-19)
(0.163935 -0.112574 0)
(-0.310722 -0.170943 -5.28965e-22)
(1.39183 0.0958483 0)
(-0.134651 -0.000575011 2.68688e-22)
(0.983505 -0.04997 0)
(1.23924 -0.0787801 -9.3713e-21)
(-0.134972 0.0233628 -7.37547e-21)
(1.12292 -0.0300359 -4.57128e-22)
(1.2012 -0.0896702 -3.6304e-21)
(0.569307 -0.508053 -9.25641e-20)
(1.12413 0.00366473 -5.42152e-22)
(1.19195 -0.132212 4.11919e-21)
(1.18449 0.250395 -1.7923e-20)
(1.13485 -0.117016 1.00608e-21)
(1.15968 -0.0166218 -1.26884e-21)
(-0.0645473 -0.127931 -6.65604e-20)
(0.0615881 0.104793 -7.48417e-21)
(1.23199 0.0941296 2.60035e-21)
(1.05837 -0.0515458 0)
(0.47667 0.0531647 -8.30449e-21)
(1.3915 -0.442413 7.72679e-20)
(0.910691 -0.0723604 -5.56109e-20)
(1.44224 0.153194 8.14691e-20)
(1.09083 -0.0490235 9.487e-22)
(1.22231 -0.0572964 5.02356e-21)
(1.06171 -0.00739516 0)
(1.18796 -0.0294141 0)
(1.24356 -0.0618481 3.08223e-21)
(1.08673 -0.0210647 -4.51823e-21)
(1.11978 -0.0887041 -6.81215e-22)
(1.08778 0.056614 -3.47985e-21)
(1.42783 -0.0612894 -4.39171e-20)
(0.435441 0.0349113 0)
(1.21363 -0.043525 2.91648e-21)
(1.35483 0.0610311 0)
(1.10603 0.0660166 -3.86097e-22)
(1.14403 0.0238172 0)
(1.04177 -0.00992639 1.23054e-20)
(1.23541 0.0320725 1.76868e-20)
(1.07695 0.0268073 0)
(0.0530316 -0.028695 1.50664e-19)
(0.882109 -0.208501 -7.42191e-20)
(1.2218 -0.0709034 -2.57091e-20)
(-0.112317 0.0119573 3.97596e-20)
(1.20568 0.0350231 4.21367e-22)
(0.782811 0.0492025 -3.72573e-22)
(-0.0931239 0.0397395 -4.14488e-20)
(-0.0254556 0.0377096 -2.66364e-20)
(1.01801 -0.0302155 0)
(-0.0284738 -0.0325599 0)
(1.22513 0.00070161 0)
(0.111443 -0.0978958 0)
(1.11553 -0.0274365 0)
(0.136073 0.0310316 0)
(1.12448 0.0538506 0)
(1.2051 0.096338 0)
(1.35967 0.127325 -1.32476e-23)
(0.570136 -0.282694 -2.03879e-20)
(-0.126077 0.132601 0)
(1.11046 -0.0974322 5.78631e-20)
(1.23654 0.00754438 1.16507e-21)
(1.28608 -0.024288 0)
(-0.0360106 -0.0396117 0)
(1.16254 0.0106639 5.70691e-21)
(1.16971 -0.0108807 -2.78093e-21)
(1.1718 0.392142 0)
(0.231452 -0.0569028 5.67738e-20)
(1.12151 0.0582359 9.06365e-22)
(0.23067 -0.0509046 -5.10656e-20)
(-0.0615457 0.0482884 -3.20068e-20)
(-0.0361907 0.0495759 8.26697e-20)
(0.4332 -0.08101 4.02769e-20)
(1.03487 0.00475313 3.50576e-22)
(1.138 0.0703746 3.8823e-21)
(1.0227 -0.00802986 0)
(1.06968 -0.0715225 -2.16308e-20)
(1.26443 0.0519008 -1.50228e-20)
(-0.00910558 -0.00933205 9.59073e-20)
(0.978907 -0.0715269 -5.96301e-20)
(0.647842 0.121993 1.35578e-20)
(1.12218 0.0174036 -2.65637e-21)
(0.0737566 -0.0295468 3.23969e-20)
(0.242821 -0.0371513 -4.60918e-20)
(0.388888 -0.0462275 -5.14697e-20)
(1.23547 0.166548 -5.96661e-21)
(-0.0522679 -0.0332601 0)
(1.0023 0.175246 4.19804e-21)
(1.12941 -0.0596479 1.23281e-20)
(1.1225 -0.0295645 -1.18858e-20)
(1.25768 -0.0321922 0)
(1.50895 -0.233044 6.75263e-20)
(1.11904 0.0374548 -9.03932e-22)
(-0.0125033 -0.0246823 -3.22825e-20)
(0.291998 0.0902736 0)
(0.897671 0.0259792 2.6174e-22)
(1.1385 0.0236456 -1.06768e-21)
(0.769369 -0.158972 1.71455e-20)
(1.16419 0.00867776 -1.93758e-21)
(1.1181 0.050081 0)
(1.1271 -0.171509 -1.41588e-20)
(-0.0928555 -0.0243182 -6.18831e-20)
(1.31461 -0.0413841 2.05575e-20)
(1.10449 0.176046 -8.83247e-21)
(1.08538 0.052069 3.97985e-21)
(-0.0389587 -0.0480935 1.47171e-20)
(-0.0251389 0.0412443 -6.35654e-20)
(0.619976 0.0295219 0)
(0.778447 0.0847266 0)
(1.15432 0.0997071 -1.34965e-20)
(1.05226 0.0699998 1.11887e-20)
(1.09933 0.0135577 0)
(0.413703 -0.00342721 3.89586e-20)
(0.724153 0.0920149 -1.13776e-20)
(1.09958 0.110072 0)
(1.08042 0.0389198 0)
(1.37031 0.0798366 0)
(1.21516 0.0431177 0)
(1.16363 0.00452741 2.65939e-21)
(-0.0430154 0.0452264 3.49582e-20)
(1.21445 0.0530211 3.34691e-21)
(1.39035 -0.196073 -7.62928e-20)
(1.24192 0.0116073 -4.28755e-21)
(0.0381899 0.0499886 0)
(1.16191 -0.0249804 0)
(0.63873 -0.00156275 6.23181e-22)
(0.532333 0.00951463 -5.89712e-20)
(0.0691892 0.036828 4.79336e-20)
(0.947005 0.00436146 -1.27928e-21)
(0.734527 -0.270301 0)
(0.668679 -0.0896413 0)
(1.20313 0.00952452 0)
(0.542172 0.516683 2.33019e-20)
(-0.0176461 0.0321242 -2.97319e-20)
(1.07919 -0.00667968 -3.01584e-21)
(-0.0190743 -0.0317067 6.10092e-20)
(1.10735 -0.0508404 1.66764e-21)
(1.17764 0.317458 3.41841e-20)
(1.11205 -0.0914675 8.14858e-21)
(0.302392 -0.0568115 8.68147e-20)
(1.03662 0.0906121 3.48024e-21)
(1.15787 -0.0882905 0)
(0.559259 0.271992 0)
(0.931563 0.0517106 3.53785e-21)
(-0.193271 0.0873619 0)
(0.607797 0.0290656 1.32195e-21)
(0.597874 -0.412919 -2.86991e-21)
(0.236944 0.0495372 -1.12668e-19)
(1.12186 -0.22672 3.3536e-20)
(1.04119 0.36896 9.90659e-21)
(0.979006 0.0215728 0)
(1.23433 -0.0573128 7.23792e-23)
(0.64065 0.00113156 0)
(0.986182 0.00161702 -8.16008e-22)
(0.428102 -0.0180587 0)
(0.711873 0.13652 0)
(0.999291 -0.0219155 -1.53969e-21)
(1.43963 0.174088 -1.54192e-20)
(1.09451 -0.03535 2.11456e-21)
(0.517417 -0.486342 0)
(1.13214 -0.156716 2.4596e-21)
(0.80584 0.384361 6.95724e-20)
(-0.0413081 0.0208099 1.16424e-21)
(1.22078 -0.0239282 1.22661e-20)
(1.21658 0.0308453 -1.37525e-20)
(1.1256 -0.0576645 6.172e-22)
(0.788693 0.00878592 -1.54017e-21)
(0.0599866 0.0189994 3.7232e-20)
(-0.0176292 0.00166234 -5.38863e-20)
(-0.19645 0.0790924 0)
(-0.184312 0.195506 0)
(1.17567 -0.611217 3.04462e-20)
(1.15232 -0.0264391 1.23813e-21)
(0.878933 -0.460717 -4.04001e-20)
(1.04135 0.182678 -9.81971e-21)
(1.36912 0.201475 3.48594e-20)
(0.605199 0.42227 0)
(0.247694 0.420251 -1.12957e-19)
(0.597676 0.488843 0)
(0.0405305 0.0803793 0)
(1.11569 -0.476222 0)
(-0.0475751 0.0519003 -3.30432e-22)
(1.20239 -0.0239378 0)
(0.908906 0.123609 -3.38874e-20)
(0.598054 0.69867 2.06071e-20)
(1.35148 0.179555 1.55161e-20)
(-0.0375636 -0.0668345 -1.03617e-19)
(0.773423 0.168524 -2.80571e-20)
(0.451053 0.144721 -1.35815e-20)
(1.20679 0.0922749 0)
(1.36412 0.358673 3.66321e-20)
(1.22642 0.570526 8.67204e-21)
(0.154622 -0.0131979 -2.21006e-20)
(1.00433 0.136726 3.25073e-20)
(0.934341 -0.0143486 4.74787e-23)
(0.908813 0.0190412 3.68432e-22)
(-0.00394356 -0.0267424 0)
(0.641085 -0.643685 -3.10649e-20)
(0.613668 0.209019 0)
(0.0405201 -0.0735845 0)
(-0.0495238 0.0651455 0)
(-0.0178564 -0.06634 -3.90134e-20)
(1.23767 -0.00576063 -1.40807e-20)
(-0.0282991 0.0678306 0)
(-0.0354636 0.0620179 0)
(1.45068 0.118024 -7.8776e-20)
(-0.0364656 -0.0626215 4.69683e-20)
(0.115555 0.239346 -1.00107e-19)
(0.382431 0.0186892 0)
(0.167757 -0.270863 8.18885e-20)
(1.07387 -0.238305 0)
(0.9925 -0.28154 0)
(-0.00781583 -0.0639363 9.74232e-20)
(1.15064 0.0348165 9.03666e-24)
(1.12855 0.347096 2.71515e-20)
(0.25902 0.0285279 4.6373e-20)
(0.39961 -0.510595 -3.93898e-20)
(1.29636 0.0781321 0)
(1.21885 0.199006 2.21866e-20)
(1.21991 0.213922 -2.72535e-20)
(0.102801 0.0954132 -2.33377e-20)
(-0.0622586 0.0310215 0)
(1.06905 -0.0590436 -1.95861e-20)
(1.09875 -0.222036 -1.64932e-20)
(0.579196 -0.395497 0)
(1.09549 -0.14868 -2.64353e-20)
(-0.0690811 0.172132 0)
(0.598634 0.0511103 0)
(1.43918 -0.0104766 3.68631e-20)
(0.979707 0.0211274 8.41439e-23)
(1.0815 0.750298 -1.49057e-20)
(0.222873 -0.372291 1.34321e-19)
(1.07342 0.01392 -3.223e-22)
(1.20996 0.0729142 1.33707e-21)
(-0.0512956 0.0804246 3.01272e-20)
(0.790252 0.73756 2.66868e-20)
(1.33897 -0.371024 -1.30524e-20)
(-0.220634 -0.111616 6.10108e-20)
(1.12893 0.0434894 0)
(0.250482 -0.000561871 -8.90187e-21)
(0.88905 -0.629195 2.58857e-21)
(0.902377 0.644413 -2.11513e-20)
(0.536149 -0.0349867 -6.00341e-20)
(1.14746 -0.00757567 1.82252e-21)
(1.07569 -0.0858069 7.06243e-21)
(1.16596 0.064194 -2.59398e-21)
(1.10666 0.121639 3.02277e-21)
(1.13067 -0.132026 0)
(0.905672 0.112471 1.43827e-20)
(0.88764 0.460399 0)
(1.32669 0.134645 6.6434e-21)
(1.17039 0.113661 -1.64958e-21)
(0.751053 0.264771 0)
(0.51779 0.110435 1.07472e-19)
(0.896887 0.7181 -7.80622e-22)
(1.08088 0.293828 -2.0852e-20)
(1.04401 -0.0119845 1.19409e-20)
(0.417193 0.500363 0)
(1.28626 -0.471953 0)
(0.682683 -0.0741781 5.97449e-21)
(1.26604 0.506616 0)
(-0.0264369 0.0577717 -4.23124e-20)
(1.27502 -0.415215 -4.36987e-21)
(1.16907 0.514687 0)
(0.452887 0.226752 1.68246e-19)
(1.12382 0.318066 -1.20181e-19)
(0.808357 -0.631791 -2.70452e-20)
(1.17204 0.0624885 -3.97505e-21)
(0.914087 0.152793 8.09923e-20)
(1.09082 0.170638 4.9451e-20)
(1.07415 0.708451 -5.05777e-23)
(0.897656 -0.431596 6.67282e-20)
(1.438 0.183785 4.21412e-20)
(1.1309 0.00824637 -1.04458e-23)
(0.00405696 -0.04199 8.78786e-20)
(1.07283 -0.696172 2.19019e-20)
(0.863264 -0.711724 5.64184e-20)
(0.248743 -0.320551 0)
(0.971212 -0.144982 7.37733e-20)
(0.3636 0.317625 -4.36702e-19)
(-0.116739 0.0875803 1.9717e-20)
(0.235968 0.047776 2.22919e-20)
(0.664736 -0.0580889 -7.09023e-20)
(1.083 0.534722 0)
(0.993044 0.225164 7.896e-20)
(1.08837 0.0308734 2.89803e-21)
(0.913741 0.448511 -8.96999e-20)
(0.772978 -0.716782 -9.11655e-21)
(0.92793 0.0269729 -4.90608e-20)
(0.98067 0.495522 0)
(1.22924 0.182551 -1.80213e-20)
(1.37053 -0.513425 1.22182e-20)
(1.22141 -0.33998 8.68748e-21)
(-0.21326 0.0763726 3.56481e-20)
(0.194002 0.0156152 -1.81389e-20)
(0.972045 -0.11566 -5.82752e-20)
(0.35555 0.533284 0)
(0.91652 0.0211597 3.90911e-20)
(1.15903 0.639715 8.1066e-20)
(-0.0903519 -0.0179289 1.31844e-19)
(-0.063355 0.0723837 -2.51339e-20)
(-0.0800438 -0.0288998 3.93714e-20)
(1.098 0.0241062 -3.8008e-21)
(1.1194 -0.45756 0)
(1.05782 -0.727735 -4.591e-20)
(0.700323 0.356455 0)
(0.000834572 -0.0130686 -9.38193e-20)
(1.09319 0.0152188 1.56496e-21)
(-0.0321566 -0.0424253 -2.75149e-20)
(1.04815 0.0563036 -1.23682e-20)
(0.100425 0.033125 5.48476e-20)
(0.841952 0.128798 0)
(1.37347 -0.0645882 4.29297e-20)
(0.0462934 0.0582711 -2.53102e-20)
(-0.217053 0.114978 -4.23345e-20)
(-0.219781 0.129017 0)
(0.0798316 -0.0123523 0)
(1.33108 -0.0369631 -1.15549e-20)
(0.372099 -0.010224 1.46144e-19)
(1.25552 -0.721192 -1.74821e-20)
(0.945414 -0.140719 3.54651e-20)
(1.07526 0.254025 -2.90219e-20)
(0.363536 -0.546806 1.41746e-19)
(1.55187 0.284359 -3.48514e-20)
(0.0584172 -0.048531 3.39433e-20)
(0.209225 0.315712 1.94736e-19)
(0.0893346 -0.0276895 -1.27442e-19)
(0.937324 -0.487498 -4.4054e-20)
(1.45592 0.391662 3.55476e-20)
(0.559957 -0.66679 5.03379e-20)
(1.10662 -0.0862163 -7.03673e-21)
(0.152279 0.053797 5.03529e-20)
(1.17996 0.293585 -4.75994e-20)
(0.66477 0.647251 -3.98283e-20)
(1.32465 -0.619589 0)
(1.41853 0.522947 3.38293e-20)
(1.04585 -0.523752 -1.2143e-20)
(1.39111 0.610425 -1.0193e-19)
(1.19475 0.0299559 0)
(-0.0544862 0.0840839 0)
(1.25484 0.734313 0)
(1.21421 0.0498518 -3.78698e-21)
(0.736946 -0.295146 -2.08247e-19)
(0.475896 -0.0747793 0)
(-0.0550792 0.0929315 -2.55285e-20)
(1.01982 -0.244995 1.00243e-19)
(-0.29921 0.010623 0)
(0.321501 0.0353801 1.22554e-20)
(1.15596 0.0375234 0)
(1.41463 0.278883 0)
(1.20207 0.059039 4.25667e-21)
(0.359236 -0.282183 0)
(1.01496 0.153077 3.65565e-20)
(1.30827 0.289429 0)
(-0.0824392 0.0801893 -4.03719e-22)
(0.808817 -0.389582 0)
(1.51963 0.342644 -5.28946e-20)
(1.24411 0.37316 -4.91303e-22)
(0.844283 0.653364 -9.64056e-21)
(1.01331 0.159699 -8.7118e-20)
(0.967851 -0.201623 -4.87821e-20)
(1.45467 0.298448 3.11251e-20)
(1.00793 0.109609 0)
(0.56371 -0.0639003 0)
)
;

boundaryField
{
    FrontBack
    {
        type            empty;
    }
    Top
    {
        type            noSlip;
    }
    In
    {
        type            fixedValue;
        value           uniform (1 0 0);
    }
    Bottom
    {
        type            noSlip;
    }
    Out
    {
        type            zeroGradient;
    }
    circle
    {
        type            noSlip;
    }
}


// ************************************************************************* //
