/*--------------------------------*- C++ -*----------------------------------*\
| =========                 |                                                 |
| \\      /  F ield         | OpenFOAM: The Open Source CFD Toolbox           |
|  \\    /   O peration     | Version:  2412                                  |
|   \\  /    A nd           | Website:  www.openfoam.com                      |
|    \\/     M anipulation  |                                                 |
\*---------------------------------------------------------------------------*/
FoamFile
{
    version     2.0;
    format      ascii;
    arch        "LSB;label=32;scalar=64";
    class       surfaceScalarField;
    location    "938";
    object      phi;
}
// * * * * * * * * * * * * * * * * * * * * * * * * * * * * * * * * * * * * * //

dimensions      [0 3 -1 0 0 0 0];

oriented        oriented;

internalField   nonuniform List<scalar> 
1171
(
-0.9279320590259629
0.9279320590749298
0.7872900344472308
-1.098771257247368
0.3114812225603926
-0.1948500420403363
-0.7664674352898261
0.9613174773892239
0.07206794392487123
-0.1171193210022342
-0.2117880153711764
0.328907337183015
-0.7872900462776118
0.06934522109704126
0.7179448251642737
0.8110288845763266
-0.1774180219972428
-0.6336108624710828
0.874353077289573
-1.043548043024408
0.1691949656853007
-0.2847927374244378
-0.09761769470277824
0.3824104316877431
-0.03589938901380912
0.5484109330643669
-0.5125115439561538
-0.504714455675412
0.8273452121761408
-0.3226307565891045
-0.4019120638028137
1.045825090588449
-0.1714720136449592
0.3958114747340759
0.04795282730151475
-0.4437643005067782
1.046393225542484
-0.0005681354669422403
0.4455896033317998
-0.04977812590738419
1.057004561419851
-0.01061133343629648
0.5776044274746437
-0.7724544749585489
-0.7244376032439266
0.5571846797194066
0.1672529236284446
0.2216567536519226
-0.7263712019409729
0.5504061996805278
-0.9227406304929076
0.3723344317827602
-1.094169902629565
0.6863824094967911
0.4077874930094443
-0.5953556809694081
0.559456284591645
0.01817646942046736
-0.2569287312714187
0.2387522629451223
-0.02459877370700255
-0.5223235267366173
0.5469223010644644
0.3999507743802698
-0.4975684750737678
-0.9187441711658769
0.9414152023755747
-0.02267103124659279
1.067647930615963
-0.01064336775382262
0.9351867815255224
-1.116951510373643
0.1817647289488463
1.06727899857794
0.0003689354248956491
-0.6643337813868422
-0.06010382407247745
1.262151775278656
-0.8643793723828749
-0.3977724028878977
0.1485348316432285
-0.1089023184525288
-0.3260147517232321
0.434917069783497
-0.2857555234735016
0.1910392109125027
0.09471631203401012
-0.5833930127046597
-0.5153782388608698
1.014074550058052
-0.07888776803718714
0.009942170923179127
0.8254327817163764
-0.835374952704237
0.5718477708516452
0.6903040018572009
0.4395086104422897
-0.03034972037230697
0.4303004949871206
-0.8076643356507049
-0.1026001092793114
0.910264445033639
0.5026909532230441
0.2537631406828925
-0.7564540939071532
0.003959883615155572
0.5288702094724598
-0.5328300923680401
-0.4898614889928248
-0.6043084127099975
-0.4229058032871119
-0.6940457075122698
-0.0273136865977605
0.2701880817320884
-0.2428743961960478
-0.9248510627704485
-0.005171818379967074
0.9300228810767237
0.308007609544003
0.07440281640215853
0.7624109495013117
0.04861793979843961
-0.5330904041997785
-0.06226527830574952
0.04633831615010019
-0.8540026516089617
0.07594324402048516
0.8621302101719736
-0.9380734542259692
-0.347394667138228
-0.04130085159860801
0.3886955184747509
-0.6823964327045063
-0.2424546347472946
-0.6313342672795201
0.7072775130279493
0.6090990462105919
0.2182461726984186
-0.5428612713947304
0.9461948562846418
-0.779427576693565
-0.1667672796524605
0.02255604250530828
-0.01574690175626978
-0.00680914002118134
-0.4029268043382097
-0.09464167048006521
-0.2417286920102523
0.8508277429095318
0.04643693171324536
0.3348831298471858
-0.3813200621180525
-0.4603780587862604
0.9630690167898622
0.6800903865738674
-0.7826904946737445
0.3189735118635681
-0.01670115214305854
-0.3022723602394639
0.930674897238559
-0.9306748972603148
-0.783008804804004
0.1108849346543135
-0.3226729538339395
-0.7500518921228918
0.759994060468087
-0.09046078301869295
-0.1427917622646153
0.2332525444386452
0.8649797481061154
-0.03954697037954761
1.054341898651087
-0.800578751195116
0.1859844958521208
-0.3155092669507175
0.1295247713727159
0.8593508303024153
-0.09693987951355806
-0.6118039731008456
-0.03933714281016798
0.6511411158707519
0.1238630011051275
-0.2311399577728734
0.1072769579496573
0.8056626281060493
-0.9830806462414008
-0.4353484743187857
0.3296083729033614
0.1057401021141134
0.5315553282554719
-0.5561541004532622
1.022120802771712
-0.4562608913767376
-0.5658599114204121
0.5992149999647494
-0.7193378008259022
0.06674108861004618
0.6525967118314816
0.1028967426482004
0.570529780525029
0.05476078065789796
-0.625290561003109
0.1942420974794234
-0.08335715979987475
-0.4931990121039139
0.1458043454536818
0.05036492332185234
-0.886850234487273
0.8364853112508164
-0.4743707062900517
-0.7134696538681389
0.04913587138229984
0.4366197735904644
-0.006319281848631159
0.2998925820419601
-0.8552518232723235
0.5553592414228341
0.4157150539695505
0.5842849461255902
0.5605620814551553
-0.5142237612374965
-0.3654104384984967
0.03499853195387957
0.3304119033245739
0.6813684403594926
0.2493064563280544
-0.5663181464704139
0.5702780311530483
0.1106050192083731
0.8750078580050394
0.0102584871759312
-0.6220624627610991
-0.7493321356117785
0.799697060016119
0.5311926318699149
0.0713320029428776
0.3014295364594969
-0.3727615391464707
-0.1676202414096688
0.4417989186639185
0.08707128048125998
0.8759409138667693
-0.7973821850727938
-0.0785587287145858
0.6354846552399552
0.3107101993738482
-0.4302404906684847
0.575520830907566
-0.5041888279805636
0.4171720003091706
0.1332342030310219
-0.04691178057975003
-0.5897517633594558
-0.1380610035804373
0.7278127669540859
-0.1496951723944088
-0.7809797278540055
-0.6110385255103209
0.3607040597170447
0.2503344644991959
0.6222928210647864
-0.6120343337632802
0.2384465584810934
1.011469012756469
0.04287288708701875
-0.7493321329762038
0.2225768638236605
-0.20002082483073
0.6800903852754797
0.8021354945443913
-0.8021354946329788
0.837714360081393
-0.8333328596434022
-0.004381500353980167
-0.4453808758766363
0.8610959288991149
-0.1476380703817591
-0.3455609445858615
0.7347158447128387
-0.6684687241964653
-0.06624712058981448
-0.7314897729551116
0.1417380096909454
0.1387269956065031
-0.6718173997400223
0.7826904841944229
-0.9503107256691995
-0.3650370254562085
0.2891778941981845
0.07585912939276269
0.1459235838554347
-1.009533613696822
0.8636100298760677
0.4808234253203468
-0.04131481497262171
-0.3081822001640805
0.5864550957068926
-0.2782728953807587
-0.7383069503753743
0.8842305326766765
-0.1571347577392646
0.734671183760247
-0.8391114236790995
0.1044402398853457
0.9778825277788689
-0.5419330412464165
-0.4359494866269159
0.7552237162900656
-0.06487778563586835
-0.03453017393267536
0.1879145468105823
-0.1533843733228596
-0.7757349294400357
-0.8457937811342725
0.07932633992786289
-0.7500518930405924
0.5140713789351229
-0.5553722341397074
0.08983917927505609
0.7191311083015296
-0.8089702874220254
0.7537136217442446
0.174218454787709
0.5028769620607622
0.497123037912202
-0.05191138636821971
-0.6058689704728007
0.6577803575247704
0.8806720439722603
-0.004731126743853677
-0.7552237162703483
0.7996970600887837
0.1910471094414705
-0.4479758378711418
0.02015881172228906
0.001199720768315385
-0.02135852803807507
0.5892751805785721
-0.4384401734063854
-0.1508350065882015
0.7179448323569173
0.01409221628749901
-0.1111225961771988
0.4374532270325419
0.1518219544255066
-0.01364436734855819
-0.00609883424328495
0.01974320091995517
-0.03372500094636476
-0.0008051792954031326
0.2433078158323455
-0.2600089595731962
-0.9592702529747921
0.001935396065286674
-0.1595731928955519
-0.1217292147815825
0.09464792124647958
0.7213403313385695
0.7290331186238099
-0.1447481726964852
0.6610032599101165
-0.5711640819141316
-0.2118362681348981
0.3978207637309173
0.6954340633027226
0.02251076902457632
0.2416078680915812
-1.074940725921663
-0.9503107272082966
0.3016883288391232
0.7599940579197139
-0.2086782084891975
0.06588644781901559
-0.7232757285128578
0.9095980505116871
-0.1863223220041333
0.4162819778856623
-0.02758646609294917
0.771607527861075
0.2806621994062592
0.372127490419166
0.07346210536118601
-0.6586920545767166
0.6586920545545935
0.2147349744679735
0.695529471743592
-0.05488094919264388
0.3897640851100352
0.3800361230751598
-0.01402411990896241
0.03418291862496138
0.4494280535935949
0.03139536847779704
-0.7383069508763827
0.5341270545770608
0.2005887920066197
0.3059386920250334
-0.1180241466310109
-0.6954340647205728
0.1799380137823231
0.7296600376100753
-0.01022513714431179
-0.8136763946222108
0.8239015317549371
0.6962809432592493
-0.7920853428262451
0.09580439964054331
-0.7537136282840885
-0.1501969237972683
0.2112167944652197
-0.06101987162452781
0.07725937270159781
-0.1796539720558756
-0.1126347509858281
0.2922887243643014
-0.007274781750387112
-0.006369594344757776
0.7065808662248135
-0.7168060108185057
0.8846731041442294
0.07664436845377506
-0.3156227296336899
-0.5173376073185401
0.83296033680851
0.103309449343407
-0.1033094462804195
0.3241764296025754
0.4751287653106946
0.6153463814745187
-1.090475146737605
-0.1941341492566227
-0.5856710374659583
0.7798051867432541
0.01307212926797719
0.2201804216193459
0.377218501353942
-0.25335548908255
1.012981002036976
-0.5378522332956671
0.6645054221946617
0.9945618088019258
-0.3792154238273533
0.2295804278646727
0.8842305312184691
0.7127585182978956
0.2136912180994331
0.7277239873778846
-0.7809797284674085
0.3413079568708795
-0.2761951512359014
0.2445584441917971
0.03163670527130327
0.8476194563186683
-0.01156565640941874
-0.8360537996285159
-0.702147187999546
0.7025161254478299
0.5546191256870847
-0.702147186817101
-0.7127585183099389
0.7025161266717442
-0.03476280907541332
0.9052917986575457
-0.02061869766534275
-0.6813684303441194
0.6123605797254297
0.069007850607934
0.5388076917257548
0.537013739863236
-1.075821431568433
0.4919210659206883
0.5210599372720862
0.5427672260593065
0.4596183954596517
-1.002385621460942
0.4981082293296921
0.4964535808313903
0.612360572810825
-0.5255512734923291
-0.4651082175748241
-0.5564274587637689
-0.5194244241400272
-0.1199803186960662
-0.01220536138252274
0.01220536024997406
0.5127743083365379
0.5229695874700367
-1.042394011490809
0.5753388691804484
-0.2739093336509979
-0.8854946136606804
0.3435615719172204
-0.63301364652855
0.3905590101766847
0.002354131067443476
-0.8300806955596718
0.8277265644034969
0.420850910130839
-0.01728671075607536
0.8649061669337882
-0.9469569922738518
-0.8344386827745466
0.05480662696460764
0.7796320556800584
0.5624304482135587
-0.4384127891193759
-0.1240176589947945
0.6500058114958749
-0.728893580119981
0.8852018747495396
-0.8325997521065962
-0.05260212290627537
-0.009182633070853315
-0.7881995488448074
-0.109650359614991
0.7141972440100218
-0.6045468843877674
-0.9359940124202848
0.9268113796007461
-0.7289750278201464
0.6918039187439904
0.03717110902170832
-0.8099515077616173
0.0386640778781247
0.771287429787792
0.06167128961771168
0.04163815653540752
0.4331267828299827
0.06175510689480694
-0.8512937224762779
0.7895386156932271
-0.6426359095498124
0.5907245247420779
0.8903175929366313
0.06997494515164326
-0.9602925380613674
0.05587890713068394
-0.04741975374121839
0.3778316595896004
-0.3813075461059983
0.06579828135749831
0.842338180230109
-0.8399840469783095
-0.7333071447799424
-0.8105601533844358
0.02236060469021953
-0.1640700541283942
-0.8527667757175217
0.02016702885108051
0.6245347871114703
0.03646847158483443
0.03149467270918701
0.5309357787473695
-0.8063949372051989
0.8450590116533333
0.5658599104281665
-0.8473674035239027
-0.8660190693088557
0.0392727253741045
-0.03782311388098487
0.8380829408137033
-0.8002598269940097
-0.02504020607601121
-0.7711302599994773
0.5443526319698134
0.1519283063661795
-0.03168800243295202
0.8965941698620888
0.9816180049417351
0.8619370812196127
-0.841770050330702
0.1474537250041787
-0.1474537233630962
-0.1187008764763961
-0.4825713844237675
0.04415859736255674
0.2707150361500862
0.03097329231807968
0.3862197094240117
0.8715539624524352
0.00375299517486385
-0.01102778560472361
0.6586118258141351
0.3413881741674194
0.7835391516201468
-0.5833930104229967
-0.7780679827506753
-0.8118254861734311
-0.6798450995092645
0.6798450994983959
-0.1677329344341964
-0.1549400220608542
0.6017473718644978
-0.8122219286589182
0.2104745567618339
-0.4937149751484549
-0.569013439753276
0.2782196388053304
-0.9722653460141601
-0.9018793166960546
0.8492772005795288
-0.8147336605635087
0.8370942644943129
0.6487210509113841
0.1343528346280848
-0.7830738855135563
-0.7746543758255143
-0.1459160341665151
0.7242704154926798
-0.5783543812757516
0.03032535153957674
-0.01504499793116757
0.01855766014377778
-0.003512663380513252
-0.355314528353589
-0.1272568611824279
0.8799670079968517
0.7432710683448841
-0.2449886268668695
-0.4982824408329334
0.6192534029600938
0.6852647610380255
-0.4705297853706304
-0.0006928639839153183
-0.2850626593088783
0.02588133904283661
0.7457117295090142
-0.7715930687758386
-0.3235442976099345
-0.07235787633937353
0.0756312059237738
-0.9600448225017861
0.1239910217446201
-0.677869098083913
0.05171243023084382
0.6411820672872015
-0.6928944975132014
-0.7567546867500635
0.07888558866075648
0.5881101078059189
-0.6604679842362164
0.1566887201715224
-0.3363426913673385
-0.7707412873622034
-0.003913088402234744
0.3712344404429836
0.6015071932829483
-0.02598636557064178
0.02336759925849832
-0.02336759881989817
-0.01830420683924364
-0.05080291758122654
-0.2253922377181718
0.0224597623109162
-0.01870674053787729
-0.7342728132351261
0.2793087124302417
0.6801120581574385
-0.6898000160613381
0.009687957707488129
-0.5969894170720927
0.6487018521597842
0.6530253073782532
-0.06491520191090404
-0.6316541718589409
-0.125100511574278
-1.05014243535609
0.01110335224857734
0.1363503712693794
-0.7083914728124165
-0.7413045256417428
-0.763162872143674
0.3653904672516332
-0.4129374663360949
0.4673706429252711
-0.05443317719067785
-0.6733327668846099
-0.03505870602551722
0.5014566211632684
0.7306797624653837
-0.2332823577601457
0.1115531423890351
0.9639579080649676
0.4459454306032278
0.1343278030245027
-0.5802732335402714
-0.6782033298042566
0.004870561329728939
-0.0445287207550891
0.02948373124418893
0.6367785485653885
-0.774839551972304
-0.002212674349638635
0.002212674433132663
-0.6008545400971033
0.6481603266781049
-0.04730578643825339
-0.6467086537585166
-0.1131570665307536
-0.6715994131967049
0.05252279407622431
0.6052575682847687
-0.1371247947998998
-0.817515447385412
-0.5574254707940194
0.5658141547020016
-0.008388683662836382
0.6335814299200127
-0.6238934670120286
0.3223034542831898
0.2142118197193424
-0.5365152740085526
-0.104525979019561
-0.6022349393899976
-0.09065955647058159
-0.1549091135899782
-0.5049026737303651
0.404134274615678
-0.4987759433289609
0.1266792351775637
0.67829071547534
-0.8049699507298342
0.5992149999690624
-0.3697817790514011
-0.04315568441449774
0.07768723989513174
-0.582589909643447
0.5518600060226341
-0.04048107673426867
-0.5113789291435998
-0.3122999423262148
0.3048358623101067
0.007464079088657299
0.4540129754688172
0.1213258932818634
0.05079036751600786
-0.3158469915038514
0.1567435532962023
0.1591034380171397
0.2346556486455298
-0.01207877881714011
-0.2951081071410845
-0.3123428825046525
0.3637032145678799
-0.05136033401626147
0.7884964451204115
-0.6274386715517606
-0.01926998183235282
0.4993524600264252
0.2805866245400745
-0.5255752544076038
0.57749819187
-0.5774981918715277
-0.2897504635729027
-0.5864620254078677
-0.295555790526748
-0.5864620252265295
-0.5949020757527509
-0.8385112363218256
0.1700425152272272
-0.583280084281752
0.8211542219919931
-0.00351222600503071
0.1191905391227549
0.4823166528207761
0.09669737455951294
0.1854239104458865
-0.03630013189896786
-0.1491237801525589
-0.01746591908201448
0.5942169288589544
-0.9462178922418367
0.4288802883959733
-0.001381937565281863
0.002372162072607105
-0.0009902259102900894
-0.6432695826359209
-0.1317239808617987
-0.4668073132849216
0.6011351145697451
-0.5037651733996743
-0.3231559603959814
-0.2594339659925
-0.2712990636419365
-0.1120177103808338
0.112017710076132
0.1525467919295354
0.05866999736946479
0.1965272603246872
0.4552918718629558
-0.5732035126930266
0.1063962025859364
0.2431765014841043
0.466220845205895
0.5337791539642506
0.6415148982832576
0.08463944909216943
-0.003356466913871888
-0.08128298578513479
-0.2768486091313572
-0.5406668381496523
-0.5499363079727263
0.1141182178611379
-0.1260893860882009
0.01197116772063068
-0.1058625598051119
-0.3860420208641045
-0.04452548478236366
0.6497830335813134
-0.4986716637916096
-0.14459791889971
-0.3389028618525817
0.2919145753989288
0.1232658879045252
-0.6062227885023863
-0.2040330589301061
-0.2617307255271153
0.001721749469511457
-0.4221356808514388
0.3225487516931962
0.09958692869258719
-0.09278976493164076
0.291618680148818
-0.8959270914644215
-0.4580376417787563
0.6323171160396713
-0.7729386322618789
0.6684126531969883
0.3423443309561998
-0.1256946573656102
0.2254678332694436
-0.09977317495993446
0.02480838806904995
-0.5862688380587219
0.02930030564328465
0.5569685327328873
-0.9007222714891969
0.5469016683589378
-0.6656025449192988
-0.09694068800136164
0.1093303010809927
-0.1093302977945603
-0.3165398548104503
0.3638629999244799
0.01396866569732138
0.02908295001432613
0.05555650667200106
0.5052062653098019
0.6615948522745562
-0.740153578693171
0.03028268297449317
0.02366547075978701
-0.0002978640492456309
-0.007005066156823437
0.007005065506021342
-0.4165347577294832
0.5378606518115758
0.01523114665459156
-0.01523114680709999
-0.7922268448665201
-0.06053657510916747
0.1222078707632577
-0.4550462385035222
0.5614424421438755
0.4509031459776196
-0.4982089365969727
0.1498268226149533
-0.1498268215121282
0.03601071066635461
-0.001827793861547559
-0.041550312639156
-0.97688687879512
0.5409373907374434
-0.4709679278777879
0.04163815933598271
0.5144500108619651
0.03106701291870558
-0.5455170235065286
-0.615933792239126
0.1172621276010878
-0.3297012322690205
0.01343398778795633
0.3162672452430632
-0.1542685431856432
-0.0790138054947207
-0.5407768101166232
-0.0454920343525906
0.136350369649956
-0.04080366371510001
0.03859099554212065
0.08137441125144315
-0.08137441533372186
-0.5381062723533955
0.4867459491687832
-0.4144109450853352
0.1613392814421335
0.6221998701205221
-0.09795658127074816
-0.00480994703506494
0.004809947194044614
0.5329619406599794
-0.07528701169756941
0.006020853128031003
0.02702006841082352
0.03463308362744055
0.6857043971364064
-0.760991408652722
-0.6571255026130617
0.6378555173872874
-0.1071049559929428
0.3128493768413169
0.7461829072690106
-0.01830420887646594
-0.2672300278568877
0.1492058744343904
-0.7446685568615695
0.4843738338596103
-0.4235040069927884
-0.1014837903430652
0.003575818577049756
-0.01443611471254112
0.01910327876486352
0.4114314887147739
-0.1216520263611566
-0.3897269017500038
0.6288656815736768
0.01921044257761167
0.01068814953194364
-0.01068814951382709
-0.3558131268757918
-0.08281440621447098
-0.5606074528265692
0.5570952270606115
-0.2383294136262346
0.4648030610737345
-0.1510734207917347
0.728677845144407
0.6731025211545063
-0.04080366315459122
-0.6155207755900274
0.5619799247215228
0.2891158739949166
-0.2869210735280761
-0.002194801789053812
0.5450657486903067
0.09338307598802965
-0.03894480523352327
0.1968991784882659
-0.1579543739140434
0.120319211302678
-0.120319214516695
-0.8587639046961607
0.002373100827433116
-0.1131701035136849
0.1401901733974575
-0.1320028456803463
0.132002845120965
0.02366546443194314
-0.02311414765187148
0.6707890792285487
0.05887095773927486
-0.3231302708681164
-0.06291175065597245
-0.4712286106455854
-0.0497869874253582
-0.1517261307102746
0.1517261296731594
-0.04527228346741666
0.1432341879155244
-0.1432341871600425
0.1366993334408333
-0.1366993355739212
-0.3156230060205581
-0.1146174847388008
0.2266051998549345
0.1030031734274474
0.03486237943884717
-0.8211070641559682
-0.1976613652526937
0.1703319320862386
0.02071518234567156
-0.2654469747406962
0.1257425172158255
-0.125742516559933
-0.4140518054946586
-0.08472413999927028
0.236548968038418
0.002203298120782044
0.04057074596995134
-0.543205862298261
0.5779686713733497
-0.02604460242910055
-0.01922768355979657
-0.02867747609670121
0.02684968711430174
0.006592645196033113
-0.184258164253486
0.1776655189248232
-0.1081763018099808
-0.228166390907333
-0.1448302523885917
0.1448302515775226
0.07296520264385066
-0.0729652029483038
-0.01945800622277255
-0.108680977527311
0.1281389844167932
0.2421364365117255
-0.1827751721299953
-0.02677001910218571
0.02647216451470082
-0.1387933524658035
0.6255393034446503
-0.03905249403310681
0.4226490817851596
-0.04246469746639501
0.06220790446282527
-0.153490868734284
0.1534908672538318
-0.6363022488905314
0.3089384790371029
-0.07935805106895073
-0.2347075872206996
0.003567632509165333
-0.1219791710667757
0.1625499158233562
0.19497150240006
0.09731722545768166
0.09582108745815171
-0.06118800346368244
0.07255670679588945
0.04156151191452464
0.06385424923921841
0.10647767809714
-0.09572418446936908
0.207277311989084
0.01290081844169776
-0.1144309369342821
-0.1013677474304899
0.09782933678283408
0.003538411652762512
0.01297732076121896
-0.0232542475734241
0.03786243022303266
-0.03786243025602294
0.07492000640295138
-0.05477156556639851
0.05477156525655206
-0.2245639933475394
-0.05222303369902614
0.011451497000605
-0.1030960316385663
0.01638011974174031
0.1083042520013615
-0.1083042515447465
0.2945584293662825
-0.2715857080389415
0.1634094095011308
-0.05074133983730622
-0.2208443681393524
-0.01756423148022037
0.0175642317436399
0.3673300008507828
0.2852667161871217
-0.5274592729726889
-0.09399844652189951
-0.03209093916135439
0.528669287910128
0.2134589769357834
-0.1699128024101551
-0.3810142802053009
0.07648566513046068
-0.147831527971341
0.1873798948687984
-0.0395483670973082
-0.06674273925468723
0.06674273949914017
0.822668572393925
-0.5606710421993832
-0.004308453224028543
0.0172857723973711
-0.01998514510460477
-0.2866640016512935
-0.0174916750269604
-0.01282739775125523
-0.1317749180458968
-0.572013576241119
0.5559527482519956
-0.5693200586823396
-0.006895883284192373
0.1029261745567622
-0.001764732502855153
0.01679153189688648
-0.167816673558712
-0.3366196537163967
0.2335236221451131
-0.05456078203502128
0.03510277685881312
0.1317176363650447
0.1731182260886949
0.3364327217030099
0.2767364939051102
-0.2785012259614838
-0.06277674653509524
-0.1549463681217812
-0.2212735950261351
0.07485898008270357
-0.01100473166728344
0.2141699883892618
-0.1973784559846318
-0.08628152303937497
0.1588382302898652
-0.3551082407842287
0.2086957120400587
-0.1923155921076047
0.0896066554613297
-0.4793335611508301
0.1745525003306339
0.1698626842863313
-0.2561442043622021
0.07256684277818506
-0.1942857641027516
0.1767940885885808
0.01743825985840647
0.1413999709990935
-0.03954043299945338
0.06620539006309784
0.4667565500375458
0.02029819871801511
-0.07684748630261923
0.05555503529857082
0.1257540632834845
-0.2608219595568569
-0.2308795573287856
0.559715801068448
0.1578187891892478
0.07873017855023982
0.07564140156883779
-0.03091483399812549
-0.009994154496202475
0.007799346428092248
-0.03279537900555931
0.1712242626581993
-0.1781201454637542
-0.05774420475284475
0.02216370267703215
-0.1467506800128235
-0.05288579298074809
0.1495331167156818
0.2770863388554507
-0.03866994900879396
0.01685553399970171
-0.25575284710194
-0.131236838959458
0.235660965804992
0.1791041983277979
0.1298342798279304
0.02185439982120093
0.08908649410807583
0.05214144199091955
0.4530648232688818
0.01643922494490328
0.09704076745087067
0.04380011308403024
0.07163137498270541
-0.1154314892376789
-0.242192558580057
-0.2009585923428801
-0.01988577343607691
-0.2022472252735081
0.2756386249455308
)
;

boundaryField
{
    FrontBack
    {
        type            empty;
    }
    Top
    {
        type            calculated;
        value           uniform 0;
    }
    In
    {
        type            calculated;
        value           uniform -1;
    }
    Bottom
    {
        type            calculated;
        value           uniform 0;
    }
    Out
    {
        type            calculated;
        value           nonuniform List<scalar> 10(1.034688291684739 1.064358965569844 1.021535676342137 1.019168165599092 0.9966321363927266 1.015878004844293 1.035743895398836 1.062728414890187 0.8672486512386779 0.88201781592883);
    }
    circle
    {
        type            calculated;
        value           uniform 0;
    }
}


// ************************************************************************* //
