/*--------------------------------*- C++ -*----------------------------------*\
| =========                 |                                                 |
| \\      /  F ield         | OpenFOAM: The Open Source CFD Toolbox           |
|  \\    /   O peration     | Version:  2412                                  |
|   \\  /    A nd           | Website:  www.openfoam.com                      |
|    \\/     M anipulation  |                                                 |
\*---------------------------------------------------------------------------*/
FoamFile
{
    version     2.0;
    format      ascii;
    arch        "LSB;label=32;scalar=64";
    class       volScalarField;
    location    "1694";
    object      yPlus;
}
// * * * * * * * * * * * * * * * * * * * * * * * * * * * * * * * * * * * * * //

dimensions      [0 0 0 0 0 0 0];

internalField   uniform 0;

boundaryField
{
    FrontBack
    {
        type            empty;
    }
    Top
    {
        type            calculated;
        value           nonuniform List<scalar> 
15
(
142.2764138741779
133.5750235595133
138.0702683412476
144.406469530549
159.7720736937639
131.3687949569844
140.1279739202974
135.3600988539925
153.4370400920107
135.7436983370122
136.0955870777359
136.7708766059418
125.2493919274819
132.9046626326944
123.9474690360334
)
;
    }
    In
    {
        type            calculated;
        value           uniform 0;
    }
    Bottom
    {
        type            calculated;
        value           nonuniform List<scalar> 
15
(
155.5651592719722
158.1142416451669
141.0877112145604
142.0620215845402
141.1813465845092
148.4379419644115
142.7024075507499
143.162532444954
143.4238598260629
134.0554489822193
125.7310338563538
141.5522123416927
122.41073145518
123.4912860687632
124.1376464413941
)
;
    }
    Out
    {
        type            calculated;
        value           uniform 0;
    }
    circle
    {
        type            calculated;
        value           nonuniform List<scalar> 
32
(
56.36423144019902
22.18414934881855
65.33114782644641
23.54702860251284
19.07980525928973
56.16017369290275
56.81794128481946
24.13779247450554
22.37060295088209
65.55199485159331
40.18332727369889
63.05903506040578
50.30020098831315
13.55808981532658
23.76473824331918
18.77196182912024
38.88305739666238
59.58398571361918
60.99465213946021
24.77271724501943
65.70745859418182
63.83412528920038
62.94132498935542
59.93709963429362
64.08607212398165
45.93866205098261
66.34916690465829
32.05185635830659
38.02974037153932
55.76853260506205
21.03816133341672
43.1711279160527
)
;
    }
}


// ************************************************************************* //
