/*--------------------------------*- C++ -*----------------------------------*\
| =========                 |                                                 |
| \\      /  F ield         | OpenFOAM: The Open Source CFD Toolbox           |
|  \\    /   O peration     | Version:  2412                                  |
|   \\  /    A nd           | Website:  www.openfoam.com                      |
|    \\/     M anipulation  |                                                 |
\*---------------------------------------------------------------------------*/
FoamFile
{
    version     2.0;
    format      ascii;
    arch        "LSB;label=32;scalar=64";
    class       volScalarField;
    location    "1057";
    object      p;
}
// * * * * * * * * * * * * * * * * * * * * * * * * * * * * * * * * * * * * * //

dimensions      [0 2 -2 0 0 0 0];

internalField   nonuniform List<scalar> 
808
(
-0.03572270985449231
0.0450619251208361
-0.01192038410033268
0.03521684117332264
-0.3033356405133351
-0.05461208317540089
-0.01452147667488564
-0.02386582880467462
-0.1997585521419765
-0.08543797179131657
-0.009382953507126802
-0.2573631822371385
-0.030564886928621
-0.01293326187050164
-0.1223380568531447
-0.01399727426184657
-0.14105283536608
-0.01355710984667059
-0.01254895491740285
-0.05684508626271687
-0.005877611502216717
0.1182140316460063
-0.06094051779975231
-0.0732189300832059
0.1763266245052469
-0.09930354352305912
-0.1549534642310272
-0.02030926900514061
-0.01738804195433049
-0.02603764413380381
-0.02016345038258429
-0.05973404864571538
-0.02298263262015708
-0.01684422285218895
-0.1008647474061888
0.3441826122046157
-0.03856218275662287
-0.01684130796940292
-0.02327529196750774
-0.02659008802225693
-0.09167286095270058
-0.1287180688392341
-0.05081481726649307
-0.02061039966067531
-0.05501201467588643
-0.03998376663416327
-0.01237653186720295
-0.1872035290211713
-0.02755426766782788
-0.2070397138929249
-0.01606292540047326
-0.06878096062389642
-0.05955235105811784
-0.01487079035254232
-0.1905742289551237
-0.02895300477634501
-0.01070238023112475
-0.01446961550351779
-0.1021580194794161
-0.04063084672560262
-0.095899601620643
-0.1283301979364048
-0.01339035218980088
-0.1297971060608513
-0.01690290483144984
-0.05062911169821328
-0.1664179920191333
-0.03568079237922431
-0.01489117292919171
-0.4456158786058347
-0.02698978301833273
-0.3076747316085599
-0.02201140596989971
-0.02031218316243185
-0.06690160397269802
-0.01736380530394901
-0.04347107636386546
-0.3600208618753526
-0.03543315945517574
0.04174884595036737
-0.09061814522730234
-0.01729458440385127
0.05679499987975337
0.04369148513345885
-0.01657187895529136
-0.05320284150948176
-0.5484675802954304
-0.2231311094361107
-0.05331563002630339
-0.1116478540338762
-0.05788176834256618
-0.1346158343733047
0.04061529094229384
-0.02394486242277945
-0.06060256466681462
-0.1186577039960164
-0.03850689298715595
-0.05213362770596923
-0.1178759585127541
-0.1394333947541477
-0.05207326912275218
-0.04835054613032672
-0.05552281321374359
-0.04572360118820205
-0.0578895362418768
-0.07330176109104497
-0.04162418554803433
-0.01130525545089578
-0.04106098622086078
-0.1264093271269449
-0.05123339605756232
0.08322351652419396
-0.04311676652133403
-0.008191346982825663
-0.02785278070214184
0.1802264725648454
-0.03979219032305352
-0.273186913376204
-0.02027790279678263
-0.05474268767889966
-0.02668709476379808
-0.04784990713486529
0.01265397636789481
-0.04995165232521376
-0.03412954514028414
-0.2145328045755719
-0.04270596618667422
-0.005152417630645079
-0.07753828209748104
-0.06760660848548139
-0.145549303969914
-0.02088124895210904
-0.07637774293823482
-0.04129423593036539
-0.02271429944873891
-0.01654520560275513
-0.006458489995915118
-0.007322377491590164
-0.05312683634508416
-0.0508743459454726
-0.2110130892586282
-0.05795413070305721
-0.008570646246829464
-0.02276760885606511
-0.1449939479497494
-0.002509792150603821
-0.07762911615208244
-0.02352910890697905
-0.001205033311613894
-0.01062074512667036
-0.03389512683541016
0.09540021500892278
-0.03971522908428984
0.2526608687550342
-0.267056773378387
-0.1304491112186361
-0.03711455784504774
-0.09121834045840189
-0.009264914201308556
-0.111857803678419
-0.1860770247991039
-0.2159098472398381
-0.1818327002792
0.05545838415167061
-0.06187401746012704
-0.02028691721461637
-0.0678702656954998
-0.1704317659999645
-0.02390360971339461
-0.01844589622025658
-0.05320253709520824
-0.01816877486454216
-0.00601354575117583
-0.1101048730385317
-0.02274878344764635
-0.0465047920498491
-0.06884398026057278
-0.1634948812695491
-0.03374038505053657
-0.3958987330801722
-0.0178070521712057
-0.2226713530815118
-0.0453697439894434
0.03075637330952388
-0.1055637004705776
-0.0142480969540262
-0.04161298019434991
-0.1054039279296599
-0.01767069579882391
-0.09673911469944868
-0.2061717076587551
-0.07283602050040712
-0.02368748714692565
-0.04968991109872551
-0.04376799630537888
-0.2046549875406141
-0.02183085588554817
-0.01894480196860887
-0.01136358078455708
-0.05470390580385214
-0.05192244687595719
-0.02237318753269747
-0.0208692976782352
-0.2476910795336773
0.127959871353904
-0.2008643465152347
-0.2069505858304193
-0.01179486890969558
-0.01160767544322533
-0.06767849605130025
-0.009596246988014803
-0.5146948908428439
-0.1214108323711867
-0.01892695160119215
-0.001031660206800159
-0.02429239170998197
-0.2868113081018897
-0.2743169134518305
-0.007040205407068896
-0.01751826307605663
-0.001867039830363376
-0.3448356074101591
-0.0282443444856646
-0.02913086056794204
-0.01248716643099897
-0.01978669521324909
0.05093072482442548
-0.1072191769873693
-0.01388290872777954
-0.02073502172837717
-0.04304278861079278
-0.01818672768096346
-0.01611703363367118
-0.02337050609678895
-0.06694391007319538
-0.01185282952064238
-0.01908223224400008
-0.008500591237692453
-0.0007432198597992958
-0.02957275737111691
-0.001552712550720089
-0.002298128857387285
-0.006056157096274229
-0.02562968383208263
-0.00798092297029596
0.001535250081622144
-0.004202573988786347
0.001204072302932628
0.002545571600296467
-0.008618391812706527
-0.1431289815009375
-0.003030249738050838
-0.001452830968243729
-0.04849987206449424
-0.02154509348183798
-0.02488612415251812
-0.01440001247516107
-0.006101090739743013
-0.02085142742494903
-0.03748173308169928
-0.01393996210862308
-0.01285304422737917
-0.01183397189350129
0.007334331626136961
-0.01030414669078273
-0.01184093859561744
-0.01133173490242325
-0.01080886426367945
-0.01014329558218027
-0.01169959524325608
-0.01414233577908998
-0.3114157034465179
0.06094054130194385
-0.01556646075491194
-0.01635244712294766
-0.01310085413481242
-0.01220476658818531
-0.008807597570377353
-0.09736051117989518
0.009538414125813964
-0.01366721330102414
-0.0147059991276376
-0.01078459876624007
-0.05317255380828739
-0.0101326117232903
-0.01377281767748098
-0.009450011685508642
-0.0004211769117098072
-0.009884945917561071
-0.0113841091894871
-0.02489795272911164
-0.01616848924607693
-0.01183267428497719
-0.01337922877254522
-0.007537684417846211
-0.01263643113759028
-0.01173205275122052
-0.05729360242542097
-0.01302880720121681
-0.01125490453275944
-0.008680002901601386
-0.01484471741918886
-0.01388252968761973
-0.01571471152015532
-1.378351348987923
-0.09833117258219153
-0.01332718804186225
0.02402552350233265
-0.1652340267209428
-0.0924439985820048
-0.0114456443086706
-0.01404542199520899
-0.2518681196954781
-0.03068931130507019
-0.02029984821258332
-0.01090852156706703
-0.01960985922428298
-0.01079484564565242
-0.03070163197955341
-0.4154310412585784
-0.01237138705549932
-0.01410521343982778
-0.004898282127635204
-0.01076530064980859
-0.009992834806194071
-0.01434430846559929
-0.008569029954978193
-0.02607088053019751
-0.0113339352110219
-0.1628089435447424
0.01723153254831858
-0.007727738800758573
0.003281904653447784
0.01356456049075778
-0.04727131512938826
0.02985418751135084
-0.01301579495155088
-0.1353586936458292
0.2820864747618619
-0.007193042970517133
-0.01325770148097852
-0.008429483216354025
-0.03296643448122802
-0.1223910415311163
-0.01273265925337402
-0.01237077666562299
-0.01681372763395662
-0.01360469783068426
-0.04095031790071756
-0.214075873624555
-0.01140007518429754
-0.04120465448614456
-0.03996298372128134
-0.1654490295500583
-0.16565139792482
-0.1376690379367719
-0.2510517901537307
-0.007348011985051696
-0.02130194961039313
-0.01413343184205771
-0.01260091601868807
-0.0328391902230391
-0.02440692396276576
-0.01449149290062412
-0.01500835371118655
-1.081955240980944
-0.006066395616000438
-0.01360842970704293
-0.01849675144406746
-0.02108484962287273
0.001023883500643777
-0.01431545591262608
-0.02773282286394274
-0.1614957157699993
-0.01359050397871565
-0.02229826539029829
-0.01375632003505824
0.0006252985815081671
-0.1795803902074095
-0.01330249921943755
-0.1409857726197475
-0.01611074502262775
0.007523955418991014
-0.01466025429619513
-0.02306257319873906
-0.01556188896280164
0.004835847052228976
-0.2789496917047696
-0.02544805291335701
-0.01591621327695305
-0.002319216083810445
-0.009314700700482259
-0.03058788370201197
-0.01440967818682501
-0.02032080539659151
-0.02140624119807864
0.01383569923052716
-0.1009730928551352
-0.0221527944007334
0.0091641138892774
-0.05118057905627293
0.1591776542807984
-0.102844697643578
-0.321242015726028
-0.03086836326566359
-0.02538318847874728
0.1492604059589573
0.08148826736366435
-0.003334096116726453
0.04916936679037989
-0.01563655268404054
-0.01468429478540401
0.002206594851211004
0.0118358091980105
-0.06704783005063147
-0.005886148790057812
-0.05765968217687719
-0.02209689344952761
-0.01572566926621123
-0.03653470498785472
-0.03291393533679315
-0.006637669386906158
-0.01509673840361941
-0.03919671552613028
0.03793205730487863
-0.03890320784016334
-0.01362436857324483
-0.1161751555466173
-0.03209440338232232
-0.0384604288256797
-0.6776709356321373
0.01985338020646107
-0.0108090608000452
-0.005442202273679054
0.1582878708899833
-0.08335116395769691
-0.03489632223302205
-0.2471667063761633
-0.01674351863985222
-0.016629995113517
0.06311466899489579
-0.1846855431625653
-0.2285051497896956
-0.1986482980858959
-0.6868985496995564
0.003270467300001954
-0.0186728578954941
-0.0169193483951687
-0.07798088135143795
0.1177558461580364
-0.02093838495913151
-0.2413067570691571
-0.03488928564307652
-0.0064477075524876
0.2777476226827464
-0.01132816932708721
-0.09381284710931483
-0.148828632730591
-0.004369688985271565
-0.04033335357092366
-0.04948671888456979
-0.2066805068019394
-0.008809424296251455
-0.04217365894383016
-0.002405186955841902
-0.5512651937001066
-0.1996739394506441
-0.1756197996580592
-0.02264714670275965
-0.006831932682502333
-0.05986938632648379
-0.05828493630654363
-0.01435218460528376
-0.06743767253683043
0.003084775583512445
-0.01841217592389938
-0.09461921413001069
-0.2667476848806069
-0.007314188888467419
-0.02647205058305231
-0.02213636310644022
-0.0741057088484945
-0.0911755360933043
-0.08767915177396819
-0.01183305872706008
-0.9280650202898029
0.1607645328398269
-0.07893116619377079
-0.25673908919498
-0.04263265032068462
-0.01052453789563577
-0.2535482961694687
-0.1841447596402928
-0.03324025916486292
-0.1287021577223368
-0.01932476125466871
0.5629603330099627
-0.02379527815214277
-0.2301400164996508
-0.02621133088249325
-0.005722554399772705
-0.01201360613187447
-1.253465414593375
-0.1828583353026112
-0.2337611476055022
0.005380904882468784
-0.03720918124535344
-0.2541440280463163
-0.06530217700166334
-0.0508695165580829
-0.1419843465841901
-0.1907447991547278
-0.06767273858081176
-1.230467895242941
-0.1421328035769308
-0.5187030161568732
0.07840118564905436
-0.006820929367223219
-0.022019298194046
-0.04247177199742294
-0.04067708258150306
-0.02889678757008249
-0.1312792686043732
0.07986652843500266
-0.002349264558502487
-0.009793413352597608
-0.5816146559083208
-0.8649917358305541
-0.1860809070017277
-0.008313021179289974
-0.1389032303169882
0.001115080975959102
-0.0005459889935073932
-0.001791340454445641
-0.05986770333265251
-0.2391573519263658
-0.0133999792284557
-0.1251326825588674
-0.1556461361228974
-0.01324297740885866
-0.03596542030189843
0.02202304248184723
-0.05718240688547189
-0.06956633187631667
-0.5038095240763055
-0.2350608331721872
-0.0808616951096378
-0.07240917276763412
-0.01997355756423485
-0.1246323338295599
-0.1518293014479759
-0.07424278207253178
0.02305264943514527
-0.08423316948926919
-0.04793464854586561
-0.01489420797723645
-0.1060286307863865
-0.2717710088978806
-0.05664371211755258
-0.01853894308500876
-4.721817696580281e-05
-0.009993974280277582
-0.01117246653459492
-0.2162649606937185
-0.01530226675741143
-0.2224534112151007
-0.01031064389192619
-0.06683661030639114
-0.003929108524855893
-0.02320322336017729
-0.3769295346639367
-0.9080671013435948
-0.01134608650256986
-1.049403871022112
-0.6145944915951256
-0.01065047436127985
-0.6564770540688747
-0.1763397305304175
-0.005956439239450458
-0.1312251267569427
-0.01690430726610473
-0.1215768978341919
-0.06745853782250918
-0.07765623329229109
-0.005061336390192323
-0.002423051271628376
-1.337052383455875
-0.01119067277801305
-0.1823545437488742
0.0004981068245651295
-1.012040622462924
-1.232462698652649
-0.08167523063301819
0.01967339055181807
0.1643330967051128
-0.004600526163182982
-0.02305273487361821
-0.0041879841684834
-0.2538542993457975
0.366168093922695
-0.04075603290210929
-0.2102675048804408
-0.01486724249114049
-0.6556116969101915
-0.07516723044169191
0.1909743485405871
-0.2830055501152752
-0.04967235820719258
-0.06860004752916153
-0.01590273410668816
-0.02177697923910632
-0.5741234612943219
-0.1441421888650081
-0.08524641754326677
-0.1290898272501803
-0.5564194138819989
-0.04403275157585736
-0.9084802414283333
0.0002178129572407502
-0.2373281460222655
-1.048573137394564
0.1676502194613224
0.2916866460344998
-0.1847698337157594
-0.1931054785239866
-0.2077922080629533
-0.06817188744502814
0.02230635114798519
0.04825864028132413
0.00353218731791198
-0.1680593332365652
0.02555319539609632
-1.355208708006616
-0.08494184558486093
-0.4726276221689663
-0.3299338888538078
-0.2028327402929296
-0.1759618880715069
-0.01690511829103073
-0.0154750598016534
-0.107836197155938
0.171469610730013
0.3855223376887694
-0.2133757574358918
-0.1386042876373504
-0.2365408694290191
-0.06233534566972435
-0.1492248724346662
-0.1623833389922186
-0.1254011461402233
-0.1242896526861908
0.4659478599548799
-0.2681703431177915
0.4314467009011858
-0.6004844222833802
0.07063265857076435
-0.2047923062596173
-0.0659164962784006
-0.07407826874374519
-0.877228374202806
-0.2201834344273058
-0.1900321125108332
-0.3458458620927939
-0.4567465781400797
0.5706240765807765
-0.207250930705175
0.0001477085301484133
-0.07075943291176942
0.3438794354506533
-0.03762012505881959
-0.1324502876972908
-0.1789556193736658
-0.06338041433936434
-0.01655396905623814
-0.1947760259023042
0.194195068206869
-0.01287874654028514
-0.09596899826123788
-0.1686979650564135
-0.3151017363684267
-0.3137952048408429
-0.06367821829226623
-0.01032880524130511
-0.07866961017843749
-0.6549085544626508
-0.6694769712175422
-0.3393498382087808
-0.05750440512347946
-0.05204670786857122
-0.02553460782106524
-0.06737051932108874
-0.05797189368657467
-0.357786393546805
-0.9566285905365544
-0.01048154830168346
-0.08267251917110779
-1.136790899867793
-1.030674409811354
-0.1049848830819121
-0.03842197405477618
-0.07010817638625783
0.3903498764139673
-0.3446046665791584
-0.0500976529249641
-0.5976665014029837
-0.1212918459416877
-0.2534626713096282
-0.2099578855164484
0.4741418144483605
-0.6267206986044863
0.07360737481933999
-0.02962138223190424
-0.5566528833098267
-0.05131579499572297
-0.3609943210974829
0.107079425184804
-0.1896511927051955
-0.05960444256306997
-0.1391924835745414
-0.3623516848817229
-0.08784136649187041
0.5145847657054869
0.0853199246346705
0.4707968498060352
-0.1019668325307053
-0.1993987320020728
-0.5233055397319311
-0.1306675349401646
0.02699889406215199
-0.05331709972393553
0.1026426971005296
-0.3070770933947788
0.2362481744499144
0.008447706776543811
-0.003279318535551406
-0.5140563577295092
-0.1859337725956539
-0.08090088032382112
0.5815767876977722
0.1384105136912861
0.345351514285596
0.2258169749456225
-0.5606983927789022
-0.19994896496652
-0.222557645191854
-0.2341826912898495
-0.06008106259282543
-0.6953126513298838
-0.1938470499902236
0.306097988367011
-0.1988062798152015
-0.01125337440461974
-0.1719740543639533
-0.009288385423931006
-0.1563174639771911
-0.4336480418692766
-0.07653948060171463
-0.1984951678831211
-0.07090395890619226
-0.08651442085552172
-0.1466457703090682
-0.07322204703939905
-0.4561991768083469
-0.4154579177910148
-0.02616008943606675
-0.07419646000278639
0.3276333751428611
-0.2460877938708947
-0.1855104271019252
0.5253083938676292
-0.2087809266699986
0.01798749073841323
-0.4482898809160612
0.04729971639318863
-0.06225376777089205
-0.1453762376145086
-0.5814219719043902
0.1613258634064814
-0.5814550784439318
-0.5330345942902357
-0.105686108411308
-0.506348462561266
-0.03744797751075709
-0.138471863467242
-0.4094757454167052
-0.01631516068318356
0.2867064776268711
0.4895963373371179
-0.1579699355758853
-0.008251843151496303
-0.07531144016271984
0.5253296720420682
-0.03349888409354946
-0.4375390001300803
-0.03287311099506342
0.4607838455661799
-0.01462141094683055
-0.5419278673594956
-0.2473982442675627
0.1760136587674534
-0.309100778579376
-0.1780628494767731
0.0512269027153115
0.03381580505605661
0.0542298405292656
-0.2978737794337449
-0.1579517702325147
0.4127783907961824
)
;

boundaryField
{
    FrontBack
    {
        type            empty;
    }
    Top
    {
        type            zeroGradient;
    }
    In
    {
        type            zeroGradient;
    }
    Bottom
    {
        type            zeroGradient;
    }
    Out
    {
        type            fixedValue;
        value           uniform 0;
    }
    circle
    {
        type            zeroGradient;
    }
}


// ************************************************************************* //
