/*--------------------------------*- C++ -*----------------------------------*\
| =========                 |                                                 |
| \\      /  F ield         | OpenFOAM: The Open Source CFD Toolbox           |
|  \\    /   O peration     | Version:  2412                                  |
|   \\  /    A nd           | Website:  www.openfoam.com                      |
|    \\/     M anipulation  |                                                 |
\*---------------------------------------------------------------------------*/
FoamFile
{
    version     2.0;
    format      ascii;
    arch        "LSB;label=32;scalar=64";
    class       volVectorField;
    location    "0.2";
    object      cellDisplacement;
}
// * * * * * * * * * * * * * * * * * * * * * * * * * * * * * * * * * * * * * //

dimensions      [0 1 0 0 0 0 0];

internalField   nonuniform List<vector> 
256
(
(0.00108014 -0.00111605 0)
(0.00194997 -0.00190615 0)
(0.0028937 -0.00249196 0)
(0.0038379 -0.00277132 0)
(0.00472209 -0.00270574 0)
(0.00561442 -0.00233886 0)
(0.00646826 -0.00166913 0)
(0.0069456 -0.00071684 0)
(0.00447059 -0.00457743 0)
(0.00704883 -0.00663013 0)
(0.00959398 -0.00789153 0)
(0.0121595 -0.0083515 0)
(0.0147567 -0.00797763 0)
(0.0172417 -0.00673713 0)
(0.0192904 -0.00465234 0)
(0.0205096 -0.00191413 0)
(0.00900465 -0.00911549 0)
(0.012917 -0.0118622 0)
(0.0169117 -0.0134672 0)
(0.0209497 -0.0138321 0)
(0.0248763 -0.012885 0)
(0.0285631 -0.0106659 0)
(0.0316543 -0.00724307 0)
(0.0334208 -0.00287228 0)
(0.0144433 -0.0144885 0)
(0.0195948 -0.0176025 0)
(0.0247523 -0.019139 0)
(0.029947 -0.0191114 0)
(0.0350764 -0.0174817 0)
(0.0397823 -0.0142278 0)
(0.0435006 -0.00947686 0)
(0.0456613 -0.00362209 0)
(0.0207848 -0.0206441 0)
(0.0268409 -0.02364 0)
(0.0330285 -0.024864 0)
(0.0392685 -0.0242602 0)
(0.0452667 -0.0217584 0)
(0.0506703 -0.0174171 0)
(0.0549617 -0.0114146 0)
(0.0573844 -0.00419456 0)
(0.0277841 -0.0273406 0)
(0.034696 -0.029981 0)
(0.0416878 -0.0305895 0)
(0.0486867 -0.0291909 0)
(0.0554382 -0.0257502 0)
(0.0614254 -0.0202987 0)
(0.0659853 -0.0130747 0)
(0.0685587 -0.00460159 0)
(0.0354571 -0.03454 0)
(0.0429537 -0.0364476 0)
(0.0506394 -0.036266 0)
(0.0583146 -0.0339489 0)
(0.0655488 -0.0294462 0)
(0.0718541 -0.0228651 0)
(0.0766616 -0.0144829 0)
(0.0792961 -0.00485069 0)
(0.0435883 -0.0420146 0)
(0.051668 -0.0430378 0)
(0.0598717 -0.0418505 0)
(0.0679642 -0.0384596 0)
(0.0755784 -0.0328533 0)
(0.0821347 -0.0251387 0)
(0.0869612 -0.0156412 0)
(0.0895734 -0.00494391 0)
(0.0522503 -0.0497632 0)
(0.0606961 -0.049621 0)
(0.0693008 -0.0472834 0)
(0.0777474 -0.0427287 0)
(0.0855318 -0.0359479 0)
(0.0921078 -0.0271066 0)
(0.096941 -0.0165466 0)
(0.0994671 -0.00486563 0)
(0.0612591 -0.0575843 0)
(0.0700894 -0.0561515 0)
(0.0789614 -0.0525084 0)
(0.0875289 -0.0466823 0)
(0.0953677 -0.0387022 0)
(0.101919 -0.0287422 0)
(0.10658 -0.0171827 0)
(0.108958 -0.00459376 0)
(0.0707215 -0.0654381 0)
(0.0797528 -0.0624976 0)
(0.0887697 -0.057425 0)
(0.0973891 -0.0502633 0)
(0.10512 -0.0410521 0)
(0.111439 -0.0300091 0)
(0.115896 -0.0175024 0)
(0.118076 -0.00409958 0)
(0.0804793 -0.0731109 0)
(0.0897273 -0.0685212 0)
(0.0987799 -0.0619135 0)
(0.107254 -0.0533403 0)
(0.114721 -0.0428954 0)
(0.120743 -0.0308137 0)
(0.124862 -0.0174521 0)
(0.126789 -0.00331964 0)
(0.090664 -0.0804049 0)
(0.0999848 -0.074009 0)
(0.108947 -0.0657464 0)
(0.117146 -0.0557162 0)
(0.124205 -0.0440767 0)
(0.12974 -0.031024 0)
(0.133438 -0.0169045 0)
(0.135062 -0.00219377 0)
(0.101169 -0.0869727 0)
(0.110531 -0.0785925 0)
(0.11924 -0.0685876 0)
(0.126962 -0.0571301 0)
(0.133415 -0.0443313 0)
(0.138345 -0.0304158 0)
(0.141515 -0.0157246 0)
(0.14276 -0.000549584 0)
(0.111909 -0.0922149 0)
(0.121142 -0.081693 0)
(0.129368 -0.0699514 0)
(0.136392 -0.0571263 0)
(0.142061 -0.0433155 0)
(0.146219 -0.028749 0)
(0.148731 -0.0136738 0)
(0.149525 0.00163429 0)
(0.12207 -0.0945324 0)
(0.130748 -0.0821123 0)
(0.138166 -0.0689014 0)
(0.144255 -0.0550269 0)
(0.148954 -0.0406225 0)
(0.152218 -0.0258269 0)
(0.154017 -0.0107826 0)
(0.154332 0.00436561 0)
(0.000322396 -0.00691866 0)
(0.00133246 -0.0066467 0)
(0.00213602 -0.0059999 0)
(0.00264872 -0.00518798 0)
(0.00275903 -0.00418095 0)
(0.0025038 -0.00313863 0)
(0.00192632 -0.00211158 0)
(0.00108983 -0.00109516 0)
(0.000998981 -0.0206078 0)
(0.00385854 -0.0198506 0)
(0.00621691 -0.0181935 0)
(0.00774214 -0.0158468 0)
(0.00828149 -0.0131252 0)
(0.00785361 -0.0102723 0)
(0.00654304 -0.00743107 0)
(0.004455 -0.00459845 0)
(0.00168696 -0.0334575 0)
(0.00617695 -0.0323551 0)
(0.00992051 -0.0298461 0)
(0.012503 -0.026404 0)
(0.0136332 -0.0222951 0)
(0.0133271 -0.0179485 0)
(0.0116898 -0.0135942 0)
(0.00884858 -0.00926263 0)
(0.00239072 -0.0457826 0)
(0.00834036 -0.0443243 0)
(0.0133887 -0.0411957 0)
(0.0169695 -0.0367611 0)
(0.0188109 -0.0315628 0)
(0.0188689 -0.0260223 0)
(0.0172559 -0.0204475 0)
(0.0140778 -0.0148881 0)
(0.00311977 -0.0574205 0)
(0.0103856 -0.0557287 0)
(0.016611 -0.0520621 0)
(0.0212251 -0.0469776 0)
(0.0238655 -0.0409234 0)
(0.0244842 -0.0344407 0)
(0.0231801 -0.0278908 0)
(0.0200679 -0.0213743 0)
(0.0038906 -0.0686296 0)
(0.0123525 -0.0666779 0)
(0.0197057 -0.0626565 0)
(0.0253021 -0.0569864 0)
(0.0288111 -0.0502897 0)
(0.0301495 -0.0430962 0)
(0.0293975 -0.0357954 0)
(0.0266576 -0.0285299 0)
(0.00471369 -0.0792594 0)
(0.0142726 -0.0771619 0)
(0.022658 -0.0728282 0)
(0.0292577 -0.066818 0)
(0.0336913 -0.0596567 0)
(0.0358689 -0.0519256 0)
(0.0358575 -0.0440558 0)
(0.0337786 -0.0362357 0)
(0.00561757 -0.0895278 0)
(0.0161801 -0.0872476 0)
(0.0255669 -0.0827459 0)
(0.0331245 -0.0764386 0)
(0.0385244 -0.0689603 0)
(0.0416408 -0.060858 0)
(0.0425287 -0.0525645 0)
(0.0413154 -0.044333 0)
(0.00661054 -0.0992945 0)
(0.0181087 -0.0969423 0)
(0.028413 -0.0922873 0)
(0.0369499 -0.085863 0)
(0.0433449 -0.0781917 0)
(0.0474777 -0.0698238 0)
(0.0494043 -0.0612622 0)
(0.0492609 -0.0527415 0)
(0.00774374 -0.108742 0)
(0.0200877 -0.106263 0)
(0.031288 -0.101575 0)
(0.0407568 -0.0950672 0)
(0.0481735 -0.0872883 0)
(0.0534087 -0.0788151 0)
(0.0564849 -0.0700598 0)
(0.0575379 -0.0613268 0)
(0.00903011 -0.11772 0)
(0.0221565 -0.115222 0)
(0.0341687 -0.110508 0)
(0.0445779 -0.104021 0)
(0.0530454 -0.0962745 0)
(0.0594354 -0.0877425 0)
(0.0637652 -0.0788951 0)
(0.0661682 -0.0700009 0)
(0.0105446 -0.126362 0)
(0.0243496 -0.123776 0)
(0.0371248 -0.119115 0)
(0.0484223 -0.112734 0)
(0.057958 -0.105062 0)
(0.0655755 -0.0965793 0)
(0.0712532 -0.0876707 0)
(0.0750865 -0.0786057 0)
(0.0123166 -0.134466 0)
(0.026698 -0.131888 0)
(0.0401422 -0.127323 0)
(0.0523032 -0.121102 0)
(0.0629137 -0.113602 0)
(0.0718022 -0.105195 0)
(0.0789148 -0.0962294 0)
(0.0843374 -0.0869584 0)
(0.014415 -0.142032 0)
(0.0292037 -0.1394 0)
(0.0432174 -0.134976 0)
(0.0561875 -0.128973 0)
(0.0678561 -0.121677 0)
(0.0780805 -0.113361 0)
(0.0867404 -0.104331 0)
(0.0938704 -0.0947742 0)
(0.016855 -0.14857 0)
(0.0318424 -0.14593 0)
(0.0462811 -0.141662 0)
(0.0599353 -0.135911 0)
(0.0726369 -0.128824 0)
(0.0841909 -0.12062 0)
(0.0945018 -0.111464 0)
(0.103513 -0.101526 0)
(0.0194717 -0.153161 0)
(0.0343904 -0.150515 0)
(0.0489778 -0.146419 0)
(0.0630935 -0.140913 0)
(0.0766016 -0.134051 0)
(0.089372 -0.125897 0)
(0.101282 -0.116531 0)
(0.112216 -0.106042 0)
)
;

boundaryField
{
    walls
    {
        type            cellMotion;
        value           uniform (0 0 0);
    }
    cylinder
    {
        type            cellMotion;
        value           nonuniform List<vector> 
16
(
(0.12207 -0.0945324 0)
(0.130748 -0.0821123 0)
(0.138166 -0.0689014 0)
(0.144255 -0.0550269 0)
(0.148954 -0.0406225 0)
(0.152218 -0.0258269 0)
(0.154017 -0.0107826 0)
(0.154332 0.00436561 0)
(0.0194717 -0.153161 0)
(0.0343904 -0.150515 0)
(0.0489778 -0.146419 0)
(0.0630935 -0.140913 0)
(0.0766016 -0.134051 0)
(0.089372 -0.125897 0)
(0.101282 -0.116531 0)
(0.112216 -0.106042 0)
)
;
    }
    outlet
    {
        type            cellMotion;
        value           nonuniform List<vector> 0();
    }
    inlet
    {
        type            cellMotion;
        value           uniform (0 0 0);
    }
    frontAndBack
    {
        type            empty;
    }
    procBoundary0to1
    {
        type            processor;
        value           nonuniform List<vector> 
16
(
(0.00699429 0.0003745 0)
(0.0206566 0.00114558 0)
(0.0336463 0.0019288 0)
(0.0459385 0.00271608 0)
(0.0576521 0.00352531 0)
(0.0688037 0.00435566 0)
(0.0794629 0.00523044 0)
(0.0896693 0.00616222 0)
(0.0994417 0.00717342 0)
(0.108827 0.00828484 0)
(0.117807 0.00954386 0)
(0.126395 0.0109752 0)
(0.13451 0.0126645 0)
(0.142025 0.0146092 0)
(0.148559 0.0169412 0)
(0.153161 0.0194717 0)
)
;
    }
    procBoundary0to2
    {
        type            processor;
        value           nonuniform List<vector> 
16
(
(-0.00074053 -0.00683395 0)
(-0.00199817 -0.0201803 0)
(-0.00302366 -0.0330672 0)
(-0.00384479 -0.0452419 0)
(-0.00448353 -0.0570118 0)
(-0.00495639 -0.0681616 0)
(-0.00525811 -0.0789584 0)
(-0.00539864 -0.0892219 0)
(-0.00534166 -0.0991757 0)
(-0.00508956 -0.108662 0)
(-0.00456815 -0.11785 0)
(-0.00375774 -0.126584 0)
(-0.00252641 -0.134941 0)
(-0.000765026 -0.142689 0)
(0.00155888 -0.149508 0)
(0.00436561 -0.154332 0)
)
;
    }
}


// ************************************************************************* //
