/*--------------------------------*- C++ -*----------------------------------*\
| =========                 |                                                 |
| \\      /  F ield         | OpenFOAM: The Open Source CFD Toolbox           |
|  \\    /   O peration     | Version:  2412                                  |
|   \\  /    A nd           | Website:  www.openfoam.com                      |
|    \\/     M anipulation  |                                                 |
\*---------------------------------------------------------------------------*/
FoamFile
{
    version     2.0;
    format      ascii;
    arch        "LSB;label=32;scalar=64";
    class       surfaceScalarField;
    location    "0.2";
    object      meshPhi;
}
// * * * * * * * * * * * * * * * * * * * * * * * * * * * * * * * * * * * * * //

dimensions      [0 3 -1 0 0 0 0];

internalField   nonuniform List<scalar> 
480
(
0.00356054
-0.00800371
-0.00353707
0.00397214
-0.00895134
0.00431986
-0.0101638
0.00435942
-0.0105503
0.00444122
-0.00996764
0.00478773
-0.00872138
0.00496814
-0.00661146
-0.00336343
0.0108671
-0.0155632
-0.0106843
0.0120384
-0.01734
0.0129214
-0.0191829
0.0131027
-0.0195635
0.0133102
-0.0183621
0.0140579
-0.0158141
0.014408
-0.0116842
-0.00579537
0.0184861
-0.0225938
-0.0181212
0.020308
-0.0249026
0.0214619
-0.027022
0.0217496
-0.0270726
0.021973
-0.0251011
0.0227075
-0.0213045
0.022961
-0.0154623
-0.00752272
0.026434
-0.0290087
-0.0259912
0.0286724
-0.0315188
0.0298822
-0.0334814
0.0301762
-0.0330208
0.0303059
-0.0302911
0.0307778
-0.0253605
0.0308047
-0.0180863
-0.00863306
0.03474
-0.0347005
-0.0344367
0.0371215
-0.0370733
0.0382253
-0.0387217
0.0384015
-0.0376537
0.0383068
-0.0341022
0.0383765
-0.0281835
0.0381233
-0.0198549
-0.00936824
0.0433838
-0.0393963
-0.0434366
0.045642
-0.0414433
0.0464885
-0.0425294
0.0463974
-0.0408263
0.045956
-0.0365879
0.045551
-0.029904
0.0449915
-0.0208243
-0.00973621
0.0523298
-0.0428821
-0.0529104
0.0541951
-0.0444183
0.0546387
-0.0449348
0.0541342
-0.0426734
0.0532353
-0.0378366
0.0523263
-0.0306037
0.051461
-0.0211405
-0.00984126
0.0616878
-0.0451957
-0.063005
0.0628506
-0.0460861
0.0626519
-0.0458641
0.0615697
-0.0430664
0.0601335
-0.0378592
0.0587288
-0.0303678
0.057576
-0.0208193
-0.00965706
0.0715204
-0.0460563
-0.073753
0.0716276
-0.0462243
0.0705362
-0.0452848
0.0687213
-0.0421016
0.0666795
-0.0367118
0.0647961
-0.029208
0.0633724
-0.0198712
-0.0091651
0.0816553
-0.045228
-0.0849139
0.0804901
-0.0447315
0.0783145
-0.0431541
0.0756295
-0.0397225
0.0729284
-0.0343966
0.0705784
-0.0271675
0.0688842
-0.0183368
-0.00838612
0.0918417
-0.0427295
-0.096263
0.0892352
-0.0415657
0.0858851
-0.0394589
0.0822854
-0.0359509
0.0788973
-0.0309006
0.0760754
-0.0242518
0.0741067
-0.0162214
-0.00735113
0.101899
-0.0382101
-0.107653
0.0978203
-0.0366167
0.0932991
-0.0341752
0.088766
-0.030768
0.0846828
-0.0262678
0.0813505
-0.0204723
0.0790995
-0.0136301
-0.00618344
0.111969
-0.0315583
-0.119096
0.106401
-0.0298028
0.100661
-0.0273184
0.0951696
-0.0243361
0.090283
-0.0205763
0.0863746
-0.0158635
0.0838423
-0.010532
-0.00476451
0.122131
-0.0226627
-0.130771
0.114886
-0.0210243
0.107847
-0.0189152
0.101268
-0.0166663
0.0954802
-0.0138276
0.091064
-0.0104089
0.0882748
-0.00670168
-0.00276912
0.131942
-0.0113733
-0.142256
0.122684
-0.0102344
0.114128
-0.00892176
0.106408
-0.00757932
0.0999044
-0.00600622
0.0950906
-0.00422401
0.092113
-0.00236128
-0.000445979
0.137205
-0.14924
0.126169
0.116357
0.107958
0.101233
0.0964055
0.093598
0.0045192
0.000463985
0.00466256
0.00401547
0.00498581
0.0077611
0.005222
0.0109869
0.00504751
0.0126471
0.00453333
0.0125365
0.00383937
0.0112602
0.0100242
0.013369
0.000857696
0.0138228
0.00719153
0.0146689
0.0137757
0.0152497
0.019407
0.0148102
0.0224925
0.013457
0.022692
0.0115209
0.0207465
0.0185989
0.0218245
0.00106577
0.0225597
0.00950409
0.0237302
0.0181164
0.0245047
0.0254985
0.0239571
0.0298087
0.0221199
0.0305817
0.0192841
0.028503
0.0259163
0.0298894
0.0011214
0.0307989
0.0110694
0.0321362
0.0210581
0.0330269
0.0296006
0.0325136
0.0348677
0.0305206
0.0363478
0.0272155
0.0345799
0.0319922
0.0375656
0.00102076
0.0385631
0.0119816
0.0399848
0.0228105
0.0409747
0.0320944
0.0406381
0.0381345
0.038799
0.0404066
0.0354558
0.039265
0.0370289
0.0448245
0.00080254
0.0458585
0.012313
0.047335
0.0235294
0.0484652
0.0331671
0.0484603
0.0397721
0.0470314
0.0428039
0.04399
0.0424005
0.040712
0.0516505
0.000514159
0.0527012
0.0121666
0.0542449
0.0233798
0.0555972
0.0330908
0.0560809
0.0400844
0.0552252
0.0437738
0.0527453
0.0441452
0.0431664
0.0580424
0.000181049
0.05913
0.0115947
0.0607982
0.022493
0.0625105
0.03203
0.0635828
0.039206
0.0634463
0.0434194
0.0618712
0.0445974
0.0444374
0.0640461
-8.88791e-05
0.0652086
0.0107484
0.0671081
0.0210349
0.0692532
0.030152
0.0709377
0.0372887
0.0717161
0.0418523
0.0713847
0.0437307
0.0443787
0.069722
-0.000233838
0.0710292
0.00967847
0.0732199
0.0190634
0.0757623
0.0275145
0.0781275
0.0343527
0.0799817
0.0390174
0.0810996
0.0413809
0.0426711
0.075097
-0.000214693
0.0765948
0.00849203
0.0790224
0.0167126
0.081992
0.0242395
0.0851278
0.0304871
0.088175
0.0349413
0.0909324
0.0374778
0.0391514
0.0801604
9.57307e-05
0.0818497
0.00743275
0.0845581
0.0142427
0.0880338
0.0205051
0.0920225
0.0258187
0.0964054
0.0296727
0.100879
0.0321113
0.0340305
0.0848466
0.000510706
0.0867935
0.00622646
0.0898955
0.0115165
0.093992
0.0163553
0.0990102
0.0204279
0.104809
0.0234802
0.110965
0.0256851
0.0276651
0.0890837
0.000967931
0.091345
0.00482161
0.0950021
0.00844734
0.0999706
0.0117368
0.106194
0.0145003
0.113437
0.0167001
0.121296
0.0184857
0.0201982
0.0926062
0.00140302
0.0952812
0.00325367
0.0996706
0.0050157
0.105665
0.00664665
0.113129
0.00809892
0.121802
0.00933442
0.131374
0.0104273
0.011496
0.0943081
0.0975673
0.102681
0.109496
0.117813
0.127362
0.137871
)
;

boundaryField
{
    walls
    {
        type            calculated;
        value           uniform 0;
    }
    cylinder
    {
        type            calculated;
        value           nonuniform List<scalar> 
16
(
2.46986e-11
-4.87869e-11
-3.15045e-11
4.34906e-11
-1.54429e-11
8.48888e-12
2.55902e-11
-2.08398e-11
2.08407e-11
-2.55895e-11
-8.48939e-12
1.54423e-11
-4.34913e-11
3.15057e-11
4.87881e-11
-2.46991e-11
)
;
    }
    outlet
    {
        type            calculated;
        value           nonuniform List<scalar> 0();
    }
    inlet
    {
        type            calculated;
        value           uniform 0;
    }
    frontAndBack
    {
        type            empty;
    }
    procBoundary0to1
    {
        type            processor;
        value           nonuniform List<scalar> 
16
(
0.00472315
0.0138032
0.0222666
0.0301732
0.0375712
0.0444986
0.0509769
0.057046
0.0627532
0.0681757
0.0733151
0.0781943
0.082823
0.0871915
0.0910394
0.0928351
)
;
    }
    procBoundary0to2
    {
        type            processor;
        value           nonuniform List<scalar> 
16
(
-0.00431346
-0.0128291
-0.0211451
-0.0292124
-0.0369502
-0.0442895
-0.0511937
-0.0576512
-0.0636911
-0.0693626
-0.0746769
-0.0796468
-0.0842428
-0.0883594
-0.0916985
-0.0930081
)
;
    }
}


// ************************************************************************* //
