/*--------------------------------*- C++ -*----------------------------------*\
| =========                 |                                                 |
| \\      /  F ield         | OpenFOAM: The Open Source CFD Toolbox           |
|  \\    /   O peration     | Version:  2412                                  |
|   \\  /    A nd           | Website:  www.openfoam.com                      |
|    \\/     M anipulation  |                                                 |
\*---------------------------------------------------------------------------*/
FoamFile
{
    version     2.0;
    format      ascii;
    arch        "LSB;label=32;scalar=64";
    class       pointVectorField;
    location    "0.2";
    object      pointDisplacement;
}
// * * * * * * * * * * * * * * * * * * * * * * * * * * * * * * * * * * * * * //

dimensions      [0 1 0 0 0 0 0];

internalField   nonuniform List<vector> 
578
(
(0 0 0)
(0 0 0)
(0 0 0)
(0 0 0)
(0 0 0)
(0 0 0)
(0 0 0)
(0 0 0)
(0 0 0)
(0.00270615 -0.00277696 0)
(0.00362795 -0.00355193 0)
(0.00536712 -0.00473164 0)
(0.00712029 -0.00538268 0)
(0.00887122 -0.00546032 0)
(0.0105904 -0.00495001 0)
(0.0121654 -0.00385899 0)
(0.0133193 -0.00224495 0)
(0.0137952 -0.000280171 0)
(0.00661019 -0.00680152 0)
(0.00835695 -0.00804798 0)
(0.0116167 -0.00996784 0)
(0.0149053 -0.0108934 0)
(0.0181909 -0.010771 0)
(0.0213681 -0.00957586 0)
(0.0241991 -0.0073327 0)
(0.0262338 -0.00417595 0)
(0.0270753 -0.000429807 0)
(0.0114987 -0.0118413 0)
(0.0139894 -0.0132727 0)
(0.0185467 -0.0155262 0)
(0.023145 -0.0163967 0)
(0.0277189 -0.0158366 0)
(0.032084 -0.0138236 0)
(0.0358876 -0.0104103 0)
(0.0385734 -0.00580779 0)
(0.0396821 -0.000463527 0)
(0.0172411 -0.0177445 0)
(0.0204197 -0.0191038 0)
(0.026059 -0.0213213 0)
(0.0317554 -0.0218532 0)
(0.0373984 -0.0206619 0)
(0.0427096 -0.0177288 0)
(0.0472407 -0.0131395 0)
(0.0503903 -0.00718011 0)
(0.0516731 -0.000394384 0)
(0.023719 -0.0243668 0)
(0.0275315 -0.025413 0)
(0.0340707 -0.0272799 0)
(0.0406764 -0.027236 0)
(0.0471745 -0.0252481 0)
(0.053211 -0.0213125 0)
(0.0582729 -0.0155555 0)
(0.0617349 -0.00832342 0)
(0.0631123 -0.000228856 0)
(0.0308146 -0.0315578 0)
(0.0352305 -0.0320909 0)
(0.0425028 -0.0333323 0)
(0.0498414 -0.0325082 0)
(0.0570078 -0.0295915 0)
(0.063578 -0.0245953 0)
(0.068993 -0.0176834 0)
(0.0726369 -0.00925364 0)
(0.0740417 3.38176e-05 0)
(0.0384337 -0.0391829 0)
(0.043425 -0.0390233 0)
(0.0512933 -0.0394117 0)
(0.0592082 -0.03764 0)
(0.0668623 -0.0336833 0)
(0.0737901 -0.0275799 0)
(0.0794141 -0.019534 0)
(0.0831336 -0.00998006 0)
(0.0845106 0.000400205 0)
(0.0465072 -0.0471226 0)
(0.0520605 -0.0461227 0)
(0.060395 -0.0454586 0)
(0.0687319 -0.0425882 0)
(0.0767168 -0.0375025 0)
(0.0838493 -0.0302645 0)
(0.0895465 -0.0211093 0)
(0.0932453 -0.010499 0)
(0.0945469 0.000882485 0)
(0.054988 -0.0552735 0)
(0.0610836 -0.0532922 0)
(0.0697734 -0.0514004 0)
(0.0783963 -0.0473071 0)
(0.0865552 -0.0410191 0)
(0.0937422 -0.0326264 0)
(0.0993969 -0.0223945 0)
(0.102995 -0.0107963 0)
(0.104181 0.00150088 0)
(0.0638407 -0.0635182 0)
(0.0704665 -0.0604289 0)
(0.0794051 -0.0571533 0)
(0.0881738 -0.0517246 0)
(0.0963626 -0.0441773 0)
(0.103472 -0.0346268 0)
(0.108968 -0.0233582 0)
(0.112385 -0.0108431 0)
(0.113424 0.00228516 0)
(0.0730433 -0.0717324 0)
(0.0801808 -0.0674008 0)
(0.0892692 -0.062595 0)
(0.0980598 -0.0557386 0)
(0.106132 -0.0468885 0)
(0.113015 -0.0361916 0)
(0.118243 -0.0239425 0)
(0.121412 -0.0105915 0)
(0.122273 0.00327645 0)
(0.0825822 -0.0797271 0)
(0.0902248 -0.0740178 0)
(0.0993714 -0.067551 0)
(0.108043 -0.0591802 0)
(0.115842 -0.0490061 0)
(0.122361 -0.0372001 0)
(0.127203 -0.0240458 0)
(0.130044 -0.00996496 0)
(0.130694 0.00453324 0)
(0.0924634 -0.0872489 0)
(0.100598 -0.0799981 0)
(0.109687 -0.0717346 0)
(0.118085 -0.0617937 0)
(0.125442 -0.0503106 0)
(0.131434 -0.0374581 0)
(0.135766 -0.0235133 0)
(0.138199 -0.00883998 0)
(0.138594 0.00613459 0)
(0.102583 -0.0938572 0)
(0.111199 -0.0848678 0)
(0.120082 -0.0747034 0)
(0.128001 -0.0631946 0)
(0.134716 -0.0504705 0)
(0.140017 -0.0366973 0)
(0.143708 -0.0221357 0)
(0.145637 -0.00707437 0)
(0.14572 0.00816115 0)
(0.112414 -0.0985761 0)
(0.12148 -0.0876318 0)
(0.129868 -0.0756568 0)
(0.137056 -0.0627431 0)
(0.142924 -0.0490142 0)
(0.147369 -0.0346204 0)
(0.1503 -0.0197513 0)
(0.151654 -0.00460907 0)
(0.151396 0.0106063 0)
(0.117426 -0.100529 0)
(0.126714 -0.0885355 0)
(0.134781 -0.075689 0)
(0.141551 -0.0621137 0)
(0.146958 -0.0479401 0)
(0.150949 -0.0333049 0)
(0.153487 -0.0183489 0)
(0.154546 -0.00321623 0)
(0.154117 0.0119474 0)
(0 0 0)
(0 0 0)
(0 0 0)
(0 0 0)
(0 0 0)
(0 0 0)
(0 0 0)
(0 0 0)
(0 0 0)
(0.00270615 -0.00277696 0)
(0.00362795 -0.00355193 0)
(0.00536712 -0.00473164 0)
(0.00712029 -0.00538268 0)
(0.00887122 -0.00546032 0)
(0.0105904 -0.00495001 0)
(0.0121654 -0.00385899 0)
(0.0133193 -0.00224495 0)
(0.0137952 -0.000280171 0)
(0.00661019 -0.00680152 0)
(0.00835695 -0.00804798 0)
(0.0116167 -0.00996784 0)
(0.0149053 -0.0108934 0)
(0.0181909 -0.010771 0)
(0.0213681 -0.00957586 0)
(0.0241991 -0.0073327 0)
(0.0262338 -0.00417595 0)
(0.0270753 -0.000429807 0)
(0.0114987 -0.0118413 0)
(0.0139894 -0.0132727 0)
(0.0185467 -0.0155262 0)
(0.023145 -0.0163967 0)
(0.0277189 -0.0158366 0)
(0.032084 -0.0138236 0)
(0.0358876 -0.0104103 0)
(0.0385734 -0.00580779 0)
(0.0396821 -0.000463527 0)
(0.0172411 -0.0177445 0)
(0.0204197 -0.0191038 0)
(0.026059 -0.0213213 0)
(0.0317554 -0.0218532 0)
(0.0373984 -0.0206619 0)
(0.0427096 -0.0177288 0)
(0.0472407 -0.0131395 0)
(0.0503903 -0.00718011 0)
(0.0516731 -0.000394384 0)
(0.023719 -0.0243668 0)
(0.0275315 -0.025413 0)
(0.0340707 -0.0272799 0)
(0.0406764 -0.027236 0)
(0.0471745 -0.0252481 0)
(0.053211 -0.0213125 0)
(0.0582729 -0.0155555 0)
(0.0617349 -0.00832342 0)
(0.0631123 -0.000228856 0)
(0.0308146 -0.0315578 0)
(0.0352305 -0.0320909 0)
(0.0425028 -0.0333323 0)
(0.0498414 -0.0325082 0)
(0.0570078 -0.0295915 0)
(0.063578 -0.0245953 0)
(0.068993 -0.0176834 0)
(0.0726369 -0.00925364 0)
(0.0740417 3.38176e-05 0)
(0.0384337 -0.0391829 0)
(0.043425 -0.0390233 0)
(0.0512933 -0.0394117 0)
(0.0592082 -0.03764 0)
(0.0668623 -0.0336833 0)
(0.0737901 -0.0275799 0)
(0.0794141 -0.019534 0)
(0.0831336 -0.00998006 0)
(0.0845106 0.000400205 0)
(0.0465072 -0.0471226 0)
(0.0520605 -0.0461227 0)
(0.060395 -0.0454586 0)
(0.0687319 -0.0425882 0)
(0.0767168 -0.0375025 0)
(0.0838493 -0.0302645 0)
(0.0895465 -0.0211093 0)
(0.0932453 -0.010499 0)
(0.0945469 0.000882485 0)
(0.054988 -0.0552735 0)
(0.0610836 -0.0532922 0)
(0.0697734 -0.0514004 0)
(0.0783963 -0.0473071 0)
(0.0865552 -0.0410191 0)
(0.0937422 -0.0326264 0)
(0.0993969 -0.0223945 0)
(0.102995 -0.0107963 0)
(0.104181 0.00150088 0)
(0.0638407 -0.0635182 0)
(0.0704665 -0.0604289 0)
(0.0794051 -0.0571533 0)
(0.0881738 -0.0517246 0)
(0.0963626 -0.0441773 0)
(0.103472 -0.0346268 0)
(0.108968 -0.0233582 0)
(0.112385 -0.0108431 0)
(0.113424 0.00228516 0)
(0.0730433 -0.0717324 0)
(0.0801808 -0.0674008 0)
(0.0892692 -0.062595 0)
(0.0980598 -0.0557386 0)
(0.106132 -0.0468885 0)
(0.113015 -0.0361916 0)
(0.118243 -0.0239425 0)
(0.121412 -0.0105915 0)
(0.122273 0.00327645 0)
(0.0825822 -0.0797271 0)
(0.0902248 -0.0740178 0)
(0.0993714 -0.067551 0)
(0.108043 -0.0591802 0)
(0.115842 -0.0490061 0)
(0.122361 -0.0372001 0)
(0.127203 -0.0240458 0)
(0.130044 -0.00996496 0)
(0.130694 0.00453324 0)
(0.0924634 -0.0872489 0)
(0.100598 -0.0799981 0)
(0.109687 -0.0717346 0)
(0.118085 -0.0617937 0)
(0.125442 -0.0503106 0)
(0.131434 -0.0374581 0)
(0.135766 -0.0235133 0)
(0.138199 -0.00883998 0)
(0.138594 0.00613459 0)
(0.102583 -0.0938572 0)
(0.111199 -0.0848678 0)
(0.120082 -0.0747034 0)
(0.128001 -0.0631946 0)
(0.134716 -0.0504705 0)
(0.140017 -0.0366973 0)
(0.143708 -0.0221357 0)
(0.145637 -0.00707437 0)
(0.14572 0.00816115 0)
(0.112414 -0.0985761 0)
(0.12148 -0.0876318 0)
(0.129868 -0.0756568 0)
(0.137056 -0.0627431 0)
(0.142924 -0.0490142 0)
(0.147369 -0.0346204 0)
(0.1503 -0.0197513 0)
(0.151654 -0.00460907 0)
(0.151396 0.0106063 0)
(0.117426 -0.100529 0)
(0.126714 -0.0885355 0)
(0.134781 -0.075689 0)
(0.141551 -0.0621137 0)
(0.146958 -0.0479401 0)
(0.150949 -0.0333049 0)
(0.153487 -0.0183489 0)
(0.154546 -0.00321623 0)
(0.154117 0.0119474 0)
(0 0 0)
(0 0 0)
(0 0 0)
(0 0 0)
(0 0 0)
(0 0 0)
(0 0 0)
(0 0 0)
(-0.000356839 -0.0136534 0)
(0.00163066 -0.0135252 0)
(0.00339315 -0.0126903 0)
(0.00469583 -0.0113205 0)
(0.00536807 -0.00959377 0)
(0.00535737 -0.00768233 0)
(0.00470988 -0.00573609 0)
(0.00349986 -0.00380133 0)
(-0.000585853 -0.0268452 0)
(0.00318251 -0.0265851 0)
(0.00654903 -0.0250775 0)
(0.00910423 -0.0225866 0)
(0.0105497 -0.0194282 0)
(0.010783 -0.0159167 0)
(0.00986027 -0.012314 0)
(0.00788724 -0.00872041 0)
(-0.000698953 -0.0394025 0)
(0.00465065 -0.0389956 0)
(0.00946149 -0.0369455 0)
(0.0132026 -0.0335652 0)
(0.0154881 -0.0292673 0)
(0.0161697 -0.0244661 0)
(0.0152948 -0.0195094 0)
(0.012976 -0.0145521 0)
(-0.000705137 -0.0513782 0)
(0.00606084 -0.0508281 0)
(0.0121854 -0.0483415 0)
(0.0170547 -0.0442625 0)
(0.0202258 -0.0390684 0)
(0.0215171 -0.033248 0)
(0.020958 -0.0272093 0)
(0.0186569 -0.0211584 0)
(-0.00060757 -0.0628184 0)
(0.00743873 -0.0621268 0)
(0.014767 -0.059294 0)
(0.0207161 -0.0546832 0)
(0.0248081 -0.0488067 0)
(0.0268369 -0.0421993 0)
(0.0268141 -0.0353167 0)
(0.0248391 -0.0284086 0)
(-0.000402299 -0.0737637 0)
(0.00880884 -0.0729435 0)
(0.0172499 -0.0698426 0)
(0.0242351 -0.0648343 0)
(0.0292718 -0.05845 0)
(0.0321388 -0.0512544 0)
(0.0328295 -0.0437304 0)
(0.031437 -0.0361672 0)
(-8.07926e-05 -0.084252 0)
(0.0101974 -0.0833093 0)
(0.0196716 -0.0800064 0)
(0.0276551 -0.0747188 0)
(0.0336547 -0.0679803 0)
(0.037439 -0.0603627 0)
(0.0389844 -0.0523637 0)
(0.0383838 -0.0443113 0)
(0.000372837 -0.0943141 0)
(0.0116305 -0.093262 0)
(0.0220688 -0.0898151 0)
(0.0310162 -0.084344 0)
(0.0379901 -0.0773748 0)
(0.0427534 -0.0694707 0)
(0.0452723 -0.0611401 0)
(0.0456402 -0.0527397 0)
(0.000981848 -0.103977 0)
(0.0131387 -0.102818 0)
(0.0244755 -0.0992752 0)
(0.0343537 -0.0937075 0)
(0.0423094 -0.0866132 0)
(0.0481065 -0.0785416 0)
(0.0517019 -0.0700028 0)
(0.0531832 -0.0613618 0)
(0.00178034 -0.113251 0)
(0.0147554 -0.111994 0)
(0.0269259 -0.108399 0)
(0.0376988 -0.102801 0)
(0.0466404 -0.0956726 0)
(0.0535196 -0.0875412 0)
(0.05828 -0.0788902 0)
(0.0609983 -0.0700843 0)
(0.00281367 -0.122135 0)
(0.016521 -0.120776 0)
(0.0294501 -0.117162 0)
(0.0410736 -0.111602 0)
(0.0510018 -0.104532 0)
(0.059006 -0.0964249 0)
(0.0650119 -0.0877332 0)
(0.0690751 -0.0788058 0)
(0.00414598 -0.130593 0)
(0.0184779 -0.129128 0)
(0.0320784 -0.125531 0)
(0.0444976 -0.120075 0)
(0.0553991 -0.113133 0)
(0.0645632 -0.105119 0)
(0.0718888 -0.0964288 0)
(0.0774022 -0.0873776 0)
(0.00586207 -0.138536 0)
(0.0206589 -0.13695 0)
(0.0348147 -0.133401 0)
(0.0479613 -0.128099 0)
(0.0598137 -0.121345 0)
(0.0701622 -0.113467 0)
(0.0788846 -0.104788 0)
(0.085967 -0.0955837 0)
(0.00801843 -0.145703 0)
(0.0230798 -0.143986 0)
(0.0376354 -0.140496 0)
(0.0514034 -0.135385 0)
(0.0641515 -0.128852 0)
(0.0756885 -0.121127 0)
(0.0858761 -0.112452 0)
(0.0946545 -0.103033 0)
(0.010566 -0.151395 0)
(0.025641 -0.149546 0)
(0.0403723 -0.146134 0)
(0.0545699 -0.141229 0)
(0.0680638 -0.134929 0)
(0.0806966 -0.127353 0)
(0.0923325 -0.118634 0)
(0.102874 -0.108899 0)
(0.0119474 -0.154117 0)
(0.026996 -0.152204 0)
(0.0417847 -0.148825 0)
(0.0561709 -0.144013 0)
(0.0700161 -0.137814 0)
(0.0831871 -0.130287 0)
(0.0955569 -0.121506 0)
(0.107006 -0.111555 0)
(0 0 0)
(0 0 0)
(0 0 0)
(0 0 0)
(0 0 0)
(0 0 0)
(0 0 0)
(0 0 0)
(-0.000356839 -0.0136534 0)
(0.00163066 -0.0135252 0)
(0.00339315 -0.0126903 0)
(0.00469583 -0.0113205 0)
(0.00536807 -0.00959377 0)
(0.00535737 -0.00768233 0)
(0.00470988 -0.00573609 0)
(0.00349986 -0.00380133 0)
(-0.000585853 -0.0268452 0)
(0.00318251 -0.0265851 0)
(0.00654903 -0.0250775 0)
(0.00910423 -0.0225866 0)
(0.0105497 -0.0194282 0)
(0.010783 -0.0159167 0)
(0.00986027 -0.012314 0)
(0.00788724 -0.00872041 0)
(-0.000698953 -0.0394025 0)
(0.00465065 -0.0389956 0)
(0.00946149 -0.0369455 0)
(0.0132026 -0.0335652 0)
(0.0154881 -0.0292673 0)
(0.0161697 -0.0244661 0)
(0.0152948 -0.0195094 0)
(0.012976 -0.0145521 0)
(-0.000705137 -0.0513782 0)
(0.00606084 -0.0508281 0)
(0.0121854 -0.0483415 0)
(0.0170547 -0.0442625 0)
(0.0202258 -0.0390684 0)
(0.0215171 -0.033248 0)
(0.020958 -0.0272093 0)
(0.0186569 -0.0211584 0)
(-0.00060757 -0.0628184 0)
(0.00743873 -0.0621268 0)
(0.014767 -0.059294 0)
(0.0207161 -0.0546832 0)
(0.0248081 -0.0488067 0)
(0.0268369 -0.0421993 0)
(0.0268141 -0.0353167 0)
(0.0248391 -0.0284086 0)
(-0.000402299 -0.0737637 0)
(0.00880884 -0.0729435 0)
(0.0172499 -0.0698426 0)
(0.0242351 -0.0648343 0)
(0.0292718 -0.05845 0)
(0.0321388 -0.0512544 0)
(0.0328295 -0.0437304 0)
(0.031437 -0.0361672 0)
(-8.07926e-05 -0.084252 0)
(0.0101974 -0.0833093 0)
(0.0196716 -0.0800064 0)
(0.0276551 -0.0747188 0)
(0.0336547 -0.0679803 0)
(0.037439 -0.0603627 0)
(0.0389844 -0.0523637 0)
(0.0383838 -0.0443113 0)
(0.000372837 -0.0943141 0)
(0.0116305 -0.093262 0)
(0.0220688 -0.0898151 0)
(0.0310162 -0.084344 0)
(0.0379901 -0.0773748 0)
(0.0427534 -0.0694707 0)
(0.0452723 -0.0611401 0)
(0.0456402 -0.0527397 0)
(0.000981848 -0.103977 0)
(0.0131387 -0.102818 0)
(0.0244755 -0.0992752 0)
(0.0343537 -0.0937075 0)
(0.0423094 -0.0866132 0)
(0.0481065 -0.0785416 0)
(0.0517019 -0.0700028 0)
(0.0531832 -0.0613618 0)
(0.00178034 -0.113251 0)
(0.0147554 -0.111994 0)
(0.0269259 -0.108399 0)
(0.0376988 -0.102801 0)
(0.0466404 -0.0956726 0)
(0.0535196 -0.0875412 0)
(0.05828 -0.0788902 0)
(0.0609983 -0.0700843 0)
(0.00281367 -0.122135 0)
(0.016521 -0.120776 0)
(0.0294501 -0.117162 0)
(0.0410736 -0.111602 0)
(0.0510018 -0.104532 0)
(0.059006 -0.0964249 0)
(0.0650119 -0.0877332 0)
(0.0690751 -0.0788058 0)
(0.00414598 -0.130593 0)
(0.0184779 -0.129128 0)
(0.0320784 -0.125531 0)
(0.0444976 -0.120075 0)
(0.0553991 -0.113133 0)
(0.0645632 -0.105119 0)
(0.0718888 -0.0964288 0)
(0.0774022 -0.0873776 0)
(0.00586207 -0.138536 0)
(0.0206589 -0.13695 0)
(0.0348147 -0.133401 0)
(0.0479613 -0.128099 0)
(0.0598137 -0.121345 0)
(0.0701622 -0.113467 0)
(0.0788846 -0.104788 0)
(0.085967 -0.0955837 0)
(0.00801843 -0.145703 0)
(0.0230798 -0.143986 0)
(0.0376354 -0.140496 0)
(0.0514034 -0.135385 0)
(0.0641515 -0.128852 0)
(0.0756885 -0.121127 0)
(0.0858761 -0.112452 0)
(0.0946545 -0.103033 0)
(0.010566 -0.151395 0)
(0.025641 -0.149546 0)
(0.0403723 -0.146134 0)
(0.0545699 -0.141229 0)
(0.0680638 -0.134929 0)
(0.0806966 -0.127353 0)
(0.0923325 -0.118634 0)
(0.102874 -0.108899 0)
(0.0119474 -0.154117 0)
(0.026996 -0.152204 0)
(0.0417847 -0.148825 0)
(0.0561709 -0.144013 0)
(0.0700161 -0.137814 0)
(0.0831871 -0.130287 0)
(0.0955569 -0.121506 0)
(0.107006 -0.111555 0)
)
;

boundaryField
{
    walls
    {
        type            fixedValue;
        value           uniform (0 0 0);
    }
    cylinder
    {
        type            solidBodyMotionDisplacement;
        value           nonuniform List<vector> 
34
(
(0.117426 -0.100529 0)
(0.117426 -0.100529 0)
(0.126714 -0.0885355 0)
(0.126714 -0.0885355 0)
(0.134781 -0.075689 0)
(0.134781 -0.075689 0)
(0.141551 -0.0621137 0)
(0.141551 -0.0621137 0)
(0.146958 -0.0479401 0)
(0.146958 -0.0479401 0)
(0.150949 -0.0333049 0)
(0.150949 -0.0333049 0)
(0.153487 -0.0183489 0)
(0.153487 -0.0183489 0)
(0.154546 -0.00321623 0)
(0.154546 -0.00321623 0)
(0.154117 0.0119474 0)
(0.154117 0.0119474 0)
(0.0119474 -0.154117 0)
(0.0119474 -0.154117 0)
(0.026996 -0.152204 0)
(0.026996 -0.152204 0)
(0.0417847 -0.148825 0)
(0.0417847 -0.148825 0)
(0.0561709 -0.144013 0)
(0.0561709 -0.144013 0)
(0.0700161 -0.137814 0)
(0.0700161 -0.137814 0)
(0.0831871 -0.130287 0)
(0.0831871 -0.130287 0)
(0.0955569 -0.121506 0)
(0.0955569 -0.121506 0)
(0.107006 -0.111555 0)
(0.107006 -0.111555 0)
)
;
        solidBodyMotionFunction oscillatingRotatingMotion;
        oscillatingRotatingMotionCoeffs
        {
            origin          ( 0 0 0 );
            axis            ( 0 0 1 );
            omega           1.5;
            amplitude       ( 0 0 30 );
        }
    }
    outlet
    {
        type            fixedValue;
        value           nonuniform List<vector> 0();
    }
    inlet
    {
        type            fixedValue;
        value           uniform (0 0 0);
    }
    frontAndBack
    {
        type            empty;
    }
    procBoundary0to1
    {
        type            processor;
    }
    procBoundary0to2
    {
        type            processor;
    }
}


// ************************************************************************* //
