/*--------------------------------*- C++ -*----------------------------------*\
| =========                 |                                                 |
| \\      /  F ield         | OpenFOAM: The Open Source CFD Toolbox           |
|  \\    /   O peration     | Version:  2412                                  |
|   \\  /    A nd           | Website:  www.openfoam.com                      |
|    \\/     M anipulation  |                                                 |
\*---------------------------------------------------------------------------*/
FoamFile
{
    version     2.0;
    format      ascii;
    arch        "LSB;label=32;scalar=64";
    class       surfaceScalarField;
    location    "21.1";
    object      phi;
}
// * * * * * * * * * * * * * * * * * * * * * * * * * * * * * * * * * * * * * //

dimensions      [0 3 -1 0 0 0 0];

oriented        oriented;

internalField   nonuniform List<scalar> 
1171
(
-0.945468
0.945468
0.780443
-1.09209
0.311651
-0.29802
-0.724815
1.02284
0.0545319
-0.0646611
-0.27866
0.343321
-0.780443
0.0920272
0.688416
0.943546
-0.216754
-0.726792
0.840426
-1.05575
0.215319
-0.359374
-0.0356878
0.395062
-0.00324538
0.608826
-0.60558
-0.507689
0.925355
-0.417666
-0.424036
1.01978
-0.179356
0.23416
0.093274
-0.327434
0.982902
0.0368807
0.261372
-0.0272118
1.02227
-0.0393676
0.642578
-0.940598
-0.788632
0.610672
0.17796
0.298486
-0.806175
0.558173
-0.914072
0.355899
-1.0805
0.672282
0.408215
-0.644881
0.641636
0.0305612
-0.249337
0.218775
0.0373409
-0.631027
0.593686
0.469175
-0.504862
-0.830271
0.875575
-0.0453045
0.99117
0.0310996
0.907219
-1.06051
0.15329
1.01674
-0.0255737
-0.70117
-0.0874618
1.25259
-0.84385
-0.408737
0.186473
-0.0776128
-0.415784
0.493396
-0.273126
0.186326
0.0867993
-0.607898
-0.484196
0.966431
-0.0592123
-0.024694
0.883986
-0.859292
0.51041
0.742177
0.531213
0.0241533
0.445021
-0.792943
-0.105023
0.897966
0.583139
0.232944
-0.816083
0.0655412
0.570566
-0.636107
-0.510239
-0.570259
-0.382409
-0.6781
0.0294171
0.245497
-0.274914
-0.952854
-0.0312195
0.984074
0.378073
0.0169894
0.842309
0.101237
-0.604897
-0.0399844
0.0337798
-0.826723
0.119407
0.914854
-1.03426
-0.404346
0.0285703
0.375776
-0.712594
-0.24026
-0.714271
0.833678
0.690646
0.234708
-0.581427
0.995338
-0.819251
-0.176087
-0.103477
-0.0282679
0.131745
-0.461204
-0.0436581
-0.289898
0.980545
-0.0108621
0.44069
-0.429828
-0.488778
1.07192
0.716431
-0.821454
0.398925
-0.0796074
-0.319318
0.759254
-0.759254
-0.906444
0.0387865
-0.317446
-0.698757
0.674063
-0.0313983
-0.144283
0.175681
0.895001
-0.0110147
1.04199
-0.809041
0.226049
-0.321971
0.0959224
0.976286
-0.133977
-0.676294
-0.0474585
0.723753
0.148217
-0.230076
0.0818587
0.798933
-1.01569
-0.439915
0.309593
0.130322
0.672406
-0.635065
0.865791
-0.391776
-0.474016
0.483382
-0.693957
0.035298
0.658659
0.160203
0.664488
0.0486629
-0.713151
0.13431
-0.0955234
-0.51003
0.105684
0.0357645
-0.904517
0.868752
-0.537753
-0.76157
0.0603996
0.502853
-0.0578321
0.275911
-0.833619
0.557708
0.42465
0.57535
0.597784
-0.564005
-0.388063
-0.0258658
0.413929
0.536144
0.223109
-0.658473
0.724015
0.0870699
0.89096
0.00449401
-0.680788
-0.765309
0.801073
0.617029
0.100353
0.365596
-0.465949
-0.15444
0.524267
0.0462996
0.867538
-0.731552
-0.135986
0.657619
0.337719
-0.431787
0.6941
-0.593747
0.409353
0.14882
-0.054975
-0.735869
-0.170121
0.90599
-0.122581
-0.636672
-0.612786
0.361924
0.250862
0.660334
-0.65584
0.311923
1.02449
0.0174992
-0.765309
-0.138165
0.0346884
0.716431
0.784952
-0.784952
0.844117
-0.830227
-0.0138899
-0.453848
0.878497
-0.192183
-0.317847
0.76464
-0.670357
-0.094283
-0.860643
0.124774
0.109146
-0.714043
0.821454
-0.975894
-0.189033
0.192532
-0.00349859
0.117277
-0.996349
0.879072
0.550196
-0.0189835
-0.288783
0.594561
-0.305778
-0.653857
0.771134
-0.158917
0.677352
-0.897431
0.220079
1.16321
-0.711153
-0.452059
0.729977
-0.0701166
0.000844271
-0.000278689
-0.000565582
-0.801554
-0.927245
0.202429
-0.698757
0.573992
-0.545422
0.107756
0.682306
-0.790062
0.779199
0.166269
0.490693
0.509307
-0.029522
-0.691682
0.721204
0.867933
-0.000394419
-0.729977
0.801073
0.181254
-0.43059
-0.0329843
0.0190788
0.0139055
0.67085
-0.430537
-0.240313
0.688416
-0.0424213
-0.249892
0.560454
0.110396
-0.0182803
0.000764377
0.0175159
0.00595742
-0.00511315
0.129823
-0.20943
-0.943869
0.0281371
-0.142796
-0.0592107
0.124782
0.782019
0.741731
-0.166381
0.545625
-0.437869
-0.162428
0.388477
0.636358
0.052058
0.229525
-1.05975
-0.975894
0.320241
0.674063
-0.160443
0.0161602
-0.810156
1.01927
-0.209113
0.479807
-0.104031
0.798636
0.306043
0.243033
0.0183385
-0.680829
0.680829
0.22473
0.673236
-0.0187646
0.459454
0.474632
-0.00119445
-0.0317898
0.545084
0.00511233
-0.653857
0.572029
0.19261
-0.000425811
0.000147121
-0.636358
0.176674
0.842596
0.0302591
-0.720664
0.690405
0.76021
-0.821207
0.0609967
-0.779199
-0.0314993
0.0446654
-0.0131661
0.0859281
-0.121144
-0.103234
0.224379
-0.0067939
-0.0114864
0.770184
-0.739925
0.897015
0.125821
-0.388863
-0.516782
0.905645
-0.00185734
0.00185734
0.166666
0.429869
0.598009
-1.02788
-0.200047
-0.551842
0.751889
-0.0207658
0.196447
0.380796
-0.232579
1.01619
-0.586323
0.771431
0.959926
-0.361917
0.188612
0.771134
0.591778
0.239855
0.63572
-0.636672
0.319171
-0.0407838
-0.00923624
0.05002
0.925443
-0.0780561
-0.847386
-0.55241
0.526836
0.546152
-0.55241
-0.591778
0.526836
0.0139323
0.924815
-0.0278004
-0.536144
0.452336
0.0838085
0.524259
0.63045
-1.15471
0.528187
0.488005
0.621678
0.531322
-1.153
0.511579
0.448347
0.452336
-0.514705
-0.488264
-0.68429
-0.61165
-0.215125
-0.00639715
0.00639715
0.674948
0.532001
-1.14365
0.726116
-0.36052
-1.09029
0.379133
-0.686537
0.446277
-0.0353792
-0.981009
1.01639
0.452948
-0.0348999
0.960342
-1.10313
-1.02649
0.0819471
0.944545
0.192557
-0.155078
-0.037479
0.728112
-0.787324
0.972531
-1.01084
0.0383077
0.0307905
-0.762343
-0.168355
0.926149
-0.757794
-0.977351
1.00814
-0.702279
0.532975
0.169303
-0.722695
0.0303636
0.692332
0.00312209
-0.00497944
0.424731
0.130603
-0.978391
0.847788
-0.779131
0.749609
1.07332
0.0626272
-1.13594
0.0468256
-0.00652288
0.420452
-0.361081
0.0391095
0.945695
-0.981074
-0.596874
-0.702423
-0.0599198
-0.167415
-0.975554
-0.0352846
0.4822
0.0634247
-0.163316
0.355873
-0.642708
0.673072
0.474016
-1.01591
-0.914724
0.0100912
-0.13853
0.670719
-0.532189
0.0408333
-0.735405
0.578365
0.181845
-0.0280108
0.988353
1.09009
0.947291
-0.982576
0.0457885
-0.0457885
-0.0746106
-0.074339
-0.0807389
0.342758
-0.0225171
0.200612
1.02919
0.0131242
-0.0199181
0.657638
0.342362
0.796736
-0.607898
-0.756983
-0.610245
-0.481532
0.481532
-0.209169
-0.108277
0.642072
-0.958351
0.316279
-0.465027
-0.546551
0.347044
-1.02514
-0.984239
1.02255
-0.718019
0.658099
0.66503
0.206557
-0.871587
-0.440941
-0.182282
0.862732
-0.680449
-0.0449475
0.00986571
0.00198266
-0.0118484
0.0687338
-0.143073
0.989116
0.544609
-0.260082
-0.284527
0.50713
0.751209
-0.526479
0.0141068
-0.287232
0.0745557
0.742215
-0.81677
-0.360114
-0.0551166
0.143456
-1.01502
0.167636
-0.751795
0.123625
0.74139
-0.865015
-0.914983
0.163188
0.727525
-0.782642
0.232242
-0.353387
-0.479041
0.0380997
0.368258
0.724623
-0.0305234
-0.00281643
0.00281643
-0.00563278
-0.0122046
-0.0285792
-0.0169012
0.0300254
-0.415616
0.343159
0.746241
-0.842627
0.0963863
-0.734143
0.857769
0.804114
-0.0765888
-0.72681
-0.188172
-1.14932
0.0210019
0.0247866
-0.341061
-0.895165
-0.841685
0.432948
-0.230086
0.294736
-0.06465
-0.433019
0.0919582
0.506016
0.71217
-0.0417507
-0.01746
0.976923
0.514505
0.179754
-0.694259
-0.321173
-0.111845
-0.00245437
0.0123201
0.747093
-0.917214
0.00551258
-0.00551258
-0.709583
0.757013
-0.04743
-0.484489
-0.113573
-0.704036
0.0565898
0.664614
-0.0522651
-0.886318
-0.221014
0.29226
-0.0712462
0.807902
-0.711516
0.348818
0.253788
-0.602606
-0.148072
-0.729076
-0.13594
-0.195078
-0.164424
0.472281
-0.515939
0.160201
0.750905
-0.911106
0.483382
-0.19798
-0.0321059
-0.100699
-0.0637249
0.594244
-0.0935736
-0.500671
-0.286174
0.307379
-0.021205
0.564799
0.161317
0.0750382
-0.313272
0.171419
0.141853
-0.0664144
-0.0717511
-0.319322
0.167113
0.00251234
-0.169626
0.939068
-0.311786
-0.172703
0.554174
0.311061
-0.571143
0.398945
-0.398945
-0.197244
-0.388546
-0.214002
-0.388546
-0.702997
-0.851669
0.181313
-0.392525
0.733519
0.0488222
0.15581
0.568813
0.108532
0.117779
0.0107724
-0.128551
-0.100265
0.711024
-1.04026
0.523473
0.00665371
0.0537139
-0.0603676
-0.757038
-0.178538
-0.556499
0.736253
-0.528428
0.00958149
-0.0733064
-0.341835
-0.0798053
0.0798053
0.0459968
-0.00133144
0.13878
0.222985
-0.72061
0.164111
-0.00258254
0.473142
0.526858
0.824647
0.0152542
0.0253589
-0.0406131
-0.297572
-0.588746
-0.518285
0.115292
-0.119904
0.00461235
-0.145742
-0.41142
-0.090504
0.755118
-0.594576
-0.162463
-0.0186864
-0.00162026
0.148196
-0.34591
-0.198396
-0.183524
-0.0259063
-0.471736
0.427357
0.0443789
0.00172731
0.295065
-0.865324
-0.535191
0.654853
-0.875687
0.727615
0.452932
-0.0324276
0.057317
-0.0248894
0.146253
-0.633886
-0.00895941
0.642845
-0.893483
0.649134
-0.723745
-0.0177088
0.00658933
-0.00658933
-0.299165
0.439158
-0.0187062
-0.00711831
0.0223725
0.586506
0.504404
-0.64039
0.0119605
0.00106501
-0.00388144
0.00474822
-0.00474822
-0.480715
0.642031
0.0154601
-0.0154601
-0.781768
-0.00766311
0.0107852
-0.487283
0.651394
0.549582
-0.597012
0.069067
-0.069067
0.0107225
-0.0425123
0.012923
-1.08969
0.637635
-0.545365
-0.00497944
0.608066
0.00308527
-0.611151
-0.711066
0.11649
-0.314798
-0.0129501
0.327748
-0.0200905
-0.0216602
-0.60783
-0.0260555
0.0247866
0.00565288
-0.000140296
-0.00282836
0.00282836
-0.377733
0.208107
-0.464829
0.133354
0.663381
-0.125446
0.0047991
-0.0047991
0.50844
0.00996262
0.00844668
0.0181972
-0.000231222
0.641866
-0.631904
-0.801106
0.628403
-0.106207
0.328912
0.789003
-0.00563278
-0.0899553
0.0901024
-0.636856
0.547666
-0.240722
-0.103
-0.0294656
-0.026133
0.00845769
0.479744
-0.0856659
-0.415005
0.7166
0.00164894
0.00395205
-0.00395205
-0.216686
-0.154748
-0.569892
0.618714
-0.135662
0.508895
-0.201792
0.84437
0.874212
0.00565288
-0.730797
0.624319
0.0124966
-0.00998836
-0.00250828
0.63013
0.0929859
-0.0119344
0.0662425
-0.0543081
0.00910604
-0.00910604
-0.743795
0.0232785
-0.0432571
0.0614543
-0.0856108
0.0856108
0.00106501
-0.000833683
0.765755
0.0768408
-0.316251
-0.0951694
-0.521433
-0.00618977
-0.0663156
0.0663156
-0.0298906
0.0813835
-0.0813835
0.0265525
-0.0265525
-0.358303
-0.0734844
0.239071
0.0705219
0.0533902
-0.728706
-0.0599282
0.159628
0.0216261
-0.239494
0.0814453
-0.0814453
-0.468274
-0.0476653
0.228469
-0.00969354
0.00282452
-0.666152
0.652219
0.0296981
-0.0595886
0.020482
-0.0629943
-0.0123165
-0.157227
0.169544
-0.148505
-0.204882
-0.0807485
0.0807485
0.0540843
-0.0540843
-0.0278174
-0.09368
0.121497
-0.0288321
-0.190251
-0.000112121
-0.00376932
-0.219492
0.427599
-0.0257209
0.431902
0.00913605
0.00837987
-0.050755
0.050755
-0.732704
0.315766
-0.127153
-0.207295
-0.0227806
-0.0174502
0.0202747
0.192953
0.031426
-0.00261212
0.0023809
0.0854186
0.0298734
0.0562541
0.103374
-0.0235866
0.0061266
-0.00156053
0.00643886
0.00475501
0.00177783
-0.00653284
-0.00288704
0.010785
0.0272668
-0.0272668
0.0487923
-0.0432799
0.0432799
-0.189662
0.0148187
0.0316942
-0.0757274
0.0174465
0.0777656
-0.0777656
0.237332
-0.235375
0.0868697
-0.0663508
-0.169024
-0.0149249
0.0149249
0.408404
0.250256
-0.520731
-0.0804064
-0.0394979
0.541758
-0.00835012
-0.0585292
-0.466726
0.0966635
-0.151593
0.168717
-0.0171237
-0.0478923
0.0478923
0.885666
-0.589248
-0.00502299
0.00213595
-0.00580554
-0.286816
6.17492e-05
0.00486228
-0.043768
-0.629479
0.569098
-0.659908
0.0144329
0.139241
0.0155606
0.0242025
-0.157398
-0.333421
0.257694
-0.054635
0.0268176
0.173253
0.134125
0.194422
0.26265
-0.24709
0.00461472
-0.113562
-0.220245
0.0669768
-0.0107227
0.1597
-0.135497
-0.0682694
0.153688
-0.40612
0.120659
-0.103212
0.0585571
-0.473562
0.173579
0.179504
-0.247773
0.00817287
-0.17837
0.178432
0.00367961
0.150008
-0.0278198
0.0483024
0.460137
0.0123418
0.0174935
-0.00121225
0.0353213
-0.237369
-0.203099
0.59006
0.166847
0.0616219
0.0746914
-0.064271
0.0688691
-0.0713773
-0.0303851
0.165231
-0.150798
0.0259512
-0.00879231
-0.105272
-0.0283619
0.0320778
0.25193
-0.0137947
0.00587476
-0.308913
-0.00684142
0.218613
0.139035
0.17673
0.0564872
0.0957765
0.0549399
0.531566
-0.00809337
0.10592
0.0411077
0.0673177
-0.108425
-0.270475
-0.195522
0.0264984
-0.221632
0.282414
)
;

boundaryField
{
    FrontBack
    {
        type            empty;
    }
    Top
    {
        type            calculated;
        value           uniform 0;
    }
    In
    {
        type            calculated;
        value           uniform -1;
    }
    Bottom
    {
        type            calculated;
        value           uniform 0;
    }
    Out
    {
        type            calculated;
        value           nonuniform List<scalar> 10(1.14986 1.03896 1.17255 0.999584 1.16177 1.06 1.20695 1.01158 0.59619 0.602547);
    }
    circle
    {
        type            calculated;
        value           uniform 0;
    }
}


// ************************************************************************* //
