/*--------------------------------*- C++ -*----------------------------------*\
| =========                 |                                                 |
| \\      /  F ield         | OpenFOAM: The Open Source CFD Toolbox           |
|  \\    /   O peration     | Version:  2412                                  |
|   \\  /    A nd           | Website:  www.openfoam.com                      |
|    \\/     M anipulation  |                                                 |
\*---------------------------------------------------------------------------*/
FoamFile
{
    version     2.0;
    format      ascii;
    arch        "LSB;label=32;scalar=64";
    class       volVectorField;
    location    "40.5";
    object      U;
}
// * * * * * * * * * * * * * * * * * * * * * * * * * * * * * * * * * * * * * //

dimensions      [0 1 -1 0 0 0 0];

internalField   nonuniform List<vector> 
808
(
(0.897641 -0.00848077 0)
(1.01336 -0.0327157 0)
(1.26272 0.238139 0)
(1.06664 0.00999237 -3.01159e-21)
(1.45601 -0.292899 0)
(0.956897 -0.030879 0)
(1.16292 -0.0481206 -5.20274e-21)
(1.11053 -0.00116314 0)
(1.33674 -0.226981 1.52674e-20)
(1.23125 -0.0980152 2.43857e-21)
(1.1652 -0.216574 6.30766e-21)
(1.36143 -0.260916 0)
(1.00467 -0.00973536 0)
(0.746056 -0.0180005 0)
(1.14026 -0.0987971 2.43456e-20)
(1.11298 -0.0141253 0)
(1.04105 -0.0890512 -8.18275e-21)
(1.02327 -0.0355472 -1.57364e-22)
(1.27003 0.167729 0)
(1.12481 0.00360828 0)
(1.25338 -0.219844 -8.80459e-21)
(0.930133 0.132904 1.05671e-19)
(1.07039 0.00312357 -1.20296e-20)
(1.1707 -0.0305206 0)
(0.965317 0.197083 0)
(1.23418 -0.0672897 -2.91543e-20)
(1.26445 -0.180842 -2.80869e-21)
(0.978562 -0.0250048 -6.2183e-21)
(1.12718 -0.037756 0)
(1.0533 0.0408022 -1.07507e-22)
(1.02492 -0.0499773 5.86072e-24)
(1.12515 -0.00729656 0)
(1.03023 0.0353956 0)
(1.10475 -0.0243806 4.99911e-21)
(1.29369 -0.0857009 4.18921e-21)
(0.742207 -0.0959233 1.14064e-19)
(0.877313 -0.0268756 -1.0916e-20)
(1.03138 0.0322078 9.12785e-22)
(1.18514 0.0230786 -6.23718e-21)
(1.07267 0.0142462 0)
(1.26634 -0.0655141 -7.00338e-21)
(1.27074 -0.134856 0)
(0.996952 -0.0022734 -7.9045e-21)
(1.11995 -0.0523656 1.04364e-20)
(1.05588 -0.135338 0)
(1.00907 0.0138581 -1.74263e-20)
(1.00917 0.0258152 2.16595e-21)
(1.2396 -0.249981 -1.53473e-20)
(1.15585 0.0408079 -1.27395e-20)
(1.39139 -0.196981 -2.20549e-20)
(1.15674 -0.0409474 8.45504e-21)
(1.14569 -0.0766192 0)
(1.11213 -0.0111108 7.1168e-21)
(1.12476 -0.0867498 0)
(1.33046 0.188229 7.69199e-21)
(1.04537 0.0426164 -4.52129e-21)
(1.16589 -0.102769 0)
(1.07321 -0.134147 3.38899e-21)
(1.23347 -0.097371 -2.61762e-21)
(1.12479 0.0490952 -1.3804e-21)
(-0.173856 -0.423337 0)
(1.20718 -0.210497 2.3079e-21)
(1.03706 -0.0708041 0)
(1.43729 -0.108236 -2.02933e-20)
(1.0879 -0.0948587 -1.32064e-20)
(1.03504 -0.028958 -8.57682e-21)
(1.31048 -0.163079 2.06273e-20)
(0.648169 0.00739558 0)
(1.15835 -0.0920683 0)
(1.41673 -0.352588 0)
(0.901215 0.0203428 -3.98643e-22)
(1.21387 -0.149625 -3.04027e-20)
(1.00577 0.0345225 0)
(1.04653 -0.0493522 -5.05391e-21)
(1.10956 -0.325429 -6.53563e-20)
(1.17497 -0.0512671 -7.38627e-21)
(1.14137 0.0381988 -2.06754e-23)
(1.35548 0.488766 2.73661e-20)
(1.111 -0.032376 0)
(1.0231 0.291551 -1.69185e-19)
(1.28046 -0.0239057 1.38136e-20)
(0.753975 0.0243926 0)
(0.855375 0.0480461 -1.14509e-20)
(0.967028 -0.108388 4.7241e-21)
(1.12934 -0.0804569 4.28389e-21)
(1.19161 0.0213947 8.42716e-22)
(1.25678 -0.238098 0)
(1.37326 0.256742 0)
(1.08478 0.00173256 -2.34705e-20)
(1.42559 -0.0591314 2.65472e-20)
(1.08558 -0.0155498 1.97656e-20)
(1.30722 -0.133887 -8.62121e-22)
(0.967893 0.0276531 1.54385e-20)
(1.00423 -0.0261635 0)
(1.10257 0.00915266 1.50201e-21)
(1.29103 -0.127373 -6.02483e-20)
(0.773713 0.0240088 -3.69602e-21)
(1.22817 -0.0394315 0)
(1.32852 -0.0969524 0)
(1.4037 -0.13834 -3.14085e-20)
(1.10937 -0.053164 -5.58293e-21)
(1.12689 0.0156421 -1.97495e-22)
(0.944521 0.0280059 1.65162e-20)
(1.18332 0.0334742 2.43085e-23)
(1.34763 0.0441261 -2.40198e-20)
(0.998257 0.00179184 1.18529e-20)
(1.36784 -0.0237432 0)
(0.754227 -0.129914 0)
(1.07861 0.0366996 9.94957e-21)
(1.18857 -0.216031 -1.20892e-20)
(1.27891 0.0343022 7.40136e-21)
(1.05077 0.0502799 -1.16836e-19)
(1.14147 0.0439863 -3.96348e-21)
(1.07167 -0.0298312 1.04403e-20)
(0.797098 0.0197122 0)
(0.916747 -0.0391909 7.79033e-20)
(1.13219 0.0374062 -1.06734e-20)
(1.40846 -0.268384 -1.15156e-20)
(1.11412 -0.0520245 -8.97241e-21)
(0.930547 0.0142832 2.50972e-21)
(-0.045176 -0.249358 0)
(0.850125 -0.0169895 1.44383e-21)
(0.781317 0.0265925 0)
(1.05792 0.00257727 -1.28716e-22)
(1.0147 0.0273507 0)
(1.33225 0.298431 1.33199e-20)
(1.03132 -0.0548853 -3.98465e-20)
(1.13046 0.0454021 5.90142e-21)
(1.14609 -0.0551202 0)
(1.0888 -0.0263092 0)
(0.507725 -0.0890866 0)
(1.1091 -0.031906 -5.16323e-21)
(1.25778 -0.0509316 3.62703e-21)
(1.07205 0.113164 -2.85904e-20)
(0.846078 -2.15219e-05 0)
(1.09124 0.0320597 -2.71765e-21)
(1.10544 -0.0856626 -1.94323e-21)
(1.2199 -0.059281 2.5512e-22)
(0.980676 0.030926 6.80836e-21)
(1.12421 0.012759 1.6557e-22)
(0.0773193 0.104093 0)
(1.09465 -0.0196113 -2.19341e-20)
(1.2373 0.192655 -1.78435e-21)
(0.709768 0.0218931 -6.4054e-21)
(1.27059 0.137409 2.27027e-22)
(0.869226 -0.273727 2.95572e-21)
(1.04442 0.0161479 2.13509e-20)
(0.990631 0.0299254 0)
(1.06239 0.0394972 1.97028e-20)
(0.81841 -0.193024 0)
(0.933262 0.0251883 1.33452e-20)
(0.975158 0.295868 1.35902e-19)
(0.968028 0.0308204 0)
(0.82066 0.118964 0)
(-0.104129 0.0653993 -9.25463e-20)
(1.32992 0.0825766 -1.65968e-20)
(0.676404 -0.0205988 0)
(1.42393 -0.098882 0)
(1.19946 0.0489405 0)
(1.32555 0.0123921 1.6726e-20)
(-0.0256071 -0.0192767 0)
(-0.0426909 0.165729 4.61929e-20)
(0.920294 -0.0834018 5.1127e-20)
(0.996206 0.0390789 2.16987e-21)
(0.851952 -0.00058717 0)
(1.01554 -0.0306046 1.38359e-20)
(0.881059 0.0271304 0)
(0.661901 -0.0530491 -5.52684e-20)
(1.00479 0.0289658 2.10514e-20)
(1.08747 -0.0835236 4.48387e-21)
(1.08958 0.0155031 1.05698e-20)
(1.01653 0.0721823 -1.05014e-20)
(0.601715 -0.297974 -2.94263e-21)
(1.12524 -0.339712 9.79158e-22)
(0.907515 -0.0289763 0)
(1.06609 0.00158076 -1.80558e-20)
(0.870691 0.00920237 -9.94852e-21)
(1.37282 -0.182084 1.30896e-21)
(0.707071 0.0261725 0)
(1.01686 -0.144815 0)
(1.07266 -0.0432214 3.30106e-21)
(1.41307 0.173308 1.38883e-20)
(1.10552 0.027706 8.44981e-21)
(1.03747 0.0232705 2.1779e-20)
(0.913767 -0.185977 -6.87044e-20)
(0.812782 0.00289268 1.82088e-20)
(1.12579 -0.0193288 6.73899e-21)
(1.40656 -0.113407 -3.70661e-21)
(1.07445 -0.0580932 -6.77689e-21)
(1.34089 -0.0456548 3.17621e-21)
(-0.122005 0.0414652 6.89197e-20)
(1.28454 -0.0177079 0)
(0.612544 -0.0212274 0)
(1.0621 -0.0229981 -9.06917e-21)
(1.09123 0.0181044 1.27756e-20)
(0.24457 0.023669 0)
(0.870886 -0.0144946 5.48835e-22)
(1.04999 -0.0194354 -5.34171e-21)
(1.01267 0.0200421 3.34591e-21)
(1.07747 0.0270985 -6.45842e-21)
(1.00158 0.0211772 2.70742e-21)
(1.01024 -0.0112705 4.71201e-21)
(1.04469 0.026975 0)
(0.299348 -0.0283517 0)
(1.0475 -0.0616831 0)
(1.25583 0.0570637 -4.13265e-20)
(-0.0340574 -0.0159352 4.28108e-20)
(1.1343 0.00722924 -3.2764e-23)
(1.19399 0.240557 0)
(0.733283 0.0171182 -1.28906e-20)
(1.18432 -0.258973 2.01607e-21)
(-0.00681214 -0.0369297 -1.2211e-19)
(0.77668 -0.0730101 -3.85468e-20)
(0.622059 -0.0192371 0)
(1.05317 -0.254763 0)
(0.947128 0.0389047 1.33596e-20)
(0.982982 -0.112163 4.39652e-21)
(1.30995 0.385985 9.97407e-21)
(1.11672 -0.190754 -2.08793e-22)
(1.03678 -0.0652088 -5.13901e-21)
(1.01337 -0.323574 0)
(1.39464 0.408327 -6.08427e-20)
(0.670446 -0.00828752 0)
(0.8161 -0.0239687 -5.93636e-21)
(1.04941 -0.0294207 3.58658e-22)
(0.595437 0.0159141 0)
(1.10079 -0.006245 0)
(0.160619 -0.17393 -4.11234e-20)
(0.922623 0.0438054 -1.95458e-20)
(0.735305 -0.0245764 3.27622e-21)
(0.990804 -0.00382542 0)
(0.574248 -0.0190768 0)
(0.780913 -0.0191357 -5.7454e-21)
(0.538591 -0.0223028 -5.76676e-22)
(1.2609 -0.0264663 1.84892e-22)
(1.23248 0.166088 -4.72272e-21)
(0.729635 0.0160327 -3.09709e-21)
(1.08211 -0.040656 4.94553e-22)
(1.06409 -0.166151 1.96773e-22)
(0.568483 0.0124385 7.98092e-21)
(1.121 -0.0793312 3.25997e-22)
(1.06782 0.0145393 0)
(0.917168 -0.296579 0)
(0.526258 0.01674 0)
(1.03357 -0.008377 0)
(1.25398 0.0574031 -2.51648e-21)
(0.951415 -0.0478345 0)
(1.10982 0.0027987 0)
(1.03929 -0.0574144 0)
(1.00998 -0.226505 0)
(-0.00870796 -0.00371307 3.81462e-20)
(1.32348 -0.00920131 7.37704e-22)
(1.01677 -0.126771 0)
(1.40282 0.0699641 1.77077e-20)
(1.26054 -0.050582 1.14121e-21)
(1.08093 0.0475337 5.25576e-21)
(1.1772 0.134328 5.20168e-21)
(1.2184 0.0611116 0)
(0.602997 -0.0110846 1.19312e-20)
(1.0533 0.0333222 1.02137e-20)
(1.03981 0.183165 0)
(1.20352 -0.131243 -2.37745e-21)
(1.17741 -0.11939 2.88383e-21)
(0.426578 0.242715 -6.56139e-21)
(1.14961 0.062453 3.39765e-21)
(1.25478 -0.0768353 -1.42213e-21)
(0.833981 -0.00286653 0)
(1.16008 -0.136486 -2.74664e-20)
(0.920539 -0.0784231 -9.55107e-21)
(0.819126 -0.0660359 -9.56029e-21)
(0.918536 0.315192 0)
(-0.0181386 -0.0175341 0)
(0.980729 0.118994 -1.67161e-20)
(1.22085 -0.0415379 0)
(1.17833 0.0345901 -1.20537e-20)
(1.08914 -0.0299843 1.97103e-21)
(1.28101 -0.161303 1.36728e-21)
(1.08339 -0.0308003 -2.2312e-21)
(1.36586 -0.10276 9.13713e-20)
(1.00758 -0.311538 6.59756e-20)
(1.14826 0.0294862 -1.30788e-21)
(1.06784 0.245929 0)
(0.80316 0.123591 0)
(0.908769 0.00548742 -3.68639e-20)
(1.09366 -0.00789761 1.05968e-20)
(1.29246 0.0543172 0)
(0.583187 -0.377712 -7.59757e-21)
(0.437745 -0.00114086 0)
(0.744811 0.355414 3.27364e-21)
(0.82808 -0.175626 9.00118e-21)
(0.831207 0.0310589 -8.26168e-21)
(1.08804 0.117726 0)
(1.12388 0.00460354 -2.29906e-21)
(1.03933 0.133081 4.67097e-21)
(0.752745 0.24306 -6.86036e-21)
(1.19343 0.0888231 -4.85172e-21)
(0.988897 0.235377 0)
(1.08936 0.0584586 0)
(0.971318 0.262751 6.44251e-21)
(0.811548 0.274695 -3.30684e-21)
(1.12323 -0.0892587 1.48555e-20)
(1.21487 -0.0121253 -5.63575e-21)
(0.935034 0.210619 1.02229e-21)
(1.22287 -0.0402424 0)
(0.403604 -0.135094 1.15643e-20)
(1.29356 0.00791564 -1.78588e-20)
(1.03469 0.118694 1.07441e-20)
(0.281004 0.362671 6.93619e-21)
(1.41938 -0.163433 1.72245e-20)
(0.923969 -0.218241 6.72441e-20)
(1.135 0.222994 -6.55945e-21)
(1.16647 0.00413183 -1.70883e-21)
(-0.072629 -0.0353437 -7.28919e-21)
(1.00139 -0.00720045 0)
(1.03648 -0.0860591 -1.74432e-20)
(0.844173 -0.0275496 1.20639e-20)
(1.10409 -0.0524882 6.00305e-21)
(0.704118 0.0417557 -7.46078e-22)
(0.516431 -0.0109901 6.38788e-22)
(1.39429 -0.383896 -1.46206e-20)
(1.1763 0.0505166 0)
(1.07343 0.0386274 -3.54402e-21)
(1.1482 0.046767 -3.05409e-21)
(1.2725 -0.023685 0)
(0.774985 0.149643 1.34172e-20)
(1.1567 0.0267621 4.52087e-21)
(0.694388 -0.0976868 1.74564e-20)
(1.13817 -0.00860666 -1.20132e-20)
(0.947049 0.22296 -6.03116e-21)
(-0.0459579 0.0786665 0)
(0.538782 0.455352 8.49755e-21)
(1.18333 0.0676314 0)
(0.964374 0.20684 -4.18729e-21)
(0.791689 0.230245 0)
(1.11025 -0.00720307 4.90622e-21)
(1.01443 0.0235005 0)
(1.10015 0.158823 0)
(1.40176 -0.146518 1.60252e-20)
(0.790845 -0.0711422 0)
(1.27657 -0.28881 -7.79272e-22)
(1.09957 -0.0392218 4.97824e-23)
(1.08492 0.0542866 3.67003e-21)
(1.16261 -0.0446157 6.1761e-21)
(1.23795 0.0841768 -1.03378e-20)
(1.08985 -0.0655218 3.02762e-20)
(1.24559 0.0513932 0)
(1.21971 -0.0392818 0)
(1.18191 0.0267272 2.05907e-21)
(1.17637 -0.00387797 0)
(1.49749 0.148546 -3.60074e-20)
(0.671898 -0.246864 -7.32485e-23)
(1.02646 0.011269 1.88867e-20)
(1.26743 0.0824855 -1.79889e-22)
(-0.01919 0.0708746 0)
(-0.0146027 0.000267372 0)
(0.0880465 -0.182582 -3.37957e-20)
(-0.0762218 -0.0746333 0)
(0.689249 -0.328984 -1.04356e-20)
(1.17875 0.0281561 -4.18537e-21)
(1.20465 -0.108928 -4.93964e-21)
(1.28728 0.0712785 7.87207e-22)
(1.15329 0.00916685 0)
(0.696632 -0.0067024 -2.78492e-21)
(1.2057 -0.0184663 0)
(1.21098 0.0256583 2.88983e-21)
(0.48954 -0.107828 0)
(0.828601 -0.270762 -1.19735e-22)
(1.13191 -0.0245816 0)
(1.10123 0.0338714 0)
(0.936462 0.0414529 6.96376e-20)
(0.779532 -0.273584 3.52427e-22)
(0.741118 -0.268145 -3.23949e-21)
(1.01088 0.0184717 -1.17224e-20)
(0.104472 -0.095239 0)
(1.20268 -0.187738 -1.30543e-20)
(1.15689 0.110641 9.3078e-22)
(1.08095 -0.195679 -6.00975e-21)
(0.935233 -0.216138 -1.5033e-20)
(-0.06353 0.0388998 -9.57427e-20)
(1.08567 0.0170168 0)
(-0.0392201 0.0613775 0)
(1.10532 0.074192 1.25062e-20)
(0.684921 -0.0519698 1.61817e-20)
(1.10662 0.0603881 -8.2452e-21)
(1.12465 -0.0353741 0)
(1.18144 -0.129235 4.07358e-21)
(0.998926 0.0402397 -1.88086e-20)
(0.507662 -0.0477593 -7.27847e-21)
(1.12992 -0.020579 -5.1126e-21)
(1.22545 -0.0439039 -4.16544e-22)
(0.11088 0.491702 -4.5568e-21)
(1.33882 -0.0991275 2.24284e-21)
(1.10638 0.0565878 0)
(1.11732 -0.0231562 0)
(1.1868 0.0224957 -2.87935e-21)
(1.11033 0.0989593 -8.4126e-22)
(0.237212 0.100471 1.14795e-20)
(1.18636 -0.122249 -2.70061e-20)
(1.07568 0.0451543 1.55027e-20)
(0.527396 -0.00343242 1.43424e-20)
(0.505529 -0.192406 -1.24372e-19)
(-0.190243 0.0297645 -6.20178e-21)
(1.18541 0.166567 -6.99733e-21)
(1.21511 -0.48352 1.75589e-21)
(1.42387 0.117356 -1.63352e-20)
(1.18543 -0.0172359 3.41218e-21)
(0.930333 -0.217575 9.81759e-20)
(0.254949 0.0687382 0)
(1.13172 -0.104609 -4.18533e-22)
(0.570452 0.413833 -2.79778e-20)
(1.08932 0.0417566 -1.08214e-20)
(1.0367 0.0317364 8.40115e-21)
(1.10865 0.0393396 0)
(0.826118 0.043422 0)
(1.16747 -0.0444815 0)
(1.09135 0.178043 3.96577e-21)
(1.27281 0.00308361 -1.73707e-20)
(1.1521 -0.02052 7.2447e-21)
(0.484571 0.017752 0)
(0.636259 0.0143667 0)
(0.632369 -0.00494453 3.61864e-22)
(0.454813 -0.0162894 0)
(1.07495 0.0661971 0)
(1.01972 -0.00956921 3.13542e-20)
(0.428809 0.386283 0)
(0.921853 0.00880892 0)
(1.14805 -0.0770286 0)
(1.18464 0.169444 4.2215e-21)
(1.23972 0.0893208 7.28003e-21)
(0.95949 -0.0278997 8.02755e-21)
(1.26858 -0.397091 -8.92546e-20)
(0.505083 0.248732 8.35503e-23)
(1.2718 -0.094142 7.88078e-21)
(1.28595 -0.176865 0)
(-0.0830177 -0.0438962 0)
(-0.29903 -0.300179 0)
(1.13654 -0.0239707 8.03409e-21)
(1.30489 -0.287723 -4.46177e-21)
(1.26135 0.173154 0)
(1.12466 0.0208919 -1.20601e-20)
(0.169488 -0.14757 0)
(1.49131 -0.185349 5.04393e-20)
(0.425456 0.541648 9.11971e-20)
(0.237224 -0.0244724 0)
(1.07617 -0.275449 9.57937e-20)
(0.787754 0.0478774 0)
(0.155256 0.388436 2.23535e-20)
(1.33762 0.157676 0)
(-0.00570365 -0.26317 -8.27217e-21)
(0.984339 -0.050848 0)
(1.2122 0.0679463 6.11243e-21)
(-0.165676 -0.0553986 -7.24113e-21)
(1.11237 -0.0190427 3.64409e-21)
(1.22067 -0.299817 3.4531e-21)
(0.560021 -0.48708 -9.59573e-20)
(1.13994 -0.0922542 -2.42695e-21)
(1.19018 -0.128321 9.20972e-21)
(1.19672 0.231844 -9.78977e-21)
(1.0927 0.155962 5.99888e-21)
(1.12407 -0.00776322 1.57419e-21)
(-0.238344 -0.413178 -3.71687e-20)
(0.188998 0.0845195 -1.10978e-20)
(1.13844 -0.0839966 2.40921e-21)
(1.06003 -0.0444403 0)
(0.527817 -0.337589 -5.26522e-21)
(1.3794 -0.438735 6.11703e-20)
(0.889535 -0.0758731 -4.2373e-20)
(1.49083 0.050996 1.00259e-19)
(1.08462 -0.0669153 5.85195e-21)
(1.34289 -0.15721 -2.67692e-21)
(1.06138 -0.0101881 0)
(1.18226 -0.000962091 0)
(1.25899 0.0431355 -6.59641e-22)
(1.08598 -0.0228511 -4.31773e-21)
(1.12816 0.125195 -6.21739e-21)
(1.07427 0.0166024 -1.2095e-20)
(1.46215 -0.0298325 -4.0823e-20)
(0.586115 0.0192134 0)
(1.33327 -0.0780226 -1.01564e-22)
(1.33855 0.195953 0)
(1.08558 0.0272567 -9.01636e-21)
(1.13052 0.0118953 0)
(1.04109 -0.00884743 1.74903e-20)
(1.20466 0.0190917 1.30067e-20)
(1.18571 -0.12029 0)
(0.0502544 -0.0290842 1.31475e-19)
(0.881571 -0.195222 -7.69976e-20)
(1.34595 -0.0540282 -2.83764e-20)
(-0.144439 0.00385273 4.6275e-20)
(1.18788 0.0501592 1.99651e-22)
(0.825367 -0.132307 1.24702e-20)
(-0.111077 0.0724175 -4.82374e-20)
(-0.0392267 0.119482 -3.33985e-20)
(1.01651 -0.0289025 0)
(-0.0209446 -0.0155257 0)
(1.3336 0.157085 0)
(0.110362 -0.0805634 0)
(1.10627 -0.0209512 0)
(0.130584 0.0365044 0)
(1.08617 0.060643 0)
(1.21577 0.323693 0)
(1.17921 0.112561 -8.33084e-21)
(0.562219 -0.278234 -1.75162e-20)
(-0.219356 -0.037797 0)
(1.09139 -0.108424 4.40845e-20)
(1.1565 -0.157064 -3.17956e-22)
(1.47649 0.11862 0)
(-0.0348793 -0.0342945 0)
(1.13579 -0.00134352 -1.91339e-23)
(1.13596 -0.0144444 2.50952e-22)
(1.19296 0.390658 0)
(0.169389 -0.0551593 4.18665e-20)
(1.11427 0.0431327 9.51902e-22)
(0.225665 -0.0507716 -4.49335e-20)
(-0.0604181 0.061942 -4.40195e-20)
(-0.0257167 0.0511108 1.10683e-19)
(0.919929 0.356782 3.50277e-20)
(1.19583 -0.244855 -1.17347e-20)
(1.09243 0.0559413 -1.4797e-20)
(1.02135 -0.00972162 0)
(1.06885 -0.066581 -2.59552e-20)
(1.19223 0.126138 -7.82414e-21)
(-0.006421 0.0390664 1.02603e-19)
(0.974384 -0.0665829 -6.26821e-20)
(0.493465 -0.0875905 8.99946e-21)
(0.948971 -0.19912 -8.37457e-21)
(0.0698301 -0.0293383 2.74671e-20)
(0.237073 -0.0376867 -4.00763e-20)
(0.341192 -0.0485186 -3.79332e-20)
(1.08467 0.11022 1.36014e-20)
(-0.04767 -0.0173963 0)
(0.738873 -0.0762692 1.63578e-20)
(1.32911 -0.0666791 -2.50417e-20)
(1.16122 0.0723008 2.41412e-20)
(1.3395 -0.0386032 0)
(1.49857 -0.236298 5.13682e-20)
(1.11353 0.0125126 -5.50071e-21)
(-0.00337851 0.0146339 -3.21165e-20)
(0.528771 0.00734468 0)
(0.935259 0.0150586 -4.77739e-21)
(1.12263 0.0354991 2.0108e-21)
(0.443582 -0.127829 -8.58853e-21)
(1.13261 -0.00082884 -2.58599e-22)
(1.11196 0.0365699 0)
(1.11484 -0.17388 -1.20764e-20)
(-0.123957 -0.081728 -5.4027e-20)
(1.31664 -0.0273149 1.71523e-20)
(1.11277 0.168698 -9.30958e-21)
(1.10715 0.00478594 1.3833e-20)
(-0.0277011 -0.0114118 1.26293e-20)
(-0.0375555 0.0813216 -8.70909e-20)
(0.79553 -0.0760769 0)
(1.01768 0.320775 0)
(1.15055 0.0733801 -1.05984e-20)
(1.05312 0.0613126 1.04052e-20)
(1.16569 0.0183175 0)
(0.478125 -0.17804 3.71509e-20)
(0.870421 0.0613662 -1.5806e-20)
(1.10121 0.0914906 0)
(1.11599 0.003509 0)
(1.43764 0.293297 0)
(1.18017 0.119738 0)
(1.3099 -0.0522679 -1.08901e-21)
(-0.0423832 0.0531804 4.80885e-20)
(1.10082 0.0950653 7.23892e-21)
(1.38059 -0.207409 -5.77177e-20)
(1.39505 0.0505376 -1.16026e-21)
(-0.0160271 -0.294654 0)
(1.22447 -0.189801 0)
(0.643965 -0.0131754 -8.69754e-22)
(0.627463 0.00347023 -7.78669e-20)
(0.101945 0.0329046 6.21054e-20)
(0.978109 0.0327899 4.72781e-21)
(0.725446 -0.267544 0)
(0.658426 -0.0897832 0)
(1.33563 0.103361 0)
(0.560461 0.535873 3.82521e-20)
(-0.0314042 0.0862848 -3.87348e-20)
(0.979865 -0.17266 3.73221e-21)
(-0.0126443 0.0332236 5.81893e-20)
(1.08612 0.00253448 4.88785e-21)
(1.19083 0.305693 1.86701e-20)
(1.11173 -0.0941384 1.1685e-20)
(0.245733 -0.370848 4.86416e-20)
(0.867796 -0.196288 6.41122e-21)
(1.28919 -0.290266 0)
(0.596385 0.286118 0)
(1.03284 -0.0363289 -9.48943e-21)
(-0.219657 -0.0590729 0)
(0.617962 0.027118 4.02018e-21)
(0.589252 -0.405531 -2.2001e-21)
(0.281352 0.0505378 -1.399e-19)
(1.11351 -0.22044 4.34039e-20)
(1.05588 0.375943 8.96301e-21)
(0.979389 0.0286655 0)
(1.16347 -0.180599 4.4505e-22)
(0.66785 0.0141799 0)
(0.983969 -0.0112419 -4.47465e-22)
(0.415254 -0.0161833 0)
(0.714329 0.154238 0)
(0.990629 -0.0233028 -5.98385e-21)
(1.46597 0.111321 -1.89083e-20)
(1.09109 0.0324668 5.71764e-21)
(0.509277 -0.476088 0)
(1.12721 -0.152969 5.23237e-21)
(0.815914 0.396819 6.51299e-20)
(-0.0258244 0.018964 1.56621e-21)
(1.16817 -0.0176275 4.92649e-21)
(1.18206 0.00633123 -9.79414e-21)
(1.06886 0.0654342 1.51971e-21)
(0.7952 0.00992959 -5.10236e-21)
(0.0891931 0.0171262 5.02937e-20)
(-0.0226757 0.078806 -5.87595e-20)
(-0.25548 -0.214772 0)
(-0.185008 -0.0977427 0)
(1.16288 -0.602678 2.63242e-20)
(1.13202 -0.0207845 -1.53605e-21)
(0.86812 -0.454636 -3.28402e-20)
(0.86673 0.0489622 -3.19107e-20)
(1.43037 0.153872 4.66813e-20)
(0.631911 0.440655 0)
(0.254066 0.436859 -1.05262e-19)
(0.608641 0.50759 0)
(0.268689 -0.117029 0)
(1.10678 -0.466361 0)
(-0.0654241 0.131716 -1.06509e-21)
(1.19275 -0.00841395 0)
(1.03224 0.40028 -3.51135e-20)
(0.617308 0.721114 2.19987e-20)
(1.22829 0.328244 -7.98243e-22)
(-0.0385933 -0.0231206 -8.72272e-20)
(0.905417 0.396225 3.65607e-21)
(0.498414 0.152994 -1.67254e-20)
(1.18938 0.0487982 0)
(1.4059 0.33387 5.28517e-20)
(1.25681 0.572973 1.97809e-20)
(0.224007 -0.0309842 -3.04533e-20)
(1.14895 0.0699752 4.5728e-20)
(0.930296 -0.00983856 1.07429e-21)
(0.952499 0.0361739 -1.3061e-21)
(-0.00461043 -0.00711763 0)
(0.631205 -0.623773 -3.34e-20)
(0.61741 0.228256 0)
(0.0177497 -0.133345 0)
(-0.0583247 0.111132 0)
(-0.0268262 -0.071113 -3.19185e-20)
(1.19147 -0.00940962 -5.69771e-21)
(0.00631509 0.111483 0)
(-0.0526551 0.1341 0)
(1.41472 0.0522491 -9.34958e-20)
(-0.0293661 -0.0233615 3.97073e-20)
(0.118398 0.253325 -9.72459e-20)
(0.4736 0.0102584 0)
(0.163842 -0.254781 8.38617e-20)
(1.06113 -0.237411 0)
(0.987727 -0.271594 0)
(-0.0190024 -0.0429665 8.07694e-20)
(1.12947 0.0184415 -1.02722e-22)
(1.14561 0.34375 2.27637e-20)
(0.312257 0.0257867 5.90733e-20)
(0.392273 -0.497066 -4.53847e-20)
(1.41939 -0.0210571 0)
(1.32282 0.159721 2.94139e-20)
(1.29481 0.184686 -3.61075e-20)
(0.104501 0.111989 -2.31181e-20)
(-0.0743309 0.0940758 0)
(1.0692 -0.0500161 -2.01711e-20)
(1.09021 -0.212971 -2.12922e-20)
(0.57313 -0.375391 0)
(1.09345 -0.147864 -2.96332e-20)
(-0.0232783 -0.149876 0)
(0.766671 0.0230484 0)
(1.49007 0.0581373 3.7671e-20)
(1.00295 0.00941745 8.11094e-22)
(1.10756 0.762346 -6.20312e-21)
(0.218058 -0.358885 1.41771e-19)
(1.08913 -0.0248373 -2.11289e-21)
(1.19465 0.0474416 1.5451e-21)
(-0.0686015 0.160744 4.10827e-20)
(0.818189 0.759505 1.69196e-20)
(1.32954 -0.367781 -1.25292e-20)
(0.153174 -0.279181 8.80231e-20)
(1.13288 0.0545865 0)
(0.428662 -0.307688 -1.00813e-20)
(0.877259 -0.61916 1.98451e-21)
(0.940528 0.664323 -3.47234e-20)
(0.523151 -0.0369224 -5.09326e-20)
(1.1257 -0.0128316 -7.05361e-21)
(1.07606 -0.0839486 9.19798e-21)
(1.11419 0.0719622 5.22915e-21)
(1.1077 0.111163 1.67417e-21)
(1.12604 -0.126732 0)
(1.01139 0.0857698 1.99852e-20)
(0.937192 0.475024 0)
(1.20607 0.144493 -1.88734e-21)
(1.16264 0.0877381 -1.90611e-21)
(0.810985 0.272928 0)
(0.580935 0.113208 1.3344e-19)
(0.920403 0.735383 -5.23924e-22)
(1.09353 0.289038 -1.74822e-20)
(1.04303 -0.0108258 1.54114e-20)
(0.425115 0.522193 0)
(1.27525 -0.464782 0)
(0.690368 -0.350086 3.14372e-21)
(1.3144 0.507589 0)
(0.00118246 0.0704546 -5.83501e-20)
(1.26371 -0.407785 9.63966e-21)
(1.19274 0.513526 0)
(0.456102 0.248701 1.65033e-19)
(1.18994 0.319089 -1.52129e-19)
(0.798799 -0.613309 -3.02643e-20)
(1.1278 0.0736466 5.09752e-22)
(0.998443 0.150707 1.06291e-19)
(1.09885 0.162009 4.13814e-20)
(1.10701 0.722202 -4.03599e-21)
(0.889622 -0.416417 7.20258e-20)
(1.44098 0.104857 5.29263e-20)
(1.11418 -0.00220632 -1.02707e-21)
(-0.0043351 -0.0077911 7.17856e-20)
(1.06027 -0.68417 1.02758e-20)
(0.852329 -0.695966 6.52618e-20)
(0.244055 -0.29496 0)
(0.968325 -0.13644 7.79658e-20)
(0.369464 0.340469 -4.28414e-19)
(-0.192429 -0.213641 2.00706e-20)
(0.363971 0.0460654 3.24082e-20)
(0.653112 -0.0590663 -6.09073e-20)
(1.10658 0.541619 0)
(1.0014 0.227556 7.34223e-20)
(1.08366 0.02583 3.00329e-21)
(0.932492 0.460165 -8.39705e-20)
(0.761094 -0.702267 -1.0919e-20)
(0.92654 0.0379784 -4.90466e-20)
(0.996982 0.503491 0)
(1.08508 0.299131 -8.25178e-21)
(1.35759 -0.506951 9.3414e-21)
(1.21247 -0.332221 7.48389e-21)
(-0.174892 -0.401419 4.19834e-20)
(0.193878 0.0417296 -1.80838e-20)
(0.971451 -0.107327 -5.89345e-20)
(0.366544 0.555533 0)
(0.920256 0.0330024 3.90808e-20)
(1.20113 0.650063 1.04818e-19)
(-0.131922 -0.163264 1.13516e-19)
(-0.0780443 0.151972 -3.46243e-20)
(-0.0906756 -0.000438559 4.0701e-20)
(1.09012 0.0101324 -3.95202e-21)
(1.10752 -0.452142 0)
(1.04587 -0.712982 -5.65341e-20)
(0.710002 0.37345 0)
(-0.0211476 -0.158738 -7.28772e-20)
(1.13297 -0.00708107 9.0995e-21)
(-0.028083 0.0235326 -2.44036e-20)
(1.05096 0.0471758 -1.22778e-20)
(0.147898 0.0337397 7.5583e-20)
(0.947267 0.121555 0)
(1.41098 -0.058792 3.99052e-20)
(0.138927 0.0719595 -3.67867e-20)
(-0.345068 -0.281952 -4.98017e-20)
(-0.261209 -0.253372 0)
(0.0726203 0.00342025 0)
(1.36852 -0.00199266 -8.63019e-21)
(0.362676 -0.011004 1.24684e-19)
(1.24201 -0.709817 -4.30329e-21)
(0.83961 -0.271328 -2.58338e-21)
(1.08675 0.24995 -2.42895e-20)
(0.355821 -0.524277 1.47001e-19)
(1.59403 0.225007 -4.67781e-20)
(0.0298984 -0.0211379 2.68594e-20)
(0.213355 0.340623 1.91e-19)
(0.0614256 0.0005552 -1.03044e-19)
(0.930938 -0.473499 -4.6345e-20)
(1.50568 0.369272 4.74624e-20)
(0.549118 -0.648663 5.41145e-20)
(1.10379 -0.076118 -8.74248e-21)
(0.191141 -0.0911882 3.84541e-20)
(1.26802 0.284632 -6.35085e-20)
(0.679813 0.667437 -3.62783e-20)
(1.31116 -0.611928 0)
(1.48168 0.517158 4.26719e-20)
(1.0357 -0.511267 -1.14831e-20)
(1.43875 0.610847 -1.35472e-19)
(1.16958 0.0635115 0)
(-0.0541731 0.143814 0)
(1.28997 0.742523 0)
(1.13841 0.135378 -8.47729e-21)
(0.729143 -0.277785 -2.1261e-19)
(0.475403 -0.05538 0)
(-0.0511773 0.16891 -3.47886e-20)
(1.01171 -0.234582 1.10622e-19)
(-0.30247 -0.215257 0)
(0.322976 0.0585093 1.22197e-20)
(1.12372 0.0571214 0)
(1.48808 0.243799 0)
(1.17059 0.0689529 -5.45806e-22)
(0.355053 -0.259677 0)
(1.02137 0.151574 3.33937e-20)
(1.37301 0.265881 0)
(-0.103283 0.129069 -2.68096e-21)
(0.80448 -0.371721 0)
(1.5555 0.299382 -7.02934e-20)
(1.26667 0.362886 -8.70607e-21)
(0.861964 0.668419 -8.79277e-21)
(1.01975 0.155712 -8.12516e-20)
(0.95903 -0.193478 -5.32478e-20)
(1.50159 0.261039 4.11421e-20)
(1.1542 0.0163572 0)
(0.565132 -0.0456576 0)
)
;

boundaryField
{
    FrontBack
    {
        type            empty;
    }
    Top
    {
        type            noSlip;
    }
    In
    {
        type            fixedValue;
        value           uniform (1 0 0);
    }
    Bottom
    {
        type            noSlip;
    }
    Out
    {
        type            zeroGradient;
    }
    circle
    {
        type            noSlip;
    }
}


// ************************************************************************* //
