/*--------------------------------*- C++ -*----------------------------------*\
| =========                 |                                                 |
| \\      /  F ield         | OpenFOAM: The Open Source CFD Toolbox           |
|  \\    /   O peration     | Version:  2412                                  |
|   \\  /    A nd           | Website:  www.openfoam.com                      |
|    \\/     M anipulation  |                                                 |
\*---------------------------------------------------------------------------*/
FoamFile
{
    version     2.0;
    format      ascii;
    arch        "LSB;label=32;scalar=64";
    class       volScalarField;
    location    "1531";
    object      p;
}
// * * * * * * * * * * * * * * * * * * * * * * * * * * * * * * * * * * * * * //

dimensions      [0 2 -2 0 0 0 0];

internalField   nonuniform List<scalar> 
808
(
-0.03522245184249973
0.04462620721809401
-0.01137287679153256
0.03572128948482992
-0.3014324879734578
-0.05507519075280994
-0.01494702515758625
-0.02404451949744522
-0.1985719370104067
-0.08495081963020851
-0.01023253603184392
-0.2559557207100465
-0.03062133599285269
-0.01337196247164629
-0.1201477182960494
-0.01412696676537759
-0.137246140958693
-0.0136404138107898
-0.01240956055144334
-0.05639666494686815
-0.006724787965933202
0.1178383890805792
-0.06164704422698188
-0.07267901226224723
0.1759909197026401
-0.09986660330726797
-0.1539623452913651
-0.02035652484944997
-0.01741184274678462
-0.02579274437951775
-0.02024723634967068
-0.05926670260904914
-0.02281969011368943
-0.01683543192181238
-0.100625357177085
0.3441470127927612
-0.03903633996161206
-0.01655190347344358
-0.02308809226751975
-0.02653434368713686
-0.09135077211817021
-0.1280353262977911
-0.0514378264977984
-0.02099421276636063
-0.05409241552543356
-0.04068603036291678
-0.01216522362214527
-0.1861878456014606
-0.02734804062687626
-0.2059404067444824
-0.01657215067129154
-0.06822814018226715
-0.06022134041566619
-0.01435713693882296
-0.1920339508517741
-0.02867771173739281
-0.01048977895399483
-0.01384218168998354
-0.1015244611831606
-0.04025542679709417
-0.106724950777247
-0.1274179364344883
-0.0138552905814727
-0.1304073469245124
-0.01728066928844933
-0.05123289017041935
-0.166858207379866
-0.0355524047780718
-0.01492040667624113
-0.4433514989113944
-0.0267438790284258
-0.3044787963131173
-0.02185254492194556
-0.02076792790018041
-0.06640663480587579
-0.0175569698630838
-0.04307424532172173
-0.36057542632956
-0.0358630317301286
0.04127855823372063
-0.0907526696090937
-0.01713240225423177
0.05695866822466749
0.04407490906393189
-0.01683583572690802
-0.05282473796771616
-0.5452957789239389
-0.2246676669130667
-0.05284936248797394
-0.1120242899259576
-0.05740634293288143
-0.1340501792905751
0.03998962237960379
-0.02465912561670591
-0.06128865955370558
-0.1218730133260401
-0.038389957860775
-0.05167810205087237
-0.1174563164157999
-0.1410864302604776
-0.05248723074075959
-0.04790010020304714
-0.05509374101343781
-0.04533942967500536
-0.05773485006740121
-0.07398196715770282
-0.04024020025861151
-0.01087218443522505
-0.04069334907228427
-0.1254832193594075
-0.05083539020330371
0.0827676655904046
-0.04277996993924661
-0.007814396402164287
-0.02770783017650625
0.1803038439038364
-0.03938247650269269
-0.2709569420497998
-0.020509419783579
-0.05430050058624084
-0.03494146864459362
-0.04842063496556915
0.01298250238917658
-0.04948036700154455
-0.03485707053569383
-0.2158147784103087
-0.04215546088427527
-0.004715787537142273
-0.07692436516474141
-0.06827467260148468
-0.1522117856270885
-0.02114513600596236
-0.07605685791189488
-0.04204552311730404
-0.02288838334495916
-0.01616155426025948
-0.006165569611704637
-0.007586994618476756
-0.05279501183317153
-0.0504184696285976
-0.2089483828381418
-0.05743025363270577
-0.008429979336666215
-0.02252073694962537
-0.1462326955501568
-0.002086583994203608
-0.0771417127108128
-0.02303753534675664
-0.0004568561221329822
-0.01005522539555582
-0.03361343560471027
0.09491490926645299
-0.03932168979753969
0.2523977711817899
-0.2595113592142546
-0.1315166108606746
-0.03749762443245287
-0.0909490277612701
-0.009031435580535241
-0.1127348370670359
-0.1773537563262328
-0.2121558557805335
-0.1831858959774666
0.05576810940979766
-0.06250817557921322
-0.02039472606693114
-0.06747271892118441
-0.1751460403853647
-0.02367472240352535
-0.01869857014601584
-0.05272420518115412
-0.01886892655854056
-0.006562508190369122
-0.1094292428424256
-0.02311123426952135
-0.04600957097985525
-0.06953605111413286
-0.1628531208484033
-0.03353023325000824
-0.3917498881344912
-0.01780509691968607
-0.2241535287612265
-0.04493045669283609
0.0311901408916224
-0.1048081226818252
-0.01495527625354865
-0.04218237032847461
-0.1059791131012041
-0.0177779185510025
-0.096929118465142
-0.2032933957246513
-0.07263105304082498
-0.02391895146196289
-0.04913072498758213
-0.04334784275920606
-0.2016098803706301
-0.02208500768389808
-0.01911835064995142
-0.01135159243662865
-0.05552978884541135
-0.0514581042371668
-0.0225760204039848
-0.02072240635845373
-0.2415165612861576
0.1276877308457524
-0.2027100672623892
-0.2012231065694283
-0.01174336560594665
-0.01150603570414181
-0.0673706203149549
-0.009681065793809495
-0.5048739449306071
-0.1269692886598794
-0.01924057287407637
-0.001528225619118224
-0.02411025740596391
-0.2836241525479777
-0.2753054010581582
-0.00741397962981599
-0.01794390597629169
-0.002336720628527645
-0.3459620387698986
-0.02841260619357088
-0.02927719697233016
-0.01260601059285936
-0.01964558640918146
0.05022750678791382
-0.1191315792350689
-0.01385876101330365
-0.02080798619230236
-0.04375302636343122
-0.01828585217930182
-0.01627195618045204
-0.02341609222349546
-0.06710208544509892
-0.01153715821009828
-0.01899529218411425
-0.008779569794783964
-0.001236402427858652
-0.02944622236928096
-0.001813546265464281
-0.002141228348839089
-0.00597807033102515
-0.02555943038443873
-0.008095894730223104
0.001655556615450646
-0.004086958091911444
0.00113549624635883
0.00237182902591498
-0.008636145475096176
-0.1348632817707353
-0.002987419986256142
-0.0004596579142447598
-0.04792526666049603
-0.02140062562007426
-0.02456317462548606
-0.01416650818395972
-0.006128117216788625
-0.02100371317122357
-0.03821625337383156
-0.01463422276495613
-0.01263723847189061
-0.0119371126404913
0.005492720905081533
-0.009932755823245038
-0.01284237220588541
-0.01127568395129627
-0.01048513559209767
-0.01001656907216967
-0.01094200544403108
-0.01387128172775705
-0.3017096804299496
0.06041460904771108
-0.01507780835459397
-0.01631501753365789
-0.01270849433511307
-0.01257681676757602
-0.008445951393988734
-0.0995910806795416
0.009844983731599586
-0.01417904878232817
-0.0144273197715013
-0.01077924766900904
-0.05269469341398218
-0.008453468679930125
-0.01399219239451215
-0.009261371749914494
-0.002115027481307414
-0.01027262589324375
-0.01039550590467353
-0.02471140171219913
-0.01606100328285066
-0.01227364932361657
-0.01333279389846599
-0.00942628764837412
-0.01331472391872932
-0.01106878893284698
-0.05808207717633682
-0.01299378865925953
-0.01198537441182144
-0.008911906707618978
-0.01514166542125522
-0.01418654401746177
-0.01572671665522904
-1.377641111537862
-0.09894761407320984
-0.01222043510178256
0.02227604056621009
-0.1648586282570632
-0.09390762702424861
-0.01157694276604931
-0.01415189288296693
-0.2529893761391196
-0.03018879757867398
-0.01980077856120004
-0.01139530167119023
-0.02003267033326555
-0.01121658339827012
-0.03071483294398568
-0.4137514708387409
-0.01211571288197619
-0.01408730023870899
-0.004739961489781671
-0.01041266213483573
-0.00912505728657239
-0.01421724742506319
-0.009483448267503218
-0.02659815799268732
-0.01142916107475132
-0.1628914711813095
0.01769145254099692
-0.007677680584153747
0.002905077217669447
0.01203915922433081
-0.04786488714254892
0.0291948682193905
-0.01270101131272479
-0.1354756180536377
0.282165578102741
-0.007719749604699869
-0.01320368888186295
-0.008293687393530307
-0.03333215145547461
-0.123424656714677
-0.0134282020084075
-0.01227428530255117
-0.01725423349312807
-0.01365495966297691
-0.04114001873717284
-0.2158021935728507
-0.01064371786933069
-0.04194846516244938
-0.03942369623600301
-0.1708496747404818
-0.1588349103446216
-0.1530936464378057
-0.2550286849589452
-0.005074520853316574
-0.02113578262250878
-0.01503903527098182
-0.01324409472090972
-0.03305409844312806
-0.02440421752824709
-0.01434657783350631
-0.01502799510444148
-1.079724770084089
-0.003564469646999232
-0.01378292665729591
-0.01825898760369382
-0.01760098044474431
0.005223176271710244
-0.01390012653588203
-0.02723324129959617
-0.1652104831353979
-0.01354371216250647
-0.02168729027882868
-0.01431553201837363
0.002290083692499231
-0.1780748486890506
-0.01325594651950681
-0.1500633966594961
-0.01593715115169168
0.009584527960193347
-0.01425484871729225
-0.02348095159143542
-0.01604274495892073
0.006694388381241041
-0.2735532954205777
-0.02592376260446425
-0.01640977203633606
-0.01137876440469671
-0.009949258719429489
-0.0302577694313088
-0.01420354282663976
-0.02064963383247056
-0.02116291257610835
0.009072422844176271
-0.1001937423251692
-0.02189576207625526
0.009343452391094315
-0.05307661732913809
0.164705376620408
-0.1039194059156336
-0.321101383095333
-0.02982287511002035
-0.02548104076195006
0.1493435064116885
0.09450612930914862
-0.00343283663466073
0.0511447834888955
-0.01569218544433168
-0.01400319666395142
0.002362543166533782
0.01089170463313466
-0.0665559888473792
-0.005045529089533444
-0.0571787955557392
-0.02268620858172558
-0.01568997859150397
-0.03651141825592252
-0.03292884627398531
-0.006667717550974152
-0.01470581802212146
-0.03866702313246128
0.03409648532875494
-0.03877666911417522
-0.01357653501917967
-0.1172736477951746
-0.03158988484512824
-0.03898476368442497
-0.676045644011577
0.01564939844081815
-0.01114127180745645
-0.005311912460648646
0.1755414563492158
-0.0925588103414085
-0.03530174072489745
-0.2459953738258049
-0.01609325070736531
-0.0164590988339225
0.06576486539916722
-0.1844136146341929
-0.2256562496960475
-0.1931674359108211
-0.6843771502008493
0.01055668278222765
-0.01950683318017157
-0.01582736832895079
-0.08754024560499005
0.1179014666881819
-0.02155161400068303
-0.2508509345235258
-0.03540320871417689
-0.006562328800098436
0.2766799508956392
-0.01104364594289949
-0.09317493420220935
-0.149935786729959
-0.004607465746534141
-0.04082741327291062
-0.04476971411394586
-0.2010641494639802
-0.008663841826801695
-0.04165829948889929
-0.003261256305834934
-0.5500821898788749
-0.1990026467491768
-0.1762722853927053
-0.02306839765870428
-0.007704595322438744
-0.06056416867335329
-0.05783090672111087
-0.01574251819428569
-0.06813646597387417
0.003854441062855578
-0.01814797342185757
-0.09587941440882372
-0.2702611681548277
-0.00885256177308935
-0.02571349840850152
-0.02188149319735875
-0.07485873613714181
-0.09068307479848815
-0.08833437965612435
-0.01118586433308288
-0.9211058579535026
0.1608339868070001
-0.08205196068228807
-0.2560131738890578
-0.04233557551902619
-0.009747008366839581
-0.2467115630159325
-0.1870158195186459
-0.0327228351960218
-0.1197320666378081
-0.01803988745769753
0.5622384577844608
-0.024291251184203
-0.2217718653716286
-0.02592665703622807
-0.004671449750005343
-0.01156416454959248
-1.254543861065585
-0.1840456878319809
-0.2322885662922104
0.005369557119003074
-0.03792182919930986
-0.2435710488365608
-0.06588014872249108
-0.0512851244803135
-0.1427092194252402
-0.1902364737094844
-0.06842976279578679
-1.226891623513543
-0.1521822792106244
-0.5274669512745218
0.07823503257450132
-0.006905468832961399
-0.02176648599844248
-0.04317659545714764
-0.04012086017302215
-0.02847403116009001
-0.1319004337435849
0.08012097908891934
-0.004282215923823781
-0.009722039654140754
-0.5736668703062427
-0.8600419014955002
-0.1830869075292447
-0.007967503050943139
-0.1292877781750385
0.0007039559034687237
-0.0007275198462749611
-0.002243754851983241
-0.06094109473782284
-0.2377570900268057
-0.01344692684229225
-0.1169139124693082
-0.1545556863251006
-0.01318933399656398
-0.03553266048681779
0.02411013151753548
-0.05773780566963303
-0.07039393618242641
-0.5000418962619295
-0.2459016586381555
-0.08099546371918129
-0.07332043077442721
-0.01976531198898528
-0.115544813293327
-0.1598894448573824
-0.07919202265146517
0.02628850225612679
-0.08522187032064749
-0.04871082671910616
-0.01495433914500639
-0.1130752817707095
-0.2752947697278537
-0.05752522845906596
-0.01842533595791306
0.001612361953153923
-0.01020631429250931
-0.01095981555418375
-0.2265076272261412
-0.01439005574268298
-0.2212690153229145
-0.01075588254122435
-0.06624387025063608
-0.003490531264530593
-0.02320425260336198
-0.3826495557509558
-0.9137938518272901
-0.0112802058304327
-1.049072098628993
-0.6101590838050419
-0.01079981744944743
-0.6536249369407708
-0.1793866558245425
-0.005114286328040622
-0.1276442509262234
-0.01719454418837523
-0.1225481690286335
-0.06686886113480818
-0.07542730073916765
-0.005572998810083908
-0.003239492472727153
-1.335500721883815
-0.01113364898066203
-0.1905105007471534
0.00065705933904421
-1.014302783716809
-1.235098613016617
-0.08092729788578543
0.01923698322851681
0.1643666422115913
-0.004939734042066542
-0.02298836764688563
-0.004325860103479458
-0.2469037979125789
0.3659925463080729
-0.04129033288761533
-0.211333251963435
-0.01510336470416125
-0.6584650097121636
-0.07448235101302696
0.1910196880187228
-0.2922546108075869
-0.05011824585224119
-0.06923450024840981
-0.0157971623301745
-0.02161886796066454
-0.5809954975532621
-0.1481119518250875
-0.09029038055160363
-0.1230828475897767
-0.5563929467802941
-0.04457000955311784
-0.9094985787040335
-0.001127255319131451
-0.2395146149526782
-1.046147725401037
0.1700866112424911
0.2923098071429624
-0.1751988205453568
-0.1929319608568457
-0.2077683906483062
-0.06777600806925013
0.02402481506276355
0.05029739260470161
0.004534616755492974
-0.1584275338925082
0.02484352737103242
-1.355445665199831
-0.08573073866449014
-0.4739167314741431
-0.3300126558745484
-0.2103825539622029
-0.1768985549437439
-0.01694961460618832
-0.01540719432104699
-0.09910087903579158
0.1704763644924945
0.3856179252687023
-0.2204310654607796
-0.1492621735631328
-0.2370609478191369
-0.06277955464717905
-0.1571622680607623
-0.166755591458693
-0.1260732999501778
-0.1147837457935158
0.4672520923366735
-0.2741938891021344
0.4300396550651828
-0.5971337416950726
0.07092493512098226
-0.1982614546240389
-0.06660531659994257
-0.0747374892149705
-0.8813904705192354
-0.2228572021952972
-0.1899708076510006
-0.3489644727862221
-0.4597212055606582
0.5703822118429046
-0.2061142503447141
0.000673849665075376
-0.07016558873363819
0.3430737936558574
-0.0370211340165106
-0.122268255113415
-0.1791471843754633
-0.06449833442174434
-0.01643507321721823
-0.1943296351466185
0.1921262256795352
-0.01264181218319999
-0.09692361165641114
-0.1705010938356485
-0.3130495209701398
-0.3124598025660816
-0.07382100102087787
-0.01001673879496373
-0.07525712205304748
-0.6567532711290182
-0.6676389050027538
-0.3332498880466421
-0.0581119586298058
-0.05148807233047802
-0.02518186901770018
-0.06826130283054499
-0.05725600223218182
-0.3616064149199615
-0.9554262703704821
-0.009503577804174093
-0.08356929881749292
-1.136624636474286
-1.032474513440869
-0.1042454249354303
-0.03918409849381441
-0.06960723113925377
0.391036668730289
-0.3439933163777902
-0.0522698712757463
-0.5986847091653534
-0.1305117812411501
-0.2524323353229249
-0.2101659670268796
0.474266487933199
-0.6289245654711552
0.07282021018433149
-0.02929148372727806
-0.5605228278506436
-0.05215577820469067
-0.3604713139231253
0.1067006346215291
-0.1908919903247278
-0.06026184632363318
-0.131083846182671
-0.362924438533653
-0.08879130988024218
0.5137301402672032
0.08555136582507171
0.4712359835476446
-0.1207568948771316
-0.2014916873073132
-0.5181237429581597
-0.1305701687140752
0.02632597361313496
-0.05404965106790333
0.102755874201718
-0.3092249236201322
0.2362114774727072
0.008318891869585541
-0.003298141163964206
-0.5134540814986546
-0.1850502223684726
-0.0958616034975084
0.5811510785981499
0.1385570102837251
0.3468582343971535
0.2255921479539522
-0.5606604752014445
-0.215224113637749
-0.2184136118551269
-0.2370308920310908
-0.06080622585182959
-0.6944149530756417
-0.1944368703461375
0.3062269574668154
-0.2104341782495537
-0.01107219823886777
-0.169638004113932
-0.01001654519524888
-0.1631218025982598
-0.4381429048977344
-0.07714971301833429
-0.1994105686479698
-0.07362233129093768
-0.1022220371096968
-0.1387534651164573
-0.07358702570274851
-0.4497605487075899
-0.4155653048609328
-0.02654361478491017
-0.07505310410021995
0.326059319849321
-0.248074825873251
-0.1793294067510458
0.5258619908948085
-0.2015924655804898
0.01791213711711476
-0.4500162692359991
0.04535937330884321
-0.06162296339017002
-0.1576229623504607
-0.5842106605241932
0.1622451914720869
-0.5810306591075233
-0.5346045704311008
-0.1059058238138118
-0.5069555491529254
-0.03707049560968789
-0.1486457833252166
-0.4093079883109479
-0.01629790494537105
0.2862930580265376
0.4893978872326879
-0.1616712255223131
-0.007786788588556528
-0.07203170198324356
0.5252989511844453
-0.03311608038991724
-0.4399830185374521
-0.03247313272288651
0.4601496108262607
-0.01537677091479126
-0.5440962819771139
-0.2406332598985251
0.1757896978278905
-0.3109638006364394
-0.179031893349545
0.05183217913817654
0.03310314175537681
0.05458879443647657
-0.2999845843242855
-0.1570168288388018
0.4127359814774413
)
;

boundaryField
{
    FrontBack
    {
        type            empty;
    }
    Top
    {
        type            zeroGradient;
    }
    In
    {
        type            zeroGradient;
    }
    Bottom
    {
        type            zeroGradient;
    }
    Out
    {
        type            fixedValue;
        value           uniform 0;
    }
    circle
    {
        type            zeroGradient;
    }
}


// ************************************************************************* //
