/*--------------------------------*- C++ -*----------------------------------*\
| =========                 |                                                 |
| \\      /  F ield         | OpenFOAM: The Open Source CFD Toolbox           |
|  \\    /   O peration     | Version:  2412                                  |
|   \\  /    A nd           | Website:  www.openfoam.com                      |
|    \\/     M anipulation  |                                                 |
\*---------------------------------------------------------------------------*/
FoamFile
{
    version     2.0;
    format      ascii;
    arch        "LSB;label=32;scalar=64";
    class       volScalarField;
    location    "868.5";
    object      yPlus;
}
// * * * * * * * * * * * * * * * * * * * * * * * * * * * * * * * * * * * * * //

dimensions      [0 0 0 0 0 0 0];

internalField   uniform 0;

boundaryField
{
    FrontBack
    {
        type            empty;
    }
    Top
    {
        type            calculated;
        value           nonuniform List<scalar> 
15
(
142.2883428640031
133.5746483479986
138.0620231056009
144.3955979890077
159.761807193608
131.3666464377623
140.1258030412783
135.3464521797711
153.4546115293503
135.724059970481
136.0836955011764
136.7755744804303
125.2619705831875
132.9121220002699
123.9570021586851
)
;
    }
    In
    {
        type            calculated;
        value           uniform 0;
    }
    Bottom
    {
        type            calculated;
        value           nonuniform List<scalar> 
15
(
155.568008020781
158.118167497765
141.0956916692116
142.0514116360576
141.1821436096452
148.4365551697329
142.7080231046733
143.1498755731839
143.4212406130738
134.0647215038904
125.7301558576725
141.5603232804666
122.4058163477367
123.4854054596923
124.1342347299734
)
;
    }
    Out
    {
        type            calculated;
        value           uniform 0;
    }
    circle
    {
        type            calculated;
        value           nonuniform List<scalar> 
32
(
55.99153180945316
21.88974754818711
65.21466684659966
25.94367003308995
20.27497964798512
56.24280321892561
56.59124784593785
23.75724760956707
22.15178949037132
65.45698330622001
39.76869541602191
62.90086609205311
50.660874741097
17.69430284146114
22.68890704011723
18.19305545353861
39.36543616125068
59.83541519987645
61.07484655200287
25.38317125957078
65.80483258398779
63.74887360030392
63.10944192526743
59.85419660922067
64.17121838164138
46.02761788459124
66.47131479488662
32.15753589640915
37.90169207728445
55.67819457110771
21.24220126865796
43.07885995977784
)
;
    }
}


// ************************************************************************* //
