/*--------------------------------*- C++ -*----------------------------------*\
| =========                 |                                                 |
| \\      /  F ield         | OpenFOAM: The Open Source CFD Toolbox           |
|  \\    /   O peration     | Version:  2412                                  |
|   \\  /    A nd           | Website:  www.openfoam.com                      |
|    \\/     M anipulation  |                                                 |
\*---------------------------------------------------------------------------*/
FoamFile
{
    version     2.0;
    format      ascii;
    arch        "LSB;label=32;scalar=64";
    class       surfaceScalarField;
    location    "336.5";
    object      phi;
}
// * * * * * * * * * * * * * * * * * * * * * * * * * * * * * * * * * * * * * //

dimensions      [0 3 -1 0 0 0 0];

oriented        oriented;

internalField   nonuniform List<scalar> 
1171
(
-0.9279291585040262
0.9279291586405319
0.7874398929405984
-1.09919452311395
0.3117546301156967
-0.1905902298304348
-0.7648795461283967
0.9554697755733238
0.07207083843192692
-0.1168600992374665
-0.2123017403269681
0.3291618395127068
-0.7874399044608696
0.06948187276473461
0.7179580316710499
0.8117080543313283
-0.1779173220925223
-0.6337907323257768
0.8742915097790062
-1.044170967462679
0.1698794575785129
-0.2854303372990929
-0.09740788900398799
0.3828382254229086
-0.03616537082609985
0.548938570166138
-0.5127731991432697
-0.5036288719251002
0.8245532824122157
-0.3209244099442904
-0.4022904355042976
1.046011316589356
-0.171719819018476
0.3927743382301713
0.0486072019645529
-0.4413815394786403
1.046002374723181
8.938162180932991e-06
0.443288794703538
-0.05051446792912955
1.056651973886686
-0.01064960804571816
0.5790165912721656
-0.7696068168040366
-0.7243093552304702
0.5567726369630717
0.1675367183763023
0.2178653215286701
-0.721494195639965
0.5504706939465589
-0.9228227002244319
0.3723520079448886
-1.094182606141588
0.6864977878472246
0.4076848179302701
-0.5955549420311602
0.5593895758230699
0.01789059712202369
-0.2566150696906451
0.2387244758506322
-0.02330271839784684
-0.5216465738790602
0.5449492897708936
0.4004310193352802
-0.4978389142375525
-0.9189096092413346
0.9415272464292014
-0.02261763711220836
1.067536871331198
-0.01088490155213546
0.9348828581876996
-1.116678395677748
0.1817955375552324
1.067007192031275
0.0005296737707733956
-0.6644635531810968
-0.05984580140587643
1.262346239100522
-0.8642352215341358
-0.3981110176176336
0.1480975807290303
-0.1094618920013085
-0.3263182204465068
0.4357801118225402
-0.285623071644773
0.1913365204797926
0.09428654980030854
-0.5836387837898929
-0.5155557321986941
1.014019283643981
-0.07913642384663576
0.00992002598065342
0.8254700667265423
-0.8353900926988354
0.5718421112723502
0.6905041281830877
0.4394766786546827
-0.03038140793505956
0.4308124251315211
-0.807904867030757
-0.1025072464677486
0.9104121135929768
0.5021630456924401
0.2537546506909214
-0.755917696234035
0.006736365328410419
0.5271080196731015
-0.5338443851827395
-0.4899206644030814
-0.6042619478441005
-0.4227825925306137
-0.6938958020320314
-0.02703209416122381
0.2702253766053983
-0.2431932839909986
-0.9246949974160023
-0.005064765699398148
0.9297597630993755
0.3087304636332144
0.07410775380513882
0.7619161579227384
0.04979189599448598
-0.5331253721587768
-0.06242956915131398
0.04609034189179533
-0.8539952105850664
0.07491597775763838
0.8634481596276576
-0.938364137310516
-0.3469264868625071
-0.04142455216730076
0.3883510397244074
-0.682067680646652
-0.242627317889125
-0.6333713550710837
0.7082873345991131
0.6128486879546591
0.2117045933885599
-0.5431546029224218
0.9457162401821321
-0.7791026288875699
-0.1666136112147425
0.01543751391174566
-0.01515558275320792
-0.0002819248362198438
-0.4033113119010482
-0.09452760161152723
-0.2407994912172559
0.8536481769319713
0.04695073004638699
0.3354593255916526
-0.382410056325695
-0.460623749312272
0.9627867951317344
0.6803549016799183
-0.78286215024675
0.3206156185402627
-0.01749889299349619
-0.3031167221452958
0.9307327692775494
-0.9307327692943825
-0.7815481632385597
0.1105320783493391
-0.3228338145587977
-0.7499628422590003
0.7598828686441778
-0.0899695368069401
-0.1434024501379171
0.2333719864189414
0.8649801626260214
-0.03951009818906886
1.054229592901199
-0.8004749444314601
0.186322272446805
-0.3157881908384271
0.1294659181606469
0.8590360963009994
-0.09711994311269881
-0.6116427320850462
-0.03898530392301032
0.650628036020146
0.1236137753319355
-0.2308956471337974
0.1072818744336592
0.8056724706505315
-0.9835897970223769
-0.4350896483098536
0.3295186847534698
0.1055709638606637
0.532002524030734
-0.5553052394210094
1.021935754886117
-0.4561878102029642
-0.5657479445967437
0.5991531646621404
-0.7193882998886604
0.06680932407404705
0.6525789748044061
0.1031184015668983
0.5698795734133254
0.05535424961892026
-0.6252338228283084
0.1941661761338236
-0.08363410741326172
-0.4928154739026797
0.1458889825758662
0.05025295960761701
-0.8866032297448473
0.8363502701867452
-0.4730393692630909
-0.7133711824380571
0.04890762979491522
0.4372623496527474
-0.006449917215101999
0.2998633357518944
-0.8552357757622813
0.5553724407020422
0.4157340266790464
0.5842659733184493
0.560454606626956
-0.5143642664721615
-0.3675663426580122
0.03670718833193898
0.3308591513015752
0.6813406180934061
0.2493921520280049
-0.5657260496857834
0.5724624082926432
0.1109441279247944
0.8751543528500337
0.01015751593119926
-0.6218002595217919
-0.7491775147638474
0.7994304735675684
0.5308942568621292
0.06989733563200097
0.302257171136269
-0.3721545066629533
-0.1674974289779588
0.4428729982744748
0.08423502762527751
0.8761508045305803
-0.8024642214916053
-0.07368658278208158
0.6352873136745786
0.310428918605786
-0.4303434066244651
0.5741623211921534
-0.5042649828618824
0.4171990579731356
0.1332716487242513
-0.04678036440821859
-0.5940348630932377
-0.1375486790401142
0.731583542021226
-0.1497840634982862
-0.7809487035277302
-0.6109801208811056
0.3606123941997604
0.2503677245323476
0.6220268974732523
-0.6118693799867498
0.2391923066956301
1.011246032454544
0.0429835618848269
-0.7491775203776851
0.2343181142750158
-0.218880604640857
0.6803549002591571
0.8018079837704647
-0.8018079837731094
0.8376956028335972
-0.8332060106257256
-0.004489592026804635
-0.445378480429144
0.8611125093222677
-0.1473647175300839
-0.3454507593388513
0.7347118508212184
-0.6684852300407639
-0.06622662094774895
-0.7336457936903495
0.1396109351030235
0.1388088218829418
-0.6719341936779875
0.7828621442606573
-0.9503595733798679
-0.3681865350873633
0.2916385399748323
0.07654799722876884
0.1459056640908417
-1.00987879976653
0.8639731357393551
0.4813233396464925
-0.04184666114333587
-0.3081491771685581
0.5864428771826922
-0.2782936998180711
-0.7385010642576006
0.8844067229240425
-0.1570757408081168
0.7318151748011967
-0.8439301412959759
0.1121149671176588
0.976129210942726
-0.5403134640234857
-0.4358157469071807
0.7550276101757359
-0.06502762424608872
-0.031833648968169
0.185715337196571
-0.1538816902647878
-0.7758007520559936
-0.8433930963001401
0.07851355157052045
-0.7499628442284748
0.5136766625502865
-0.5551012215207476
0.09644639079480229
0.7194570211170834
-0.8159034116617861
0.7536671126178965
0.1742620447672193
0.5029070566314008
0.4970929433244227
-0.05002512765547468
-0.6113082885315136
0.6613334158920755
0.8844684042702752
-0.008317602946188841
-0.7550276101546457
0.7994304705262099
0.1912485467470372
-0.4478636240356379
0.01746288914042156
0.003280846618947795
-0.02074372816945665
0.588521840975248
-0.437938207487396
-0.1505836330204252
0.7179580388073094
0.0111048992879887
-0.1115779124714574
0.43730134899322
0.1512204867144993
-0.016118126105155
-0.005681825776030642
0.02179995118450894
-0.03135620450641879
-0.0004774444155365121
0.2443021321810785
-0.2618010145374441
-0.9588837308785503
0.001367228252150064
-0.1594532603773209
-0.123884403280983
0.0943696679168414
0.7219873029578171
0.7290302004470518
-0.1447642289960718
0.6710544407713706
-0.5746080482688707
-0.2117283299230353
0.3980506047043534
0.6955175056019601
0.02244053319615958
0.2417345733371976
-1.074940584560832
-0.9503595750688754
0.302280549355973
0.7598828661594422
-0.2088780641099972
0.06547561900523334
-0.7233545267877504
0.9110131129156065
-0.1876585859514094
0.415631718309284
-0.02728068168301502
0.7713226431733932
0.280611684696056
0.3736879826408347
0.06960082105057332
-0.6586950684138972
0.6586950683578341
0.2146003111894506
0.695811799897139
-0.0557596051207717
0.3912189305471673
0.3800205007839735
-0.01588976482632188
0.03335262565953682
0.4489107439780968
0.03241259214420066
-0.7385010676478181
0.5340661795405859
0.2006456684118172
0.3035269360621367
-0.1178115734807135
-0.6955175072496562
0.1801978523903564
0.7308152580478365
-0.01013588942425476
-0.8137154854910621
0.8238513748342409
0.696326982420675
-0.7920728690100419
0.09574588656945529
-0.7536671124359063
-0.1496106402638327
0.2110376367269873
-0.06142699857274549
0.0771772998978769
-0.1796050269326349
-0.1117242661292904
0.2913292934155196
-0.01003130295435438
-0.006086813694112714
0.7063033531728087
-0.7164392375348161
0.8856465652209082
0.06982321542679602
-0.3098236482956405
-0.5223057041749253
0.8321293517811876
0.1025890527252373
-0.1025890498069616
0.3283457425596746
0.4793804461077015
0.6078597195344245
-1.087240165213342
-0.194134924183092
-0.5855650316187998
0.7796999558118105
0.01208851938576821
0.2212834816053143
0.3768814879349773
-0.2532677273225474
1.014089108997003
-0.5347086612013002
0.6659895862487427
0.9926769462785247
-0.3848172273406862
0.229516766779633
0.8844067230980525
0.7126868985935715
0.2137518760206507
0.7277753696548288
-0.7809487034494659
0.3413049380133516
-0.2825631650667821
0.2546132513823435
0.0279499173030859
0.8520279988429587
-0.01316290945174511
-0.8388650890496595
-0.7020372845326155
0.7025669578871063
0.5546215201849105
-0.7020372865482051
-0.7126868985632007
0.7025669530963153
-0.03372352694469967
0.9046096028632237
-0.01896303673637854
-0.6813406247846772
0.612270977837039
0.06906964696645146
0.5388230233284849
0.5383770162470475
-1.077200039615405
0.4899923222398535
0.5240967872253477
0.546792114282417
0.458915912011021
-1.00570802615396
0.4965751707051057
0.4961017766908031
0.6122709827467534
-0.5256894649415487
-0.4662425862958259
-0.5557313010404347
-0.5167660620608238
-0.1244731171089101
-0.01264075406210841
0.01264075187693887
0.5098866273071216
0.5239708979415583
-1.040736959678757
0.5739491249442521
-0.2716919535385803
-0.8836220258445011
0.3433085638701336
-0.6326820784758596
0.3900547587216195
3.312188998023681e-05
-0.8292699564288386
0.8292368346386016
0.4208810256104172
-0.02247481782990062
0.8745028207524856
-0.9431950031289735
-0.8351729494107656
0.05748063055232928
0.7776923188534932
0.5503721150702459
-0.4362086586323378
-0.1141634568811679
0.6500136951571562
-0.7291501190367281
0.8837943075264602
-0.8290193293913223
-0.05477497847089483
-0.01219590573814723
-0.7902683174058363
-0.110787612861854
0.715929682082178
-0.6051420692341021
-0.9399344005129667
0.9277384931799081
-0.7367558742909166
0.6891170164683622
0.04763885783820206
-0.8012636149712872
0.02934483454991372
0.7719187802198585
0.0617259635550852
0.04086307532976972
0.4331349793567114
0.05940070621302532
-0.8496672662612156
0.7902665603906844
-0.6439647049499275
0.5939395883786948
0.8904493234044674
0.07210174935786709
-0.962551072387053
0.05527637455452814
-0.04943377970246565
0.3802929482376787
-0.381453470219239
0.06566528421007635
0.8410542504662791
-0.8410211386957172
-0.7314404035457877
-0.808695729050414
0.01842741129266045
-0.1684352946787334
-0.8485083516471166
0.01948901841717331
0.6246408968702427
0.0464135406798924
0.01768000726008955
0.5326921133489406
-0.8129672999530113
0.8423121339085801
0.5657479428466436
-0.8517447870513596
-0.8678326509374259
0.03677695237099642
-0.03619017853197185
0.8350039277403108
-0.7988137492317565
-0.01927153332387906
-0.7676305802666541
0.5443102701256742
0.1520167163619138
-0.02203662638938052
0.8965394411000548
0.9852191246295975
0.8605521812213948
-0.8410631683719406
0.1474451223981804
-0.1474451177105376
-0.1180038906070438
-0.4695422649179425
0.03333360898274739
0.2714659347162568
0.03081461405102893
0.3847928766172137
0.8772679075203637
0.004830029089681145
-0.01486134385890146
0.6586101171333065
0.3413898828127095
0.7835187374918702
-0.583638783352691
-0.7780344078354494
-0.8119766577783375
-0.6799493181067847
0.6799493181333414
-0.1680237005865353
-0.1548101107997211
0.6016168866244439
-0.8114735466343271
0.2098566599902816
-0.4938806192583251
-0.5688871634003129
0.2781280657159638
-0.9720238669845465
-0.8993883798228888
0.8446133955361932
-0.8201916553266358
0.8386190654734749
0.6485117168829472
0.1345495860789395
-0.7830613029541243
-0.7643377930311743
-0.1461733781261701
0.7252088694165351
-0.5790354913648379
0.02212047540552117
-0.0138472573440145
0.01683603016784249
-0.002988775347046189
-0.3533959392289614
-0.1161463272883601
0.8797449567276827
0.7373827963702283
-0.2384898634035218
-0.4988929328474976
0.6232193272530029
0.6855127178678414
-0.4709124059786127
-0.0005222980694151794
-0.2851007738025991
0.0176549245984024
0.7452281987128981
-0.7628831234877798
-0.3235121464801834
-0.07150229827646246
0.07573845108203717
-0.9649467398883121
0.1260816518895666
-0.6769239557420889
0.05375816884013113
0.6406269197633383
-0.69438508874178
-0.7567954573088748
0.07987150163298257
0.589384181254161
-0.6608864796885699
0.1560279724084141
-0.3356330051630136
-0.7723517429886763
0.008013949891015049
0.3711918431871329
0.6005910386955503
-0.02642872186015516
0.02310542555316134
-0.02310542106050065
-0.01832260176633281
-0.05303215527377399
-0.2295310054718225
0.0196238139040801
-0.01479379511753801
-0.7259381953452789
0.2794151329793627
0.6784297736883085
-0.6904188040768188
0.01198903001753648
-0.5977435249708897
0.6515016869620847
0.6541336584823252
-0.06474947776858972
-0.6313478259386428
-0.1254476315312224
-1.049611919255834
0.01124556823448781
0.1361995537347278
-0.7082832702281358
-0.7421354378992266
-0.7638203579924234
0.3657093404817989
-0.4086906843163833
0.4695864004999387
-0.06089571628606734
-0.6768308834516862
-0.03145238704837581
0.4996511795737887
0.7306809531010452
-0.2340624315792746
0.110178024065868
0.9569327894691074
0.4459221556334172
0.1328690591482095
-0.5787912147142483
-0.6779405820668302
0.001109694594750231
-0.04452610069981344
0.03067884598686871
0.6376870173400147
-0.7752356934193222
-0.0029058714530929
0.002905873138555283
-0.5999559623735737
0.64927383805894
-0.0493178759736309
-0.6602605768867708
-0.1138066618049366
-0.6718351575306232
0.05117979043031079
0.6101536272658835
-0.1375221078093438
-0.8180085385828664
-0.5608616592859854
0.5713222016327094
-0.01046054562447951
0.6326510792408983
-0.620662057936611
0.3222531625210439
0.2137961535097368
-0.5360493159815949
-0.1044484165603793
-0.6029669622017587
-0.09141813285283522
-0.1540338032477843
-0.5096818612524352
0.404345782604388
-0.4988733908996532
0.1259618505250035
0.6786826352277245
-0.8046444856408586
0.599153164677251
-0.3751500153725407
-0.03354067071008598
0.05930887922540434
-0.5689907392472162
0.5515769035149106
-0.04029715858547567
-0.5112797443449735
-0.3125034921905266
0.3051348327353512
0.007368656069090854
0.4508903491569305
0.1230587755908993
0.05116669254345865
-0.3160099792208003
0.156974158568994
0.1590358200409851
0.2544208343666847
-0.02010272448405244
-0.2974206905703492
-0.3137297079503259
0.3638565122000781
-0.05012681382983473
0.7920712403349602
-0.6295531525990706
-0.03070742440517849
0.4995437763327083
0.284308049705485
-0.5227979132560207
0.5774446595113895
-0.5774446595132092
-0.2897905412053928
-0.5865206356174176
-0.2955145890038944
-0.5865206349622616
-0.5968417320015197
-0.8384828228909216
0.1699975909959305
-0.596219547256988
0.8212342664442503
-0.00352431276550231
0.1194030875257002
0.481187948445264
0.0967161167505836
0.1853906838771207
-0.03612767078150069
-0.149263014266451
-0.02489733545485025
0.5914565654787303
-0.9432302140392664
0.4209245104537295
-0.002191994101533749
-0.0001545111655007835
0.002346505616311413
-0.6437849734610346
-0.1320650617393758
-0.465500822644529
0.5983698812774112
-0.5036461674523571
-0.3142411352729097
-0.2547496013875696
-0.2723021180132131
-0.1117896843581918
0.1117896819558137
0.1534214291698996
0.05761618648349279
0.1966362413145718
0.4494836862730158
-0.5702934407832084
0.1047926204373282
0.2524212767881813
0.4661971691645574
0.533802829440745
0.6451062786014592
0.08033787532358741
0.003387982046947372
-0.08372585425282182
-0.2769721842404849
-0.5410363544505808
-0.5450178084904791
0.114408685162314
-0.1263184796184879
0.01190979329927108
-0.1059297050845727
-0.3857479178197231
-0.04736275353634758
0.6575163720591477
-0.4993086110385794
-0.1444763624356181
-0.3293967183596093
0.2876371765096166
0.1264414760910426
-0.6060604395212559
-0.2041513710220825
-0.262281398442292
0.0004803774703300828
-0.4210760600554552
0.3218188971550866
0.09925716272234875
-0.08884311883497259
0.2916645157639134
-0.8959264630944805
-0.4576971113936029
0.6326190327721248
-0.7730523115728012
0.6686038949003343
0.3417851462686556
-0.126247992965806
0.2252739795754458
-0.0990259850581176
0.03083962411226948
-0.5861762352389064
0.02900480821284955
0.5571714275420481
-0.9006785415879719
0.547204996978589
-0.6652088873708388
-0.09861682153023306
0.1089953552784183
-0.1089953497624935
-0.3165322870692197
0.3614385710462435
0.01885437396498748
0.02095042970776571
0.05938743397567156
0.5044655344106644
0.666315656423159
-0.7400022409668904
0.02423128796422255
0.02093653015856956
0.002168891446549081
-0.006296520523776428
0.006296518181951653
-0.4109146247253013
0.533973400402076
0.01544316609262844
-0.01544316631165103
-0.792527915416786
-0.05985425718419211
0.1215802238780992
-0.4505189504256113
0.5553115718025941
0.4493377371743184
-0.4986556074185559
0.1499056599866424
-0.1499056558458081
0.04448996555449628
-0.01113734633159964
-0.04099794558488215
-0.9769015237278701
0.5410857794235107
-0.4718103421051549
0.04086307670791259
0.5148688577229419
0.03062122411608506
-0.5454900814323435
-0.6160924033076544
0.1167837910478525
-0.3295781489579165
0.01356300910730373
0.3160151423972202
-0.1539018300952553
-0.08016060921157044
-0.5408389693906199
-0.04533726385020558
0.1361995578237747
-0.04153843122233181
0.03863256545797217
0.08185771746338832
-0.08185772264758805
-0.5329381348368487
0.48281133329188
-0.4145897192561137
0.161311550276381
0.6222071871320077
-0.09760326067584431
-0.006269431307765529
0.006269430321669314
0.5330064800709076
-0.07336832639167797
0.006406293572593523
0.02720419906857815
0.03456654416314758
0.6894619293095954
-0.7628302556772867
-0.6634586548062227
0.6327512328139501
-0.1103717712128321
0.3133000631340678
0.7457805039099554
-0.01832260480441816
-0.2659685307352326
0.1481569505511133
-0.7446458293229411
0.484014415968663
-0.423184912586455
-0.1012235425858999
0.003471294206170485
-0.01471188760542774
0.0230117988675472
0.4124330889862362
-0.1216701242896733
-0.3896096193118548
0.6290938000664719
0.01893728610665036
0.009370039941373349
-0.009370038751447516
-0.3562956537743707
-0.08345445061338784
-0.5605186398915413
0.5569943273682553
-0.237972266240254
0.4647727524687942
-0.1505948386393952
0.7296114317618295
0.6713280657388666
-0.04153843745795737
-0.6158047709658682
0.5597501527591098
0.2835537291822021
-0.2805180579022624
-0.003035670932522706
0.5439081129154294
0.09342868242201975
-0.03872997903780954
0.1969564671148485
-0.1582264888508519
0.1205876917957196
-0.1205876975844031
-0.8586777038116781
0.002460549403733862
-0.113002137683834
0.1402063392908382
-0.1318212685493676
0.1318212652836862
0.02093653579067202
-0.0245920365530557
0.671141701811562
0.05967355243275704
-0.3230005023279661
-0.0627474153512517
-0.4712885254680481
-0.04584299857520691
-0.151633394766307
0.1516333904035658
-0.03923588770670759
0.143368568380509
-0.1433685644107279
0.136791889525656
-0.1367918944703838
-0.3158630732474119
-0.1144803334187556
0.2264035832704459
0.1031150925285332
0.03482632412999257
-0.8212040534585451
-0.1973763554347537
0.1701797329800484
0.02106880988203572
-0.2650480901493852
0.1259143909766946
-0.1259143874821985
-0.4141813603433714
-0.08469202986210649
0.2362651327049129
0.002459330661234113
0.04031928519326737
-0.5441026947585071
0.5778262215974479
-0.02529344477944246
-0.01394244214544528
-0.02620543613054266
0.01506808677199357
0.006537105257712919
-0.1843739701402783
0.1778368652092417
-0.1075817570931888
-0.2280512511753565
-0.144691644248566
0.144691640193766
0.0727104812652274
-0.07271048340667131
-0.01924991529617669
-0.1086601571437458
0.1279100744836935
0.2371226867223628
-0.1830375700089436
-0.02124251135373031
0.02341140677390703
-0.1322279198735744
0.6150392568318441
-0.03907920181921899
0.4230836471664756
-0.04100702559812612
0.06280696359019559
-0.1534675348446697
0.1534675299329908
-0.6362040756551046
0.308654490212539
-0.07913772040058537
-0.2345427352310547
0.003647075188002259
-0.1226120771086388
0.1629313605963786
0.1939674156122918
0.09736186997296147
0.09471976387114654
-0.06015322036847325
0.07281698684612412
0.04159171046763635
0.0639789058774467
0.1062008272659287
-0.09811879467492077
0.2082968214611404
0.01227589251030914
-0.1129125922749449
-0.1025379487640894
0.09721437728420314
0.005323575385038798
0.01156649791151249
-0.02206972301401845
0.03760937957075161
-0.03760937993995374
0.07434439227960464
-0.05501483691675312
0.05501483610179507
-0.2244793177203908
-0.05010561803135899
0.01168134707433176
-0.1031745594101709
0.0162041982149378
0.108516351573374
-0.1085163493721003
0.293224581937431
-0.2712096275199002
0.1636278741438205
-0.05037095414951894
-0.2208386757067612
-0.0172218721858116
0.01722187342467435
0.3673501502017016
0.2852288127105125
-0.5275914010246567
-0.09395946476902131
-0.0323590095936104
0.5286616960865073
0.2109172574063954
-0.1686066712910588
-0.3820637305082354
0.07658843706903212
-0.1475864428103
0.1871998155077757
-0.03961337393039449
-0.0669246271489399
0.06692462876962757
0.822368940994625
-0.5604656234694497
-0.002190235034482998
0.01375673457186349
-0.02003157789393972
-0.2868751704270022
-0.01745417148575909
-0.01287037757856507
-0.131900739529287
-0.5721359493121266
0.5559805574240846
-0.5686235224522418
-0.006941746984482015
0.09971427030940914
-0.001834140524641594
0.01667563830028287
-0.1676180105722655
-0.3365029998835893
0.2333284410563732
-0.05435101589225069
0.03510110122602099
0.1320178502895882
0.1731169792033571
0.338949876234677
0.276482492678136
-0.2783166313374766
-0.06390537302390553
-0.1548573100423208
-0.2209797238047115
0.07473853799415481
-0.01075963414522421
0.2140203948005319
-0.1973447552940915
-0.086229899215436
0.1590468843138885
-0.3548273699203143
0.2085974446278933
-0.1923932467198898
0.08967206546666109
-0.4792816813283005
0.1743294485505223
0.1701829718106407
-0.2564128660218213
0.07265004787514955
-0.1944594930447267
0.1770053205809973
0.01739806127510458
0.1416488179440553
-0.03957166148877832
0.06616456696985631
0.4668419120520417
0.02038751472074904
-0.07832560532962135
0.05666730182454978
0.1254944439226535
-0.2605931001211009
-0.2309320438421739
0.5597015314607281
0.1574779988750224
0.07878713392000289
0.07551161499945397
-0.03103440017799561
-0.0009711010613866365
-0.002064565929540162
-0.03266503399907073
0.1710347717386999
-0.1779765174838421
-0.05531380026676599
0.021221163821858
-0.1468024611865146
-0.05281067720850271
0.152982996074861
0.277078749392928
-0.04027858467601206
0.01409696302518975
-0.2553319362873923
-0.1302662330437897
0.2358482500222043
0.1790930438863994
0.1295614357351936
0.0216271470241751
0.08883087573672492
0.05203490101003108
0.452430633425672
0.01759948095626043
0.09737705615928145
0.04342466878869182
0.07193068050264728
-0.115355352925729
-0.2423625917452247
-0.2007201847329017
-0.0201184872727817
-0.2022029356000438
0.275450417752469
)
;

boundaryField
{
    FrontBack
    {
        type            empty;
    }
    Top
    {
        type            calculated;
        value           uniform 0;
    }
    In
    {
        type            calculated;
        value           uniform -1;
    }
    Bottom
    {
        type            calculated;
        value           uniform 0;
    }
    Out
    {
        type            calculated;
        value           nonuniform List<scalar> 10(1.036784438377867 1.064512490252239 1.02197388735327 1.020671958716979 0.9972929319515753 1.012867838701439 1.033857527031302 1.062767782748596 0.8672352038337877 0.8820352245444594);
    }
    circle
    {
        type            calculated;
        value           uniform 0;
    }
}


// ************************************************************************* //
