/*--------------------------------*- C++ -*----------------------------------*\
| =========                 |                                                 |
| \\      /  F ield         | OpenFOAM: The Open Source CFD Toolbox           |
|  \\    /   O peration     | Version:  2412                                  |
|   \\  /    A nd           | Website:  www.openfoam.com                      |
|    \\/     M anipulation  |                                                 |
\*---------------------------------------------------------------------------*/
FoamFile
{
    version     2.0;
    format      ascii;
    arch        "LSB;label=32;scalar=64";
    class       volVectorField;
    location    "44.6";
    object      U;
}
// * * * * * * * * * * * * * * * * * * * * * * * * * * * * * * * * * * * * * //

dimensions      [0 1 -1 0 0 0 0];

internalField   nonuniform List<vector> 
808
(
(0.89678 -0.0122424 0)
(1.00831 -0.031468 0)
(1.06336 0.0779753 0)
(1.06681 0.0139008 -2.39032e-21)
(1.50452 -0.26501 0)
(0.939985 -0.0207028 0)
(1.11956 -0.0527055 -6.92883e-21)
(1.16715 -0.0433993 0)
(1.38955 -0.216607 3.08149e-20)
(1.23033 -0.0642376 -1.07741e-20)
(0.978681 0.00198449 1.14047e-20)
(1.41867 -0.231152 0)
(1.02718 -0.05384 0)
(0.732209 -0.0341123 0)
(0.870128 0.0384023 1.09736e-20)
(1.10682 -0.0455097 0)
(0.746075 -0.0702721 -2.43114e-21)
(1.0182 -0.0457224 -1.08786e-22)
(1.02985 0.0102167 0)
(1.09898 0.0139922 0)
(1.09811 -0.0185768 -1.59165e-20)
(0.931633 0.121252 1.11238e-19)
(1.07188 0.0106525 -1.69241e-20)
(1.16324 0.000986679 0)
(0.946424 0.161404 0)
(1.31859 0.0547003 -1.76079e-20)
(1.29688 -0.141227 1.17384e-20)
(0.937581 -0.00759405 -6.19962e-21)
(1.09192 -0.0325186 0)
(1.03407 0.0379758 -5.03623e-22)
(0.961294 -0.0182561 5.10993e-24)
(1.11076 0.00695085 0)
(1.07581 -0.0124373 0)
(1.05094 -0.00818413 4.28013e-21)
(1.30864 -0.0186554 9.19692e-21)
(0.74445 -0.134331 1.07965e-19)
(0.866872 -0.0361331 -1.39596e-20)
(1.02165 -0.00830326 1.92048e-21)
(1.20531 0.0455987 -5.12238e-21)
(1.12704 0.00091374 0)
(1.2511 -0.00723153 -1.61518e-20)
(1.2768 -0.0978792 0)
(1.00826 -0.00320886 -1.14048e-20)
(1.07921 -0.0471223 1.76138e-20)
(1.20889 0.0933314 0)
(1.00989 0.0120661 -2.25755e-20)
(0.991993 0.0246669 2.42865e-21)
(1.26991 -0.230202 1.64007e-20)
(1.16346 0.0354126 -1.17428e-20)
(1.44172 -0.130161 -4.45211e-20)
(1.09526 -0.0980295 1.25616e-20)
(1.14209 -0.0555966 0)
(1.11498 -0.00276222 1.02444e-20)
(1.10103 0.0587715 0)
(1.2914 0.218915 3.88484e-21)
(1.05698 0.0210923 -4.52352e-21)
(1.11312 0.0407327 0)
(1.09394 0.118214 6.90381e-21)
(1.23873 -0.0583608 1.15655e-20)
(1.11357 0.0265691 -1.39881e-21)
(-0.16877 0.566387 0)
(1.22245 -0.20886 -9.64458e-21)
(1.09806 0.085563 0)
(1.43671 0.0228394 -3.12467e-20)
(1.06342 0.0230469 -1.84841e-20)
(1.03789 -0.0288252 -1.1607e-20)
(1.49599 -0.065669 3.82255e-20)
(0.678457 0.0197621 0)
(1.02921 -0.0418346 0)
(1.50727 -0.350918 0)
(0.899712 0.031002 -3.2982e-22)
(1.34596 -0.124244 -4.74322e-20)
(1.01545 0.050663 0)
(1.03603 -0.0132599 -5.84401e-21)
(1.14759 -0.340366 -5.12359e-20)
(1.08499 -0.0732668 -2.36775e-20)
(1.10675 0.0266158 -1.21907e-22)
(1.30943 0.471315 2.5395e-20)
(1.08895 -0.0501601 0)
(1.00524 0.26015 -1.83617e-19)
(1.30056 0.065516 8.68362e-21)
(0.738322 0.0175869 0)
(0.84754 0.0156389 -1.28842e-20)
(0.973299 -0.117276 3.9494e-21)
(1.05502 -0.0328765 1.83877e-20)
(1.14856 0.0308275 6.22764e-22)
(1.36024 -0.233054 0)
(1.33214 0.252799 0)
(1.06834 0.0142327 -1.68544e-20)
(1.31145 0.0736042 1.90901e-20)
(1.07237 -0.00382623 1.20596e-20)
(1.33343 -0.0781442 -1.65776e-21)
(0.966011 0.0241691 1.7449e-20)
(1.00352 -0.0224042 0)
(1.10693 0.0182927 2.202e-21)
(1.50732 0.0912916 -9.92805e-20)
(0.787887 0.0149867 -4.70854e-21)
(1.31615 0.0378389 0)
(1.33142 -0.0343579 0)
(1.47589 -0.0471938 -5.82891e-20)
(1.0981 -0.0604528 -6.32666e-21)
(1.09529 0.0255981 -1.33112e-22)
(0.934202 0.0222139 1.16563e-20)
(1.13521 0.0370065 1.43323e-22)
(1.23439 0.0830756 -1.99332e-20)
(1.00145 0.000703462 1.65448e-20)
(1.3446 0.0351354 0)
(0.88284 -0.16063 0)
(1.07264 0.0235738 9.76054e-21)
(1.22232 -0.203746 -4.61116e-21)
(1.19346 0.0740025 3.74371e-21)
(1.03657 0.0381111 -1.22478e-19)
(1.1339 0.0334257 -3.80637e-21)
(1.28619 -0.0550377 -1.12725e-21)
(0.817102 0.00554754 0)
(0.919635 -0.0565373 7.40166e-20)
(1.12085 0.02489 -7.8306e-21)
(1.50916 -0.254705 -2.17844e-20)
(1.10664 -0.00998463 -1.41772e-20)
(0.924347 0.0220347 2.07078e-21)
(0.0285735 0.4194 0)
(0.857723 -0.0146337 2.07046e-21)
(0.776673 0.0228332 0)
(1.0508 0.00951099 -9.19562e-23)
(1.0089 0.0277327 0)
(1.29218 0.301365 7.17555e-21)
(1.03939 -0.0500456 -2.97404e-20)
(1.33082 -0.0830593 -1.66391e-21)
(1.14899 -0.0354342 0)
(1.09012 -0.0210315 0)
(0.84872 -0.0397803 0)
(1.1309 -0.0230469 -7.34686e-21)
(1.22446 -0.0140918 8.70622e-21)
(1.06341 0.10623 -3.48805e-20)
(0.868876 -0.0227032 0)
(1.07878 0.0240718 -2.25362e-21)
(1.21669 0.281692 1.42162e-23)
(1.21213 0.145407 2.52629e-21)
(0.981061 0.0233485 6.15584e-21)
(1.09921 0.0188711 1.11588e-22)
(-0.0723271 -0.105221 0)
(1.09073 -0.00538707 -1.32981e-20)
(1.09136 0.210042 2.29951e-21)
(0.717345 0.0225111 -6.29473e-21)
(1.23927 0.13997 2.57439e-21)
(1.21186 0.219927 -4.47396e-21)
(1.04374 0.0194303 1.64943e-20)
(0.993061 0.0324835 0)
(1.23638 -0.000214437 -2.9837e-20)
(1.07471 -0.0111164 0)
(0.939173 0.0283969 1.31328e-20)
(0.967428 0.267021 1.46828e-19)
(0.957343 0.0307587 0)
(0.820464 0.0782847 0)
(-0.159784 -0.206798 -7.64732e-20)
(1.30309 0.101104 -9.63745e-21)
(0.660167 -0.0145852 0)
(1.3203 0.0778655 0)
(1.21166 0.254705 0)
(1.3001 0.0990465 8.70697e-21)
(-0.0368614 -0.23385 0)
(-0.0865805 -0.120668 3.62129e-20)
(1.18308 -0.0198016 1.06911e-19)
(0.986086 0.0329304 1.7766e-21)
(0.858906 0.00157432 0)
(1.02958 -0.0121648 2.10731e-20)
(0.870674 0.0244207 0)
(0.944758 -0.0494543 -1.15451e-19)
(1.02884 0.0354187 1.86693e-20)
(1.10259 0.00732142 5.76445e-21)
(1.08119 0.0198906 7.65131e-21)
(1.01381 0.063821 -1.27773e-20)
(0.951408 0.149935 4.45359e-21)
(1.1527 -0.347924 3.49284e-22)
(0.902074 -0.0262497 0)
(1.06258 0.00899302 -1.2956e-20)
(0.87424 0.00599872 -1.31687e-20)
(1.4121 -0.140415 2.51691e-21)
(0.693621 0.0349394 0)
(1.12617 -0.141589 0)
(1.14322 0.031565 7.40437e-21)
(1.36713 0.178862 8.07522e-21)
(1.09326 0.0221566 6.17221e-21)
(1.03495 0.0289282 1.83022e-20)
(0.527688 -0.0802059 -1.41133e-20)
(0.813637 0.00101106 2.27872e-20)
(1.13355 -0.0250446 9.18903e-21)
(1.38973 0.0195958 -5.49697e-21)
(1.11111 0.00709777 -1.10114e-20)
(1.31525 0.03117 4.71081e-21)
(-0.152221 -0.188096 5.49152e-20)
(1.23868 0.0499371 0)
(0.626967 -0.00743111 0)
(1.06619 -0.0115607 -5.65521e-21)
(1.0783 0.0217681 9.25167e-21)
(0.00333322 -0.0634874 0)
(0.881001 -0.0221253 8.53731e-22)
(1.17627 0.00684841 -5.48581e-21)
(0.999104 0.0476317 2.6826e-21)
(1.07259 0.033105 -8.30324e-21)
(0.997253 0.0200622 2.41965e-21)
(1.08334 -0.0142945 4.83908e-21)
(1.05755 0.0109117 0)
(0.393895 -0.042441 0)
(1.04273 -0.0660147 0)
(1.15372 0.0654443 -2.90268e-20)
(-0.01495 -0.286014 5.79976e-20)
(1.14836 0.0400243 -1.79033e-23)
(0.927933 -0.0461905 0)
(0.740535 0.0170687 -1.21691e-20)
(0.99312 -0.00549876 2.07988e-21)
(-0.00908121 -0.0440398 -1.74522e-19)
(1.12694 0.0429448 -8.48209e-20)
(0.619268 -0.00658708 0)
(0.825526 0.0975025 0)
(0.930568 0.0527294 1.04873e-20)
(1.10325 -0.110819 6.73945e-21)
(1.26836 0.375793 -1.1241e-21)
(0.952007 0.155416 -2.635e-22)
(1.19785 0.115529 -6.64884e-21)
(1.0476 0.110004 0)
(1.34988 0.395807 -3.78484e-20)
(0.682933 -0.0321491 0)
(0.812872 -0.0225458 -5.97195e-21)
(1.05077 -0.00186113 -1.06019e-21)
(0.604108 0.0108462 0)
(1.10015 -0.00600001 0)
(0.499974 0.0600551 -8.19366e-20)
(1.15502 0.157075 -2.90816e-22)
(0.731454 -0.0130384 2.57102e-21)
(0.990586 -0.00241908 0)
(0.550313 -0.0139993 0)
(0.766204 -0.0194849 -4.88364e-21)
(0.546085 -0.0094465 -3.05705e-22)
(1.30334 0.0455538 9.79906e-23)
(0.977741 -0.15686 -5.46608e-21)
(0.731327 0.0140405 -3.43435e-21)
(1.11707 0.0371179 1.43088e-21)
(0.901156 0.287094 2.48263e-22)
(0.572743 0.0110135 9.35233e-21)
(1.13973 0.170698 2.35396e-21)
(1.11345 0.169127 0)
(0.918104 0.349707 0)
(0.510173 0.0192832 0)
(1.09907 0.00332156 0)
(1.1308 0.06381 2.30095e-21)
(0.956514 0.255769 0)
(1.22028 0.0654221 0)
(1.05021 0.225175 0)
(1.22961 0.28408 0)
(-0.0217371 -0.0691844 5.70351e-20)
(1.19418 0.159323 -1.31777e-21)
(1.26316 0.258066 0)
(1.24842 0.141699 2.57565e-21)
(1.25855 0.110014 -3.63953e-22)
(1.09665 0.0206541 6.21917e-21)
(1.25662 -0.118703 4.3622e-21)
(1.13871 0.129297 0)
(0.586613 -0.0158776 1.10952e-20)
(1.04672 0.0367824 1.24273e-20)
(1.22428 -0.0248314 0)
(1.00261 -0.0268615 -2.74774e-21)
(1.30663 0.0752962 2.95593e-21)
(0.48376 -0.361646 -1.14145e-21)
(1.09701 0.0156914 9.87741e-21)
(1.09191 -0.159706 -5.80453e-21)
(0.969085 -0.221693 0)
(1.33185 0.120259 6.30449e-22)
(1.13232 -0.0956037 2.65585e-21)
(0.885217 0.359251 6.68556e-21)
(0.736496 -0.201166 0)
(-0.0255127 -0.023903 0)
(0.974741 0.106026 -1.78232e-20)
(1.08761 -0.0448019 0)
(1.37504 -0.0680359 2.84174e-20)
(1.25047 -0.0442965 3.51677e-22)
(1.07965 -0.071034 5.57967e-21)
(1.26955 -0.0203438 -2.74424e-21)
(1.41838 0.0884355 1.4063e-19)
(1.0352 -0.336062 5.17324e-20)
(1.22461 -0.0531417 7.32756e-22)
(0.788139 0.00776282 0)
(0.739015 -0.324848 0)
(0.906129 0.00715417 -2.81006e-20)
(1.29915 0.0121857 -3.89159e-20)
(1.14209 -0.184666 0)
(0.904943 0.245825 -4.54881e-21)
(0.473403 -0.449718 0)
(0.929749 -0.163763 -1.22342e-20)
(0.989648 0.308163 4.24839e-21)
(0.811154 0.0239287 -6.24206e-21)
(1.29037 -0.0668977 0)
(1.10642 -0.190211 -4.10204e-22)
(0.969874 -0.232019 6.52665e-21)
(0.834728 0.156869 8.87534e-21)
(1.19855 -0.187011 -4.429e-21)
(0.783566 0.161897 0)
(1.0884 0.0651727 0)
(1.25836 -0.155258 -9.14085e-21)
(0.988121 -0.0344949 1.23586e-20)
(1.26373 -0.0085733 -4.78875e-21)
(1.15675 -0.0849169 -4.51681e-21)
(0.819122 -0.271795 3.50465e-22)
(1.06705 -0.0977467 0)
(0.442797 -0.146812 1.57797e-20)
(1.28868 0.0804302 -1.0628e-20)
(0.859887 0.290804 -8.4986e-21)
(0.369185 -0.465568 1.20709e-21)
(1.45251 -0.0592358 2.87934e-20)
(0.729783 -0.0248364 1.48329e-20)
(1.2857 -0.224593 9.10769e-21)
(1.15348 -0.042854 -1.03086e-22)
(-0.0216868 -0.328016 -9.94909e-21)
(0.999713 -0.00495928 0)
(1.03459 -0.0910192 -1.52991e-20)
(0.844954 -0.0336637 1.54272e-20)
(1.08462 -0.0398585 6.94161e-21)
(0.876239 0.251445 -4.42573e-21)
(0.539358 -0.0234509 1.74763e-21)
(1.45057 -0.378009 -1.6857e-20)
(1.05733 0.0900121 0)
(1.02559 0.0257098 1.95904e-21)
(1.10323 0.0222333 -3.19628e-21)
(1.25047 -0.222795 0)
(0.877614 -0.348269 5.14829e-21)
(1.12937 0.0616162 3.57551e-21)
(0.740127 0.418093 -2.30308e-21)
(1.17418 -0.0587674 1.09399e-22)
(0.98363 -0.273601 -4.10049e-21)
(-0.0322037 -0.258477 0)
(0.29841 -0.103357 9.45967e-21)
(1.07454 0.0251867 0)
(0.708473 -0.171563 -1.80959e-20)
(0.717038 -0.326291 0)
(1.13032 -0.00725837 8.57464e-21)
(1.01693 0.024936 0)
(1.26074 -0.277687 0)
(1.41418 -0.0672193 2.27795e-20)
(0.807465 -0.101956 0)
(0.892995 0.01466 4.62503e-20)
(1.07914 0.0210971 -3.3685e-22)
(1.03101 0.0481231 3.84108e-21)
(1.35513 0.0348746 -1.55354e-20)
(1.21901 0.117986 -3.27217e-21)
(1.06696 0.256194 8.49639e-21)
(1.12516 0.10105 0)
(1.16587 -0.115177 0)
(1.13554 0.0756601 1.408e-21)
(1.2297 -0.0313155 0)
(1.40351 0.156672 -2.28586e-20)
(0.726935 0.309559 2.53773e-21)
(1.02472 0.0136415 2.4395e-20)
(1.15369 0.0800976 6.27153e-24)
(-0.00253849 -0.102542 0)
(-0.0348397 -0.137272 0)
(0.370112 -0.0771013 -6.91511e-20)
(0.0286989 -0.312135 0)
(0.7092 0.282194 -5.63679e-21)
(1.19156 0.0516464 -3.56278e-21)
(1.12449 -0.117232 -9.01476e-21)
(1.30084 -0.206076 -2.9423e-21)
(1.24535 -0.0505803 0)
(0.711032 -0.0106539 -2.35177e-21)
(1.19393 0.0865218 0)
(1.1606 0.070523 -1.75531e-21)
(0.535678 -0.114581 0)
(0.59452 0.0101397 -7.21804e-22)
(1.21458 0.0660642 0)
(1.15028 -0.00736762 0)
(0.85768 0.369932 5.73977e-20)
(0.582828 -0.113927 7.10803e-22)
(1.08256 0.124352 -8.70889e-21)
(1.00719 0.0169649 -8.912e-21)
(0.282413 -0.1599 0)
(0.995777 0.171753 -4.28212e-20)
(1.13747 -0.0242435 7.22839e-21)
(0.98157 0.282486 4.32977e-21)
(0.541359 -0.287791 4.56704e-21)
(-0.0338169 -0.298112 -1.20369e-19)
(1.21691 0.0159136 0)
(-0.0333721 0.0251465 0)
(1.19096 -0.0538608 1.11493e-20)
(0.544897 -0.359652 -4.91595e-21)
(1.05655 -0.0542 -2.01758e-20)
(1.09557 -0.0600545 0)
(1.01869 -0.0987555 5.96153e-21)
(1.36749 -0.163766 2.85025e-20)
(0.610184 -0.0472382 -1.11608e-20)
(1.14445 -0.0583047 -4.07148e-21)
(1.12134 -0.0921518 -3.77384e-22)
(0.680896 -0.133377 1.21242e-20)
(1.12129 -0.200173 -5.92694e-21)
(1.09659 0.0257051 0)
(1.23288 0.0627883 0)
(1.19109 -0.138174 1.23696e-21)
(1.13777 -0.00283733 -6.53314e-21)
(0.773649 0.012351 -8.15039e-20)
(1.1968 -0.0939213 -9.9756e-21)
(1.12169 0.0197886 1.59268e-20)
(0.517314 -0.0021561 1.58039e-20)
(0.88521 0.414777 -1.18621e-19)
(0.195035 0.431562 3.86412e-20)
(1.16252 0.166098 -6.39461e-21)
(1.27035 -0.504884 8.63401e-21)
(1.18348 0.125224 -7.78913e-21)
(1.22131 -0.0766637 -1.46586e-21)
(0.955017 -0.2483 9.05147e-20)
(0.00475122 0.540319 0)
(1.04351 0.120751 -3.02212e-21)
(0.0498628 0.329713 -2.21416e-20)
(1.20449 -0.0356797 -9.64852e-21)
(1.20518 0.0736506 1.06484e-20)
(1.08711 0.0277032 0)
(0.733047 -0.325976 0)
(1.15175 -0.0216729 0)
(1.10337 -0.111359 1.44854e-20)
(1.1964 0.0381701 -1.02585e-20)
(1.16504 -0.0739732 3.51464e-22)
(0.478918 0.0169326 0)
(0.635547 0.00995865 0)
(0.642244 -0.000893601 3.00491e-23)
(0.4591 -0.0184314 0)
(1.15171 -0.11101 0)
(1.02316 -0.00758151 2.33514e-20)
(0.731485 -0.367338 0)
(0.982727 0.0342931 0)
(1.04424 -0.00944313 0)
(1.1603 0.175604 -8.45693e-21)
(1.15789 0.0294651 -3.64618e-21)
(0.962879 -0.031856 1.07634e-20)
(1.35423 -0.410445 -1.26867e-19)
(0.887097 -0.320109 3.45451e-20)
(1.33613 0.194303 6.51069e-22)
(1.15304 -0.149234 0)
(0.119425 0.274202 0)
(-0.00995508 0.071657 0)
(1.17709 -0.0269616 5.42584e-22)
(1.35741 -0.281658 -3.87182e-20)
(1.17546 0.021181 0)
(1.09304 0.0623512 -9.2486e-21)
(0.458729 0.196511 0)
(1.54581 -0.128807 9.18884e-20)
(0.407171 0.506927 1.22894e-19)
(0.331796 -0.0628031 0)
(1.15745 -0.28466 1.36231e-19)
(0.533795 0.515718 0)
(0.356367 -0.0886264 1.02262e-21)
(1.08978 0.0548492 0)
(0.227325 0.163791 6.27555e-21)
(0.984274 -0.0501863 0)
(1.36494 -0.126176 -1.35452e-20)
(-0.121855 -0.261836 -1.04616e-20)
(1.12804 -0.0299868 3.41547e-21)
(1.04088 -0.118869 -2.15383e-20)
(0.591519 -0.550752 -8.72994e-20)
(1.27878 0.0794182 1.72105e-22)
(1.20299 -0.106041 1.68014e-21)
(1.16392 0.223146 -2.19294e-20)
(1.26137 -0.234272 -1.93434e-20)
(1.17146 -0.0249955 1.51014e-21)
(-0.234118 0.445437 -2.60398e-20)
(-0.0829092 -0.102579 -7.63313e-21)
(1.43678 0.0669221 2.73285e-21)
(1.05677 -0.0387468 0)
(0.670489 -0.07936 8.25563e-21)
(1.45896 -0.446376 9.9097e-20)
(1.04258 -0.0873971 -7.20183e-20)
(1.37066 0.106617 5.31919e-20)
(1.05438 -0.0355069 6.63155e-21)
(1.08351 -0.179066 8.34229e-21)
(1.06288 -0.00857165 0)
(1.14705 0.0170268 0)
(1.33226 -0.175322 5.88906e-21)
(1.08631 -0.0183063 -4.38758e-21)
(1.33844 -0.356293 2.01168e-20)
(1.12488 0.0354373 -9.06238e-21)
(1.41069 0.10459 -4.9331e-20)
(0.501846 -0.0079589 0)
(1.18469 -0.208417 -4.17972e-21)
(1.15328 0.112124 0)
(1.14201 0.0196216 -8.6875e-21)
(1.13403 0.0237149 0)
(1.03621 -0.0053499 1.25502e-20)
(1.2171 0.0476216 4.83409e-21)
(1.1081 -0.22315 0)
(0.0592674 -0.0315674 1.82071e-19)
(0.890988 -0.227826 -7.09987e-20)
(1.4657 0.259307 -3.81769e-20)
(-0.074517 -0.290989 5.0026e-20)
(1.13753 0.0234437 -6.95947e-24)
(0.770192 -0.218292 -2.91751e-21)
(-0.116784 -0.265214 -5.21925e-20)
(-0.0077544 -0.136296 -3.04594e-20)
(1.02268 -0.0267302 0)
(-0.0290551 -0.0403053 0)
(1.12557 0.242025 0)
(0.114073 -0.130545 0)
(1.11235 -0.036366 0)
(0.150949 0.0314255 0)
(1.0881 0.0227604 0)
(1.04271 0.0765115 0)
(1.24972 -0.0312126 -6.52989e-21)
(0.606656 -0.300703 -2.55071e-20)
(-0.245839 -0.145208 0)
(1.26594 -0.0680826 7.49925e-20)
(1.32915 0.234473 -3.14924e-21)
(1.31792 0.294917 0)
(-0.0427511 -0.0459633 0)
(1.14821 0.015487 -5.66212e-21)
(1.15928 0.00248911 1.99262e-21)
(1.15703 0.370569 0)
(0.347804 -0.124495 7.21539e-20)
(1.11551 0.0587431 1.69705e-21)
(0.255348 -0.0549792 -6.13717e-20)
(-0.0553187 0.031171 -3.51104e-20)
(-0.0195488 0.0468516 9.02102e-20)
(0.159646 0.247776 -2.50225e-20)
(0.972219 -0.110288 2.74599e-21)
(1.11415 0.0132852 -1.82371e-20)
(1.02562 -0.00814784 0)
(1.07156 -0.0583203 -1.94573e-20)
(1.13505 0.0502256 3.91898e-21)
(-0.00887315 -0.10543 1.22608e-19)
(0.982402 -0.0713269 -5.61787e-20)
(0.715191 -0.198099 -1.24248e-20)
(1.22283 0.134956 2.72933e-21)
(0.0786228 -0.036301 3.98369e-20)
(0.263837 -0.0408532 -5.58219e-20)
(0.486022 -0.0740414 -6.54731e-20)
(1.14711 -0.150255 1.80344e-20)
(-0.0627177 -0.0374657 0)
(1.03381 -0.119036 -4.1456e-21)
(1.20507 -0.27234 -6.33986e-21)
(1.21441 -0.348076 6.1134e-21)
(1.27224 0.261461 0)
(1.54015 -0.193584 8.82876e-20)
(1.185 0.00883398 -5.34851e-21)
(-0.015895 -0.0885944 -4.26989e-20)
(0.336724 -0.0288838 0)
(0.946437 0.04668 -3.89597e-21)
(1.09265 0.0298301 2.03748e-21)
(0.686482 0.130374 2.26599e-20)
(1.15602 0.011765 2.76331e-21)
(1.11024 0.0470493 0)
(1.22117 -0.167554 -1.73946e-20)
(-0.00232356 -0.316084 -9.43398e-20)
(1.29522 0.0369348 2.3545e-20)
(1.09758 0.162689 -8.83592e-21)
(1.1193 0.050487 1.03645e-20)
(-0.0430577 -0.0773165 1.8969e-20)
(-0.018249 -0.00722561 -6.78635e-20)
(1.11225 0.23343 0)
(0.67287 0.298928 0)
(1.13981 0.0870722 -2.00772e-20)
(1.04963 0.0665165 1.42407e-20)
(1.1472 0.0621195 0)
(0.92761 0.13487 8.17284e-20)
(0.791477 0.0448269 -1.23071e-20)
(1.09486 0.0962156 0)
(1.10375 0.0593669 0)
(1.19393 0.155487 0)
(1.06243 -0.0080885 0)
(1.20722 0.196969 3.11824e-21)
(-0.0399896 0.0433556 3.83424e-20)
(1.1263 -0.108713 1.01746e-20)
(1.50479 -0.168366 -1.02254e-19)
(1.14801 0.17082 -4.38108e-21)
(-0.203171 0.000325165 0)
(1.23076 -0.19914 0)
(0.653518 -0.0172955 -1.95702e-21)
(0.580689 -0.000598197 -6.38564e-20)
(0.094761 0.0301788 5.13424e-20)
(0.966466 0.0167812 -1.73851e-21)
(0.782419 -0.283509 0)
(0.724146 -0.0972467 0)
(1.0876 0.147123 0)
(0.53678 0.506478 1.78684e-20)
(-0.00518901 -0.0563317 -3.27251e-20)
(1.17979 0.172006 1.00353e-20)
(-0.0204838 -0.17781 8.12514e-20)
(1.20902 -0.0152185 3.49379e-21)
(1.15785 0.294449 4.18277e-20)
(1.1154 -0.078575 7.2863e-21)
(-0.0214487 0.225384 3.52e-20)
(1.15706 0.0573422 -2.82424e-21)
(1.10388 -0.258253 0)
(0.568745 0.272029 0)
(0.925821 -0.280391 -1.42336e-21)
(-0.148745 -0.22176 0)
(0.603319 0.0288732 2.98481e-21)
(0.629837 -0.437278 -4.04253e-21)
(0.262583 0.0472698 -1.16183e-19)
(1.13408 -0.227331 2.52329e-20)
(1.02994 0.344411 1.02201e-20)
(0.981094 0.0104039 0)
(1.01322 0.150267 8.03403e-22)
(0.660079 0.0167819 0)
(1.00899 -0.024535 -3.71578e-23)
(0.486464 -0.0211828 0)
(0.712744 0.106575 0)
(1.00039 -0.0224869 -8.25257e-21)
(1.41526 0.138519 -9.20369e-21)
(1.20426 -0.0522144 1.29125e-21)
(0.542222 -0.514839 0)
(1.13756 -0.146637 1.24489e-21)
(0.79847 0.3539 7.12195e-20)
(-0.0191242 0.0192583 1.27849e-21)
(1.22773 0.0163343 2.51182e-21)
(1.20783 0.0414818 -3.04089e-21)
(1.28529 0.0472993 8.9022e-22)
(0.806426 0.00311933 -4.83493e-21)
(0.0874338 0.0139128 4.08515e-20)
(-0.0092265 -0.184358 -6.81745e-20)
(-0.135407 -0.117767 0)
(-0.277015 -0.0209039 0)
(1.22803 -0.633331 3.78711e-20)
(1.15062 -0.0278306 -1.47359e-21)
(0.928325 -0.482587 -5.30386e-20)
(0.956981 -0.248142 7.07724e-21)
(1.36331 0.169257 3.30025e-20)
(0.605149 0.418132 0)
(0.24209 0.399991 -1.18934e-19)
(0.58913 0.452305 0)
(-0.127464 -0.0964347 0)
(1.15371 -0.48987 0)
(-0.035722 -0.187374 -7.89302e-23)
(1.16931 0.0241233 0)
(0.554295 0.0556185 1.63903e-20)
(0.586367 0.672898 1.99124e-20)
(1.11174 0.0587168 -1.76762e-20)
(-0.0202376 -0.213297 -1.31075e-19)
(0.284559 -0.209638 2.40935e-20)
(0.470441 0.145364 -1.37895e-20)
(1.18852 0.0813119 0)
(1.35521 0.334966 3.55043e-20)
(1.21324 0.545553 6.30865e-21)
(0.211747 -0.0352001 -2.49407e-20)
(1.03851 0.0587767 3.21347e-20)
(0.956663 -0.0191131 2.44285e-21)
(0.932029 0.0234939 -3.03295e-23)
(-0.0159241 -0.0445894 0)
(0.667007 -0.685437 -2.74096e-20)
(0.613499 0.173296 0)
(0.243078 -0.224538 0)
(-0.0396032 0.00717353 0)
(0.0744722 -0.279998 -5.06563e-20)
(1.22894 0.0142649 -2.90845e-21)
(-0.0195529 -0.0288873 0)
(-0.0220778 -0.0588011 0)
(1.4227 0.0789795 -4.93698e-20)
(-0.0391183 -0.1321 5.89571e-20)
(0.112457 0.218138 -1.02594e-19)
(0.441215 -0.00273557 0)
(0.174506 -0.302852 7.85792e-20)
(1.15185 -0.24739 0)
(1.01379 -0.29292 0)
(0.0604949 -0.206742 1.25189e-19)
(1.13863 0.0398479 -2.84952e-22)
(1.11435 0.320655 2.84756e-20)
(0.295339 0.0221829 4.87204e-20)
(0.417228 -0.542133 -2.953e-20)
(1.25525 0.0512254 0)
(1.24511 0.157537 2.30153e-20)
(1.23542 0.187781 -2.8261e-20)
(0.101585 0.0658371 -2.3434e-20)
(-0.0590003 -0.247439 0)
(1.07643 -0.0446839 -1.89884e-20)
(1.11273 -0.224364 -1.2495e-20)
(0.595759 -0.434317 0)
(1.10087 -0.156002 -2.35308e-20)
(-0.282536 -0.0536075 0)
(0.62375 -0.0175025 0)
(1.35405 0.15557 3.16254e-20)
(1.03824 0.0446695 6.6214e-22)
(1.06578 0.72145 -1.83085e-20)
(0.23307 -0.401054 1.22283e-19)
(1.17003 0.0444665 2.68826e-21)
(1.18952 0.0717816 -2.6575e-21)
(-0.0381415 -0.0909389 3.25936e-20)
(0.781763 0.720658 3.14846e-20)
(1.39177 -0.365512 -1.44344e-20)
(0.563294 0.435039 1.20047e-19)
(1.03641 0.0179291 0)
(-0.0312603 -0.0780911 -2.9757e-21)
(0.935236 -0.659113 3.64611e-21)
(0.901 0.635396 -1.62212e-20)
(0.603583 -0.0339077 -7.40365e-20)
(1.13704 0.00248206 -1.21131e-20)
(1.07783 -0.0756542 6.22143e-21)
(1.1216 0.011457 7.19011e-21)
(1.10226 0.115793 5.94185e-21)
(1.13503 -0.109718 0)
(0.944174 0.0802687 1.55573e-20)
(0.897377 0.456828 0)
(1.07617 -0.0730611 -9.37656e-21)
(1.15682 0.104978 3.27852e-21)
(0.773106 0.263534 0)
(0.550209 0.108113 1.10777e-19)
(0.884766 0.692906 -1.35975e-21)
(1.06624 0.273946 -2.18689e-20)
(1.03938 -0.00415207 1.18581e-20)
(0.410138 0.462147 0)
(1.33731 -0.478448 0)
(0.410062 0.168246 1.10007e-21)
(1.26633 0.491091 0)
(0.00172777 0.0163453 -4.70779e-20)
(1.3171 -0.41592 -1.95751e-20)
(1.15452 0.48721 0)
(0.453244 0.185596 1.7021e-19)
(1.13896 0.307715 -1.22651e-19)
(0.839324 -0.669125 -2.23297e-20)
(1.11003 0.0125611 2.79599e-21)
(0.94535 0.14316 8.49478e-20)
(1.08111 0.157288 5.37554e-20)
(1.06535 0.688521 1.29668e-21)
(0.926822 -0.459034 5.99764e-20)
(1.37943 0.166033 3.08159e-20)
(1.12376 0.0044656 -1.92864e-21)
(-0.000768045 -0.0884744 1.06663e-19)
(1.11791 -0.724669 3.99609e-20)
(0.898631 -0.747089 4.33992e-20)
(0.259958 -0.373813 0)
(0.975946 -0.154335 6.8945e-20)
(0.35873 0.274848 -4.42002e-19)
(0.0281827 -0.17513 4.4399e-20)
(0.287148 -0.0215207 2.40548e-20)
(0.729934 -0.0613656 -8.67665e-20)
(1.0693 0.507845 0)
(0.985945 0.20882 8.07601e-20)
(1.08148 0.0264672 4.45788e-21)
(0.89997 0.419702 -9.18221e-20)
(0.812427 -0.753594 -6.18802e-21)
(0.9255 0.00904544 -4.82048e-20)
(0.96826 0.466765 0)
(1.02749 -0.0693393 1.25595e-20)
(1.42168 -0.520738 1.62732e-20)
(1.25149 -0.343015 1.17605e-20)
(-0.279827 0.0378546 3.46603e-20)
(0.196676 -0.0358933 -1.80656e-20)
(0.98771 -0.125841 -5.71937e-20)
(0.345075 0.500261 0)
(0.913624 -7.97165e-05 3.84079e-20)
(1.15664 0.624692 7.71743e-20)
(0.0960598 -0.259937 2.0362e-19)
(-0.0679783 -0.160551 -2.71934e-20)
(-0.0585464 -0.31212 5.09924e-20)
(1.09416 0.0197601 -6.15987e-21)
(1.17778 -0.476553 0)
(1.10067 -0.75979 -3.08649e-20)
(0.69345 0.324769 0)
(0.190622 -0.237918 -1.48435e-19)
(1.17921 0.0387026 3.25356e-21)
(-0.0322004 -0.259713 -3.66492e-20)
(1.0471 0.0524513 -1.1236e-20)
(0.144521 0.0049117 6.13124e-20)
(0.888441 0.111354 0)
(1.35027 0.121848 4.82231e-20)
(0.0414158 -0.0544737 -2.73153e-20)
(-0.312992 -0.0767989 -4.11438e-20)
(-0.177085 -0.00304094 0)
(0.084662 -0.0218163 0)
(1.29976 0.0862748 -1.58649e-20)
(0.412887 -0.012855 1.79572e-19)
(1.31042 -0.7479 -3.73486e-20)
(0.73034 0.240654 1.96524e-20)
(1.05982 0.235198 -3.1257e-20)
(0.382201 -0.594214 1.33592e-19)
(1.52502 0.245769 -3.34925e-20)
(0.107473 -0.147271 4.14017e-20)
(0.205409 0.272111 1.97427e-19)
(0.119209 -0.0805882 -1.54897e-19)
(0.963637 -0.512134 -4.10813e-20)
(1.44819 0.364831 3.4607e-20)
(0.589269 -0.708067 4.44266e-20)
(1.1069 -0.0650866 -6.42474e-21)
(0.507266 -0.0819858 8.12139e-20)
(1.20511 0.275611 -5.10773e-20)
(0.654067 0.615681 -4.23055e-20)
(1.38824 -0.640197 0)
(1.42232 0.502252 3.42764e-20)
(1.08116 -0.545597 -1.3607e-20)
(1.38473 0.589395 -9.66943e-20)
(1.1207 0.0355421 0)
(-0.0415924 -0.0169195 0)
(1.24196 0.710891 0)
(1.04663 -0.0505307 -1.13969e-20)
(0.756598 -0.324878 -2.01279e-19)
(0.479106 -0.112253 0)
(-0.0618006 -0.0718592 -2.76581e-20)
(1.02533 -0.247975 9.24158e-20)
(-0.16594 0.156099 0)
(0.322645 -0.00827007 1.22028e-20)
(1.0952 0.0293527 0)
(1.42068 0.245738 0)
(1.12848 0.0174985 -2.99397e-21)
(0.367955 -0.327039 0)
(1.01079 0.139715 3.86313e-20)
(1.31531 0.265817 0)
(-0.103562 -0.160547 9.5585e-23)
(0.826214 -0.420561 0)
(1.49757 0.313465 -5.11127e-20)
(1.22749 0.344273 9.81014e-22)
(0.829914 0.619673 -1.01214e-20)
(1.0035 0.150118 -8.92827e-20)
(0.969957 -0.212658 -4.5299e-20)
(1.44079 0.267077 2.98567e-20)
(0.979889 -0.000281007 0)
(0.566011 -0.097434 0)
)
;

boundaryField
{
    FrontBack
    {
        type            empty;
    }
    Top
    {
        type            noSlip;
    }
    In
    {
        type            fixedValue;
        value           uniform (1 0 0);
    }
    Bottom
    {
        type            noSlip;
    }
    Out
    {
        type            zeroGradient;
    }
    circle
    {
        type            noSlip;
    }
}


// ************************************************************************* //
