/*--------------------------------*- C++ -*----------------------------------*\
| =========                 |                                                 |
| \\      /  F ield         | OpenFOAM: The Open Source CFD Toolbox           |
|  \\    /   O peration     | Version:  2412                                  |
|   \\  /    A nd           | Website:  www.openfoam.com                      |
|    \\/     M anipulation  |                                                 |
\*---------------------------------------------------------------------------*/
FoamFile
{
    version     2.0;
    format      ascii;
    arch        "LSB;label=32;scalar=64";
    class       surfaceScalarField;
    location    "32.5";
    object      phi;
}
// * * * * * * * * * * * * * * * * * * * * * * * * * * * * * * * * * * * * * //

dimensions      [0 3 -1 0 0 0 0];

oriented        oriented;

internalField   nonuniform List<scalar> 
1171
(
-0.9279387844139358
0.9279387845068996
0.7873710658335583
-1.09900332461412
0.3116322594388565
-0.192433633434967
-0.7650631061523496
0.9574967389798578
0.07206121087905869
-0.1167612860037054
-0.2120776622120077
0.3288389462564756
-0.7873710548013453
0.06945934105840865
0.7179117137530957
0.8115680924402139
-0.1777189839569029
-0.6338491089618105
0.874338889660491
-1.043904346653283
0.1695654569521357
-0.2852083902834944
-0.09727978527693371
0.3824881753661303
-0.03594942006020425
0.5487401862021479
-0.5127907660573736
-0.5029297858117944
0.8248465036219401
-0.3219167168367883
-0.4019696811718599
1.045967017209142
-0.1716281190391969
0.3941091220576566
0.04782481152983817
-0.4419339362448238
1.046093764275277
-0.0001267431822055305
0.4438690892532114
-0.04975997406965513
1.056782438328092
-0.01068867111344406
0.5780377609695153
-0.7704713937917903
-0.7244416561269382
0.5570004620282144
0.1674411940676227
0.220448977391683
-0.7233787644964896
0.5506261623963215
-0.9228770005383746
0.3722508381057656
-1.094166296953654
0.6864137497901134
0.4077525470170293
-0.5954704846375629
0.5595210693127899
0.01822328595621154
-0.257012493884321
0.238789209855505
-0.02406168581488423
-0.5212753860580034
0.5453370676700691
0.400286890365764
-0.4975666799561607
-0.9187501164030394
0.9413770169550758
-0.02262690032770013
1.067432686268482
-0.01065024581507396
0.9350091523153727
-1.116787500678503
0.18177834832866
1.066983989796244
0.0004486982728150628
-0.6644406050244718
-0.06000105362743386
1.262322646666242
-0.8642700604890002
-0.39805258625204
0.1482338740174735
-0.1090736582571851
-0.3264442423797737
0.435517900650873
-0.2857147106416709
0.1910221273118667
0.09469258270401291
-0.5835222359542607
-0.5154810957116673
1.014024898384896
-0.07901574059517731
0.009940992521799353
0.8254572477983316
-0.8353982402352995
0.5718729213642368
0.6904497303074518
0.43966652713344
-0.03017548532225574
0.4304623746949343
-0.8077553071573915
-0.1025372278489969
0.9102925348123583
0.5023793420203819
0.2536567743245552
-0.7560361161241276
0.005627394477093014
0.527160640141211
-0.532788036743439
-0.4898696019049512
-0.604296688519005
-0.4228428127101059
-0.6939446812422839
-0.02705929206174966
0.2700461098958881
-0.2429868174767118
-0.9247408522924585
-0.00509306199869866
0.9298339143806421
0.3085222588714872
0.07396591145615199
0.7621883978556797
0.04937969774135583
-0.5331679624199924
-0.06230252291816842
0.04621991122805937
-0.8539752155532458
0.07495533497998114
0.8629552622723059
-0.9379105970848612
-0.3471418372718337
-0.04155616957228776
0.3886980083617004
-0.6822011101236961
-0.2425397486895752
-0.6321674079113262
0.7071227412693025
0.6109175768476559
0.2139289252934035
-0.5429662440878561
0.9459287953010372
-0.7792877751726964
-0.1666410199313907
0.01965730520516112
-0.0182360891063171
-0.001421213558087199
-0.4031116797998751
-0.09445499872068172
-0.2410570440796727
0.8519746170947516
0.0463043552020892
0.3356486263535755
-0.3819529812786792
-0.460247918166543
0.9626272578420269
0.6802143838929535
-0.7827516087282201
0.3203807570870935
-0.01780243206677638
-0.3025783192122657
0.9307104076506247
-0.9307104076327136
-0.7821646373297756
0.1104670171232657
-0.322544680053427
-0.7500179554747733
0.7599589413904022
-0.08990144784110492
-0.1432073933755534
0.2331088424385891
0.8650160871679156
-0.03955884923182138
1.054162933169701
-0.8005061603993991
0.186058363772077
-0.3154988165325249
0.1294404517820169
0.859315410475709
-0.09712701296156299
-0.6117945909826716
-0.03908507831707844
0.6508796693775386
0.1237738317985581
-0.2311412552740835
0.1073674241721278
0.8056802394006656
-0.9833992199872854
-0.4354472853629399
0.3296791086954322
0.1057681753940325
0.5314267523215995
-0.5554884348900471
1.022020019297455
-0.4562118931432678
-0.5658081260108629
0.5991772038308474
-0.7193901798762499
0.06686262361637614
0.6525275557592493
0.103279291427159
0.5702429899914646
0.05514876309937725
-0.6253917532081972
0.1939935343270942
-0.08352652827612207
-0.4931810871737679
0.1460392598691124
0.05030106965474599
-0.8867615361645262
0.8364604664644132
-0.473450561328602
-0.7134717439750318
0.04903113853178463
0.4370625559283813
-0.006600174633694998
0.299816676721876
-0.8552265196853722
0.5554098432946269
0.415718522513459
0.5842814773024478
0.5604753339691785
-0.5142554196223901
-0.3666851217309632
0.0352001948176033
0.3314849291896735
0.6813617127587092
0.2493486991432232
-0.565592688836985
0.5712200789820452
0.1106183089285752
0.8751395703043761
0.01018260394411465
-0.6219771917746151
-0.749278107925308
0.7995791709027641
0.5311579113969463
0.07038536088792191
0.3022888214613733
-0.3726741828548173
-0.1675614562125449
0.4417530477869468
0.08540759533442301
0.8768203928042922
-0.8000223976132222
-0.07679799502347853
0.6353544178978402
0.3105743790139736
-0.4301709712334261
0.5748413432585651
-0.5044559795411937
0.4172239944625831
0.1334021623836044
-0.04684669319180328
-0.5927683145825156
-0.137351153271326
0.7301194677188274
-0.1497548460410684
-0.7809555597327422
-0.6109912287208155
0.3607688081858022
0.2502224206123244
0.6221674895773248
-0.6119848866252889
0.238937497918455
1.01122665589903
0.04293627575033351
-0.749278111510379
0.2307904783197396
-0.2111331719239456
0.6802143870827378
0.8019577220990438
-0.801957721971418
0.837730415245985
-0.8332993958100344
-0.004431019315375573
-0.4453902886745673
0.8611088083608309
-0.1474982018090566
-0.345682879483184
0.7347017071767186
-0.668454599490742
-0.06624710776468791
-0.7320456885289933
0.1392773756579643
0.138681345054493
-0.6718493105416455
0.782751603073369
-0.9503130592975644
-0.366896075301743
0.2916409987533134
0.07525508574499973
0.1459410866625371
-1.009641448892499
0.8637003622875792
0.4812359791879879
-0.04156945206532155
-0.3081838805182397
0.5865023863521824
-0.2783185059797992
-0.738354380839795
0.8842954744026673
-0.157120283590947
0.7330905839637202
-0.8431380658727713
0.1100474827688364
0.9765383707188086
-0.5412491489337138
-0.4352892215648155
0.7551110278147367
-0.06497673470628217
-0.03233960830170849
0.1868898252632347
-0.1545502185263738
-0.7757742754475278
-0.8455116387100566
0.08044853125908279
-0.7500179613184392
0.5138259866005399
-0.5553821464328296
0.09272467469975133
0.7200977710590828
-0.8128224458090559
0.7537091574152587
0.1742295994669671
0.5028854838084562
0.4971145161990608
-0.04978729297185955
-0.608775498877539
0.6585627898008392
0.8841046306481081
-0.007284237130882893
-0.7551110278159276
0.7995791700236012
0.1910503543545018
-0.4480628451996771
0.01969589153740351
0.002581993865822075
-0.02227788467148397
0.5887585931838305
-0.4383115220016088
-0.1504470719245965
0.7179117058203852
0.01254903681376033
-0.1124210551956919
0.4370561840482532
0.1517024137731478
-0.01515404958807255
-0.005445300332399804
0.02059934806514907
-0.03238422201483677
4.461807115365042e-05
0.2434556527231411
-0.2612580786387906
-0.9590780059342523
0.001585214761031712
-0.1594988359393107
-0.1234404240023923
0.09443566263028996
0.721570214827731
0.7290549530783587
-0.1447734734466276
0.6661817645604643
-0.5734570922177329
-0.2117222864606956
0.3977806555488653
0.6954180997594482
0.02249360613825944
0.2416512818474271
-1.074950685400873
-0.9503130555959123
0.3019220850195899
0.7599589354773356
-0.2086638526643426
0.06545646176576293
-0.7231554345821625
0.9104592434451365
-0.1873038086158514
0.415908211595379
-0.02721019317817157
0.7714837224141754
0.2806098296281502
0.3723662838570593
0.07150280527963511
-0.6586887081355859
0.658688708123502
0.2146227139289519
0.6956698244972628
-0.0551909083945139
0.3908395326757415
0.3803269935625594
-0.01568906657749362
0.03538497978264784
0.4493072124280871
0.03192876761746963
-0.7383543763075103
0.5341230104970806
0.2005786906122643
0.3054372258705828
-0.118547376155633
-0.6954180978640502
0.1802039665993841
0.7302552807375724
-0.01012951739012559
-0.8137235586160079
0.8238530759654805
0.6962857112496176
-0.7921102894318485
0.09582457797763855
-0.7537091452204361
-0.1495223980616696
0.2107982405025787
-0.06127584326899508
0.07712299928689209
-0.1799594990610655
-0.1118143299410323
0.291773826431743
-0.00970638003922341
-0.005447678022180324
0.7064049167391714
-0.7165344366436157
0.8848658696649895
0.07263086868587056
-0.3115081877508785
-0.5201070953357194
0.8316152824323449
0.102590583285013
-0.102590586372099
0.3268412089250582
0.478662266019757
0.6101333590203123
-1.088795624504717
-0.1941508056278846
-0.5856189608338404
0.7797697664531261
0.0121896604245772
0.2209191868597306
0.37721886628792
-0.2534450413734667
1.01322710074699
-0.5345648337812463
0.6646708135265811
0.9939853318591831
-0.383851972339987
0.2297206661378585
0.8842954765668182
0.7126673603997815
0.2137069983118748
0.7276700184119004
-0.7809555564443195
0.341311298144334
-0.2793094942302656
0.2486740738432908
0.03063542942992253
0.8507309680391106
-0.01502723000604589
-0.8357037382304017
-0.7019786909042208
0.7024273888378383
0.5546097137297874
-0.7019786904640581
-0.7126673603216747
0.7024273901913128
-0.0341659335962711
0.9038331344147519
-0.01896726628123286
-0.6813617118851349
0.6122957950909718
0.06906591687678072
0.5388176810657922
0.5378445767712061
-1.076662257960905
0.4913328800170131
0.5218942205885342
0.5448216349655283
0.459351553569079
-1.004173188512867
0.4984480507566095
0.4955372812104007
0.6122957941995656
-0.5256211466927447
-0.4655780306635026
-0.555870967277118
-0.5188331829744349
-0.1230403014759387
-0.01244942396570358
0.01244942358392814
0.5109603377151443
0.5233424766508818
-1.042175659434741
0.575093334648513
-0.272804511762994
-0.8844629962385766
0.3432138455420903
-0.6327874279185525
0.3902476787354115
0.0008593846870289574
-0.83040718253905
0.8295477981821525
0.4208710681442248
-0.0197696720361411
0.8705006391108272
-0.9436755955351449
-0.8353063467194022
0.05686852435087243
0.7784378226659816
0.5533659548711669
-0.4365428895933963
-0.1168230659363497
0.6499613594152538
-0.7289770972331672
0.8832871916192667
-0.8309332359881696
-0.05235395548086224
-0.01038436318381415
-0.7896380342001694
-0.1102068720615775
0.7159346975819716
-0.6057278254951677
-0.9380122974492224
0.9276279351263378
-0.7353169069323252
0.6903848722933179
0.0449320347315026
-0.8044262912682156
0.03312839320387637
0.7712978980380879
0.06163984235508393
0.04095072716355686
0.4332188334021629
0.06038840039782493
-0.8500651231821952
0.7896767230251001
-0.6427889605078931
0.5930016687321411
0.8908522483164648
0.07087567374652733
-0.9617279215895974
0.05554590396371895
-0.04829918548929397
0.3797841206743397
-0.3812514914867509
0.06575268351929475
0.8416403669721583
-0.8407809790406139
-0.7317954238395279
-0.8079944121011764
0.01835637951660844
-0.1670224486026745
-0.8501349648366128
0.0192017306218681
0.6252694260428366
0.04091233181231217
0.02209285726384878
0.5312731034189444
-0.8098590353395229
0.842987427393452
0.5658081261546964
-0.8501768507062
-0.8671366214071463
0.03669651403445671
-0.03903797819274923
0.8366564101840067
-0.7976184319083988
-0.02058716031291828
-0.7708334031976839
0.5443377824212823
0.1519479336821825
-0.02679737463581247
0.8972980149162126
0.984496461133323
0.8607153652178318
-0.841513632507717
0.1473187480183478
-0.1473187453210336
-0.1184322556040943
-0.476101100715216
0.03955821178123358
0.2713346741851937
0.03058741075445154
0.3849153193059922
0.8767108543914929
0.003301220775661699
-0.0130076051741806
0.6586180751903232
0.3413819247773643
0.783495324271579
-0.5835222371338121
-0.7780125562135165
-0.8126456630741153
-0.6798004884847704
0.679800488555408
-0.167837688992246
-0.1547069977305531
0.6015131558898036
-0.8118138553854481
0.2103006995558604
-0.4937477931594638
-0.5689569389703901
0.2782125883851321
-0.9721572687159836
-0.9004637552597216
0.8481098017529155
-0.81923452835715
0.8375909077792731
0.648599400820329
0.1345398365211247
-0.7831392373866268
-0.7677136279553813
-0.1459939285640917
0.7248089674620981
-0.5788150391815235
0.02375290032854657
-0.0149315725978581
0.01799610701463482
-0.003064535628782143
-0.3543680564467187
-0.1217330438147603
0.8797257417202747
0.7381296581713047
-0.240359864259567
-0.4977697954144807
0.6213065935799329
0.6853326536090701
-0.4707099386685366
-0.0007579149333563412
-0.2849567969016616
0.02266319262036503
0.7440728510762588
-0.7667360433449419
-0.3235578690596982
-0.07156888820193678
0.07551446790450464
-0.9621700007152564
0.1264662619413976
-0.6772740223374866
0.05280593497601325
0.6410838600382728
-0.693889795221128
-0.7569713679524998
0.0796973456939061
0.5889073982413235
-0.6604762863597167
0.1560390859382224
-0.335998590424877
-0.7718818607907243
0.004168232655583174
0.3712392158676874
0.6012383053577159
-0.02639696176625747
0.02428427262031647
-0.02428426940404424
-0.01789473111876216
-0.05265483586290412
-0.2266546810001279
0.01904041046167093
-0.01573916978342143
-0.7309695312820669
0.2793971209366638
0.678885346400673
-0.6904635558338561
0.01157820939562214
-0.5982736082917959
0.6510795430190571
0.6535528046137431
-0.06464540878647278
-0.6316721046681906
-0.1252992590767532
-1.049618761950375
0.01121617792844032
0.1361025752479283
-0.7083063458154245
-0.7418789698284678
-0.7635346346025114
0.3654820530050977
-0.4114067745746325
0.4706639602429328
-0.05925718289425985
-0.6783371819765656
-0.02996916400265946
0.500252658441067
0.7306792945303502
-0.2332559220774671
0.109815493654222
0.9580017687743925
0.4457325588932058
0.1336684259170682
-0.5794009848953178
-0.6784611252931201
0.0001239359027648864
-0.04456214104294368
0.02963057512805369
0.6375189675115144
-0.7748701192765186
-0.002808972878191649
0.002808975415240383
-0.6001763156700187
0.6487161671637114
-0.04853985225813226
-0.6563682721966108
-0.1135732736698845
-0.6717669712309901
0.04938301020846414
0.6091797785149092
-0.1373327550501858
-0.8177608950889633
-0.5562946892108172
0.569163491658724
-0.01286880747526869
0.6340517692768438
-0.6224735613317355
0.3222130520445688
0.2140212109548226
-0.5362342629215935
-0.1043600033373332
-0.6029299329404465
-0.09095986294677759
-0.1544437586773101
-0.5069116839863692
0.404284902695657
-0.4987399023443344
0.1261539572506755
0.6785245654655497
-0.8046785223865882
0.599177203854046
-0.3740146918947568
-0.0373920835214829
0.06441331928556204
-0.5713250135072933
0.5517684971028181
-0.04032481521822839
-0.5114436815153404
-0.3122297716058582
0.304822323173043
0.007407445906526241
0.4519141871858094
0.1231791504781781
0.05062287666195123
-0.3157827709285176
0.1567033519340842
0.1590794186141093
0.2493964509157723
-0.01860596508120114
-0.2970504483670686
-0.3138097930340565
0.3672368565071744
-0.0534270714397025
0.7911370742118921
-0.6292796811373281
-0.02708859208283711
0.4995200123023094
0.2825332140502039
-0.522893077481933
0.5774365164400245
-0.5774365164589325
-0.2897554108336846
-0.5863902167285855
-0.2954591427568802
-0.5863902166794572
-0.5962458655410532
-0.8384963976021295
0.1700417898206291
-0.5897214645752825
0.821221621672657
-0.003613637122835174
0.1197492711111886
0.4814890379662999
0.0966921506247584
0.185227635597651
-0.03612425237106875
-0.1491033810944173
-0.02055798084641714
0.5928944013390335
-0.9445171230667936
0.4244100276720751
-0.0001488095558563259
0.0003679668084406913
-0.0002191533114738908
-0.6434604458177201
-0.1319235713552175
-0.4654995823952253
0.5991680094594235
-0.5037421178350222
-0.3160735980522702
-0.2552513986768723
-0.2719909022157782
-0.1119865521450296
0.1119865495121214
0.1530617667252508
0.05773647079846163
0.1964438144973601
0.4520579865453556
-0.5716634626957212
0.1061638780974947
0.2485252583329868
0.4661317752827339
0.5338682247197791
0.6436245410067735
0.08076733353016839
0.00191679803513442
-0.08268412270756241
-0.2768808827843869
-0.5408800127970269
-0.5462870723836476
0.114148713327404
-0.1261095358546236
0.01196082214619038
-0.1060251736344417
-0.3860076889256574
-0.04535093505181453
0.6545307128319288
-0.4990078015836648
-0.1444526441135376
-0.3343096736983991
0.2897481292992456
0.1243916505629281
-0.6034262661236447
-0.2039619377849507
-0.2618317041241833
0.0005736171749183704
-0.4215002187396186
0.3217481429581104
0.09975207656092605
-0.08932699710037104
0.2916243304112804
-0.8959210167628135
-0.4579505608027465
0.6339727313948644
-0.7729602266540033
0.6686002232787452
0.3425403471651887
-0.1264607668512067
0.2257293901408105
-0.09926862312278131
0.02860598115306888
-0.5862069209608886
0.02921325670717267
0.5569936640798535
-0.9007210909985836
0.5468909346690275
-0.6653231899253753
-0.09640731999724879
0.1089432333857711
-0.1089432334235837
-0.3165406849960826
0.3632460637538816
0.01653805936717168
0.02319758322812891
0.05756974506853831
0.5047609541611091
0.6643855950411204
-0.7411835893810157
0.02577958905097749
0.02245839448422702
0.001825880438000449
-0.006465601169059528
0.006465599513667514
-0.4133062824604978
0.5364854370178153
0.01524971921329079
-0.01524971913105615
-0.7923619777883086
-0.05988265780899894
0.1215225112217368
-0.4514921783081974
0.5576560609829309
0.4495124782591609
-0.4980523332904348
0.149758786275197
-0.14975878309625
0.0424904083655097
-0.007105429974025528
-0.04091251195925156
-0.9772122246316399
0.5419230009020218
-0.4725634806662269
0.04095073606151876
0.5145937826936166
0.03084519009234108
-0.5454389730820191
-0.615913888252633
0.1169060900977713
-0.329780376433145
0.01349960190039636
0.3162807762420918
-0.1536353686509521
-0.07962053656706901
-0.5407618404196359
-0.04544507410118336
0.1361025704825022
-0.04151957997920094
0.03871059924040915
0.08191822907809319
-0.08191822682702267
-0.5370512565162511
0.4836241889900541
-0.4144308458738251
0.1613228554016845
0.6221724689013524
-0.09791194490459133
-0.006288178752233196
0.006288175663002405
0.532994394956836
-0.07215316526077263
0.006352649357998897
0.02715933109241548
0.03448512744571164
0.6884307988583666
-0.7605839645173605
-0.6625787195228604
0.6354901293432356
-0.1093174119601027
0.3129034123365735
0.7459956349567267
-0.01789473240871802
-0.2666644558808787
0.1481170890033084
-0.7446576450895475
0.4842386482470022
-0.4222738514044475
-0.1013201025239141
0.003575947825328623
-0.01467031604153892
0.02095719486254655
0.4122557613602209
-0.1216938225982601
-0.389749849533553
0.6290413716384275
0.01891504233846911
0.009955579807869631
-0.009955578069512199
-0.3574766274546995
-0.08499325804967153
-0.5606331443400551
0.5570195069343559
-0.2382751037454026
0.4648085604855073
-0.1507486453309726
0.7287864050767184
0.6725917517227404
-0.04151958372675135
-0.6152131313370854
0.5601706962159891
0.2862606321845715
-0.2838056221958861
-0.002455003633291283
0.546163137702653
0.09341027195845412
-0.03877880928616551
0.1971819013470174
-0.1584030916507754
0.1206970232091031
-0.1206970238531322
-0.8587123507601108
0.002440046520464872
-0.1129172840460547
0.1400766151830012
-0.1319970188223402
0.1319970155700952
0.02245838915392534
-0.02418290793290059
0.6712155105878607
0.05903977363367159
-0.3231719507971247
-0.06283573643111529
-0.4712706210070015
-0.04804905876387905
-0.1517851188708984
0.151785115187427
-0.04019372113006407
0.1432066716078435
-0.1432066678572386
0.1369172521822041
-0.1369172541120409
-0.3156648116228235
-0.1145061594379751
0.2266238253487419
0.1030552882157701
0.03485927709398686
-0.8210802893736203
-0.1972154104872748
0.1703345536048212
0.02071579944135913
-0.2654611412767596
0.1257418414644973
-0.1257418381682573
-0.4140851591951861
-0.08465474108622102
0.2365586961263318
0.002230514695854081
0.04039864261063089
-0.5435701980774935
0.5777361317882094
-0.02334122320294154
-0.01685248955423792
-0.02768532510769701
0.02057988611698765
0.00655211500139343
-0.1841917905875512
0.1776396763310227
-0.1076564715164865
-0.2283421165068257
-0.1448526797610462
0.1448526759602406
0.07291281172436088
-0.07291281394882408
-0.01943147989753102
-0.1087030340866078
0.1281345152629841
0.2399881537606865
-0.1827893146292108
-0.02271508128593205
0.02454093623096312
-0.1358786564897181
0.6195028433013674
-0.03907375013162116
0.4217774036794941
-0.04122606550432933
0.06182542254576296
-0.1536119057416612
0.1536119023100428
-0.6361099261841887
0.3089490158833263
-0.07922834575531071
-0.2347543540597001
0.003613089763208632
-0.1227448363377829
0.1631434792756638
0.1940647779657115
0.0977090447945109
0.09473179340409027
-0.06024666781333681
0.07259015554636901
0.04155855816944713
0.0638620334162191
0.1064725187044622
-0.09662297146319838
0.2064384556510759
0.01276455326961847
-0.1123621500546315
-0.1025854483724266
0.09777623944275053
0.004809212492741526
0.01250279597581103
-0.02231101771584832
0.03780018406183526
-0.03780018445831494
0.07443706515895814
-0.05480198487027291
0.05480198450369866
-0.2245481437655914
-0.05053671793901171
0.01155470010234042
-0.103156548602282
0.01622022314136563
0.1083213677771121
-0.108321365831665
0.2938168473004391
-0.2714945156615584
0.1638380436035719
-0.05041386893639074
-0.2210806463919883
-0.01748890250102983
0.01748890358410779
0.3672684559110986
0.2852590995114132
-0.5273870912280748
-0.09398540599566231
-0.03212412734203907
0.528591312319808
0.2123028306355702
-0.1689554169376098
-0.3821219267725009
0.0765639765224423
-0.1478197417400653
0.1874095366300061
-0.03958979611920437
-0.06676280884571334
0.0667628105022841
0.8225596115017876
-0.5605954586845967
-0.002307646238085876
0.01481044799529342
-0.02001046389742327
-0.2866305667304557
-0.01746483115757209
-0.01285567485621983
-0.1317589464603635
-0.572030038322889
0.5559253577099027
-0.5688746044548352
-0.006932439666735042
0.1011156753132198
-0.001826802077480677
0.01669465547481189
-0.167830205640266
-0.3366726700958006
0.2335161221007357
-0.05454410942891279
0.03511263272864776
0.1318367230784866
0.1729855987398937
0.336866256899252
0.2767751268606639
-0.2786019273326105
-0.06387485411325727
-0.1547938431640208
-0.2212547485307405
0.07485540068674502
-0.01099336900067182
0.2142414230122165
-0.197546767033573
-0.08624421282148394
0.1588343667088474
-0.3548533931145793
0.2088169656322214
-0.1925967433401847
0.08965582759195853
-0.4794056770064566
0.1745538604666661
0.1698719286381021
-0.2561161400072233
0.07242077849789649
-0.1942491796884921
0.1767843482937677
0.01742048155737316
0.1414138865182548
-0.03955225794528543
0.06631826348803342
0.4666761313538622
0.02031128523490454
-0.07599604888299594
0.05677397098188867
0.1254062981226785
-0.2608445445382533
-0.2309044887306186
0.5597004882870878
0.1577892555826337
0.07876944044985679
0.07581201022850327
-0.03097633818681527
-0.004095359246973379
0.001640346856141751
-0.03273862189298297
0.1712345081480134
-0.1781669471907716
-0.05503885243763355
0.02223328135296952
-0.1466633375690704
-0.05283529762936538
0.1513996110053389
0.2770913297754291
-0.03958158089597441
0.01648453695311387
-0.2555523144504986
-0.1301572565654634
0.2356246144988781
0.1792752702371959
0.1296737463046189
0.02164468350244413
0.08906076345646304
0.05199561784214703
0.4527653364239462
0.01757376827820927
0.09703672187380515
0.04373199439078253
0.07167638479674469
-0.1154083813890915
-0.2421279890175364
-0.2009199584521417
-0.02016068479983158
-0.2023143452806171
0.2757130036896251
)
;

boundaryField
{
    FrontBack
    {
        type            empty;
    }
    Top
    {
        type            calculated;
        value           uniform 0;
    }
    In
    {
        type            calculated;
        value           uniform -1;
    }
    Bottom
    {
        type            calculated;
        value           uniform 0;
    }
    Out
    {
        type            calculated;
        value           nonuniform List<scalar> 10(1.036154514133381 1.064438826401036 1.021448997974029 1.020342270845061 0.9971961282135637 1.014370464274836 1.034302815004423 1.062704732308447 0.8671919254740247 0.8818493594090397);
    }
    circle
    {
        type            calculated;
        value           uniform 0;
    }
}


// ************************************************************************* //
