/*--------------------------------*- C++ -*----------------------------------*\
| =========                 |                                                 |
| \\      /  F ield         | OpenFOAM: The Open Source CFD Toolbox           |
|  \\    /   O peration     | Version:  2412                                  |
|   \\  /    A nd           | Website:  www.openfoam.com                      |
|    \\/     M anipulation  |                                                 |
\*---------------------------------------------------------------------------*/
FoamFile
{
    version     2.0;
    format      ascii;
    arch        "LSB;label=32;scalar=64";
    class       surfaceScalarField;
    location    "559";
    object      phi;
}
// * * * * * * * * * * * * * * * * * * * * * * * * * * * * * * * * * * * * * //

dimensions      [0 3 -1 0 0 0 0];

oriented        oriented;

internalField   nonuniform List<scalar> 
1171
(
-0.927921824513785
0.9279218244636767
0.7874453859332724
-1.099242874854391
0.3117974890013251
-0.1899721483043901
-0.7651167691047137
0.9550889174882949
0.07207816507244312
-0.1170016362767533
-0.2123760501735979
0.329377686230775
-0.7874453865980975
0.06947048840424593
0.7179748982059573
0.8116502052364224
-0.1779778529047356
-0.6336723523381527
0.8742075445993402
-1.044221438980095
0.1700138944197191
-0.2854750034097438
-0.09756499231655115
0.3830399960702828
-0.03628718382165464
0.5489887081007216
-0.5127015243576108
-0.5045361174666909
0.8249663205558583
-0.320430203192244
-0.4024766348058003
1.04594984800169
-0.1717423052992308
0.3923376832781181
0.04916154379413583
-0.4414992277092422
1.045949340476682
5.069331180279125e-07
0.4433538902298996
-0.05101620877106991
1.056563439318083
-0.01061410600047649
0.5795624519347143
-0.7695345929217497
-0.7242295860036582
0.55667969591429
0.1675498900303438
0.2164428117527021
-0.7209789342815003
0.5503182275217302
-0.9227549196221417
0.3724366914081615
-1.094194207379331
0.6865437749457081
0.407650432558187
-0.5955835692230054
0.5592963910354415
0.01766976021822372
-0.2563445690966413
0.2386748077488207
-0.02293784757382089
-0.5221818347720365
0.5451196828452081
0.4004469573539486
-0.4980119422490643
-0.9189404059173615
0.9415837007415877
-0.02264329483392591
1.067588820709569
-0.01102538486626726
0.9348538219828576
-1.116656075857488
0.181802253829584
1.067040182326391
0.0005486312390032331
-0.6644538422384451
-0.05977574741044982
1.262322933252172
-0.8642509458382401
-0.3980719874037522
0.1480997692857795
-0.1096652358787762
-0.3261395609161443
0.4358047970684714
-0.2855747959396823
0.1915373840160357
0.09403741241811844
-0.5836737755812271
-0.5155690977818074
1.014033945569327
-0.07918012492023355
0.009905222310270839
0.8254825010685312
-0.8353877233652264
0.5718072671405069
0.6905156668638578
0.4393234762830941
-0.03054943421301319
0.430996391830729
-0.8079757004575968
-0.1025067730504136
0.9104824734578225
0.502094666670277
0.2538332390923129
-0.7559279057997029
0.006972027464328615
0.5276367907884165
-0.534608818436181
-0.4899513586314952
-0.6042428548647198
-0.422763677135347
-0.6938923992054192
-0.0270708975189234
0.2703682009861768
-0.2432973027891799
-0.924704091772756
-0.005066981895918457
0.9297710736924731
0.308743741361837
0.07429626550551917
0.7617703497738305
0.04987985588534778
-0.5330854040291023
-0.0624981614940255
0.04603999363062179
-0.8540156971755114
0.07519188893504809
0.8634722262139233
-0.9386641151585605
-0.3468585258096064
-0.04127150010427991
0.3881300258113528
-0.6820375606919444
-0.2426665312579204
-0.6338572757792746
0.7090491616821273
0.6136424419762871
0.2113238739752298
-0.5432509506495569
0.9456555805829949
-0.7790234350531036
-0.166632145531721
0.01334487418285347
-0.01265436632852101
-0.0006905091635678762
-0.4033974906772044
-0.09461445064782062
-0.2408109916841577
0.8544534266750363
0.04740032084497826
0.3351517206191587
-0.3825520411179441
-0.460896884592611
0.9629915514120301
0.6804094996186005
-0.7829162772333969
0.3204365382617504
-0.01704689606017903
-0.3033896431294247
0.930735990744084
-0.9307359907337408
-0.7813270959730485
0.1106654211061071
-0.3230414659027434
-0.7499444943156038
0.7598497154805521
-0.09013726190269254
-0.1434316971598431
0.2335689594346499
0.8649551980851208
-0.03947269793714508
1.054291711710399
-0.8004584748297557
0.1864721136012515
-0.3159717431515209
0.1294996295338688
0.8588402489128329
-0.09706989754951474
-0.6115506275356318
-0.03898876129759481
0.6505393888415462
0.1235367858449713
-0.2307410554865848
0.1072042686238251
0.8056430516173455
-0.9836209028102982
-0.4348400714902334
0.3293995955117907
0.1054404757208982
0.5324287126602668
-0.5553665646944768
1.021914414389099
-0.4561873826608683
-0.5657270317438607
0.5991507334850877
-0.7193721964541546
0.06674380236708002
0.6526283944495501
0.1029123442243939
0.5697261035236555
0.0553868219493806
-0.6251129255764427
0.1943282654463646
-0.08366283832135292
-0.4925901215915059
0.1457315932586351
0.05024036895425766
-0.8865292770128329
0.8362889080202192
-0.4730202888439207
-0.7133121684019145
0.04885832879229061
0.4372874794023226
-0.006291084066384131
0.299911276026272
-0.8552479744431358
0.555336698196736
0.4157427588715542
0.5842572411034057
0.5604665402828966
-0.5144265539254557
-0.3678368612584573
0.03765292280913995
0.3301839402231788
0.6813176692718566
0.249418321068679
-0.5660361946193633
0.5730082237780511
0.1111479143131323
0.8751135410746856
0.01016248579951934
-0.6217131156004921
-0.7491296084962477
0.7993699754802877
0.5307373406499375
0.06982473043654024
0.3020218695958204
-0.3718466001354808
-0.1674719300944739
0.4436252543996326
0.08401153971719144
0.8756851621795301
-0.8036772425531116
-0.07200791971470985
0.6352845457885847
0.310371031588021
-0.4304683898695273
0.5739047537623367
-0.5040800265115848
0.4171703173234019
0.1331479011034286
-0.04675301878946745
-0.5941121062830911
-0.1378709379286541
0.7319830442440297
-0.1497830017096335
-0.7809529868797752
-0.6109846386816281
0.3604975432342951
0.2504870963569198
0.6219727101923823
-0.6118102268148682
0.2392404264371781
1.011302344280029
0.04298936909768433
-0.7491296092003579
0.2344035886827794
-0.2210587057004046
0.6804094972823478
0.8017644984488833
-0.8017644984200101
0.8376709563336424
-0.8331579298809501
-0.004513026523486573
-0.4453689215866649
0.8611116807515184
-0.1473180860458732
-0.3452720331560942
0.7347241464862398
-0.6685074188956653
-0.06621672752471644
-0.7345664559062208
0.1404543504675868
0.1388976493430701
-0.6719830533350463
0.7829162852092098
-0.9503882152499881
-0.3685746402829894
0.291008257238589
0.0775663832409581
0.1458578764790511
-1.009976463403573
0.8641185869001906
0.4812810871876753
-0.0419576108375745
-0.308126271492866
0.5863941520092912
-0.278267880606846
-0.7385494455687804
0.8844073249063403
-0.1570507306942064
0.7313755953556765
-0.8434357434929535
0.1120601479874778
0.9760638188405136
-0.5398244530699097
-0.4362393657477602
0.7550114773850933
-0.0650334186678425
-0.03205732768369043
0.1852054782588299
-0.1531481499050231
-0.7758103307754874
-0.8420592527948025
0.07694249107436123
-0.7499444955348955
0.5136492945074319
-0.5549207931698308
0.09823387189276862
0.7187767984480967
-0.8170106704557869
0.7536426465848238
0.174279167059041
0.5029168141072965
0.497083185911274
-0.05073539084776367
-0.6121434448986001
0.6628788356750159
0.8841117441854361
-0.00842658522156184
-0.75501147739605
0.7993699728317378
0.1913721379355986
-0.4477167102283667
0.01607075958431779
0.003537383983845931
-0.0196081466546356
0.588511337803169
-0.4377343365996834
-0.1507770014787378
0.7179748977549636
0.01051085796020398
-0.110683656405972
0.4375709767145421
0.1509403568827876
-0.01640193689313253
-0.006001783068322579
0.02240372009856202
-0.03106734825828373
-0.0009899721461792299
0.2448142089562916
-0.2618611212198225
-0.9588152319181927
0.001325886550518262
-0.1594452590780166
-0.1237604377698512
0.09438334761774042
0.722180556045523
0.7290092686232852
-0.1447520279047923
0.673013011306198
-0.5747791364881487
-0.2117552348588989
0.3982273460567636
0.6955600700122249
0.02241482775378945
0.2417751371246947
-1.074933072724221
-0.950388217850159
0.3024526489645899
0.7598497145661871
-0.209014026237868
0.06558232473356949
-0.7235064421595137
0.9111229062561436
-0.1876164641429142
0.4155556567960134
-0.02742562605392019
0.7712554869004143
0.2806277943141622
0.3745982041866279
0.06875569864507876
-0.658699840099219
0.6586998401188343
0.2146203695702061
0.6958620981476482
-0.05604627420881976
0.3911979964932657
0.3797585187841584
-0.01563659467063858
0.03170735847214681
0.4486932010525631
0.03258788825877563
-0.7385494444560212
0.5340351971720602
0.2006889445418887
0.30240532347983
-0.1171998562965455
-0.6955600720183767
0.1801028531223887
0.7310200548656115
-0.01014671050841424
-0.8136944256626357
0.8238411361948569
0.6963543787603703
-0.7920433266874393
0.09568894791325
-0.7536426407445667
-0.1498142795039397
0.2112814293186994
-0.06146714901627307
0.07724507819350419
-0.1792983980433365
-0.1118817196562765
0.2911801172547667
-0.009661126812118217
-0.006740805174921792
0.7062826191302453
-0.7164293226256442
0.8861291360160568
0.06895978839984578
-0.3097440358290176
-0.5230051423545327
0.8327491783983807
0.1027469667326774
-0.1027469683375059
0.3286611720559393
0.4789863603384118
0.6079171227631347
-1.086903483224728
-0.194122676409612
-0.5855466170775657
0.7796692934786885
0.0122199851742385
0.221348965468744
0.3766695104061272
-0.2531327383067909
1.014720324367276
-0.5357339674318792
0.6668369647748006
0.9924176608885904
-0.3845005410812894
0.2293514296451019
0.8844073280242744
0.7126650195440944
0.2137988247921691
0.7277848710768755
-0.7809529870430583
0.3413001542803272
-0.2837981249864567
0.257318767417052
0.02647935754615869
0.852050856123155
-0.01092494865902022
-0.8411259076328041
-0.7020509062422643
0.7025995340955697
0.5546310779057094
-0.7020509093249386
-0.712665019548353
0.7025995301957125
-0.03360748952330844
0.9055309612606145
-0.01940182134228242
-0.6813176780308418
0.6122530598432862
0.06906461818560919
0.5387564762526443
0.5385145698527336
-1.07727104610112
0.4890281410046226
0.5256921825152288
0.5476117067053871
0.4584526602509246
-1.006064367008641
0.4953775831041047
0.4970400767762684
0.6122530661618005
-0.5257010232353405
-0.4664737581674436
-0.5557686547105528
-0.5156667025722149
-0.124658939215761
-0.01273208133776734
0.0127320821759446
0.5095900618646829
0.5242381126610097
-1.039904815350594
0.5732741393090844
-0.2712522689991901
-0.8832637064191295
0.3434392537407694
-0.6326795878123233
0.3900130556323229
-0.0001738565686908367
-0.8283063268157437
0.828480183383963
0.4208830014133081
-0.02372145925722033
0.8757723186336172
-0.943601316047205
-0.8348402014655163
0.05741419508346487
0.7774260064199011
0.5506647701211576
-0.4364876926209319
-0.1141770773900696
0.6500711811046789
-0.7292513061340017
0.8845042000444651
-0.8280480394419276
-0.05645616043926097
-0.01319774502557162
-0.7904795003230163
-0.1110376317735428
0.7154837981078218
-0.6044461663327421
-0.9407431134897551
0.9275453681999331
-0.736070442234588
0.6886256282520037
0.04744481399112095
-0.8006235558321326
0.02816483482491806
0.7724587210909934
0.06178707361309427
0.04095989690309989
0.4330591775426305
0.05909713428075506
-0.8496614917105159
0.7905643573104213
-0.6446878780042127
0.5939524803306796
0.8899957569598026
0.072742664341979
-0.9627384214040596
0.05515555634413879
-0.04994055870015997
0.3801244885877946
-0.3815917868938
0.06562003758763914
0.8407778633953765
-0.8409517253827954
-0.7316637609517886
-0.8099892379205894
0.01950973684812659
-0.1685181927998975
-0.8479565929329514
0.01990854553490182
0.6240102911403859
0.0490027216781547
0.01711438071408555
0.5335503746104036
-0.8144072388716836
0.8425720776562268
0.5657270345121622
-0.8520277942738322
-0.8680004489791204
0.03753051468243723
-0.03390436488957101
0.8344022604295017
-0.8004978955201287
-0.01947642216244407
-0.765568121179336
0.5442978177680123
0.1520565627714579
-0.01999502532442456
0.8957673428665694
0.9849595633301792
0.8606868960808358
-0.8407783555479459
0.1475529439042365
-0.1475529455570574
-0.117795592387921
-0.4668495819081869
0.03036188251413528
0.2714041337728734
0.03104851548058054
0.3851090492944234
0.8762909235360546
0.005917942817046109
-0.01557905435011251
0.6586039836865533
0.3413960163332491
0.7835446073997772
-0.5836737758056644
-0.7780436420106712
-0.8114228364139786
-0.6799562290673268
0.6799562290636167
-0.168115634490021
-0.1549258247344873
0.6017513193776818
-0.8113556417232755
0.209604322361338
-0.4939532213236936
-0.5688624160110571
0.2780785640887815
-0.9719709642185537
-0.8989414041271299
0.8424852327707303
-0.819921594442536
0.8394313320798241
0.6484890586260447
0.134510627573489
-0.7829996862079125
-0.7639780220818744
-0.1462802249861497
0.7253278414318985
-0.5790476164401192
0.02265048361728777
-0.01314479344451312
0.01624604007904898
-0.003101245689378411
-0.3529265698885399
-0.1139230103498243
0.8798298846993675
0.7381908727346634
-0.2384520302001447
-0.4997388427614634
0.6240137972987981
0.6856131955597679
-0.4709928265677761
-0.0003572990443729638
-0.28521750201343
0.01512774103914954
0.7464432830462104
-0.7615710239696947
-0.3234819050786671
-0.07167965476787153
0.07591495249041562
-0.9662345207818896
0.1251086174852501
-0.6768450122199018
0.05412241183217632
0.6403232004079369
-0.694445612214093
-0.7566340774846605
0.07978906525114426
0.5894757352528316
-0.661155389946909
0.1561925330953415
-0.3354909360221418
-0.7724453954606504
0.008467373373504864
0.3711603210125124
0.6002463314005144
-0.02634157507101663
0.02213283889330127
-0.02213284032456402
-0.01873385184055343
-0.05269687876080958
-0.2311012286326795
0.02075222484689684
-0.01483431038431381
-0.7234426768342441
0.2794085757888483
0.6784147515990127
-0.6902030537528393
0.01178830231280595
-0.5970430756827073
0.6511654862846749
0.6543762603647499
-0.0649005269510626
-0.6311324678095898
-0.1255016117528372
-1.049721874672124
0.01123854564932871
0.1363144024651207
-0.708314936901667
-0.742170102100565
-0.7639243626728665
0.3658523757273088
-0.407296879443026
0.4680565400861912
-0.06075966054105744
-0.6745493466279249
-0.03376559017602105
0.4996112021303135
0.7306821478174552
-0.2346026650000664
0.1108422286752865
0.9577671501485793
0.4461108792659563
0.1325148524700905
-0.5786257317784577
-0.6775964764142125
0.003047131604263198
-0.04450627828979752
0.03136145785455752
0.6376157216599552
-0.7754866613056888
-0.002818037948596849
0.002818037507079359
-0.59999634859843
0.6495128133342367
-0.04951646469897676
-0.6604820956651648
-0.1138531777684483
-0.6718234142451796
0.05311309639421995
0.6097657339114636
-0.137594313011405
-0.8181036371790823
-0.5641309281294484
0.5719651714445524
-0.007834242552029733
0.6315722295939623
-0.6197839269560907
0.3223085589255024
0.2136996289150623
-0.536008187851741
-0.104554381954178
-0.6027901199894417
-0.09165549047851199
-0.1538854684925841
-0.511017844305348
0.4043532965626058
-0.4989677500298332
0.125973845205729
0.6787364616464663
-0.8047103068596263
0.5991507334796123
-0.3748442209698412
-0.03245267067740689
0.05951011604370936
-0.5705279614491372
0.5514821470997225
-0.04032234155703604
-0.5111598057264156
-0.3126888375792418
0.3053318605208834
0.007356978174434179
0.4507657536233675
0.1225083816883588
0.05158614280857389
-0.3161681103744725
0.1571551293202583
0.1590129812617893
0.2538186539738208
-0.01941507568060366
-0.2970152070384053
-0.3133287715549116
0.3607608056204186
-0.04743203104631551
0.7919455802406319
-0.6292997126459543
-0.03118238310778871
0.4995206461848969
0.2849772662245072
-0.5234293014020442
0.5774419837645763
-0.5774419837636005
-0.2897898108367472
-0.5865192351038417
-0.2955208385358924
-0.5865192353265078
-0.5968860435401985
-0.8384791879797837
0.1699717657131648
-0.5989378250939846
0.8212255921985553
-0.003438650304403384
0.1190323067513964
0.4812140254017186
0.09673572159678967
0.1855348380281157
-0.03616874427863616
-0.1493660930043698
-0.02697266290182863
0.5908248587528382
-0.9427492090322435
0.4197440623706732
-0.003807367520578159
-6.834823221638097e-06
0.003814202468823966
-0.6439481416360026
-0.132108437102316
-0.4658483921326543
0.5983632457420408
-0.5035911115080778
-0.3148361197098822
-0.2556918259853079
-0.2723411303010466
-0.1116747690953704
0.1116747697893507
0.1535380585924607
0.05774337394328729
0.1967733867236984
0.448641463298395
-0.5697980556170079
0.1039496580640123
0.2535113877492918
0.4662604264812339
0.5337395741077609
0.6455386197223476
0.08103891051186322
0.003161941630203739
-0.08420085247065803
-0.2770287217875507
-0.5410749153911002
-0.545128219898019
0.1145631563535728
-0.126443479922377
0.011880323998772
-0.1058376994514789
-0.3855943787711383
-0.04849553953027061
0.6582612892771895
-0.4994098609058993
-0.1445382807113544
-0.3274904751344065
0.2867687333885352
0.1275368722105486
-0.6085447235700164
-0.2042843936244472
-0.2625445391535181
0.0006834377530174596
-0.4209711834030809
0.3220799351140804
0.09889124845089339
-0.08940671022297515
0.2916883725281942
-0.8959312278362072
-0.4575630363361271
0.6312886212511123
-0.7731198066687097
0.6685654247569482
0.3412574298973365
-0.1259126171080036
0.2249136668791559
-0.09900105040911007
0.0313815539414314
-0.5861750267141664
0.02889410333054152
0.5572809231691158
-0.9006539129202634
0.5474180931010576
-0.6652136855269231
-0.1002639806928653
0.109113424375415
-0.1091134267028597
-0.3165254158796976
0.3604208189925499
0.01970366447625433
0.02095355267050055
0.0600853278430799
0.5043957664889058
0.6671594269881257
-0.7391673489993579
0.02449093332371837
0.02035429036563097
0.001778532494139747
-0.00630948278612155
0.006309483594246388
-0.4101661244984314
0.5326745019030165
0.01555944567871271
-0.01555944558226888
-0.7925978198230557
-0.05998021632485328
0.1217672808315613
-0.4508167705492734
0.5547664240631289
0.4495892013623089
-0.4991056663390304
0.1500112919578473
-0.1500112933182003
0.04415483640520165
-0.01244746490550219
-0.04119555513918397
-0.9765329775564611
0.5402936128461683
-0.4709257937196725
0.04095989686430834
0.5150074908677218
0.03053890531258917
-0.5455463963546913
-0.616215735449222
0.116805874587679
-0.3294305287566584
0.0135854256370509
0.31584510226269
-0.1542214975449641
-0.08038118556630697
-0.5408945896380503
-0.04528043489146379
0.1363144033790964
-0.04136621018154362
0.03854816870772874
0.0816779896274358
-0.08167798720331051
-0.5304991923606869
0.4830671536298847
-0.4146972558017653
0.1613048606115243
0.6222397468238713
-0.09741170982861701
-0.005886785698327837
0.005886785801074799
0.533004214499993
-0.07499434343613846
0.006366453359284074
0.02720097945348066
0.03465043003874231
0.6894738078059629
-0.7644681513055646
-0.6626701735337692
0.6314877905832361
-0.110504959405013
0.3135366853774504
0.7456712244748177
-0.01873385074072664
-0.265663555392689
0.1484637143085036
-0.7446297957846798
0.4839072370905532
-0.4242100209067345
-0.1012082445239437
0.003403227233074286
-0.01468575564851346
0.02391419141094669
0.4123464093239215
-0.1216430616099648
-0.3895167454184354
0.6290927252227104
0.01904153109986279
0.009177645780583802
-0.009177646009754367
-0.3551405428209902
-0.08185773035861708
-0.5604400505563319
0.5570014001272563
-0.2377943394825839
0.4647510968764579
-0.150578583667245
0.7301410387637366
0.6706139213553819
-0.04136621028177381
-0.6162878633611415
0.5599302651436292
0.2825799116026237
-0.2789376308580354
-0.003642280028660763
0.5420810826433123
0.09343699134783064
-0.03874215181936089
0.1967399306285529
-0.1579977784378751
0.1204201393691813
-0.1204201370162539
-0.8586522257233068
0.002458344100262957
-0.1131105444376582
0.1403115228314947
-0.1317129492455892
0.1317129502292508
0.0203542948522909
-0.02462065268220697
0.6709378389871714
0.06008221608700627
-0.3228820085267042
-0.06271237010165281
-0.4712941067941485
-0.04491056444589736
-0.1515230436847233
0.1515230450804224
-0.04004601821673956
0.143474469323282
-0.143474470539751
0.136656227088402
-0.1366562252470966
-0.3159816879709522
-0.1144867018649321
0.2262607789031345
0.1031388158749377
0.03481108379613312
-0.8212218616788685
-0.1975745371548213
0.1700822616839799
0.0212898682285408
-0.2647786439864491
0.1260209949404449
-0.1260209960104444
-0.4142388375632963
-0.08472890974645858
0.236078388967964
0.002596413340013453
0.04031178389152715
-0.5443495134582063
0.5779570030079014
-0.0274483452994811
-0.01259767230039909
-0.02557058211107509
0.01312310089189909
0.006536806851853942
-0.1845013137899268
0.1779645068920644
-0.1076710985200717
-0.2278198399660241
-0.1445850894120108
0.1445850906679399
0.07259755912641061
-0.07259755849633401
-0.01914277095053972
-0.1086279594273331
0.127770729671728
0.2357525318315077
-0.1831892116303638
-0.02138966445716479
0.02316819056199957
-0.1305947056488208
0.6136618622564473
-0.03907721127639555
0.4241717220746453
-0.04115538887742445
0.06355909059631584
-0.1533454348798921
0.1533454365352844
-0.6363195799852333
0.3084664289865167
-0.07911500014505066
-0.2343974362802925
0.003656376614647895
-0.1223282222310203
0.1626400068695115
0.1941442736888862
0.09703583593494366
0.09495056075432473
-0.06030013063040643
0.07295041249383495
0.04161274459703041
0.06405071736342288
0.1060315472552162
-0.09892367823068922
0.2097659322214324
0.01199568755486139
-0.1137579873509529
-0.1021871206751735
0.09686220083119355
0.00532491860355394
0.01117664649615657
-0.0221138594530603
0.03750601374760004
-0.03750601364491121
0.07441170745497146
-0.05513993044400022
0.0551399307317712
-0.2244366589680899
-0.05019889548597736
0.01173453166019489
-0.1031697446955224
0.01623608744999409
0.1086329907017071
-0.1086329913866628
0.2930355171267607
-0.271053733230158
0.1633826291330356
-0.05042990636153721
-0.220623828702536
-0.01707351898811136
0.01707351859882326
0.3674206826556726
0.2852077016629953
-0.527736924834165
-0.09394574490756989
-0.03249773254211021
0.5287255378033343
0.2101819358519071
-0.1686277165266188
-0.3817572383459001
0.07659579642710621
-0.1474433474977248
0.1870605448315266
-0.03961719696580707
-0.06702026504778298
0.06702026456569339
0.8222670208998182
-0.5604046279798225
-0.002570077108735792
0.01374672358972289
-0.02003817878884585
-0.2870342672783522
-0.01745347969395603
-0.01287213246783412
-0.1319922149539398
-0.5722010712054091
0.5560230177703596
-0.5685827243028986
-0.00693795415059246
0.09925757877189988
-0.001822391602318828
0.01668921198364754
-0.1674815247150586
-0.3363830218827814
0.2332132770229851
-0.05423432532418165
0.0350915537273121
0.1321042252955574
0.1732276329262206
0.3401984853419228
0.2762886848175754
-0.2781110770156893
-0.06363895033694597
-0.1549300421934094
-0.2208120152980542
0.07466682064631028
-0.01061610090317857
0.2138628845674137
-0.1971736730333947
-0.0862290879281131
0.1591795051857505
-0.3548831005537138
0.2084276815923484
-0.1921915941164621
0.08966872144080582
-0.4791854647234317
0.174188417963225
0.1703755088278313
-0.2566046078491653
0.0728366927916282
-0.1945978167576719
0.1771443374506508
0.01738800513560925
0.1417914976963917
-0.03958047266146287
0.06603832782553513
0.4669658870945314
0.02043249444062067
-0.08014527344099173
0.05628594439163926
0.1256257625714328
-0.2604292106736871
-0.2309425375411564
0.5597069889138869
0.1572903818077921
0.07878800897888714
0.0752800277355383
-0.03105675965615094
-0.0005186066134875878
-0.003123673473307264
-0.03263296299433362
0.1709068242855158
-0.177844778883213
-0.05623108462278668
0.02059811586895566
-0.1469077512804393
-0.05280633283418858
0.1535348315571274
0.277068821922056
-0.04049980839905845
0.01260449846311919
-0.2552454760920252
-0.130580073438508
0.2359955435626566
0.1789331782801143
0.1295332464425228
0.02167128172883511
0.08869351478748934
0.05210095407467065
0.4522948124245517
0.01732061605379972
0.09759162881575179
0.04324907005775887
0.07207820946044412
-0.115327278265776
-0.2425292208941976
-0.2006044654097824
-0.02001936741638614
-0.2021166400427215
0.2752648382301949
)
;

boundaryField
{
    FrontBack
    {
        type            empty;
    }
    Top
    {
        type            calculated;
        value           uniform 0;
    }
    In
    {
        type            calculated;
        value           uniform -1;
    }
    Bottom
    {
        type            calculated;
        value           uniform 0;
    }
    Out
    {
        type            calculated;
        value           nonuniform List<scalar> 10(1.03663984820912 1.064457499357847 1.022242412873077 1.021069766791316 0.9969672293570431 1.012706779372929 1.033828174702833 1.062815637315111 0.8672317985757974 0.8820400736616462);
    }
    circle
    {
        type            calculated;
        value           uniform 0;
    }
}


// ************************************************************************* //
