/*--------------------------------*- C++ -*----------------------------------*\
| =========                 |                                                 |
| \\      /  F ield         | OpenFOAM: The Open Source CFD Toolbox           |
|  \\    /   O peration     | Version:  2412                                  |
|   \\  /    A nd           | Website:  www.openfoam.com                      |
|    \\/     M anipulation  |                                                 |
\*---------------------------------------------------------------------------*/
FoamFile
{
    version     2.0;
    format      ascii;
    arch        "LSB;label=32;scalar=64";
    class       volScalarField;
    location    "1226.5";
    object      p;
}
// * * * * * * * * * * * * * * * * * * * * * * * * * * * * * * * * * * * * * //

dimensions      [0 2 -2 0 0 0 0];

internalField   nonuniform List<scalar> 
808
(
-0.03497205577493446
0.04449220605396453
-0.01131378001906819
0.03597428268894862
-0.3007478510753857
-0.05519452198094109
-0.0150779349578308
-0.02407190959804723
-0.1980772991395802
-0.08466952107630864
-0.01034873647818493
-0.2553948985727537
-0.03064134170657594
-0.01349826676635307
-0.1202923509505075
-0.01414971744539917
-0.1372454908234256
-0.01366199127637667
-0.01242349236255418
-0.05617239144398172
-0.00690660673207668
0.1177195703584896
-0.06187337922080267
-0.07240320713532726
0.1758374806448881
-0.09998600896115671
-0.1535342766953561
-0.02037258252383657
-0.01743512344319786
-0.02574897591718271
-0.02026890176381811
-0.05902909873843885
-0.0227974169155669
-0.01684725062697424
-0.1003518402754608
0.3442382999192984
-0.03918438549227472
-0.01651331163080768
-0.02299520741240865
-0.02652172341299503
-0.09108130968172989
-0.1276628321286842
-0.05163076245181748
-0.02108533407482764
-0.0541381628368078
-0.04091400219329793
-0.01211718863356154
-0.1857203485306521
-0.0272284561582658
-0.2054317858989312
-0.01670078282831921
-0.06795240304491944
-0.06042995846240928
-0.01435848958274938
-0.192470300058422
-0.02854294607736513
-0.01049933266373209
-0.01390120544854719
-0.1011993267589268
-0.04008221620681447
-0.1078831545810518
-0.1270222416867748
-0.01395743112947815
-0.130118432935618
-0.01735648656654933
-0.05142292756709772
-0.1663912494704967
-0.03552382826663245
-0.0149921580073681
-0.4425465383268163
-0.0266469420332872
-0.3036100177242697
-0.02177092801412861
-0.02085612163501747
-0.06603279152440808
-0.01765758598807865
-0.04288763778566701
-0.3611165668008618
-0.03598870503105616
0.04102801276782499
-0.09093987308554979
-0.01707400007182974
0.05700948783074362
0.04430688510537751
-0.01694387985724794
-0.05262540465573428
-0.5443054642116227
-0.2251559821684297
-0.05263115034753535
-0.1122254081347095
-0.05716508241831971
-0.1336757663727838
0.03979093350432952
-0.02489122745106915
-0.06150218916247933
-0.1217600083870089
-0.0383628363257129
-0.05174866164108431
-0.1171205733857328
-0.1408343908095424
-0.05260526354524179
-0.04770350901282111
-0.05487914728028605
-0.04515174183124943
-0.05759404686582619
-0.07419716727242592
-0.04017689754880895
-0.01083149265694377
-0.04053283977714172
-0.1250757348753241
-0.05065453918110573
0.08260614009684165
-0.04263008068170043
-0.007753783430757313
-0.02767651108361164
0.1803906182175838
-0.03918986718004786
-0.270231774334393
-0.02057170611413645
-0.05407623051930052
-0.03617751193485131
-0.0485962784015073
0.01314929054720503
-0.04924087607427358
-0.03509070390219907
-0.2162803463581346
-0.04188191821363443
-0.00462068882830541
-0.076626647942252
-0.06848563628696437
-0.1522239063058515
-0.02118788508927122
-0.07581886786083633
-0.04230220691790312
-0.02293288284209205
-0.0159802288211211
-0.006128553487022161
-0.007600328405545789
-0.05264452311542069
-0.05020301398654173
-0.2095050678471184
-0.05716979351710066
-0.008394589125248856
-0.0224124270967621
-0.1466018695338062
-0.002072966248219263
-0.07689302622927678
-0.02277427134744013
-0.0004045524393062058
-0.01005611853767377
-0.03349081277588698
0.09472833485871962
-0.03912251399710494
0.2523133913758462
-0.2593596363222487
-0.1318388875885239
-0.03760290849172763
-0.09095162700545856
-0.009019819588767526
-0.1130149899282208
-0.1759000488023451
-0.2123748541704718
-0.1826459349142108
0.05594502434843248
-0.06270779520732477
-0.02044102165709259
-0.0672805879936229
-0.1748507985060464
-0.02356718675257908
-0.01873361486996677
-0.05249091142021886
-0.01910190694447199
-0.006686482540314974
-0.1090326338701452
-0.02320697985194256
-0.04575809562240645
-0.06975157233116255
-0.1624258518612015
-0.0334475489964005
-0.3907246584845452
-0.0178298069238622
-0.2246084459447386
-0.04472040544278773
0.03142852284652954
-0.1049794370487998
-0.01517833230797308
-0.04236279621515235
-0.1057846788953641
-0.01781091026021167
-0.09670330795631013
-0.2033001470864901
-0.0724171508641116
-0.02397666278726742
-0.04885699324726413
-0.04314864632631409
-0.2014854665486943
-0.02215488221012657
-0.01916233348539927
-0.01134078056508526
-0.0557810486198738
-0.05122208529411432
-0.02260984264255856
-0.02069551332933745
-0.2403407936236151
0.1276059147740998
-0.2032936168922465
-0.1996910930849183
-0.01173653572324089
-0.0114768393933923
-0.06723283920912494
-0.00974464012848246
-0.5030694441335809
-0.1271059535158772
-0.01932285441731338
-0.001473388164501373
-0.02403816182055239
-0.282734640727047
-0.2758019417843416
-0.00744510100901861
-0.01795845509096751
-0.002305773970143157
-0.3465091945092313
-0.02845290323006673
-0.02930791651091963
-0.01262135859397597
-0.01960879308605192
0.05000227510637741
-0.1201874176740414
-0.01390482972674554
-0.02082966838212443
-0.04398282860699109
-0.0183086541919703
-0.01630097289216223
-0.02343416931240746
-0.06725049800845918
-0.0114706531542344
-0.01897946064826157
-0.008812073090366147
-0.001269606338797602
-0.02942371722641341
-0.001855172257949935
-0.00211658771217344
-0.005949077504173025
-0.02554775950304114
-0.008102434529983151
0.001657920562373855
-0.004087366387663646
0.00114668125898525
0.002359016619098886
-0.008648154491201441
-0.1338505870765671
-0.002978463410566619
-0.000387419581056164
-0.04778701216078092
-0.02139288279717673
-0.0244237012232479
-0.01415153687654642
-0.006137622798681094
-0.02103428296594195
-0.03846230568381313
-0.01472326820513055
-0.012630815507449
-0.01190171073984914
0.005517148764924601
-0.009879073958538038
-0.01292114136266375
-0.01128743608046908
-0.01041093582471211
-0.01002730191073012
-0.01093078039007692
-0.01382821544619149
-0.3001461729815901
0.06023282704549133
-0.0150795216973819
-0.01627898726691226
-0.01265669019742144
-0.01257099816809216
-0.008407947230925864
-0.09957522085993124
0.01017189006608702
-0.01422856135809854
-0.0143530713972456
-0.0107609075280774
-0.05245182556886188
-0.008391456079851244
-0.01399438296216637
-0.009318315960849531
-0.002229427590187215
-0.0104022086086688
-0.0104053812693574
-0.02463749389060531
-0.0160135050051923
-0.0123076512301198
-0.01334125493183015
-0.009547804955047987
-0.01331967101683426
-0.01102418480491294
-0.05832558936568024
-0.0130379500616397
-0.01204713161632605
-0.00894924577961158
-0.01518709832269175
-0.01418395313080176
-0.01572794712326283
-1.376437646403318
-0.09917785853746595
-0.012133897392998
0.02241672271421117
-0.1644307371576964
-0.09399609424078229
-0.01164510763822748
-0.01417465375509823
-0.251456655664716
-0.02992896663221835
-0.01953318604275572
-0.01154678555202765
-0.02012984356563495
-0.01118957075375301
-0.03072623335717544
-0.4130395132680463
-0.01208573143251324
-0.01408536134495334
-0.004689966356668682
-0.01044044225508856
-0.009132995690737352
-0.0141612561230013
-0.009371948240870436
-0.02674134624291014
-0.01146773268778732
-0.1637053669598463
0.01802009621881255
-0.007633143823105701
0.003051081249059897
0.01201377777800296
-0.0480464231831587
0.02898937338162988
-0.01271309267510185
-0.1351460604862024
0.2822594873881168
-0.007801719703194548
-0.01323664402676619
-0.008238437702557718
-0.03339177549823204
-0.1237477321437257
-0.01343644569355948
-0.01222419961146432
-0.01736177720626808
-0.01362827201740773
-0.04125418050601744
-0.2163622974566953
-0.0104841344612591
-0.04218469808252094
-0.03924405300122942
-0.1719910491015219
-0.1576831343872568
-0.1537990480775557
-0.2529991351444498
-0.004766676824916621
-0.02106320282389088
-0.01516454188193144
-0.01340233298285009
-0.03318272546199524
-0.0244178193578122
-0.0142835267187072
-0.01501738863866047
-1.07850181544296
-0.003403035838699527
-0.01373085375720352
-0.01821742301747486
-0.01766262797576373
0.005418803830762468
-0.0139212879208417
-0.02697666537202574
-0.1642698120418655
-0.01355831648609336
-0.02154212748540988
-0.01437608401848677
0.002226727453454622
-0.177978482222378
-0.0131581901340322
-0.1512263986946089
-0.01584096112923618
0.009336114939841215
-0.01420039145058178
-0.02361701448268407
-0.01613259566164909
0.006814381505366021
-0.2724390024253309
-0.02606749024447923
-0.01652673087715197
-0.01222905844594461
-0.01012224447139702
-0.03010598929260551
-0.01412061672761404
-0.02076423675389531
-0.0210432165437224
0.008825942105439731
-0.09984087978163331
-0.02177622680128059
0.009391170250078691
-0.05357496239624137
0.1664568889023495
-0.1042552541722853
-0.3205754916617186
-0.02968915573420263
-0.0255809049470273
0.1495627761549243
0.09507846552919509
-0.00347519489826647
0.05150030644560457
-0.01560722698039158
-0.0139041260517158
0.00242130010922612
0.01054715729730862
-0.06630451121218493
-0.004902919794882837
-0.05697656436867311
-0.0228178656701325
-0.01568652867269216
-0.03650948826323212
-0.03293057595152085
-0.006672893543782485
-0.01466822620722108
-0.03839944406039456
0.03356150712532906
-0.03875194073695663
-0.01360649420412887
-0.1176020360066436
-0.03144686164910964
-0.03915040058788702
-0.6751491353094333
0.01513857081574733
-0.01109513988065972
-0.005342582858954043
0.177506101150501
-0.0936632224077496
-0.03543373605633295
-0.2454673020239991
-0.01592929689659965
-0.01639170750845808
0.06699878787183557
-0.1839243252034299
-0.2260349120304548
-0.1920611041264877
-0.6833609572333507
0.01090862655448322
-0.01944833526707546
-0.01567101156342793
-0.088849790925748
0.1180159393924618
-0.02168096758350348
-0.2505131918218971
-0.03555979541726843
-0.006628856562589427
0.2769155597294775
-0.01100388008417619
-0.09285379188516767
-0.150327277602251
-0.004719821666328881
-0.04098281195407665
-0.04496408747293851
-0.2002569437698804
-0.008556248520368926
-0.04139786382275318
-0.00335027332317525
-0.5493340319313109
-0.1983180241769358
-0.1766114613140473
-0.0231783411892447
-0.007916519748682309
-0.06078971651647222
-0.05761243023850647
-0.01589245258358651
-0.06835719001126889
0.003803379211320528
-0.01805017312089878
-0.09577613636712805
-0.2711735245955267
-0.009074396567078823
-0.02554200839182744
-0.02177799348554672
-0.07509534483016182
-0.09043091638105112
-0.08856183457172022
-0.01116723861548672
-0.919335789601091
0.161000878783035
-0.08221697995447723
-0.2554987369891253
-0.04216918549931041
-0.009650183543602479
-0.2465781989609222
-0.1880462257019192
-0.03245887103206234
-0.1186450748192686
-0.01792273107583768
0.562289256408058
-0.02444749835601185
-0.220405230674429
-0.02578097660203206
-0.004489957161675946
-0.01143588831133587
-1.253607463727658
-0.1839422034884439
-0.231562849964235
0.005356865008497236
-0.03809391537928806
-0.2420549468803781
-0.06608178927604626
-0.05144517254349827
-0.1431075599288943
-0.1892222249848868
-0.06866771425780493
-1.225393998963835
-0.1534909471113633
-0.5293545526509502
0.07841124697387072
-0.00684234690644457
-0.02163755627571615
-0.04340304814079373
-0.03983909401534479
-0.02832571929288041
-0.1317305493458156
0.08030829354896546
-0.004368106069300179
-0.009734041363176894
-0.5720143201663838
-0.8585857595640435
-0.1820578831996393
-0.007873418778506665
-0.1280759806927586
0.00069297668994739
-0.0007708343920298476
-0.002398055387130111
-0.06103438553706946
-0.2371453497381798
-0.0134340549977938
-0.1157770718518201
-0.154749505940853
-0.01317474424439074
-0.03535225439211967
0.02461282450129467
-0.05792361947599398
-0.07064679900218257
-0.4989981725314654
-0.2441039932157305
-0.08081058684820315
-0.07362284526495888
-0.01968311148201426
-0.1145375022376037
-0.1609258490648057
-0.0796735092526686
0.02651960108672214
-0.08551552792805726
-0.04895526211009546
-0.0149549443866196
-0.1135928917732352
-0.2761357695775626
-0.05780180386266211
-0.01835574071483227
0.001730674969549179
-0.01021234868437393
-0.01089271705583485
-0.2280908519614654
-0.01430606554216994
-0.2206506223922896
-0.0107718282522164
-0.06677372905561454
-0.003575573461411876
-0.02321173579551697
-0.3839699081928904
-0.9156043074351292
-0.01127157133855077
-1.048101849029316
-0.6089406514255378
-0.01077937002156628
-0.6541503307396526
-0.1803530854202576
-0.005055355358354827
-0.1270401179073399
-0.01720921837588258
-0.1229163022097865
-0.06657959125402578
-0.07573976090097673
-0.005583844202607728
-0.00334279002234414
-1.336430986865843
-0.01115897079639088
-0.1907621966144275
0.0007202949446966422
-1.013574450867317
-1.236623206156185
-0.08056888989343615
0.01893119420921377
0.1644155603428528
-0.004952975071478885
-0.02298006268924326
-0.004336691627959863
-0.2456329780643247
0.3659499571868847
-0.04146006832867626
-0.211740316946372
-0.01514200508725537
-0.6579005021615814
-0.07415634724197807
0.1908134381609714
-0.2938824540111869
-0.0502704417925651
-0.06943298855962264
-0.01580048776959759
-0.02157819786209323
-0.5826788614018255
-0.148910387048393
-0.09107722828658248
-0.1224063602352643
-0.5557239616954043
-0.04473217899935304
-0.9087341351716614
-0.001111204007429388
-0.2401427877698011
-1.046853856207119
0.1698362277440248
0.2921104143417363
-0.1743063450324841
-0.1924799735728111
-0.2083584214885977
-0.06753509499184658
0.02433449988411445
0.04999430665500353
0.004686925827545079
-0.1572798383856072
0.02503876965799097
-1.356644039129747
-0.08597070718596707
-0.4745787090438909
-0.3305112987518846
-0.2117241686014519
-0.1773706687879625
-0.01695629205353022
-0.01539773555969893
-0.09795564862771745
0.1707625303651369
0.3855258374508938
-0.2194736102161648
-0.1504664358455113
-0.2355597685974716
-0.06294554456902479
-0.1581931262309351
-0.167641354373339
-0.1263287202201338
-0.1137506054542407
0.4670914983351143
-0.2754293590886407
0.4302254379736734
-0.5960737014966191
0.07119736650830329
-0.1968285694276797
-0.06682109811452465
-0.07508150535334406
-0.8829051795501939
-0.2224393566396497
-0.190314294861565
-0.349786155167446
-0.4606047976372945
0.5703197916919077
-0.2067413310050999
0.0009506274660345794
-0.06981197948194159
0.3432589351449445
-0.03672468170477762
-0.1215090591715293
-0.1794896962788868
-0.06451857597065888
-0.01641585730718991
-0.1947571789764798
0.1924174604537629
-0.0126232706754067
-0.09720480482929293
-0.1712505862713568
-0.3134784535789236
-0.3118595107014175
-0.07528271038584217
-0.009956958356477049
-0.07546186864437511
-0.6561515700848781
-0.668216266621916
-0.332012268218991
-0.0583049446357094
-0.05120471230102777
-0.02504432392646389
-0.06853622465864505
-0.05693000091467545
-0.362538260175967
-0.9561815159976624
-0.009331633021865517
-0.08383981851610274
-1.137604586656675
-1.033694638163217
-0.1046295984826337
-0.03948663863339968
-0.06934945174935342
0.3908719484357532
-0.3434306275656711
-0.05238728912703457
-0.5994612504725817
-0.1316809279026153
-0.2518976899580596
-0.2105914133790185
0.4741980801021515
-0.6298945233716252
0.07314701046670899
-0.02914303186649499
-0.5617097130016676
-0.05245156207828632
-0.3609817168674251
0.1069969844811021
-0.19129067447167
-0.06046719652269562
-0.1299953117844284
-0.3623886574253517
-0.08838905236784123
0.5138478998136832
0.08575115921784576
0.4711222821907856
-0.1218464468610742
-0.2022031431982863
-0.5168685345888171
-0.1309579196042999
0.02607255532984432
-0.05428432300428914
0.1024820256065298
-0.3087657886179948
0.2362522432242666
0.007999903425303908
-0.003180918492783388
-0.5127775346008994
-0.1845882546893222
-0.09704925814300554
0.5811484259286948
0.1387071267663854
0.3466644675393156
0.2255485785437844
-0.5613062096072184
-0.2150040125076678
-0.2184585665393764
-0.2362207515923331
-0.06103567014040784
-0.6935852254334912
-0.1939835545927256
0.3060703214278503
-0.2100330573755431
-0.01107530421245516
-0.1687769917312836
-0.01025727758879043
-0.1642356746064179
-0.4393155992349157
-0.0770616928123716
-0.2002443386383996
-0.07403534482615455
-0.1038089449432229
-0.1375773025682605
-0.07344598790698544
-0.4483932855170935
-0.4149854822744082
-0.0263799466999851
-0.07537564668740573
0.3262896053882733
-0.248654475712916
-0.1781066172619292
0.525755920127784
-0.2003205272661357
0.01824618989805229
-0.4507150359774287
0.04569462082040528
-0.06132110390278368
-0.1577324717042363
-0.5852243990693283
0.161978244579542
-0.5803201380214446
-0.535387824455385
-0.1054963843397749
-0.5076261819583074
-0.03690245904944092
-0.1498836073446354
-0.4098563338130058
-0.01627030975628333
0.2864709835715601
0.4894481588276212
-0.1625001727262567
-0.007493206307672692
-0.07266569936974145
0.5252899691875021
-0.03294900794422865
-0.4407765844460977
-0.03232540239393303
0.4602693584027694
-0.01563645224536825
-0.5449352838318259
-0.2403612815731925
0.1760229472046113
-0.3115792291319628
-0.1794571671005545
0.05152325889605874
0.03286880638039925
0.05484397115472887
-0.3006238971995495
-0.1572444307478887
0.4127609663250178
)
;

boundaryField
{
    FrontBack
    {
        type            empty;
    }
    Top
    {
        type            zeroGradient;
    }
    In
    {
        type            zeroGradient;
    }
    Bottom
    {
        type            zeroGradient;
    }
    Out
    {
        type            fixedValue;
        value           uniform 0;
    }
    circle
    {
        type            zeroGradient;
    }
}


// ************************************************************************* //
