/*--------------------------------*- C++ -*----------------------------------*\
| =========                 |                                                 |
| \\      /  F ield         | OpenFOAM: The Open Source CFD Toolbox           |
|  \\    /   O peration     | Version:  2412                                  |
|   \\  /    A nd           | Website:  www.openfoam.com                      |
|    \\/     M anipulation  |                                                 |
\*---------------------------------------------------------------------------*/
FoamFile
{
    version     2.0;
    format      ascii;
    arch        "LSB;label=32;scalar=64";
    class       volVectorField;
    location    "1226.5";
    object      U;
}
// * * * * * * * * * * * * * * * * * * * * * * * * * * * * * * * * * * * * * //

dimensions      [0 1 -1 0 0 0 0];

internalField   nonuniform List<vector> 
808
(
(0.756255207306853 -0.01749874307564818 0)
(1.031493342406331 -0.01261953903362902 0)
(1.112099496154053 -0.006412963610536946 -1.757580047872916e-20)
(1.085118774129348 0.01260684078366553 0)
(1.36478629206052 0.01512468852823405 -3.882275249191572e-19)
(1.038735976669731 -0.009349377912347906 -7.229387259929758e-20)
(1.013911997152886 -0.02110188400002178 -2.370490839713408e-20)
(1.07902287531305 -0.005411768465802655 9.02828412211421e-21)
(1.254904180607811 -0.01981206800887714 6.333424377397473e-20)
(1.084947999493277 0.01041204342455789 0)
(1.010826391830076 -0.007580804917444533 0)
(1.306714753578155 -0.05295867136692434 -3.532288937099864e-19)
(1.086172675848546 -0.001970813351478819 2.038776643938344e-20)
(0.6751723039931899 0.006375645247315327 0)
(1.28052280018099 -0.1135414696341563 0)
(1.081443056264883 -0.0001796334521480657 -3.842295634126382e-20)
(1.227484175163078 -0.1431303714538218 -9.582856101500044e-20)
(1.073923614313608 -6.576361057123398e-05 3.187115542623922e-20)
(0.9915367017931592 0.003761922535890243 0)
(1.026295661363281 0.009634974846082313 0)
(1.034717779155675 -0.01000895680870625 0)
(0.9874936988350996 0.04449256030523258 0)
(1.051133361328576 -0.00591574527558711 5.612070805920133e-20)
(1.053529366261216 0.009301946499663998 0)
(0.9326159935694797 0.1969705069889935 4.601125533236744e-19)
(1.165880012264394 -0.08443065207352866 0)
(1.186198949260875 -0.0184501775635487 1.575750966827849e-19)
(1.077416771331207 0.009500003647778744 5.204067814888216e-20)
(1.083723394160485 0.00233175697398474 5.074557165711288e-21)
(1.071809981013149 0.03088105291706354 0)
(1.075373746876761 0.002793097844009043 -1.175902607131359e-20)
(1.03299585216356 0.006853734632355619 -1.940337812404081e-19)
(1.059953496632045 0.01473509531369286 -2.373265259160288e-20)
(1.08903895870273 0.005548119931677821 -2.932826605470592e-20)
(1.120588520780419 0.03941319871796883 0)
(0.7551280197205836 -0.1241113836187831 -4.538500035489357e-19)
(0.9547660308327018 -0.005877268966744056 0)
(1.068825597532713 0.02227179268767334 0)
(1.068808344442043 0.007321250691655958 0)
(1.073693400712646 0.008953150956476922 -2.834059874548717e-20)
(1.092447419056278 0.02473104995378468 1.107879295657094e-19)
(1.150995165891923 0.003869629055972195 2.17008953547629e-19)
(1.096022511631934 -0.002281824489381701 0)
(1.0155615506198 -0.009038048448434892 0)
(1.134001788212075 -0.09412614442710238 -1.62860071265559e-19)
(1.044097851064044 -0.011586345442886 -8.068356441051136e-20)
(1.058148840215102 0.02661981921231179 -2.772948929772402e-20)
(1.231780485984661 -0.1121053334747462 -5.602845618389111e-20)
(1.067598463847656 0.01209848557158325 -4.209583360291706e-20)
(1.258402912243216 0.01788919395131908 0)
(0.996343166445418 -0.01905611972976828 2.145384794215738e-21)
(1.044682521262832 -0.001829199176257327 0)
(1.087633513052904 -0.002077479315206372 0)
(0.9994440942445757 0.006895235965513239 -1.835950765751155e-20)
(1.250322130909954 0.03447646435956317 -2.340137262591437e-19)
(1.063564292442254 0.01810730355837708 6.072661944027377e-20)
(0.9921940740850836 0.009770363534496606 0)
(1.019836866749475 -0.007136922408100491 2.392191196637522e-20)
(1.107507496867166 -0.0001295244408951192 -1.189621397431836e-19)
(1.061124194024741 0.03102634328112954 0)
(-0.08723772036468423 0.01077129283525849 7.381968123698029e-20)
(1.155255956392307 -0.05164560670631822 -1.900926676220228e-19)
(1.007154423790828 -0.006518153903254544 -2.627579413336887e-20)
(1.186014552737765 0.07024856407094748 -1.231392920438387e-19)
(0.9979608482845306 -0.00928622161859065 3.036629653686988e-20)
(1.08432365511665 -0.005491935556592848 0)
(1.248146604245527 0.09869188225567727 0)
(0.6960744853024521 0.003192438115092484 -7.465015274795164e-20)
(0.98909833060234 -0.01336600944482576 -3.164002942151339e-20)
(1.461416755160642 -0.01808912053651152 4.470969515971889e-19)
(1.060470912170117 0.007604987533589596 -6.722556254608921e-20)
(1.369156606757294 0.09695386269959874 2.895847765671658e-19)
(1.054765271394486 0.006889482556627653 -1.917454011431728e-22)
(1.081163685941584 -0.01384354156792883 -3.849154258174679e-22)
(1.165451949475322 -0.2365230262762857 0)
(1.021697030365687 -0.01475185027780378 0)
(1.016955930390906 0.01779655245451254 -3.09993070374654e-20)
(1.384982126891348 0.3485175004888156 4.166914994136911e-19)
(1.097210164491115 -0.04242544468587588 9.420790406925065e-20)
(1.045287642061498 0.2091632993326694 2.513176762069103e-19)
(1.125380274338787 -0.0602417815993983 1.157504125229765e-19)
(0.9219532836995918 0.005130012054303157 0)
(0.9753622092591394 0.01850960624637386 0)
(1.004115781033721 -0.0489333313727857 2.787222109096078e-21)
(1.009951717493598 -0.01314634688840597 7.611261455595991e-21)
(1.029775768552625 0.02658651802943313 1.389192826581484e-20)
(1.53078201803745 0.03601425879370655 3.260140854088935e-19)
(1.288579278379933 0.07153564333786001 5.523555765442504e-19)
(1.072291101286298 0.003097866723540215 -9.140753995295504e-20)
(1.198182028777443 -0.09188255530263995 0)
(1.033691850634568 0.001929553796517091 1.333887216583077e-19)
(1.165108203442542 0.02267809438487701 -3.208575516091235e-19)
(1.001436403025789 0.03233441234670728 0)
(0.9996259872320343 0.002035377157391733 0)
(1.044490460282265 6.872074789845595e-05 7.798614659750484e-20)
(1.213128501650458 0.1121274896257305 4.1498526993234e-19)
(1.011078014853813 0.006993264316424452 0)
(1.092485172958777 -0.0689438479100504 -1.053103596289158e-19)
(1.150673491942794 0.03823242108962382 0)
(1.214140311170357 0.09677910551387316 -1.951805097067397e-19)
(1.108148439193348 -0.0287564554817548 -7.704909295647458e-20)
(1.027198701396113 0.01178736062449469 0)
(1.085005570914654 -0.004615858549443375 0)
(1.018839947532918 0.02607216759961881 8.075418924189641e-20)
(1.071439740059667 0.05554983582524016 -9.57783907532711e-21)
(1.103837768360183 -0.004129678617438807 6.286648803715463e-20)
(1.111642905447779 -0.09383452974360901 1.502317370788185e-19)
(0.9633420885501743 0.004774311238065657 0)
(1.066012946690376 0.03112072245408392 3.816167851040398e-20)
(1.169285762177936 -0.07634255856330339 2.323220396954459e-19)
(1.051092756382363 0.04627134537890873 -2.904166525807717e-20)
(1.022580660831452 0.06729868348004914 3.724767544407218e-20)
(1.090256545331656 0.02601952354094393 0)
(1.017082782080311 0.01720854326333263 0)
(1.029004290921577 0.009399128738064488 7.883299225854733e-20)
(0.9486518633314832 -0.03357877953220161 0)
(1.052729910793391 -0.005588585240451583 -7.783873083502461e-21)
(1.343224810650344 0.05897427083597622 -1.57692403986544e-19)
(1.079943587324246 -0.01313090519916834 2.625824629997429e-20)
(0.7439365492710135 -0.001728108767330587 0)
(0.5832012638092077 0.1886344973352218 -9.922299811565742e-20)
(0.7062013950298431 -0.002519597545388206 0)
(0.6987868366074483 0.01462509058342155 0)
(1.077628118180202 0.003673966809636934 -6.720259686486056e-22)
(0.9906464778169509 0.01452296067377035 0)
(1.277969043991401 0.1227391604340251 2.496198954745139e-19)
(1.012334571790496 -0.02780331859642127 -7.786413835028061e-21)
(1.046025708801084 0.02015326986890138 1.792932263214277e-21)
(1.058693145584766 -0.0116834002052714 0)
(1.126660994059107 -0.009111996759042605 -5.010921574657467e-20)
(1.268996165588269 0.1396327533100528 -2.292271646859163e-19)
(1.089367277955393 -0.01115300473452997 -8.579199436330335e-20)
(1.070007266284284 0.02683586507604591 -1.098304522582427e-19)
(1.040751921161174 0.04674377093724761 7.018351005932007e-20)
(1.022600288294973 -0.003771044947308887 -3.462569323411985e-20)
(1.060867712167152 0.02353845583398642 5.99551905258632e-21)
(1.132196312825544 -0.0002328202068775623 1.05578107791708e-20)
(1.039280204046596 -0.01571302477937627 -4.820043241924001e-22)
(1.087430577144561 0.03472681724816017 0)
(1.028006146242329 0.01364031139416069 0)
(0.7661469551877003 -0.06534598651500335 -1.809813973525297e-19)
(1.030188549800932 -0.001604693915312034 -6.83785115824002e-20)
(1.129453217292469 -0.006046291189490146 -1.267388373048489e-20)
(0.7034172043278127 0.006577260343553962 7.330963311230361e-20)
(1.174669747894076 0.02035962117538724 -1.92864809053553e-19)
(1.134967552132472 0.007305041790211614 5.077857961358846e-21)
(1.128966570610052 -0.01000791945949077 3.453140611221779e-20)
(1.000937340602485 -0.002935716684765929 -7.412580391335006e-20)
(1.10281807992386 -0.06558272925458557 0)
(0.9874144605419879 0.004233203334947915 0)
(1.057847423932625 0.007062350984938175 0)
(1.005298448603405 0.187789329896675 -2.451396582879811e-19)
(0.7791749080810648 0.01241812338688164 0)
(0.8568974213800681 0.1003612403728686 -8.402250268362544e-20)
(0.07597505448953645 0.03677724733885483 -2.993725247261827e-19)
(1.172176871873125 -0.02967042376093195 -2.244744466215151e-20)
(0.6713247598922555 -0.007298006394373807 2.442503962881851e-20)
(1.169786139248886 -0.1002499321681199 6.884928365002938e-20)
(1.122782846381712 -0.004721891122527674 -5.768146908885586e-21)
(1.154864010244938 -0.04776443754074697 2.181335189831766e-20)
(0.1034311216027726 -0.2227874199938185 0)
(0.240271708227811 0.08015181710834682 0)
(1.25980464791224 0.1118709275090512 1.920613071731028e-19)
(1.021117057171189 0.01978545672580636 0)
(0.7378496384141778 -0.006261617099302625 0)
(1.075366124753378 -0.01162870449224929 2.721581250751968e-20)
(0.9747666922370344 0.002812925748845072 0)
(1.29665918539132 0.1292488803521778 -1.571004356049183e-19)
(1.057435073524023 0.01110355841077941 0)
(0.9937902728656856 -0.00703800705467202 0)
(1.065001742113529 0.008329164751407429 0)
(1.006176425221377 0.02083045615416831 1.891836610555932e-20)
(0.9379594693288813 0.01652117351575736 1.131635893799727e-20)
(1.177592808817801 -0.2000711962549031 0)
(1.00521018687226 -0.005179941294250443 7.896648308699385e-20)
(1.059127989718573 0.00642597476316457 0)
(0.7746731412103497 -0.003277052156846101 0)
(1.218045625058677 0.02892153105871264 1.659963853708663e-20)
(0.7049395643660635 0.001351029637591456 0)
(1.436511846383395 0.08755798864796489 -5.257372121699167e-20)
(0.9951865288911059 -0.006277862719567828 1.703940806917593e-20)
(1.27312086552402 -0.001366567603436836 -2.948814761415393e-19)
(1.059496742933346 0.008973699192915329 1.375446588209585e-19)
(1.000911539102785 -0.01356957443746015 0)
(1.213450730610992 -0.1410037303002586 2.048137363593489e-19)
(0.7331921243348557 0.01378749046644239 0)
(1.098534626293752 -0.005017511283569745 0)
(1.153405079890744 0.06963105312215508 1.984543266160809e-20)
(1.006951681712213 -0.006531631745126651 -3.032768079204916e-20)
(1.12090778917424 0.05324810085704626 -1.7557844548648e-19)
(0.09630799819191437 -0.0881391793938362 0)
(1.072060003510671 0.03909027932220421 0)
(0.6617807180372055 -0.002912584032371809 -6.131396406580887e-22)
(1.012162606505476 -0.01939028306125496 9.547342882497219e-20)
(1.061307245378053 0.0007943825545538069 0)
(1.074837283427048 -0.1278572180713397 3.722120039912794e-19)
(1.002841351822247 -0.006187143708206369 -3.40629088417066e-21)
(1.003112564741364 -0.005083330783184284 7.056226122110232e-22)
(1.093926650385404 -0.009307723165645361 0)
(1.02066743453102 0.02056815118599249 -6.387109559990364e-20)
(1.106533376033102 -0.001569052120241359 6.593127492613129e-22)
(1.074566947735469 -0.0112739351957423 6.62623525361158e-20)
(1.085765049964952 0.02226059554518556 0)
(1.330973893456027 0.161599165578883 0)
(1.002013355935117 0.0002163602724326607 4.413348575830375e-20)
(1.31931370260967 -0.126415766580956 1.563759713766329e-19)
(0.03772654197849683 -0.1889902071499019 -2.456080503748909e-19)
(1.071229917853724 -0.005425607863920358 0)
(1.114398463949629 -0.004054499786579393 1.18475582196568e-20)
(0.7267738487731682 0.01781381262765617 0)
(1.061119053290898 0.008855941813101426 0)
(0.8680441867014822 0.1647241522292456 4.697378784892134e-19)
(1.276106174714044 0.1337918305735826 1.931291891209636e-19)
(0.6543528475328081 -0.003096400955110244 -6.402828851340936e-20)
(1.040386894576932 0.001845158191869269 -6.91879068020984e-21)
(1.054728009243159 -0.0002524435893522241 6.576652238795322e-20)
(1.364526198956544 0.12200747564034 6.723733943555431e-19)
(1.334042263764369 0.2520105898876668 0)
(1.06011729301313 0.003404576973948412 0)
(1.00060976993775 -0.005871690217459879 1.481371436345784e-20)
(0.9928206669237704 -0.006824903271838859 5.227650734325781e-21)
(1.381869475299162 0.1997869286466696 4.262717462681337e-19)
(0.6818020549780466 0.0004753294551524472 9.906267880259155e-20)
(1.005607928429681 -0.002172210036039839 -5.997029874491509e-20)
(1.098230949008791 0.01307212712042149 2.554254891100106e-20)
(0.6694633730482595 0.004975728987426218 0)
(1.066090644045863 -0.01201292871470333 0)
(1.016041398043538 0.1531700886385534 -1.336138929410043e-19)
(1.092141986119068 -0.007744488815870358 -2.506770688406685e-20)
(0.9820818150736887 6.586407119278026e-05 3.291068979467726e-20)
(0.9912111857158229 0.00603136382245501 0)
(0.6382288901313677 -0.001072333970019585 0)
(0.9767420727706726 -0.001177287969090088 0)
(0.6421397518683175 -0.001462271349472955 2.653520909143938e-21)
(1.090048107635467 -0.05553685473446525 1.199003776245955e-19)
(1.112683105914154 -0.002875789793580195 1.178754432558757e-21)
(0.957903464479145 -0.0008800219565006952 3.89617147081039e-20)
(1.016590570022165 0.01000744786633323 1.721778412950159e-20)
(1.067131459389677 0.001576893237406267 -2.547149975767596e-21)
(0.6347040290756008 0.008876474560942257 -3.630622823485513e-20)
(1.005007725489852 0.008261910669455618 -8.258141044815567e-22)
(1.036650458384633 0.006680504334233713 5.401372138736284e-21)
(0.9863037981072683 -0.01094087345144032 0)
(0.6099518759148438 -0.00047305158572588 0)
(1.068766765841383 0.02253767778839529 0)
(1.016954505234226 -0.01644375519485345 1.037593312771421e-20)
(1.023822602970304 -0.01017098309014964 0)
(0.9918318654216931 0.01357058970701627 -9.850317609476906e-21)
(1.009724688081941 0.0008197094083449571 0)
(1.130665775483753 0.001832776249446752 -1.155570586056063e-20)
(0.03742999069968034 -0.144044105567902 -3.864940376318776e-20)
(1.035406338216939 -0.01843781689885001 -6.036437231306458e-22)
(1.041038577496131 0.004460747228405009 0)
(1.080972711287377 0.06840860814600581 8.466463688613379e-20)
(0.9675625530208191 -0.002339834126625531 3.10962084049498e-20)
(1.020313898992302 0.01669222355220145 -2.330806184857881e-20)
(1.002114139697957 -0.002075373273447565 2.462161582920311e-20)
(1.039467946037191 -0.007548589402814531 0)
(0.6408776365809115 -0.004044349238670164 0)
(1.025817356562506 0.02453917038577248 -7.476953143487245e-20)
(1.086593892593667 -0.006128650687534709 4.928370201214225e-20)
(1.016155008250992 0.006335810563040585 0)
(0.9790906832209078 -0.001824652429402577 -1.957121458945116e-21)
(0.8629472113830845 0.0118720013519699 -9.064632131888065e-21)
(1.014026513629639 0.002569045317616371 -9.841276609746575e-21)
(1.023327032889082 0.005934050243215639 1.874042372411684e-20)
(0.9845829918718764 0.004906568660851495 0)
(1.004187734105062 0.01201000602750836 3.420996214207415e-20)
(1.110354172229819 0.0004915382073516275 0)
(0.9277262319061743 0.006034580188945945 -3.100139089443798e-20)
(0.9564732460190924 0.0003894210917872483 0)
(0.9107117121624042 0.2071971878554963 5.07924920197121e-20)
(1.010824859952766 0.06687630044796802 0)
(0.9923872225810961 0.004817073265140969 -2.265911198776014e-20)
(1.059043481532432 -0.05256034016964307 -2.876964467469201e-20)
(0.9926208213566097 0.0008905701920230586 3.312949231598151e-20)
(1.009855050947543 0.006946216169087628 0)
(0.9784654825540281 0.000692192675079981 -3.076265225963485e-20)
(1.172258399027323 0.105068489733317 -3.432527305518791e-19)
(1.069942530922697 -0.2654244408313278 0)
(0.9931281518122691 0.000609373614205704 -2.255993919198137e-20)
(0.9747995008698007 0.001152641302757354 4.955296119847367e-21)
(0.9636032975045445 0.003835045353806867 9.928544815128576e-22)
(0.7459221264849889 -0.001045307782855144 0)
(1.124328694637647 -0.07772067187412068 0)
(1.002932674899808 0.003064640116757062 -2.260546343092862e-20)
(0.9082418986207993 0.01290066138802022 -9.886408713636377e-21)
(0.8487757780917214 0.005377673517848406 2.452465254279442e-21)
(1.014392736349001 -0.007468916641938018 0)
(0.9559828990886841 0.01162927842867683 1.408621351420608e-20)
(1.005552652437268 -0.0002437001789393092 -2.287199276297801e-20)
(1.02291085246575 -0.003364763293390268 -2.545027651820675e-20)
(1.114983140144606 -0.001149338501519504 -4.940622213984179e-21)
(1.119538869183222 -0.000550180485594865 0)
(1.013089500368809 -0.00967958109141589 0)
(1.019640781120823 0.0004020400148054664 0)
(0.9415383529180078 -0.0003737798434433118 -2.009174349298073e-20)
(1.017849862983567 0.01363060843301447 5.429185860658894e-20)
(1.085273419134871 -0.005422040350344422 -2.278261727392512e-20)
(1.040550677361855 -0.008836241551328457 0)
(1.10748851459197 -0.003407105892913155 1.855064724553597e-21)
(0.9944366285886878 0.002263075859938328 -2.231034594578367e-20)
(0.9850261420924588 0.003078082929877352 0)
(1.01078538490203 0.003262428878317171 4.660055105222504e-20)
(1.367099322446832 -0.3146893508569942 -1.129861639090451e-18)
(1.122074864842181 -0.0430774769871845 -1.090033361295616e-19)
(0.9652273075713403 0.00450045159737122 4.48365650579675e-20)
(0.7662228132096573 0.00153685371229138 -3.134495291322645e-20)
(1.223388445416827 0.05318268402346115 0)
(1.224004026738277 -0.1272500714596876 -1.469610508196131e-19)
(1.080766793527348 -0.001174240301076485 0)
(1.008074756604128 0.0009285784669593172 2.280520912067602e-20)
(-0.185687178451558 -0.1405689643889853 0)
(0.9939663834865484 -0.004652298936023617 0)
(1.012415096395581 -0.02312289618008869 4.396498113181037e-20)
(0.7063932815582483 -0.01945822171017072 0)
(1.096789356624904 -0.0147770241924011 2.151125466790661e-21)
(1.042301491723673 -0.007882089279895206 1.79119289922478e-20)
(0.6332094852167409 0.00411860921452457 0)
(1.449544799587099 -0.123243829867989 0)
(0.9862554724985571 0.001389594746858107 -1.078890361924315e-20)
(1.069804278380205 -0.01507354682302854 0)
(1.037809751714671 0.0003954956714905993 2.108956447295888e-20)
(1.081004442352698 0.005539685768501413 0)
(1.01157492502015 0.001429898762669125 -1.081711362416448e-21)
(1.005775088800644 0.003098388850999929 0)
(1.009503073392144 -0.003763575785216168 -5.859531031206733e-22)
(1.004278120314728 -0.02082706211750781 0)
(1.035984380885574 -0.002530111971901569 1.698463916979245e-20)
(-0.175858281215964 0.02801635206865035 2.689277149551092e-19)
(0.7979196722238223 0.02050662287234141 5.292228203373482e-20)
(1.005509468516809 0.001805873346771095 0)
(1.128538106294238 0.01266048656289451 -1.115924524325034e-20)
(1.11919085088267 0.01010370884686904 8.381428528175808e-21)
(1.054576008169142 -0.0128532647871053 -1.295175602856805e-19)
(0.9987805818271336 0.01036410425435132 7.568852179106027e-22)
(1.078709442929147 0.001407341860462978 0)
(1.187839840980462 0.05379356564541135 0)
(0.835364983979875 -0.07667007179249126 4.593576103554914e-19)
(1.09258144727909 0.0009307341896127271 0)
(1.033648594112747 0.007400899845746138 -7.499849596335451e-21)
(1.042424504981147 0.005198324291048642 5.95826275563682e-21)
(1.05592709608411 -0.06000599316541756 -7.566104492271348e-21)
(1.139348847259274 -0.0007787762899021176 1.684260049573285e-19)
(1.086805287980211 -0.005138425599710039 0)
(0.994256382671064 0.001522662285499192 0)
(0.9965580780110397 -0.02657465318741941 -2.364774282325185e-21)
(0.9900497171349318 0.003271811056758021 0)
(1.031482521715968 -0.03799219515926949 6.413663491916713e-20)
(1.290850945797605 -0.09344004107641131 0)
(1.041908416722744 -0.0008826205562709145 -4.112616324240414e-21)
(0.9861707501543561 0.01702166446119697 -8.67560931073322e-20)
(1.032746026104778 0.04182734363036952 -2.390402595167283e-21)
(-0.07790827555532569 0.1547414749753916 -1.691305161063295e-19)
(-0.0704227651269734 -0.3017589083504221 -1.32728666718258e-19)
(0.8974047492903519 0.1385485937795399 0)
(0.288296894952676 -0.03570041598129546 -3.28299037819291e-19)
(1.005194331383978 0.0009495265885577325 -1.307151961323432e-20)
(1.063826550727469 0.00271117966744292 -2.100450132759452e-20)
(0.9912705389703427 -0.01981115414766647 3.028364736428765e-20)
(1.023006132979694 -0.03178528303953893 2.611996338677531e-21)
(1.010081878978456 -0.03195108451298778 -6.590037844491163e-20)
(0.988872154005154 0.004812278225434921 -3.473631639152647e-20)
(0.9929923125659945 0.005187954460360175 0)
(1.025122437051192 -0.002367361194936973 -3.492599520234222e-21)
(1.937703938307467 -0.156049609883943 1.075477290855061e-18)
(1.043009676388922 -0.0001642994848353805 0)
(0.9957024873712929 0.0086036016868051 1.542043375431324e-20)
(1.003416443185627 -0.0003441685454756046 4.033050594002084e-20)
(1.1600041348545 0.150062644246658 0)
(0.9988398897901902 -0.004710656582300185 8.250215155777393e-21)
(0.9500584767320591 0.001086086901061539 0)
(1.037836492273643 0.04176338539294096 0)
(1.310896132110567 0.1603237957957785 2.350296994917746e-19)
(1.082669135581246 -0.0008664770464113757 2.305918513126164e-20)
(1.017123066707816 0.02968489251885701 4.6048447641165e-20)
(1.085894144676886 -0.001749669725936369 -2.22321777951683e-20)
(1.048981608861274 -0.01139518704346872 -8.901580495067723e-21)
(-0.3855021634590531 -0.05278510662819896 0)
(0.9996126306683881 0.01378276339149901 0)
(0.1114700257955235 0.05440180420230647 -9.081304149412443e-20)
(1.00704029922389 0.02074244910824588 -4.131786260719042e-20)
(1.000298515050123 -0.02049565551447775 0)
(1.001497106792189 0.00550195389533166 -4.956058629187811e-21)
(1.081916919558208 -0.0424898362877747 0)
(0.9941759292501146 -0.01704680255065517 -7.916195523371863e-21)
(1.100806228468555 -0.05945119307322155 0)
(1.445714587256111 0.1751929212559641 0)
(1.054799074338591 -0.01220379780691985 0)
(0.9904349167778437 -0.02451516856784068 -4.067122750225248e-20)
(1.000531507870835 -0.0437917952521626 -3.264555342005396e-21)
(1.01401534187032 -0.01992567005666969 -1.892311725887559e-20)
(0.9967947643120726 0.01656137158621463 -5.597733965421923e-20)
(0.9958323812726423 0.01043665831286841 -1.502829763213654e-20)
(0.99470205268527 -0.0286804023898347 0)
(1.00260937551042 0.02372447377566147 1.940044777489251e-20)
(1.056509997240007 -0.03759286237290877 0)
(1.111443269825469 -0.03573991212947192 2.607860449269381e-19)
(0.9957154598276915 0.01676620414788548 4.614338533575173e-20)
(0.6150487899240754 -0.008686355702894069 0)
(1.14146486976465 0.157199955412098 -2.344773356530459e-21)
(0.8499248332886175 -0.08772907638350699 0)
(1.137723165068923 0.0730728577827332 -2.716594022427643e-19)
(1.31730123933648 -0.3896189678699634 1.297810313662354e-19)
(1.068870857901195 0.06317741007596681 -1.25462768708605e-20)
(1.011207169966998 -0.03216478850714399 0)
(0.9562437440380454 -0.2165974356839772 0)
(0.5233696180517932 0.1611458412547452 0)
(1.016438186702235 0.009818166770073224 1.273901470522344e-21)
(0.6914355520141875 -0.02803355913921619 0)
(0.9995979483539379 0.01701354461715983 3.557387293499137e-20)
(1.026903442318736 -0.004606219146731057 -2.769306117759289e-20)
(1.078967356540275 -0.008086987462265426 2.751353856933967e-21)
(1.049150779506281 -0.0253621243637422 2.998038029686488e-20)
(1.042487380116132 0.01181403877731003 0)
(1.064070388228686 0.0225368439900071 -9.010495569228369e-21)
(1.049479014018867 0.03602070195107501 -1.814384406668187e-20)
(0.9833768323772514 -0.02281902822457577 0)
(0.6249084457269344 0.005097842887595542 9.171452294452288e-20)
(0.8941491849270256 -0.005912168338353658 -8.846916918341246e-20)
(0.9093809525381776 0.005279538445820544 1.450087871688866e-20)
(0.6295953557542854 -0.006429122706030081 1.406544493931992e-20)
(0.9804053123921729 0.001136140134490719 2.507156983086463e-20)
(1.004433183988119 -0.01745365037885164 -3.530643262658245e-20)
(0.9828091130784012 -0.03809189293370775 -3.228943745443447e-20)
(1.085578612875177 0.001658024048117492 0)
(1.020151547718194 0.004986722036290595 1.011196312488112e-20)
(1.132159459360899 0.04889909311199379 1.31364873225036e-19)
(1.03131901203049 0.04072548070715752 0)
(1.022628223074121 0.002544845694248231 0)
(1.586116878582206 -0.1676989004761967 4.407940174514992e-19)
(1.058659626678698 -0.04766662835813068 0)
(1.017203719034649 0.009544753091266019 -3.793466176331844e-20)
(1.083077743647614 0.005928199214240247 0)
(0.4870634033646292 -0.01350451312868597 0)
(0.01199109962422183 0.02404183912396372 0)
(0.9912955678959214 -0.02422530042482572 1.227324896477396e-20)
(1.302552080669554 -0.09587696801462697 3.741419519458816e-19)
(1.033067343766591 0.0347552420867631 0)
(1.022263437353998 0.003515751125925683 -2.232920308345344e-20)
(0.9495766167454694 -0.160142473452613 -1.398263593937757e-21)
(1.256664570924644 0.07804271344473507 0)
(0.5966199052144006 0.7280149333133095 0)
(1.313436265995875 0.1465903404762696 1.081662877552202e-19)
(1.679428291158888 -0.02547421889583097 0)
(1.050227659479738 0.1172108402538961 0)
(0.7106520806440763 -0.02115283860093402 3.839486298210952e-21)
(1.048204485767068 0.04361928130503032 0)
(0.7582489631807239 0.1268416390698054 1.298377346686234e-19)
(0.9967715233000248 -0.01650129945380908 3.572079960000867e-19)
(1.038005097890445 -0.04210085560230149 2.78243329047987e-20)
(-0.3824595214248958 -0.0236114698956922 0)
(1.072287177936847 -0.01642541527126849 0)
(1.085544335075937 -0.003834877411279503 0)
(0.6494643346552739 -0.5058285516421869 -2.461670272639439e-19)
(0.9894850094736488 -0.001270212488095349 0)
(1.092482157882917 -0.02134459671481779 4.988213239301889e-22)
(1.186897758586914 0.1211058600983838 -2.002453514507712e-19)
(1.095563594797329 -0.0495282563518768 0)
(1.006227309622863 -0.02114262729578328 0)
(0.7775370961100986 -0.1795688673264678 -1.63330448894789e-19)
(0.8792175134020491 -0.1301860824962037 1.500386372590627e-19)
(1.031471191681648 0.01485645501109912 -2.195705593187976e-20)
(1.023117360026551 -0.008928824727855795 -4.537659881692979e-20)
(0.8805456365137652 0.01240520813606446 2.928640940265391e-22)
(1.50720720904772 -0.1942381339600265 0)
(1.308490009814188 0.117385958755808 3.000250840174998e-20)
(1.24253103153643 -0.07359633522163583 -3.264672356216328e-21)
(1.095690756836843 -0.01848559477458775 -3.921207439040319e-20)
(1.0349940546651 -0.01354315394006145 2.681497873380075e-20)
(1.092837637780472 -0.03905514821384482 9.213414773142375e-20)
(1.031704814077734 0.02053973924749398 0)
(1.048189046949207 -0.03786538873977068 0)
(1.11595439902203 -0.008938400664547458 0)
(1.094684022394139 -0.04102173648487331 0)
(0.9982059486438077 0.01115047512663209 0)
(1.149456440889246 0.08195912446576221 9.565222611126715e-20)
(1.337539155518881 -0.1522582119627669 0)
(1.035761708471197 -0.02665330334744248 -2.311838520405247e-22)
(1.048259371603081 0.05116036783563203 0)
(1.010280098610246 0.01442938508248381 -3.928308394959091e-20)
(1.033865025667782 -0.007330209529577383 9.157001983644293e-21)
(1.088924989851406 0.01348020559568139 -3.248353420547661e-20)
(1.085261105655562 -0.02793107153287727 0)
(1.070539226455142 0.006242365053806936 0)
(1.106781574032422 0.09396802918995288 -1.417023896698776e-18)
(0.9356286549955999 -0.1505947129425868 -7.068036487878777e-20)
(1.169773137589898 0.1164534670185726 1.142989515930983e-19)
(-0.4739160981297614 -0.01166371723360807 -2.90149373753965e-19)
(1.017861725984747 0.0289116516175054 -8.81255520219562e-20)
(1.005141802497794 0.004907649974970401 0)
(-0.2633028208299813 0.001737960950155395 3.556556388813277e-19)
(-0.03755641773027095 0.2870636828242296 7.685232521029184e-21)
(0.9952149826381129 -0.006254525685490269 9.653281154444495e-20)
(0.1860027827336431 -0.04408742207095134 1.334398774671345e-19)
(1.084748495317416 0.08450748867230636 1.428406070966213e-20)
(0.09394022327658572 -0.111912307674952 -5.523253778823051e-20)
(1.10839171589868 0.002979484166450051 0)
(1.101791653904475 0.2548249487673404 0)
(1.021235013305535 0.02143242806420979 -1.724383625625411e-20)
(1.06568807443137 0.05083954212367606 0)
(1.026698859679701 0.02393058253955427 -8.878359445471313e-21)
(1.264626396009747 -0.5496454420276505 8.055979600072383e-19)
(-0.1185717921177213 -0.2320956270546786 2.159433827533716e-19)
(1.300885718689253 0.1158990597471607 -6.286694545169033e-19)
(1.121617388899698 -0.003004093970435691 0)
(1.1208235283547 0.1019193708565805 0)
(0.5259284454471033 0.07960834086275898 2.478700286014084e-19)
(1.023794850127206 -0.02028969795170014 9.384327605464676e-20)
(1.006611846300425 -0.02346346119390445 0)
(1.210165873118848 0.2702018918161498 -9.559809050687683e-20)
(1.263922650240324 0.1325907181706104 -1.564719621525715e-19)
(1.026606557505199 0.00335138477966246 1.547233580990955e-20)
(1.301058130235001 -0.08496563672509361 -5.004377011271482e-19)
(0.2981074324710958 -0.01780232649976476 2.790314454824583e-19)
(0.8274730033093021 -0.1466104079752354 6.756584065798438e-19)
(1.039358337733306 0.04917320687955051 1.071727740886182e-19)
(1.038362623526122 0.002706079098043206 1.817948453296218e-21)
(1.001216197182665 0.01924039356957061 2.958192738024309e-20)