/*--------------------------------*- C++ -*----------------------------------*\
| =========                 |                                                 |
| \\      /  F ield         | OpenFOAM: The Open Source CFD Toolbox           |
|  \\    /   O peration     | Version:  2412                                  |
|   \\  /    A nd           | Website:  www.openfoam.com                      |
|    \\/     M anipulation  |                                                 |
\*---------------------------------------------------------------------------*/
FoamFile
{
    version     2.0;
    format      ascii;
    arch        "LSB;label=32;scalar=64";
    class       volScalarField;
    location    "25.5";
    object      p;
}
// * * * * * * * * * * * * * * * * * * * * * * * * * * * * * * * * * * * * * //

dimensions      [0 2 -2 0 0 0 0];

internalField   nonuniform List<scalar> 
808
(
0.116806
0.0173273
0.0576103
0.116608
-0.234613
0.0165746
0.00623281
0.0247977
-0.132554
-0.0288563
0.0446211
-0.149447
0.0226186
0.0123672
-0.194261
0.0198769
-0.193762
0.0156904
0.0506326
0.00969801
0.0475518
0.39566
0.0837406
-0.00627181
0.474296
-0.158017
-0.0646791
0.00788555
0.0138754
0.0254499
0.012783
0.0185296
0.0280476
0.0120282
-0.0877544
0.63525
0.0161235
0.0330297
0.0217573
0.0228997
-0.0549561
-0.0651279
0.0422684
0.0284919
-0.2018
0.101201
0.027341
0.0057587
0.0201223
-0.173162
0.0122836
0.0134508
0.0536675
0.0071824
-0.0575887
0.0174236
0.0112827
0.0441075
-0.0261926
0.0116131
-0.30656
-0.0022252
0.0301671
-0.182853
0.0328446
0.0532452
-0.284343
0.0286208
0.0471683
-0.284782
0.0264229
-0.319661
0.0215652
0.019239
0.182683
0.0242421
-0.000618878
-0.0358442
0.0133188
0.334797
-0.110266
0.0218937
0.0401764
0.273662
0.0297751
-0.0209282
-0.36179
-0.0759976
0.0288457
-0.153375
0.0380392
-0.107845
0.271755
0.173112
0.0496442
-0.26911
0.0254753
-0.133934
-0.113996
-0.243679
0.0168126
0.00576063
0.039575
-0.0129684
-0.0810775
0.0690316
-0.241297
-0.0110511
0.0146483
0.0245131
-0.0526133
0.351739
0.0217804
0.0133311
0.0280552
0.460372
0.016742
-0.272406
0.0219627
0.0560396
-0.255988
0.0413597
0.0163142
0.0565628
0.127383
-0.0224354
0.103857
-0.0026894
0.0273201
0.077538
-0.323342
0.0221009
-0.0473456
0.144703
0.022761
0.0149877
0.071908
0.00479584
0.0236924
0.0115471
-0.234687
0.0452315
0.0780371
0.0249451
-0.00393081
0.0312129
0.0944482
0.156117
-0.179056
-0.00042739
0.0231999
0.363531
0.0309514
0.551488
-0.248312
-0.0715033
0.0180411
-0.203628
0.0724833
-0.0942275
-0.303643
-0.239925
-0.314286
0.0209635
0.0695272
0.0251567
0.0230247
-0.330814
0.0175869
0.0329153
0.0394252
0.176062
0.0435681
0.118945
0.0199007
0.0687875
0.0814699
-0.15885
0.0271211
-0.346322
0.0318043
-0.10453
0.01931
0.263935
-0.210819
0.12942
0.0254842
-0.151007
0.0329261
-0.10503
-0.234339
-0.0645515
0.0225157
0.0793376
0.0200793
-0.210242
0.0225578
0.0257592
0.00774601
0.0955775
0.064939
0.0232029
0.0303723
-0.32088
0.390031
-0.217776
-0.297346
0.00961172
0.043377
0.0226648
0.0039971
-0.395267
-0.313962
0.0196735
0.0140548
0.0213229
-0.328827
-0.00526671
0.00413237
0.0193419
0.0197166
-0.0538605
0.0256354
0.0252885
0.00532355
0.0303195
0.13816
-0.314286
-0.00194537
0.0135923
0.131182
0.0146462
0.0160763
0.0119699
-0.0974759
0.0268794
0.0118401
0.00186775
0.000365815
0.0195183
0.00396838
0.00322666
0.00450079
0.00709739
0.00242951
-0.00242909
0.00940486
0.00670251
-0.00461751
0.0462904
-0.312304
0.00159556
0.0149547
-0.0867652
0.00870442
0.011499
0.0247038
8.26234e-06
0.0198844
0.144427
-0.00139378
0.0177038
0.0134486
-0.0364471
0.0407487
0.00858195
-0.0138106
0.0284594
-0.00767418
0.0749717
0.0114759
-0.392129
0.29518
0.0281128
-0.107169
0.0173854
0.0277891
0.0187563
-0.219206
0.275273
0.0127136
0.0409369
-0.0130338
0.0844294
-0.255407
0.0179205
0.0676936
-0.0177412
0.0247614
0.0830031
0.0254006
0.0298629
-0.000536502
0.00695801
0.0103537
0.0260147
0.046121
0.072082
0.00740365
0.0228213
-0.00343513
0.0197644
-0.00263598
0.0229909
-0.50326
-0.0812253
0.0766186
-0.0361673
-0.181908
-0.251026
0.0229548
0.0214799
-0.300354
0.12674
0.156535
0.0203645
0.0190608
0.00409272
0.00512326
-0.221471
0.0378189
-0.0027953
0.0354785
0.047051
0.0227253
0.0336498
0.00939142
-0.0099331
0.0327734
-0.266255
0.0803232
0.032633
-0.0303779
-0.0487977
0.0148097
0.24949
0.0368615
-0.163237
0.55612
0.0789592
0.00505921
0.03312
-0.0988966
-0.0263907
0.00445892
0.0362256
-0.00678354
0.0315382
-0.0588225
-0.198411
0.0116728
0.120908
-0.0285951
-0.252948
-0.30521
-0.314564
-0.307539
0.0392998
0.0258494
0.011898
0.00941021
-0.0424279
0.00973653
0.0287878
0.00175815
-0.497369
0.0658556
0.0192383
0.0363562
-0.131238
0.061589
0.0113429
0.111361
-0.351521
0.0395676
-0.0103211
0.0196976
0.0946388
-0.274929
0.0195377
-0.253602
-0.00124797
0.0877154
0.0410827
0.0134705
0.0319123
-0.164397
-0.338209
0.00251663
0.00716784
-0.162499
0.0305167
0.00436683
0.0180309
-0.0130795
-0.00105895
-0.297329
0.0327961
0.0142345
0.0245795
-0.245618
-0.254102
0.0850515
-0.0105044
-0.0635626
-0.0441804
0.427244
-0.194418
0.00949967
-0.111405
0.0153998
0.0237369
0.0290737
0.0801987
-0.00632494
0.0107079
-0.048301
-0.013922
-0.00477148
-0.00673276
-0.0124757
-0.0117699
0.0267129
0.112913
0.0390086
0.0207484
0.00999567
0.0445027
-0.0254082
0.0293372
-0.373298
0.0447172
0.043964
0.023928
-0.186914
-0.286914
-0.0214552
-0.0866411
-0.00636888
0.029184
-0.323189
-0.242221
0.264211
-0.314121
-0.448134
-0.11718
-0.121791
-0.0189608
-0.288237
0.359099
-0.076205
-0.285447
0.00737668
0.0782754
0.57366
0.0135453
0.00813041
0.0724946
-0.0794579
-0.0110389
-0.357418
-0.212329
0.0158482
0.0617532
0.0159753
-0.260108
-0.312799
-0.167312
0.0193675
0.0447815
0.105287
-0.0127697
-0.0701245
0.091402
-0.00274104
0.0202303
-0.168933
-0.243453
0.0352925
-0.0315728
0.0194534
0.0216077
0.0780859
-0.0363181
0.03966
-0.457321
0.457398
-0.224182
-0.268521
-0.0163525
0.011335
-0.259574
-0.245154
0.11858
-0.328015
-0.0803925
0.874348
0.0160087
-0.348931
0.00910004
-0.023461
-0.00769764
-0.452367
-0.250468
-0.307498
0.00652658
-0.1227
-0.353864
-0.00170952
-0.0179538
0.132007
-0.319006
0.0442373
-0.493933
-0.266625
-0.325802
0.0128196
0.0285359
0.00997904
0.119219
0.126683
-0.0130488
-0.271392
0.309469
-0.0120541
0.00151892
-0.431049
-0.490588
-0.33342
-0.0120347
-0.342158
-0.00771598
0.0697318
0.0378564
-0.160182
-0.231639
0.0187562
-0.293641
-0.216136
0.0102317
0.00292479
-0.329403
-0.00158657
0.0507953
-0.37517
-0.316251
-0.089209
0.122825
0.0267445
-0.321924
-0.242569
-0.274682
-0.0422142
0.0603855
0.116925
0.00584225
-0.322884
-0.23875
0.122741
0.0262824
-0.0597676
0.04074
0.0448046
-0.274626
0.0351771
-0.269599
0.0545632
-0.255592
0.0852154
-0.000744481
-0.304798
-0.392547
0.000870703
-0.466981
-0.453791
0.0508709
-0.0268984
-0.243256
0.00994565
-0.281997
0.0217548
0.107116
0.0614547
-0.265984
0.0022387
0.113331
-0.393
0.0230792
-0.278317
0.0220097
-0.314283
-0.446027
0.097203
0.300548
0.453551
0.00982103
0.002077
0.000269293
-0.334885
0.662762
0.0218792
-0.157361
0.0176041
-0.0723266
0.0786084
0.510297
-0.310553
-0.0436615
-0.031697
0.0293866
0.0212614
-0.388956
-0.259338
-0.285448
-0.248568
-0.275133
0.00252733
-0.357097
-0.0293936
-0.211261
-0.258775
0.54376
0.616513
-0.223506
0.110067
-0.24913
-0.0192714
0.0135086
0.440581
-0.00225837
-0.312976
0.0195698
-0.446359
-0.00633134
-0.151306
0.0183386
-0.258008
-0.209662
0.000637217
0.00273707
-0.317224
0.447548
0.696743
-0.331804
-0.246436
-0.324867
-0.0507487
-0.250247
-0.24088
-0.130599
-0.315111
0.780621
-0.283575
0.749131
-0.408911
0.331098
-0.310675
0.0152676
0.204894
-0.437181
0.218877
-0.211431
-0.254264
-0.282515
0.890592
-0.256504
0.210949
0.146997
0.648778
0.123699
-0.247304
-0.211653
-0.139714
0.0154912
0.12496
0.520812
0.0136402
-0.00168542
-0.241974
0.158625
-0.124748
-0.240922
0.0380167
-0.216076
-0.162117
-0.108474
-0.363598
0.0128135
0.104615
0.00558427
0.0968974
0.10786
-0.273379
-0.302493
0.00114695
0.0313201
-0.405583
-0.450131
0.213636
0.22054
0.091352
0.696057
-0.0832637
-0.298481
-0.328639
-0.243989
-0.0627125
0.118048
0.784053
-0.390019
0.374703
0.00206554
-0.363291
0.178718
-0.0320029
0.385694
-0.111582
0.0259451
-0.325422
-0.0825333
0.191135
0.822311
0.339393
0.783945
-0.328002
-0.237051
-0.413106
0.201444
0.29286
0.0777771
0.411348
0.131191
0.510646
0.30741
-0.00776276
-0.190899
0.0214139
-0.254795
0.899811
0.419485
0.678755
0.528442
-0.217128
-0.326289
-0.245219
-0.281335
0.0627565
-0.405152
0.0987706
0.62138
-0.35678
0.00891842
-0.284814
0.209362
-0.272504
-0.307523
-0.137165
-0.222637
-0.259416
-0.280323
-0.334061
-0.103941
-0.413198
-0.136991
-0.317054
0.17444
0.658137
-0.167927
-0.318705
0.85025
-0.316296
0.286477
-0.186213
0.386173
0.0887605
-0.335283
-0.336185
0.475819
-0.278077
-0.268729
0.187059
-0.225674
-0.00626109
-0.24338
-0.0740203
0.0355526
0.576273
0.793639
-0.243002
0.227972
-0.249195
0.838833
0.000638741
-0.258204
-0.00671198
0.77268
0.231654
-0.26582
-0.237983
0.457889
-0.164469
0.0714014
0.384421
0.277551
0.299178
-0.200593
-0.241643
0.703014
)
;

boundaryField
{
    FrontBack
    {
        type            empty;
    }
    Top
    {
        type            zeroGradient;
    }
    In
    {
        type            zeroGradient;
    }
    Bottom
    {
        type            zeroGradient;
    }
    Out
    {
        type            fixedValue;
        value           uniform 0;
    }
    circle
    {
        type            zeroGradient;
    }
}


// ************************************************************************* //
