/*--------------------------------*- C++ -*----------------------------------*\
| =========                 |                                                 |
| \\      /  F ield         | OpenFOAM: The Open Source CFD Toolbox           |
|  \\    /   O peration     | Version:  2412                                  |
|   \\  /    A nd           | Website:  www.openfoam.com                      |
|    \\/     M anipulation  |                                                 |
\*---------------------------------------------------------------------------*/
FoamFile
{
    version     2.0;
    format      ascii;
    arch        "LSB;label=32;scalar=64";
    class       volScalarField;
    location    "11.8";
    object      p;
}
// * * * * * * * * * * * * * * * * * * * * * * * * * * * * * * * * * * * * * //

dimensions      [0 2 -2 0 0 0 0];

internalField   nonuniform List<scalar> 
808
(
0.0954859
-0.00598133
0.0224348
0.0954498
-0.228937
0.00247373
-0.0134467
0.00916976
-0.133571
-0.044211
0.020583
-0.14783
0.0058346
-0.00877182
-0.31756
0.00853145
-0.33228
0.00704263
0.021733
-0.0131618
0.0243103
0.362668
0.0502395
-0.0243215
0.441122
-0.212028
-0.0725868
0.00555748
0.00840795
-0.00547665
0.00856769
-0.00253106
0.011865
0.00614104
-0.102676
0.611983
-0.00645868
0.0038228
-3.22576e-05
0.0126777
-0.0723573
-0.0753534
0.0127809
0.0037757
-0.239209
0.067115
-0.00464649
-0.00200676
-0.00733956
-0.172285
-0.00537705
-0.00411023
0.0224342
0.004606
-0.106147
-0.01005
0.00474903
0.0217956
-0.0389743
-0.0150312
-0.321834
-0.011367
0.018466
-0.194049
0.0111805
0.02332
-0.264226
0.0129636
0.0146829
-0.278488
-0.00144095
-0.309578
-0.000828275
-0.000151288
0.173033
-0.00104137
-0.0294235
-0.0865476
-0.0092037
0.297099
-0.153315
-0.00765262
0.00913546
0.25728
0.00224256
-0.0510907
-0.35104
-0.125067
0.00462921
-0.232584
0.0168071
-0.117116
0.236837
0.137495
0.0167256
-0.254615
0.0151059
-0.163614
-0.125354
-0.23264
-0.00359471
-0.0217915
0.0188836
-0.0443138
-0.124727
0.0365885
-0.268928
0.012936
-0.0108006
0.0173858
-0.0988499
0.316201
-0.00250225
0.0150583
0.00455618
0.436649
-0.00875877
-0.2637
9.24561e-05
0.0356757
-0.293085
0.0138512
-0.00722648
0.0365107
0.0922925
-0.0696273
0.0876513
0.0158996
0.0110673
0.0456853
-0.273743
0.00669277
-0.0702214
0.106191
0.00472343
-0.011364
0.0468304
0.00208765
-0.000561152
-0.0134528
-0.303064
0.0256063
0.0316041
-0.00185079
-0.0514073
0.0570108
0.0747336
0.138176
-0.096813
0.00772194
-0.00212277
0.327993
0.00904346
0.520837
-0.293632
-0.124359
-0.00201726
-0.25976
0.0330408
-0.146864
-0.299831
-0.29959
-0.282063
-0.00197649
0.039513
0.00672603
0.000698792
-0.28711
-0.00625396
0.0150912
0.0168187
0.138871
0.0640858
0.109662
-0.0020584
0.0485743
0.0485961
-0.161662
-0.00585323
-0.334952
0.0144368
-0.161464
-0.00560764
0.246649
-0.346557
0.0954248
-0.00302972
-0.171199
0.0146277
-0.120704
-0.292702
-0.0921152
0.000322087
0.062006
-0.00527297
-0.291689
-0.000538153
0.0132796
0.00646647
0.0577995
0.0441646
0.00884126
0.00806055
-0.308618
0.359775
-0.284069
-0.298114
0.0065759
0.0194379
-0.00238773
0.00542759
-0.382875
-0.273517
-0.00318743
0.0084887
-0.00499665
-0.316065
-0.0538736
0.00544095
0.0191507
0.0125521
-0.10345
0.0109879
0.00812989
0.00371538
0.00497881
0.10388
-0.28612
0.0315367
0.00712358
0.0974744
0.00802259
0.00592292
0.0067706
-0.136309
0.016505
0.00696284
0.00208518
0.00342306
0.011982
0.0020547
0.000616676
0.00446061
0.00570806
0.000828688
0.00170919
0.00172475
0.00133634
0.00228566
0.045335
-0.306192
0.00254033
0.00295383
-0.144308
0.00528341
-0.0132594
0.0172034
0.000965253
0.00614242
0.106214
0.0274099
0.00603025
0.00981293
0.0356207
0.00799269
0.0103631
0.0149378
0.0233246
0.016887
0.0405014
0.0220248
-0.380348
0.259044
0.00977354
-0.0810606
0.0160629
0.00927614
0.0127921
-0.22731
0.263636
0.0133123
0.0215395
0.0198618
0.0642836
-0.20872
0.0134791
0.0575111
0.0647269
0.0264817
0.0475859
-0.00119809
0.0207093
0.0177219
0.0207823
0.0348715
0.0174605
0.0262576
0.0351702
0.0287091
0.0296433
0.0129494
0.0119934
0.018177
0.0107089
-0.487245
-0.126425
0.0321171
0.0422986
-0.184032
-0.339017
0.0232812
0.0103272
-0.302077
0.108396
0.139475
-0.00200025
-0.0032083
0.0376971
0.00435232
-0.217531
0.0142832
0.000601923
0.00409511
0.0207431
0.0175338
0.008969
0.0409022
-0.0235765
0.0206064
-0.288587
-0.0305787
0.00961862
-0.0215749
0.0333684
-0.0126722
0.21396
0.0250351
-0.17202
0.532972
0.0361547
0.00363792
0.005951
-0.0997091
-0.0715808
0.0257857
0.00990296
-0.0177243
0.0166779
-0.0791263
-0.266262
0.0382782
0.0857603
-0.0767878
-0.283084
-0.301904
-0.288488
-0.299945
0.0431227
0.00405833
0.00704642
-0.0124352
-0.053838
0.00465452
0.00914
0.000941153
-0.482083
0.0339302
0.00855344
0.013459
-0.249603
0.0450766
0.00796212
0.0927175
-0.321602
0.0277519
-0.0558651
0.0324255
0.0452027
-0.290256
0.00482018
-0.311792
-0.0135576
0.060879
0.0112436
-0.00853052
0.0079166
-0.0964434
-0.32567
-0.0156743
-0.00373919
0.0112658
0.0130491
-0.0247681
0.00532656
-0.0264742
-0.025797
-0.112237
0.0201904
-0.00662878
-0.0107822
-0.276062
-0.178523
0.0429923
-0.0112672
-0.14001
-0.0472393
0.411097
-0.292121
0.00442422
-0.0893205
-0.00303162
0.0212346
0.00171594
0.0500846
-0.0268396
-0.0303182
-0.0840653
-0.0240889
-0.00227218
-0.00558436
-0.00606512
-0.00241302
0.017591
0.0961905
0.0728961
0.015545
0.00542215
0.000424872
-0.0851137
0.00333249
-0.362431
0.045696
0.0322522
0.0114319
-0.238173
-0.310359
-0.0364349
-0.0884178
-0.0726007
0.00601977
-0.266045
-0.230716
0.212278
-0.301364
-0.433845
-0.236795
-0.0686316
-0.0996658
-0.27756
0.336442
-0.0550906
-0.300785
-0.0140857
0.0298748
0.562674
0.00842236
-0.00497354
0.0278944
-0.0355691
-0.0340699
-0.37078
-0.294861
0.0289121
0.0424604
0.0665221
-0.254418
-0.290108
-0.249589
-0.00245226
0.0215018
0.0716042
-0.0391965
-0.0433647
0.0570575
0.0240382
0.00400384
-0.193307
-0.302706
0.0128478
-0.107358
0.000294863
-0.0155047
0.0593979
-0.0763276
0.0177671
-0.44263
0.438017
-0.250296
-0.29305
-0.0515231
0.0103531
-0.293819
-0.281512
0.101361
-0.318163
-0.209844
0.850294
-0.00758517
-0.339671
-0.015849
-0.121035
-0.0268061
-0.436738
-0.306071
-0.292149
0.00589294
-0.235795
-0.342945
-0.0364785
-0.0471818
0.0867488
-0.293815
0.00799486
-0.478429
-0.325778
-0.384335
-0.163177
0.00999187
-0.0118298
0.0857196
0.109269
-0.0579227
-0.285908
0.291846
0.0676467
0.0104369
-0.417451
-0.475329
-0.313532
-0.0149218
-0.332057
0.0568864
0.0527577
0.0278002
-0.224715
-0.223336
0.00747488
-0.29548
-0.300599
0.00497562
-0.0268534
-0.280449
-0.0336113
0.0138405
-0.362989
-0.311996
-0.109045
0.082875
0.00584738
-0.313318
-0.296619
-0.261661
-0.250687
0.0179695
0.0797786
0.00332792
-0.278732
-0.298948
0.0836741
0.00663952
-0.213786
0.0159133
0.0226494
-0.332256
0.0198614
-0.256577
0.0308913
-0.371323
0.0319601
0.00253325
-0.362966
-0.453297
0.00193511
-0.452011
-0.438893
0.02181
-0.0836813
-0.285909
0.00487102
-0.289912
0.013441
0.0632227
0.0452785
-0.387179
0.0449051
0.049526
-0.455114
0.0136573
-0.309918
-0.00399241
-0.301247
-0.508036
0.086351
0.258896
0.429422
0.00682972
0.00124158
0.000613675
-0.324101
0.632556
-0.00505945
-0.23051
0.0127833
-0.0644249
0.0650829
0.472309
-0.368016
-0.0705297
-0.0666985
0.0196608
-0.011507
-0.449554
-0.281544
-0.306632
-0.333648
-0.265981
-0.0208233
-0.344115
0.0284453
-0.274788
-0.319099
0.497186
0.57577
-0.325754
0.105091
-0.288139
-0.0434077
-0.103264
0.392385
-0.077445
-0.305176
-0.057646
-0.508813
-0.047027
-0.205188
-0.0318222
-0.312273
-0.28262
0.00208064
0.00314558
-0.307955
0.440358
0.662962
-0.301259
-0.304785
-0.308829
-0.0837547
-0.305883
-0.290235
-0.208344
-0.306233
0.740125
-0.339345
0.734118
-0.395644
0.317005
-0.296473
-0.0199655
0.162392
-0.498516
0.22014
-0.292199
-0.31407
-0.341369
0.85793
-0.287549
0.196795
0.136362
0.633005
0.110167
-0.367557
-0.289461
-0.184497
0.00888353
0.0743663
0.514449
0.00993329
-0.0447066
-0.29213
0.105534
-0.124321
-0.268937
0.0110824
-0.366869
-0.153097
-0.165835
-0.351352
-0.018403
0.0873637
-0.0220755
0.0579352
0.0942633
-0.332325
-0.36262
-0.058878
-0.0107109
-0.46715
-0.512068
0.163689
0.180418
0.0727563
0.655799
-0.0827505
-0.369325
-0.387471
-0.299933
-0.0640761
0.0709674
0.750335
-0.451403
0.367986
-0.029397
-0.424766
0.139362
-0.0861356
0.375473
-0.172968
-0.00776795
-0.31756
-0.0776818
0.189802
0.802893
0.321766
0.74688
-0.322495
-0.299472
-0.399868
0.15501
0.255984
0.0428277
0.369176
0.13372
0.48562
0.263774
-0.0599633
-0.186198
0.014737
-0.350848
0.871222
0.399136
0.635864
0.500322
-0.274042
-0.311026
-0.289636
-0.293128
0.0281148
-0.392842
0.0982217
0.584348
-0.324254
0.00790656
-0.292444
0.171949
-0.326069
-0.36647
-0.16994
-0.290269
-0.332413
-0.317599
-0.326466
-0.130582
-0.399507
-0.131795
-0.339833
0.132894
0.646398
-0.229048
-0.303427
0.813839
-0.304778
0.2774
-0.241682
0.382764
0.073067
-0.293727
-0.396995
0.430638
-0.269657
-0.326076
0.181564
-0.282031
-0.0411248
-0.298593
-0.128039
0.0154934
0.559593
0.76825
-0.297114
0.21429
-0.32987
0.809462
-0.0305658
-0.316722
-0.0432646
0.752701
0.19419
-0.324128
-0.289629
0.444717
-0.219731
0.0250663
0.338822
0.241396
0.284154
-0.259244
-0.343565
0.676805
)
;

boundaryField
{
    FrontBack
    {
        type            empty;
    }
    Top
    {
        type            zeroGradient;
    }
    In
    {
        type            zeroGradient;
    }
    Bottom
    {
        type            zeroGradient;
    }
    Out
    {
        type            fixedValue;
        value           uniform 0;
    }
    circle
    {
        type            zeroGradient;
    }
}


// ************************************************************************* //
