/*--------------------------------*- C++ -*----------------------------------*\
| =========                 |                                                 |
| \\      /  F ield         | OpenFOAM: The Open Source CFD Toolbox           |
|  \\    /   O peration     | Version:  2412                                  |
|   \\  /    A nd           | Website:  www.openfoam.com                      |
|    \\/     M anipulation  |                                                 |
\*---------------------------------------------------------------------------*/
FoamFile
{
    version     2.0;
    format      ascii;
    arch        "LSB;label=32;scalar=64";
    class       surfaceScalarField;
    location    "11.8";
    object      phi;
}
// * * * * * * * * * * * * * * * * * * * * * * * * * * * * * * * * * * * * * //

dimensions      [0 3 -1 0 0 0 0];

oriented        oriented;

internalField   nonuniform List<scalar> 
1171
(
-0.94651
0.94651
0.769041
-1.07633
0.307289
-0.245629
-0.78251
1.02814
0.0534903
-0.0663077
-0.275968
0.342276
-0.769041
0.0899304
0.67911
0.919864
-0.205577
-0.714288
0.826743
-1.01905
0.192309
-0.355178
-0.0372263
0.392405
-0.00210868
0.603554
-0.601446
-0.540069
0.961244
-0.421175
-0.421486
0.979892
-0.153149
0.250014
0.0945497
-0.344564
0.977618
0.00227403
0.30141
-0.0513958
0.982299
-0.00468093
0.670719
-0.916348
-0.784993
0.608198
0.176794
0.287305
-0.827374
0.559341
-0.914863
0.355522
-1.0782
0.669018
0.409186
-0.643946
0.641837
0.0337114
-0.253168
0.219456
0.0250081
-0.645949
0.620941
0.466827
-0.504053
-0.844641
0.870481
-0.0258403
0.992928
-0.010629
0.8715
-1.04647
0.174968
0.993635
-0.000707652
-0.697293
-0.0876993
1.23293
-0.793227
-0.439701
0.148994
-0.0743408
-0.413287
0.487628
-0.273917
0.184073
0.0898442
-0.600973
-0.475357
0.960365
-0.0888656
-0.0257201
0.861457
-0.835737
0.533549
0.699379
0.529213
0.0232154
0.443611
-0.785814
-0.107601
0.893415
0.579897
0.23561
-0.815507
0.0188053
0.635131
-0.653937
-0.50819
-0.570015
-0.372788
-0.673679
0.0270835
0.245439
-0.272522
-0.938559
-0.041699
0.980258
0.373517
0.018888
0.840031
0.0798339
-0.603906
-0.0400393
0.0404088
-0.826223
0.0797008
0.90229
-0.981991
-0.406989
0.0275508
0.379438
-0.709765
-0.228794
-0.678189
0.75789
0.646081
0.315162
-0.57823
0.993773
-0.820366
-0.173407
-0.0929527
-0.0287832
0.121736
-0.458276
-0.0457767
-0.303103
0.949184
-0.0113546
0.436155
-0.424801
-0.495222
1.07512
0.710838
-0.818439
0.388955
-0.0723876
-0.316567
0.818292
-0.818292
-0.916396
0.0404066
-0.316374
-0.680894
0.655174
-0.0334507
-0.143849
0.177299
0.869403
-0.00794506
1.03763
-0.802021
0.223067
-0.319568
0.0965011
0.971706
-0.131676
-0.67906
-0.047899
0.726959
0.14986
-0.232054
0.0821941
0.789288
-0.994865
-0.442639
0.310638
0.132002
0.671384
-0.646375
0.848973
-0.386554
-0.462419
0.476185
-0.693708
0.0361961
0.657512
0.156199
0.666605
0.0467879
-0.713393
0.135451
-0.0950439
-0.513288
0.106299
0.0349171
-0.907434
0.872517
-0.551399
-0.759893
0.0626001
0.499729
-0.0561178
0.27525
-0.83294
0.55769
0.424244
0.575756
0.601792
-0.561383
-0.3776
-0.0212688
0.398869
0.607232
0.21106
-0.678633
0.697438
0.0864421
0.879219
0.00289581
-0.681955
-0.764103
0.79902
0.618706
0.112456
0.352651
-0.465106
-0.157204
0.547762
0.0873696
0.934569
-0.872229
-0.06234
0.652049
0.341724
-0.431193
0.707439
-0.594983
0.408928
0.150413
-0.0577168
-0.638074
-0.226904
0.864978
-0.167138
-0.651153
-0.61292
0.363598
0.249322
0.660655
-0.657759
0.308825
1.0145
0.0231303
-0.764103
-0.164178
0.0712252
0.710838
0.78031
-0.78031
0.844834
-0.830603
-0.0142311
-0.454342
0.878586
-0.193933
-0.319355
0.761776
-0.668114
-0.0936621
-0.882788
0.244714
0.108607
-0.712513
0.818439
-0.975643
-0.185891
0.174715
0.0111758
0.12384
-0.983715
0.859875
0.546752
-0.0175386
-0.289721
0.595354
-0.305632
-0.647762
0.771603
-0.159712
0.716464
-0.824363
0.1079
1.01664
-0.588337
-0.4283
0.722593
-0.073757
-0.0135132
0.0124479
0.00106528
-0.799933
-0.860517
0.0780073
-0.680894
0.576685
-0.549134
0.128097
0.666236
-0.794333
0.778334
0.168175
0.4922
0.5078
-0.0947892
-0.673215
0.768004
0.95895
-0.0243812
-0.722593
0.79902
0.17992
-0.433088
-0.0282152
0.00537151
0.0228437
0.677363
-0.436043
-0.241319
0.67911
-0.0329959
-0.144053
0.561267
0.116096
-0.0127496
0.0013562
0.0113934
0.00402447
-0.0175377
0.135031
-0.207418
-0.940022
0.0307866
-0.141001
-0.0508602
0.144521
0.772016
0.742816
-0.16706
0.550351
-0.422254
-0.163747
0.386815
0.624632
0.0544783
0.230749
-1.06135
-0.975643
0.317399
0.655174
-0.161266
0.0174177
-0.802803
0.972312
-0.16951
0.485152
-0.105714
0.79876
0.306292
0.295184
0.00622532
-0.680989
0.680989
0.227008
0.666407
-0.0163183
0.452474
0.471309
0.0228232
-0.0510384
0.548195
-0.00144302
-0.647762
0.569184
0.192592
0.00111029
0.0113376
-0.624632
0.159177
0.813135
-0.00134422
-0.737909
0.739254
0.760759
-0.823491
0.062732
-0.778334
-0.0348014
0.0479747
-0.0131733
0.085137
-0.120569
-0.105605
0.226175
-0.00654684
-0.00620273
0.726122
-0.727466
0.924343
0.103796
-0.33061
-0.539115
0.869726
-0.00101207
0.00101207
0.153446
0.480632
0.639925
-1.12056
-0.192755
-0.54658
0.739335
-0.0187202
0.19602
0.383607
-0.233747
1.03854
-0.557904
0.779674
1.06812
-0.428192
0.189674
0.771603
0.618454
0.206528
0.663953
-0.651153
0.319011
-0.0198249
-0.00473564
0.0245606
0.892768
0.0572455
-0.950014
-0.613773
0.613065
0.545658
-0.613773
-0.618454
0.613065
-0.00724917
0.961916
-0.0375733
-0.607232
0.536223
0.0710091
0.535231
0.573587
-1.10882
0.498902
0.539633
0.573427
0.496284
-1.06971
0.531132
0.536985
0.536223
-0.510728
-0.480561
-0.602901
-0.533322
-0.158128
-0.00526698
0.00526698
0.536076
0.53594
-1.06926
0.720209
-0.367558
-0.964479
0.376142
-0.68605
0.457256
-0.0139873
-0.883065
0.897052
0.453094
-0.0551158
0.947884
-1.0088
-0.927772
0.0742247
0.853548
0.409635
-0.198841
-0.210794
0.703709
-0.792575
0.941743
-0.894232
-0.047512
-0.0518999
-0.820329
-0.17197
0.830076
-0.658106
-0.968861
0.916961
-0.645072
0.656509
-0.0114369
-0.829952
0.0468351
0.783117
0.00371438
-0.00472645
0.425664
0.0670555
-0.900052
0.832997
-0.790507
0.695718
0.989082
0.0944912
-1.08357
0.06131
-0.00179636
0.400665
-0.359733
0.0401647
0.897206
-0.911193
-0.726156
-0.870663
0.0503339
-0.125453
-0.905433
0.0112011
0.537173
0.0131785
0.0839108
0.325724
-0.744633
0.791468
0.462419
-0.938181
-0.87437
0.0875459
-0.00836046
0.732852
-0.724491
-0.00838031
-0.734516
0.579723
0.181036
0.0117812
0.936103
0.991186
0.910681
-0.89948
0.046314
-0.046314
-0.0851089
-0.241677
0.0428361
0.338359
-0.0209596
0.262188
0.927723
0.00459648
-0.0111433
0.658553
0.341447
0.798492
-0.600973
-0.747543
-0.667246
-0.587225
0.587225
-0.20722
-0.109154
0.641021
-0.916676
0.275656
-0.499363
-0.544953
0.337974
-1.01165
-0.9364
0.888888
-0.78279
0.833124
0.658873
0.182726
-0.841598
-0.678683
-0.187536
0.844174
-0.656637
0.00867765
0.00196831
0.00299021
-0.00495853
-0.068816
-0.172861
0.978995
0.708182
-0.372084
-0.336098
0.497388
0.74537
-0.518362
0.0121156
-0.286032
0.0732075
0.77338
-0.846587
-0.352781
-0.0930687
0.140641
-1.01427
0.0642555
-0.733951
0.0892836
0.736237
-0.82552
-0.846747
0.112796
0.69094
-0.784009
0.236874
-0.357444
-0.60441
-0.0742728
0.370396
0.736732
-0.029293
0.000651077
-0.000651076
-0.00391078
0.0122858
-0.0321107
-0.0147465
0.019343
-0.591231
0.322823
0.760198
-0.816071
0.0558731
-0.680596
0.769879
0.78202
-0.0910793
-0.681423
-0.165324
-1.10226
0.0207344
0.0255796
-0.518024
-0.853394
-0.840531
0.40083
-0.175051
0.191196
-0.016145
-0.459912
-0.0581112
0.530757
0.712043
-0.0422651
-0.0085951
1.08854
0.509965
0.205859
-0.715824
-0.430684
-0.0292287
-0.00580606
0.00777437
0.685271
-0.912175
0.00595977
-0.00595977
-0.725138
0.719751
0.00538726
-0.346773
-0.136821
-0.687576
0.156302
0.611702
-0.0535216
-0.875112
-0.275331
0.180861
0.0944696
0.761649
-0.705775
0.344326
0.262438
-0.606764
-0.168122
-0.695635
-0.129886
-0.215174
-0.119028
0.469623
-0.5154
0.192424
0.715646
-0.90807
0.476185
-0.149958
-0.0250931
0.125696
-0.244724
0.597035
-0.0950388
-0.501996
-0.284708
0.305069
-0.0203607
0.588052
0.132157
0.0863849
-0.311125
0.168927
0.142198
-0.196574
0.0323961
-0.311822
0.0708784
-0.0256537
-0.0452247
0.84393
-0.299547
-0.0472255
0.554138
0.274587
-0.646672
0.493611
-0.493611
-0.236912
-0.497066
-0.243384
-0.497066
-0.682744
-0.849247
0.181133
-0.256711
0.744609
0.0479011
0.15356
0.583172
0.109865
0.118453
0.00975774
-0.128211
-0.0758502
0.671948
-0.987202
0.448087
-0.0413964
0.0790738
-0.0376774
-0.747717
-0.176047
-0.582103
0.787962
-0.518776
-0.0386001
-0.206124
-0.337527
-0.0807066
0.0807066
0.0459132
0.00206149
0.139188
0.223592
-0.741612
0.159509
-0.046132
0.472217
0.527783
0.782102
0.0245945
0.0126759
-0.0372704
-0.300915
-0.574197
-0.559282
0.113513
-0.118479
0.00496555
-0.110931
-0.414394
-0.101507
0.713209
-0.576544
-0.171173
-0.0673834
0.0239335
0.206872
-0.480365
-0.197463
-0.186206
-0.0212125
-0.480707
0.435303
0.0454043
-0.0657255
0.294654
-0.864669
-0.536599
0.637358
-0.860167
0.692045
0.450677
-0.0295627
0.0546388
-0.0250761
0.0641036
-0.636047
-0.00385721
0.639904
-0.893177
0.644468
-0.729577
-0.0983139
0.00734893
-0.00734893
-0.29901
0.428714
-0.028049
0.00764513
0.0169494
0.589413
0.67247
-0.73481
0.0130166
0.00410225
-0.00345118
0.00445247
-0.00445247
-0.500448
0.632605
0.0142157
-0.0142157
-0.776272
-0.00881567
0.0125301
-0.519455
0.678964
0.608201
-0.602814
0.069205
-0.069205
-0.0129321
-0.0381063
0.00981414
-0.966805
0.538505
-0.516593
-0.00472645
0.599752
0.0131601
-0.612912
-0.710174
0.13363
-0.316447
-0.0137378
0.330185
-0.0247007
-0.0175645
-0.607207
-0.0288396
0.0255796
0.00568892
0.000270856
-0.00330202
0.00330202
-0.336743
0.291518
-0.450814
0.135763
0.662729
-0.132652
0.00233914
-0.00233914
0.508413
-0.154642
0.008361
0.0182307
-0.000273982
0.58746
-0.742102
-0.701462
0.654236
-0.087879
0.327713
0.760689
-0.00391078
-0.0894222
0.10076
-0.6669
0.553552
-0.331577
-0.110422
-0.0274849
-0.0258159
-0.00207065
0.469866
-0.0857089
-0.416287
0.6841
0.00081451
0.00586705
-0.00586705
-0.178007
-0.113151
-0.572377
0.620278
-0.135168
0.509645
-0.18642
0.857138
0.784745
0.00568892
-0.720317
0.640692
0.0494024
-0.0269157
-0.0224866
0.588511
0.090159
-0.0118823
0.0655243
-0.053642
0.0085803
-0.0085803
-0.781865
0.0228909
-0.0441438
0.0623745
-0.0863557
0.0863557
0.00410225
-0.00157164
0.718884
0.094251
-0.317956
-0.0964379
-0.519921
-0.017981
-0.0665733
0.0665733
-0.0502025
0.0811564
-0.0811564
0.0262419
-0.0262419
-0.355628
-0.0755646
0.240968
0.0696696
0.0426113
-0.754112
-0.0623373
0.161003
0.0189167
-0.243833
0.0809375
-0.0809375
-0.466254
-0.0491459
0.23103
-0.0115735
0.0023869
-0.650379
0.657628
0.00418414
-0.0543867
0.0481527
-0.086259
-0.0119515
-0.156672
0.168623
-0.150902
-0.206542
-0.0812779
0.0812779
0.0549804
-0.0549804
-0.0291782
-0.094072
0.12325
-0.0274623
-0.188207
-0.00805811
0.00460693
-0.21744
0.508958
-0.0257263
0.461523
0.00713027
0.0042631
-0.0507447
0.0507447
-0.733434
0.318213
-0.128539
-0.208732
-0.0233221
-0.0162813
0.0186682
0.198399
0.0277752
-0.000917195
0.000643213
0.0837302
0.0297827
0.055358
0.105645
-0.0151307
0.00653564
-9.27181e-05
0.00421227
0.006137
0.00594292
-0.0120799
-0.0017648
0.00794478
0.028016
-0.028016
0.049243
-0.0422087
0.0422087
-0.190806
0.00847537
0.0269919
-0.0754788
0.0176616
0.076957
-0.076957
0.243804
-0.236827
0.0859248
-0.0672348
-0.169592
-0.0160616
0.0160616
0.406056
0.251456
-0.519376
-0.0807269
-0.0377517
0.541819
0.0206904
-0.061647
-0.455437
0.0777083
-0.153367
0.170104
-0.0167371
-0.0471742
0.0471742
0.838397
-0.592793
-0.00991297
0.00814816
-0.00564903
-0.285201
-0.000218891
0.00507775
-0.0449197
-0.628783
0.569067
-0.665988
0.0147046
0.185148
0.0158286
0.0245028
-0.159016
-0.334903
0.259425
-0.0561425
0.0269643
0.170909
0.134159
0.244207
0.264587
-0.248759
0.00640786
-0.114292
-0.22247
0.0680969
-0.0127389
0.160551
-0.136048
-0.0685452
0.152275
-0.40355
0.120877
-0.103215
0.0585318
-0.474819
0.175182
0.176999
-0.245544
0.00702759
-0.177251
0.177033
0.00398057
0.148295
-0.027993
0.0496873
0.458725
0.0119544
0.0164699
-0.00700819
0.0365587
-0.239207
-0.202902
0.590222
0.169537
0.0614923
0.0775655
-0.0633031
0.0615718
-0.0840585
-0.0302773
0.166565
-0.15186
0.0143993
-0.00530603
-0.10532
-0.0289566
0.0209349
0.252057
-0.00475998
-0.0246871
-0.312256
-0.00908908
0.217163
0.13968
0.178533
0.0573354
0.0975238
0.0532117
0.536202
-0.0121726
0.103346
0.0430162
0.0657447
-0.108761
-0.26792
-0.197016
0.0274237
-0.222762
0.284832
)
;

boundaryField
{
    FrontBack
    {
        type            empty;
    }
    Top
    {
        type            calculated;
        value           uniform 0;
    }
    In
    {
        type            calculated;
        value           uniform -1;
    }
    Bottom
    {
        type            calculated;
        value           uniform 0;
    }
    Out
    {
        type            calculated;
        value           nonuniform List<scalar> 10(1.07233 1.04596 1.08346 1.07077 1.06987 1.07031 1.07202 1.04432 0.730523 0.74045);
    }
    circle
    {
        type            calculated;
        value           uniform 0;
    }
}


// ************************************************************************* //
