/*--------------------------------*- C++ -*----------------------------------*\
| =========                 |                                                 |
| \\      /  F ield         | OpenFOAM: The Open Source CFD Toolbox           |
|  \\    /   O peration     | Version:  2412                                  |
|   \\  /    A nd           | Website:  www.openfoam.com                      |
|    \\/     M anipulation  |                                                 |
\*---------------------------------------------------------------------------*/
FoamFile
{
    version     2.0;
    format      ascii;
    arch        "LSB;label=32;scalar=64";
    class       volVectorField;
    location    "21.7";
    object      U;
}
// * * * * * * * * * * * * * * * * * * * * * * * * * * * * * * * * * * * * * //

dimensions      [0 1 -1 0 0 0 0];

internalField   nonuniform List<vector> 
808
(
(0.894496 -0.00981635 0)
(1.02598 -0.0355284 0)
(1.22361 0.131329 0)
(1.06894 0.00969597 -2.58302e-21)
(1.47138 -0.300968 0)
(0.960096 -0.029935 0)
(1.1585 -0.057153 -4.01886e-22)
(1.13361 -0.0284088 0)
(1.35029 -0.23709 2.06333e-20)
(1.23821 -0.100439 -5.24753e-21)
(1.14529 -0.113327 6.5083e-21)
(1.37619 -0.271228 0)
(1.00773 -0.0376927 0)
(0.750637 -0.0248027 0)
(0.945268 0.0306001 1.80256e-20)
(1.09861 -0.0369469 0)
(0.833697 0.0176438 -5.66457e-21)
(1.00041 -0.0461695 -8.13884e-23)
(1.18721 0.0941304 0)
(1.12459 0.00112771 0)
(1.18334 -0.129928 -9.08383e-21)
(0.930424 0.124356 1.13234e-19)
(1.07449 0.0127263 -1.36443e-20)
(1.18015 -0.0346946 0)
(0.950458 0.183027 0)
(1.30162 0.0463923 -2.86078e-20)
(1.27959 -0.187137 3.38881e-21)
(0.948785 -0.0296662 -2.36434e-21)
(1.0947 -0.0369721 0)
(1.03892 0.0441879 -2.22048e-22)
(0.987312 -0.0380576 2.7836e-24)
(1.12866 -0.0134865 0)
(1.03361 0.0295041 0)
(1.07498 -0.0256532 2.00283e-21)
(1.3102 -0.085377 7.57432e-21)
(0.740442 -0.114897 1.13768e-19)
(0.882621 -0.028993 -6.10089e-21)
(1.01997 0.0349659 9.04882e-22)
(1.19915 0.042184 -2.67224e-21)
(1.07792 0.0182144 0)
(1.27232 -0.0727681 -1.46613e-20)
(1.27964 -0.142018 0)
(1.00993 0.00364952 -7.93645e-21)
(1.11385 -0.0515475 7.25915e-21)
(1.15404 -0.00188891 0)
(1.01106 0.0169499 -2.00972e-20)
(0.997836 0.0375329 1.43641e-21)
(1.25156 -0.260457 -4.84808e-21)
(1.17262 0.0436619 -5.06167e-21)
(1.40618 -0.201997 -2.98085e-20)
(1.15103 -0.0599927 1.2981e-21)
(1.15177 -0.0791189 0)
(1.12034 -0.0015893 7.08436e-21)
(1.11599 -0.0353406 0)
(1.3158 0.229166 4.44669e-21)
(1.06543 0.0396082 -1.82043e-21)
(1.17157 -0.0371577 0)
(1.11932 -0.0367731 5.0523e-21)
(1.2403 -0.103515 5.63275e-21)
(1.13987 0.0386729 1.56598e-22)
(-0.261934 -0.0835918 0)
(1.21598 -0.220483 -2.78459e-21)
(1.13112 -0.0242966 0)
(1.44576 -0.102195 -2.64567e-20)
(1.10349 -0.0599039 -9.22399e-21)
(1.04343 -0.0299633 -7.98709e-21)
(1.33462 -0.162645 2.74773e-20)
(0.639526 0.0185038 0)
(1.1262 -0.0794236 0)
(1.42872 -0.363266 0)
(0.896632 0.0281785 -2.01856e-22)
(1.22029 -0.154325 -3.46505e-20)
(1.01272 0.0473793 0)
(1.04976 -0.0456816 -2.81544e-21)
(1.12123 -0.339312 -6.14812e-20)
(1.13896 -0.0629207 -5.48974e-21)
(1.14739 0.0278062 5.07401e-22)
(1.31918 0.491742 2.5161e-20)
(1.11665 -0.0479721 0)
(1.01456 0.2808 -1.86562e-19)
(1.33237 0.0303857 1.53823e-20)
(0.741744 0.0236078 0)
(0.839067 0.0358832 -8.25115e-21)
(0.967784 -0.11085 4.50155e-21)
(1.11422 -0.0673075 4.01551e-21)
(1.19632 0.0156631 1.61698e-21)
(1.2621 -0.244894 0)
(1.34785 0.279844 0)
(1.09043 0.000938661 -1.25233e-20)
(1.39129 0.0734776 3.08516e-20)
(1.08449 -0.0196482 1.31807e-20)
(1.32274 -0.137061 -1.21225e-21)
(0.965205 0.0266499 1.74358e-20)
(1.00448 -0.0223308 0)
(1.11383 0.0199689 1.59795e-21)
(1.31432 -0.104095 -7.7077e-20)
(0.750449 0.0192126 -2.685e-21)
(1.32644 -0.0316278 0)
(1.33634 -0.101271 0)
(1.42414 -0.127756 -4.13593e-20)
(1.11029 -0.0584389 -2.54489e-21)
(1.1303 0.0103932 -6.82174e-24)
(0.9501 0.0235095 1.09932e-20)
(1.18899 0.0173702 -5.96553e-22)
(1.34506 0.0347 -3.01963e-20)
(1.00323 0.00694518 1.34557e-20)
(1.44742 0.00496253 0)
(0.818771 -0.0735927 0)
(1.09271 0.0311118 3.70652e-21)
(1.20055 -0.225965 -9.56728e-21)
(1.28251 0.0250837 1.21066e-20)
(1.04784 0.0477557 -1.24865e-19)
(1.15348 0.0404274 -1.35014e-21)
(1.17 -0.00434347 5.35335e-21)
(0.784931 0.0160338 0)
(0.916638 -0.0472556 7.82449e-20)
(1.14438 0.0267095 -3.61498e-21)
(1.42123 -0.279512 -1.47627e-20)
(1.11888 -0.045183 -6.03797e-21)
(0.929451 0.0164769 2.5747e-21)
(-0.298473 -0.00775114 0)
(0.863655 -0.0156781 2.21836e-21)
(0.797188 0.0244747 0)
(1.06265 0.0023824 -9.45717e-23)
(1.012 0.0282738 0)
(1.30875 0.317925 7.16679e-21)
(1.03455 -0.0571294 -3.37507e-20)
(1.25863 0.039973 3.76604e-21)
(1.15223 -0.0637088 0)
(1.09296 -0.0232309 0)
(0.552289 -0.0800352 0)
(1.12162 -0.035774 -3.64541e-21)
(1.26016 -0.0569578 8.47073e-21)
(1.06649 0.113601 -3.40328e-20)
(0.849166 -0.0143773 0)
(1.1022 0.0256851 -9.39969e-22)
(1.17622 0.0929102 2.73941e-22)
(1.22371 0.0290319 -2.0422e-22)
(0.987751 0.0316979 3.18142e-21)
(1.13003 0.00698257 5.71895e-24)
(-0.0090449 0.0273994 0)
(1.09824 -0.0226862 -1.47096e-20)
(1.19611 0.150085 1.26303e-21)
(0.722585 0.023918 -3.12903e-21)
(1.25791 0.16364 2.88764e-21)
(1.06902 -0.0238792 1.49054e-21)
(1.04748 0.0156542 1.74298e-20)
(0.990773 0.0264394 0)
(1.15773 0.0248757 -1.63666e-20)
(0.979694 -0.0584115 0)
(0.938663 0.0306927 6.41083e-21)
(0.969308 0.281593 1.49289e-19)
(0.96949 0.0337904 0)
(0.817951 0.0983362 0)
(-0.122338 -0.019021 -6.60775e-20)
(1.335 0.129191 -1.22304e-20)
(0.6787 -0.0209312 0)
(1.43376 0.0345445 0)
(1.21319 0.127061 0)
(1.34132 0.0880732 1.36344e-20)
(-0.0380591 -0.109626 0)
(-0.060791 0.0449067 3.25751e-20)
(0.948927 -0.0844065 6.89527e-20)
(1.00281 0.0392679 7.23571e-22)
(0.861178 0.0019215 0)
(1.02948 -0.0318068 9.50297e-21)
(0.890562 0.0239334 0)
(0.702034 -0.0663785 -7.45231e-20)
(1.0261 0.0397473 8.6303e-21)
(1.10266 -0.0541291 3.30567e-21)
(1.09635 0.010263 6.13671e-21)
(1.01403 0.0693363 -1.22146e-20)
(0.749013 -0.0888844 -1.4839e-21)
(1.13659 -0.353036 7.74536e-22)
(0.912656 -0.0276438 0)
(1.06923 -0.000264373 -1.42715e-20)
(0.874789 0.0099209 -1.10953e-20)
(1.38595 -0.188717 1.84052e-21)
(0.699815 0.0292747 0)
(1.01748 -0.151475 0)
(1.10672 -0.0272397 2.99416e-21)
(1.38889 0.208441 9.87852e-21)
(1.11528 0.0203928 4.29423e-21)
(1.03709 0.0186652 2.04849e-20)
(0.677302 -0.0303098 -5.93216e-20)
(0.813871 0.00258224 1.99972e-20)
(1.13993 -0.0188313 4.71416e-21)
(1.41024 -0.0973851 -5.02602e-21)
(1.09581 -0.0441798 -5.65831e-21)
(1.3428 -0.0518723 4.30684e-21)
(-0.126313 0.00146559 4.83688e-20)
(1.2889 -0.0234143 0)
(0.612091 -0.0198426 0)
(1.06547 -0.0261897 -7.09166e-21)
(1.09994 0.0138268 4.67405e-21)
(0.0448533 0.0453982 0)
(0.875232 -0.0225402 3.43793e-22)
(1.10894 -0.0208294 -3.61132e-21)
(0.969521 0.0322179 1.43474e-21)
(1.0781 0.0393356 -7.50582e-21)
(1.00622 0.0190761 2.82048e-21)
(1.04107 -0.0277453 3.18561e-21)
(1.03924 0.030618 0)
(0.302304 -0.0471756 0)
(1.04634 -0.0623307 0)
(1.14745 0.0999927 -2.9374e-20)
(-0.0372457 -0.121296 4.18022e-20)
(1.09519 0.0268206 -1.26061e-23)
(1.13654 0.102613 0)
(0.751876 0.018128 -6.05411e-21)
(1.14646 -0.0862788 2.17485e-21)
(-0.0119736 -0.0387945 -1.31378e-19)
(0.81702 -0.0360752 -5.05294e-20)
(0.624754 -0.0192011 0)
(0.927859 -0.0846207 0)
(0.939632 0.0464345 6.99527e-21)
(0.984973 -0.123499 4.9297e-21)
(1.27808 0.39329 -1.17359e-21)
(1.09111 -0.0360728 -1.91316e-22)
(1.1254 -0.0193449 -5.06007e-21)
(0.993712 -0.0855901 0)
(1.36154 0.417488 -3.73621e-20)
(0.664984 -0.0218937 0)
(0.803023 -0.0227571 -3.84179e-21)
(1.04321 -0.0266414 6.38152e-22)
(0.580255 0.0166539 0)
(1.10026 -0.00587853 0)
(0.0745545 -0.0802144 -4.57805e-20)
(1.0421 0.0562014 -1.30449e-20)
(0.71429 -0.0181839 1.58262e-21)
(0.990499 -0.0021052 0)
(0.546015 -0.0190305 0)
(0.756988 -0.0187717 -3.24635e-21)
(0.524671 -0.020975 -3.59903e-22)
(1.32119 0.0501762 2.48372e-22)
(1.21423 0.0535157 -6.08627e-21)
(0.696014 0.017865 -2.00117e-21)
(1.09704 -0.0235169 1.56996e-22)
(1.07733 -0.010645 1.80283e-22)
(0.543222 0.016118 5.38477e-21)
(1.18194 -0.0087906 5.31595e-22)
(1.14485 0.0140253 0)
(0.909267 -0.0293306 0)
(0.492654 0.0191601 0)
(1.03389 -0.0126258 0)
(1.18833 0.0491202 -9.73577e-22)
(0.999239 0.0181917 0)
(1.1515 -0.00444801 0)
(1.05474 0.0390134 0)
(1.14603 0.0225893 0)
(-0.0197041 -0.0403181 4.06152e-20)
(1.27005 0.0517048 5.18541e-22)
(1.15059 0.0303036 0)
(1.38257 0.0552216 2.26365e-20)
(1.22553 0.0204886 5.42254e-22)
(1.10483 0.0428345 1.76978e-21)
(1.20571 -0.00458756 3.87187e-21)
(1.2125 0.0663818 0)
(0.578533 -0.0174533 7.2496e-21)
(1.05089 0.0425161 1.18799e-20)
(1.19507 0.0502271 0)
(1.15826 -0.0576943 -2.52353e-21)
(1.2113 -0.00352963 2.42327e-21)
(0.392721 0.0558315 -1.04849e-20)
(1.11667 0.0471733 4.30134e-21)
(1.20015 -0.0852097 -3.95946e-21)
(0.967357 -0.0470787 0)
(1.23994 0.00714819 -1.423e-20)
(1.08823 -0.0394576 -5.01366e-21)
(0.789524 0.113371 3.77003e-21)
(0.802975 0.0889052 0)
(-0.0248897 -0.0211287 0)
(0.977242 0.113353 -1.8057e-20)
(1.14626 -0.0470016 0)
(1.29545 -0.0422261 1.60137e-20)
(1.16348 -0.00233799 1.15318e-21)
(1.18561 -0.0824942 3.8065e-21)
(1.16399 -0.00292805 -2.01853e-21)
(1.37621 -0.0752467 1.1419e-19)
(1.0172 -0.326109 6.20718e-20)
(1.16144 -0.0311291 -7.15116e-22)
(0.969104 0.112127 0)
(0.794853 -0.0270045 0)
(0.905776 0.00446597 -2.94502e-20)
(1.1937 0.0180805 -2.44473e-20)
(1.20989 -0.0540286 0)
(0.620865 -0.0579403 1.24797e-21)
(0.275425 -0.165037 0)
(0.732835 0.0738593 3.36114e-21)
(0.916604 0.0467053 -1.43474e-21)
(0.81762 0.0298417 -4.29418e-21)
(1.21463 0.00479901 0)
(1.21623 -0.0228728 -1.34513e-21)
(1.09317 0.0156319 6.37037e-21)
(0.686164 0.143791 -8.44938e-21)
(1.22988 -0.0446531 -3.62862e-21)
(0.825087 0.168879 0)
(1.09132 0.0717743 0)
(1.10947 0.0362257 3.07111e-21)
(0.842457 0.089621 -3.3953e-21)
(1.27062 -0.0188826 7.00131e-21)
(1.16552 -0.035861 -3.13461e-21)
(0.949012 0.0227005 9.97478e-22)
(1.13715 -0.0443021 0)
(0.403723 -0.136601 1.2461e-20)
(1.32602 0.0869188 -1.92408e-20)
(0.979592 0.136848 -4.76086e-21)
(0.0443166 0.0625892 1.10859e-20)
(1.4332 -0.162068 2.27227e-20)
(0.828739 -0.050054 5.61965e-20)
(1.25909 -0.016633 -3.17652e-21)
(1.14319 -0.0349484 -7.4515e-22)
(-0.0542324 -0.133318 -7.13714e-21)
(1.00112 -0.00684902 0)
(1.03422 -0.0874711 -1.67884e-20)
(0.858875 -0.0323876 6.74247e-21)
(1.10197 -0.0530204 3.34421e-21)
(0.729915 0.0952355 -1.33495e-21)
(0.501211 -0.0183695 -2.30778e-22)
(1.40872 -0.393921 -1.49282e-20)
(1.12606 0.0607886 0)
(1.01928 0.0296047 -9.65867e-22)
(1.13519 0.0450417 -2.02878e-21)
(1.31965 -0.0953965 0)
(0.753968 -0.0368661 -5.77345e-22)
(1.14272 0.0501229 2.62517e-21)
(0.6275 0.0855304 2.20892e-20)
(1.16589 -0.0304679 3.96215e-21)
(0.927267 -0.00441488 1.86018e-22)
(-0.037935 -0.0600571 0)
(0.248697 0.290607 2.20994e-21)
(1.13623 0.0567551 0)
(0.903759 0.126281 -9.26944e-21)
(0.778746 0.0716157 0)
(1.13138 -0.000847388 2.66565e-21)
(1.01668 0.0263382 0)
(1.15799 -0.0468926 0)
(1.41205 -0.144914 2.06689e-20)
(0.795929 -0.0868375 0)
(1.12798 -0.134275 2.06926e-20)
(1.092 -0.0214142 -4.50946e-23)
(1.06107 0.0531182 2.43797e-21)
(1.27122 -0.0121313 -9.14881e-21)
(1.23788 0.120829 -5.09983e-21)
(1.16647 0.0195745 2.37627e-20)
(1.18419 0.0630992 0)
(1.21632 -0.0798005 0)
(1.15366 0.0545196 1.30391e-21)
(1.23194 -0.00581897 0)
(1.41047 0.198652 -2.58053e-20)
(0.642987 -0.0161928 1.49954e-21)
(1.02706 0.0177864 2.18052e-20)
(1.26077 0.0524778 -3.25951e-22)
(-0.0124837 -0.0082122 0)
(-0.0282652 -0.0692448 0)
(0.10672 -0.0553997 -3.83202e-20)
(-0.046812 -0.138976 0)
(0.561736 -0.0818267 -1.46833e-20)
(1.18726 0.0442865 -2.09709e-21)
(1.16938 -0.100414 -2.47453e-21)
(1.30606 -0.083773 -4.57702e-22)
(1.22845 -0.0200934 0)
(0.673993 -0.0138108 -1.25538e-21)
(1.19563 0.0503995 0)
(1.14433 0.0364809 8.28026e-22)
(0.486634 -0.109103 0)
(0.644234 -0.128038 -5.05713e-22)
(1.16664 0.0383049 0)
(1.11717 0.0298096 0)
(0.85055 0.0869035 6.80382e-20)
(0.556452 -0.191184 -1.45227e-21)
(0.864853 -0.04381 -5.87867e-22)
(1.01089 0.0180826 -9.86532e-21)
(0.147984 -0.115406 0)
(1.18295 -0.0577175 -2.97733e-20)
(1.19875 0.063864 -3.80308e-21)
(1.04853 -0.0390672 -2.43142e-22)
(0.746573 -0.166892 4.18409e-21)
(-0.0505436 -0.0911698 -8.80399e-20)
(1.15681 0.0346566 0)
(-0.0366319 0.0427206 0)
(1.16435 0.0479799 4.93571e-21)
(0.565842 -0.195935 -4.50336e-21)
(1.09759 0.0365598 -9.31351e-21)
(1.12474 -0.0429686 0)
(1.1537 -0.0944898 1.78291e-21)
(1.21919 -0.0520441 1.56301e-20)
(0.505697 -0.0590371 -8.16087e-21)
(1.15357 -0.0363663 -9.89486e-22)
(1.18928 -0.0895805 -3.94083e-23)
(0.10956 0.23617 3.16886e-21)
(1.26533 -0.125541 9.28026e-22)
(1.12646 0.0440169 0)
(1.17685 0.0339589 0)
(1.22407 -0.0406491 3.94553e-21)
(1.15399 0.0745997 3.43717e-21)
(0.567818 -0.0131131 -3.4425e-20)
(1.19376 -0.127714 -1.86847e-20)
(1.11258 0.0470862 6.74702e-21)
(0.507358 -0.00257958 1.0049e-20)
(0.405537 -0.0715793 -1.22657e-19)
(-0.217575 0.0494157 2.05928e-20)
(1.17324 0.181177 -6.63739e-21)
(1.22985 -0.498506 3.61669e-21)
(1.40465 0.0829234 -1.97697e-20)
(1.23493 -0.0343469 -4.6756e-21)
(0.936663 -0.234188 9.71354e-20)
(-0.0942087 0.0680537 0)
(1.14488 -0.0215564 -6.82459e-22)
(0.146143 0.284921 -1.79161e-20)
(1.15897 0.0371994 -4.27105e-21)
(1.17516 0.015305 7.44538e-21)
(1.0952 0.0431383 0)
(0.76396 -0.161133 0)
(1.1744 -0.0534197 0)
(1.15722 0.107348 3.69131e-21)
(1.26965 -0.0139813 -2.65222e-20)
(1.17119 -0.0529362 -1.14383e-21)
(0.451644 0.0178902 0)
(0.602064 0.0110579 0)
(0.606433 -0.00043693 5.88496e-22)
(0.424569 -0.0134266 0)
(1.13637 0.0206139 0)
(1.02264 -0.0130159 2.65619e-20)
(0.43739 0.02124 0)
(0.918025 0.0303376 0)
(1.10436 -0.0493053 0)
(1.17248 0.1862 -6.58402e-21)
(1.25046 0.0578449 1.10894e-20)
(0.971171 -0.0305281 6.69571e-21)
(1.27753 -0.405021 -9.75885e-20)
(0.619412 0.0152531 1.17535e-20)
(1.3283 0.04553 3.65172e-21)
(1.29015 -0.0988815 0)
(-0.454309 0.0538125 0)
(-0.271821 -0.0706107 0)
(1.1762 -0.0273877 -3.45367e-21)
(1.31879 -0.298449 -1.51622e-20)
(1.30418 0.131672 0)
(1.10354 0.0483713 -6.76285e-21)
(0.239678 -0.106044 0)
(1.51106 -0.188657 6.44608e-20)
(0.412135 0.519101 1.17376e-19)
(0.247178 -0.0543571 0)
(1.08151 -0.28085 1.0475e-19)
(0.499626 0.0952055 0)
(-0.254181 0.123632 1.54309e-20)
(1.3199 0.115848 0)
(-0.037666 -0.0895254 -3.68676e-21)
(0.983546 -0.049317 0)
(1.28649 -0.0497504 -7.28262e-21)
(-0.135117 -0.0813744 -7.0497e-21)
(1.13089 -0.0236008 1.00258e-21)
(1.19624 -0.146532 -7.15358e-21)
(0.571533 -0.515826 -9.38311e-20)
(1.18888 0.0121994 -1.08226e-21)
(1.19705 -0.133626 5.51091e-21)
(1.18122 0.245372 -2.07585e-20)
(1.17534 -0.0305019 -6.9312e-21)
(1.16663 -0.00509214 -1.70879e-22)
(-0.191986 -0.164723 -4.74256e-20)
(0.0359409 0.0417243 -7.29184e-21)
(1.29527 0.0108541 1.85384e-21)
(1.06017 -0.0504716 0)
(0.433484 -0.206108 -5.53844e-21)
(1.3927 -0.449973 7.09636e-20)
(0.898436 -0.0924876 -5.07441e-20)
(1.42358 0.139173 7.46115e-20)
(1.08496 -0.0539718 2.66751e-21)
(1.22014 -0.155255 2.05128e-21)
(1.06228 -0.00711341 0)
(1.18541 -0.0143368 0)
(1.31447 -0.0632393 6.88136e-21)
(1.08756 -0.0197265 -4.50197e-21)
(1.20256 -0.125737 7.37963e-21)
(1.10516 0.0362327 -5.79598e-21)
(1.4582 -0.0257809 -5.0661e-20)
(0.456509 0.0277273 0)
(1.30924 -0.127451 -9.20672e-21)
(1.34338 0.119947 0)
(1.1203 0.0417304 -4.01623e-21)
(1.14233 0.0283582 0)
(1.04193 -0.0092215 1.38245e-20)
(1.22977 0.0406476 1.25464e-20)
(1.15945 -0.0964643 0)
(0.0458252 -0.0306199 1.40646e-19)
(0.883207 -0.21261 -7.6187e-20)
(1.33506 -0.0172088 -3.39656e-20)
(-0.108784 -0.0788567 3.81059e-20)
(1.19551 0.0348447 3.61761e-22)
(0.708815 -0.0990464 -3.58732e-22)
(-0.100096 -0.0465922 -3.97338e-20)
(-0.0246537 0.00509668 -2.54927e-20)
(1.01843 -0.0303162 0)
(-0.0265403 -0.0313356 0)
(1.24838 0.138008 0)
(0.111543 -0.104042 0)
(1.12176 -0.0266367 0)
(0.121255 0.0268709 0)
(1.10871 0.0513322 0)
(1.17033 0.21527 0)
(1.28902 0.0812752 -6.10081e-21)
(0.56708 -0.282499 -1.94453e-20)
(-0.186442 0.0160423 0)
(1.1029 -0.112424 5.2805e-20)
(1.30841 0.0231299 2.54548e-22)
(1.39872 0.10714 0)
(-0.03732 -0.0388887 0)
(1.15988 0.0198493 1.45808e-21)
(1.17107 0.00289506 -1.10953e-21)
(1.16862 0.387581 0)
(0.214054 -0.0929615 5.06333e-20)
(1.12006 0.0614748 1.27256e-21)
(0.222373 -0.0516615 -4.81014e-20)
(-0.0608767 0.049885 -3.21716e-20)
(-0.0318578 0.0489672 8.3227e-20)
(0.556737 0.246973 2.55146e-20)
(1.07885 -0.112733 3.37586e-22)
(1.12412 0.0510949 -4.71778e-21)
(1.02357 -0.00790746 0)
(1.07017 -0.0729459 -2.32185e-20)
(1.21776 0.0885084 -1.19186e-20)
(-0.00914218 -0.0271527 9.09806e-20)
(0.980915 -0.0721562 -6.16575e-20)
(0.573316 -0.12697 1.05953e-20)
(1.12731 -0.0332246 -3.47891e-21)
(0.0642116 -0.0315885 2.96391e-20)
(0.23165 -0.0392069 -4.28212e-20)
(0.359379 -0.0735967 -4.58889e-20)
(1.15016 0.0611725 9.44626e-21)
(-0.0532413 -0.0329489 0)
(0.902421 -0.0658489 9.79161e-21)
(1.22844 -0.195238 -1.1234e-20)
(1.21245 -0.143243 1.08317e-20)
(1.31151 0.0025616 0)
(1.51534 -0.242898 6.21518e-20)
(1.13424 0.0269497 -3.08572e-21)
(-0.0123313 -0.0361175 -3.06093e-20)
(0.310985 0.0555193 0)
(0.899618 0.0301993 -2.12583e-21)
(1.13048 0.0275263 -2.28112e-22)
(0.488021 0.0143572 1.03159e-20)
(1.16376 0.0163606 -5.72609e-23)
(1.11682 0.0522045 0)
(1.11798 -0.178715 -1.31074e-20)
(-0.0768516 -0.123144 -5.94718e-20)
(1.32662 -0.0266373 2.41395e-20)
(1.10313 0.175821 -8.93454e-21)
(1.12027 0.0362081 6.62878e-21)
(-0.0374716 -0.0520224 1.35867e-20)
(-0.0267078 0.0370083 -6.21136e-20)
(0.792019 0.000332166 0)
(0.90653 0.234985 0)
(1.15064 0.0976526 -1.68794e-20)
(1.0514 0.0687618 1.28139e-20)
(1.12994 0.0291017 0)
(0.486339 -0.107742 4.87004e-20)
(0.743188 0.0811824 -1.15088e-20)
(1.09828 0.106321 0)
(1.11044 0.0408892 0)
(1.36509 0.199556 0)
(1.16755 0.0636478 0)
(1.27827 0.0681759 1.23978e-21)
(-0.0428104 0.0464428 3.51386e-20)
(1.15688 0.028651 6.42396e-21)
(1.39719 -0.216412 -7.17131e-20)
(1.29534 0.094513 -2.5268e-21)
(-0.060254 -0.0235244 0)
(1.19776 -0.208106 0)
(0.612788 -0.0113352 1.57949e-22)
(0.543923 0.00729356 -5.92768e-20)
(0.0758661 0.0349752 4.80895e-20)
(0.933766 0.0268312 1.18869e-21)
(0.727486 -0.270532 0)
(0.65679 -0.0923258 0)
(1.23399 0.105171 0)
(0.540585 0.513879 2.02246e-20)
(-0.0181043 0.0189189 -2.85546e-20)
(1.10389 0.00263773 6.77339e-22)
(-0.0193546 -0.0629602 5.76576e-20)
(1.13385 -0.016008 2.94378e-21)
(1.17349 0.313327 3.95927e-20)
(1.11489 -0.0948121 9.13716e-21)
(0.179928 -0.0863917 6.20693e-20)
(1.0349 -0.0768182 3.20715e-21)
(1.1685 -0.202898 0)
(0.561416 0.271745 0)
(0.965873 -0.0889811 4.99675e-22)
(-0.183194 -0.0436677 0)
(0.604836 0.0276592 2.07221e-21)
(0.597214 -0.413604 -2.69087e-21)
(0.243619 0.0488693 -1.12066e-19)
(1.12172 -0.231434 3.73005e-20)
(1.03906 0.363604 1.0288e-20)
(0.977922 0.019597 0)
(1.20064 -0.044892 4.32393e-22)
(0.630415 0.0179455 0)
(0.973824 -0.0174576 -7.27573e-22)
(0.409957 -0.0239251 0)
(0.710569 0.130374 0)
(1.00614 -0.0181841 -4.17526e-21)
(1.43466 0.166212 -1.36552e-20)
(1.12911 -0.0210369 2.57871e-21)
(0.518066 -0.488146 0)
(1.13367 -0.159389 3.33391e-21)
(0.803142 0.377388 7.15036e-20)
(-0.0357699 0.0219461 1.17305e-21)
(1.22339 -0.00183189 7.93384e-21)
(1.21252 0.0408814 -9.35888e-21)
(1.1717 0.0214025 9.5584e-22)
(0.784553 0.0103297 -2.99371e-21)
(0.0673316 0.0177443 3.75136e-20)
(-0.0181116 -0.0363244 -5.11261e-20)
(-0.208656 -0.0626049 0)
(-0.233745 0.0782779 0)
(1.17591 -0.615418 2.91764e-20)
(1.15727 -0.0231782 1.66742e-22)
(0.875576 -0.461268 -3.80623e-20)
(0.943511 -0.0268597 -2.06674e-20)
(1.36728 0.194592 3.38801e-20)
(0.604855 0.420908 0)
(0.246325 0.415437 -1.16468e-19)
(0.595021 0.480301 0)
(-0.00167315 -0.00373733 0)
(1.1189 -0.482766 0)
(-0.0484686 -0.0028825 -4.72573e-22)
(1.20072 -0.0107525 0)
(0.934672 0.281626 -2.45595e-20)
(0.594794 0.692198 2.04739e-20)
(1.26219 0.190118 1.57106e-21)
(-0.0335012 -0.106129 -9.47544e-20)
(0.654847 0.211623 1.17402e-20)
(0.455895 0.144699 -1.3448e-20)
(1.20156 0.0933256 0)
(1.36097 0.352593 3.48566e-20)
(1.22251 0.564082 6.68309e-21)
(0.168717 -0.0159696 -2.24032e-20)
(1.01491 0.11557 3.25185e-20)
(0.924439 -0.0227466 -2.4079e-23)
(0.905523 0.0324693 -3.2926e-22)
(-0.0145132 -0.0329127 0)
(0.643538 -0.650551 -3.16774e-20)
(0.612863 0.201299 0)
(0.0661483 -0.148031 0)
(-0.04986 0.0613501 0)
(0.000845456 -0.136854 -3.57472e-20)
(1.23393 0.00924882 -9.12991e-21)
(-0.0261374 0.0519284 0)
(-0.036344 0.0443001 0)
(1.43994 0.111123 -7.12783e-20)
(-0.0374468 -0.0779596 4.28746e-20)
(0.11482 0.234581 -1.0204e-19)
(0.396806 0.0152357 0)
(0.168262 -0.276239 8.28033e-20)
(1.06421 -0.242378 0)
(0.995467 -0.286234 0)
(0.00226866 -0.110235 8.92418e-20)
(1.14783 0.03997 -1.09317e-22)
(1.12664 0.341329 2.8639e-20)
(0.268599 0.0269448 4.63211e-20)
(0.40084 -0.513859 -4.0644e-20)
(1.28251 0.0696989 0)
(1.22457 0.188185 2.20889e-20)
(1.2228 0.207915 -2.71311e-20)
(0.102402 0.0892447 -2.36587e-20)
(-0.0652151 -0.0394218 0)
(1.07048 -0.0578317 -2.01822e-20)
(1.10049 -0.225976 -1.83135e-20)
(0.580449 -0.402763 0)
(1.09686 -0.152556 -2.78312e-20)
(-0.147915 0.0557257 0)
(0.610591 0.0358924 0)
(1.46817 0.0459106 4.50866e-20)
(0.985955 0.0287869 4.14642e-22)
(1.0766 0.742778 -1.70843e-20)
(0.223888 -0.376107 1.36208e-19)
(1.10366 0.019238 3.59641e-23)
(1.20456 0.0748947 -3.4279e-22)
(-0.0522798 0.0478177 2.95153e-20)
(0.787624 0.733044 2.94409e-20)
(1.34322 -0.380814 -1.26312e-20)
(-0.0486334 -0.133771 8.81256e-20)
(1.1051 0.052172 0)
(0.152847 -0.0818291 -7.1651e-21)
(0.888619 -0.631023 2.42702e-21)
(0.901467 0.641759 -1.83586e-20)
(0.517987 -0.0414633 -5.50576e-20)
(1.14621 -0.000717108 -3.59459e-21)
(1.07716 -0.0866292 7.72163e-21)
(1.14575 0.0532119 8.51376e-22)
(1.10573 0.121234 4.44719e-21)
(1.13097 -0.133493 0)
(0.914233 0.105638 1.45484e-20)
(0.889642 0.459159 0)
(1.21759 0.0985887 -5.64899e-22)
(1.16666 0.112969 4.22906e-22)
(0.756448 0.26425 0)
(0.526156 0.109813 1.06882e-19)
(0.893259 0.711711 -9.41231e-22)
(1.07864 0.290499 -2.19944e-20)
(1.04392 -0.011776 1.3038e-20)
(0.415054 0.491432 0)
(1.28944 -0.479438 0)
(0.505275 -0.0975414 4.03102e-21)
(1.26526 0.502245 0)
(-0.0207816 0.0531637 -4.28267e-20)
(1.2779 -0.420345 8.51563e-22)
(1.16475 0.507938 0)
(0.45208 0.217711 1.71079e-19)
(1.12685 0.31497 -1.18925e-19)
(0.811736 -0.639314 -2.80183e-20)
(1.15102 0.0552462 -2.66191e-21)
(0.921151 0.15013 8.07362e-20)
(1.08946 0.16849 5.30367e-20)
(1.07127 0.70309 8.23106e-22)
(0.900404 -0.437521 6.89987e-20)
(1.4214 0.179069 3.87341e-20)
(1.12973 0.011336 -7.67945e-22)
(-0.0064621 -0.0545307 7.85467e-20)
(1.07463 -0.700977 1.8396e-20)
(0.865913 -0.7173 5.90429e-20)
(0.249833 -0.330443 0)
(0.97144 -0.147073 7.63818e-20)
(0.362043 0.308006 -4.43978e-19)
(-0.106305 -0.0794887 2.28491e-20)
(0.253388 0.0356647 2.26547e-20)
(0.649383 -0.0620027 -6.55689e-20)
(1.07905 0.528064 0)
(0.993492 0.222901 8.18986e-20)
(1.08642 0.032211 3.65461e-21)
(0.909254 0.441749 -9.21908e-20)
(0.774522 -0.720388 -9.51577e-21)
(0.92525 0.0238414 -5.01197e-20)
(0.976895 0.488694 0)
(1.11134 0.183078 -1.03119e-20)
(1.37324 -0.520218 1.11301e-20)
(1.22489 -0.346176 8.1494e-21)
(-0.292052 -0.0105284 3.214e-20)
(0.193841 0.00477889 -1.83724e-20)
(0.974429 -0.11788 -5.97298e-20)
(0.352808 0.525416 0)
(0.913263 0.0174829 3.99344e-20)
(1.15766 0.635422 7.78725e-20)
(-0.0622126 -0.124844 1.26921e-19)
(-0.0700572 0.0185248 -2.44253e-20)
(-0.0782006 -0.1072 3.73073e-20)
(1.09674 0.0249453 -4.92712e-21)
(1.11626 -0.460473 0)
(1.06141 -0.734595 -4.92823e-20)
(0.69797 0.349486 0)
(0.0335208 -0.130282 -9.09402e-20)
(1.12647 0.027711 3.76873e-21)
(-0.0331631 -0.0937948 -2.57563e-20)
(1.04819 0.0558432 -1.21823e-20)
(0.111684 0.0305896 5.554e-20)
(0.852717 0.124502 0)
(1.40457 -0.0356565 4.95221e-20)
(0.046831 0.0353446 -2.57226e-20)
(-0.297284 -0.0126579 -3.81516e-20)
(-0.226183 -0.0337685 0)
(0.0662476 -0.0164996 0)
(1.36248 -0.0105107 -1.31112e-20)
(0.357414 -0.014057 1.34638e-19)
(1.25797 -0.727269 -1.33871e-20)
(0.844081 -0.125871 1.6766e-20)
(1.07325 0.251585 -3.09912e-20)
(0.36539 -0.554104 1.43689e-19)
(1.54309 0.274255 -3.41069e-20)
(0.0521593 -0.080384 3.02317e-20)
(0.20803 0.305892 1.97948e-19)
(0.0735221 -0.04914 -1.13764e-19)
(0.939764 -0.493322 -4.51484e-20)
(1.45315 0.384827 3.44396e-20)
(0.562288 -0.672099 5.13333e-20)
(1.10755 -0.085872 -7.5455e-21)
(0.193127 -0.0553546 4.92962e-20)
(1.1851 0.2886 -4.77579e-20)
(0.661726 0.639685 -4.12793e-20)
(1.32482 -0.62472 0)
(1.4179 0.517021 3.33848e-20)
(1.04894 -0.529438 -1.21858e-20)
(1.38815 0.60453 -9.73648e-20)
(1.18042 0.0422023 0)
(-0.053143 0.0678996 0)
(1.25047 0.727953 0)
(1.13884 0.0654301 -7.596e-21)
(0.738805 -0.300845 -2.12073e-19)
(0.474952 -0.0826118 0)
(-0.0573406 0.0609284 -2.50171e-20)
(1.01893 -0.247749 1.05127e-19)
(-0.379968 -0.0141792 0)
(0.320934 0.0262073 1.24125e-20)
(1.13901 0.0412566 0)
(1.41488 0.270302 0)
(1.18592 0.050237 2.85039e-21)
(0.35962 -0.290742 0)
(1.01467 0.151609 3.84746e-20)
(1.3092 0.28365 0)
(-0.0972434 0.0194168 -8.64304e-22)
(0.810358 -0.395782 0)
(1.51265 0.335012 -5.1246e-20)
(1.24141 0.366431 1.02431e-21)
(0.839891 0.644992 -9.97236e-21)
(1.01225 0.159117 -9.04444e-20)
(0.968291 -0.205204 -5.10099e-20)
(1.45067 0.291143 3.01546e-20)
(1.00155 0.0795231 0)
(0.563181 -0.0705184 0)
)
;

boundaryField
{
    FrontBack
    {
        type            empty;
    }
    Top
    {
        type            noSlip;
    }
    In
    {
        type            fixedValue;
        value           uniform (1 0 0);
    }
    Bottom
    {
        type            noSlip;
    }
    Out
    {
        type            zeroGradient;
    }
    circle
    {
        type            noSlip;
    }
}


// ************************************************************************* //
