/*--------------------------------*- C++ -*----------------------------------*\
| =========                 |                                                 |
| \\      /  F ield         | OpenFOAM: The Open Source CFD Toolbox           |
|  \\    /   O peration     | Version:  2412                                  |
|   \\  /    A nd           | Website:  www.openfoam.com                      |
|    \\/     M anipulation  |                                                 |
\*---------------------------------------------------------------------------*/
FoamFile
{
    version     2.0;
    format      ascii;
    arch        "LSB;label=32;scalar=64";
    class       volScalarField;
    location    "780";
    object      p;
}
// * * * * * * * * * * * * * * * * * * * * * * * * * * * * * * * * * * * * * //

dimensions      [0 2 -2 0 0 0 0];

internalField   nonuniform List<scalar> 
808
(
-0.03597231011648162
0.04501824969314422
-0.01183216606899235
0.03496074050085678
-0.304108742212036
-0.05468924740587385
-0.01459474476208808
-0.02393820401592888
-0.2003385377838822
-0.08574956170133384
-0.009561374968919456
-0.2580271829990692
-0.03060273495650528
-0.01299084661663047
-0.1213407516955652
-0.01403956528843564
-0.139843937479935
-0.01358380620333717
-0.01241959859640472
-0.05702161026806111
-0.005903722495356644
0.1183460874571598
-0.06080873811943745
-0.0734977580653601
0.1765582613040907
-0.09940687166019656
-0.1554477669448849
-0.02030864131582933
-0.0173772087690771
-0.02599277268337538
-0.02017476555735147
-0.05994206879122033
-0.02294173888764264
-0.0168366215027946
-0.1012411460330421
0.3439930158008582
-0.03858535865830565
-0.01677609307546304
-0.0232821296002752
-0.02657182430706209
-0.09200954658670024
-0.1291851803515567
-0.05076341212139839
-0.02069150062384624
-0.05477777108779867
-0.03983907846249499
-0.0123448463878461
-0.187806042510216
-0.02758808568971467
-0.2076770043515828
-0.01616946397897133
-0.06906219860601728
-0.05946920419252887
-0.01468864784670405
-0.1901765224378925
-0.02898441414373099
-0.01061181097661665
-0.01419405182423387
-0.1025285491382699
-0.04070684995555127
-0.09691809995181377
-0.1287852229497772
-0.01341288727507698
-0.1305294224406586
-0.01700287424952459
-0.05057720920032992
-0.1675004980772372
-0.03566569171848991
-0.01489705888994779
-0.4465473191071228
-0.02698837720262472
-0.3083908185211505
-0.02201400151281211
-0.02042313510331438
-0.06750759841273311
-0.01739421410160049
-0.04356355997170896
-0.358975460755882
-0.03550393992825945
0.04213775473867173
-0.0904161730434969
-0.01728551511668085
0.05681149474943354
0.04338139727642038
-0.01659637951204262
-0.05332984177019435
-0.5494997877562788
-0.2226215296425545
-0.0534804414764541
-0.1114717412829491
-0.0581018663036594
-0.1351251150179912
0.04079540779129385
-0.02376248351713195
-0.06051304429745429
-0.1199532883166595
-0.0384999211602557
-0.05204739137810896
-0.1183398646525576
-0.1404698536741586
-0.05214155912209178
-0.04845363575059876
-0.05569417425592921
-0.0458162838948955
-0.05793591061001759
-0.0731969624283004
-0.04146766485656831
-0.01123975568344753
-0.04111088336529415
-0.1268987472365574
-0.05128867640965969
0.08341092765827607
-0.04315956246532154
-0.008015681524024668
-0.02783102908081552
0.1800928603748384
-0.03990516941367512
-0.273926466687642
-0.02034840823772355
-0.05493671821560865
-0.02711125950437552
-0.04782918993415685
0.01256486552475331
-0.05017564015130099
-0.03396349857518402
-0.2139743821190344
-0.04300163298237442
-0.005012003515680013
-0.07785716531659316
-0.06751000199285258
-0.1478061114129378
-0.02097609153387534
-0.07662995963624505
-0.04105290070118307
-0.02277265651381936
-0.01664164117740352
-0.006404695438012527
-0.007384346436141487
-0.05317794870168205
-0.05102618659098025
-0.2089523122223219
-0.05820915486468906
-0.008575145274267625
-0.02277968173081928
-0.1446864092550417
-0.002308334660423643
-0.07787715826465372
-0.02383604957427576
-0.001362743463535967
-0.01040356926204037
-0.03391473222271404
0.09564095068350217
-0.03985914388781891
0.2527697179915415
-0.2647002372192637
-0.130214480862622
-0.0371832326510896
-0.09131270426415347
-0.009163217170094634
-0.1116686715155863
-0.1861405162273398
-0.2140623881788528
-0.1834406751363101
0.05534022416181499
-0.06180177444594638
-0.02033097460020508
-0.06799343216127814
-0.1727052539643921
-0.02390916689311437
-0.0185742164518619
-0.05340321338870541
-0.01796756266238769
-0.005890744242180206
-0.1106866584406773
-0.02281983170391124
-0.04675423463931676
-0.06873862746533418
-0.1641028458981665
-0.03373383703315518
-0.3966344195347107
-0.01783594542086854
-0.2222436086993552
-0.04551967060223834
0.03046037738175423
-0.1051350047148533
-0.01412058808836158
-0.0415828488287104
-0.1058860062290427
-0.01774159717721302
-0.09715370607232714
-0.2050855182618244
-0.07306383636869487
-0.02375228429372172
-0.04997633705306544
-0.04389733445226726
-0.2040548048787205
-0.02189073604981248
-0.01898545686670383
-0.01137360840973822
-0.05453681324619598
-0.0521409871020287
-0.02245248524723524
-0.020837279417121
-0.247987302645398
0.1280539569136446
-0.2002660267546764
-0.208470239245351
-0.01178097076847048
-0.01162647673694578
-0.06771680751046688
-0.009483093197588612
-0.515175498049715
-0.1229623946818259
-0.01899585385235282
-0.001361634670235826
-0.02428807753805154
-0.287576383982035
-0.2735526920640396
-0.007109513224779302
-0.0177244403003572
-0.002123692602753293
-0.3440069893022428
-0.02829725401684947
-0.02918473866394213
-0.01250877997214649
-0.01977032734717124
0.05106742645013041
-0.1088367034814894
-0.01380147253401359
-0.02074679155500889
-0.04288746081240354
-0.01821389338858791
-0.01615820592035518
-0.02337356719434203
-0.06686988825102456
-0.0118785402267993
-0.01907025915788222
-0.008532473720493894
-0.0008503765944557299
-0.02955647041301278
-0.001554564217861076
-0.002301741894230951
-0.006098064795744842
-0.02561848596401977
-0.008011262697178549
0.001576581989799349
-0.004158353612801099
0.001147640656140349
0.002512219857749383
-0.008524745990364034
-0.1422862457223213
-0.003033737911136107
-0.00125288071468481
-0.04836657416739811
-0.02150121740873753
-0.02489936397615556
-0.01439510267081048
-0.006087163637445202
-0.02089837512705592
-0.03726948401369243
-0.01402901982077259
-0.01280382000770676
-0.01194614433758642
0.006743178081410483
-0.01024794351162633
-0.01205451510368742
-0.01127524890503897
-0.01074775740396864
-0.01005878872109959
-0.011445063312027
-0.01414789955304049
-0.3113494691101079
0.06113392929080123
-0.01540258725584504
-0.01677314889527095
-0.01306118667417529
-0.01238288174552021
-0.008745891991269216
-0.09802596967023801
0.008964049182867162
-0.01379569047239647
-0.01477985744469469
-0.01082432932456382
-0.05340689249164243
-0.009889163597562731
-0.01388533250930068
-0.009247940546743806
-0.0007335821575790253
-0.00972871676279416
-0.01098832617143722
-0.02489265359468199
-0.01629454439445621
-0.01190205138035375
-0.01332941595715034
-0.007960626026989192
-0.01291606246736197
-0.01159572380664596
-0.05714239248890466
-0.01294845945391594
-0.01140275817117347
-0.008667261121952579
-0.01488370957611162
-0.01400089787826063
-0.01575088025781449
-1.380843575294563
-0.09818429582106949
-0.01311126006684811
0.0233072508705784
-0.1659376096761898
-0.09291094149474143
-0.01136223411665157
-0.01408165453823678
-0.2558457109882001
-0.03096945371415721
-0.02062292031596996
-0.01092558890402029
-0.01970297055802873
-0.01103558278504234
-0.03069566029097464
-0.4163683192671222
-0.0122798709751507
-0.01410082883028628
-0.004888657091782309
-0.01058312240063551
-0.009649342341348446
-0.01433885196869092
-0.009220438626044731
-0.02616356274604482
-0.01128435545945448
-0.1610628920736327
0.01754964054266006
-0.007755185904807272
0.003154107359143787
0.01328028537960251
-0.04725251776387294
0.03002855948324941
-0.0128850068317
-0.1360083237257383
0.2819344028396332
-0.007303790492254256
-0.01316816608246266
-0.00842601907382493
-0.03324026926847432
-0.1221369984500282
-0.01301915476326399
-0.01237193890735488
-0.01702516109493502
-0.01359370818093381
-0.04100253488302838
-0.2134866020185262
-0.01156642070582264
-0.04104347238040244
-0.03995461242081919
-0.1648072108766399
-0.1657231844808748
-0.1417136497929965
-0.2568825252588321
-0.00728597400474003
-0.02129708925729077
-0.01440209889101406
-0.01278894486977706
-0.03286986663563256
-0.0243955312853642
-0.01447139024422634
-0.01503768942638261
-1.083915720184375
-0.005569170966508006
-0.01366700112989184
-0.01847592390004675
-0.01946004632484174
0.00210828427553974
-0.01410666724153672
-0.02800148775966442
-0.1649626429707105
-0.01362153176986133
-0.0221431401107883
-0.01386030754067086
0.001338210947669608
-0.1795222120112448
-0.01333142713894356
-0.1416899828109587
-0.01603111454079935
0.008835659987667143
-0.01460151213399024
-0.02310440133178531
-0.01572615477826023
0.004744845494159732
-0.2794104081196994
-0.02550256896787755
-0.01607320496869506
-0.005082117258775017
-0.009389723424598611
-0.03061223790813843
-0.01437384954900909
-0.02044962323702568
-0.02135522348616184
0.01203810753874575
-0.1013733681066101
-0.02214675222635496
0.00918732281495065
-0.05045112173994179
0.1568811044011524
-0.102535129480763
-0.3223398644072741
-0.03052209933323013
-0.02546245507338729
0.1488372999913401
0.08501110717817084
-0.003276367424206188
0.04984280578090786
-0.0156497112959073
-0.01473370398193341
0.002217008916057563
0.01200409120190271
-0.06727981310730118
-0.005581139421468962
-0.05774911300347953
-0.02225577097023971
-0.01571568140377237
-0.03652856714659358
-0.03291808059945343
-0.006642797104306576
-0.01501517903927367
-0.03948558529263424
0.03736628727941578
-0.03888945962836788
-0.01355437650285916
-0.1159091072157689
-0.03199168819988003
-0.0384526373502397
-0.679078496908799
0.01853512504314512
-0.01095129893796859
-0.005330658423737926
0.1602947459693894
-0.08355489885466125
-0.03496955593611522
-0.2478500478913278
-0.01659183100446108
-0.01661939797198583
0.06089584844807688
-0.1855670916398736
-0.2265316054546222
-0.1990205941486471
-0.6882500734546234
0.005277432620858794
-0.0176101999366827
-0.01656583788073399
-0.07817950693943672
0.1175946212404373
-0.02122482729497122
-0.2463622353067217
-0.03491762119700646
-0.006475942845886419
0.2768393880975563
-0.0113062190395542
-0.09418022217376019
-0.1483840546948189
-0.004846878285180186
-0.04036562939851674
-0.04759154765616674
-0.2068205043156134
-0.008882777643239293
-0.042438114433182
-0.002509577547220258
-0.5524835534544718
-0.2009060084201192
-0.1751945600777519
-0.0227279612821376
-0.006862851317040093
-0.05972949876453926
-0.0584387687036597
-0.01493866067225384
-0.06731570216488296
0.002753099315204866
-0.01839258915457746
-0.09513451212253475
-0.2659541515230897
-0.007674559830093356
-0.02631594616896674
-0.02211501607721986
-0.07398324447162533
-0.09143148655088147
-0.08755670832147856
-0.01165010854418729
-0.9295490530096063
0.1604511342481755
-0.07948973519532349
-0.2581356518440103
-0.04269369324863768
-0.01047551829359304
-0.2514815982274438
-0.1826575318439374
-0.03353018080481562
-0.1277548511466722
-0.01883009777183306
0.5626029184299634
-0.02380966004329381
-0.2300946125285634
-0.02624763060799521
-0.005361046195414014
-0.01188030755574205
-1.256000374835824
-0.183825372706585
-0.2347844871890049
0.005413390092838476
-0.0368403457785633
-0.2536365737765823
-0.06522262346096044
-0.05085707157185062
-0.1413504147007299
-0.1927865693869305
-0.0675382937266741
-1.232577757819478
-0.1428316619273903
-0.5174590506906631
0.07852419334138702
-0.007019210049569618
-0.02202718617307909
-0.04232947921075249
-0.04100757578255027
-0.02883636230946614
-0.1319175794669102
0.07959477529182864
-0.002792314964318151
-0.009732765986075019
-0.5824367100172704
-0.866478572472584
-0.1871818278164923
-0.008139001431739797
-0.1380112156389916
0.001163995121606997
-0.0007807493460203252
-0.001954628059197961
-0.05983897384505272
-0.239930417176696
-0.01342760184092382
-0.1247260943725263
-0.1549601726178049
-0.01324154789257134
-0.03602824329977302
0.02138288610732542
-0.05714205421014639
-0.06941170979189708
-0.5047392395498337
-0.2424760121199935
-0.08114614206632378
-0.07211475207381356
-0.01995372479639801
-0.1234445146717856
-0.1524713919779911
-0.07471679448242918
0.02408868724713143
-0.08402097760589104
-0.04775861091984097
-0.0149078313949014
-0.107212109454649
-0.2711623993510173
-0.05641120361072428
-0.0185425906173082
0.0006338804808572413
-0.01001761972304414
-0.01117266425766834
-0.2163491079690469
-0.01513636736550786
-0.2233160546516596
-0.01038299636640152
-0.0656949274162619
-0.003775075122287602
-0.0231971129151505
-0.3759391696071984
-0.9058586269554687
-0.01133787418513432
-1.051482788908505
-0.6157006605421629
-0.01070147680706795
-0.6541568106623555
-0.1751006198474253
-0.005779554934660267
-0.1312887432320602
-0.01704745732903279
-0.1211272479004178
-0.06777228974863651
-0.07617901030045061
-0.00510971505437136
-0.002646433665998289
-1.33425008157668
-0.01111733553632489
-0.1852459214132032
0.0005043510383115685
-1.014535265650321
-1.229788224174104
-0.08212269674455061
0.02020711590534107
0.1642659021783053
-0.004703706260847127
-0.0230394693080785
-0.004219137625055144
-0.254115186110036
0.3662217172535546
-0.0407440120015448
-0.2098191557593462
-0.01492676709766331
-0.657949554884475
-0.07554577708841911
0.1914774099302277
-0.2825949098270608
-0.04970154069471367
-0.06855408402211192
-0.01591900723568758
-0.0217557843217524
-0.5726666880578423
-0.1438455663666743
-0.0853869239844607
-0.128755939040148
-0.5579017443077275
-0.04405390581659771
-0.9105861946064737
-9.881232707604203e-05
-0.2367357202907337
-1.045982886507223
0.1691700155889828
0.2923989634356193
-0.1835937196575321
-0.1940201725897231
-0.2063225301266427
-0.068405809313253
0.02286795153140869
0.04974832376503092
0.004035018153973207
-0.1669670154555277
0.02555684474715956
-1.35242833119101
-0.084824518342036
-0.4715786800774477
-0.3288056241884721
-0.202492068681317
-0.1753035165475152
-0.01691648264708103
-0.01546388534680331
-0.1071022543159845
0.170476255067944
0.385789369968832
-0.2181498189717698
-0.1398267006871346
-0.2400380470937583
-0.062315743179631
-0.1498225974859524
-0.161866472145664
-0.1251970257206092
-0.1229866244065777
0.4668344237581264
-0.2675117202138229
0.430519754597405
-0.6016221499620359
0.07017796240000931
-0.2055270164229948
-0.06583080325554572
-0.07354860178555783
-0.8751590497246977
-0.2221183624464662
-0.1893283598689984
-0.3451214080452406
-0.4558072525381524
0.5707044815178561
-0.2054353727183925
-0.0002032917738143938
-0.07126686318277933
0.3431841217625899
-0.03797791207428695
-0.1307648717922135
-0.1783609439202818
-0.06351970874001676
-0.01653575486823895
-0.1936076186982818
0.192777730905889
-0.01281619019205913
-0.09579636268820063
-0.1675373694537514
-0.3133140073370059
-0.3145971968931864
-0.06394130643588668
-0.01030561893980537
-0.07731847045596033
-0.6569481101305454
-0.6674201088421274
-0.3398573585623362
-0.0574566724846599
-0.05237098094943055
-0.025504912405344
-0.0671605788145198
-0.0583494799380486
-0.3570568448955543
-0.9543854268834835
-0.01020719027843148
-0.08249643233441477
-1.134394955939104
-1.028435049380452
-0.1038040270461266
-0.03803822144100601
-0.07037906290574987
0.3910094367548732
-0.3456049911252725
-0.05062591467800111
-0.5962211721228471
-0.1220322398615873
-0.2542317760833934
-0.2090544593181277
0.4743702314240635
-0.6252549992934423
0.0726016009558124
-0.02962661832870282
-0.5552871396335494
-0.05099573104626282
-0.359599993402726
0.1063019162291391
-0.1892838106098159
-0.05953399471822177
-0.1385445229583654
-0.3637530185673468
-0.08908062098384978
0.5140224013775436
0.08500736126064601
0.4712482121545923
-0.1064022500759005
-0.1985728850488875
-0.5242138018396008
-0.1297321562594208
0.02730535572083796
-0.05317317182321805
0.103324782753337
-0.3089045503594349
0.2361702296666969
0.009136273855712066
-0.003204065370983105
-0.5153298707111704
-0.186583473004185
-0.08306380478943383
0.5814509549537124
0.1381670411113221
0.3463893313946317
0.2258482702625785
-0.5591658217334401
-0.2058483146995874
-0.22092008121574
-0.2375522076896216
-0.05995589339319518
-0.6968408843754756
-0.1950642059369372
0.3065210454170564
-0.203983564164221
-0.0111628843413867
-0.1732623637358287
-0.009061239752838752
-0.1562703297251187
-0.4325591133834643
-0.07676652697451336
-0.1968706295356834
-0.07119079104436959
-0.08830438137333572
-0.146309067852172
-0.07347785855977162
-0.456898772927996
-0.416782594337218
-0.026829363404636
-0.07381032906197313
0.3265424529547614
-0.2455360690337892
-0.1859060144574414
0.5257872501707379
-0.2089242440485294
0.01724415020936594
-0.4473217567768851
0.04583285326032645
-0.06259103167454488
-0.1496254102035889
-0.5800737350368389
0.1623055842958105
-0.5828807513342277
-0.5317876199500109
-0.1066571543304846
-0.5050037139791186
-0.0374820277113561
-0.1394204595013267
-0.4081285882155676
-0.01634109218856362
0.2861778400482423
0.4894344390993499
-0.1574541562133875
-0.008673464712045
-0.07243128976068246
0.5253651738911258
-0.03353988695475195
-0.436617816566871
-0.03283836990142218
0.4602999279611419
-0.01435106991165112
-0.5407824799089562
-0.2456435279966476
0.1754358453596009
-0.3083978620506774
-0.1774651410180969
0.05218193200418951
0.03405563138198909
0.0538458490244315
-0.2972117753210233
-0.1572125424556858
0.4127334428191964
)
;

boundaryField
{
    FrontBack
    {
        type            empty;
    }
    Top
    {
        type            zeroGradient;
    }
    In
    {
        type            zeroGradient;
    }
    Bottom
    {
        type            zeroGradient;
    }
    Out
    {
        type            fixedValue;
        value           uniform 0;
    }
    circle
    {
        type            zeroGradient;
    }
}


// ************************************************************************* //
