/*--------------------------------*- C++ -*----------------------------------*\
| =========                 |                                                 |
| \\      /  F ield         | OpenFOAM: The Open Source CFD Toolbox           |
|  \\    /   O peration     | Version:  2412                                  |
|   \\  /    A nd           | Website:  www.openfoam.com                      |
|    \\/     M anipulation  |                                                 |
\*---------------------------------------------------------------------------*/
FoamFile
{
    version     2.0;
    format      ascii;
    arch        "LSB;label=32;scalar=64";
    class       volVectorField;
    location    "780";
    object      U;
}
// * * * * * * * * * * * * * * * * * * * * * * * * * * * * * * * * * * * * * //

dimensions      [0 1 -1 0 0 0 0];

internalField   nonuniform List<vector> 
808
(
(0.7562477625658428 -0.01750219265646358 0)
(1.031273313073348 -0.01254307221363559 0)
(1.115526144459385 -0.003004903154902814 -1.809173590297996e-20)
(1.085120308266728 0.01260362833078451 0)
(1.364001492898848 0.01665593112527671 -3.920971996932901e-19)
(1.038665856615046 -0.009317275170404905 -7.157570695792825e-20)
(1.013467732448381 -0.02064770997208224 -2.32445678335955e-20)
(1.078584056466847 -0.00507603089867994 8.972058494915993e-21)
(1.253822439928129 -0.01888468455611372 6.378726862470396e-20)
(1.084407197713655 0.01011319051780553 0)
(1.013890876273328 -0.0093103520650179 0)
(1.305841527188012 -0.05180523721774981 -3.570885602535418e-19)
(1.085920736533753 -0.001682418999707129 2.033326065933678e-20)
(0.6750616541480221 0.006414921472389979 0)
(1.286055226831761 -0.1154771098528282 0)
(1.081472080579978 0.0001649396362277715 -3.816085554355823e-20)
(1.233385658839482 -0.1475489300761111 -9.956674732265328e-20)
(1.074043920969497 6.503110669961028e-05 3.164145643012386e-20)
(0.9932427964755882 0.00570624803648863 0)
(1.026445726790606 0.00925913944930094 0)
(1.040069164880922 -0.01103011693191772 0)
(0.9874491188379348 0.04440594651590454 0)
(1.051123643389949 -0.006020181069727261 5.503784624331621e-20)
(1.053330437794339 0.008935546288797541 0)
(0.9327081244146739 0.1974574044312669 4.613475576508835e-19)
(1.167403298624674 -0.0873245703117511 0)
(1.185438956065678 -0.01790338691730872 1.594463838868635e-19)
(1.077406500630484 0.009378860387205276 5.193830517681579e-20)
(1.084103694417446 0.002161678866436416 5.052243984041913e-21)
(1.072016111245019 0.03092831375642554 0)
(1.075614494027285 0.002599635490085153 -1.172731161317229e-20)
(1.033022576420773 0.006527786344437216 -1.970994586035759e-19)
(1.059829645099482 0.01489594666541962 -2.398593954165306e-20)
(1.089149539374737 0.005253301360178863 -2.92808181002861e-20)
(1.119401532258438 0.03870883603745785 0)
(0.7551974498846313 -0.1233749324152417 -4.534113090462944e-19)
(0.9544890554364612 -0.005832503485709207 0)
(1.068979032560565 0.02244347364716548 0)
(1.068840119021323 0.007352599874149939 0)
(1.073593491669731 0.008964543296673452 -2.836901536582187e-20)
(1.09183878423306 0.02402136806808794 1.119591794833147e-19)
(1.15013316117622 0.004038457190807823 2.194869877496207e-19)
(1.095860984064437 -0.002425901897641194 0)
(1.015947579597614 -0.008995735896799972 0)
(1.133031231561293 -0.09785352894882265 -1.654673258880099e-19)
(1.044096585537828 -0.01164442829294154 -7.901065775638458e-20)
(1.058352195050475 0.02664485148561116 -2.842123311309279e-20)
(1.231226436171234 -0.1113813189631725 -5.638180253914807e-20)
(1.067767505600076 0.01225842854758518 -4.270924342391987e-20)
(1.256806330006736 0.01896893830659727 0)
(0.9963436923313477 -0.01826067315223475 2.082306632799024e-21)
(1.044544065442504 -0.00200380074748552 0)
(1.087553821422121 -0.002248736869491091 0)
(0.998490554870312 0.006584010716513987 -1.851681840109832e-20)
(1.251164426959929 0.03498514605336029 -2.311817398583003e-19)
(1.063834006528459 0.01832979532017877 6.161169370089045e-20)
(0.9906648424321055 0.008287350234057038 0)
(1.020493322150718 -0.01019763035437563 2.365984881385516e-20)
(1.10693624915799 -0.0001646613773712362 -1.205997015341033e-19)
(1.061531078012144 0.03101980354010613 0)
(-0.07215439626223946 -0.00185356552993965 6.957223730847531e-20)
(1.154842431650388 -0.05122910223415914 -1.928186114773483e-19)
(1.005332453292757 -0.008436287506706509 -2.60025485830972e-20)
(1.183155634906567 0.06922618275728928 -1.235284741193543e-19)
(0.998399061909839 -0.009906556774178078 2.994606869520703e-20)
(1.084069389917249 -0.00554922172224317 0)
(1.243925863339746 0.09952445608044957 0)
(0.6960320797334202 0.003205928283752292 -7.500224377016963e-20)
(0.9901176009507362 -0.01399483861413097 -3.119822564279874e-20)
(1.461032827369281 -0.01647077114744365 4.515251256919027e-19)
(1.060565371541778 0.007568287743770891 -6.820167259831362e-20)
(1.368023584709688 0.09964971462812383 2.937059730258968e-19)
(1.054716338431275 0.006849942516142496 -1.869614507016191e-22)
(1.081277697591672 -0.01395277966919333 -5.211147349149707e-22)
(1.165054548181878 -0.2359702849606098 0)
(1.022051354740283 -0.0143227664991482 0)
(1.01744373151305 0.01750499127109484 -3.153231688962002e-20)
(1.385527205993058 0.3494404593613538 4.142817749083524e-19)
(1.096963076477401 -0.04212281692001326 9.302588333895538e-20)
(1.045343572862456 0.2094906952972647 2.554616676031165e-19)
(1.126044372516936 -0.06189332878680875 1.148081766852102e-19)
(0.9220824945989823 0.005138023853649872 0)
(0.97549221140813 0.01855381089231961 0)
(1.004136318843759 -0.04900141463695282 2.619447928700611e-21)
(1.010637251166435 -0.01291110853764332 7.437264119123187e-21)
(1.03017347771869 0.02584709070701428 1.407921002744208e-20)
(1.530446345465738 0.03788426586028962 3.289999454364704e-19)
(1.28925446242409 0.07228980680899556 5.458963372251982e-19)
(1.072448946118386 0.002952548384897897 -9.297165718822759e-20)
(1.20076828376484 -0.09404390484632197 0)
(1.033719826406475 0.001707651625227803 1.354975114121065e-19)
(1.163852018636834 0.02284281604266357 -3.245674079957194e-19)
(1.001434719898072 0.03228454047194232 0)
(0.9996274104685141 0.002025086705098779 0)
(1.044452064159242 -0.0001449056633349974 7.676241507365787e-20)
(1.207914435262366 0.1088184124600717 4.10287582282025e-19)
(1.011057555052071 0.006976281889826395 0)
(1.091449109502773 -0.07131842511170607 -1.052418411993808e-19)
(1.149222398638796 0.03788283997662474 0)
(1.209547489495757 0.09657985116201993 -1.940700232014378e-19)
(1.108015780763236 -0.02854392919190814 -7.622843811871528e-20)
(1.027522191237738 0.0115544843246272 0)
(1.085230621088937 -0.004673261891521265 0)
(1.019375689958806 0.02551791599608878 8.183760088678646e-20)
(1.072441610790913 0.05348072482156013 -9.33813386742302e-21)
(1.103787791965783 -0.004251456801836582 6.199869702652431e-20)
(1.11042186838076 -0.0971523182180128 1.537087713609672e-19)
(0.9603060289265739 0.0008279934722774816 0)
(1.066393828966537 0.03121868775860959 3.877298884700915e-20)
(1.168897289393356 -0.07576901098355035 2.356424520513676e-19)
(1.052179863700995 0.04469332758424657 -2.927337615851e-20)
(1.022503299786812 0.0672158886889888 3.760847701777267e-20)
(1.090594860744875 0.02613143190794406 0)
(1.013280091951523 0.01799064343393479 0)
(1.028994189693579 0.009442981547991411 7.920482812349327e-20)
(0.9487350371663194 -0.03362605288049929 0)
(1.053048116839242 -0.005712625403097572 -7.968238389876421e-21)
(1.342073071568862 0.06104245531193536 -1.600864116990543e-19)
(1.08003205293582 -0.01326068857825631 2.583170777811124e-20)
(0.7440367695824914 -0.001768450192234891 0)
(0.5434068174330772 0.1618747401435603 -8.214375490311665e-20)
(0.7060063388829231 -0.002544298687321105 0)
(0.6990170045054318 0.01465387847986667 0)
(1.077686370023933 0.003568222937752233 -6.844306034843746e-22)
(0.9906352499232327 0.01451165697719279 0)
(1.278511233582583 0.1233501777531113 2.467339165917011e-19)
(1.0123512028995 -0.02784716371351911 -7.97562042505015e-21)
(1.042320037868074 0.02246384864828273 1.572828220366643e-21)
(1.05852129370996 -0.01176235682070494 0)
(1.126551692809561 -0.009189155209677662 -4.941774577703059e-20)
(1.258208303840688 0.1396796996693949 -2.227678270156045e-19)
(1.089156405467462 -0.0112407014069626 -8.510321707071972e-20)
(1.069704717566011 0.02598871314877683 -1.109912450255725e-19)
(1.040733734125061 0.04671491711465454 6.806752600274901e-20)
(1.022399042092464 -0.003703735741043713 -3.447546723796215e-20)
(1.061194427307444 0.02350248603300973 6.137552040344587e-21)
(1.129712560254966 -0.005696229120708426 1.076666993963377e-20)
(1.040668823197095 -0.01486975813005647 -4.748664692498267e-22)
(1.08770602536826 0.03479928447882554 0)
(1.028274349850885 0.01334266710096033 0)
(0.7699215557111238 -0.05685031026427975 -1.831902459775669e-19)
(1.030147342198436 -0.001791626649556886 -6.97936285428922e-20)
(1.133245255108371 -0.004727050914965713 -1.307956149964939e-20)
(0.7034827139877489 0.006574415029029417 7.437414596770365e-20)
(1.175278876718725 0.02061695678102116 -1.903350410714923e-19)
(1.127922000174546 0.001247647342768642 5.499930931654852e-21)
(1.128983019871234 -0.01003974564463398 3.494174246046552e-20)
(1.000941509808812 -0.002943847589762025 -7.73496484145777e-20)
(1.097429613504193 -0.06888202736748873 0)
(0.9846888694255826 6.692456383127849e-05 0)
(1.057975973950286 0.00708871829484454 0)
(1.005334755346689 0.1880086715263876 -2.487364575927998e-19)
(0.7793693360600121 0.01240490264814063 0)
(0.8568446620324849 0.1007667235890268 -8.479322245716228e-20)
(0.07766944204192333 0.04143991218207953 -3.057042000581341e-19)
(1.173298426666203 -0.02974702586712523 -2.216946440781092e-20)
(0.6713262791214397 -0.007314620623236209 2.433467883179585e-20)
(1.170310430669923 -0.1041675449782944 6.959432307756918e-20)
(1.123959390048216 -0.006634913782806619 -6.005052127863082e-21)
(1.156092270087372 -0.04839184214151571 2.154337618601004e-20)
(0.1054682756945125 -0.2146305894758586 0)
(0.2586204197138004 0.09030451978788104 0)
(1.253601512484217 0.1139681751535105 1.942403197034677e-19)
(1.021436423551394 0.01981320112296416 0)
(0.7377517627732848 -0.006317569820724633 0)
(1.075339252223864 -0.01190892947404121 2.700453003628249e-20)
(0.9750379745348543 0.002779343968755766 0)
(1.288936601238075 0.132736185985914 -1.571532180615319e-19)
(1.05748542929401 0.01126370349600545 0)
(0.9935438370124413 -0.007843171104692719 0)
(1.065089279896088 0.008152916956587958 0)
(1.006162891270856 0.02080912151432725 1.734838565343055e-20)
(0.9295275353406317 0.01244547316992228 1.066818854583326e-20)
(1.177228145255347 -0.1995874679802859 0)
(1.005163909358168 -0.005203758385931526 7.780294026060763e-20)
(1.059146992322179 0.006322221636134441 0)
(0.7746594267062916 -0.003310336943308097 0)
(1.216227941116665 0.02959884690924307 1.67836230738863e-20)
(0.7050125475511728 0.001321353306858765 0)
(1.435931297159805 0.09040434747918639 -5.357352525119049e-20)
(0.9942057121969453 -0.006955785784349432 1.704077855859412e-20)
(1.274369831391497 -0.0006021196492737337 -2.91506492387752e-19)
(1.059722921881153 0.008788316626588362 1.398989657873928e-19)
(1.000904360944407 -0.01360880972624212 0)
(1.21859806799559 -0.1490026969621364 2.035405014858071e-19)
(0.7331925973929031 0.01379236653173014 0)
(1.098304925521927 -0.005150566004262052 0)
(1.151115636447422 0.06791069674947002 2.045036198282276e-20)
(1.007077938937641 -0.007118471176654291 -3.028176402116481e-20)
(1.119625462053482 0.05174356582816355 -1.764276475457686e-19)
(0.1120010546922909 -0.08229530140525429 0)
(1.072020200040368 0.03764000188849905 0)
(0.6616445720011955 -0.002929553192376652 -6.845885283088968e-22)
(1.012139143411233 -0.01946767258413628 9.791856074046075e-20)
(1.06156691115897 0.0006712629087450373 0)
(1.080614647869562 -0.1251873811662399 3.732270932177668e-19)
(1.002708817888696 -0.006220886487523473 -3.481463878040045e-21)
(1.002191735414202 -0.005284712028319491 8.745939912962673e-22)
(1.093932618461184 -0.009326866666773063 0)
(1.020682861781004 0.02050944415351159 -6.238408078819094e-20)
(1.106638904519669 -0.00163000902412013 6.714809659283115e-22)
(1.074049248982229 -0.01129487406812496 6.570371918366495e-20)
(1.085827577950451 0.022381306730109 0)
(1.331114183676607 0.1665915373226193 0)
(1.002001387958932 0.0001124312488387587 4.415759976383164e-20)
(1.322556371635642 -0.1240217034651382 1.535663844349256e-19)
(0.05276331016104503 -0.182863794642425 -2.571260403747231e-19)
(1.071346484470591 -0.005560411629735943 0)
(1.117914542050111 0.0006324447902338716 1.223036945188688e-20)
(0.7269257470233048 0.01786507618242295 0)
(1.06310210944468 0.003331401981899309 0)
(0.8719337531117818 0.1674099109723833 4.79445851279693e-19)
(1.268245499863166 0.1307527003519516 1.877425641985708e-19)
(0.6542983639901651 -0.003106083253797035 -6.303140620549551e-20)
(1.04214213486126 -0.00467056042897186 -6.516807731403147e-21)
(1.05482971294899 -0.000293014947239341 6.643360040039615e-20)
(1.362411857050653 0.1261220869656115 6.832581396820326e-19)
(1.334519116450491 0.2527409845240801 0)
(1.060010644341463 0.0001831974998748849 0)
(0.9978883181623044 -0.007512084983980581 1.543060276983894e-20)
(0.9939430581264515 -0.01174891780240826 4.820658941821999e-21)
(1.382392727802078 0.2005604341160477 4.233360089566617e-19)
(0.6816753869950812 0.0005821631285475096 9.850309879542146e-20)
(1.005573804704538 -0.002057052245435581 -5.972678386125986e-20)
(1.098099392238355 0.01300803053459802 2.542244516086471e-20)
(0.6694746541619077 0.005011680708772164 0)
(1.066089041803363 -0.01201480555559024 0)
(0.9989599657943039 0.1437317972465201 -1.200181298668934e-19)
(1.087401859917484 -0.007189143820097641 -2.437959821420035e-20)
(0.9821175341163499 -1.54616268628375e-05 3.280405849944706e-20)
(0.9912102961456629 0.006036027767881223 0)
(0.6383155951205308 -0.001116336037679692 0)
(0.9768616595076082 -0.001196814154153482 0)
(0.6421066034970945 -0.001502845245861141 2.69814674307365e-21)
(1.090214626160786 -0.05707276587183455 1.197437058072439e-19)
(1.113344473896056 -0.0002444471440724349 1.237024862897694e-21)
(0.9579676700081735 -0.0009218838515147272 3.914177091369444e-20)
(1.015690081138323 0.01030093138628848 1.674211874056978e-20)
(1.065870534358828 0.002458592135617886 -2.363972277931207e-21)
(0.6347187658794592 0.008860339833798673 -3.647401785088487e-20)
(1.002290945491868 0.009532982267755454 -9.279073636038906e-22)
(1.035195304229242 0.01002290177200423 5.155550279893659e-21)
(0.9878982605529073 -0.01226518231807168 0)
(0.6100245952502777 -0.0004958546708674047 0)
(1.068622638341684 0.02270990582920018 0)
(1.016750571599566 -0.0155957708641477 1.055362618746991e-20)
(1.022902167402192 -0.00698964270512182 0)
(0.9912460008870342 0.01463903818078898 -9.492113113700101e-21)
(1.011749393689526 0.002853218937084263 0)
(1.126916872323366 -0.004164378158595541 -1.168595845314158e-20)
(0.03953508678145377 -0.1415382501107117 -4.339146423111081e-20)
(1.036598681659087 -0.01671358635040208 -7.162760764229897e-22)
(1.0429357811423 0.005272325493145478 0)
(1.083065968506135 0.06487801317567055 8.416145405361625e-20)
(0.9692491767881344 -0.002135503804374164 3.114299864759773e-20)
(1.020660572568388 0.01697376432244405 -2.374620430498981e-20)
(1.002033543284516 0.0008718059790254652 2.50485021300553e-20)
(1.040753660663352 -0.005412827376621273 0)
(0.6409130402012769 -0.003996190379430413 0)
(1.025820101472336 0.02453113269281113 -7.231171506844562e-20)
(1.080863946745588 -0.001500253195702773 4.792789336319765e-20)
(1.016731060346876 0.002870379780193087 0)
(0.9795606012717309 -0.003129969388780365 -1.935659497081193e-21)
(0.8745165153309726 0.02259482952167425 -1.191444003762849e-20)
(1.014017718499417 0.002799493647020648 -1.019693563418465e-20)
(1.026750145534521 0.003862843124310954 1.809481142980115e-20)
(0.9814862743788204 0.0034773789292939 0)
(1.002291452373304 0.01021855537962534 3.509196598513057e-20)
(1.107281432385157 -0.002420232587602267 0)
(0.9246232620288747 -0.0009991708549200386 -3.289441560933816e-20)
(0.9605398470720569 0.006665976064119792 0)
(0.9169135357584385 0.211824437496452 5.211461477343815e-20)
(1.010759326320305 0.06681346492469148 0)
(0.9929725271330656 0.00396606696877206 -2.29071136146785e-20)
(1.055538740723793 -0.05424238064761242 -2.88184963075936e-20)
(0.9910915426820027 -0.0002117592930151526 3.414433511909364e-20)
(1.012237380797671 0.003966712545143519 0)
(0.9780104994053015 -0.0003778757029656392 -3.185136588895746e-20)
(1.168410728011493 0.100593454554021 -3.376270746193737e-19)
(1.069683780063049 -0.2648835186266279 0)
(0.993295478392739 0.001723022679035297 -2.214147697301053e-20)
(0.9805092650167078 0.005746886769270695 5.063030999843094e-21)
(0.9629059016496518 0.005616160001338743 1.021818638307254e-21)
(0.7459340109248512 -0.001071469657306063 0)
(1.119570471274306 -0.08237057165176243 0)
(1.006043910235152 0.004088657374913447 -2.185045321039038e-20)
(0.9004956780378499 0.005014817856871383 -9.744137981389582e-21)
(0.8559273450412325 0.01764552166707072 4.211305719451656e-21)
(1.012983723596902 0.001326270279633397 0)
(0.9490577644651389 0.004486723921541848 1.482562756438071e-20)
(1.005689514255734 -0.0002641745124406038 -2.310907575471881e-20)
(1.020322211743387 -8.268166413597767e-05 -2.590340472098295e-20)
(1.112911872212095 -0.002505599241298223 -4.929743783910404e-21)
(1.118431326540682 0.0005048469648838135 0)
(1.01445946262158 -0.008540133557307672 0)
(1.021159648997238 0.003390223229042958 0)
(0.945455203169012 0.001408622645427199 -2.143039611712208e-20)
(1.017869320497822 0.01351682493768499 5.318612346020787e-20)
(1.079911251295282 0.002645080767617953 -2.212388110043918e-20)
(1.039388679611859 -0.001877148294720751 0)
(1.10586431857581 -0.006188264179802503 1.835125259731097e-21)
(0.995827556080415 0.002653378062617212 -2.21100374770019e-20)
(0.9866325065360435 0.006778929531948439 0)
(1.011951713977615 0.002960635128657906 4.663889641936803e-20)
(1.36738347253721 -0.3144446165490493 -1.134192516842488e-18)
(1.122954333555914 -0.044003019335495 -1.081175383150284e-19)
(0.9669736147911122 0.002917044042539595 4.771805627688009e-20)
(0.7773435745015453 0.01316499840071704 -3.155119790645988e-20)
(1.220957511676355 0.05372561866197929 0)
(1.224544155252704 -0.1343678355051592 -1.463366280006085e-19)
(1.078060901591893 0.005672535876443057 0)
(1.008662797539136 0.00171885709970882 2.238217116064203e-20)
(-0.1625868128433592 -0.1170236292265357 0)
(0.9939676098628033 -0.004648535121569599 0)
(1.012452484202237 -0.02317777396144014 4.623579187759662e-20)
(0.7061889340666346 -0.01944832266097055 0)
(1.096794751338241 -0.01486603669238931 2.13492969209196e-21)
(1.043942925760332 -0.01185379551937241 1.764582216512342e-20)
(0.6331308933800065 0.004147785061031556 0)
(1.449201270569096 -0.1221852466289095 0)
(0.9868758570589531 0.001356379490407889 -1.084182949216558e-20)
(1.069790000561126 -0.01497639932342028 0)
(1.038012556792233 0.0004093732368921073 2.15950479739162e-20)
(1.083369792972367 0.005454992739222909 0)
(1.009202429728052 0.005658396856153118 -1.044175515504192e-21)
(1.005939295859319 0.002948014590334488 0)
(1.013719925284341 -0.0140161887595503 5.476438775736934e-22)
(1.003448921589787 -0.02076544104662544 0)
(1.034115555699061 0.005268795917759319 1.724888509752656e-20)
(-0.1920699435397486 0.03451864055925598 2.634551876909087e-19)
(0.8106572197671243 0.02727598468022171 5.313112857258959e-20)
(1.005747259162295 0.001948648917701361 0)
(1.132923189992128 0.02217966377863918 -1.213891221442043e-20)
(1.122323425399684 0.01922251503569591 8.541349281931429e-21)
(1.054319175405709 -0.01309132114271303 -1.275518046867598e-19)
(0.9987857533888246 0.01034862600121722 1.32316490005091e-21)
(1.07775431549873 0.007063277119144784 0)
(1.185490715575086 0.05374048906183117 0)
(0.8354503633185721 -0.07630984150905663 4.588623209225408e-19)
(1.100517112916866 -0.007056771577808396 0)
(1.032697519435508 0.007417882845180259 -7.384855974554603e-21)
(1.042591588961429 0.005167590528733353 6.131290025831068e-21)
(1.054062982763653 -0.06176697402854826 -7.52708734396342e-21)
(1.139979148598651 -0.000836027427279742 1.662106087298752e-19)
(1.08412989076102 -0.008710895477745078 0)
(0.9948978137213856 0.001218523573513341 0)
(0.9959287140724655 -0.02483382511019637 -2.29059480675275e-21)
(0.990729150385569 0.002639916337222441 0)
(1.030276490326868 -0.03883247865741563 6.367344029893336e-20)
(1.293236060116997 -0.09207349661088085 0)
(1.046482544091672 -0.01243118349134064 -1.589097496615118e-21)
(0.9861550511506419 0.01698004504798536 -8.454380166606168e-20)
(1.034124360440642 0.04074597594730492 -2.425891929203936e-21)
(-0.08756307615896873 0.1497275679396215 -1.630515835788017e-19)
(-0.06493650279077084 -0.301325821684593 -1.392815048845156e-19)
(0.8819963683749212 0.1387799078902131 0)
(0.2961327575000123 -0.01704156607016508 -3.270637598642333e-19)
(1.009126506176658 -0.008754302604146218 -1.634268553718492e-20)
(1.063850054325132 0.002641810378221681 -2.11959363443216e-20)
(0.9921754955239224 -0.01836808286180982 2.917445001551455e-20)
(1.020989485727833 -0.029373539406032 2.530657720067534e-21)
(1.008964360792661 -0.03232137151813337 -6.53687497505678e-20)
(0.9887725847769129 0.004819995952153735 -3.467593499215924e-20)
(0.992940579197417 0.004645882071163053 0)
(1.025316260695635 -0.002075873588841318 -3.56935160619546e-21)
(1.938802845323005 -0.155279835214371 1.079605437772588e-18)
(1.046873516923601 -0.005345583944554102 0)
(0.9952214335442104 0.008141147941656586 1.552428105830268e-20)
(1.00289939036151 -0.0001262762156958673 4.08027100381403e-20)
(1.165058997172398 0.1341029336475467 0)
(0.9979392199057401 -0.0007992767557450899 3.922672104536306e-21)
(0.9485642569825827 -0.0029659297208087 0)
(1.037837899489848 0.04176753599893357 0)
(1.306116011301364 0.1670319850535606 2.344224606660046e-19)
(1.08668106014636 -0.008385226939456319 2.268360290943238e-20)
(1.018597283782073 0.03083760733279686 4.705855886148335e-20)
(1.08752262753486 -0.0102665977945295 -2.189470846051198e-20)
(1.046540400706075 -0.003034554220097829 -4.028670204602295e-21)
(-0.38409595773344 -0.04641039917529022 0)
(0.9985449047890612 0.01456660169785551 0)
(0.1068114542843837 0.05812068039883186 -8.534454780021704e-20)
(1.006983614740075 0.02244706744558976 -4.164387746959377e-20)
(0.9929370902617534 -0.004901022508204702 0)
(1.000922778388085 0.005836779336628122 -5.063459467913334e-21)
(1.08157920044022 -0.04229301333669099 0)
(0.9954705758919007 -0.01671571029579413 -7.734261282954036e-21)
(1.093510933576051 -0.05758643539644794 0)
(1.444192213306158 0.1798291536822917 0)
(1.054312710842951 -0.01205953527037923 0)
(0.9903141225688229 -0.02289762638322611 -3.918946378000275e-20)
(0.9917297132068829 -0.04755337697100234 -2.384837597862651e-21)
(1.016274263308607 -0.01702418918273746 -1.696582141500485e-20)
(0.9974094258555711 0.01674800313525181 -5.694341197132465e-20)
(0.9951491973605829 0.01058860511102705 -1.512946614937066e-20)
(0.9936702757498945 -0.02779698922857858 0)
(1.003302745027465 0.02484915506322096 1.972224778891126e-20)
(1.052216123420544 -0.04452717771757038 0)
(1.111157079876318 -0.03552449218517682 2.648955515729203e-19)
(0.9956757973521027 0.0172708963786074 4.689440802837373e-20)
(0.6151038491766944 -0.00866993791119495 0)
(1.133789965038601 0.137919471020038 -5.46021260517206e-21)
(0.8604117470166899 -0.1027167380548592 0)
(1.138041456171342 0.07334936734146649 -2.671155240116178e-19)
(1.316860765916884 -0.3888292767532852 1.304123401328698e-19)
(1.072874787619116 0.06048072123344504 -1.301055490768864e-20)
(1.009715054214815 -0.0316464820919453 0)
(0.9560807078298112 -0.2161719368673194 0)
(0.4990177387779038 0.1415044158320689 0)
(1.014125659724044 0.009019456445253085 1.289081696882911e-21)
(0.6876561681411337 -0.02942165750334066 0)
(0.9991082484768488 0.0182020401409198 3.585057052049468e-20)
(1.023052977688061 -0.004992390436219564 -2.811577727892736e-20)
(1.079083031673034 -0.008105013625161542 2.814403233944537e-21)
(1.039752033244894 -0.01193107590031887 3.361694184334087e-20)
(1.042373163111961 0.01138099644681665 0)
(1.063721324286903 0.02861219719089603 -9.690700944420217e-21)
(1.049927580661765 0.03474921093538808 -1.838920495015441e-20)
(0.982613882667554 -0.02242102339915965 0)
(0.6249436911798053 0.005115699846128553 9.179879397870659e-20)
(0.8941599769099495 -0.00587081156351256 -8.855080713633627e-20)
(0.9093773412684656 0.005337400592795006 1.444125847489497e-20)
(0.62955045542515 -0.006389782060329662 1.404679546250527e-20)
(0.9786401550578133 0.001318877959133739 2.610861507829535e-20)
(1.004460151305584 -0.0174982045420303 -3.638351123161047e-20)
(0.9719827574500364 -0.02677126307067991 -3.614225480541463e-20)
(1.085495829296226 0.001569196800706867 0)
(1.019981823558647 0.004396219957380246 1.032719779344984e-20)
(1.132462298866387 0.04905087272889184 1.293246150321319e-19)
(1.03328039226917 0.04031359227200294 0)
(1.022308945398589 0.002544578580967885 0)
(1.585799085601344 -0.1667222196697153 4.43000463273833e-19)
(1.047490590793781 -0.04246627470877264 0)
(1.017111951192993 0.006928353990798435 -3.819716280176873e-20)
(1.087240339266406 -0.0003688926958419264 0)
(0.47983413599668 -0.03420433663381096 0)
(-0.01571096890427605 0.02370106695263897 0)
(0.9904900573534205 -0.02442110397474951 1.213523629161942e-20)
(1.301887440782897 -0.09494627959923516 3.780803408172322e-19)
(1.03577134212613 0.03656420537282135 0)
(1.022262057062382 0.003339589726661415 -2.260770557909978e-20)
(0.9639189242807983 -0.1627280664547771 3.090455415269552e-21)
(1.253835772022736 0.07930908422695628 0)
(0.5971347433710671 0.7292624477198909 0)
(1.313737234611343 0.1523972478122283 1.124544306508743e-19)
(1.679491122336533 -0.02430668871471696 0)
(1.053212602497228 0.1063278086715874 0)
(0.7092291131680919 -0.02186616031718541 2.802096691998397e-21)
(1.052327032894056 0.04456656607043773 0)
(0.7336081521273944 0.1153884885016302 1.168442702113927e-19)
(0.9967634782942226 -0.0165547725275943 3.565759473285187e-19)
(1.034361388934453 -0.04231072125263875 2.788150048458474e-20)
(-0.3804763319231962 -0.001021416465239943 0)
(1.071869855771837 -0.01646850147309288 0)
(1.093094117610607 -0.006073763092424781 0)
(0.6489944047295962 -0.5044256849096439 -2.464099608436043e-19)
(0.9909502273200921 -0.001654247660445229 0)
(1.092148122584254 -0.02128705208346291 3.635836738645237e-22)
(1.187295824259377 0.1215342520391972 -1.979441270429542e-19)
(1.089494015048711 -0.04562078387502572 0)
(1.005676507082839 -0.02144005428918325 0)
(0.804312628342612 -0.1793653917106431 -1.681886516013714e-19)
(0.8890953731006218 -0.1267429816666652 1.561790107368015e-19)
(1.02769295058309 0.01321015208271114 -2.273614662717882e-20)
(1.023106770033366 -0.009042978150759899 -4.662079515006227e-20)
(0.8781111425959894 0.01455592094035863 -6.027988737609179e-23)
(1.506898056090576 -0.1930994957452176 0)
(1.303994773544816 0.1221614927937552 3.136702388767133e-20)
(1.245351843482518 -0.07376175947402369 -3.084672701396232e-21)
(1.095741836497163 -0.01843323020425918 -3.8419139979866e-20)
(1.039687301711306 -0.01105719844404425 2.418859172579084e-20)
(1.09283518681033 -0.0390848917666862 9.022374140207573e-20)
(1.031851940765509 0.01990023426995965 0)
(1.044444746419126 -0.03638995078564996 0)
(1.115937959587404 -0.008965699226935317 0)
(1.087980891680776 -0.0322355352290951 0)
(0.997951571562176 0.01122179410805947 0)
(1.147433321781632 0.07854110784850939 9.559166481608349e-20)
(1.339133749612422 -0.1475690431257846 0)
(1.035838193407745 -0.02261633061416767 -1.940667280993968e-22)
(1.05190451197333 0.05023922823126555 0)
(1.010184029449148 0.01471579762422391 -3.992442643240142e-20)
(1.033920407960323 -0.007674669873449466 9.028211537896751e-21)
(1.088934840428049 0.0134299279620314 -3.286954505364177e-20)
(1.085512868704627 -0.02869956107280966 0)
(1.073265671361328 0.003042906774555837 0)
(1.109314862361559 0.0950555508999541 -1.430820537930236e-18)
(0.9356106153514647 -0.1503284546961037 -7.054079808544232e-20)
(1.167712583122206 0.1084696730290557 1.112936308954067e-19)
(-0.486161642760579 0.01084495173138086 -2.916016079645408e-19)
(1.018755414360899 0.02849836244798369 -8.930986409158443e-20)
(1.003910906683652 0.001036396194604761 0)
(-0.2940636650621998 0.0304588975644712 3.555881145139335e-19)
(-0.0492459179125608 0.2978978916310205 7.92471698434591e-21)
(0.9952266926448904 -0.006269278293257039 9.98942586199702e-20)
(0.1907909445854052 -0.04035379689171414 1.429073704007153e-19)
(1.091621653666133 0.08011973334582194 1.480210381152611e-20)
(0.09420605665122385 -0.1107865534074847 -5.540384714275009e-20)
(1.108068701278982 0.002996819275741869 0)
(1.1052686092275 0.2595945958135471 0)
(1.02170487518928 0.02167039720283951 -1.748657762179466e-20)
(1.073233609582121 0.0525842923555701 0)
(1.026892141001468 0.02623685757148005 -9.468381068854054e-21)
(1.264361106797775 -0.5493109011940199 8.072857140061699e-19)
(-0.1117338886111187 -0.2013932204497537 2.224667487609524e-19)
(1.297801325866403 0.1190630252448604 -6.383147408441811e-19)
(1.121867992046844 -0.00347693680485299 0)
(1.125449246564735 0.09480872101561154 0)
(0.5299719209813788 0.08353570163170213 2.569565291213138e-19)
(1.023686549020576 -0.0207948072791051 9.262661437996761e-20)
(1.006191964158421 -0.02396491222542061 0)
(1.210507317586874 0.270750065803916 -9.474762026006438e-20)
(1.262396703648809 0.1401327022096178 -1.620642179691201e-19)
(1.026662859334778 0.003141138737557852 1.520832398452422e-20)
(1.302268559735761 -0.08454915704238861 -5.03740468108129e-19)
(0.2912982545968814 -0.01297803621994719 2.606648473024692e-19)
(0.8243901428835854 -0.1443544622161563 6.621009478269719e-19)
(1.048272952032479 0.05222559394847458 1.05732529725024e-19)
(1.040147983060697 -0.004216913878846623 1.836043214547001e-21)
(1.001549721203471 0.01980312674074447 3.013677026895116e-20)