/*--------------------------------*- C++ -*----------------------------------*\
| =========                 |                                                 |
| \\      /  F ield         | OpenFOAM: The Open Source CFD Toolbox           |
|  \\    /   O peration     | Version:  2412                                  |
|   \\  /    A nd           | Website:  www.openfoam.com                      |
|    \\/     M anipulation  |                                                 |
\*---------------------------------------------------------------------------*/
FoamFile
{
    version     2.0;
    format      ascii;
    arch        "LSB;label=32;scalar=64";
    class       volVectorField;
    location    "7.6";
    object      U;
}
// * * * * * * * * * * * * * * * * * * * * * * * * * * * * * * * * * * * * * //

dimensions      [0 1 -1 0 0 0 0];

internalField   nonuniform List<vector> 
808
(
(0.887139 -0.0148366 0)
(1.01007 -0.0280582 0)
(1.05655 0.0104368 0)
(1.07153 0.0143304 -1.88456e-21)
(1.48042 -0.272764 0)
(0.949093 -0.0185021 0)
(1.07778 -0.0739943 -4.64446e-22)
(1.03836 0.017095 0)
(1.36273 -0.215539 3.15063e-20)
(1.22916 -0.0775713 -1.58077e-20)
(1.07696 -0.05301 8.06114e-21)
(1.39284 -0.242372 0)
(1.01058 -0.000343553 0)
(0.724006 -0.0287939 0)
(1.00823 0.0450197 2.11398e-20)
(1.0432 0.0110346 0)
(0.878766 0.0271964 -6.90884e-21)
(1.00596 0.00253581 -8.85264e-23)
(1.05004 0.00510178 0)
(1.11276 0.0158499 0)
(1.06639 -0.062243 -1.12507e-20)
(0.928625 0.123594 1.03876e-19)
(1.0701 0.00880404 -9.54681e-21)
(1.17639 -0.0139081 0)
(0.95589 0.176086 0)
(1.358 0.0249298 -3.44088e-20)
(1.28728 -0.159155 1.53253e-20)
(0.995499 -0.000213514 -4.17003e-21)
(1.07151 -0.00430592 0)
(1.05606 0.0191004 -9.04876e-23)
(0.996227 0.00457136 3.83945e-24)
(1.11544 0.00672665 0)
(1.02352 0.000640129 0)
(1.07147 0.00470259 2.95403e-21)
(1.30313 -0.0440968 1.13397e-20)
(0.737992 -0.117253 1.05575e-19)
(0.85573 -0.0239924 2.5111e-22)
(1.02154 0.00313037 8.93664e-22)
(1.13759 -0.00614718 -6.89952e-22)
(1.06868 -0.00937703 0)
(1.25766 -0.0433293 -2.20791e-20)
(1.28044 -0.11316 0)
(1.00264 -0.0247593 -4.44453e-21)
(1.06227 -0.0137575 6.55623e-21)
(1.27918 -0.106504 0)
(1.00038 0.00554582 -1.57834e-20)
(1.00852 0.0171039 1.07699e-21)
(1.26026 -0.239849 2.08149e-20)
(1.12581 0.0586704 -1.07079e-21)
(1.41729 -0.155902 -4.55165e-20)
(1.08771 -0.0653834 1.44062e-21)
(1.14928 -0.0635127 0)
(1.11626 0.00950193 3.97513e-21)
(1.04692 0.00198599 0)
(1.31613 0.220912 5.90947e-21)
(1.07645 0.0992796 -6.25185e-22)
(1.02805 -0.00408065 0)
(1.04704 -0.0358828 4.04196e-21)
(1.23596 -0.0779843 1.69687e-20)
(1.11438 0.0415476 9.43551e-22)
(-0.348037 0.204699 0)
(1.22132 -0.207039 -1.25921e-20)
(1.05413 -0.0141122 0)
(1.43367 -0.0355306 -3.39739e-20)
(1.06214 -0.0270121 -7.61738e-21)
(1.0347 -0.0348068 -5.42917e-21)
(1.40808 -0.0978828 3.57814e-20)
(0.72533 -0.00700122 0)
(1.06791 -0.0500106 0)
(1.46393 -0.346674 0)
(0.863141 -0.0124597 -4.70548e-23)
(1.28685 -0.129474 -4.71719e-20)
(1.00705 -0.00665969 0)
(1.02462 -0.00152372 -1.97592e-21)
(1.13138 -0.334048 -4.8737e-20)
(1.07273 -0.0477975 -6.55043e-21)
(1.11847 0.0252809 7.60912e-22)
(1.32118 0.490013 2.50854e-20)
(1.07838 -0.0557167 0)
(1.01154 0.273922 -1.71733e-19)
(1.35051 0.0109988 1.8939e-20)
(0.772002 0.00350436 0)
(0.941541 0.0194267 -5.88521e-21)
(0.976824 -0.112415 3.70796e-21)
(1.07886 -0.0251859 5.2717e-21)
(1.17269 0.0320957 1.93687e-21)
(1.31439 -0.230085 0)
(1.34414 0.27675 0)
(1.08682 0.00656655 -4.34745e-21)
(1.40819 0.0693677 3.75458e-20)
(1.06934 -0.0108578 5.30012e-21)
(1.32505 -0.100444 -1.78888e-21)
(0.976785 0.0330166 1.54738e-20)
(1.00793 -0.0310136 0)
(1.09991 0.014788 8.83356e-22)
(1.39629 -0.00435593 -9.19962e-20)
(0.922271 0.00877606 -2.1814e-21)
(1.3586 -0.0627102 0)
(1.32933 -0.0621574 0)
(1.43517 -0.0666647 -5.52244e-20)
(1.05845 -0.0545161 -9.26282e-22)
(1.10281 0.0149499 1.54137e-22)
(0.936568 0.0324984 6.27534e-21)
(1.15496 0.0292087 -8.94581e-22)
(1.30113 0.0646875 -2.79001e-20)
(0.990741 0.000624785 9.5098e-21)
(1.45182 -0.103442 0)
(1.04747 0.00710089 0)
(1.10275 0.0292147 4.90213e-22)
(1.21084 -0.212019 -3.28159e-21)
(1.24886 0.0521207 1.36476e-20)
(1.04588 0.0422141 -1.14813e-19)
(1.13199 0.0723545 1.78126e-22)
(1.16607 0.0570377 4.56627e-21)
(0.929539 -0.00787635 0)
(0.915722 -0.0525825 7.12705e-20)
(1.12939 0.0126803 1.25446e-21)
(1.4612 -0.253521 -2.17252e-20)
(1.03168 0.00257046 -4.24891e-21)
(0.911349 0.0138163 2.66714e-21)
(-0.471875 0.117992 0)
(0.839432 -0.0218168 2.74656e-21)
(0.787496 0.0537654 0)
(1.06965 0.00546566 -6.33303e-23)
(1.00611 0.0275535 0)
(1.30691 0.311929 9.11116e-21)
(1.02824 -0.0537285 -2.42017e-20)
(1.21728 0.092072 2.03103e-21)
(1.14846 -0.0510759 0)
(1.09184 -0.0153101 0)
(0.691168 -0.0304068 0)
(1.02454 0.000323634 -2.13029e-21)
(1.23945 -0.0288924 1.28058e-20)
(1.0709 0.114225 -2.92811e-20)
(0.966084 -0.00448287 0)
(1.1025 0.0359528 5.56537e-23)
(1.08595 0.0687533 2.71684e-21)
(1.0526 0.00528176 -1.2245e-21)
(0.949513 0.0309244 2.56663e-21)
(1.10837 0.00788595 -1.29213e-22)
(0.00858117 0.0738941 0)
(1.08632 -0.00135366 -5.89867e-21)
(1.06261 0.0222402 1.99782e-21)
(0.692339 0.0152161 1.0387e-22)
(1.25441 0.16151 1.96774e-21)
(1.10328 0.119987 3.59497e-21)
(1.05049 0.0261865 1.22037e-20)
(0.993667 0.0349353 0)
(1.13978 -0.22597 -1.04887e-20)
(1.04836 0.00641064 0)
(0.880797 0.020493 3.87232e-22)
(0.967394 0.275976 1.37411e-19)
(0.953342 0.029728 0)
(0.818715 0.096569 0)
(-0.15983 0.0326478 -7.60925e-20)
(1.33406 0.122064 -1.41844e-20)
(0.657207 -0.00680664 0)
(1.44435 0.00238231 0)
(1.06302 0.0388879 0)
(1.35091 0.0789889 1.58358e-20)
(-0.0466424 -0.149062 0)
(-0.0664425 0.0952016 3.58947e-20)
(1.07569 -0.036826 1.00215e-19)
(0.989199 0.0442241 -1.25353e-22)
(0.865702 -0.00906305 0)
(1.0183 2.11098e-05 6.23231e-21)
(0.877985 0.0210419 0)
(0.837396 -0.0323115 -1.08274e-19)
(1.0183 0.0256324 1.96815e-21)
(1.04628 -0.0317602 2.62948e-21)
(1.0875 0.0361943 2.80052e-21)
(1.01002 0.0649455 -1.00949e-20)
(0.93355 0.0756625 -3.57861e-21)
(1.14365 -0.345856 2.48634e-22)
(0.9355 0.000608207 0)
(1.06331 0.000654538 -8.85097e-21)
(0.876355 0.00332646 -8.48784e-21)
(1.3889 -0.151385 2.71596e-21)
(0.741283 0.0190465 0)
(1.08176 -0.138943 0)
(1.04224 0.00109175 2.20656e-21)
(1.38881 0.207605 1.13709e-20)
(1.09803 0.0237258 1.38472e-21)
(1.03138 0.0233635 1.6614e-20)
(0.784693 0.0598304 -8.40566e-20)
(0.817214 0.00383396 1.64603e-20)
(1.14132 -0.048233 7.91699e-22)
(1.37671 -0.0298365 -6.18745e-21)
(1.04863 -0.0141211 -4.47714e-21)
(1.3187 -0.0101596 5.30226e-21)
(-0.176853 0.0644844 5.54245e-20)
(1.26604 0.0127795 0)
(0.664995 0.0106266 0)
(1.05475 -0.0234085 -3.69572e-21)
(1.10417 0.0119907 -1.00173e-21)
(0.0783237 0.0916064 0)
(0.946667 -0.00451986 2.69656e-22)
(1.04301 0.00137478 -2.64167e-21)
(1.05671 -0.00143695 1.67639e-21)
(1.08171 0.040017 -5.63924e-21)
(1.00503 0.0265208 2.06344e-21)
(1.01722 -0.0101967 2.33021e-21)
(1.06863 -0.00759649 0)
(0.370739 -0.0386596 0)
(1.04595 -0.0638871 0)
(1.16211 0.100064 -3.08563e-20)
(-0.0470576 -0.157533 5.41781e-20)
(1.07387 0.00369622 -1.3609e-23)
(1.05022 0.00316462 0)
(0.714183 0.0367932 -2.95192e-21)
(1.05669 -0.0059544 1.52987e-21)
(-0.00357748 -0.0410997 -1.71e-19)
(0.958384 0.033538 -6.81784e-20)
(0.648236 0.00981451 0)
(1.04816 0.00085962 0)
(0.930502 0.00407414 7.81517e-21)
(1.05651 -0.107258 6.70489e-21)
(1.27707 0.390106 2.75546e-21)
(1.04882 -0.00579613 -6.96299e-23)
(1.04076 -0.00277626 -4.09371e-21)
(1.05062 -0.00464205 0)
(1.3594 0.415545 -4.39541e-20)
(0.704492 -0.0117749 0)
(0.943326 0.00521672 -3.5484e-21)
(1.06415 0.0055835 -6.23126e-22)
(0.655088 0.0103392 0)
(1.10317 -0.00726321 0)
(0.133099 0.0310875 -6.00983e-20)
(1.07886 -0.0188087 -7.49221e-21)
(0.902677 -0.0077497 2.06023e-21)
(0.995712 -0.0033748 0)
(0.683288 -0.00174963 0)
(0.915309 -0.00797862 -3.60363e-21)
(0.696938 -0.00549295 -3.73892e-22)
(1.32367 -0.0066416 3.54871e-22)
(1.04652 -0.00808035 -3.2587e-21)
(0.881803 0.00361743 -1.68594e-21)
(1.05298 -0.000813701 3.25509e-22)
(1.04506 -0.00192135 6.56091e-23)
(0.691015 0.00778696 4.47653e-21)
(1.03314 0.0146868 4.17655e-22)
(1.03736 0.00522539 0)
(1.04844 0.000319379 0)
(0.672333 0.0163558 0)
(1.05141 -0.00484166 0)
(1.03968 -0.00578539 -6.49336e-22)
(1.0462 0.00119227 0)
(1.04926 0.00353674 0)
(1.05064 0.00142656 0)
(1.07403 0.0775385 0)
(-0.0265045 -0.0615967 5.43197e-20)
(1.02943 0.00453021 4.22419e-22)
(1.05355 0.00810225 0)
(1.30103 0.0804848 1.62485e-20)
(1.04005 -0.000832752 7.13117e-22)
(1.09044 0.0835971 -4.26679e-22)
(1.05186 0.00800475 3.87293e-21)
(1.0392 0.00428376 0)
(0.672463 -0.00763451 7.28735e-21)
(1.06247 0.0444658 9.81822e-21)
(1.07564 0.00105491 0)
(1.03727 -0.0157641 -1.71838e-21)
(1.03029 -0.00705787 2.36732e-21)
(0.71544 0.0379963 -1.24119e-20)
(1.06966 0.00347122 4.25827e-21)
(1.04904 0.00183427 -4.11976e-21)
(1.05048 0.00436411 0)
(1.11521 0.0660306 -1.52095e-20)
(1.04622 0.00450931 -2.85299e-21)
(1.00735 0.0255118 8.41851e-21)
(1.03878 0.00277913 0)
(-0.0172074 -0.0228701 0)
(0.973326 0.108423 -1.65213e-20)
(1.04437 0.00119453 0)
(1.2863 -0.110032 2.66837e-20)
(1.04689 0.00490493 6.76392e-22)
(1.0428 0.00126581 3.96005e-21)
(1.05596 0.0036501 -2.07053e-21)
(1.37836 0.0136924 1.31066e-19)
(1.02395 -0.32462 4.92047e-20)
(1.04438 0.00985151 5.05551e-23)
(1.0373 0.0043462 0)
(1.04745 -0.00231333 0)
(0.894364 0.00247747 -2.05909e-20)
(1.32257 -0.224543 -5.64012e-20)
(1.04189 -0.00211399 0)
(0.937569 0.0556154 1.22243e-20)
(0.669124 0.022883 0)
(1.03141 -0.0110658 5.03003e-21)
(0.990425 0.0429316 -1.40871e-20)
(0.81829 -0.00627806 -4.7481e-21)
(1.04806 0.0103278 0)
(1.04537 0.0051742 -7.88947e-22)
(1.04964 0.0112069 3.52955e-21)
(1.02729 -0.0115195 -6.51776e-21)
(1.05087 0.00929131 -3.54203e-21)
(1.03004 0.00972615 0)
(1.09676 0.0700981 0)
(1.06196 -0.00615105 5.1818e-21)
(1.03538 -0.0150559 -5.08114e-21)
(1.05005 -0.00240097 4.33175e-21)
(1.03984 0.00900778 -3.64206e-21)
(1.0432 -0.00735406 4.61242e-22)
(1.04213 -0.00152007 0)
(0.427577 -0.141155 1.52391e-20)
(1.32233 0.0623757 -2.41405e-20)
(1.02324 0.0176293 -9.8609e-21)
(0.397127 -0.0430696 1.31248e-20)
(1.43409 -0.100703 3.06507e-20)
(0.937969 -0.0406872 7.82134e-20)
(1.05761 -0.00427114 -5.33229e-21)
(1.04242 0.00639538 -2.64046e-22)
(-0.0717035 -0.1599 -9.35896e-21)
(0.988973 -0.00770771 0)
(1.03619 -0.0874804 -1.43819e-20)
(0.82349 -0.0308042 -2.77513e-22)
(1.03366 -0.00484808 2.34699e-21)
(1.02194 -0.0103682 -1.07725e-21)
(0.710843 -0.0152647 1.41941e-21)
(1.42386 -0.377223 -1.60052e-20)
(1.04211 0.0277718 0)
(1.05978 -0.0153353 -1.67096e-22)
(1.08226 0.0134918 -1.99421e-21)
(1.05749 -0.00289196 0)
(1.03196 0.0019087 -7.15055e-21)
(1.07789 0.0120971 2.5443e-21)
(1.00451 -0.0146706 1.69831e-20)
(1.11744 -0.0648081 7.37685e-21)
(1.04185 -0.00144447 3.81344e-21)
(-0.0563937 -0.0658531 0)
(0.476782 0.0489228 -1.53136e-20)
(1.05899 -0.00332495 0)
(1.00145 0.09121 -9.19229e-21)
(1.05284 0.119988 0)
(1.12135 -0.0279484 -1.2375e-21)
(1.0127 0.0261013 0)
(1.04626 0.00260543 0)
(1.39865 -0.0941762 2.53137e-20)
(0.795945 -0.0863141 0)
(1.12883 -0.0690849 1.9315e-20)
(1.0382 -0.000332241 2.74167e-22)
(1.02615 0.011086 2.39659e-21)
(1.26977 -0.126641 -1.66767e-20)
(1.23792 0.110327 -8.3602e-21)
(1.10393 -0.00722929 1.35228e-20)
(1.05348 0.0246377 0)
(1.10688 -0.0906584 0)
(1.05866 0.0315087 1.70547e-21)
(1.20551 -0.0552957 0)
(1.41846 0.208797 -2.81308e-20)
(0.993442 -0.0218922 1.49509e-21)
(1.01955 0.0157115 1.72099e-20)
(1.21987 0.0699149 -3.13587e-22)
(-0.0163356 -0.0160464 0)
(-0.0366339 -0.105551 0)
(0.152585 0.0396891 -5.46197e-20)
(-0.0489069 -0.150952 0)
(0.950655 -0.00703505 -1.15346e-20)
(1.11894 -0.0207415 -2.78764e-21)
(1.09515 -0.0412839 -3.85136e-21)
(1.15056 -0.134071 -4.7641e-21)
(1.1731 -0.0830659 0)
(0.89122 0.00508463 -1.73793e-21)
(1.06586 0.0374628 0)
(1.06129 -0.0133584 3.98275e-22)
(0.520306 -0.110729 0)
(0.9292 -0.0265374 -4.2864e-22)
(1.08949 0.0204862 0)
(1.06279 -0.00320658 0)
(0.743083 0.171189 5.13004e-20)
(0.845268 -0.0170821 -2.30476e-21)
(1.04668 -0.00768124 1.105e-21)
(1.02484 0.0174724 -6.69288e-21)
(0.224321 -0.100084 0)
(1.11547 -0.0385696 -2.22475e-20)
(1.18065 0.0783137 -3.14776e-21)
(1.09686 -0.0347165 9.03595e-22)
(0.839994 -0.0458712 1.13958e-20)
(-0.0800574 -0.106854 -1.10973e-19)
(1.11635 0.0236378 0)
(-0.0327309 0.0391022 0)
(1.14151 0.0878401 3.64746e-21)
(0.720571 -0.0556819 -1.22638e-20)
(1.0544 -0.000909612 -8.95195e-21)
(1.08169 -0.0426791 0)
(1.09302 -0.0461251 2.93077e-21)
(1.25525 -0.266863 1.00169e-20)
(0.579115 -0.0447951 -1.11021e-20)
(1.12831 -0.0348501 1.38514e-21)
(1.09662 -0.0662036 -9.55507e-23)
(0.51407 -0.210992 7.71794e-21)
(1.09737 -0.0624595 -1.12381e-20)
(1.0865 0.0398378 0)
(1.11397 0.0188015 0)
(1.12061 -0.113557 2.69521e-21)
(1.15223 0.0954389 2.84487e-21)
(0.676948 -0.198387 -1.91922e-20)
(1.1955 -0.108565 -3.54495e-21)
(1.10579 0.0642086 1.76395e-22)
(0.590669 0.0121913 7.27578e-21)
(0.572786 0.151636 -9.96723e-20)
(0.288338 -0.0322048 1.63989e-20)
(1.16627 0.178404 -6.58321e-21)
(1.24525 -0.495016 8.25909e-21)
(1.34162 0.102654 -1.55095e-20)
(1.14919 -0.0998085 -3.19404e-21)
(0.937131 -0.23419 8.77263e-20)
(-0.153158 -0.0356444 0)
(1.03922 0.00812843 -5.36205e-22)
(0.0708952 0.117393 2.20251e-21)
(1.13717 0.0649961 -3.15618e-21)
(1.05426 0.00567577 6.09367e-21)
(1.06804 -0.00748722 0)
(0.782845 -0.0954244 0)
(1.16626 -0.0391976 0)
(1.26796 0.150624 2.47234e-21)
(1.23859 0.0191711 -2.84447e-20)
(1.11314 -0.071941 -2.87123e-21)
(0.668343 0.00980231 0)
(0.818652 -0.00377933 0)
(0.818029 -0.00729284 1.00019e-22)
(0.688235 -0.010344 0)
(1.05739 0.000824237 0)
(1.01293 -0.0153624 1.8976e-20)
(0.586613 -0.128629 0)
(0.968885 -0.00442694 0)
(1.04294 0.00242963 0)
(1.16787 0.174256 -3.17605e-22)
(1.21539 0.0644217 8.77053e-21)
(0.943448 -0.0363501 3.45285e-21)
(1.31579 -0.400977 -1.23147e-19)
(0.745092 -0.178958 -4.81807e-21)
(1.08356 0.0656123 5.07151e-21)
(1.05044 -0.00869104 0)
(-0.230339 -0.241169 0)
(-0.246528 0.0977043 0)
(1.14646 -0.0508646 -6.32352e-21)
(1.33367 -0.282298 -4.16016e-20)
(1.21528 0.0992927 0)
(1.05813 0.0187751 -6.55697e-21)
(0.639565 -0.15783 0)
(1.51563 -0.142752 8.89569e-20)
(0.41231 0.517096 1.09922e-19)
(0.311719 -0.0499904 0)
(1.12267 -0.277314 1.32203e-19)
(0.43163 0.236349 0)
(0.126556 -0.110135 8.65243e-21)
(1.28229 0.10956 0)
(-0.0889524 0.117715 5.06711e-21)
(0.982802 -0.0496818 0)
(1.21993 -0.147766 -1.08636e-20)
(-0.210222 -0.057856 -9.50168e-21)
(1.12139 -0.0263994 -8.8061e-22)
(1.11389 -0.0642951 -8.43419e-21)
(0.577043 -0.527667 -8.63639e-20)
(1.05142 -0.00869987 -1.23068e-21)
(1.19757 -0.116073 -1.06866e-21)
(1.17547 0.238553 -1.48902e-20)
(1.17943 -0.221876 -1.86263e-21)
(1.14561 -0.0301926 -1.36796e-21)
(-0.0998796 0.0432503 -6.8568e-20)
(0.0519181 0.101797 -8.2082e-21)
(1.14514 0.069966 2.66845e-21)
(1.04673 -0.0350744 0)
(0.819148 0.0674231 -6.1886e-21)
(1.42126 -0.439573 9.80224e-20)
(0.987266 -0.074568 -7.14002e-20)
(1.43833 0.143031 8.41943e-20)
(1.04513 -0.0309035 9.70929e-22)
(1.10056 -0.0623569 1.0206e-20)
(1.06705 -0.00449902 0)
(1.16679 -8.20686e-05 0)
(1.22321 -0.144706 2.37672e-21)
(1.09012 -0.0296092 -4.6173e-21)
(1.22246 -0.207047 2.25964e-21)
(1.08552 -0.00949664 -3.78608e-21)
(1.42524 0.0330391 -5.4561e-20)
(0.446135 0.0289225 0)
(1.1482 -0.0913367 5.79396e-21)
(1.23801 0.11418 0)
(1.09129 0.0301171 -3.67624e-22)
(1.1383 0.000822949 0)
(1.05527 -0.0167283 8.5737e-21)
(1.23591 0.0184486 1.95622e-20)
(1.0448 -0.00428355 0)
(0.0597376 -0.0291782 1.77512e-19)
(0.883678 -0.215358 -6.88068e-20)
(1.37389 0.0935945 -3.60205e-20)
(-0.166634 -0.0619031 4.67246e-20)
(1.15639 0.0375206 3.48012e-22)
(1.04469 0.000407256 -2.15985e-21)
(-0.140903 -0.0214397 -4.8694e-20)
(-0.0301511 0.00570462 -2.94431e-20)
(1.01587 -0.0253183 0)
(-0.030769 -0.0418621 0)
(1.2111 0.130189 0)
(0.112474 -0.115174 0)
(1.11104 -0.0260201 0)
(0.149417 0.0313492 0)
(1.08425 0.0709994 0)
(1.14929 0.137263 0)
(1.20181 0.106135 -2.81535e-21)
(0.587562 -0.29034 -2.43712e-20)
(-0.240255 0.0736339 0)
(1.19181 -0.0790695 7.43226e-20)
(1.03999 0.00103886 1.52616e-21)
(1.35135 0.133294 0)
(-0.0388341 -0.044068 0)
(1.14805 -0.00810556 5.5387e-21)
(1.14784 -0.0170667 -2.58232e-21)
(1.16571 0.382393 0)
(0.301555 -0.0867222 7.18613e-20)
(1.1227 0.0519092 6.74652e-22)
(0.246379 -0.0523384 -5.96551e-20)
(-0.0591946 0.0436679 -3.39195e-20)
(-0.0336117 0.0489552 8.68636e-20)
(0.535997 0.0927201 -1.65379e-21)
(1.04435 0.0046635 2.03253e-21)
(1.09619 0.102147 1.50689e-21)
(1.0143 -0.000883625 0)
(1.07722 -0.0648872 -1.64678e-20)
(1.18402 0.0663942 -9.4264e-21)
(-0.0155269 -0.0452512 1.12174e-19)
(0.988205 -0.0741583 -5.38912e-20)
(0.836986 0.0659012 1.15893e-20)
(1.03794 -0.0104029 -2.46799e-21)
(0.0808604 -0.0322152 3.91299e-20)
(0.25862 -0.0379511 -5.45106e-20)
(0.447866 -0.059448 -6.51827e-20)
(1.20239 0.107034 4.66099e-21)
(-0.0568802 -0.0398155 0)
(1.10184 0.116691 5.25966e-21)
(1.15611 -0.146789 1.76167e-20)
(1.13887 -0.143384 -1.69861e-20)
(1.27787 0.118198 0)
(1.51754 -0.205722 8.74648e-20)
(1.07242 -0.0133139 -2.60275e-21)
(-0.0200673 -0.0605579 -3.88211e-20)
(0.30319 0.0933144 0)
(0.979684 0.0147203 -2.36088e-21)
(1.09933 0.023115 -1.37441e-21)
(0.966355 -0.206525 1.94261e-20)
(1.1427 0.00349702 -2.00849e-21)
(1.12148 0.0442767 0)
(1.17544 -0.165378 -1.70041e-20)
(-0.0912003 -0.121689 -8.39126e-20)
(1.30565 0.0113083 2.79406e-20)
(1.09749 0.164972 -8.71833e-21)
(1.083 0.000712031 4.33e-21)
(-0.0429171 -0.0743138 1.82464e-20)
(-0.0239719 0.0356338 -6.8098e-20)
(0.874935 0.104225 0)
(0.841878 0.195019 0)
(1.14869 0.0923414 -1.11582e-20)
(1.05799 0.0640797 9.52387e-21)
(1.06115 -0.00141022 0)
(0.669166 0.0266509 6.56997e-20)
(0.736299 0.087822 -1.19859e-20)
(1.1009 0.105282 0)
(1.07724 0.00617557 0)
(1.33838 0.166506 0)
(1.04144 -0.00583282 0)
(1.07571 0.0395475 2.68761e-21)
(-0.0414135 0.0438183 3.70465e-20)
(1.04675 -0.000407074 4.76963e-21)
(1.4454 -0.175672 -1.00297e-19)
(1.05172 0.026946 -4.29538e-21)
(-0.0542781 0.0910015 0)
(1.12583 -0.10194 0)
(0.83744 -0.00641941 -1.65312e-21)
(0.544188 0.00826659 -6.17491e-20)
(0.074426 0.0358262 4.9979e-20)
(1.06308 -0.0161836 2.8997e-22)
(0.759558 -0.275694 0)
(0.700326 -0.0916592 0)
(1.05178 0.0150606 0)
(0.542267 0.514534 2.41501e-20)
(-0.0182026 0.0175855 -3.23885e-20)
(1.03941 0.00240452 -1.27335e-21)
(-0.0310088 -0.096565 7.44789e-20)
(1.0484 -7.19635e-05 2.17107e-21)
(1.16894 0.306751 2.84005e-20)
(1.11609 -0.08676 4.76163e-21)
(0.344021 0.0191757 8.94434e-20)
(1.08366 0.0996693 2.78803e-21)
(1.14198 -0.103707 0)
(0.564651 0.27366 0)
(1.03206 -0.00473504 4.31277e-21)
(-0.268166 0.00917629 0)
(0.739936 0.0158923 2.30702e-21)
(0.611928 -0.423007 -3.78585e-21)
(0.243723 0.0496128 -1.1612e-19)
(1.13256 -0.224977 2.15414e-20)
(1.03679 0.357874 9.41659e-21)
(0.974976 0.014271 0)
(1.05725 0.00413537 2.38263e-22)
(0.82539 0.0121833 0)
(1.04604 -0.00633551 -1.23829e-22)
(0.464862 -0.018169 0)
(0.713989 0.125336 0)
(0.987096 -0.0340624 -6.22355e-22)
(1.44295 0.165012 -1.59972e-20)
(1.04688 0.00925032 2.54074e-21)
(0.527836 -0.498225 0)
(1.13633 -0.150141 -1.19524e-22)
(0.807472 0.370598 6.74038e-20)
(-0.0376479 0.0187211 1.22571e-21)
(1.21489 -0.02715 1.31221e-20)
(1.2291 0.0122159 -1.56067e-20)
(1.05364 0.00676813 7.50311e-22)
(0.889508 0.000260744 -2.41693e-21)
(0.0648903 0.0181329 3.91871e-20)
(-0.0271709 -0.051246 -6.2538e-20)
(-0.280404 0.0267904 0)
(-0.323028 0.171625 0)
(1.19862 -0.618787 3.61393e-20)
(1.15481 -0.043238 1.33484e-21)
(0.902245 -0.469597 -5.06398e-20)
(1.07658 0.0890309 -1.18714e-20)
(1.37419 0.194138 3.66974e-20)
(0.607791 0.42289 0)
(0.245608 0.410673 -1.1221e-19)
(0.597159 0.471072 0)
(0.0489718 0.0805868 0)
(1.13109 -0.479406 0)
(-0.0612487 0.0116684 -2.59175e-22)
(1.18797 0.0164028 0)
(0.872904 0.115102 9.50523e-22)
(0.595611 0.688338 2.0229e-20)
(1.27263 0.156436 -1.32455e-21)
(-0.0266945 -0.139489 -1.29077e-19)
(0.800953 0.0868345 1.6467e-20)
(0.458079 0.146135 -1.39517e-20)
(1.2026 0.0726031 0)
(1.36368 0.352631 3.93878e-20)
(1.2236 0.561704 1.04508e-20)
(0.163749 -0.0184095 -2.34556e-20)
(1.01314 0.132567 3.41562e-20)
(0.98948 -0.00818863 1.66431e-21)
(0.979647 0.00533599 -2.99202e-22)
(-0.00464965 -0.0381532 0)
(0.650708 -0.662224 -2.74864e-20)
(0.615343 0.193383 0)
(0.135059 -0.132493 0)
(-0.0474109 0.0592904 0)
(0.0249078 -0.149889 -4.95685e-20)
(1.23931 -0.0192227 -1.50485e-20)
(-0.0233162 0.0615496 0)
(-0.0362901 0.04882 0)
(1.45923 0.105677 -8.10745e-20)
(-0.0346481 -0.102798 5.81506e-20)
(0.11423 0.227942 -9.89757e-20)
(0.393892 0.0151646 0)
(0.170954 -0.286925 7.76042e-20)
(1.11442 -0.239642 0)
(1.00086 -0.283805 0)
(0.0314273 -0.125445 1.22789e-19)
(1.14543 0.0145911 3.72939e-23)
(1.12134 0.335212 2.51699e-20)
(0.267007 0.0278179 4.8099e-20)
(0.40692 -0.524219 -3.07939e-20)
(1.31587 0.0671546 0)
(1.22812 0.195371 2.32153e-20)
(1.22698 0.209393 -2.85151e-20)
(0.101863 0.0789786 -2.28414e-20)
(-0.089667 -0.0236858 0)
(1.0706 -0.0516849 -1.85546e-20)
(1.10778 -0.221866 -1.06633e-20)
(0.584252 -0.413032 0)
(1.09942 -0.152825 -2.2154e-20)
(-0.128025 0.138953 0)
(0.606874 0.0441394 0)
(1.40932 0.0806551 4.09928e-20)
(1.04225 -0.00342697 3.98636e-22)
(1.07944 0.739867 -1.39157e-20)
(0.227231 -0.385576 1.22189e-19)
(1.06204 -0.00906063 -2.07695e-22)
(1.20181 0.0680624 1.93223e-21)
(-0.0568864 0.0659367 3.24781e-20)
(0.790213 0.732951 2.59784e-20)
(1.36161 -0.364153 -1.38256e-20)
(0.060724 0.141457 8.93728e-20)
(1.04287 0.0109704 0)
(0.232701 0.0101269 -8.95194e-21)
(0.909267 -0.641159 3.41472e-21)
(0.905411 0.643858 -2.19222e-20)
(0.576798 -0.0324611 -7.25018e-20)
(1.1183 -0.0182274 1.95207e-21)
(1.07883 -0.0787757 4.69969e-21)
(1.1106 0.074026 -1.00483e-21)
(1.1074 0.11838 2.28486e-21)
(1.1317 -0.122389 0)
(0.917266 0.107983 1.51519e-20)
(0.89392 0.461695 0)
(1.22855 0.121194 -3.71429e-22)
(1.16502 0.101641 -2.38378e-21)
(0.759497 0.266413 0)
(0.52695 0.111122 1.10759e-19)
(0.895684 0.707863 -1.05894e-21)
(1.07396 0.284392 -1.93301e-20)
(1.0362 -0.00583727 9.03083e-21)
(0.41583 0.481437 0)
(1.30791 -0.471411 0)
(0.811936 -0.0395972 6.17683e-21)
(1.2689 0.50348 0)
(-0.0207303 0.0511769 -4.48791e-20)
(1.29333 -0.412011 -2.18055e-20)
(1.16586 0.504079 0)
(0.454355 0.206514 1.64988e-19)
(1.13067 0.317421 -1.24269e-19)
(0.818932 -0.646654 -2.24293e-20)
(1.11744 0.0740202 -2.75407e-21)
(0.924256 0.152498 8.43715e-20)
(1.08224 0.163401 4.47797e-20)
(1.07421 0.701979 -4.74563e-22)
(0.905819 -0.440995 5.87995e-20)
(1.4293 0.173543 4.39074e-20)
(1.10945 -0.0013762 5.744e-23)
(0.00830997 -0.0697308 1.07645e-19)
(1.09153 -0.706995 3.74726e-20)
(0.877018 -0.726334 4.39677e-20)
(0.253188 -0.346908 0)
(0.975828 -0.147712 6.60552e-20)
(0.362404 0.295675 -4.28587e-19)
(-0.103889 0.0071926 3.25086e-20)
(0.244441 0.0422279 2.35812e-20)
(0.703127 -0.057888 -8.4752e-20)
(1.08046 0.523802 0)
(0.987852 0.216008 7.41896e-20)
(1.08569 0.0313921 2.42517e-21)
(0.914032 0.435697 -8.68991e-20)
(0.789376 -0.731788 -6.57661e-21)
(0.925026 0.0205093 -4.6499e-20)
(0.979485 0.483331 0)
(1.1608 0.122199 -5.56153e-22)
(1.39171 -0.512571 1.5973e-20)
(1.23541 -0.338469 1.05466e-20)
(-0.373934 0.155777 3.97142e-20)
(0.194487 -0.011258 -1.76509e-20)
(0.972017 -0.119153 -5.51095e-20)
(0.352037 0.517375 0)
(0.916786 0.014418 3.705e-20)
(1.16157 0.636508 8.35719e-20)
(-0.0496054 -0.0914695 1.79842e-19)
(-0.0847709 0.0457641 -2.70426e-20)
(-0.126624 -0.115836 4.71324e-20)
(1.09821 0.0238981 -3.09399e-21)
(1.14692 -0.464022 0)
(1.07421 -0.739308 -3.13417e-20)
(0.700547 0.341879 0)
(0.0800137 -0.103046 -1.31434e-19)
(1.06007 0.00198118 3.4233e-21)
(-0.0511238 -0.126683 -3.43192e-20)
(1.04196 0.0604837 -1.18405e-20)
(0.107102 0.0273536 5.81858e-20)
(0.854784 0.127656 0)
(1.35354 0.0389246 5.3335e-20)
(0.0591 0.050221 -2.67729e-20)
(-0.357893 0.0754888 -4.71506e-20)
(-0.302069 0.115505 0)
(0.0887961 -0.0182884 0)
(1.31645 0.0314076 -1.72506e-20)
(0.39894 -0.0100857 1.75644e-19)
(1.27805 -0.729947 -3.50425e-20)
(0.986431 -0.0711951 4.35911e-20)
(1.06729 0.243521 -2.64996e-20)
(0.370925 -0.56913 1.3219e-19)
(1.55123 0.277082 -3.66222e-20)
(0.0927707 -0.0921019 4.19668e-20)
(0.208188 0.292334 1.91474e-19)
(0.115527 -0.0543281 -1.5657e-19)
(0.946194 -0.495657 -4.03284e-20)
(1.4564 0.386379 3.73846e-20)
(0.571931 -0.684617 4.45443e-20)
(1.11567 -0.0714533 -5.0407e-21)
(0.296945 -0.0106219 7.1559e-20)
(1.18999 0.292456 -4.98131e-20)
(0.663115 0.63256 -3.95e-20)
(1.35244 -0.625562 0)
(1.42437 0.520416 3.49613e-20)
(1.05869 -0.530619 -1.28976e-20)
(1.39314 0.606081 -1.05912e-19)
(1.12634 0.0379469 0)
(-0.0516284 0.0789932 0)
(1.25432 0.727588 0)
(1.04635 -0.0044852 -5.31117e-21)
(0.74088 -0.30656 -1.96805e-19)
(0.475524 -0.0912731 0)
(-0.0558597 0.0882519 -2.75226e-20)
(1.02726 -0.246378 8.66664e-20)
(-0.413677 0.135262 0)
(0.320874 0.0136762 1.19243e-20)
(1.11175 0.0425816 0)
(1.41976 0.274532 0)
(1.14553 0.0582021 2.94894e-21)
(0.36256 -0.303817 0)
(1.01038 0.145034 3.39405e-20)
(1.3129 0.285103 0)
(-0.117226 0.0655022 -2.81477e-22)
(0.812485 -0.400021 0)
(1.5169 0.335087 -5.5596e-20)
(1.23585 0.36177 -2.40498e-21)
(0.842435 0.638816 -9.47344e-21)
(1.00867 0.153718 -8.18257e-20)
(0.976203 -0.204692 -4.28404e-20)
(1.45474 0.291603 3.26938e-20)
(1.01748 0.102396 0)
(0.562794 -0.0758046 0)
)
;

boundaryField
{
    FrontBack
    {
        type            empty;
    }
    Top
    {
        type            noSlip;
    }
    In
    {
        type            fixedValue;
        value           uniform (1 0 0);
    }
    Bottom
    {
        type            noSlip;
    }
    Out
    {
        type            zeroGradient;
    }
    circle
    {
        type            noSlip;
    }
}


// ************************************************************************* //
