/*--------------------------------*- C++ -*----------------------------------*\
| =========                 |                                                 |
| \\      /  F ield         | OpenFOAM: The Open Source CFD Toolbox           |
|  \\    /   O peration     | Version:  2412                                  |
|   \\  /    A nd           | Website:  www.openfoam.com                      |
|    \\/     M anipulation  |                                                 |
\*---------------------------------------------------------------------------*/
FoamFile
{
    version     2.0;
    format      ascii;
    arch        "LSB;label=32;scalar=64";
    class       volScalarField;
    location    "298.5";
    object      yPlus;
}
// * * * * * * * * * * * * * * * * * * * * * * * * * * * * * * * * * * * * * //

dimensions      [0 0 0 0 0 0 0];

internalField   uniform 0;

boundaryField
{
    FrontBack
    {
        type            empty;
    }
    Top
    {
        type            calculated;
        value           nonuniform List<scalar> 
15
(
142.2785337866468
133.5792010329298
138.0704914072265
144.4090479522425
159.7727974893579
131.3688657979154
140.1312356517081
135.3618141554162
153.4395140871141
135.7423356281118
136.0967825672736
136.7698072056657
125.2529951090498
132.9061995562804
123.9480866014888
)
;
    }
    In
    {
        type            calculated;
        value           uniform 0;
    }
    Bottom
    {
        type            calculated;
        value           nonuniform List<scalar> 
15
(
155.5651978956251
158.1151998118499
141.0851872507015
142.0570908335507
141.1798587776727
148.4337497777839
142.700572524058
143.1596046229489
143.4237184401823
134.0547629747417
125.7293910100763
141.5515934631711
122.4097322413711
123.4907314016419
124.1356704655383
)
;
    }
    Out
    {
        type            calculated;
        value           uniform 0;
    }
    circle
    {
        type            calculated;
        value           nonuniform List<scalar> 
32
(
56.34782325543618
22.22871444028001
65.33454185892234
23.45747705965947
19.07694347392297
56.14830982579206
56.81175461699825
24.09815537279263
22.39088043041988
65.55772676892039
40.16059881162856
63.05879996931161
50.30946344925591
13.68981830981789
23.7796817726292
18.58274231740598
38.90186185881674
59.58643748594934
60.98536232517692
24.55099215855405
65.70141995214118
63.8416132115146
62.93967396339756
59.94635061007563
64.07859551617888
45.92287378876071
66.34472583895713
32.02904613538243
38.04667840246916
55.77988847876575
20.99129227888255
43.18382072666078
)
;
    }
}


// ************************************************************************* //
