/*--------------------------------*- C++ -*----------------------------------*\
| =========                 |                                                 |
| \\      /  F ield         | OpenFOAM: The Open Source CFD Toolbox           |
|  \\    /   O peration     | Version:  2412                                  |
|   \\  /    A nd           | Website:  www.openfoam.com                      |
|    \\/     M anipulation  |                                                 |
\*---------------------------------------------------------------------------*/
FoamFile
{
    version     2.0;
    format      ascii;
    arch        "LSB;label=32;scalar=64";
    class       surfaceScalarField;
    location    "1921.5";
    object      phi;
}
// * * * * * * * * * * * * * * * * * * * * * * * * * * * * * * * * * * * * * //

dimensions      [0 3 -1 0 0 0 0];

oriented        oriented;

internalField   nonuniform List<scalar> 
1171
(
-0.9278964813409576
0.9278964813237288
0.7873226029278769
-1.099020070739756
0.3116974675409128
-0.1917502193078547
-0.767503267720642
0.959253487321204
0.0721035174015493
-0.1177936501191394
-0.212166268199671
0.329959919332766
-0.7873225956999478
0.06929685578809747
0.7180257399098479
0.8107780969451013
-0.1777263123665482
-0.633051784391128
0.8739518404326866
-1.04381733918235
0.1698654987525216
-0.2850227811797148
-0.09836189909215261
0.3833846802275276
-0.03649115959400304
0.5486606645763543
-0.5121695049812958
-0.5090386867379296
0.8292761553767869
-0.3202374690425445
-0.402816431167928
1.045541244406752
-0.1715893968168371
0.3936061218903061
0.05069923748804915
-0.4443053580004099
1.046121665873273
-0.0005804202621114114
0.4459069138895
-0.05230078472436149
1.056566179033271
-0.01044451183799293
0.5802410124780155
-0.7719912316698687
-0.7240497138356663
0.5567265495336214
0.1673231643644685
0.2145594859101772
-0.7235981725770956
0.5496832587693062
-0.9224219958322485
0.3727387373096693
-1.094228486129291
0.6866080263321931
0.4076204598491303
-0.5954961673933298
0.5590050061719003
0.01711620857527684
-0.2556271399641536
0.2385109308747142
-0.02289900495961137
-0.5250040875398507
0.5479030946315505
0.4000421809604414
-0.4984040786606089
-0.918896554285534
0.9416838155994051
-0.02278726139527842
1.067888980853703
-0.01132280139196276
0.9350371824465438
-1.116835463280631
0.1817982809237383
1.067426596694531
0.0004623826902429876
-0.6642888101015132
-0.05976090274899453
1.262051680358607
-0.8644499242365193
-0.3976017560853954
0.1485300366869976
-0.1098889595030527
-0.3251587588236537
0.4350477182011808
-0.2855211887379816
0.1920097152612273
0.09351147360882969
-0.5835705208378271
-0.5154495570123706
1.014143459710516
-0.07910627185012427
0.009871391570170959
0.8254953299342488
-0.8353667215925494
0.5716828108830384
0.6903688756541621
0.4387717127470929
-0.03115920288832998
0.431201386970059
-0.8080115820368314
-0.1025947833291013
0.910606365453004
0.5023426956064534
0.2541356986157408
-0.7564783943054966
0.005153722550482128
0.5311617963631726
-0.5363155178003229
-0.4900139184333747
-0.6042145636409029
-0.4228126499606807
-0.6940228068031847
-0.02749224717013155
0.2708735664492951
-0.2433813197029482
-0.9248910334956664
-0.005177046855736469
0.930068080272212
0.3080863210666802
0.07529836298950889
0.7617004792801892
0.04907761550673351
-0.5328971225610611
-0.06259904173185125
0.04609095706695287
-0.8541025378110561
0.07721139781256252
0.8622971510172062
-0.9395085489123316
-0.3470615833297023
-0.04056479662181677
0.3876263792481633
-0.6822408160814605
-0.2426502174475741
-0.6337153150602018
0.7109267083125248
0.6130056349268338
0.216270520699256
-0.543328708702157
0.9458873985130908
-0.7790366614046514
-0.166850737226297
0.01294888144320248
-0.004989803001438863
-0.007959079109749953
-0.4033487116786211
-0.09505536568515231
-0.241743202748269
0.8547488329138261
0.04862098803755647
0.3334165418619107
-0.3820375301759591
-0.4616725357780804
0.9640152337967243
0.6803615740094614
-0.7829563551114742
0.318153008000203
-0.0145699879545178
-0.3035830227466449
0.9306941539353927
-0.9306941539497824
-0.7819100038224011
0.1115076510031373
-0.3236739189043134
-0.7499635722984994
0.7598349632851162
-0.09125159054166992
-0.1429562314455176
0.2342078212553435
0.8648633657856127
-0.03936803723692948
1.054632031265855
-0.8004963300800197
0.1867101667688449
-0.3163950394223112
0.1296848731317791
0.8584144313224636
-0.09671395078978177
-0.6113577347099475
-0.03934269985365427
0.6507004345088566
0.1234885228733249
-0.2303918654766934
0.1069033426788803
0.8055251182340405
-0.9832514297907289
-0.4341504644435452
0.3290354343789702
0.1051150307627763
0.5335532972987632
-0.5564523021069381
1.022014969614885
-0.456256897676153
-0.5657580720196884
0.5992023182940206
-0.7192643925029587
0.06643296889445054
0.6528314236818513
0.1019360367117892
0.5697766340528591
0.05493162558248888
-0.6247082595423538
0.1950132947810618
-0.08350563415618337
-0.4921089017300727
0.145047322714441
0.05030056757018502
-0.8864869975766576
0.8361864300678639
-0.4743048564231793
-0.7131815677834374
0.048892759869126
0.4367532958658007
-0.005551909385537166
0.3001168851972328
-0.8553075954986357
0.5551907101856107
0.4157588439292331
0.584241156173698
0.5606181855602119
-0.5145272256370099
-0.3667740060657346
0.03959658485564568
0.3271774190869886
0.6812597905919903
0.249434369121725
-0.5677670798089151
0.5729208005143184
0.1115945418489877
0.8748219669629437
0.01027921899584015
-0.6216369481061526
-0.7490971204181699
0.7993976877740672
0.5304339444707539
0.07095458219042299
0.300317450497888
-0.3712720324395691
-0.167494507245363
0.4451468124502321
0.08601498136306554
0.8737242799306356
-0.8033319342194484
-0.07039234576609281
0.6354651255039164
0.3104222800902243
-0.4308409560521843
0.5742584204269349
-0.5033038338229471
0.4170342459712894
0.1326490124244414
-0.04677569082950805
-0.5903051634172157
-0.1395525989264213
0.7298577624389959
-0.1496935445704565
-0.7810006071144581
-0.6110573781007225
0.3601535898312619
0.2509037878746463
0.622024729211191
-0.6117455098515971
0.2387083264884305
1.011725762808323
0.04290626668687818
-0.7490971172680926
0.223857724902974
-0.210908836803771
0.6803615733092772
0.8019163045905886
-0.8019163046903067
0.8375942355112225
-0.8330975822919983
-0.004496653225420275
-0.4453345986677972
0.8610934416232336
-0.1474102138689178
-0.3446986923892713
0.7347727914538866
-0.6685768580385968
-0.06619593341716165
-0.7359754557879644
0.1456702956281008
0.1391543575789358
-0.6720514781524691
0.7829563472015293
-0.9504508544407178
-0.3669270035462889
0.2860685012891346
0.08085849851698365
0.1456974294840097
-1.010009726664918
0.8643122972040734
0.4806307349762374
-0.04185902225901494
-0.3080675416490377
0.5862230252324769
-0.2781554834896842
-0.7385436924198068
0.8842411265191055
-0.1570119237754412
0.7324858302306325
-0.8369892212423506
0.1045033906109573
0.9774995707352947
-0.5395530642495923
-0.4379465066130901
0.7551406209185083
-0.06491039482366921
-0.03559808050528194
0.1853138995745291
-0.149715818322093
-0.7757806078405893
-0.8394127656686495
0.07190949893047284
-0.7499635737250923
0.5139396392942631
-0.5545044336169301
0.09840400776209798
0.7159768331452766
-0.8143808408880844
0.7535937809610781
0.1743026875127077
0.5029263977166119
0.4970736022737156
-0.05506474341649113
-0.6098598452185281
0.6649245897839151
0.8791287132581219
-0.005404433648706605
-0.7551406209076061
0.799397690708149
0.1916446656373766
-0.447271797040902
0.01283666741815484
0.003138648619359414
-0.01597531465451373
0.589228027500768
-0.4374599449763079
-0.1517680820637795
0.7180257363441664
0.0115875799655907
-0.106926934812443
0.4387532371662365
0.1504747933575414
-0.01509425368909826
-0.007742076954242879
0.02283633032316195
-0.03203305073879946
-0.003565037048034195
0.2457910794542459
-0.2603610598916825
-0.9589282205682428
0.001716042339998483
-0.1595305298538292
-0.1211359361166922
0.09470135874866471
0.7222720334941712
0.7289335547783464
-0.1446923992646695
0.6705432455157548
-0.5721392354746158
-0.2119637744792608
0.3986739425135699
0.6956374228028855
0.02238831351429969
0.2418053531948091
-1.074902935768149
-0.9504508552726486
0.3025344090023418
0.7598349627095117
-0.2093353422153754
0.06637910670867365
-0.7239880786140787
0.910181658171647
-0.1861935796723876
0.4159092247153507
-0.02828283920138624
0.7712760355892547
0.2807356158490796
0.3765336276645817
0.06937328822410174
-0.6587151727477182
0.6587151727487199
0.2148256633461611
0.6957807044409203
-0.05626953043034411
0.3896860910890961
0.3787781938421173
-0.01246337437351954
0.02530002928759429
0.4483721970914307
0.03225853808258537
-0.738543689657685
0.5339752590131149
0.2007975320578221
0.3002853396311134
-0.114971442984417
-0.6956374207261522
0.1795050316631405
0.7306766290905637
-0.01027305747681855
-0.8135787643092885
0.8238518218216305
0.6964186849249894
-0.7919455351636425
0.09552685034551084
-0.7535937752216191
-0.151128802333651
0.2123518140505395
-0.06122301164651921
0.07757800294796834
-0.1781556101423729
-0.1133670078275264
0.2915226194044214
-0.00550239520135061
-0.009591850564337106
0.7064722889386063
-0.7167453515734995
0.8870167320486171
0.07223675820063236
-0.3150222630895172
-0.5208482950738705
0.8358705583945646
0.1040360531304102
-0.1040360511194389
0.3256650742052521
0.473412086743727
0.6153364911117071
-1.088748578040093
-0.1940768907229755
-0.5855815391581244
0.7796584298984395
0.0136456733843884
0.22056214667317
0.3761933721174514
-0.2527048467205991
1.016010159735481
-0.5425980729932746
0.668555258934087
0.9932720520852421
-0.3779355616098135
0.2287831654421883
0.8842411285223054
0.7126517323396794
0.2139122707852908
0.7277715415624588
-0.7810006035743237
0.3412848371855574
-0.2819787383379803
0.2572556050034094
0.02472312955080454
0.8479205575677718
-0.001108494688987625
-0.8468120627543416
-0.7022072173634113
0.7026695985046758
0.554665403376901
-0.702207220055627
-0.7126517323683004
0.7026695973999725
-0.03421377790525063
0.9096418924980491
-0.0226251617278275
-0.6812597865173334
0.612273227185414
0.06898655930775877
0.5384914700264238
0.5377179444900655
-1.076209414471146
0.4872851340389446
0.5287250248733579
0.5467996709907151
0.4573995189874157
-1.004199189989803
0.4923803575018465
0.5008916943560409
0.6122732239953411
-0.5256131780728515
-0.466246003775647
-0.5565788870357946
-0.5141057521813438
-0.1210123869660181
-0.01265981682890038
0.01265981660871932
0.5112535649579149
0.5242816733491613
-1.038387425574827
0.5720759189579293
-0.2717584620836028
-0.8837246306830944
0.3441715653821864
-0.6329894734132216
0.3903392582381239
0.001260238039158547
-0.8254918394883172
0.824231601279891
0.4208660082456854
-0.02336233418533919
0.8712828902036768
-0.9487375806398446
-0.8328891378920451
0.0545937769586433
0.7782953607739581
0.5632711931279286
-0.4397665200018807
-0.12350467277088
0.6502770362505462
-0.7293833049296945
0.8885153815575686
-0.8278477337286552
-0.06066764796637467
-0.01402180419397877
-0.7893101301774401
-0.1108854249493131
0.712135265966196
-0.6012498410046868
-0.9399732478399246
0.9259514420699652
-0.7260016605822114
0.6893820768477816
0.03661958363822573
-0.8065428547645254
0.03271018887182935
0.7738326658829077
0.06196578967551064
0.04207026081911937
0.4327658960921036
0.06022220348948762
-0.8512007214193645
0.7909785178734884
-0.6460466926417929
0.5909819447064614
0.8881699211846303
0.07310605985547422
-0.9612759812236794
0.05528078180962424
-0.04988548251202841
0.3770629007159215
-0.3819731782611332
0.06557813736139745
0.8409681166868976
-0.8397078791065553
-0.7343061009384704
-0.816607363352152
0.02729723223882131
-0.164713042821857
-0.8499835658045385
0.0221358301254912
0.6214982722423902
0.04904497333897379
0.02825384904979667
0.5350173410403616
-0.8134663731598182
0.8461765593395356
0.5657580723482947
-0.8488541743260786
-0.8668671880358383
0.04277470309180992
-0.02698547457253258
0.8351185439353001
-0.8081330694147904
-0.02575196416539206
-0.7612915776498451
0.5442954613607518
0.1521232253274384
-0.02165216619270497
0.8929350569179696
0.9805452176455668
0.862523527233848
-0.8403876979809438
0.1479681826539527
-0.1479681833826978
-0.1176990572788439
-0.4691099578957685
0.02934343849861402
0.2704429682546032
0.0320914406646718
0.3881211874900118
0.8671830911620634
0.009472297558892794
-0.01497467443273247
0.65858245824895
0.3414175417556934
0.783662016873739
-0.5835705198159193
-0.7781080170214577
-0.8092415673052155
-0.6798823302500164
0.6798823302238162
-0.1681832977165642
-0.1554906193258069
0.6023796734721714
-0.8116252519496928
0.2092455784637589
-0.4940649634588413
-0.5688921875139644
0.2779884688173349
-0.9720112757283452
-0.8996545505469358
0.8389869008515871
-0.813705095870017
0.8410023263155338
0.6486097399219507
0.1341714107685698
-0.782781150658998
-0.7726219840713061
-0.146433930073359
0.7248789763566651
-0.5784450461740351
0.0324714598043112
-0.01183420419023501
0.01608182109626891
-0.004247616718026778
-0.3532633885563464
-0.1158465733492706
0.880368147490201
0.7468647634898623
-0.244406261900437
-0.5024585008897846
0.6233600900401727
0.6857517740092097
-0.4709261103223822
9.933457459032451e-05
-0.2856205248524739
0.01339288063472176
0.7514557817194413
-0.764848662592147
-0.3234015304790498
-0.0731258838292041
0.07647970779040221
-0.9662767217976569
0.1194646583780766
-0.6774538343682148
0.05357969248965066
0.6397070344325086
-0.6932867268732357
-0.7560035233895347
0.07854968898621717
0.5885975011932905
-0.6617233850332392
0.1574810253948136
-0.3356366342972301
-0.7711724125612053
-0.001449571422830536
0.3710795245946401
0.5998440562784366
-0.02558563039488245
0.01890168035935811
-0.01890168182509044
-0.02040189929272137
-0.04874516101010774
-0.2332335651048062
0.02837449992887755
-0.01890220974952491
-0.722127442760349
0.279281826099348
0.6799739641968165
-0.6887846535909906
0.00881068935841744
-0.593748923110753
0.647328618274309
0.6542192164240217
-0.06562171828908739
-0.6306309187567869
-0.1253725988776911
-1.050643851671685
0.01107542554517024
0.1368927586736995
-0.7087345666477034
-0.7415163318391332
-0.7636825015261681
0.3660807502989774
-0.4063892360735464
0.4601658574851248
-0.05377662248182122
-0.6625989896908345
-0.04613557694296271
0.5011931514007715
0.7306859781372433
-0.2359180715337962
0.1147821375624145
0.9677262961800219
0.4468349107224142
0.132594120443925
-0.5794290310967464
-0.6766123935573587
0.01401340381747494
-0.04464780000199991
0.03281357319735875
0.6364885067979819
-0.7760411030213767
-0.00185687464645282
0.001856873837593481
-0.6010035367967562
0.6493377094340952
-0.04833417228354773
-0.6483585450457324
-0.113405464240736
-0.6715539662095348
0.06113996002405893
0.6037846316064778
-0.1374831257992516
-0.8179878995417176
-0.5730097677600013
0.5689724503862396
0.004037319445130371
0.6283180622217582
-0.61950736951101
0.3225671846905933
0.2137347754842313
-0.5363019602089119
-0.1050278276834777
-0.6014595390103507
-0.09182718686803423
-0.1541686183477028
-0.5118698168763767
0.4041743426098555
-0.4992297054683326
0.1267033913383935
0.6785664248749068
-0.8052698163725612
0.5992023182888463
-0.3685143842570135
-0.03787485950187325
0.07713967378932367
-0.5890094850071771
0.5514063931630643
-0.04060357329422728
-0.5108028199947227
-0.3131936730303943
0.3057885164716462
0.007405157380464516
0.4533198367905913
0.1187560849741438
0.05275967374908024
-0.3166059642241199
0.1576132421867669
0.1589927221506873
0.2328965157683738
-0.009038801793737318
-0.2932724838191872
-0.310036194853731
0.3492260624741318
-0.03918986467787182
0.7880199129334164
-0.6258524802375987
-0.02250606421590491
0.499244106259906
0.2839402893945164
-0.5283465528977178
0.5774840984734056
-0.5774840984746903
-0.2897487529232016
-0.5864574715805657
-0.2955832159373865
-0.5864574721413853
-0.5951952308436081
-0.8384911230373765
0.1699142669305755
-0.5965090571616705
0.8211171789441069
-0.003098030484953452
0.1174467177138615
0.4823973430466587
0.09679105321022745
0.1861112162324356
-0.03649012208628212
-0.1496210954378951
-0.02753659525394864
0.5911228875311497
-0.943811176657025
0.4229628794188432
-0.00847192248301307
0.003739290550161429
0.004732630127406392
-0.6440667663047684
-0.1319428617407036
-0.4684018593831307
0.6009959879086419
-0.5034993208716917
-0.3256456038586464
-0.2633638937375982
-0.2714915760790525
-0.111459869544848
0.1114598705458653
0.1531034698785963
0.05924833451681303
0.1971866371461984
0.4511270762423426
-0.5707665583745207
0.1023647013366431
0.248783683896367
0.4665206260009294
0.533479373771924
0.6437416264896269
0.08783617649616654
-0.004249366341767788
-0.08358681757092205
-0.2771221992760312
-0.5408657000616963
-0.5502891823126307
0.1148652058911068
-0.1266941646542491
0.01182895879404904
-0.105429271392409
-0.3853022549117006
-0.04999269977518897
0.6537773204984205
-0.4991806948284961
-0.1448860715310275
-0.3306353933103118
0.2878220000239644
0.128607929208282
-0.6182748158826284
-0.2046734267535504
-0.2630772412105352
0.002716179767768948
-0.4216221674542306
0.3238300722156889
0.09779209474031342
-0.09528011018770964
0.2917356865420965
-0.8959502483280963
-0.4573850870642565
0.6262407232738131
-0.7732677812332827
0.6682399535587855
0.3398006127703768
-0.1240853834220808
0.2236847419689191
-0.099599358283896
0.02782124627587006
-0.586264178817185
0.02876504626406749
0.5574991326815916
-0.9006002471903601
0.547926658555463
-0.6656257160265783
-0.1048242769077576
0.1098809674965089
-0.1098809666990317
-0.3165066265295834
0.3589367273486971
0.01812617976313941
0.02821370688328092
0.05962245223366922
0.5048483181765513
0.66578570071167
-0.7361780472718381
0.03135237259825588
0.02054869437865227
-0.001647018436285518
-0.007040101765563095
0.007040102352455072
-0.4129669688200988
0.5317230549689541
0.01579135170170991
-0.01579135177318373
-0.7925717568742106
-0.061111626439755
0.1230774244115588
-0.45625472438505
0.5586194267492675
0.4520351650486988
-0.5003693361363721
0.1503340324278337
-0.1503340334682344
0.03377690138080867
-0.008476875965617848
-0.04251510979047004
-0.9751407827493933
0.5371942747398137
-0.4667435761597487
0.04207025748649834
0.5151191741135405
0.03066916767673596
-0.5457883416350964
-0.616522035176442
0.1173413376482638
-0.328990493128311
0.01354292259230564
0.3154475700303905
-0.1558196698552922
-0.08009841219377352
-0.5410477116273718
-0.04521646812861294
0.136892759162497
-0.04001666260102899
0.03815978442453816
0.08052800211252806
-0.08052800416766182
-0.5265953885275776
0.4874055351970721
-0.4149305612952208
0.1613102214507043
0.6223517953985814
-0.09703167829509973
-0.002819832309069745
0.002819832864049223
0.5329535964569799
-0.08325747335359651
0.005844909695724035
0.02701178857891359
0.03503015268554435
0.6857729155810294
-0.7690303887496426
-0.6540619622022543
0.6315558938251157
-0.1078068684643569
0.3140066868130446
0.745649658586042
-0.02040190015262238
-0.265670402773413
0.1506989496429399
-0.7445922129719841
0.4838497096858069
-0.4280769182028143
-0.1014028659547666
0.003247752593130212
-0.0143220532580322
0.02412514365076504
0.4110367366068091
-0.1215186403148384
-0.3892841675320979
0.6288719148088378
0.01969993286576951
0.009495008340103904
-0.009495008927488122
-0.3503882011059719
-0.07546832279646117
-0.5602312403967431
0.5571332100910702
-0.2374523911622523
0.4647043834614564
-0.1509848438240556
0.7312258579816532
0.6696725828434323
-0.04001666132830423
-0.617820394714676
0.5627456480108343
0.2845761423282893
-0.2796875624740213
-0.004888581356852937
0.5362757775275585
0.09342485506321935
-0.0389924177152067
0.1958524532347286
-0.1568600358792625
0.1195204046172871
-0.1195204052370505
-0.8586409413590476
0.002365839418678876
-0.1136810026763076
0.1406927915961134
-0.131477379787952
0.1314773809736997
0.0205486789151557
-0.02322173810942876
0.6698423733100107
0.06083425835190514
-0.3225595208882514
-0.06274273491545779
-0.4712539434222154
-0.04605925505956842
-0.1511924161487564
0.151192417389584
-0.04980993296977163
0.1437448366763411
-0.1437448380417564
0.1360481923836009
-0.1360481921723181
-0.3161947571041042
-0.1146461990344711
0.2259180043118134
0.1031174334402693
0.03478912423188951
-0.8211963948002016
-0.1985947514957015
0.1698610329671639
0.02178363338593915
-0.2641411448524594
0.1262579031623939
-0.1262579043624399
-0.4143277713411785
-0.0849019321791636
0.2356463130414425
0.002864622193125937
0.04051134207819197
-0.5443820485145029
0.578595826427811
-0.03745561885627008
-0.01235431806390298
-0.02520693267717689
0.01673005705936423
0.006589186085235259
-0.1848702215417231
0.1782810351177931
-0.108591741875685
-0.2270448998250078
-0.1443139252253605
0.144313926576751
0.07241688121580871
-0.07241688037059998
-0.01894031176145998
-0.1085254295113304
0.1274657409215339
0.2355212030433982
-0.1835087996290637
-0.0271047389154069
0.02545773301747318
-0.1308995299957157
0.6183050722467226
-0.03904298829005577
0.4277198957447936
-0.04310690402992712
0.06594323911504971
-0.1529019983683926
0.152901999388013
-0.6368606714906873
0.3080276974324618
-0.07924453361831801
-0.23400515988047
0.003613300409653657
-0.1206314619962
0.1611428035678732
0.1958143232373488
0.09570829469889872
0.09688456367300123
-0.06185441013817303
0.07320208499764105
0.04166312275897571
0.0642002323696047
0.1056607991428264
-0.09966853675738546
0.21445069074654
0.0113518791258486
-0.1185707491508231
-0.09970323744770195
0.09599317799739533
0.003710058430192206
0.01105366854480225
-0.02340696261421332
0.03736118783124735
-0.03736118766332668
0.07522099745959077
-0.05537700420529834
0.05537700428109005
-0.2243599275479479
-0.05262752170282149
0.01171079177715907
-0.1030724802074021
0.01652778230375327
0.1088690703545366
-0.1088690710451038
0.2936064185199981
-0.2708231342433126
0.1622313914882871
-0.05101440731699807
-0.2198087269198757
-0.01684644029195503
0.01684643991170334
0.3676637355470787
0.2851676902844962
-0.5281585241011999
-0.09393300852266079
-0.03276115701990596
0.5289739630687753
0.2103142966800801
-0.1699621034815788
-0.3795653227064404
0.07652496600400166
-0.1471396194838466
0.1867067815467833
-0.03956716160884778
-0.0672059674052073
0.06720596677342254
0.8221746245741645
-0.5603809633554511
-0.005917416985184871
0.01697108269629261
-0.02001750907695485
-0.287433487448742
-0.01748695095349076
-0.01283655514304556
-0.1322156486637463
-0.5723289786073568
0.5561558682602434
-0.5690991796834709
-0.006878485985943478
0.1006266561900834
-0.001709588935843023
0.01685381532032361
-0.1671571241622188
-0.3360434974262604
0.2329710169772052
-0.05399600200216823
0.03505569417441376
0.1321408618741313
0.1736476563643691
0.3420619333928294
0.2757988031431745
-0.2775083926285695
-0.06154344992152518
-0.1552926259631085
-0.2204622315312415
0.0745107355012328
-0.01031049818668153
0.2134080845790144
-0.1965542693306182
-0.08627618536314489
0.159478273266424
-0.3553644014551687
0.2078744455410869
-0.1913466628334207
0.08958849725154398
-0.4788726646021647
0.1738702279356441
0.1707932382666348
-0.2570694291219751
0.07347760146747556
-0.1949520166686717
0.1774650656991829
0.01738882181788272
0.1420894494544345
-0.03958565185023338
0.0656028393446175
0.4673507570189741
0.02051474015573791
-0.08620077361082917
0.05372264294712673
0.1263707381468296
-0.2600293953804439
-0.2309284556444838
0.5597436911140543
0.1569119523863979
0.07873436538930191
0.07453305998691613
-0.03102577229522841
-0.008115028376801232
0.00322643905500365
-0.03263779481772398
0.1706050388253861
-0.1774835249327235
-0.06207563006074117
0.01954031010131652
-0.147255259335343
-0.05286258046209859
0.1523750485437955
0.2770352232334458
-0.03976470938989888
0.008615023293506595
-0.2553277330536367
-0.1327259327617513
0.2363713793346757
0.1783340996832021
0.1296936002652753
0.02206143127638412
0.08842275767426411
0.05245224066456285
0.4523960774432744
0.01506195161524393
0.09807670189854664
0.04294829866430962
0.07234681087506729
-0.1152951089305797
-0.2429908286795992
-0.2003955245943701
-0.01941319566558451
-0.2018374401272583
0.2747409288068233
)
;

boundaryField
{
    FrontBack
    {
        type            empty;
    }
    Top
    {
        type            calculated;
        value           uniform 0;
    }
    In
    {
        type            calculated;
        value           uniform -1;
    }
    Bottom
    {
        type            calculated;
        value           uniform 0;
    }
    Out
    {
        type            calculated;
        value           nonuniform List<scalar> 10(1.03408480248065 1.064104645720269 1.022824890806621 1.021105381724307 0.9951174592283066 1.014997446296618 1.03553523706303 1.062957150904992 0.8672328481190316 0.8820406875619726);
    }
    circle
    {
        type            calculated;
        value           uniform 0;
    }
}


// ************************************************************************* //
