/*--------------------------------*- C++ -*----------------------------------*\
| =========                 |                                                 |
| \\      /  F ield         | OpenFOAM: The Open Source CFD Toolbox           |
|  \\    /   O peration     | Version:  2412                                  |
|   \\  /    A nd           | Website:  www.openfoam.com                      |
|    \\/     M anipulation  |                                                 |
\*---------------------------------------------------------------------------*/
FoamFile
{
    version     2.0;
    format      ascii;
    arch        "LSB;label=32;scalar=64";
    class       volScalarField;
    location    "24";
    object      p;
}
// * * * * * * * * * * * * * * * * * * * * * * * * * * * * * * * * * * * * * //

dimensions      [0 2 -2 0 0 0 0];

internalField   nonuniform List<scalar> 
808
(
0.122349
0.0160543
0.015604
0.122342
-0.20654
0.0169454
0.00882683
0.0244713
-0.106365
-0.0147172
0.0213046
-0.122489
0.0211528
0.0125483
-0.275543
0.0189828
-0.289405
0.019432
0.0279572
0.0130484
0.027905
0.388481
0.0733224
0.00163163
0.467332
-0.189778
-0.0466822
0.00754105
0.0212815
0.0165932
0.0173922
0.0234173
0.0208269
0.0145207
-0.0691859
0.63774
0.0137113
0.0224973
0.0185267
0.015387
-0.040206
-0.0489525
0.0352478
0.018833
-0.21499
0.0906413
0.0213439
0.0229493
0.0126954
-0.143861
0.0125107
0.0229305
0.0449027
0.0111129
-0.0777569
0.00986676
0.00901414
0.0227886
-0.0101195
0.00711375
-0.292482
0.0137861
0.0296559
-0.150877
0.0202665
0.0459345
-0.22841
0.0187116
0.0238905
-0.256991
0.0196061
-0.28958
0.0183537
0.0207276
0.197271
0.0154499
-0.00332958
-0.0590477
0.00973688
0.323253
-0.128741
0.0169449
0.0349956
0.282567
0.0206833
-0.0249967
-0.330501
-0.0968657
0.0292743
-0.203575
0.0434475
-0.0878511
0.262815
0.162908
0.0406913
-0.190844
0.0146911
-0.140458
-0.0933821
-0.181104
0.0136353
0.00462289
0.042089
-0.0185713
-0.0774893
0.0595676
-0.254158
0.0183608
0.00960544
0.0419657
-0.0667914
0.341908
0.0161781
0.0292303
0.0188434
0.462063
0.0154585
-0.242122
0.0192923
0.0598378
-0.23391
0.0358278
0.0136393
0.061338
0.116081
-0.0418114
0.112699
0.0171124
0.0389644
0.0685345
-0.235182
0.0204254
-0.037966
0.131422
0.022616
0.0114054
0.0810214
0.0107924
0.0200621
0.0125737
-0.265603
0.0514653
0.0324588
0.0177176
-0.023116
0.0937495
0.0998139
0.162546
-0.0679216
0.0334787
0.0159508
0.354131
0.0322313
0.547005
-0.265386
-0.096498
0.0166485
-0.239876
0.0574357
-0.120255
-0.276533
-0.265174
-0.25606
0.0197628
0.0612986
0.0215581
0.0232978
-0.263616
0.0125512
0.023856
0.042208
0.164545
0.0935153
0.134077
0.0205698
0.0746325
0.071929
-0.130544
0.022315
-0.315823
0.0236529
-0.131863
0.0190323
0.271848
-0.31976
0.119394
0.0196966
-0.127082
0.0268173
-0.0840016
-0.258857
-0.0570979
0.0202203
0.0875124
0.019335
-0.255363
0.0192698
0.0239546
0.00186711
0.0840557
0.0694045
0.0219626
0.0216985
-0.292473
0.385673
-0.250164
-0.272183
0.00790286
0.00165239
0.0165694
0.000336795
-0.364635
-0.214162
0.0193052
-0.00648202
0.018463
-0.296871
-0.0258557
-0.00725315
0.0341136
0.0101301
-0.0749962
0.0259997
0.0256103
0.00509616
0.0229791
0.127752
-0.218431
0.0359107
0.0189732
0.120739
0.0196976
0.0212375
0.0148161
-0.112045
0.00434626
0.00670179
-0.000870498
-0.00991179
0.0111364
-0.00042753
-0.00188221
0.00187807
0.00339405
-0.000208531
0.00327311
0.000566342
-0.000868235
0.00390891
0.0849055
-0.282486
0.0057451
0.0198217
-0.0923246
0.0116133
0.00284368
0.028909
0.00192472
0.022223
0.131997
0.053975
0.00825342
0.0094116
-0.0175553
0.0209846
0.0206656
0.0216336
0.0455871
0.0178065
0.0381347
-0.00869675
-0.363086
0.28497
0.0219442
-0.0587133
0.0152176
0.0166878
0.0147818
-0.157967
0.288119
0.0282402
-0.01226
0.00499703
0.0893437
-0.195219
0.0252517
0.0756136
0.0349297
0.0344727
0.0760417
0.0226221
0.0330077
0.0110325
0.00996328
0.0419887
0.0254784
0.00358722
0.0607303
0.0629794
0.0491872
0.0105583
0.0254697
-0.00159574
0.0173719
-0.466598
-0.101162
0.0240416
-0.0373384
-0.150188
-0.331519
0.0609385
0.0238859
-0.273723
0.13391
0.165031
0.0181695
0.020114
0.0484507
0.00372693
-0.19508
0.0373109
0.00099358
0.0263228
0.0319465
0.0242732
0.0315202
0.0352733
-0.00135512
0.0373178
-0.261862
-0.115498
0.0217624
-0.0809377
-0.0159291
0.00993071
0.239889
0.0551221
-0.134387
0.558677
0.0127902
0.00566451
0.0265774
-0.0752986
-0.0440037
0.0144002
0.0314427
0.00535633
0.0385279
-0.0570741
-0.233202
0.0260647
0.109925
-0.0514083
-0.256781
-0.276147
-0.228781
-0.273116
0.00743079
0.0236002
0.0221946
0.0184156
-0.0300334
0.00877509
0.0322347
0.0053532
-0.461901
-0.0115603
0.0299691
0.0173324
-0.124557
0.0110069
0.0265759
0.117638
-0.307995
0.0152265
-0.044673
0.016194
0.031916
-0.263019
0.0125679
-0.280414
-0.00500476
0.0459349
0.0197689
0.0111559
0.0211644
-0.066901
-0.308445
0.00537786
0.0163077
-0.00722229
0.0361501
-0.00623452
0.0207795
-0.0035697
-0.0137758
-0.0834463
0.0463262
0.00195689
0.018134
-0.16134
-0.200105
0.0707684
0.0123577
-0.0942531
-0.023638
0.436324
-0.238552
0.00205657
-0.0705597
0.00730639
0.0319844
0.023973
0.0740295
-0.000990604
-0.075596
-0.0528257
-0.000312983
-0.0048273
-0.00681846
-0.0115869
-0.0115958
0.0166623
0.120747
0.0696533
0.0120779
0.0137564
0.0286374
-0.0609203
0.0250741
-0.340854
0.0787141
0.0592108
0.00252391
-0.214574
-0.260416
-0.0146463
-0.0637225
-0.0722816
0.0270488
-0.288339
-0.199684
0.237086
-0.286054
-0.413439
-0.151439
-0.137139
-0.0890758
-0.209009
0.362075
-0.0284491
-0.269437
0.00801113
0.0173573
0.588974
0.0110595
0.022567
0.055229
-0.00794103
-0.0109052
-0.362756
-0.256188
0.048063
0.0685138
0.0769351
-0.232053
-0.271182
-0.215897
0.0160446
0.0350824
0.0955603
-0.0132562
-0.016538
0.0813741
0.0597568
0.0194604
-0.1421
-0.26843
0.041641
-0.0839391
0.0152889
0.00883799
0.0843237
-0.0508961
0.0188068
-0.424469
0.463267
-0.167262
-0.262611
-0.0250722
-0.00099645
-0.262911
-0.25681
0.126704
-0.297956
-0.156657
0.876924
0.0135308
-0.32231
0.00230914
-0.121998
-0.0331058
-0.41464
-0.272607
-0.271162
0.0161424
-0.151037
-0.325239
-0.0134485
-0.0242489
0.113706
-0.279815
0.0327086
-0.459085
-0.29369
-0.352006
-0.17008
-0.0115248
-0.00128203
0.109369
0.135556
-0.0395845
-0.259086
0.317883
0.0694502
0.0132874
-0.399494
-0.456362
-0.298291
-0.0268927
-0.314207
0.0529788
0.0879047
0.0693535
-0.146909
-0.19977
0.00854526
-0.268566
-0.262433
0.00441296
-0.00373222
-0.291046
-0.0105528
0.0388639
-0.343643
-0.279088
-0.0703125
0.109457
0.0244689
-0.29173
-0.26818
-0.158911
-0.197663
0.0447195
0.105652
0.00818904
-0.195697
-0.265385
0.109397
0.027811
-0.176995
0.0254521
0.0482491
-0.299776
0.0107868
-0.231668
0.0551747
-0.356678
0.0404898
-0.0016814
-0.330648
-0.421152
0.00236178
-0.430433
-0.419988
0.0349326
-0.0581493
-0.25985
0.0197053
-0.261818
0.022337
0.0903998
0.0721745
-0.374971
0.0669357
0.0485753
-0.426506
0.0150207
-0.274174
0.0189866
-0.277613
-0.476832
0.111505
0.285361
0.454633
-0.0029482
0.000655099
-0.00141795
-0.306641
0.658587
0.0179471
-0.197998
0.0282778
-0.039466
0.0905802
0.498392
-0.335654
-0.048595
-0.0428608
0.0289957
0.0162329
-0.417278
-0.255427
-0.260345
-0.303644
-0.242823
0.00166744
-0.321106
0.00896474
-0.242861
-0.292164
0.521924
0.601396
-0.283745
0.129192
-0.260085
-0.0163836
-0.168488
0.417239
-0.101709
-0.284782
-0.15176
-0.478731
-0.020881
-0.176219
-0.00482641
-0.280002
-0.247285
-0.000414222
0.00113472
-0.288929
0.466384
0.688938
-0.275305
-0.274236
-0.289301
-0.0609947
-0.272971
-0.263629
-0.177911
-0.286078
0.765296
-0.307489
0.760978
-0.37568
0.341788
-0.275121
0.00317962
0.189159
-0.467151
0.246178
-0.256373
-0.282239
-0.310183
0.883974
-0.259637
0.221636
0.161303
0.659141
0.1354
-0.330176
-0.252744
-0.124884
0.00836455
0.100473
0.541196
0.0106843
-0.0179134
-0.263869
0.130739
-0.100876
-0.183406
0.0219837
-0.343501
-0.128768
-0.139689
-0.333476
0.00549299
0.113981
-0.00749439
0.0835415
0.119396
-0.299693
-0.33505
-0.0706657
0.0158153
-0.438001
-0.481684
0.189304
0.2072
0.0975434
0.681227
-0.0595367
-0.36623
-0.358815
-0.267386
-0.0404594
0.0977437
0.776241
-0.42107
0.393385
-0.0111272
-0.392892
0.165853
-0.0598297
0.400603
-0.143057
0.0167819
-0.301476
-0.0533925
0.215066
0.829665
0.346792
0.772496
-0.273819
-0.263994
-0.381083
0.181446
0.282342
0.0669492
0.395273
0.159215
0.51149
0.290088
-0.0902506
-0.163423
0.0393679
-0.325356
0.897604
0.424277
0.660901
0.52651
-0.2468
-0.276066
-0.262213
-0.265828
0.0522925
-0.370867
0.122915
0.610248
-0.301898
0.0109793
-0.265219
0.197799
-0.293823
-0.334674
-0.117626
-0.256039
-0.297666
-0.272958
-0.309262
-0.0843666
-0.381416
-0.108169
-0.344835
0.159819
0.673024
-0.198119
-0.289328
0.839514
-0.288547
0.302153
-0.21225
0.409106
0.0991728
-0.250579
-0.365975
0.455941
-0.246995
-0.296967
0.206149
-0.254164
-0.0166738
-0.267435
-0.10116
0.015823
0.585281
0.794506
-0.266174
0.238883
-0.295482
0.835652
-0.00848281
-0.28617
-0.0206196
0.779178
0.220202
-0.293862
-0.260152
0.470068
-0.190371
0.0524145
0.364532
0.267476
0.308742
-0.229068
-0.303774
0.702846
)
;

boundaryField
{
    FrontBack
    {
        type            empty;
    }
    Top
    {
        type            zeroGradient;
    }
    In
    {
        type            zeroGradient;
    }
    Bottom
    {
        type            zeroGradient;
    }
    Out
    {
        type            fixedValue;
        value           uniform 0;
    }
    circle
    {
        type            zeroGradient;
    }
}


// ************************************************************************* //
