/*--------------------------------*- C++ -*----------------------------------*\
| =========                 |                                                 |
| \\      /  F ield         | OpenFOAM: The Open Source CFD Toolbox           |
|  \\    /   O peration     | Version:  2412                                  |
|   \\  /    A nd           | Website:  www.openfoam.com                      |
|    \\/     M anipulation  |                                                 |
\*---------------------------------------------------------------------------*/
FoamFile
{
    version     2.0;
    format      ascii;
    arch        "LSB;label=32;scalar=64";
    class       surfaceScalarField;
    location    "24";
    object      phi;
}
// * * * * * * * * * * * * * * * * * * * * * * * * * * * * * * * * * * * * * //

dimensions      [0 3 -1 0 0 0 0];

oriented        oriented;

internalField   nonuniform List<scalar> 
1171
(
-0.945784
0.945784
0.7784
-1.08452
0.306123
-0.229105
-0.817881
1.04699
0.0542158
-0.0669546
-0.275138
0.342093
-0.7784
0.083045
0.695355
0.921133
-0.201458
-0.719674
0.830093
-1.04253
0.212436
-0.353424
-0.0371335
0.390557
0.000651258
0.599953
-0.600605
-0.59762
1.02818
-0.430562
-0.420378
1.0038
-0.173711
0.243574
0.0973147
-0.340888
0.980364
0.0234401
0.300792
-0.0572188
1.01075
-0.0303843
0.729296
-0.958401
-0.788183
0.615837
0.172346
0.266765
-0.864385
0.559649
-0.91497
0.355321
-1.08087
0.670838
0.410028
-0.642936
0.643587
0.0342497
-0.253795
0.219546
0.0281577
-0.647246
0.619088
0.465942
-0.503076
-0.839023
0.892703
-0.0536804
1.00282
0.00792535
0.921489
-1.07695
0.155459
1.02769
-0.0248664
-0.697394
-0.0907887
1.2613
-0.864345
-0.396956
0.188667
-0.0708827
-0.411529
0.482411
-0.274347
0.183932
0.0904154
-0.602875
-0.481648
0.980922
-0.0594326
-0.0251269
0.876282
-0.851156
0.499826
0.761474
0.529071
0.024592
0.44135
-0.788651
-0.107296
0.895946
0.603997
0.237223
-0.84122
0.0179053
0.636779
-0.654685
-0.510044
-0.570822
-0.387645
-0.689303
0.026737
0.245027
-0.271764
-0.952769
-0.036527
0.989296
0.370872
0.0196849
0.856513
0.0646196
-0.603604
-0.0393318
0.0375985
-0.826249
0.141341
0.942454
-1.08379
-0.408192
0.0289313
0.379261
-0.719505
-0.233264
-0.768726
0.910067
0.662709
0.365473
-0.576012
1.00416
-0.823417
-0.180739
-0.0724566
-0.0184341
0.0908907
-0.457609
-0.0454669
-0.3296
0.992308
-0.0106918
0.431414
-0.420723
-0.514466
1.11846
0.712086
-0.819382
0.38205
-0.0667483
-0.315302
0.762311
-0.762311
-0.945027
0.041048
-0.316186
-0.696226
0.671099
-0.0344016
-0.143661
0.178063
0.884502
-0.0082197
1.05439
-0.817162
0.222566
-0.319141
0.0965753
0.978845
-0.122332
-0.676243
-0.058579
0.734822
0.150464
-0.232391
0.0819269
0.805443
-1.0069
-0.443438
0.31073
0.132708
0.677395
-0.649238
0.87792
-0.398281
-0.479639
0.490275
-0.694428
0.0368497
0.657578
0.137625
0.674081
0.039045
-0.713126
0.13594
-0.0948922
-0.513695
0.105503
0.0378996
-0.908288
0.870388
-0.549931
-0.760834
0.0634396
0.497001
-0.0556512
0.27459
-0.832538
0.557948
0.4245
0.5755
0.599796
-0.562198
-0.371358
-0.0146543
0.386012
0.533339
0.228972
-0.68136
0.699265
0.0854726
0.888488
0.00742909
-0.683673
-0.766226
0.804126
0.615502
0.127669
0.334666
-0.462335
-0.155411
0.549351
0.0874284
0.788574
-0.858665
0.0700905
0.661567
0.342589
-0.430872
0.717542
-0.589873
0.409188
0.15046
-0.0579375
-0.634242
-0.246017
0.880259
-0.116577
-0.645734
-0.61341
0.364341
0.249068
0.664427
-0.656998
0.307691
1.04414
0.0102416
-0.766226
-0.137441
0.0649844
0.712086
0.790691
-0.790691
0.844848
-0.831444
-0.0134039
-0.454385
0.878885
-0.19469
-0.319005
0.76264
-0.669087
-0.0935536
-0.919771
0.285528
0.106977
-0.710581
0.819382
-0.974793
-0.186122
0.160106
0.0260151
0.109772
-0.998701
0.888929
0.541089
-0.0120186
-0.289523
0.595928
-0.306405
-0.65459
0.764362
-0.15899
0.734282
-0.754622
0.0203401
1.11445
-0.636165
-0.478283
0.732753
-0.0678356
-0.0154562
0.0135967
0.00185951
-0.800166
-0.798033
-0.019848
-0.696226
0.578121
-0.54919
0.145166
0.6202
-0.765366
0.77963
0.166154
0.491306
0.508694
-0.0988744
-0.664867
0.763741
0.847239
-0.0586648
-0.732753
0.804126
0.179818
-0.433613
-0.0115649
-0.00734037
0.0189052
0.680317
-0.43658
-0.243737
0.695355
-0.0355967
-0.0637516
0.566334
0.113983
-0.0104355
0.00230029
0.0081352
0.00270978
-0.018166
0.140249
-0.206997
-0.949681
0.0454421
-0.145555
-0.0458729
0.13814
0.788863
0.742962
-0.167462
0.442442
-0.297276
-0.163508
0.386074
0.644349
0.051006
0.228533
-1.05998
-0.974793
0.315221
0.671099
-0.161618
0.0179564
-0.834305
0.997379
-0.163074
0.48604
-0.10678
0.802553
0.305572
0.30392
-0.00312747
-0.680821
0.680821
0.227411
0.668535
-0.0135817
0.444996
0.46883
0.0312982
-0.0428631
0.550828
-0.009739
-0.65459
0.571633
0.191008
0.000873947
0.0127228
-0.644349
0.153599
0.84378
0.0224968
-0.711931
0.689434
0.760487
-0.822281
0.0617936
-0.77963
-0.0363754
0.0499568
-0.0135814
0.0850302
-0.1194
-0.105106
0.224506
-0.00831723
-0.00211825
0.748059
-0.725562
0.946752
0.100234
-0.376951
-0.584465
0.961416
-0.000682861
0.000682861
0.145452
0.442628
0.570124
-1.01275
-0.19146
-0.557375
0.748835
-0.0178108
0.195874
0.383923
-0.233459
1.10885
-0.666218
0.829234
0.950574
-0.380449
0.189232
0.764362
0.590651
0.253478
0.639224
-0.645734
0.319179
0.0105331
-0.00619583
-0.00433729
0.878684
0.123007
-1.00169
-0.560266
0.5354
0.545615
-0.560266
-0.590651
0.5354
-0.00396471
1.05972
-0.112963
-0.533339
0.450607
0.0827318
0.516178
0.679754
-1.19593
0.467324
0.641522
0.725647
0.479617
-1.20526
0.418635
0.531938
0.450607
-0.524242
-0.541603
-0.65198
-0.455014
-0.134422
-0.00530036
0.00530036
0.572845
0.577582
-1.0326
0.707647
-0.37298
-1.01946
0.383296
-0.697827
0.464563
-0.0255925
-0.909474
0.935066
0.453439
-0.0736676
0.952351
-1.14568
-1.00335
0.126159
0.877195
0.434578
-0.173754
-0.260824
0.770151
-0.829584
1.06402
-0.942337
-0.121679
-0.114978
-0.743687
-0.166683
0.821135
-0.654452
-1.09157
0.976594
-0.489207
0.625081
-0.135874
-0.794173
0.056852
0.737321
0.00404342
-0.00472628
0.42505
0.0816604
-0.976788
0.895128
-0.791243
0.692369
1.01011
0.183432
-1.19354
0.00675383
0.00135164
0.384661
-0.359429
0.0402879
0.912451
-0.938044
-0.693938
-0.888896
0.145208
-0.115516
-0.975309
0.0329718
0.468867
-0.026425
0.20684
0.227738
-0.577306
0.634158
0.479639
-0.983141
-0.90814
0.151575
0.0887057
0.534637
-0.623343
-0.0402424
-0.605233
0.579632
0.180856
0.0426686
0.909683
1.10275
0.968863
-0.935891
0.0465226
-0.0465226
-0.0829034
-0.23937
0.065616
0.33525
-0.0200288
0.268323
0.86944
-0.00499133
-0.00332591
0.658027
0.341973
0.796878
-0.602875
-0.766156
-0.500336
-0.48172
0.48172
-0.206748
-0.109439
0.691096
-0.936587
0.24549
-0.479375
-0.540977
0.3425
-1.0318
-0.946453
0.824773
-0.557145
0.702354
0.681249
0.172712
-0.853961
-0.63621
-0.175675
0.838732
-0.663057
0.0770122
-0.00350988
0.00315347
0.000356409
-0.1018
-0.13757
1.0336
0.730597
-0.392347
-0.33825
0.469773
0.746479
-0.519068
0.0117023
-0.286049
0.0630946
0.787986
-0.85108
-0.350554
-0.0919775
0.141541
-1.03743
0.0357348
-0.763874
0.0725121
0.745663
-0.818175
-0.853823
0.0899486
0.692634
-0.784612
0.237137
-0.356537
-0.520177
-0.116033
0.368842
0.732631
-0.0150892
0.0025085
-0.0025085
-0.00300008
0.0408799
-0.0303468
-0.016308
0.0113167
-0.546602
0.327127
0.807403
-0.810283
0.00288017
-0.681066
0.753578
0.775801
-0.0831671
-0.685057
-0.168766
-1.13135
0.0206433
0.0258793
-0.483507
-0.85174
-0.882376
0.48542
-0.117314
0.104754
0.01256
-0.337303
-0.146205
0.46679
0.712243
-0.0443081
-0.00156484
1.15346
0.527849
0.19848
-0.726329
-0.390991
0.0536887
-0.00798324
0.00447336
0.685811
-0.931828
0.00561028
-0.00561028
-0.739228
0.733153
0.00607424
-0.184151
-0.112225
-0.700778
0.163866
0.599875
-0.0541862
-0.876453
-0.250452
0.0692272
0.181225
0.735957
-0.733077
0.355238
0.261453
-0.616691
-0.165929
-0.699118
-0.119058
-0.211378
-0.086586
0.469036
-0.514503
0.198674
0.731608
-0.930282
0.490275
-0.113106
-0.00420758
0.205185
-0.291771
0.597489
-0.0960896
-0.5014
-0.284471
0.304682
-0.0202107
0.61281
0.0948362
0.0766837
-0.310745
0.168486
0.142259
-0.217462
0.0800213
-0.295198
0.0122774
-0.0794244
0.067147
0.864969
-0.198622
0.0144702
0.552798
0.278745
-0.671092
0.401409
-0.401409
-0.197654
-0.38517
-0.211532
-0.38517
-0.70812
-0.850667
0.18158
-0.133006
0.728798
0.0482992
0.128463
0.604169
0.109212
0.118755
0.00944588
-0.128201
-0.0637785
0.686713
-0.994415
0.40995
-0.054581
0.0800511
-0.0254701
-0.746224
-0.175352
-0.617114
0.815594
-0.526834
-0.0638511
-0.22792
-0.33533
-0.0808774
0.0808774
0.0468808
0.00307604
0.139399
0.184775
-0.741273
0.124159
-0.0607769
0.47162
0.52838
0.769052
0.0293615
-0.00254354
-0.026818
-0.296099
-0.580354
-0.584315
0.113264
-0.118323
0.00505926
-0.142266
-0.415094
-0.0879863
0.687862
-0.5801
-0.166125
-0.0822852
0.0321722
0.225807
-0.44348
-0.197302
-0.18792
-0.0190773
-0.47944
0.435948
0.0434918
-0.128428
0.293972
-0.864795
-0.54078
0.624083
-0.869748
0.703819
0.446348
-0.0288358
0.0531017
-0.0242659
0.0205013
-0.63648
-0.00483608
0.641316
-0.893823
0.646631
-0.729534
-0.169642
0.00764315
-0.00764315
-0.299042
0.41267
-0.0280089
0.0180524
0.0113091
0.600413
0.602802
-0.532712
0.010712
0.00471844
-0.00220995
0.00475506
-0.00475506
-0.495352
0.590189
0.0139432
-0.0139432
-0.777747
-0.00916134
0.0132048
-0.539692
0.663851
0.641026
-0.634952
0.0693161
-0.0693161
-0.0329786
-0.00988455
0.00795414
-1.04409
0.565806
-0.482792
-0.00472628
0.601865
0.01169
-0.613555
-0.710355
0.130255
-0.316365
-0.0141957
0.330561
-0.0278035
-0.0165046
-0.607795
-0.0286858
0.0258793
0.00566326
-5.29786e-05
-0.00344106
0.00344106
-0.235271
0.302418
-0.465719
0.135386
0.661492
-0.12216
0.000644969
-0.000644969
0.50847
-0.215742
0.00832602
0.0182361
2.87729e-05
0.539559
-0.755301
-0.644584
0.659055
-0.0701227
0.327376
0.768228
-0.00300008
-0.0871202
0.099843
-0.629199
0.554083
-0.343436
-0.10849
-0.028163
-0.0256775
-0.0188515
0.459091
-0.0850281
-0.416372
0.695599
0.000545305
0.00544417
-0.00544417
-0.141115
-0.0504966
-0.572693
0.620992
-0.133942
0.510899
-0.204012
0.933308
0.776662
0.00566326
-0.821083
0.71291
0.0699691
-0.0377509
-0.0322182
0.530627
0.0965497
-0.011724
0.0647347
-0.0530107
0.00828296
-0.00828296
-0.738631
0.0227934
-0.0445066
0.0627427
-0.0864134
0.0864134
0.00471844
-0.00235511
0.725608
0.118172
-0.317992
-0.0971021
-0.519573
-0.0123161
-0.0663417
0.0663417
-0.0597966
0.0811897
-0.0811897
0.025882
-0.025882
-0.355325
-0.0755464
0.241428
0.0693025
0.0491977
-0.735774
-0.0633476
0.161277
0.018541
-0.242303
0.0809166
-0.0809166
-0.466137
-0.0483652
0.23148
-0.0119343
0.00222219
-0.654356
0.658321
-0.0223526
-0.037444
0.065925
-0.0758095
-0.0118736
-0.156634
0.168508
-0.150893
-0.205644
-0.0811946
0.0811946
0.055199
-0.055199
-0.0295194
-0.0941279
0.123647
-0.0250466
-0.187896
-0.0110684
0.00885849
-0.173401
0.47582
-0.0256783
0.490449
0.00703978
0.00109542
-0.0503916
0.0503916
-0.73437
0.318205
-0.128972
-0.208767
-0.023624
-0.0158873
0.0181095
0.197554
0.0269527
-0.000347869
0.000376642
0.0834638
0.0297999
0.0552146
0.106062
-0.00622075
0.00465591
-0.000166103
0.00509591
0.00620939
0.00520629
-0.0114157
-0.000725729
0.00758508
0.028209
-0.028209
0.0488475
-0.0420169
0.0420169
-0.190943
0.00619134
0.0277612
-0.0749375
0.0175991
0.0768761
-0.0768761
0.241045
-0.235987
0.0850942
-0.0671544
-0.168833
-0.0163448
0.0163448
0.406298
0.25128
-0.518834
-0.0808875
-0.0374355
0.541684
0.0408784
-0.0601675
-0.443103
0.0995994
-0.153779
0.170253
-0.0164743
-0.0470762
0.0470762
0.867828
-0.592829
-0.00959773
0.008872
-0.00553598
-0.28479
-0.000273076
0.00521879
-0.0453912
-0.627558
0.567939
-0.677097
0.0148529
0.180642
0.0159501
0.0245096
-0.159314
-0.334944
0.260007
-0.0565095
0.02699
0.17048
0.134202
0.256007
0.264577
-0.248627
0.00615641
-0.11431
-0.222963
0.0683737
-0.0131591
0.160115
-0.135605
-0.068635
0.152099
-0.415644
0.120165
-0.102566
0.0579853
-0.474357
0.175472
0.176668
-0.245303
0.00723721
-0.177118
0.176845
0.00404051
0.148058
-0.0280737
0.0499738
0.458496
0.0118642
0.0185273
-0.0070658
0.0370652
-0.239437
-0.202236
0.590884
0.170135
0.0613455
0.0782921
-0.0631002
0.0332024
-0.0654206
-0.030288
0.1667
-0.151848
-0.000324226
-0.000739239
-0.105408
-0.0290599
0.00433168
0.251543
0.00324449
-0.0426071
-0.312424
-0.0103133
0.216956
0.139179
0.179025
0.0575487
0.097969
0.0626079
0.537805
-0.0115818
0.103044
0.0434471
0.0655092
-0.108956
-0.267553
-0.196728
0.0278955
-0.222814
0.284528
)
;

boundaryField
{
    FrontBack
    {
        type            empty;
    }
    Top
    {
        type            calculated;
        value           uniform 0;
    }
    In
    {
        type            calculated;
        value           uniform -1;
    }
    Bottom
    {
        type            calculated;
        value           uniform 0;
    }
    Out
    {
        type            calculated;
        value           nonuniform List<scalar> 10(1.19297 1.04042 1.19358 1.06016 1.15937 0.986952 1.15043 1.02035 0.599064 0.596702);
    }
    circle
    {
        type            calculated;
        value           uniform 0;
    }
}


// ************************************************************************* //
