/*--------------------------------*- C++ -*----------------------------------*\
| =========                 |                                                 |
| \\      /  F ield         | OpenFOAM: The Open Source CFD Toolbox           |
|  \\    /   O peration     | Version:  2412                                  |
|   \\  /    A nd           | Website:  www.openfoam.com                      |
|    \\/     M anipulation  |                                                 |
\*---------------------------------------------------------------------------*/
FoamFile
{
    version     2.0;
    format      ascii;
    arch        "LSB;label=32;scalar=64";
    class       volVectorField;
    location    "24";
    object      U;
}
// * * * * * * * * * * * * * * * * * * * * * * * * * * * * * * * * * * * * * //

dimensions      [0 1 -1 0 0 0 0];

internalField   nonuniform List<vector> 
808
(
(0.89566 -0.010243 0)
(1.01999 -0.0355101 0)
(1.22821 -0.0234949 0)
(1.06789 0.00936263 -2.59245e-21)
(1.46866 -0.286402 0)
(0.960297 -0.0296014 0)
(1.13717 -0.043109 -2.30901e-21)
(1.12382 -0.0345043 0)
(1.3398 -0.225707 2.13363e-20)
(1.22661 -0.0942409 -3.47866e-21)
(1.26693 -0.0556793 4.80737e-21)
(1.37029 -0.252824 0)
(0.988829 -0.0361744 0)
(0.745098 -0.0202836 0)
(0.97951 0.0524414 1.93849e-20)
(1.08219 -0.0250699 0)
(0.872284 0.052419 -6.61251e-21)
(0.983888 -0.0258972 -9.43126e-23)
(1.27689 0.0169597 0)
(1.12167 -0.00228366 0)
(1.26941 -0.0461181 -6.70893e-21)
(0.927795 0.125222 1.12869e-19)
(1.07484 0.0115477 -1.33445e-20)
(1.17788 -0.0480023 0)
(0.955098 0.189192 0)
(1.33725 0.0457955 -3.24408e-20)
(1.27394 -0.177698 4.5371e-21)
(0.968145 -0.0370067 -4.31977e-21)
(1.0834 -0.0265359 0)
(1.05038 0.0388438 -2.33285e-22)
(0.989307 -0.0316332 5.01149e-24)
(1.12603 -0.0210784 0)
(1.04881 0.0485509 0)
(1.08329 -0.0386649 3.60213e-21)
(1.29521 -0.0868981 6.17945e-21)
(0.742688 -0.109281 1.13305e-19)
(0.874654 -0.0263735 -6.03945e-21)
(1.0348 0.0471261 9.01361e-22)
(1.18859 0.0496532 -2.31617e-21)
(1.09037 0.0413634 0)
(1.25614 -0.0820813 -1.12881e-20)
(1.27056 -0.138498 0)
(1.0075 -0.0039875 -7.56741e-21)
(1.14102 -0.0414753 6.13902e-21)
(1.23732 -0.0953325 0)
(1.01172 0.0177077 -1.98932e-20)
(1.00469 0.0393412 1.77052e-21)
(1.24727 -0.249062 -1.31692e-21)
(1.17588 0.0551817 -4.20963e-21)
(1.39261 -0.181614 -3.08224e-20)
(1.13437 -0.0353483 4.36382e-21)
(1.14808 -0.0732505 0)
(1.11982 -0.00192708 6.76166e-21)
(1.16691 -0.0365651 0)
(1.32737 0.231693 4.14288e-21)
(1.0744 0.0484725 -1.62967e-21)
(1.23873 -0.0363528 0)
(1.22889 -0.113106 1.82166e-21)
(1.22983 -0.100572 3.73411e-21)
(1.15178 0.0336448 -4.41275e-23)
(-0.177389 0.0492865 0)
(1.21225 -0.212621 -3.72809e-21)
(1.1962 -0.0886106 0)
(1.40784 -0.107924 -2.31071e-20)
(1.15728 -0.0575082 -6.59475e-21)
(1.04078 -0.0286014 -7.63641e-21)
(1.31415 -0.117631 2.27769e-20)
(0.645531 0.0170698 0)
(1.17196 -0.0577498 0)
(1.43229 -0.348552 0)
(0.895311 0.0282673 -1.76964e-22)
(1.23649 -0.138974 -3.81482e-20)
(1.00709 0.0420031 0)
(1.058 -0.0497036 -3.3477e-21)
(1.11832 -0.331899 -5.98057e-20)
(1.14015 -0.040876 -8.44401e-21)
(1.15416 0.0180386 2.6825e-22)
(1.32441 0.500785 2.4962e-20)
(1.10787 -0.0397051 0)
(1.015 0.286418 -1.86945e-19)
(1.36082 0.0162321 1.74404e-20)
(0.750396 0.0178556 0)
(0.846772 0.0340916 -9.37335e-21)
(0.968554 -0.108118 4.44833e-21)
(1.13689 -0.041815 6.57345e-21)
(1.19865 0.00305569 1.2541e-21)
(1.27833 -0.232251 0)
(1.35092 0.289805 0)
(1.09306 -0.00277366 -1.37741e-20)
(1.42614 0.0881328 3.58451e-20)
(1.0813 -0.0229595 1.37993e-20)
(1.31197 -0.127961 -1.19028e-21)
(0.964743 0.0260681 1.74969e-20)
(1.004 -0.0242435 0)
(1.1141 0.0150864 1.51382e-21)
(1.23214 -0.0766783 -5.42028e-20)
(0.750618 0.0213789 -1.79864e-21)
(1.3583 -0.0612455 0)
(1.31541 -0.101828 0)
(1.40155 -0.088621 -3.72847e-20)
(1.11323 -0.0390721 -2.89252e-21)
(1.13109 0.00355369 -6.62051e-23)
(0.951972 0.0223033 1.1532e-20)
(1.19228 -0.0120329 -3.15376e-22)
(1.32331 -0.0037242 -1.7882e-20)
(1.00206 0.00551612 1.3169e-20)
(1.47061 -0.0829713 0)
(0.861971 0.129416 0)
(1.10095 0.03329 3.59277e-21)
(1.19749 -0.219428 -8.82485e-21)
(1.28435 -0.0177798 1.03729e-20)
(1.04819 0.0478502 -1.24487e-19)
(1.16218 0.0402181 -1.43388e-21)
(1.17652 0.159726 4.86788e-21)
(0.789985 0.0216019 0)
(0.917578 -0.045192 7.76439e-20)
(1.15048 0.0193892 -4.93667e-21)
(1.42406 -0.257999 -1.59579e-20)
(1.13602 -0.0547141 -6.0643e-21)
(0.930299 0.0147078 2.54266e-21)
(-0.312983 -0.0132781 0)
(0.858218 -0.0181541 2.10592e-21)
(0.803702 0.0238274 0)
(1.06331 0.000634339 -9.74537e-23)
(1.01285 0.0289272 0)
(1.31558 0.322946 6.53231e-21)
(1.034 -0.0539983 -3.35007e-20)
(1.3236 0.186938 1.27321e-21)
(1.14706 -0.069504 0)
(1.09273 -0.023157 0)
(0.578553 0.0155579 0)
(1.13746 -0.03991 -3.07383e-21)
(1.24763 -0.0582192 6.26667e-21)
(1.06861 0.112917 -3.40876e-20)
(0.844633 -0.0259602 0)
(1.10749 0.0218804 -1.11914e-21)
(1.00182 -0.0529399 4.28955e-21)
(1.14219 -0.0103002 -2.26322e-21)
(0.994745 0.035042 3.11693e-21)
(1.13382 0.00267737 5.5502e-23)
(0.00777005 0.0902746 0)
(1.09544 -0.0267386 -1.53502e-20)
(1.09661 -0.0645112 1.46385e-21)
(0.717221 0.0250731 -2.74188e-21)
(1.2653 0.173655 3.34175e-21)
(0.990708 0.105718 5.89143e-21)
(1.04665 0.0170394 1.76284e-20)
(0.990346 0.0259595 0)
(1.14198 -0.173436 -1.2143e-20)
(1.02426 0.0943686 0)
(0.94179 0.0309351 5.67086e-21)
(0.96885 0.28508 1.49517e-19)
(0.97318 0.0362679 0)
(0.818455 0.104221 0)
(-0.091763 0.0934919 -6.58759e-20)
(1.3492 0.13695 -1.22328e-20)
(0.68836 -0.0230668 0)
(1.47932 0.0180909 0)
(1.10793 -0.100256 0)
(1.36512 0.0881079 1.43905e-20)
(-0.042598 -0.0629678 0)
(-0.0503561 0.110415 3.14307e-20)
(0.983971 -0.0334781 7.35186e-20)
(1.00944 0.0396226 8.92399e-22)
(0.858956 -0.00035293 0)
(1.03568 -0.0490458 8.93759e-21)
(0.894279 0.0219378 0)
(0.712273 -0.00986773 -7.94629e-20)
(1.02918 0.0489249 7.29177e-21)
(1.14461 -0.0512425 2.19311e-21)
(1.09675 0.00815946 6.54909e-21)
(1.01489 0.070891 -1.21047e-20)
(0.663936 0.0778687 -5.86539e-21)
(1.13345 -0.347548 7.04105e-22)
(0.918727 -0.0239071 0)
(1.06913 -0.000557138 -1.44825e-20)
(0.873247 0.00991511 -1.086e-20)
(1.36639 -0.169514 1.80719e-21)
(0.688596 0.0232142 0)
(1.04323 -0.13945 0)
(1.12059 -0.0612015 2.52198e-21)
(1.39478 0.219024 9.70103e-21)
(1.11862 0.0146404 4.66847e-21)
(1.03641 0.0163623 2.02873e-20)
(0.768867 0.062077 -8.48441e-20)
(0.813289 0.00398981 1.96886e-20)
(1.13554 -0.0176625 4.11574e-21)
(1.3709 -0.0878103 -4.04656e-21)
(1.11645 -0.0554247 -4.67648e-21)
(1.31007 -0.0608446 3.46741e-21)
(-0.0956675 0.115139 4.79955e-20)
(1.27303 -0.0526458 0)
(0.61627 -0.0201391 0)
(1.06051 -0.0297168 -7.21061e-21)
(1.10273 0.0093855 6.15455e-21)
(0.0714314 0.110332 0)
(0.878471 -0.0241696 3.74865e-22)
(1.11399 -0.0582703 -2.60298e-21)
(0.957213 0.0218915 5.70206e-22)
(1.07927 0.0381713 -7.46678e-21)
(1.00608 0.0203427 2.72546e-21)
(1.04006 -0.0518682 2.29615e-21)
(1.05699 0.0354735 0)
(0.343568 -0.0314534 0)
(1.04891 -0.0631858 0)
(1.1466 0.112338 -2.73414e-20)
(-0.0494585 -0.0504982 4.3853e-20)
(1.07494 0.0274221 -7.74699e-24)
(1.19533 0.0571937 0)
(0.755721 0.0220551 -5.67362e-21)
(1.16439 -0.00217626 8.65476e-22)
(-0.00160068 -0.038599 -1.44707e-19)
(0.726914 0.0227948 -3.74445e-20)
(0.635928 -0.0206551 0)
(0.952957 -0.000546131 0)
(0.934187 0.0313071 6.91077e-21)
(1.01162 -0.10504 5.52504e-21)
(1.28146 0.400097 -2.03071e-21)
(1.1224 -0.0584038 9.60931e-23)
(1.15681 -0.10489 -4.40794e-21)
(0.990075 0.0232326 0)
(1.36479 0.426653 -3.49844e-20)
(0.659119 -0.0176161 0)
(0.796759 -0.0231285 -3.57119e-21)
(1.05859 -0.0298952 2.98591e-22)
(0.591734 0.016213 0)
(1.10029 -0.00625362 0)
(0.00794949 0.0630525 -3.42281e-20)
(1.14678 -0.140149 -5.09387e-21)
(0.72006 -0.0167107 2.70441e-21)
(0.990249 -0.00306269 0)
(0.55608 -0.0169589 0)
(0.753838 -0.0197298 -3.502e-21)
(0.537875 -0.020457 -8.11661e-22)
(1.34459 0.0190548 3.18689e-22)
(1.30409 0.10007 -1.09026e-21)
(0.692271 0.018859 -1.31561e-21)
(1.14125 -0.0405938 1.77761e-22)
(1.18456 -0.0982396 -9.05517e-23)
(0.540929 0.0164607 3.53032e-21)
(1.24308 -0.0748575 7.28005e-23)
(1.19334 -0.0797865 0)
(0.906576 -0.0778992 0)
(0.488907 0.0186243 0)
(1.04094 -0.0268382 0)
(1.19177 0.00455843 -1.44788e-21)
(1.06063 -0.0888537 0)
(1.16133 -0.048913 0)
(0.985416 -0.0701453 0)
(1.04591 -0.00151627 0)
(-0.0242708 -0.0374334 4.375e-20)
(1.2256 -0.0227695 7.88594e-22)
(1.01355 -0.0421514 0)
(1.33662 -0.0290561 1.29887e-20)
(1.1581 0.0078868 1.0871e-21)
(1.12026 0.0525698 1.32899e-22)
(1.13287 -0.0201324 4.90911e-21)
(1.15345 -0.0329588 0)
(0.576678 -0.0166236 7.22072e-21)
(1.05256 0.04409 1.1773e-20)
(1.22916 -0.0864619 0)
(1.24889 -0.0155375 -8.22309e-22)
(1.16971 0.0436952 2.19207e-21)
(0.723668 0.212498 4.55758e-21)
(1.15335 0.0296242 3.29625e-21)
(1.20091 0.0469451 -5.70011e-21)
(1.07067 0.120115 0)
(1.1358 0.0698866 -1.90602e-20)
(1.15364 0.100231 -2.5144e-21)
(0.625436 -0.187386 6.36538e-21)
(0.900025 0.0493736 0)
(-0.0130564 -0.0214444 0)
(0.974317 0.114297 -1.7928e-20)
(1.16446 -0.0216965 0)
(1.26721 -0.0842775 1.96553e-20)
(1.19197 0.0640986 4.93093e-22)
(1.19507 0.0196685 5.47998e-21)
(1.13444 0.0673042 -1.95878e-21)
(1.32929 -0.037906 7.72277e-20)
(1.01505 -0.320971 6.03765e-20)
(1.10364 -0.0360889 -3.88155e-22)
(0.986709 -0.00691844 0)
(0.932912 0.14442 0)
(0.906289 0.00247247 -2.99027e-20)
(1.28464 -0.175839 -5.28635e-20)
(1.15702 0.034038 0)
(0.530538 -0.0600423 1.7129e-20)
(0.401772 0.249256 0)
(0.669058 0.0214264 7.69387e-21)
(0.730959 -0.0933617 -2.02063e-20)
(0.82137 0.0257227 -4.32932e-21)
(1.13326 -0.0289894 0)
(1.30508 0.128958 -5.752e-22)
(1.19739 0.124498 1.24678e-21)
(0.654617 -0.127263 -8.53922e-21)
(1.15025 0.0290166 -4.33306e-21)
(0.759273 -0.111716 0)
(1.09285 0.0706567 0)
(1.03928 -0.059709 1.13355e-20)
(0.758108 -0.0758627 -7.77216e-21)
(1.28756 0.067297 3.97254e-21)
(1.12692 -0.00960013 -4.17752e-21)
(1.05679 0.100579 9.48132e-23)
(1.12705 -0.00823109 0)
(0.414902 -0.137654 1.31761e-20)
(1.34648 0.0821026 -2.17399e-20)
(0.844538 -0.125742 -7.41223e-21)
(0.143123 0.0558388 -4.81909e-21)
(1.40848 -0.145235 2.1e-20)
(0.953711 -0.0254713 7.86334e-20)
(1.19014 -0.00158469 -1.15867e-20)
(1.09496 -0.0253303 -2.47292e-22)
(-0.070224 -0.0384966 -7.49857e-21)
(1.00062 -0.00712879 0)
(1.03324 -0.0854465 -1.65867e-20)
(0.851084 -0.034582 6.67452e-21)
(1.11164 -0.0527157 3.97646e-21)
(0.766159 -0.156611 6.81203e-22)
(0.504261 -0.0217028 8.15055e-23)
(1.40825 -0.382309 -1.53709e-20)
(1.13632 0.0260811 0)
(1.02058 0.0196564 -9.94862e-22)
(1.14246 0.0302388 -2.26056e-21)
(1.21406 0.0644613 0)
(0.681459 0.126593 -8.96974e-21)
(1.1294 0.0294389 3.13363e-21)
(0.682358 -0.173932 1.44963e-20)
(1.14388 -0.0392748 2.64052e-21)
(0.823813 0.0584818 5.64502e-21)
(-0.0385671 0.0202152 0)
(0.581648 0.0888083 3.74202e-20)
(1.17324 0.0276549 0)
(1.05552 0.209479 2.1934e-20)
(0.978819 0.256337 0)
(1.12918 -0.0111358 1.92956e-21)
(1.01616 0.0269696 0)
(0.998068 0.058364 0)
(1.38132 -0.123709 1.7086e-20)
(0.794606 -0.0825936 0)
(1.20561 -0.103315 5.16916e-21)
(1.1272 -0.0293359 2.15933e-22)
(1.06271 0.0293629 2.71652e-21)
(1.27723 -0.0987689 -1.28932e-20)
(1.24773 0.118974 -4.91494e-21)
(1.29047 -0.138499 6.95543e-21)
(1.15212 0.0119329 0)
(1.16485 -0.0315698 0)
(1.09805 0.0274791 2.37792e-21)
(1.22316 -0.0364897 0)
(1.41386 0.219182 -2.50417e-20)
(0.820273 -0.122857 -3.00953e-21)
(1.02713 0.0162076 2.15999e-20)
(1.28126 -0.0112316 -2.62045e-22)
(-0.0123664 0.0181429 0)
(-0.0308478 -0.0512615 0)
(-0.0074681 0.121591 -3.53616e-20)
(-0.0738561 -0.0430891 0)
(0.693178 -0.0768459 -3.62873e-21)
(1.17143 0.038039 -1.87223e-21)
(1.16495 -0.0153673 -4.50777e-21)
(1.19695 -0.0633879 -4.61898e-21)
(1.19216 -0.0494404 0)
(0.677818 -0.0197659 -1.93318e-21)
(1.12311 0.0396409 0)
(1.11859 0.0155231 1.13256e-21)
(0.504605 -0.108485 0)
(0.798762 -0.0164052 -4.74077e-24)
(1.10008 0.0618625 0)
(1.16305 0.040486 0)
(0.539423 0.00527168 2.74591e-20)
(0.552196 0.129213 -1.40138e-21)
(0.79805 0.0360282 4.39638e-21)
(1.01119 0.0179209 -9.94656e-21)
(0.173152 -0.0471185 0)
(1.26227 -0.140763 -7.28186e-21)
(1.26203 0.080874 -6.52266e-21)
(1.19968 -0.159797 1.26167e-22)
(0.640037 0.117102 5.19067e-21)
(-0.0552294 -0.00200787 -9.10816e-20)
(1.13862 0.0923298 0)
(-0.0331991 0.0401175 0)
(1.19334 0.111286 2.09967e-22)
(0.33322 0.264885 -5.58544e-21)
(1.16093 0.0553581 -7.16111e-21)
(1.11255 -0.0380911 0)
(1.19617 -0.0371824 3.52838e-21)
(1.18998 -0.206108 1.15964e-20)
(0.546452 -0.0405662 -9.14741e-21)
(1.13882 -0.0330889 -9.29525e-22)
(1.16501 -0.0357052 -2.46912e-22)
(0.0318455 -0.247496 1.66626e-20)
(1.23723 -0.0124603 -1.34045e-20)
(1.15082 0.0340647 0)
(1.13465 0.0860736 0)
(1.16823 -0.0486655 1.96058e-21)
(1.21254 0.0776606 5.89477e-21)
(0.620195 -0.231989 -3.4036e-20)
(1.18947 -0.121417 -1.80939e-20)
(1.13418 0.0603758 1.94836e-21)
(0.517812 -0.000465596 1.16052e-20)
(0.126723 -0.00167172 -5.35103e-20)
(0.130626 -0.373401 2.61947e-20)
(1.17543 0.188164 -6.59784e-21)
(1.22896 -0.491139 4.34983e-21)
(1.39886 0.025519 -1.20656e-20)
(1.18483 -0.0456993 -2.32341e-21)
(0.933833 -0.229749 9.6333e-20)
(-0.371105 -0.225154 0)
(1.21893 -0.0590838 -9.34568e-23)
(0.0451485 -0.0087872 -1.99948e-20)
(1.17466 0.121129 -1.8169e-22)
(1.15582 -0.0847413 6.29715e-21)
(1.09001 0.0353547 0)
(0.450685 0.0899985 0)
(1.1723 -0.0570964 0)
(1.35463 0.210148 -1.0492e-20)
(1.26604 -0.0362866 -2.07852e-20)
(1.14293 -0.0397709 -2.15527e-22)
(0.453883 0.016961 0)
(0.60452 0.0111307 0)
(0.60315 -0.00333479 5.634e-22)
(0.421335 -0.0130399 0)
(1.19502 0.0827907 0)
(1.02034 -0.0146628 2.63733e-20)
(0.064425 0.12938 0)
(0.918339 0.0421241 0)
(1.14849 -0.0184809 0)
(1.17545 0.18377 -7.53693e-21)
(1.28591 0.0258915 1.03269e-20)
(0.965306 -0.0300626 6.47597e-21)
(1.28807 -0.398169 -1.04095e-19)
(0.402534 -0.086737 -6.12115e-21)
(1.17811 0.030772 6.88535e-21)
(1.2131 0.0345 0)
(-0.2584 -0.259088 0)
(-0.232691 0.138836 0)
(1.15495 -0.0350952 -2.88391e-21)
(1.31442 -0.289195 -1.92133e-20)
(1.38158 0.0886529 0)
(1.08093 0.0342799 -7.61371e-21)
(0.532961 -0.127553 0)
(1.49664 -0.167709 6.50937e-20)
(0.414055 0.523794 1.15348e-19)
(0.285325 -0.0356885 0)
(1.09575 -0.275222 1.11734e-19)
(0.0378757 -0.148757 0)
(-0.24559 -0.265307 -7.15032e-21)
(1.39909 0.0742235 0)
(-0.171286 0.0591523 2.55698e-21)
(0.983635 -0.0503041 0)
(1.22265 -0.0891578 -7.46099e-21)
(-0.145456 0.0547999 -7.29679e-21)
(1.12205 -0.0310345 8.60138e-22)
(1.20217 -0.0146722 -2.40078e-21)
(0.570076 -0.507743 -9.37765e-20)
(1.11231 0.0225286 -1.67213e-21)
(1.19049 -0.130064 5.42987e-21)
(1.18384 0.25156 -2.13768e-20)
(1.14308 -0.136225 4.66347e-21)
(1.15655 -0.0219039 -3.7484e-22)
(-0.00767483 -0.0914956 -7.12648e-20)
(0.0719337 0.128906 -7.09911e-21)
(1.22598 0.115083 3.43176e-21)
(1.05897 -0.0510035 0)
(0.452835 0.164755 -7.93884e-21)
(1.39547 -0.439182 7.69217e-20)
(0.926023 -0.0642033 -5.64007e-20)
(1.44559 0.158317 7.64359e-20)
(1.09196 -0.039525 3.0319e-21)
(1.20998 0.00419154 1.07339e-20)
(1.06116 -0.00796599 0)
(1.18552 -0.0337483 0)
(1.21772 -0.057668 -1.67213e-22)
(1.08798 -0.0207984 -4.52309e-21)
(1.0793 -0.105446 -4.48095e-21)
(1.09277 0.0575249 -5.28582e-21)
(1.41024 -0.0636332 -3.68241e-20)
(0.425834 0.0356924 0)
(1.17957 -0.0111196 1.02368e-20)
(1.35035 0.0267021 0)
(1.1104 0.0667681 -1.60412e-21)
(1.14526 0.0222285 0)
(1.04207 -0.00978635 1.40289e-20)
(1.2377 0.033245 1.48366e-20)
(1.04144 0.085205 0)
(0.0569195 -0.0279852 1.52582e-19)
(0.882151 -0.208251 -7.55557e-20)
(1.18719 -0.0625988 -2.12255e-20)
(-0.120247 0.0418103 3.86106e-20)
(1.20452 0.0298416 2.90842e-22)
(0.673505 0.126959 1.23284e-21)
(-0.0941086 0.0697244 -4.02448e-20)
(-0.0250363 0.0477365 -2.56644e-20)
(1.01874 -0.0296332 0)
(-0.0301567 -0.0353142 0)
(1.20301 -0.0427372 0)
(0.111625 -0.0975083 0)
(1.11453 -0.0273201 0)
(0.144118 0.0325523 0)
(1.1325 0.0478238 0)
(1.19693 0.0337869 0)
(1.38209 0.127962 5.91322e-22)
(0.574105 -0.284035 -2.04066e-20)
(-0.112407 0.167452 0)
(1.12487 -0.0889388 5.86856e-20)
(1.24375 -0.00493864 2.82086e-21)
(1.22411 -0.0517865 0)
(-0.0358225 -0.0408032 0)
(1.16282 0.00716433 2.95769e-21)
(1.16781 -0.0145826 -1.66386e-21)
(1.17173 0.393087 0)
(0.250724 -0.0467258 5.82136e-20)
(1.12231 0.0577105 1.21152e-21)
(0.236283 -0.0508138 -5.15919e-20)
(-0.0611756 0.04583 -3.02338e-20)
(-0.0374415 0.0495868 7.86855e-20)
(0.346297 -0.204503 3.72721e-20)
(0.995536 0.059768 -1.15999e-21)
(1.14834 0.0704257 5.70669e-22)
(1.02376 -0.00782719 0)
(1.06952 -0.0698751 -2.30492e-20)
(1.27179 0.0296908 -1.10995e-20)
(-0.010006 -0.00545645 9.35257e-20)
(0.977924 -0.0713799 -6.10974e-20)
(0.677304 0.206894 1.25003e-20)
(1.12706 0.0388898 -2.32909e-21)
(0.0786471 -0.0291864 3.28708e-20)
(0.249626 -0.0363886 -4.67482e-20)
(0.41055 -0.0369235 -5.27868e-20)
(1.26856 0.179766 -6.6698e-21)
(-0.0529229 -0.0350711 0)
(1.02481 0.224115 2.00246e-21)
(1.05905 -0.0232609 2.54133e-20)
(1.10885 -0.0208655 -2.45016e-20)
(1.23787 -0.0226633 0)
(1.50856 -0.225822 6.73603e-20)
(1.13897 0.0508064 -1.99597e-21)
(-0.0141466 -0.0242035 -3.16355e-20)
(0.283778 0.101389 0)
(0.894165 0.0311505 -9.14299e-22)
(1.14184 0.0190694 6.42797e-23)
(0.863299 -0.223361 1.86383e-20)
(1.16323 0.00679111 -7.59969e-22)
(1.1192 0.0501887 0)
(1.13766 -0.167814 -1.43289e-20)
(-0.107769 0.00277871 -6.16615e-20)
(1.30496 -0.0434356 1.6205e-20)
(1.10311 0.1754 -8.76712e-21)
(1.08585 0.0551518 6.0453e-21)
(-0.0409917 -0.0516317 1.47707e-20)
(-0.0234977 0.0407169 -6.05222e-20)
(0.566375 0.050352 0)
(0.72684 0.0182086 0)
(1.15471 0.100697 -1.6764e-20)
(1.05179 0.0693756 1.27681e-20)
(1.10265 0.0164668 0)
(0.425601 0.0492785 3.60886e-20)
(0.715683 0.0947642 -1.06819e-20)
(1.10031 0.111185 0)
(1.08212 0.0398368 0)
(1.32788 0.0361801 0)
(1.25235 0.0302414 0)
(1.14098 -0.0169439 3.67506e-21)
(-0.0428185 0.0441501 3.3021e-20)
(1.2653 0.0687324 2.75832e-21)
(1.39467 -0.184793 -7.56707e-20)
(1.21878 -0.0236129 -5.92208e-21)
(0.0697505 0.0921174 0)
(1.14208 0.0497985 0)
(0.611021 -0.0139821 -1.8545e-22)
(0.52741 0.00999123 -5.6352e-20)
(0.0667625 0.03739 4.6004e-20)
(0.925538 0.0219901 9.59476e-22)
(0.741149 -0.271107 0)
(0.678102 -0.0888321 0)
(1.20632 -0.03814 0)
(0.542177 0.516984 2.07004e-20)
(-0.0166007 0.0351433 -2.8555e-20)
(1.05567 -0.00578075 -5.06621e-21)
(-0.0210112 -0.0249245 6.01039e-20)
(1.11087 -0.0537391 2.42334e-21)
(1.17765 0.318281 4.07715e-20)
(1.11071 -0.089487 9.29043e-21)
(0.366793 -0.0336463 9.29405e-20)
(1.06314 0.146747 3.77345e-21)
(1.10643 0.00483873 0)
(0.557847 0.271773 0)
(0.878837 0.109723 4.34078e-21)
(-0.206886 0.126961 0)
(0.609504 0.0287559 2.12238e-21)
(0.600455 -0.414347 -2.84154e-21)
(0.234192 0.0496768 -1.08936e-19)
(1.12338 -0.224925 3.55247e-20)
(1.04117 0.369755 1.03088e-20)
(0.979827 0.021424 0)
(1.26782 -0.0706681 -3.98748e-23)
(0.630302 0.0149489 0)
(0.98267 -0.0190033 -6.96521e-22)
(0.440598 -0.015798 0)
(0.712655 0.136958 0)
(1.00038 -0.0222115 -3.5676e-21)
(1.44006 0.177125 -1.40009e-20)
(1.08945 -0.0476581 3.64208e-21)
(0.518983 -0.487661 0)
(1.13216 -0.155069 3.03543e-21)
(0.806484 0.385467 7.14039e-20)
(-0.0429084 0.0199942 1.10697e-21)
(1.22017 -0.0294107 1.06423e-20)
(1.21949 0.0285672 -1.1341e-20)
(1.13847 -0.0882473 7.15361e-22)
(0.792226 0.0124485 -3.82353e-21)
(0.0574714 0.0192878 3.53904e-20)
(-0.0182945 0.0125714 -5.24765e-20)
(-0.200835 0.126593 0)
(-0.165966 0.233136 0)
(1.17923 -0.610874 3.04605e-20)
(1.14803 -0.026044 3.65764e-22)
(0.883945 -0.462009 -4.01936e-20)
(1.07927 0.220489 -5.84921e-21)
(1.36815 0.203824 3.25258e-20)
(0.604703 0.422252 0)
(0.247869 0.420941 -1.15308e-19)
(0.598206 0.490163 0)
(0.061002 0.111276 0)
(1.1167 -0.474325 0)
(-0.0468217 0.0714821 -2.35554e-22)
(1.19975 -0.0273314 0)
(0.888128 0.0299012 -3.05956e-20)
(0.598472 0.699707 2.05937e-20)
(1.35089 0.144712 1.52289e-20)
(-0.0398472 -0.0601231 -1.04506e-19)
(0.763425 0.122754 -3.76533e-20)
(0.448704 0.144542 -1.3149e-20)
(1.20865 0.0908546 0)
(1.36396 0.360736 3.30651e-20)
(1.22672 0.572095 6.10521e-21)
(0.149595 -0.0130053 -2.0788e-20)
(0.997807 0.142893 3.02673e-20)
(0.934235 -0.0281018 5.61194e-22)
(0.902197 0.0234825 -1.95949e-22)
(0.00087012 -0.0267068 0)
(0.641989 -0.643759 -3.15934e-20)
(0.614064 0.209846 0)
(0.0433009 -0.0511418 0)
(-0.0481187 0.063314 0)
(-0.0231285 -0.0482078 -3.94503e-20)
(1.24072 -0.00874528 -1.22334e-20)
(-0.0288859 0.070238 0)
(-0.033605 0.0655235 0)
(1.45397 0.121525 -7.36264e-20)
(-0.0365283 -0.0632239 4.73906e-20)
(0.11566 0.239973 -1.01488e-19)
(0.376963 0.0192146 0)
(0.168107 -0.270799 8.28737e-20)
(1.08374 -0.236984 0)
(0.992352 -0.280402 0)
(-0.00897937 -0.0531305 9.83694e-20)
(1.15088 0.0350631 -7.7626e-23)
(1.12804 0.348334 2.8939e-20)
(0.255334 0.028939 4.46297e-20)
(0.400425 -0.511518 -4.03654e-20)
(1.29739 0.0821679 0)
(1.21513 0.202392 2.09994e-20)
(1.21763 0.21589 -2.57961e-20)
(0.102891 0.0960669 -2.36129e-20)
(-0.062183 0.0562313 0)
(1.0686 -0.0586409 -1.9695e-20)
(1.09897 -0.220404 -1.74698e-20)
(0.579963 -0.395182 0)
(1.09559 -0.147602 -2.74018e-20)
(-0.0436017 0.212956 0)
(0.590543 0.0551271 0)
(1.41558 -0.0248845 2.82841e-20)
(0.97368 0.0284442 3.01998e-22)
(1.0823 0.751918 -1.68648e-20)
(0.223227 -0.372726 1.36309e-19)
(1.08593 0.0380267 -5.7396e-22)
(1.21082 0.0743118 -8.19819e-23)
(-0.0489807 0.0902295 2.8648e-20)
(0.790338 0.73822 2.88413e-20)
(1.34042 -0.366151 -1.33365e-20)
(-0.214393 -0.0353935 4.98874e-20)
(1.1578 0.0407309 0)
(0.28298 0.0341743 -8.92842e-21)
(0.892542 -0.630544 2.56301e-21)
(0.90179 0.64469 -1.87897e-20)
(0.549124 -0.0319869 -6.09551e-20)
(1.14397 -0.00887228 -2.54487e-21)
(1.07485 -0.0852733 7.74965e-21)
(1.17344 0.0603408 -9.37622e-22)
(1.10763 0.121913 4.3684e-21)
(1.13079 -0.129786 0)
(0.90137 0.114294 1.35033e-20)
(0.886007 0.460422 0)
(1.35489 0.130799 6.51815e-21)
(1.17151 0.113989 1.01143e-22)
(0.748266 0.264702 0)
(0.514153 0.11048 1.03907e-19)
(0.89734 0.719219 -7.44509e-22)
(1.08038 0.294289 -2.22248e-20)
(1.04301 -0.0113669 1.31288e-20)
(0.417653 0.501731 0)
(1.28817 -0.469062 0)
(0.758612 -0.0666681 6.4165e-21)
(1.2652 0.507814 0)
(-0.0278726 0.0570611 -3.97629e-20)
(1.27653 -0.412965 -2.77508e-21)
(1.1697 0.516282 0)
(0.453316 0.227851 1.70538e-19)
(1.12167 0.318902 -1.15451e-19)
(0.809019 -0.631271 -2.76261e-20)
(1.17959 0.0565964 -2.14914e-21)
(0.910532 0.153472 7.73739e-20)
(1.09056 0.17118 5.39056e-20)
(1.0742 0.709521 7.80272e-22)
(0.898425 -0.431071 6.80007e-20)
(1.44155 0.186241 3.86448e-20)
(1.13025 0.00704896 -6.20288e-22)
(0.0100496 -0.0420632 8.95316e-20)
(1.07519 -0.696071 2.10519e-20)
(0.864606 -0.711852 5.78497e-20)
(0.249116 -0.319936 0)
(0.971356 -0.145084 7.5698e-20)
(0.363965 0.318933 -4.42564e-19)
(-0.125136 0.137949 1.89996e-20)
(0.228354 0.0500909 2.07572e-20)
(0.676395 -0.0564583 -7.18836e-20)
(1.08348 0.536098 0)
(0.99186 0.225167 8.24522e-20)
(1.0878 0.0304172 3.54603e-21)
(0.914596 0.449616 -9.20605e-20)
(0.775147 -0.717923 -9.38109e-21)
(0.929339 0.0270443 -4.9983e-20)
(0.98133 0.496776 0)
(1.25773 0.147988 -1.491e-20)
(1.37278 -0.510829 1.21343e-20)
(1.22176 -0.337365 8.90301e-21)
(-0.193801 0.128238 3.55237e-20)
(0.194298 0.0168661 -1.83513e-20)
(0.97183 -0.115597 -5.9354e-20)
(0.355995 0.534516 0)
(0.917976 0.0211333 3.9826e-20)
(1.15849 0.640668 7.69107e-20)
(-0.104917 0.00987356 1.31643e-19)
(-0.0594754 0.0914513 -2.39287e-20)
(-0.0870223 -0.0039521 3.85965e-20)
(1.09813 0.0231672 -4.75669e-21)
(1.12492 -0.457527 0)
(1.05913 -0.727029 -4.74489e-20)
(0.700888 0.357266 0)
(-0.00272434 0.0196697 -9.45974e-20)
(1.10054 0.0366134 3.22507e-21)
(-0.0347426 -0.0288043 -2.73079e-20)
(1.04856 0.0567671 -1.23846e-20)
(0.0965737 0.0321611 5.15604e-20)
(0.837017 0.129869 0)
(1.35573 -0.0624846 3.59962e-20)
(0.0457586 0.0643689 -2.35675e-20)
(-0.198462 0.165339 -4.21936e-20)
(-0.234858 0.182956 0)
(0.0868556 -0.0127838 0)
(1.31501 -0.0404476 -9.44812e-21)
(0.381849 -0.00859013 1.4823e-19)
(1.25819 -0.72035 -1.64347e-20)
(0.971259 -0.123919 4.03691e-20)
(1.07439 0.254101 -3.13925e-20)
(0.364138 -0.547048 1.43606e-19)
(1.5533 0.287975 -3.26547e-20)
(0.06613 -0.0433078 3.46443e-20)
(0.209506 0.317082 1.97271e-19)
(0.10053 -0.0234772 -1.2992e-19)
(0.937926 -0.486752 -4.47669e-20)
(1.4555 0.39388 3.3122e-20)
(0.561096 -0.667515 5.1194e-20)
(1.10595 -0.0851869 -7.6893e-21)
(0.161184 0.0928933 5.07751e-20)
(1.17685 0.29504 -4.5399e-20)
(0.665246 0.648427 -4.08393e-20)
(1.32895 -0.618676 0)
(1.41748 0.524697 3.24836e-20)
(1.04683 -0.522873 -1.22315e-20)
(1.39097 0.612044 -9.57264e-20)
(1.19652 0.0201651 0)
(-0.0534822 0.0867744 0)
(1.25532 0.735834 0)
(1.25735 0.0481618 -2.7463e-21)
(0.737776 -0.294946 -2.11208e-19)
(0.476685 -0.0740646 0)
(-0.0522433 0.102447 -2.42726e-20)
(1.0208 -0.244272 1.03349e-19)
(-0.277484 0.0495758 0)
(0.321869 0.0363211 1.2399e-20)
(1.15984 0.0319006 0)
(1.41307 0.281737 0)
(1.20482 0.0531524 2.30146e-21)
(0.359815 -0.28164 0)
(1.0136 0.152732 3.87201e-20)
(1.30663 0.29134 0)
(-0.0742034 0.10306 -1.511e-22)
(0.809299 -0.389251 0)
(1.52064 0.345424 -4.93443e-20)
(1.24364 0.37489 1.7725e-21)
(0.845135 0.654954 -9.90591e-21)
(1.01259 0.159571 -9.09618e-20)
(0.967581 -0.200948 -5.01081e-20)
(1.45454 0.300929 2.90701e-20)
(1.00546 0.118342 0)
(0.564152 -0.0634775 0)
)
;

boundaryField
{
    FrontBack
    {
        type            empty;
    }
    Top
    {
        type            noSlip;
    }
    In
    {
        type            fixedValue;
        value           uniform (1 0 0);
    }
    Bottom
    {
        type            noSlip;
    }
    Out
    {
        type            zeroGradient;
    }
    circle
    {
        type            noSlip;
    }
}


// ************************************************************************* //
