/*--------------------------------*- C++ -*----------------------------------*\
| =========                 |                                                 |
| \\      /  F ield         | OpenFOAM: The Open Source CFD Toolbox           |
|  \\    /   O peration     | Version:  2412                                  |
|   \\  /    A nd           | Website:  www.openfoam.com                      |
|    \\/     M anipulation  |                                                 |
\*---------------------------------------------------------------------------*/
FoamFile
{
    version     2.0;
    format      ascii;
    arch        "LSB;label=32;scalar=64";
    class       surfaceScalarField;
    location    "875";
    object      phi;
}
// * * * * * * * * * * * * * * * * * * * * * * * * * * * * * * * * * * * * * //

dimensions      [0 3 -1 0 0 0 0];

oriented        oriented;

internalField   nonuniform List<scalar> 
1171
(
-0.9279145760902114
0.927914576093081
0.7872601167468246
-1.098766238482233
0.3115061217306745
-0.1945631973196194
-0.7675702238542137
0.9621334211682386
0.07208541616571611
-0.1175765602572146
-0.2118231393173201
0.3293996995849382
-0.7872601120947441
0.06927294123395968
0.717987170860211
0.8106643807686486
-0.1774153742233407
-0.633249006544815
0.8741529689454642
-1.043490109992719
0.1693371410446219
-0.2847047248265212
-0.09809454837605334
0.3827992731813061
-0.03613069571383706
0.5483709807829682
-0.5122402850640496
-0.5074195121239288
0.8293431846562319
-0.3219236725258885
-0.4022812767054432
1.045606542352059
-0.1714535602944202
0.3956952124102076
0.04920615092774873
-0.4449013633048654
1.046380709952135
-0.0007741629081494071
0.4466139594901445
-0.05091875848955323
1.056889288403377
-0.01050857370037083
0.5785789236106393
-0.7731421207235672
-0.7242728915753882
0.55707551215868
0.1671973794195558
0.219083590374926
-0.7265031016869401
0.5499832491545062
-0.9225355382748868
0.3725522891629852
-1.094196382981081
0.6864656467582056
0.4077307362146754
-0.5953670999367824
0.5592364081259145
0.01768855970117994
-0.2563156406520889
0.2386270810220185
-0.02411268902998505
-0.5239916377204002
0.5481043267267403
0.3998404122065576
-0.4979349540477821
-0.9187741844755172
0.9415271574706523
-0.02275297299470392
1.067818377416723
-0.0109290862063987
0.935202759759738
-1.116975405882567
0.1817726461250571
1.06745083112394
0.0003675481939029935
-0.6642684978106558
-0.06000439240399862
1.262029943633042
-0.8644642039815871
-0.3975657396521391
0.1486766458294721
-0.1092489755917297
-0.3254489310428219
0.4346979066190419
-0.2856703482723849
0.1914731905663918
0.09419715767540471
-0.5834077872401484
-0.5153584552414212
1.014128653766904
-0.07892589793241099
0.009909809021831979
0.8254519674939167
-0.8353617765167252
0.5717588187274513
0.6902711213335829
0.4391220029088954
-0.03077857804450629
0.4306189911772975
-0.8077724485736858
-0.1026277357111152
0.9104001842878807
0.5026782854389226
0.2539712606064741
-0.7566495460428195
0.003688669776310284
0.530645549841712
-0.5343342196084105
-0.4899234640624888
-0.6042729206631685
-0.4228939811690114
-0.6940814287341406
-0.0275053822459499
0.2705515020753516
-0.2430461198713991
-0.924922360001133
-0.005212099475096507
0.9301344594747056
0.3078066810878642
0.07499260068258562
0.7621966787928985
0.04846770825953518
-0.5329761638127065
-0.06239093434088423
0.04628598782914629
-0.854058437284287
0.07697741603667772
0.861783631558785
-0.9387610475946344
-0.3473698323275988
-0.04085658960280939
0.3882264219386363
-0.6824223424069843
-0.2425000178540831
-0.6319588426898404
0.7089362576904767
0.6099876755491703
0.2193555117844506
-0.5430188620578233
0.9461889941557667
-0.7793262288090466
-0.1668627653464717
0.01969240653459527
-0.01032038971765345
-0.009372016756937308
-0.4030301958436165
-0.09490475740676843
-0.2420353193721478
0.85202298839811
0.04744538325152937
0.3338949870977434
-0.3813403703697142
-0.4609965229847121
0.9636748101004404
0.6801494682957649
-0.782777204092986
0.3179618285628487
-0.01526631824562128
-0.3026955102645261
0.9306634540426898
-0.9306634540432751
-0.7829201968598077
0.1113457983029571
-0.323168933852332
-0.7500311439386613
0.7599409515596942
-0.09106088987869815
-0.1426762719365515
0.2337371617929194
0.8649123582747078
-0.03946039149515781
1.054541568514894
-0.8005703067270437
0.1862706034668273
-0.3159030060525873
0.1296324025864228
0.8589539310780603
-0.09675724651484048
-0.6116183117184979
-0.03945658999638981
0.6510749017138632
0.1237408875445931
-0.2308102489699299
0.1070693614882655
0.8055883984508377
-0.9830037634005595
-0.4347752700045158
0.3293231602962436
0.1054521097236849
0.5324872416980567
-0.5565999294913606
1.022120359046471
-0.4562814378280943
-0.5658389212173475
0.5992263748005975
-0.7192772685016023
0.06654493410458044
0.6527323343748874
0.1023043867622133
0.5703412250533829
0.05465636306171522
-0.6249975881101008
0.1946914472813069
-0.08334564981729455
-0.4927293851225142
0.145359551522089
0.05036742189137744
-0.886737720581346
0.8363702986923405
-0.4747854797560674
-0.7133488865401258
0.04908038999991218
0.4364762288198543
-0.005857232978614887
0.3000280536725025
-0.8552892381801203
0.5552611845223159
0.4157314194759044
0.5842685805252856
0.5606268733545917
-0.5143408877081014
-0.3654072004626934
0.03688843050968926
0.3285187698209981
0.6813166756804454
0.2493467735559357
-0.5672982996412795
0.5709869746422862
0.1110272896444253
0.8748613334133517
0.01030303910508315
-0.6219213485576454
-0.7492578805078225
0.7996253022482612
0.5308846401874235
0.07160603408287906
0.3005568127612223
-0.37216284683818
-0.1675927926410476
0.4432278988958448
0.08741766317504751
0.8746514318313841
-0.798940410965492
-0.07571102086077809
0.6355390096203173
0.310649986090664
-0.4305355748865639
0.5752949498936635
-0.5036889222353537
0.4170867062390487
0.1328965413802904
-0.04688333596730965
-0.5886101173984126
-0.1390439244828338
0.727654041879617
-0.149664442699611
-0.780999015753556
-0.6110686190418957
0.3604296885043153
0.2506389304816559
0.6222375550135777
-0.611934516227017
0.2383388090905418
1.011687935356481
0.0428536328259
-0.7492578785208737
0.2194946971353659
-0.1998022756986157
0.6801494642087281
0.8021265779797222
-0.8021265779810939
0.8376573335623022
-0.833249675191769
-0.004407658366313618
-0.4453570877464342
0.8610885071706299
-0.147605007163636
-0.3451243728727932
0.734750047562252
-0.6685214518040619
-0.06622859576192609
-0.733213857315429
0.1446037357647697
0.1389315136644982
-0.6719076786164249
0.7827772001854819
-0.9503699928299454
-0.3649670819053032
0.2866389514914652
0.07832813040721626
0.1458057149170044
-1.009682225404759
0.8638765104890508
0.4805538170834677
-0.04143181417821323
-0.308132143405475
0.5863311850300666
-0.2781990416189899
-0.738374593650075
0.884180317979318
-0.1570886728786182
0.734406857685127
-0.8363771515679029
0.1019702938931673
0.9782540420510348
-0.5411711858478793
-0.4370828562043704
0.7552432443390725
-0.06484583485466099
-0.03607916587304374
0.1872768908927137
-0.1511977250546437
-0.775739822070891
-0.8430836115613516
0.07551338823235718
-0.7500311437160899
0.5141314055407872
-0.5549879914697606
0.0922592869986298
0.7173254804993918
-0.8095847674915382
0.7536655418685335
0.174249035094268
0.5028909809895569
0.4971090190093158
-0.05421404234881207
-0.6062213238080459
0.6604353661629293
0.8785689106628494
-0.00391747814889344
-0.7552432443384284
0.7996253015589299
0.1913085913549141
-0.4476242316706008
0.01703970201696502
0.001481081371808443
-0.0185207831898299
0.5895023490161291
-0.4380744952410264
-0.1514278537586893
0.7179871657966796
0.01377010681405495
-0.1086767631660795
0.4382088459786845
0.151293498283754
-0.01363000954875262
-0.0071773736832603
0.0208073831994115
-0.03358627645251373
-0.002492892951105391
0.244311619903517
-0.2595779436459731
-0.9592152500400157
0.002005723285457787
-0.1595899484817331
-0.1206554721414505
0.09477268241945298
0.7216394929236282
0.728979335623306
-0.1447107575227174
0.6628159264114
-0.5705566420216159
-0.2119418961681344
0.3982124953697631
0.6955209511823698
0.02246621461357376
0.2416723481962655
-1.074922027982095
-0.9503699974510943
0.3019494402264478
0.7599409519241084
-0.2089719067159752
0.06629562783437362
-0.7236452216554485
0.9094518955815505
-0.1858066739230295
0.4162984710789602
-0.02807204157948368
0.7715244626270232
0.2807227369116301
0.3739866376194123
0.07262735214422426
-0.6587033952954643
0.658703395294211
0.2148282692656679
0.6955719125311355
-0.05533420680390677
0.3892292005655548
0.3793636895059366
-0.01248942227362585
0.0295291041833251
0.4490325524711663
0.03152126634422994
-0.7383745881090562
0.5340674721467279
0.2006825781106141
0.3037037807481283
-0.1164268968941015
-0.6955209507848655
0.1796135763900958
0.7298383240013216
-0.01028080698351227
-0.8136088867998078
0.823889693781656
0.6963385834953667
-0.7920122298346137
0.09567364633991056
-0.7536655400207416
-0.1509034205469874
0.2118957243951539
-0.06099230389774787
0.07746445297012598
-0.1788515283626627
-0.113353084457266
0.2922046128446943
-0.00532506003458013
-0.008304920722023018
0.7066131221559363
-0.7168939309123157
0.8856244134555952
0.07650900705716994
-0.3172277664912869
-0.5175958899090148
0.8348236563867263
0.1039524896352087
-0.1039524895408555
0.3235273740660839
0.4727797884113643
0.6178349098643724
-1.090614698267498
-0.1941020258627335
-0.585655080381506
0.7797571062447368
0.01371677632121881
0.2200203799308577
0.3767677827430888
-0.2530269011138705
1.014266366351936
-0.5414865794865935
0.6662163219681155
0.9944854119295873
-0.3766505039998623
0.2291627805488428
0.8841803225991191
0.7127267660135379
0.213793459643623
0.7277336971430826
-0.7809990182637552
0.3412966116900037
-0.2771441962261773
0.2478717044455685
0.02927249178764653
0.8463356681159639
-0.00536174929405011
-0.84097391881239
-0.7022181943534777
0.7025857421135263
0.5546429137044707
-0.7022181936967011
-0.7127267660132827
0.7025857444013331
-0.03481106040834573
0.9078934285536912
-0.02226901163878109
-0.6813166713132328
0.6123411250883105
0.06897554622496749
0.5386300107408671
0.5369470776741754
-1.07557708841528
0.4900338860682664
0.5242324793612696
0.5436333582006349
0.4586399741820512
-1.002273332379283
0.4954916229561964
0.4989937875001736
0.6123411224185989
-0.5255403419715822
-0.4653526308329916
-0.5567404355164275
-0.5174004918378986
-0.1190516802060627
-0.01230726348423992
0.01230726344068192
0.5129014079704777
0.5233556820260576
-1.040756173856908
0.5740409183840648
-0.2734841066541049
-0.8851487458529067
0.3439775577683191
-0.6331110479111388
0.3906110293961444
0.002526228821285102
-0.8278482601743448
0.8253220313532783
0.4208471882503455
-0.0188926054531811
0.8652282760658263
-0.9491866114147862
-0.8333469154649972
0.05380069117529004
0.7795462242877906
0.5669461827641677
-0.4397827678344229
-0.1271634149353641
0.6501487430446278
-0.7290746432214329
0.8874803955953489
-0.8311862216978809
-0.05629417390689952
-0.01081959238373472
-0.7881208188512515
-0.1099538080168937
0.7124984356934566
-0.6025446276759114
-0.9368570106710157
0.926037420391767
-0.7248015074871523
0.6913956142430177
0.03340589324481329
-0.8109664746603961
0.03848927829612254
0.7724771963593393
0.06181441653831003
0.04213807682888583
0.4329245865336244
0.06170621287895427
-0.8517906161237931
0.7900844032522171
-0.6440289744467471
0.5898149334756722
0.8891000114770953
0.07097487508674862
-0.9600748865574468
0.05575309371010996
-0.0480614985920612
0.3765802555966632
-0.3816247503243155
0.06572173841734998
0.8420188671624415
-0.8394926326860149
-0.7344574595525891
-0.8144884955221363
0.02636767672666009
-0.1629934281930117
-0.8526612000261632
0.02147497903480228
0.6228312278662578
0.03998469997321383
0.03434672814814219
0.532599450991271
-0.8080924279807079
0.8465817113568653
0.5658389232307182
-0.8467408540848689
-0.8658821381348974
0.04201129166063823
-0.03245153881863275
0.8374696732463073
-0.8050181344298363
-0.02733915883263487
-0.7669089934768329
0.5443344435349533
0.1520041405367767
-0.02937725542522117
0.8946055352511292
0.9798381083451505
0.8627196979377736
-0.8412447162777198
0.1477396836612569
-0.1477396835593629
-0.1183910823390994
-0.4792105871133586
0.03942781941152545
0.2703130840574658
0.03163635615096918
0.3877567397806304
0.8672663811724272
0.006663199325576823
-0.01198825129973964
0.6585974681605355
0.3414025318383378
0.7836137172582872
-0.5834077865112159
-0.7781040884088098
-0.8103798746025215
-0.6798327698706585
0.67983276987081
-0.1678828473950691
-0.1552860730883397
0.6021350305490742
-0.8121416840516399
0.210006653501614
-0.4938502405570112
-0.5689881354046772
0.2781215970916069
-0.9722030266060783
-0.9014943033925491
0.8452001308123713
-0.8123537951206589
0.8387214745273903
0.6487273678412748
0.1341881824769887
-0.78291555031767
-0.77697398934805
-0.1461100713224028
0.7242861881806073
-0.5781761168586401
0.03422792196816652
-0.01370303526380757
0.01770265135407883
-0.003999616156278397
-0.3545808864606736
-0.1246296975213871
0.8802566219005985
0.7472702579514603
-0.246858880913324
-0.5004113770276216
0.6201068404035399
0.6854463173010118
-0.4706180466687939
-0.0003126041237370321
-0.2853577420845668
0.02189401986088949
0.748978429078156
-0.7708724489431709
-0.3234756650158864
-0.07304199818524784
0.07605690297305677
-0.9618155881260791
0.120841674005964
-0.6779535093433224
0.05204365708779839
0.640561283545318
-0.6926049406358856
-0.7563189961242887
0.0783654867819597
0.5879601843579488
-0.6610021825471679
0.1573489686460826
-0.3362004975503121
-0.7704556411223713
-0.00651834822462241
0.3711650406351677
0.6009188243931854
-0.02562387152181814
0.02096110472135183
-0.02096110466748174
-0.01948465553893663
-0.04889536882836477
-0.2282488148226955
0.02696426704262409
-0.02030110149046551
-0.7304709489626536
0.2792572745413726
0.6806158002882535
-0.6890290129088573
0.008413212609050895
-0.5949439293108411
0.6469875944571412
0.6533159241975095
-0.06535573664437232
-0.6311888107148684
-0.1251301891365913
-1.050590677059825
0.01104015655032442
0.1366995192748816
-0.7085769250943703
-0.7411426255787699
-0.7632266409422808
0.3656608965499144
-0.4108132762914327
0.4628051641331911
-0.05199188783591237
-0.6662989077220308
-0.04227801737800872
0.5019184050996371
0.7306828838493242
-0.234470031085984
0.1138145588496738
0.9683339397569161
0.4464333025529179
0.1338778147215751
-0.5803111172715185
-0.6774971148198629
0.01119820864260168
-0.04475105352187899
0.03104801319528926
0.6363139072895395
-0.7753578373762329
-0.001759283634379793
0.001759283673000822
-0.6012381479008152
0.6484221641283804
-0.04718401623008921
-0.6431503812916511
-0.1130778985607294
-0.6714976470951303
0.05743238761059955
0.6030029751657936
-0.1371866335637706
-0.8176077086213759
-0.5644654731397475
0.5657932541553755
-0.00132778107289487
0.6310004409634659
-0.6225872158198169
0.3224610704665322
0.2140947926644014
-0.5365558631302171
-0.1048287209008846
-0.6015677313331301
-0.09103719724622306
-0.1548048522302204
-0.5070330739439042
0.4040873406955236
-0.4989921029015436
0.1269356864978923
0.6783049144837039
-0.8052406009810256
0.5992263748008415
-0.367318157023036
-0.04349513772428201
0.08332709873027483
-0.5903601726085967
0.5517051503491167
-0.04060951587867345
-0.5110956344581649
-0.3127228847092055
0.3052591766108511
0.007463708028111877
0.4546775478482016
0.1193633653463529
0.05174820333873267
-0.3162111167395651
0.1571459320856257
0.1590651846408622
0.2274570593418966
-0.007962375102569199
-0.2933370758295113
-0.310784159238688
0.3559086731802937
-0.04512451411725844
0.787057993631554
-0.6259974855999773
-0.01715289568470122
0.4992320164581035
0.2811689308585654
-0.5280278099934304
0.5775069194306821
-0.5775069194306662
-0.2897357588560458
-0.5864413059872372
-0.2955848169771661
-0.586441306271014
-0.594413991856037
-0.8385115649263697
0.16999011688739
-0.5865696533751878
0.8211055884460218
-0.003282843406444306
0.1181850981529815
0.4827337282806296
0.09674167769072228
0.1858131502009565
-0.03646254555791305
-0.1493506046868139
-0.02077639307740909
0.5934467515166574
-0.9458955483203766
0.428299656844103
-0.004574293029999047
0.003638674465925973
0.0009356185757649873
-0.6435318422506192
-0.1317297769210184
-0.4681127463047781
0.6019905563506318
-0.5036582802769186
-0.32734204287557
-0.2630181098524845
-0.271059159546037
-0.1117863641278667
0.111786364083693
0.1525457542067501
0.05934996199610408
0.1968533009015111
0.454842793476058
-0.5728626355804537
0.1047498868760611
0.2432974179775803
0.4663958383756252
0.5336041615885796
0.6415631342116106
0.08811497367966731
-0.006440048848283608
-0.08167492480356388
-0.2769551389204525
-0.5406525697010263
-0.5517888625488619
0.114431367594285
-0.1263447337381267
0.01191336611642507
-0.1056025248604138
-0.3857338918108372
-0.04661921338710462
0.6496221964590279
-0.4987380893607571
-0.1447937528909032
-0.3376624193070337
0.2912143682237153
0.1251094037711028
-0.6128346562868884
-0.2043454071259437
-0.2622926173882125
0.002714690425597884
-0.4222195893769394
0.3234919859289473
0.09872760343656288
-0.0955026563908703
0.2916666115004589
-0.8959395308503525
-0.457800203837839
0.6288458026018028
-0.7730775892597851
0.668248868356399
0.3411676958695332
-0.1246188766315045
0.2245552559510886
-0.09993637927784775
0.02440038255160762
-0.5862959132821031
0.02910770122899933
0.5571882120661215
-0.9006730003309086
0.5473542764196061
-0.6657453587577127
-0.1006954148174462
0.1097461215664514
-0.1097461214262667
-0.3165237216486475
0.3620619565259768
0.01451829294408354
0.03137564088487071
0.05673930272459744
0.5052607682765693
0.662315041847533
-0.7380260630214691
0.03285673938213551
0.02276299626835787
-0.001801883734837774
-0.007262259791880625
0.007262259741285559
-0.4164757570221987
0.5358391155192749
0.0154679920178623
-0.01546799202385699
-0.7923135916573063
-0.06108323623130543
0.1228976540203262
-0.4571578176090038
0.5619076977302618
0.4520449266063658
-0.4992289474874067
0.1500794122924557
-0.1500794122071882
0.03190388437941332
-0.002374764415926284
-0.04227224559768928
-0.9759206286696246
0.538837770204361
-0.4684676622711467
0.04213807971302014
0.514673187798887
0.03099882060380485
-0.5456720083932624
-0.6161982284864261
0.1174601420454725
-0.3293513641957772
0.01345060586071853
0.3159007583890574
-0.1552604698565426
-0.07920957491780616
-0.5409019197855071
-0.04539399224690198
0.1366995271935067
-0.04011057263127076
0.03835129374257598
0.08074009718966446
-0.0807400973372699
-0.5335240898641501
0.4883995901131474
-0.4146295781649695
0.1613297653607563
0.6222839518950629
-0.09757739723555205
-0.003258451063429324
0.003258451036343636
0.5329407862240954
-0.08023519832508336
0.005793640071718772
0.02695340847762608
0.03487580916967332
0.6844753677390507
-0.7647105660603289
-0.6532461878990455
0.6360932955025987
-0.106405686609275
0.313331405145284
0.7460242129439344
-0.0194846556313613
-0.2668186647869396
0.1503917847287957
-0.7446333446664174
0.4842121409679042
-0.426011539007532
-0.1015250346680073
0.003432522905547819
-0.01428045332697189
0.02052425201662726
0.4108849584014218
-0.1215737592273597
-0.3895218806601377
0.6287884729214303
0.0195695435031435
0.01051525179952338
-0.01051525179369457
-0.3527998610502222
-0.07868129629872046
-0.5604310718679412
0.5571482284688665
-0.2379719593908269
0.4647574237328238
-0.1511819790081473
0.7297609012992662
0.6718122341991697
-0.04011058084923852
-0.6166830023582834
0.5631354710201993
0.2884995455833532
-0.2852151849078873
-0.003284360699006462
0.5405906464366317
0.09339146317295426
-0.03904581775519134
0.196302007182655
-0.1572561894500175
0.1197859032713175
-0.1197859034180328
-0.8587238943470791
0.002339741442655184
-0.1135076541222162
0.1404610626636858
-0.1317737921867242
0.1317737921239361
0.02276300106330197
-0.02274309911933629
0.670155473668676
0.05968285512933852
-0.3228600237381326
-0.0628738680798531
-0.4712250993913502
-0.04916286397877224
-0.151462668762103
0.1514626686730797
-0.04977103409049211
0.1434700249506581
-0.1434700248730021
0.1363079574624392
-0.1363079575784724
-0.3158579301288121
-0.1146776447601295
0.2262944015335637
0.103028757097063
0.03483420288868448
-0.8211251587935482
-0.198269868577458
0.170123303337849
0.02118528083857614
-0.2648706134624927
0.125968358468164
-0.1259683584001292
-0.4141618394956997
-0.08483026072488149
0.236147068484527
0.002480007035452335
0.04062951810300779
-0.5435420380486486
0.5783530984581134
-0.03252010590266753
-0.01725092821944208
-0.02770778927070863
0.02533301197714306
0.006609392779822043
-0.1845559589404447
0.1779465661641831
-0.1086096783976292
-0.2275908188537983
-0.1445918340301197
0.1445918339501947
0.07274822786707841
-0.07274822790692984
-0.01924325564321966
-0.1086016618327573
0.1278449175197967
0.2402956130363813
-0.1830904824947194
-0.0288571158303732
0.02705522471306663
-0.1366414753252064
0.6250410620647985
-0.03903814692702854
0.4252662186007993
-0.0433086445699413
0.06411601881668773
-0.1531734054586928
0.1531734053533406
-0.6366376534310699
0.3085331050241645
-0.07937032442214416
-0.2343762918822233
0.003566047933642244
-0.1210164854931527
0.1616460035501108
0.1957819551181674
0.09642265507912086
0.09678114871206549
-0.06190533954732259
0.07282421630073897
0.04160715831684
0.06400165417368503
0.106121656810422
-0.09699736287917762
0.2108119495087813
0.01227453615710635
-0.1172984578490339
-0.1000609218150747
0.09703849063626438
0.003022431265895209
0.01224775388696101
-0.02373909458560187
0.03767120034213143
-0.03767120034842645
0.07528552093946847
-0.05502332332771458
0.05502332330901071
-0.2244788128966064
-0.05318244520824911
0.01151620640102975
-0.103056954719713
0.01652205347429849
0.1085438534413491
-0.1085438533980393
0.2945095647855945
-0.2712961153432699
0.1626864338700307
-0.05101975579743321
-0.2202763615620107
-0.01728514443484301
0.01728514445931527
0.3675097071017263
0.2852226338644364
-0.5277998229943806
-0.09397542595971825
-0.03236930671340903
0.528839479080882
0.2125878315043653
-0.1703960180149484
-0.3798898046489262
0.07647224377868996
-0.1475325772286939
0.1870694923172589
-0.03953691511201333
-0.06693668248807638
0.06693668251825005
0.8224964567228106
-0.5605807504279162
-0.006041552547035261
0.01828930642980393
-0.01998742449444066
-0.2870158553241172
-0.0175016416163446
-0.01281804000395187
-0.1319742433367935
-0.5721430786952914
0.5560553598049519
-0.5694344303943049
-0.00687082594255908
0.1027615974855838
-0.001710733289457299
0.01686545770048786
-0.1675199977813776
-0.3363416330126719
0.2332846783036096
-0.05432028443950752
0.03507702591117121
0.1318494773250169
0.1734096952075916
0.3385938757685026
0.2763053037040623
-0.2780160369559261
-0.06170962255186378
-0.1551663709590712
-0.2209256880732248
0.07470635686672034
-0.01070469984387826
0.2138004425917112
-0.1969349848631258
-0.08629594733556928
0.159120159639036
-0.3553396413653565
0.2082759407325748
-0.1917538872606535
0.08957533591886671
-0.4790972148993564
0.1742514565628645
0.1702670016414827
-0.2565629507638866
0.07304205570476595
-0.1945938893299417
0.1770922476898092
0.01742453019721419
0.1416956249174565
-0.03955531567852708
0.06588478817384495
0.4670559980238894
0.02038606610869544
-0.08141550079766247
0.05415923325626112
0.1261806032072743
-0.2604626085849635
-0.2308895155186286
0.5597348772832603
0.1574338421294246
0.07871322945956878
0.07507194807903912
-0.03093571688392501
-0.01172074481127548
0.008436400832895475
-0.03275312593486849
0.1709466696094553
-0.1778174955241043
-0.06089124861573041
0.02101366989208477
-0.1470108603117795
-0.05289825987748851
0.149920679872497
0.277062143142267
-0.03872210878500092
0.01361227129161311
-0.2556628731210013
-0.1323920189325009
0.2359887424293356
0.1786836012725402
0.1298495067671641
0.02204655652646363
0.08880676886107101
0.05234372771861566
0.4529170405574362
0.0152969694779138
0.09749776408609258
0.04345781849140234
0.07192462587778441
-0.1153824444467484
-0.242577183372378
-0.2007301627262335
-0.0195461998383845
-0.2020350710131934
0.2752090622305952
)
;

boundaryField
{
    FrontBack
    {
        type            empty;
    }
    Top
    {
        type            calculated;
        value           uniform 0;
    }
    In
    {
        type            calculated;
        value           uniform -1;
    }
    Bottom
    {
        type            calculated;
        value           uniform 0;
    }
    Out
    {
        type            calculated;
        value           nonuniform List<scalar> 10(1.033667243408413 1.064170351242987 1.022093066349712 1.019724102755994 0.995587049334872 1.016394278898334 1.036257089616363 1.062838375962929 0.8672426775203544 0.8820261229627764);
    }
    circle
    {
        type            calculated;
        value           uniform 0;
    }
}


// ************************************************************************* //
