/*--------------------------------*- C++ -*----------------------------------*\
| =========                 |                                                 |
| \\      /  F ield         | OpenFOAM: The Open Source CFD Toolbox           |
|  \\    /   O peration     | Version:  2412                                  |
|   \\  /    A nd           | Website:  www.openfoam.com                      |
|    \\/     M anipulation  |                                                 |
\*---------------------------------------------------------------------------*/
FoamFile
{
    version     2.0;
    format      ascii;
    arch        "LSB;label=32;scalar=64";
    class       volScalarField;
    location    "422.5";
    object      p;
}
// * * * * * * * * * * * * * * * * * * * * * * * * * * * * * * * * * * * * * //

dimensions      [0 2 -2 0 0 0 0];

internalField   nonuniform List<scalar> 
808
(
-0.03345767935670733
0.0438208078633641
-0.01104130496103412
0.03750719269623651
-0.2963255564526422
-0.05575558771522499
-0.01568798698520574
-0.02414919645085801
-0.1949360778897267
-0.08297242112209242
-0.01078505111887171
-0.2517716656348652
-0.03071704049334675
-0.01411522206884354
-0.1219060354007601
-0.01425679188268602
-0.1381925545175061
-0.01377323203868031
-0.01265501626526038
-0.05486711464853074
-0.007920915444958584
0.116751881494517
-0.06330840425421716
-0.07074344557604714
0.1745636745147343
-0.1005031822032993
-0.1508447312317327
-0.02046802937842024
-0.01758585384799227
-0.02554475340617939
-0.02038896114166637
-0.05762795172116589
-0.02270997154138151
-0.01692312429966597
-0.09867560980633568
0.3447915304014657
-0.03995842927939191
-0.01635807859489247
-0.0224912371582748
-0.02646875291902179
-0.08943537649326254
-0.1253302123331145
-0.05275691513791998
-0.02148375885948
-0.05437258547431905
-0.0423797823900816
-0.01187741393170834
-0.1826555630361388
-0.02656508294430815
-0.2021830646525595
-0.01727413784186553
-0.06628578640361524
-0.0616892973361279
-0.01455153130434864
-0.1954528539851538
-0.02780242395997469
-0.01064658396981337
-0.01448775182754275
-0.09920460224806704
-0.0391102834603822
-0.1114716505828787
-0.1245346683779159
-0.01451442064450353
-0.128125584159351
-0.01764560310900165
-0.05253436862256154
-0.1629811649330671
-0.03537296176698295
-0.01535022648489946
-0.4372148756300808
-0.02612764937265473
-0.2982289237806402
-0.02132830778416688
-0.02121227227893006
-0.06346013475120749
-0.01815723852138831
-0.04184690013374309
-0.3654917646480598
-0.03658187717142494
0.03904660177459165
-0.09212062811098468
-0.01676045709434188
0.05727673011409535
0.04576219828966389
-0.01750130158433069
-0.05150725104820727
-0.5377729757595685
-0.2285888527882275
-0.05136136075317036
-0.1134762890356702
-0.05573117079660225
-0.1313181690454361
0.03837846144625728
-0.02645447217509122
-0.0627956519197857
-0.1203519553128041
-0.03820977703205142
-0.05200746295857664
-0.1150267212439103
-0.1388154828564695
-0.05316570844134604
-0.04660252214445359
-0.05361846377267809
-0.04411267094293681
-0.05691041581386895
-0.07552843400091493
-0.03962535386036232
-0.01063731532423934
-0.03964654469896609
-0.122472244465214
-0.04970355938236413
0.0813532010556153
-0.04180532179390887
-0.007607078934551171
-0.02751812014656225
0.180862890462871
-0.03809446444444606
-0.2656584582818842
-0.02082548802237245
-0.05274623727006318
-0.04264794792442872
-0.04958510379958422
0.01409674456810519
-0.04780713684476734
-0.03663172523151807
-0.2196450463352371
-0.04020543588187459
-0.004237399236440211
-0.07480638709325295
-0.06978266954277641
-0.1508306569782691
-0.02131730901189857
-0.07440864756848138
-0.04409190792122301
-0.02311156054462488
-0.01495079493254328
-0.005977746552402545
-0.007613514102327366
-0.05181170520301304
-0.04895929379038004
-0.2144199178658993
-0.05560171841920831
-0.008158182840708742
-0.02182465953924138
-0.1490827849212621
-0.002155121935309331
-0.07538853176723188
-0.02114353413703971
-4.114261176291762e-05
-0.01029160375143762
-0.03282300751909631
0.09326758521511741
-0.03796304722645687
0.2515582439071327
-0.2599878507363504
-0.133919784809399
-0.03809598626365913
-0.09078849875886927
-0.009049294759877841
-0.1147763367704263
-0.1678248106175856
-0.2150275443338191
-0.1784865535507036
0.05696833593336161
-0.06390400279332478
-0.02063619590006423
-0.06617349211396349
-0.1716314875647807
-0.02298759937973717
-0.01876113630861814
-0.05111172256833036
-0.02070450833684644
-0.007519160350072566
-0.1063635343035103
-0.02364888275107224
-0.04423981739773906
-0.07109213822514873
-0.1596861149926769
-0.03300928036559004
-0.3843491880852706
-0.0179198088622276
-0.2277147956225216
-0.04350575826756659
0.03290100577384255
-0.1060387767199482
-0.01659463831718949
-0.04338373113305889
-0.1045281768775533
-0.01790030402146621
-0.09527013016324674
-0.2035233168012734
-0.07116570729875139
-0.02421978943716305
-0.04718853348159956
-0.0420042112729222
-0.2012026400080814
-0.02246747246883011
-0.01936600326514599
-0.01126553587365999
-0.0574181044884128
-0.04980936030036176
-0.02270783621706381
-0.02057458859549926
-0.2335676355841461
0.1268846411797621
-0.2072704393447431
-0.1897550713266234
-0.01171024348601404
-0.01127112950759428
-0.06647156337084489
-0.01024986828492074
-0.4922840584695515
-0.1270327461887573
-0.01969308971419781
-0.0007985260895587396
-0.02364621361168618
-0.2772733211691237
-0.2796030107085137
-0.007559116178671174
-0.01779486118964916
-0.001853035292465921
-0.3506663212537528
-0.02862217893509017
-0.02942768054266306
-0.01268938047998446
-0.01941462352448501
0.04856244532559048
-0.1255936804851312
-0.01422754449410375
-0.02095007972524629
-0.04548030813449728
-0.01841945206582359
-0.01643709899677469
-0.02353989675811348
-0.06801754657502337
-0.01103387633612029
-0.01889823546460486
-0.008978301875504309
-0.001355825580381073
-0.02930741377130697
-0.002107265762990486
-0.001960013573093648
-0.005724668646617533
-0.02549065880706389
-0.00811011930417019
0.001628823111856372
-0.004130801309247316
0.001276649560976263
0.002317144250105878
-0.008832286074538861
-0.1292444430606715
-0.002918496130999014
-0.0001465267710003425
-0.04726360444117345
-0.02138804949051849
-0.02366766331278244
-0.01403539008954718
-0.006211941435253208
-0.02116717969774298
-0.04014654110032377
-0.01515992269211808
-0.01263948037618825
-0.01155901549045813
0.006437274671997062
-0.009616416775369584
-0.01317771346682477
-0.01140604445658661
-0.01005144233833832
-0.01016908619385179
-0.01110637079481539
-0.01355535648088347
-0.2914212735477402
0.05888126211359867
-0.01524400760373355
-0.01544854738212534
-0.01238170256565217
-0.01234236508320797
-0.008237565492062943
-0.09925159624169025
0.0124517216985951
-0.01437061638144868
-0.01379959525675887
-0.01058894675442668
-0.05098984911085346
-0.008106292546055063
-0.01385953893264771
-0.009886578135919016
-0.002357977675283247
-0.01137239374469411
-0.01090566798295558
-0.02424068548882568
-0.01557234376465286
-0.01243914109243472
-0.01344796237295219
-0.009822408693456332
-0.01302107770345068
-0.01087453736744985
-0.05988744484354028
-0.01341740118448161
-0.01227476449905973
-0.009189447134442108
-0.01540602042788187
-0.01404291546479086
-0.01568264267504106
-1.367016844007596
-0.1005891565244019
-0.01181097448849926
0.02431136922174733
-0.1616243762699149
-0.09340490300404057
-0.01216012584412372
-0.01423099998386973
-0.2392774490867037
-0.02833820581516256
-0.01786279839922424
-0.01234871063053654
-0.02055287366098951
-0.01072083868940062
-0.03080018686529022
-0.4082172391447962
-0.01201552389892242
-0.01407843283324211
-0.004417322503787173
-0.0107931268167056
-0.009540081583330303
-0.01385672366413363
-0.007989696222678986
-0.02740082196987485
-0.01175137086869591
-0.1711289431449609
0.0202729686569889
-0.007349839681601781
0.003895395456117656
0.01182992773515929
-0.0490546690981702
0.02755372710240341
-0.01291580715490275
-0.13297278791696
0.2827910712044512
-0.008218944683616223
-0.01353028453039615
-0.007935324533484526
-0.03329109638635107
-0.1258699917638959
-0.01317762748296864
-0.01193978143430835
-0.01767691488994947
-0.01350863422390217
-0.04170821424269474
-0.2202140380321732
-0.009309679633301931
-0.04372974689708355
-0.03832605318519486
-0.1796507303596914
-0.151301742116466
-0.1551846372316486
-0.2365552807724126
-0.002909923889176316
-0.02067237507981477
-0.01557119367764638
-0.01401405109811429
-0.03377337264251359
-0.02451092723254925
-0.01395509986960768
-0.01492133563104764
-1.069543749907327
-0.002920818518369964
-0.01338553382683402
-0.01798708142355966
-0.01976005671561565
0.00547341145968419
-0.01427634698961274
-0.02541288986382709
-0.1560836346904463
-0.01359711798006385
-0.02088971075539851
-0.01465578848717044
0.0009992200468115493
-0.1779917511088918
-0.01258279501327757
-0.1574972111748257
-0.01540522934367291
0.006110019710319697
-0.01393048497943736
-0.02429585014764427
-0.01643857011422301
0.007341872498806525
-0.2658874010411434
-0.02677260595286379
-0.0169609640658804
-0.01682627383330057
-0.01102095712787983
-0.02928582803250455
-0.01370212291596853
-0.02120745763652937
-0.02045022991662112
0.00838889575407494
-0.09764025339129534
-0.0211325020413713
0.009636444405125472
-0.05746859409184078
0.1796726385840692
-0.1065768182150514
-0.3166115308968712
-0.02933127227697065
-0.02594648660835367
0.1510805496244641
0.09453725265955722
-0.003790516401802136
0.05373025818882953
-0.01514409549250845
-0.01324352089394452
0.00273382816591942
0.007862259139862616
-0.06481703328723354
-0.004361528835840233
-0.05588992197691478
-0.02334299441617624
-0.01567713827435666
-0.03650472237796754
-0.03293636746873049
-0.006698252613741948
-0.01452205626508775
-0.03675756801477743
0.03052677109396367
-0.03861911227950415
-0.0138564150247639
-0.119810837660268
-0.03080335470415049
-0.04006265760895219
-0.6687160757251241
0.01342685897416456
-0.01066778744249977
-0.005642945698486865
0.1872301476801506
-0.1018509083678865
-0.03602707008035508
-0.241989426257724
-0.01514013013355205
-0.01603146896365604
0.07756016089473887
-0.1805797059458118
-0.2304748977199851
-0.1856215150384319
-0.6762922450390709
0.0112385518505734
-0.01790139120196486
-0.01511627450301308
-0.09695485985911566
0.1186658343052327
-0.02197773042606711
-0.2415268421381252
-0.03637016020221598
-0.007013295958913174
0.2790484849307161
-0.01077742438499846
-0.090870672542595
-0.1531354319062895
-0.004577805860504468
-0.04176214736469961
-0.04634363514989978
-0.1951539816233684
-0.007881029579671326
-0.03982049424713807
-0.003776734497231471
-0.5439806756167719
-0.1939030718210268
-0.1789512637268101
-0.02368334267429137
-0.009150494284465564
-0.06223509651733524
-0.05636964663399213
-0.01599980148481646
-0.06975162131645557
0.004616215535855533
-0.01753572697300548
-0.0950226080706489
-0.2773465988859006
-0.009919750747087232
-0.0247375661978118
-0.02124533365585934
-0.07655302150248469
-0.08890257451430508
-0.08993723007083265
-0.01123068331876281
-0.9076443679506874
0.1621097332047064
-0.08302761345988141
-0.2510426519625673
-0.04126587727571676
-0.009099573803592944
-0.2476847559881052
-0.196210979299295
-0.03083525710050812
-0.1137490637115428
-0.0177574201534139
0.5627840459247767
-0.02527460990568777
-0.2128539082060675
-0.02498326296517284
-0.003725779382566665
-0.0108423937024182
-1.24570845627387
-0.1815064671452983
-0.2269300367675554
0.005250392754405007
-0.03952989628057592
-0.2341031542715759
-0.06726285015368309
-0.05228929128568401
-0.1462014843043813
-0.1819398945531812
-0.07015966559702175
-1.214647375560037
-0.160738685688321
-0.5421180676424139
0.07995319347323905
-0.006253976620962312
-0.0209375976219722
-0.04486056663325635
-0.03808335964802236
-0.02758621208628853
-0.1298115818218099
0.08148247884454839
-0.004376434437011165
-0.009869589574130099
-0.5617561824447416
-0.8487650476868255
-0.1752300610529812
-0.007523725263502427
-0.1223822888776307
0.0005766896222949165
-0.0005664021586178624
-0.002908889353233223
-0.0618493728916194
-0.2332182335539832
-0.01332814888977613
-0.1099282046698906
-0.1564472746427446
-0.01308977757355148
-0.03435704887206151
0.02892317752436589
-0.05896696550931748
-0.07225962614192449
-0.4922813203999605
-0.2287838442125997
-0.07970516940989901
-0.07573796976887222
-0.01925567262021382
-0.1103416579240263
-0.1665138881215444
-0.08246033063630903
0.02729715139690169
-0.08744830656503051
-0.0505713593186371
-0.01494487500117593
-0.1160869753735194
-0.2817275300623709
-0.05968678254786682
-0.01797166764732269
0.00175197614668962
-0.01023367965411588
-0.01049578357625358
-0.2376756055003518
-0.01395144606088547
-0.2166440333603868
-0.0108092838658134
-0.07186404541236059
-0.004044498463564382
-0.0232618663824153
-0.3929536122281938
-0.9288598333170993
-0.01122762433952539
-1.040498493902702
-0.6009555472373932
-0.01061253031607205
-0.6598126974396756
-0.1871897276613048
-0.004873471999611158
-0.123168475640343
-0.01712303432720191
-0.1256087041237096
-0.06480719236594364
-0.07786159969049793
-0.005607564998125683
-0.003631014895453179
-1.344993506499315
-0.01138257739548699
-0.1882180263572137
0.001060149230190876
-1.006923682074531
-1.248618162167098
-0.07827307768683829
0.01646915823104654
0.1646012980278648
-0.004919768862506003
-0.0229449472206497
-0.004369959307663938
-0.2383288965219217
0.3654840919678341
-0.04239831983889075
-0.2145378635420577
-0.01529499518390478
-0.6523636662024869
-0.07211856900890201
0.1889363908047589
-0.3042034546538144
-0.05100525482286054
-0.07054413592520942
-0.01579598451358949
-0.02136908653122576
-0.5943855532073726
-0.1541295519162627
-0.09581160503241418
-0.1179465217360268
-0.550513089897256
-0.04557573987450438
-0.9022945825390373
-0.0007396361180509363
-0.2444454200693646
-1.053864201622114
0.1666186548032697
0.2900428908394041
-0.1702337588498561
-0.1891294431919663
-0.2136878808784769
-0.06610457369710968
0.0257176844135353
0.04650365596847358
0.005076635661239094
-0.1522820611570387
0.02609141354351948
-1.366784381919672
-0.08743782625534603
-0.4796530983525322
-0.334729934017869
-0.2201519393222584
-0.1806897628966842
-0.01698282885268402
-0.01535288619357049
-0.09252024092298881
0.1732732151687021
0.3845503057365811
-0.2099366379936658
-0.1565659232117845
-0.2243664209089528
-0.06381258420763346
-0.1636115148506422
-0.1730666619936315
-0.1279463401723652
-0.109573061025752
0.4650471390243709
-0.2835391350488272
0.4321053733006053
-0.5889914576929883
0.07304378036319334
-0.1886250250915558
-0.06810879277149194
-0.07774521213229257
-0.8942080273040953
-0.2181690132023933
-0.1929090204647106
-0.3554169000365863
-0.4668569608971657
0.5696951114679204
-0.2128504724011602
0.002701690008196771
-0.06746661524596874
0.3448783485029365
-0.03485852299389755
-0.1189637614398049
-0.1820008685768695
-0.06472232799973016
-0.01632022988848504
-0.1986221967382419
0.1954150180944098
-0.01257656262551321
-0.09899142189307092
-0.176376684906928
-0.318017042679863
-0.3078205996295795
-0.08357040509632299
-0.00962629975627413
-0.07877071686968604
-0.6507218391091195
-0.6739045280971745
-0.3246194586877481
-0.05941136046185293
-0.0494490962967344
-0.02433398514778885
-0.0703667399376164
-0.05488680699908865
-0.368838061331029
-0.9631151058380885
-0.008600533773860143
-0.08558019976064112
-1.146032072012847
-1.043395043605926
-0.1082618092736854
-0.04174013636181953
-0.06777823813553804
0.3890580780670317
-0.339369212445135
-0.05144758106733564
-0.6056622334702314
-0.1379219469566542
-0.2482533463865012
-0.2141415568292236
0.4733953170765571
-0.6372691710835094
0.07590260917804414
-0.0283502772935664
-0.5702803990930356
-0.05457496971990123
-0.3655716799433376
0.109332340450827
-0.1939730932563952
-0.06168147151496577
-0.1248592375800163
-0.3580251983136736
-0.08495760372668083
0.5149461702770665
0.08703708772511422
0.4698206388898387
-0.1249054391804545
-0.2071511989972272
-0.5088915512525812
-0.1343309107260254
0.02418062107037623
-0.05577994841873734
0.1000285606488011
-0.3043762818451968
0.2364051702991035
0.005286119312851487
-0.00261428966798641
-0.5077669526635801
-0.1814874569857563
-0.1001771519917495
0.5810910321383742
0.1396474846175985
0.3442804405878267
0.2251119446060217
-0.5668334939584121
-0.2091506892000944
-0.2198226617617887
-0.2288239188665554
-0.0624703737914201
-0.687402323302325
-0.1902887162706926
0.3045569175801107
-0.2034632180365568
-0.01119101897635138
-0.1623683084052109
-0.01195519488708048
-0.1709200475215049
-0.4475012144566072
-0.07660235098494673
-0.2064851474505422
-0.0774853630524393
-0.1103780442131892
-0.1315210264433926
-0.07260915622481531
-0.4399894654436959
-0.4104563593691063
-0.02402497364212177
-0.077736616742781
0.3285923392662864
-0.2526442256809837
-0.1713798887551524
0.5244603012964802
-0.1933657252121845
0.02075350438685195
-0.4559123161278811
0.04899097442412042
-0.0594551912171932
-0.1552285669140184
-0.5927302919986132
0.1592376820055571
-0.5749391398282195
-0.5414104406237944
-0.102320636554512
-0.5130932790839365
-0.03599304758289423
-0.1564078320413367
-0.4146115910547633
-0.01607383992648262
0.2878730360594359
0.4897354995252063
-0.1677558200548507
-0.005571530099205734
-0.0811985664631672
0.5250297214232045
-0.0320401170197474
-0.4464735662705751
-0.03158002586501841
0.4612927086885862
-0.01750120968732246
-0.5511603187122356
-0.2398259622469185
0.1777900059277604
-0.315980820713171
-0.1826587150735189
0.04856927733335611
0.03116728969373377
0.05651545777625534
-0.3051110008100318
-0.1591277987084059
0.4127815638704774
)
;

boundaryField
{
    FrontBack
    {
        type            empty;
    }
    Top
    {
        type            zeroGradient;
    }
    In
    {
        type            zeroGradient;
    }
    Bottom
    {
        type            zeroGradient;
    }
    Out
    {
        type            fixedValue;
        value           uniform 0;
    }
    circle
    {
        type            zeroGradient;
    }
}


// ************************************************************************* //
