/*--------------------------------*- C++ -*----------------------------------*\
| =========                 |                                                 |
| \\      /  F ield         | OpenFOAM: The Open Source CFD Toolbox           |
|  \\    /   O peration     | Version:  2412                                  |
|   \\  /    A nd           | Website:  www.openfoam.com                      |
|    \\/     M anipulation  |                                                 |
\*---------------------------------------------------------------------------*/
FoamFile
{
    version     2.0;
    format      ascii;
    arch        "LSB;label=32;scalar=64";
    class       volScalarField;
    location    "834";
    object      yPlus;
}
// * * * * * * * * * * * * * * * * * * * * * * * * * * * * * * * * * * * * * //

dimensions      [0 0 0 0 0 0 0];

internalField   uniform 0;

boundaryField
{
    FrontBack
    {
        type            empty;
    }
    Top
    {
        type            calculated;
        value           nonuniform List<scalar> 
15
(
142.2712789245705
133.5565891502645
138.0665284936517
144.3912801025104
159.765101831427
131.3676460933693
140.1133828101192
135.3481577575239
153.4327213999652
135.7429327931114
136.0864318435829
136.7771130428623
125.2380155184412
132.9006171337635
123.9481506543483
)
;
    }
    In
    {
        type            calculated;
        value           uniform 0;
    }
    Bottom
    {
        type            calculated;
        value           nonuniform List<scalar> 
15
(
155.5660836129378
158.1112638369382
141.101309825775
142.0793744208554
141.1877172551952
148.4554304663116
142.7119344900843
143.1704902593955
143.4233329156348
134.0614254568075
125.7376324098754
141.5577371923955
122.4131628096585
123.4915231878845
124.1447920752231
)
;
    }
    Out
    {
        type            calculated;
        value           uniform 0;
    }
    circle
    {
        type            calculated;
        value           nonuniform List<scalar> 
32
(
56.30630570306167
21.87932724948059
65.27633870497368
24.7073746063383
19.51637124105891
56.24008997863132
56.76630982503445
24.16850331996469
22.20819966264744
65.49456916137085
40.13811730905692
63.00545126310596
50.38813380238492
14.53099662977004
23.29879172656998
19.44625698638264
38.97133136107444
59.66255117682655
61.06271043152719
26.00798931416235
65.7677250116232
63.77252196818888
63.00793682084735
59.86874357531298
64.1481484606927
46.03755976481721
66.41140902727035
32.18640501578123
37.9124254027391
55.68848128507917
21.30722162151951
43.08451819015558
)
;
    }
}


// ************************************************************************* //
