/*--------------------------------*- C++ -*----------------------------------*\
| =========                 |                                                 |
| \\      /  F ield         | OpenFOAM: The Open Source CFD Toolbox           |
|  \\    /   O peration     | Version:  2412                                  |
|   \\  /    A nd           | Website:  www.openfoam.com                      |
|    \\/     M anipulation  |                                                 |
\*---------------------------------------------------------------------------*/
FoamFile
{
    version     2.0;
    format      ascii;
    arch        "LSB;label=32;scalar=64";
    class       volVectorField;
    location    "0.4";
    object      cellDisplacement;
}
// * * * * * * * * * * * * * * * * * * * * * * * * * * * * * * * * * * * * * //

dimensions      [0 1 0 0 0 0 0];

internalField   nonuniform List<vector> 
256
(
(-0.013198 8.10089e-05 0)
(-0.0128537 -0.00191064 0)
(-0.011717 -0.00354627 0)
(-0.0100626 -0.00457423 0)
(-0.00804221 -0.00482341 0)
(-0.00588388 -0.00430284 0)
(-0.00384925 -0.00323088 0)
(-0.00185786 -0.00169395 0)
(-0.0391079 -0.000101005 0)
(-0.0381581 -0.00568252 0)
(-0.0352046 -0.0103545 0)
(-0.0307046 -0.0134171 0)
(-0.0252611 -0.0144954 0)
(-0.0195125 -0.0136684 0)
(-0.0137737 -0.0111297 0)
(-0.00821155 -0.00728126 0)
(-0.0635971 -0.00060594 0)
(-0.062066 -0.00931907 0)
(-0.0576163 -0.0166644 0)
(-0.0509859 -0.0217262 0)
(-0.0429023 -0.0239449 0)
(-0.0341558 -0.0232708 0)
(-0.0254664 -0.0201154 0)
(-0.0168659 -0.0147589 0)
(-0.0868654 -0.00142684 0)
(-0.0848014 -0.012902 0)
(-0.0792002 -0.0226784 0)
(-0.0708397 -0.0296376 0)
(-0.0606747 -0.0331448 0)
(-0.0497107 -0.0331796 0)
(-0.0385548 -0.0299404 0)
(-0.0275292 -0.0238901 0)
(-0.109002 -0.0025581 0)
(-0.10644 -0.0164973 0)
(-0.0998706 -0.0284568 0)
(-0.0902901 -0.0373002 0)
(-0.0786104 -0.0422897 0)
(-0.0658341 -0.0432697 0)
(-0.0528758 -0.0405837 0)
(-0.0399359 -0.0345239 0)
(-0.130146 -0.00403461 0)
(-0.127135 -0.020192 0)
(-0.119881 -0.0342041 0)
(-0.109313 -0.0448409 0)
(-0.0964635 -0.0513586 0)
(-0.0824753 -0.053676 0)
(-0.0680914 -0.0518938 0)
(-0.0537313 -0.0464335 0)
(-0.15038 -0.00588929 0)
(-0.146951 -0.0240646 0)
(-0.139145 -0.0399585 0)
(-0.127898 -0.0523676 0)
(-0.114289 -0.0605615 0)
(-0.0993381 -0.0643178 0)
(-0.084023 -0.0638871 0)
(-0.0686531 -0.059548 0)
(-0.169786 -0.00818986 0)
(-0.165962 -0.0282066 0)
(-0.15778 -0.0458947 0)
(-0.146039 -0.0600125 0)
(-0.131869 -0.069877 0)
(-0.116383 -0.0753671 0)
(-0.100384 -0.0765013 0)
(-0.0843302 -0.073689 0)
(-0.188431 -0.0110077 0)
(-0.184249 -0.0327274 0)
(-0.17571 -0.0520548 0)
(-0.163684 -0.0678689 0)
(-0.149241 -0.0795335 0)
(-0.13335 -0.0867796 0)
(-0.116966 -0.0897858 0)
(-0.100515 -0.0888881 0)
(-0.206321 -0.0144598 0)
(-0.201802 -0.0377168 0)
(-0.19302 -0.0586204 0)
(-0.180818 -0.0760897 0)
(-0.166191 -0.0895157 0)
(-0.150149 -0.0987579 0)
(-0.133551 -0.103795 0)
(-0.116832 -0.105088 0)
(-0.223482 -0.0186769 0)
(-0.218594 -0.0433296 0)
(-0.209595 -0.0656575 0)
(-0.197313 -0.0847565 0)
(-0.182671 -0.100079 0)
(-0.1666 -0.111354 0)
(-0.149864 -0.118689 0)
(-0.133026 -0.122411 0)
(-0.239809 -0.0238195 0)
(-0.234512 -0.0496536 0)
(-0.225357 -0.0733639 0)
(-0.213087 -0.0940654 0)
(-0.198492 -0.111291 0)
(-0.18243 -0.124802 0)
(-0.165673 -0.134575 0)
(-0.148614 -0.14096 0)
(-0.255108 -0.030038 0)
(-0.24939 -0.0569525 0)
(-0.240136 -0.0818648 0)
(-0.227875 -0.104182 0)
(-0.21339 -0.123354 0)
(-0.197325 -0.139214 0)
(-0.180441 -0.151623 0)
(-0.163058 -0.160892 0)
(-0.269011 -0.0377265 0)
(-0.2629 -0.0654021 0)
(-0.253504 -0.091452 0)
(-0.241327 -0.115231 0)
(-0.22682 -0.136431 0)
(-0.210685 -0.154705 0)
(-0.193387 -0.17001 0)
(-0.175465 -0.182377 0)
(-0.280905 -0.0470288 0)
(-0.274317 -0.0752281 0)
(-0.264776 -0.102098 0)
(-0.252547 -0.127244 0)
(-0.237973 -0.150367 0)
(-0.22141 -0.171241 0)
(-0.203376 -0.189593 0)
(-0.184149 -0.205425 0)
(-0.28853 -0.0575605 0)
(-0.281499 -0.0855642 0)
(-0.271757 -0.112744 0)
(-0.259397 -0.138838 0)
(-0.24454 -0.163595 0)
(-0.227327 -0.186776 0)
(-0.207925 -0.208159 0)
(-0.186521 -0.227536 0)
(-0.00187861 -0.00163187 0)
(-0.0034516 -0.00318459 0)
(-0.00456431 -0.00474197 0)
(-0.00524118 -0.00646383 0)
(-0.00535345 -0.00824681 0)
(-0.00483889 -0.00996239 0)
(-0.00372894 -0.0115478 0)
(-0.0020757 -0.012726 0)
(-0.00817454 -0.0072475 0)
(-0.0120784 -0.0115808 0)
(-0.0147741 -0.0161737 0)
(-0.0160598 -0.0209759 0)
(-0.0158071 -0.0259024 0)
(-0.0139224 -0.0307281 0)
(-0.0104216 -0.0349456 0)
(-0.00556487 -0.03799 0)
(-0.0165199 -0.0148334 0)
(-0.0220235 -0.021752 0)
(-0.0254472 -0.0289085 0)
(-0.0267507 -0.0364908 0)
(-0.0256701 -0.0441784 0)
(-0.0220934 -0.0514613 0)
(-0.016157 -0.0577066 0)
(-0.00831582 -0.0621041 0)
(-0.0267523 -0.0243568 0)
(-0.0329549 -0.0334072 0)
(-0.0365021 -0.0429424 0)
(-0.0372097 -0.0528526 0)
(-0.034877 -0.0627892 0)
(-0.029426 -0.0721589 0)
(-0.0210501 -0.0799527 0)
(-0.010411 -0.0852419 0)
(-0.03848 -0.035516 0)
(-0.0447425 -0.0465443 0)
(-0.0477067 -0.0580087 0)
(-0.0473656 -0.0699532 0)
(-0.0434506 -0.0817954 0)
(-0.035932 -0.0926689 0)
(-0.0251496 -0.101592 0)
(-0.0119015 -0.107394 0)
(-0.0515075 -0.0482736 0)
(-0.057063 -0.0608734 0)
(-0.0589678 -0.074113 0)
(-0.0571195 -0.0876777 0)
(-0.0513282 -0.100936 0)
(-0.0416337 -0.112999 0)
(-0.028479 -0.122657 0)
(-0.0128012 -0.128705 0)
(-0.0654398 -0.0623494 0)
(-0.0697779 -0.0764262 0)
(-0.0700698 -0.0910163 0)
(-0.0663812 -0.105932 0)
(-0.0584889 -0.120312 0)
(-0.0465284 -0.133087 0)
(-0.0310498 -0.143108 0)
(-0.0131116 -0.149175 0)
(-0.0800608 -0.0777536 0)
(-0.0825859 -0.0929494 0)
(-0.0809067 -0.108778 0)
(-0.0750327 -0.12466 0)
(-0.0648623 -0.139731 0)
(-0.0505788 -0.152957 0)
(-0.0328381 -0.163026 0)
(-0.0127872 -0.168913 0)
(-0.0949854 -0.0942834 0)
(-0.0953002 -0.11054 0)
(-0.0912582 -0.12722 0)
(-0.0829473 -0.143791 0)
(-0.0703386 -0.159301 0)
(-0.0537078 -0.172532 0)
(-0.0337904 -0.182393 0)
(-0.0117763 -0.187927 0)
(-0.109959 -0.112027 0)
(-0.107584 -0.129036 0)
(-0.100885 -0.146403 0)
(-0.0899195 -0.163334 0)
(-0.0747702 -0.178833 0)
(-0.0557955 -0.191837 0)
(-0.0337991 -0.201246 0)
(-0.00996669 -0.206269 0)
(-0.124544 -0.130946 0)
(-0.11915 -0.148582 0)
(-0.109464 -0.166276 0)
(-0.0956756 -0.183216 0)
(-0.0779226 -0.19843 0)
(-0.056652 -0.210846 0)
(-0.0327061 -0.219572 0)
(-0.00721404 -0.223934 0)
(-0.13833 -0.151166 0)
(-0.129515 -0.169177 0)
(-0.116583 -0.186933 0)
(-0.0998465 -0.203517 0)
(-0.0794569 -0.218018 0)
(-0.0560047 -0.22954 0)
(-0.0302626 -0.237338 0)
(-0.00331619 -0.240874 0)
(-0.150645 -0.172801 0)
(-0.138015 -0.190989 0)
(-0.121675 -0.208388 0)
(-0.101827 -0.224191 0)
(-0.0789281 -0.23758 0)
(-0.0534078 -0.247845 0)
(-0.0261419 -0.254407 0)
(0.00200909 -0.256908 0)
(-0.16042 -0.196066 0)
(-0.143712 -0.214008 0)
(-0.123669 -0.230591 0)
(-0.100843 -0.245041 0)
(-0.0755451 -0.256798 0)
(-0.0483686 -0.265366 0)
(-0.0199236 -0.270377 0)
(0.00901426 -0.271618 0)
(-0.165834 -0.220805 0)
(-0.144706 -0.237885 0)
(-0.121215 -0.252804 0)
(-0.0957213 -0.265184 0)
(-0.0686011 -0.274732 0)
(-0.0402737 -0.281209 0)
(-0.0112244 -0.284437 0)
(0.018054 -0.284343 0)
(-0.16332 -0.244723 0)
(-0.138547 -0.259553 0)
(-0.112439 -0.271883 0)
(-0.0852484 -0.281595 0)
(-0.0572368 -0.288595 0)
(-0.0286739 -0.292815 0)
(0.000165025 -0.294216 0)
(0.0290024 -0.292783 0)
)
;

boundaryField
{
    walls
    {
        type            cellMotion;
        value           uniform (0 0 0);
    }
    cylinder
    {
        type            cellMotion;
        value           nonuniform List<vector> 
16
(
(-0.28853 -0.0575605 0)
(-0.281499 -0.0855642 0)
(-0.271757 -0.112744 0)
(-0.259397 -0.138838 0)
(-0.24454 -0.163595 0)
(-0.227327 -0.186776 0)
(-0.207925 -0.208159 0)
(-0.186521 -0.227536 0)
(-0.16332 -0.244723 0)
(-0.138547 -0.259553 0)
(-0.112439 -0.271883 0)
(-0.0852484 -0.281595 0)
(-0.0572368 -0.288595 0)
(-0.0286739 -0.292815 0)
(0.000165025 -0.294216 0)
(0.0290024 -0.292783 0)
)
;
    }
    outlet
    {
        type            cellMotion;
        value           nonuniform List<vector> 0();
    }
    inlet
    {
        type            cellMotion;
        value           uniform (0 0 0);
    }
    frontAndBack
    {
        type            empty;
    }
    procBoundary2to0
    {
        type            processor;
        value           nonuniform List<vector> 
16
(
(-9.20508e-05 -0.0132175 0)
(6.65826e-05 -0.0391668 0)
(0.000547956 -0.0636931 0)
(0.00134536 -0.0869945 0)
(0.00245556 -0.109161 0)
(0.00391273 -0.130327 0)
(0.00574966 -0.150576 0)
(0.00803393 -0.169989 0)
(0.0108445 -0.188629 0)
(0.0142959 -0.206507 0)
(0.0185326 -0.223646 0)
(0.0237133 -0.239953 0)
(0.0300053 -0.255207 0)
(0.0377297 -0.269101 0)
(0.0470465 -0.280937 0)
(0.0575605 -0.28853 0)
)
;
    }
    procBoundary2to3
    {
        type            processor;
        value           nonuniform List<vector> 
16
(
(-0.0127009 0.00207713 0)
(-0.0379163 0.00556507 0)
(-0.061986 0.00831268 0)
(-0.085086 0.0104011 0)
(-0.107208 0.011883 0)
(-0.128498 0.0127719 0)
(-0.148958 0.0130709 0)
(-0.168699 0.0127357 0)
(-0.187724 0.0117115 0)
(-0.206089 0.00989286 0)
(-0.223779 0.00714119 0)
(-0.24075 0.00325622 0)
(-0.256803 -0.00203597 0)
(-0.271558 -0.00900237 0)
(-0.284312 -0.0180388 0)
(-0.292783 -0.0290024 0)
)
;
    }
}


// ************************************************************************* //
