/*--------------------------------*- C++ -*----------------------------------*\
| =========                 |                                                 |
| \\      /  F ield         | OpenFOAM: The Open Source CFD Toolbox           |
|  \\    /   O peration     | Version:  2412                                  |
|   \\  /    A nd           | Website:  www.openfoam.com                      |
|    \\/     M anipulation  |                                                 |
\*---------------------------------------------------------------------------*/
FoamFile
{
    version     2.0;
    format      ascii;
    arch        "LSB;label=32;scalar=64";
    class       surfaceScalarField;
    location    "0.4";
    object      meshPhi;
}
// * * * * * * * * * * * * * * * * * * * * * * * * * * * * * * * * * * * * * //

dimensions      [0 3 -1 0 0 0 0];

internalField   nonuniform List<scalar> 
480
(
0.00359011
-0.00230154
0.00381239
0.000775984
0.00409032
0.00425727
0.00415507
0.00719289
0.00377183
0.00853284
0.00301292
0.00812038
0.00204576
0.00659606
0.00516274
0.00155078
0.0106395
-0.00400834
0.0112886
0.00147664
0.0119934
0.00751598
0.0120809
0.0125552
0.011071
0.0150431
0.00910806
0.0147799
0.00651984
0.0126048
0.0102759
0.00515621
0.0173892
-0.00512951
0.0183574
0.00208692
0.0192928
0.00984895
0.0193208
0.0163301
0.0179756
0.0198464
0.0152784
0.0200331
0.0116597
0.0177126
0.0150729
0.00979432
0.0238389
-0.00578197
0.024856
0.00256393
0.0258576
0.0113636
0.025975
0.0188705
0.0245558
0.0232834
0.0215015
0.0240628
0.0174079
0.0220582
0.0196213
0.0155199
0.0300474
-0.00606798
0.0309126
0.0030094
0.0318906
0.0124573
0.0322503
0.0206133
0.0309497
0.0256884
0.0279866
0.0271744
0.0239449
0.0258164
0.0237813
0.0223166
0.0360837
-0.00597848
0.0368686
0.00353317
0.0377919
0.0132798
0.0383103
0.0216941
0.037302
0.027181
0.0348448
0.0293366
0.0312587
0.0287232
0.0271704
0.0300031
0.0419227
-0.00558566
0.0427441
0.0040186
0.0436742
0.0137426
0.0442863
0.0221552
0.0437351
0.0278733
0.0419987
0.0305613
0.0390175
0.0305211
0.0293542
0.0382126
0.0475133
-0.00500995
0.0483464
0.00442025
0.0494411
0.0138493
0.0502874
0.0220106
0.0503025
0.0277527
0.0492458
0.0307202
0.0468799
0.031088
0.0303638
0.0466894
0.0529289
-0.00428817
0.0537691
0.00469286
0.0551171
0.0136159
0.0563338
0.0213068
0.0568032
0.0268057
0.0563156
0.0298344
0.0547415
0.0305774
0.0303854
0.0554311
0.0581995
-0.00342898
0.0591943
0.00486893
0.0607656
0.0129436
0.0622624
0.0198956
0.0631317
0.0250259
0.0632857
0.0281421
0.0628173
0.0293694
0.0298489
0.0648772
0.0633491
-0.00255419
0.064526
0.00479223
0.0662438
0.0117766
0.0680305
0.017901
0.0695248
0.0226679
0.0706414
0.0258907
0.0717863
0.0276372
0.0286418
0.0756223
0.0683996
-0.0016857
0.0696538
0.0044326
0.071595
0.0102524
0.073914
0.0154547
0.0763627
0.0197228
0.0789792
0.0228987
0.0820262
0.0248429
0.0260803
0.0874878
0.073232
-0.000761588
0.0746344
0.00394929
0.0769998
0.00847646
0.0801237
0.0126446
0.0839304
0.0161955
0.0883706
0.0189048
0.0932253
0.0206922
0.0219797
0.100014
0.0777165
0.000237526
0.0794539
0.00343606
0.0824617
0.00661173
0.0866251
0.00959942
0.0919508
0.0121644
0.0981645
0.0140672
0.104837
0.0153503
0.0164778
0.112914
0.0815234
0.00151187
0.0837479
0.0030635
0.087535
0.00462391
0.0927484
0.00611257
0.0993376
0.007411
0.107025
0.00839649
0.115395
0.00913269
0.00986465
0.124845
0.0814185
0.084381
0.0889204
0.0948579
0.102014
0.110139
0.118926
0.128304
0.00186919
-0.00369209
0.00252347
-0.0055587
0.00313887
-0.00767944
0.00339871
-0.00900603
0.00331488
-0.00913807
0.00330336
-0.00832608
0.00339975
-0.0068835
-0.00474088
0.00594745
-0.008343
0.00782146
-0.0114117
0.00941345
-0.014815
0.010122
-0.016718
0.00996807
-0.0167509
0.00980727
-0.0151147
0.0100364
-0.0122562
-0.00838597
0.0108576
-0.0137412
0.0135539
-0.0173926
0.0157077
-0.0212732
0.0167124
-0.0232902
0.0165944
-0.0230501
0.0161554
-0.0205934
0.0163889
-0.0164189
-0.011112
0.0166218
-0.01942
0.0197069
-0.0231503
0.0220591
-0.0269703
0.0231945
-0.02863
0.0231826
-0.0279632
0.022593
-0.0248992
0.0226973
-0.0197014
-0.0131578
0.0231892
-0.0250843
0.0263101
-0.0285334
0.0285561
-0.0318655
0.0296416
-0.0329341
0.0296726
-0.0316555
0.0290866
-0.0279476
0.0290353
-0.0219899
-0.0145555
0.0303911
-0.0301636
0.0332377
-0.033003
0.035181
-0.0356151
0.0360238
-0.0359215
0.0358916
-0.0338879
0.0353456
-0.0295835
0.0352349
-0.0231671
-0.0152453
0.0379606
-0.0342132
0.0402658
-0.0363311
0.0417854
-0.0379859
0.0422964
-0.0375399
0.0419248
-0.0348972
0.0413994
-0.0301222
0.0412293
-0.0234137
-0.0152914
0.0457767
-0.0369456
0.0474144
-0.0384183
0.0483927
-0.0391856
0.0485519
-0.0379247
0.0480271
-0.0347448
0.047407
-0.0296858
0.0470591
-0.0228575
-0.0148082
0.0539031
-0.0382078
0.0549002
-0.0391904
0.0552332
-0.0392083
0.0549904
-0.0372429
0.0542477
-0.0335637
0.0533405
-0.0283117
0.0527298
-0.0215648
-0.0138455
0.062723
-0.0381527
0.0628719
-0.0385923
0.0624674
-0.0378824
0.0616132
-0.0353496
0.0604118
-0.0313269
0.0591305
-0.0260607
0.0582282
-0.0196493
-0.0124713
0.0725492
-0.0368078
0.0714175
-0.0366763
0.0699312
-0.0351845
0.0682002
-0.0321814
0.0663749
-0.0280389
0.0647056
-0.0229836
0.0635507
-0.017128
-0.0106578
0.0832266
-0.033669
0.0804518
-0.0330866
0.0775579
-0.0310024
0.0747542
-0.0277823
0.0721742
-0.0237713
0.0700653
-0.0191434
0.0687103
-0.013951
-0.00829932
0.0943284
-0.0283275
0.0898145
-0.0274303
0.0853889
-0.025149
0.081347
-0.0220578
0.0779024
-0.0184884
0.0752653
-0.0145244
0.0736413
-0.010185
-0.00558788
0.105611
-0.0204985
0.0992744
-0.0195039
0.0932148
-0.017382
0.0878502
-0.014855
0.0834285
-0.0120913
0.0801392
-0.00913094
0.0781122
-0.00600663
-0.00282208
0.116016
-0.00971476
0.107698
-0.00885565
0.100046
-0.00753088
0.0934232
-0.00610533
0.0880635
-0.00461561
0.0841321
-0.00307571
0.0817296
-0.00150555
4.94508e-05
0.117744
0.107948
0.0993518
0.0921773
0.0865852
0.0826792
0.0805271
)
;

boundaryField
{
    walls
    {
        type            calculated;
        value           uniform 0;
    }
    cylinder
    {
        type            calculated;
        value           nonuniform List<scalar> 
16
(
1.80552e-11
-2.21682e-11
-7.35356e-12
1.3379e-11
-3.7679e-11
2.72942e-11
4.22664e-11
-2.13975e-11
2.13978e-11
-4.22659e-11
-2.72935e-11
3.76793e-11
-1.33791e-11
7.35471e-12
2.21697e-11
-1.80544e-11
)
;
    }
    outlet
    {
        type            calculated;
        value           nonuniform List<scalar> 0();
    }
    inlet
    {
        type            calculated;
        value           uniform 0;
    }
    frontAndBack
    {
        type            empty;
    }
    procBoundary2to0
    {
        type            processor;
        value           nonuniform List<scalar> 
16
(
0.003506
0.0104335
0.0171131
0.0235239
0.0297146
0.03572
0.0415669
0.0472783
0.0528105
0.0580904
0.0632312
0.0683098
0.073129
0.0774596
0.0809551
0.0801393
)
;
    }
    procBoundary2to3
    {
        type            processor;
        value           nonuniform List<scalar> 
16
(
-0.00342384
-0.010203
-0.0167761
-0.0231319
-0.0293233
-0.0353775
-0.0412895
-0.04706
-0.0526343
-0.0579333
-0.063053
-0.0680855
-0.0728901
-0.0772538
-0.0808394
-0.0801141
)
;
    }
}


// ************************************************************************* //
