/*--------------------------------*- C++ -*----------------------------------*\
| =========                 |                                                 |
| \\      /  F ield         | OpenFOAM: The Open Source CFD Toolbox           |
|  \\    /   O peration     | Version:  2412                                  |
|   \\  /    A nd           | Website:  www.openfoam.com                      |
|    \\/     M anipulation  |                                                 |
\*---------------------------------------------------------------------------*/
FoamFile
{
    version     2.0;
    format      ascii;
    arch        "LSB;label=32;scalar=64";
    class       pointVectorField;
    location    "0.4";
    object      pointDisplacement;
}
// * * * * * * * * * * * * * * * * * * * * * * * * * * * * * * * * * * * * * //

dimensions      [0 1 0 0 0 0 0];

internalField   nonuniform List<vector> 
578
(
(0 0 0)
(0 0 0)
(0 0 0)
(0 0 0)
(0 0 0)
(0 0 0)
(0 0 0)
(0 0 0)
(0 0 0)
(-0.0257631 0.00191552 0)
(-0.025867 -0.00190298 0)
(-0.0245208 -0.00538315 0)
(-0.0219537 -0.0079899 0)
(-0.018539 -0.00934647 0)
(-0.0146848 -0.00933806 0)
(-0.010752 -0.00808909 0)
(-0.00690938 -0.00582783 0)
(-0.00490424 -0.00435167 0)
(-0.0506821 0.00330027 0)
(-0.0507661 -0.00392747 0)
(-0.0482951 -0.0105132 0)
(-0.0436584 -0.0155549 0)
(-0.0374878 -0.0184136 0)
(-0.0304737 -0.0188619 0)
(-0.0232348 -0.0170596 0)
(-0.0160788 -0.0133273 0)
(-0.012283 -0.0108882 0)
(-0.074412 0.00417541 0)
(-0.0743629 -0.00606466 0)
(-0.0709516 -0.0153981 0)
(-0.0646893 -0.0226888 0)
(-0.056376 -0.0271293 0)
(-0.046882 -0.0284033 0)
(-0.0369864 -0.0266438 0)
(-0.0271151 -0.0221918 0)
(-0.0217327 -0.0192944 0)
(-0.0970664 0.00457767 0)
(-0.0968044 -0.00834815 0)
(-0.0926054 -0.02014 0)
(-0.0850772 -0.0295288 0)
(-0.0751296 -0.0356076 0)
(-0.0637308 -0.0379885 0)
(-0.0517644 -0.0367636 0)
(-0.0397436 -0.0322564 0)
(-0.0329767 -0.0293909 0)
(-0.118738 0.00451644 0)
(-0.118205 -0.0108233 0)
(-0.113356 -0.0248435 0)
(-0.104863 -0.0362095 0)
(-0.0936944 -0.04396 0)
(-0.0808711 -0.0476656 0)
(-0.0673427 -0.0473764 0)
(-0.0536846 -0.0433842 0)
(-0.045711 -0.0409962 0)
(-0.139518 0.00397894 0)
(-0.138675 -0.0135485 0)
(-0.1333 -0.0296102 0)
(-0.124082 -0.0428506 0)
(-0.112015 -0.0522934 0)
(-0.0981667 -0.0574938 0)
(-0.0835078 -0.0584644 0)
(-0.0686545 -0.0554673 0)
(-0.0596339 -0.0539571 0)
(-0.159476 0.00292968 0)
(-0.158289 -0.0165914 0)
(-0.152479 -0.0345361 0)
(-0.142736 -0.049565 0)
(-0.130047 -0.0607141 0)
(-0.115495 -0.0675449 0)
(-0.100058 -0.0700374 0)
(-0.0843789 -0.0684321 0)
(-0.0744322 -0.0681416 0)
(-0.178678 0.00130911 0)
(-0.177124 -0.0200369 0)
(-0.170943 -0.0397253 0)
(-0.160822 -0.0564632 0)
(-0.14773 -0.0693309 0)
(-0.132734 -0.0779011 0)
(-0.116796 -0.0821258 0)
(-0.10058 -0.0822398 0)
(-0.0898004 -0.0834652 0)
(-0.197157 -0.000969999 0)
(-0.195216 -0.0239822 0)
(-0.188711 -0.0452838 0)
(-0.178325 -0.0636628 0)
(-0.165003 -0.0782581 0)
(-0.149755 -0.0886565 0)
(-0.133528 -0.0947944 0)
(-0.116996 -0.0969098 0)
(-0.105421 -0.0998913 0)
(-0.214932 -0.00403071 0)
(-0.212563 -0.0285501 0)
(-0.205766 -0.0513344 0)
(-0.195202 -0.0712841 0)
(-0.181766 -0.0876148 0)
(-0.166423 -0.099934 0)
(-0.150064 -0.108161 0)
(-0.133346 -0.112512 0)
(-0.120963 -0.117449 0)
(-0.231967 -0.00803061 0)
(-0.22911 -0.0338743 0)
(-0.222026 -0.0580038 0)
(-0.211351 -0.0794627 0)
(-0.197906 -0.0975507 0)
(-0.182567 -0.111886 0)
(-0.166162 -0.122363 0)
(-0.149319 -0.12917 0)
(-0.136029 -0.136216 0)
(-0.248128 -0.0131661 0)
(-0.244714 -0.0401201 0)
(-0.237358 -0.0654607 0)
(-0.226625 -0.0883696 0)
(-0.213224 -0.108224 0)
(-0.197925 -0.124667 0)
(-0.181485 -0.137558 0)
(-0.164468 -0.147019 0)
(-0.150091 -0.156318 0)
(-0.263128 -0.0197083 0)
(-0.259109 -0.0475342 0)
(-0.25149 -0.0739193 0)
(-0.240719 -0.0981819 0)
(-0.227364 -0.119798 0)
(-0.212068 -0.138425 0)
(-0.195475 -0.153888 0)
(-0.178106 -0.166225 0)
(-0.162357 -0.177919 0)
(-0.276453 -0.0279585 0)
(-0.271788 -0.0563518 0)
(-0.26388 -0.0835468 0)
(-0.253045 -0.109005 0)
(-0.239675 -0.132315 0)
(-0.224233 -0.153181 0)
(-0.207228 -0.171382 0)
(-0.189111 -0.186845 0)
(-0.171456 -0.201084 0)
(-0.286637 -0.0379215 0)
(-0.281316 -0.0663546 0)
(-0.273091 -0.0939134 0)
(-0.262124 -0.120232 0)
(-0.24862 -0.14501 0)
(-0.232821 -0.167992 0)
(-0.215021 -0.188938 0)
(-0.195508 -0.207675 0)
(-0.174963 -0.224595 0)
(-0.291358 -0.0433859 0)
(-0.285702 -0.0717351 0)
(-0.277295 -0.0993934 0)
(-0.266218 -0.126094 0)
(-0.252577 -0.151581 0)
(-0.236503 -0.175608 0)
(-0.218151 -0.197944 0)
(-0.197699 -0.218373 0)
(-0.175343 -0.2367 0)
(0 0 0)
(0 0 0)
(0 0 0)
(0 0 0)
(0 0 0)
(0 0 0)
(0 0 0)
(0 0 0)
(0 0 0)
(-0.0257631 0.00191552 0)
(-0.025867 -0.00190298 0)
(-0.0245208 -0.00538315 0)
(-0.0219537 -0.0079899 0)
(-0.018539 -0.00934647 0)
(-0.0146848 -0.00933806 0)
(-0.010752 -0.00808909 0)
(-0.00690938 -0.00582783 0)
(-0.00490424 -0.00435167 0)
(-0.0506821 0.00330027 0)
(-0.0507661 -0.00392747 0)
(-0.0482951 -0.0105132 0)
(-0.0436584 -0.0155549 0)
(-0.0374878 -0.0184136 0)
(-0.0304737 -0.0188619 0)
(-0.0232348 -0.0170596 0)
(-0.0160788 -0.0133273 0)
(-0.012283 -0.0108882 0)
(-0.074412 0.00417541 0)
(-0.0743629 -0.00606466 0)
(-0.0709516 -0.0153981 0)
(-0.0646893 -0.0226888 0)
(-0.056376 -0.0271293 0)
(-0.046882 -0.0284033 0)
(-0.0369864 -0.0266438 0)
(-0.0271151 -0.0221918 0)
(-0.0217327 -0.0192944 0)
(-0.0970664 0.00457767 0)
(-0.0968044 -0.00834815 0)
(-0.0926054 -0.02014 0)
(-0.0850772 -0.0295288 0)
(-0.0751296 -0.0356076 0)
(-0.0637308 -0.0379885 0)
(-0.0517644 -0.0367636 0)
(-0.0397436 -0.0322564 0)
(-0.0329767 -0.0293909 0)
(-0.118738 0.00451644 0)
(-0.118205 -0.0108233 0)
(-0.113356 -0.0248435 0)
(-0.104863 -0.0362095 0)
(-0.0936944 -0.04396 0)
(-0.0808711 -0.0476656 0)
(-0.0673427 -0.0473764 0)
(-0.0536846 -0.0433842 0)
(-0.045711 -0.0409962 0)
(-0.139518 0.00397894 0)
(-0.138675 -0.0135485 0)
(-0.1333 -0.0296102 0)
(-0.124082 -0.0428506 0)
(-0.112015 -0.0522934 0)
(-0.0981667 -0.0574938 0)
(-0.0835078 -0.0584644 0)
(-0.0686545 -0.0554673 0)
(-0.0596339 -0.0539571 0)
(-0.159476 0.00292968 0)
(-0.158289 -0.0165914 0)
(-0.152479 -0.0345361 0)
(-0.142736 -0.049565 0)
(-0.130047 -0.0607141 0)
(-0.115495 -0.0675449 0)
(-0.100058 -0.0700374 0)
(-0.0843789 -0.0684321 0)
(-0.0744322 -0.0681416 0)
(-0.178678 0.00130911 0)
(-0.177124 -0.0200369 0)
(-0.170943 -0.0397253 0)
(-0.160822 -0.0564632 0)
(-0.14773 -0.0693309 0)
(-0.132734 -0.0779011 0)
(-0.116796 -0.0821258 0)
(-0.10058 -0.0822398 0)
(-0.0898004 -0.0834652 0)
(-0.197157 -0.000969999 0)
(-0.195216 -0.0239822 0)
(-0.188711 -0.0452838 0)
(-0.178325 -0.0636628 0)
(-0.165003 -0.0782581 0)
(-0.149755 -0.0886565 0)
(-0.133528 -0.0947944 0)
(-0.116996 -0.0969098 0)
(-0.105421 -0.0998913 0)
(-0.214932 -0.00403071 0)
(-0.212563 -0.0285501 0)
(-0.205766 -0.0513344 0)
(-0.195202 -0.0712841 0)
(-0.181766 -0.0876148 0)
(-0.166423 -0.099934 0)
(-0.150064 -0.108161 0)
(-0.133346 -0.112512 0)
(-0.120963 -0.117449 0)
(-0.231967 -0.00803061 0)
(-0.22911 -0.0338743 0)
(-0.222026 -0.0580038 0)
(-0.211351 -0.0794627 0)
(-0.197906 -0.0975507 0)
(-0.182567 -0.111886 0)
(-0.166162 -0.122363 0)
(-0.149319 -0.12917 0)
(-0.136029 -0.136216 0)
(-0.248128 -0.0131661 0)
(-0.244714 -0.0401201 0)
(-0.237358 -0.0654607 0)
(-0.226625 -0.0883696 0)
(-0.213224 -0.108224 0)
(-0.197925 -0.124667 0)
(-0.181485 -0.137558 0)
(-0.164468 -0.147019 0)
(-0.150091 -0.156318 0)
(-0.263128 -0.0197083 0)
(-0.259109 -0.0475342 0)
(-0.25149 -0.0739193 0)
(-0.240719 -0.0981819 0)
(-0.227364 -0.119798 0)
(-0.212068 -0.138425 0)
(-0.195475 -0.153888 0)
(-0.178106 -0.166225 0)
(-0.162357 -0.177919 0)
(-0.276453 -0.0279585 0)
(-0.271788 -0.0563518 0)
(-0.26388 -0.0835468 0)
(-0.253045 -0.109005 0)
(-0.239675 -0.132315 0)
(-0.224233 -0.153181 0)
(-0.207228 -0.171382 0)
(-0.189111 -0.186845 0)
(-0.171456 -0.201084 0)
(-0.286637 -0.0379215 0)
(-0.281316 -0.0663546 0)
(-0.273091 -0.0939134 0)
(-0.262124 -0.120232 0)
(-0.24862 -0.14501 0)
(-0.232821 -0.167992 0)
(-0.215021 -0.188938 0)
(-0.195508 -0.207675 0)
(-0.174963 -0.224595 0)
(-0.291358 -0.0433859 0)
(-0.285702 -0.0717351 0)
(-0.277295 -0.0993934 0)
(-0.266218 -0.126094 0)
(-0.252577 -0.151581 0)
(-0.236503 -0.175608 0)
(-0.218151 -0.197944 0)
(-0.197699 -0.218373 0)
(-0.175343 -0.2367 0)
(0 0 0)
(0 0 0)
(0 0 0)
(0 0 0)
(0 0 0)
(0 0 0)
(0 0 0)
(0 0 0)
(-0.00638435 -0.00589476 0)
(-0.00871603 -0.00890773 0)
(-0.0101681 -0.0120821 0)
(-0.01063 -0.0153961 0)
(-0.00999886 -0.0187152 0)
(-0.00824743 -0.0218101 0)
(-0.00546447 -0.0243259 0)
(-0.00192646 -0.0258074 0)
(-0.0146979 -0.0138428 0)
(-0.0185885 -0.0195989 0)
(-0.0207705 -0.0256353 0)
(-0.0210884 -0.03189 0)
(-0.0193916 -0.0380774 0)
(-0.0156661 -0.0437271 0)
(-0.0101287 -0.0482105 0)
(-0.00332409 -0.0507688 0)
(-0.0245714 -0.0235837 0)
(-0.029245 -0.031752 0)
(-0.0314937 -0.0403021 0)
(-0.0311445 -0.0490854 0)
(-0.0280339 -0.0576594 0)
(-0.0221969 -0.0653386 0)
(-0.0139945 -0.0712756 0)
(-0.00421353 -0.0745368 0)
(-0.0357472 -0.0349557 0)
(-0.0404948 -0.0452309 0)
(-0.0422142 -0.0559464 0)
(-0.0407435 -0.0668584 0)
(-0.0359376 -0.0773689 0)
(-0.0279022 -0.0866132 0)
(-0.0171362 -0.0935692 0)
(-0.0046308 -0.097224 0)
(-0.0479689 -0.0478062 0)
(-0.0521406 -0.0598929 0)
(-0.0528095 -0.0724493 0)
(-0.0498334 -0.085105 0)
(-0.0431005 -0.0971174 0)
(-0.0328088 -0.1075 0)
(-0.0195883 -0.11511 0)
(-0.00458454 -0.118921 0)
(-0.0609705 -0.0619868 0)
(-0.0639923 -0.0756196 0)
(-0.0631541 -0.0896984 0)
(-0.0583458 -0.103731 0)
(-0.0495071 -0.116853 0)
(-0.0369304 -0.127985 0)
(-0.0213634 -0.135934 0)
(-0.00406186 -0.139718 0)
(-0.074492 -0.0773793 0)
(-0.0758577 -0.0923066 0)
(-0.0731167 -0.107613 0)
(-0.0662059 -0.122678 0)
(-0.0551246 -0.136542 0)
(-0.0402539 -0.148066 0)
(-0.0224475 -0.156077 0)
(-0.00302668 -0.159683 0)
(-0.088259 -0.0938923 0)
(-0.0875348 -0.109889 0)
(-0.0825537 -0.126131 0)
(-0.0733077 -0.141891 0)
(-0.0598792 -0.156152 0)
(-0.0427313 -0.167748 0)
(-0.0227968 -0.175585 0)
(-0.00141804 -0.178882 0)
(-0.101983 -0.111485 0)
(-0.098777 -0.128318 0)
(-0.0912677 -0.145208 0)
(-0.0795036 -0.161337 0)
(-0.0636575 -0.175647 0)
(-0.0442732 -0.187022 0)
(-0.0223302 -0.194477 0)
(0.000853498 -0.197349 0)
(-0.115332 -0.130162 0)
(-0.109288 -0.147595 0)
(-0.0989982 -0.164829 0)
(-0.0845785 -0.180976 0)
(-0.0662865 -0.195008 0)
(-0.0447357 -0.205894 0)
(-0.0209169 -0.212772 0)
(0.00391693 -0.215103 0)
(-0.127905 -0.149984 0)
(-0.118692 -0.167764 0)
(-0.1054 -0.185009 0)
(-0.0882282 -0.200818 0)
(-0.067507 -0.21423 0)
(-0.0439013 -0.224342 0)
(-0.0183685 -0.230444 0)
(0.00793472 -0.232114 0)
(-0.139142 -0.171051 0)
(-0.126456 -0.188895 0)
(-0.109987 -0.205782 0)
(-0.0900127 -0.22085 0)
(-0.0669437 -0.233266 0)
(-0.0414462 -0.242299 0)
(-0.0144198 -0.247395 0)
(0.0131096 -0.248246 0)
(-0.148207 -0.193486 0)
(-0.131771 -0.211019 0)
(-0.112001 -0.227078 0)
(-0.0892785 -0.240926 0)
(-0.0640518 -0.251917 0)
(-0.0369492 -0.259514 0)
(-0.0087503 -0.263339 0)
(0.0196971 -0.263217 0)
(-0.153669 -0.217214 0)
(-0.133319 -0.23385 0)
(-0.11035 -0.248431 0)
(-0.0851624 -0.260462 0)
(-0.0581807 -0.269544 0)
(-0.029932 -0.27536 0)
(-0.001007 -0.277703 0)
(0.0279705 -0.276506 0)
(-0.153083 -0.240782 0)
(-0.129201 -0.255568 0)
(-0.103628 -0.267897 0)
(-0.0766736 -0.27755 0)
(-0.0486699 -0.284355 0)
(-0.0199786 -0.288181 0)
(0.00901796 -0.288952 0)
(0.0379297 -0.286653 0)
(-0.151298 -0.252746 0)
(-0.125796 -0.266359 0)
(-0.0990823 -0.277407 0)
(-0.0714145 -0.285783 0)
(-0.043059 -0.291406 0)
(-0.0142889 -0.294224 0)
(0.0146189 -0.294208 0)
(0.0433859 -0.291358 0)
(0 0 0)
(0 0 0)
(0 0 0)
(0 0 0)
(0 0 0)
(0 0 0)
(0 0 0)
(0 0 0)
(-0.00638435 -0.00589476 0)
(-0.00871603 -0.00890773 0)
(-0.0101681 -0.0120821 0)
(-0.01063 -0.0153961 0)
(-0.00999886 -0.0187152 0)
(-0.00824743 -0.0218101 0)
(-0.00546447 -0.0243259 0)
(-0.00192646 -0.0258074 0)
(-0.0146979 -0.0138428 0)
(-0.0185885 -0.0195989 0)
(-0.0207705 -0.0256353 0)
(-0.0210884 -0.03189 0)
(-0.0193916 -0.0380774 0)
(-0.0156661 -0.0437271 0)
(-0.0101287 -0.0482105 0)
(-0.00332409 -0.0507688 0)
(-0.0245714 -0.0235837 0)
(-0.029245 -0.031752 0)
(-0.0314937 -0.0403021 0)
(-0.0311445 -0.0490854 0)
(-0.0280339 -0.0576594 0)
(-0.0221969 -0.0653386 0)
(-0.0139945 -0.0712756 0)
(-0.00421353 -0.0745368 0)
(-0.0357472 -0.0349557 0)
(-0.0404948 -0.0452309 0)
(-0.0422142 -0.0559464 0)
(-0.0407435 -0.0668584 0)
(-0.0359376 -0.0773689 0)
(-0.0279022 -0.0866132 0)
(-0.0171362 -0.0935692 0)
(-0.0046308 -0.097224 0)
(-0.0479689 -0.0478062 0)
(-0.0521406 -0.0598929 0)
(-0.0528095 -0.0724493 0)
(-0.0498334 -0.085105 0)
(-0.0431005 -0.0971174 0)
(-0.0328088 -0.1075 0)
(-0.0195883 -0.11511 0)
(-0.00458454 -0.118921 0)
(-0.0609705 -0.0619868 0)
(-0.0639923 -0.0756196 0)
(-0.0631541 -0.0896984 0)
(-0.0583458 -0.103731 0)
(-0.0495071 -0.116853 0)
(-0.0369304 -0.127985 0)
(-0.0213634 -0.135934 0)
(-0.00406186 -0.139718 0)
(-0.074492 -0.0773793 0)
(-0.0758577 -0.0923066 0)
(-0.0731167 -0.107613 0)
(-0.0662059 -0.122678 0)
(-0.0551246 -0.136542 0)
(-0.0402539 -0.148066 0)
(-0.0224475 -0.156077 0)
(-0.00302668 -0.159683 0)
(-0.088259 -0.0938923 0)
(-0.0875348 -0.109889 0)
(-0.0825537 -0.126131 0)
(-0.0733077 -0.141891 0)
(-0.0598792 -0.156152 0)
(-0.0427313 -0.167748 0)
(-0.0227968 -0.175585 0)
(-0.00141804 -0.178882 0)
(-0.101983 -0.111485 0)
(-0.098777 -0.128318 0)
(-0.0912677 -0.145208 0)
(-0.0795036 -0.161337 0)
(-0.0636575 -0.175647 0)
(-0.0442732 -0.187022 0)
(-0.0223302 -0.194477 0)
(0.000853498 -0.197349 0)
(-0.115332 -0.130162 0)
(-0.109288 -0.147595 0)
(-0.0989982 -0.164829 0)
(-0.0845785 -0.180976 0)
(-0.0662865 -0.195008 0)
(-0.0447357 -0.205894 0)
(-0.0209169 -0.212772 0)
(0.00391693 -0.215103 0)
(-0.127905 -0.149984 0)
(-0.118692 -0.167764 0)
(-0.1054 -0.185009 0)
(-0.0882282 -0.200818 0)
(-0.067507 -0.21423 0)
(-0.0439013 -0.224342 0)
(-0.0183685 -0.230444 0)
(0.00793472 -0.232114 0)
(-0.139142 -0.171051 0)
(-0.126456 -0.188895 0)
(-0.109987 -0.205782 0)
(-0.0900127 -0.22085 0)
(-0.0669437 -0.233266 0)
(-0.0414462 -0.242299 0)
(-0.0144198 -0.247395 0)
(0.0131096 -0.248246 0)
(-0.148207 -0.193486 0)
(-0.131771 -0.211019 0)
(-0.112001 -0.227078 0)
(-0.0892785 -0.240926 0)
(-0.0640518 -0.251917 0)
(-0.0369492 -0.259514 0)
(-0.0087503 -0.263339 0)
(0.0196971 -0.263217 0)
(-0.153669 -0.217214 0)
(-0.133319 -0.23385 0)
(-0.11035 -0.248431 0)
(-0.0851624 -0.260462 0)
(-0.0581807 -0.269544 0)
(-0.029932 -0.27536 0)
(-0.001007 -0.277703 0)
(0.0279705 -0.276506 0)
(-0.153083 -0.240782 0)
(-0.129201 -0.255568 0)
(-0.103628 -0.267897 0)
(-0.0766736 -0.27755 0)
(-0.0486699 -0.284355 0)
(-0.0199786 -0.288181 0)
(0.00901796 -0.288952 0)
(0.0379297 -0.286653 0)
(-0.151298 -0.252746 0)
(-0.125796 -0.266359 0)
(-0.0990823 -0.277407 0)
(-0.0714145 -0.285783 0)
(-0.043059 -0.291406 0)
(-0.0142889 -0.294224 0)
(0.0146189 -0.294208 0)
(0.0433859 -0.291358 0)
)
;

boundaryField
{
    walls
    {
        type            fixedValue;
        value           uniform (0 0 0);
    }
    cylinder
    {
        type            solidBodyMotionDisplacement;
        value           nonuniform List<vector> 
34
(
(-0.291358 -0.0433859 0)
(-0.291358 -0.0433859 0)
(-0.285702 -0.0717351 0)
(-0.285702 -0.0717351 0)
(-0.277295 -0.0993934 0)
(-0.277295 -0.0993934 0)
(-0.266218 -0.126094 0)
(-0.266218 -0.126094 0)
(-0.252577 -0.151581 0)
(-0.252577 -0.151581 0)
(-0.236503 -0.175608 0)
(-0.236503 -0.175608 0)
(-0.218151 -0.197944 0)
(-0.218151 -0.197944 0)
(-0.197699 -0.218373 0)
(-0.197699 -0.218373 0)
(-0.175343 -0.2367 0)
(-0.175343 -0.2367 0)
(-0.151298 -0.252746 0)
(-0.151298 -0.252746 0)
(-0.125796 -0.266359 0)
(-0.125796 -0.266359 0)
(-0.0990823 -0.277407 0)
(-0.0990823 -0.277407 0)
(-0.0714145 -0.285783 0)
(-0.0714145 -0.285783 0)
(-0.043059 -0.291406 0)
(-0.043059 -0.291406 0)
(-0.0142889 -0.294224 0)
(-0.0142889 -0.294224 0)
(0.0146189 -0.294208 0)
(0.0146189 -0.294208 0)
(0.0433859 -0.291358 0)
(0.0433859 -0.291358 0)
)
;
        solidBodyMotionFunction oscillatingRotatingMotion;
        oscillatingRotatingMotionCoeffs
        {
            origin          ( 0 0 0 );
            axis            ( 0 0 1 );
            omega           1.5;
            amplitude       ( 0 0 30 );
        }
    }
    outlet
    {
        type            fixedValue;
        value           nonuniform List<vector> 0();
    }
    inlet
    {
        type            fixedValue;
        value           uniform (0 0 0);
    }
    frontAndBack
    {
        type            empty;
    }
    procBoundary2to0
    {
        type            processor;
    }
    procBoundary2to3
    {
        type            processor;
    }
}


// ************************************************************************* //
