/*--------------------------------*- C++ -*----------------------------------*\
| =========                 |                                                 |
| \\      /  F ield         | OpenFOAM: The Open Source CFD Toolbox           |
|  \\    /   O peration     | Version:  2412                                  |
|   \\  /    A nd           | Website:  www.openfoam.com                      |
|    \\/     M anipulation  |                                                 |
\*---------------------------------------------------------------------------*/
FoamFile
{
    version     2.0;
    format      ascii;
    arch        "LSB;label=32;scalar=64";
    class       surfaceScalarField;
    location    "510.5";
    object      phi;
}
// * * * * * * * * * * * * * * * * * * * * * * * * * * * * * * * * * * * * * //

dimensions      [0 3 -1 0 0 0 0];

oriented        oriented;

internalField   nonuniform List<scalar> 
1171
(
-0.9279353461158687
0.9279353461635301
0.7873063786177366
-1.098801553286623
0.3114951743510768
-0.1946022791575372
-0.7661384550841714
0.9607407343701905
0.07206465676442592
-0.1170112811160887
-0.2118185760645889
0.3288298582850517
-0.7873063898117582
0.06936846154864648
0.7179379282443618
0.8111470734304567
-0.1774529027854173
-0.6336941704889101
0.8743873648366904
-1.043604390482952
0.1692170255929024
-0.2848558533076375
-0.09750923847155633
0.3823650912894423
-0.0358731729373717
0.5484567338411444
-0.512583560802566
-0.5041170503649077
0.826764488374281
-0.3226474381851883
-0.4018671407566136
1.045880810434126
-0.1714934467902254
0.3956177040939549
0.04775642738830088
-0.4433741295442822
1.046367253618779
-0.000486444157886219
0.4452331620639013
-0.04961545435137089
1.05700154083175
-0.01063428590878296
0.5775148727493858
-0.7721171573532427
-0.7244610249109614
0.5571768859804548
0.1672841390569258
0.221879265145211
-0.7259963087642863
0.5504931008838676
-0.9227866345293056
0.3722935347546736
-1.09416532317
0.6863739732208878
0.4077913498232343
-0.5953680216286591
0.5594948399668507
0.01825065388151676
-0.2570254039554674
0.238774751146172
-0.02460119254378798
-0.5219533923202476
0.5465545859023144
0.4000073225114523
-0.4975165670112101
-0.9187500958153837
0.9414011563195204
-0.02265106056182174
1.067607017721539
-0.01060547598058263
0.9351614644585403
-1.116926851417617
0.1817653870892696
1.067226652967719
0.0003803671758438101
-0.6643560126750798
-0.06010501585412243
1.2621892487476
-0.8643522102223142
-0.3978370385103761
0.1484765603228806
-0.108874653787327
-0.3261466345877581
0.4350212879195171
-0.2857624179680617
0.1909760574846734
0.0947863599397782
-0.5834070926417165
-0.5153944552529919
1.014059826690135
-0.07889836160540156
0.009946773238910757
0.825431074954735
-0.8353778482809912
0.5718646651164667
0.6903245809885417
0.4395820745213854
-0.03026817129923358
0.4302754942102919
-0.8076595635502578
-0.1025882378126749
0.9102478014959694
0.502656485947567
0.2537226666732855
-0.7563791526417928
0.004190562709665895
0.528423985556429
-0.5326145473034034
-0.4898531457708641
-0.6043121783572992
-0.4228989932356856
-0.6940278584320678
-0.0272557367963781
0.2701196321863646
-0.2428638966387724
-0.9248254464001552
-0.005156624702203535
0.9299820710102645
0.3080989064807883
0.0742661798877214
0.762418410808256
0.04872866700867362
-0.5331156883322319
-0.06225233435815736
0.04633140781112916
-0.8539909726613397
0.0756688748518477
0.8622915126309862
-0.9379603875369756
-0.3473661371958766
-0.04139644816982341
0.3887625849278469
-0.682368013117171
-0.2424574392800422
-0.6313573555180615
0.7070262314607194
0.6091932785618253
0.217571216066162
-0.5428517407980202
0.946162082894502
-0.7794246251090023
-0.1667374578731173
0.02264251215128789
-0.01679298598960441
-0.005849525250469725
-0.4029345668361082
-0.09458199984805027
-0.2416047243249239
0.8507980068118418
0.04627989741811483
0.3351152097743562
-0.3813951078627235
-0.460276383714912
0.962932874446159
0.6800970266222132
-0.7826852653233375
0.3192899641944845
-0.0170393394960905
-0.302250625777189
0.9306809968327252
-0.9306809968604534
-0.7829238120179938
0.1107689364747349
-0.3225875167581541
-0.7500490271833355
0.7599957966551676
-0.09030785845554873
-0.1428587872742731
0.2331666446671959
0.8649921125069823
-0.03956104308672218
1.054296215466846
-0.8005735421925324
0.1859532940504561
-0.3154525940864094
0.1294993004378807
0.8594058395328952
-0.09698742741150798
-0.6118291766232384
-0.03928875885691702
0.6511179354293184
0.1238689637227048
-0.2311867736232054
0.1073178112974736
0.805678207719197
-0.9831311066897526
-0.435441352282764
0.3296575496823405
0.1057838035173304
0.5314062690197281
-0.5560074612107621
1.022106996409096
-0.4562514662575383
-0.5658555301987486
0.5992080027876739
-0.7193530017745843
0.06678407534250486
0.6525689260301948
0.1030266926315823
0.5705208276717537
0.05482353909336696
-0.6253443665470182
0.1941484500548574
-0.0833795078950872
-0.4932633072176509
0.1458971699888188
0.05035649621081558
-0.8868549730976263
0.8364984769896093
-0.4741969749139006
-0.7134866160107824
0.04913060256848688
0.4366939587005483
-0.006418467437944214
0.2998643319984011
-0.8552436160392793
0.5553792842317549
0.4157129148769087
0.5842870852510739
0.5605417105836397
-0.5142103001766566
-0.3655698544684697
0.03476259440016316
0.3308072566313307
0.6813763776344505
0.2493046188000806
-0.5660905480107443
0.5702811121821003
0.1105473183685648
0.8750466780292676
0.01024247498949301
-0.6220716548405451
-0.7493358646354698
0.7996923614470035
0.5312320618372929
0.07117714300589235
0.3016585684106761
-0.3728357110912612
-0.1676170013135337
0.4415869569547616
0.08683701546294727
0.8762062015877974
-0.7974397208211009
-0.07876648069000333
0.6354597623326516
0.3107023182107613
-0.4301903033805889
0.5754697654524242
-0.5042926234775506
0.4171906960029698
0.133302406531955
-0.04690825534861066
-0.5902770865341443
-0.1378327869772144
0.7281098735455512
-0.1497076109483374
-0.7809733889109586
-0.6110284284990622
0.3607507543331283
0.2502776726931346
0.6222848585750669
-0.6120423839643595
0.2385220035649013
1.011411591064193
0.04288462552594766
-0.7493358616660946
0.2239951389783573
-0.2013526292617601
0.6800970258142894
0.8021139126448994
-0.8021139127591923
0.8377243681878124
-0.8333403660194239
-0.004384002080347419
-0.4453855727773318
0.861098484856641
-0.1476249520884256
-0.3456383588763252
0.7347091671737704
-0.6684594793068511
-0.06624968794440811
-0.7313039234610375
0.1410268371427432
0.1386927507761843
-0.6718084390275488
0.7826852598087167
-0.950302261194618
-0.3652779223712198
0.289830608198923
0.07544731141200041
0.1459451050569287
-1.009529778342094
0.8635846733272983
0.4809116616016542
-0.04132958718866775
-0.3081901001527308
0.5864785044504354
-0.2782884040965113
-0.7383082728999987
0.8842533761114579
-0.1571397696744634
0.7345226684890688
-0.8399832786256907
0.1054606100112907
0.9776853092656357
-0.541966102013056
-0.435719207380509
0.7552056597732655
-0.06489477227681849
-0.03404093706052525
0.187878995849542
-0.1538380590055143
-0.7757389478701475
-0.8461533637916415
0.08001490277179216
-0.7500490289207771
0.5140315543067239
-0.5554280068118612
0.08983053192826385
0.719505287761698
-0.8093358195166431
0.7537198542001698
0.174215507691568
0.502876125561073
0.4971238744076975
-0.0513072588438579
-0.6061454349911995
0.6574526947854578
0.8813511490945377
-0.005144944105409682
-0.7552056597502834
0.7996923618771186
0.1910108451881623
-0.4480362464831624
0.02052611994385951
0.00136699296916387
-0.02189310797450479
0.5891776761583326
-0.4384762705926069
-0.1507014048360117
0.7179379356150425
0.01394004605647993
-0.1116306938480586
0.4372948931182499
0.1518827825997904
-0.01382116899375849
-0.005863806688930033
0.0196849751043832
-0.03356232761363356
-0.0004786154096129607
0.2431856961729826
-0.2602250290588844
-0.9592536831032558
0.001881809531391639
-0.1595613212346887
-0.1220922336346177
0.09460421296122175
0.7213281565419311
0.7290434615266969
-0.1447563764681586
0.6613591483512432
-0.5715286177320397
-0.2118074717774625
0.3977607641487912
0.6954236474851115
0.02251428809275525
0.2416042038162386
-1.074944568272613
-0.950302262195923
0.301680437049663
0.7599957931727526
-0.2086350927072531
0.06577630549253552
-0.7232099669909529
0.909727741660194
-0.1865177746997002
0.4162326327967534
-0.02747005497351379
0.7716037067173652
0.2806469970041062
0.3718838144461095
0.07334934077919558
-0.6586899595907579
0.6586899595665805
0.2147071265195377
0.6955406745009547
-0.05485482743986386
0.3899700452140253
0.3801664620327994
-0.01444698619166618
0.0349730909054279
0.4494690917001619
0.03144256608000617
-0.7383082735288214
0.5341347383581375
0.2005744297174882
0.3061951496655365
-0.1183161587776493
-0.6954236488266167
0.1800197192545827
0.7297080231907055
-0.01020805088477964
-0.8136921782933638
0.823900229172574
0.6962725672254894
-0.7920986830885066
0.09582611596840604
-0.7537198597142866
-0.1500147092086819
0.2110693748386676
-0.06105466664157728
0.07721336678645653
-0.1798060902345518
-0.1124294463417885
0.2922355383092353
-0.007849497835508508
-0.005971682659935903
0.7065547147121365
-0.7167627733349727
0.8845591140720492
0.07618161568170448
-0.3148978527503875
-0.5176413194571445
0.8325391721019304
0.1031311471100459
-0.1031311433571539
0.3245932029641819
0.4758870644865458
0.6143302792147408
-1.090217343697111
-0.1941402648547665
-0.5856662610842347
0.7798065259671396
0.012873350617397
0.2202932990989845
0.3772823703159346
-0.2534133969657424
1.012809206513681
-0.536922138672178
0.6642802333208279
0.9944434972176678
-0.3801132144969311
0.2296574151909678
0.8842533746367059
0.712759927869596
0.2136753269827918
0.7277258318353738
-0.7809733894953078
0.341310048110855
-0.2764434221138601
0.2445971767015673
0.03184624262615046
0.8481823060730952
-0.01289309707006827
-0.8352892086615796
-0.702125643882358
0.7025060127004561
0.5546144274370237
-0.702125643347231
-0.712759927888762
0.7025060132090445
-0.0346842701451023
0.9047372973665658
-0.02017818647163139
-0.68137636722579
0.6123579139471433
0.06901845326174617
0.5388433086345016
0.5371235334370003
-1.075966842039158
0.4921516286060245
0.5206575790319707
0.5428840504316442
0.4597592188509246
-1.002643269223266
0.4985090027744323
0.4959344958274956
0.6123579067940407
-0.5255633640649745
-0.4651410586396282
-0.5563171076450752
-0.5196292767743848
-0.1204779944498765
-0.01221601852865939
0.01221601726321307
0.5125442485582133
0.5229658212373388
-1.042595097889815
0.5754953122092792
-0.2738367452151251
-0.8854288381314915
0.3434627355275513
-0.6329708468155755
0.3905134056164481
0.002154170860423116
-0.8304575417426564
0.8283033707504511
0.4208533509169918
-0.01733994352978498
0.8655222494660891
-0.9462552038474604
-0.8347032382173402
0.05519231432237917
0.7795109237192401
0.5606729806059999
-0.4379865438099207
-0.1226864366087415
0.6499779775986335
-0.7288763397640082
0.8846585462670373
-0.8326204941458624
-0.05203805243614725
-0.009076454222884247
-0.7883632633918499
-0.1096712128973612
0.7146482010370006
-0.6049769881336736
-0.9361054570562506
0.9270290029335521
-0.730333350599937
0.6916940300194249
0.03863932049126427
-0.80913532240936
0.03803698195033205
0.7710983403567971
0.06164715954667657
0.04148398375293594
0.4331667346379273
0.06159664895600227
-0.8510804705435218
0.7894838216943891
-0.6424429388103682
0.5911356793512063
0.8905638140864308
0.06993198213663258
-0.9604957962337229
0.05586057239286386
-0.04743525823197767
0.37824251342362
-0.3812560372238472
0.06580344408914914
0.84230890834313
-0.8401547362604473
-0.7329537126311361
-0.8096621536564628
0.02129889025134054
-0.164558483447232
-0.8524839614543802
0.01986347181471778
0.6248727396551673
0.03648640751517905
0.02994320191782808
0.5307297790291343
-0.8065293683532431
0.8445663466400931
0.5658555295609985
-0.8477974841252514
-0.8661734772517582
0.03856381560030781
-0.03875522041620772
0.8379856446972582
-0.7992304243486624
-0.02418058750234713
-0.7717089343038082
0.5443530126601058
0.1519195474517003
-0.03145627474194197
0.8969785244525634
0.9822213154380839
0.8616859402373016
-0.8418224671884854
0.1473970163447585
-0.1473970147154829
-0.1187125721540044
-0.4822585147255966
0.04427197100913639
0.2708477810879341
0.03083265554084569
0.3858238602932582
0.8727979356140687
0.003258128081004592
-0.01110763634868071
0.6586145745251684
0.3413854254561632
0.7835231129860049
-0.5834070905081122
-0.7780592546563765
-0.8121235241811486
-0.6798549559269769
0.6798549559097476
-0.1677246063592349
-0.154862912548992
0.6016625333025554
-0.8121825833764306
0.2105200500337067
-0.4937003380924684
-0.5690093822532465
0.278232011163154
-0.9722598693961783
-0.9017769860007194
0.8497389393179007
-0.8155872989962398
0.8368861883040625
0.6487048115945139
0.1343979216977851
-0.7831027332599231
-0.7734842021623854
-0.1458955260887804
0.7243328847375704
-0.5784373585707905
0.02897904776480343
-0.01520895855082686
0.01861017401271818
-0.003401216774693113
-0.3552916165757655
-0.1269669043880003
0.8798945412978739
0.7420670247578002
-0.2441639784324874
-0.4979030454532294
0.6193805790151177
0.6852460020635488
-0.470538875247728
-0.0007543752442884244
-0.2850080432486205
0.02605410579982845
0.7450559631476507
-0.771110069244608
-0.3235550609464355
-0.0721618249177776
0.07555528354918148
-0.9600361480547023
0.1247469383847893
-0.6777846664107542
0.05179439070196334
0.6412637141832088
-0.6930581048554456
-0.7568422593579509
0.07905759292946425
0.5882276199140946
-0.6603894449262254
0.1565135668536738
-0.3363196574670892
-0.7708931640269645
-0.002591038047642589
0.3712453411261876
0.6015587163338278
-0.02608895412914777
0.0238136297777725
-0.02381362902586485
-0.0180798323733644
-0.05127838724761286
-0.2251650359522941
0.02133241209124342
-0.01807425715046658
-0.7344067547189489
0.2793258522487903
0.6798971153409875
-0.6899923890833918
0.01009527354204361
-0.5974470121654539
0.6492414075602712
0.6530437642359536
-0.06481614811997069
-0.6317228597586594
-0.1251193956742497
-1.050017447197645
0.01112603535169617
0.1362709764085667
-0.7083526484930993
-0.7413940655610893
-0.7631969952490379
0.3653599547234513
-0.4130773446198691
0.4684399371606286
-0.05536259359144605
-0.6749470058686861
-0.03340564271649307
0.5012379355264558
0.7306792242257264
-0.2331102922487754
0.1110180583209301
0.9626271837582571
0.4458471000838079
0.1343145098251601
-0.5801616098019409
-0.6783393101334032
0.003392302685313839
-0.0444639197020975
0.02925496924627484
0.6369324499649757
-0.774765237157268
-0.002355078362700154
0.002355078237313674
-0.6007154765526728
0.6481863576028207
-0.04747088082077939
-0.6483961048738656
-0.1132190241279045
-0.6716359219569114
0.05138892836127661
0.6060637705811094
-0.1371413625556784
-0.8175314489259119
-0.5562061789092325
0.5662454601956189
-0.01003928055098681
0.6340099109365855
-0.6239146323007801
0.3222685372807347
0.2142057882928764
-0.5364743255876007
-0.1044616182504666
-0.6024193882241029
-0.09063871567456468
-0.1548683813037656
-0.5048172505537677
0.404158988219065
-0.4987409861747764
0.1265788909134088
0.6783147294833757
-0.8048936205129572
0.5992080027913089
-0.3706362227886699
-0.04244112180779963
0.0753367615968044
-0.5801540066008404
0.551869912521334
-0.04044267210340294
-0.5114272402838839
-0.3122318050733326
0.3047745772594494
0.007457226980361995
0.4536611688179829
0.1218341422357618
0.05062437452044181
-0.3157878462260493
0.1566819913470473
0.1591058546967821
0.2374649075595238
-0.01346976498879648
-0.295617036763691
-0.3128016624317613
0.3653309001960581
-0.05252923926267409
0.7890271720834054
-0.6278562253721903
-0.02053987898637548
0.4993898239257676
0.2807335623172365
-0.5248975456293801
0.5774925968443376
-0.5774925968460618
-0.2897561469917254
-0.5864702514440033
-0.2955471741719509
-0.5864702513013778
-0.5951358470069653
-0.8385093198336112
0.1700498429070965
-0.5835842677322822
0.8211692784903255
-0.00355809361181509
0.1194035377671648
0.4821551773783161
0.09668993492264834
0.1853451856280728
-0.03625580786549241
-0.1490893797732041
-0.01733879653532861
0.5941702112450178
-0.9460681660601152
0.4284268496600737
-0.0008034234588704648
0.001952889794440361
-0.001149468684565988
-0.6432535072226954
-0.1317475072231195
-0.4664598842979988
0.6007743926280966
-0.503776881679563
-0.3216934898352424
-0.2584605372490653
-0.271417965775735
-0.112046587661654
0.1120465875584852
0.1526094166759796
0.05845995179962563
0.1964712174400835
0.4549701817751481
-0.5730647030974592
0.106604821593517
0.2437937428984021
0.4661849324233504
0.5338150666308409
0.6417600603649741
0.08359939237013578
-0.002161153114556498
-0.08143824438244709
-0.2768361542658511
-0.5406952945030535
-0.5492307976557398
0.1140778743268322
-0.126055963233465
0.01197808836614093
-0.1059179164426475
-0.386081031131555
-0.04431305040011261
0.6503767985709304
-0.498702806236354
-0.144550701056934
-0.3384864737565613
0.2917481704199668
0.1231328913981234
-0.6049342613552647
-0.203980407878702
-0.2616635086732225
0.001438463888874313
-0.4220447794573837
0.3223141930079282
0.09973058585889265
-0.09198639135237205
0.2916123033378061
-0.8959244815263767
-0.4580602330774043
0.633038002964736
-0.7729189365119229
0.6684573182155669
0.3425347863231773
-0.1259435754716275
0.2256298560721784
-0.09968627953688448
0.0253267771088043
-0.5862568959587579
0.02931768203486571
0.5569392143011734
-0.9007290611047666
0.5468345231705422
-0.6655470954388367
-0.09632922344083429
0.1092244925074546
-0.1092244887611436
-0.3165422215119627
0.3640457229658285
0.01419679843244775
0.02802783581334856
0.05557156102244951
0.5051431067299805
0.661790488280191
-0.7405569667204563
0.0293948442142303
0.02364052290914428
0.0001731164919412664
-0.006903611203126466
0.006903610630570094
-0.4161544680683683
0.5379886103366784
0.01520003597790536
-0.01520003615508503
-0.7922306071402487
-0.06037984696003031
0.1220270116225289
-0.4543144527555401
0.5609192746429025
0.4505703609939991
-0.4980412467542559
0.1497829940128133
-0.1497829930435077
0.03739353418101794
-0.002420444454497112
-0.04137021786477132
-0.9770763717629569
0.5413571628211318
-0.4715170540122908
0.04148398578696955
0.5144348145390343
0.03104955591293444
-0.5454843701075766
-0.6158924628696887
0.1171896549972082
-0.3297607291777994
0.0134400488451688
0.3163206810506217
-0.15404788121297
-0.07906240406826592
-0.5407563153316151
-0.04550058863779816
0.1362709758566855
-0.04099313984101159
0.03863806845288752
0.08153313596979941
-0.0815331407923862
-0.538644321592462
0.4861150930536856
-0.41438022124164
0.1613385789796737
0.6221845339389857
-0.09800643383658313
-0.005203475677143129
0.005203476260974256
0.5329690120126774
-0.07420448442915624
0.006093345933484516
0.02704648269886654
0.03458036877935505
0.6862029273874228
-0.7604074115765166
-0.6583647772257152
0.6378248938356236
-0.1074713648389615
0.3127881844565
0.7461851516768691
-0.01807983448652479
-0.2672167847003876
0.1489006181115761
-0.7446737384341741
0.4843804742499226
-0.4230190027864093
-0.1014576604539855
0.003596693162703398
-0.01448664654920602
0.01917124126038868
0.4116090252253721
-0.1216690545034279
-0.389758184708115
0.6288962731743181
0.01911963443143458
0.01061157592937974
-0.01061157616807938
-0.3564394369039616
-0.08367414801918314
-0.5606355455273634
0.5570774522187867
-0.2383730302228894
0.4648094395563047
-0.1510181938755068
0.7285330633233471
0.6732278084586168
-0.04099313979172826
-0.6153140359325888
0.5615971143454529
0.2888445958907486
-0.2867919780623428
-0.002052619397244044
0.545838497256854
0.09338470593540163
-0.0389093952802097
0.1970194598890308
-0.1581100653923527
0.1204425217514681
-0.120442525328416
-0.8587655307191702
0.002385986750815751
-0.1130917112319041
0.1401381956041123
-0.1320345727838653
0.1320345724361328
0.02364051351585733
-0.02328330006915354
0.6709377105155421
0.05877031176248388
-0.3231737544867475
-0.06290727755370848
-0.4712340125345724
-0.04964187775131798
-0.1517708916475845
0.1517708907965522
-0.04404472277077916
0.1431976555113787
-0.1431976549861719
0.1367822950435208
-0.1367822972823062
-0.3155949177136756
-0.1145953857865947
0.2266512807832021
0.1030062692075302
0.03486530836377403
-0.8211105384462443
-0.1975212061059808
0.1703616774451341
0.02064917187673745
-0.2655312287481136
0.1257106793655981
-0.1257106789235944
-0.4140401541163881
-0.08470083430600395
0.2366068294214904
0.00216792475052995
0.04053999177335673
-0.5431997970431132
0.5778840671779762
-0.02487382543747882
-0.01917090095253849
-0.02869007065102807
0.02626963001517799
0.006585358493806487
-0.1842081428877738
0.1776227841796746
-0.1080493286847593
-0.2282703306147213
-0.1448668508303763
0.144866850254958
0.07298936174957581
-0.07298936189029652
-0.01948495448571189
-0.10869505749973
0.1281800126347193
0.2421327029344104
-0.182732506630684
-0.02599362616587792
0.02616675362926473
-0.1387548583374252
0.6248699543131081
-0.03905722141186142
0.4221644064336545
-0.04219235735176086
0.06187733380760675
-0.1535511110249789
0.1535511096592302
-0.6362294256165357
0.3089973044963912
-0.07933988955309401
-0.2347603924187532
0.003573620218995886
-0.122212304319677
0.1627522947001409
0.194742936296996
0.09749260465304004
0.09555271883414077
-0.06097234948206146
0.07252315886526663
0.04155471880004778
0.0638345414850463
0.1065271309551773
-0.09568061428149471
0.2066986608985553
0.01296664644996123
-0.113754885127837
-0.1017040942868835
0.09793237758430802
0.003771717464647369
0.01302894405227716
-0.02307271515597061
0.03788168632700541
-0.0378816863246208
0.07480715346050208
-0.05473985835758166
0.05473985804414614
-0.2245740478599703
-0.05187755262586909
0.01145482922331295
-0.1031094481240321
0.01633976480938022
0.1082726731891229
-0.108272672845117
0.2944735185855522
-0.2716152058141776
0.1635658792414655
-0.05066047388435309
-0.2209547321595758
-0.01759418111976913
0.01759418132368794
0.3672969530672935
0.2852719764813403
-0.5274023880999837
-0.0940000981730726
-0.03205586234230284
0.528635537343498
0.2134426500578954
-0.1697241791452842
-0.3813080994507165
0.07649554006210718
-0.1478723321516132
0.1874275688140232
-0.03955523679009365
-0.06671794281039962
0.06671794293580442
0.8226806917300615
-0.5606741411564321
-0.003795019302138559
0.01682396108493172
-0.01998798676412436
-0.2866104201125098
-0.01748697087526941
-0.01283227623571514
-0.1317449022674492
-0.5719965368925224
0.555934844069562
-0.5692486025639525
-0.006904040138708143
0.1027331414398196
-0.001780220304090873
0.01676881612770264
-0.1678603175043312
-0.3366654403253874
0.2335559922233224
-0.05459262523654806
0.03510767251550011
0.1317135563960728
0.1730610199790495
0.3361819823755665
0.2768024818908293
-0.2785827018385614
-0.06306602054208858
-0.1548968682834343
-0.2213203389604648
0.07488014082534666
-0.01104560050672579
0.2142314153683575
-0.1974625987091389
-0.08627490063526518
0.1587980552564547
-0.3550428172576711
0.2087705419815961
-0.1924307768785963
0.08961776912802012
-0.4793759583947046
0.1745952944724875
0.1698069124112853
-0.2560818103957979
0.07248000437325912
-0.1942378926808116
0.1767509212683629
0.01743801585553853
0.1413600394038114
-0.03953983128421467
0.0662645504281935
0.4667044609623853
0.02028751170094757
-0.07615217994226518
0.0559056809115202
0.125651554381823
-0.2608755726368935
-0.2308816423343777
0.5597108963672934
0.1578693052572856
0.07873752341441421
0.07574270865382456
-0.03091938834594124
-0.009051603016535481
0.006998975383945165
-0.0327942183919717
0.1712648841167571
-0.1781689237644745
-0.05698093570490229
0.02237171976846826
-0.1467033938272269
-0.05287784965093385
0.1497177321920388
0.2770908695472118
-0.03877331273717788
0.01721802738956604
-0.2557403758114059
-0.1309399551299695
0.2356103568671873
0.1791854699701748
0.1298118343273397
0.02180064406075196
0.08912279318807124
0.05209385388984367
0.4530492527739936
0.01673836092044648
0.09697595891793077
0.04383982230792201
0.07159569837485912
-0.1154355218143491
-0.2421304134937886
-0.2009861073496877
-0.01996862124603694
-0.2022850919888616
0.2757090027781879
)
;

boundaryField
{
    FrontBack
    {
        type            empty;
    }
    Top
    {
        type            calculated;
        value           uniform 0;
    }
    In
    {
        type            calculated;
        value           uniform -1;
    }
    Bottom
    {
        type            calculated;
        value           uniform 0;
    }
    Out
    {
        type            calculated;
        value           nonuniform List<scalar> 10(1.035035678522784 1.06440667290219 1.021458166287092 1.019166580739829 0.9968827530728699 1.015563772444997 1.035510069191375 1.062709720319321 0.867248739446024 0.88201742562131);
    }
    circle
    {
        type            calculated;
        value           uniform 0;
    }
}


// ************************************************************************* //
