/*--------------------------------*- C++ -*----------------------------------*\
| =========                 |                                                 |
| \\      /  F ield         | OpenFOAM: The Open Source CFD Toolbox           |
|  \\    /   O peration     | Version:  2412                                  |
|   \\  /    A nd           | Website:  www.openfoam.com                      |
|    \\/     M anipulation  |                                                 |
\*---------------------------------------------------------------------------*/
FoamFile
{
    version     2.0;
    format      ascii;
    arch        "LSB;label=32;scalar=64";
    class       volVectorField;
    location    "1051.5";
    object      U;
}
// * * * * * * * * * * * * * * * * * * * * * * * * * * * * * * * * * * * * * //

dimensions      [0 1 -1 0 0 0 0];

internalField   nonuniform List<vector> 
808
(
(0.7562687101030027 -0.01752326183679421 0)
(1.031278042542191 -0.01249559328927826 0)
(1.115556364947237 0.0002743698748412346 -1.777648914182829e-20)
(1.085130320867366 0.01257278057080139 0)
(1.360630235679548 0.01420637216688972 -3.849297965093618e-19)
(1.038658625187836 -0.009399199693324069 -7.22841354718197e-20)
(1.014108031780391 -0.02027693218673869 -2.375757223971462e-20)
(1.078737912992565 -0.004711033168063823 8.951382759849049e-21)
(1.25211056838556 -0.02096853888490056 6.295131502749694e-20)
(1.084737809484195 0.008838392098107715 0)
(1.010647424469947 -0.01245997672960344 0)
(1.303370782749791 -0.05354699795910983 -3.493679790315122e-19)
(1.08616362366191 -0.001600682934958493 2.034003676775226e-20)
(0.6750697159579879 0.006401322101587742 0)
(1.280594711220651 -0.1227938286695541 0)
(1.081894120919036 -6.71729665702344e-05 -3.828238554875499e-20)
(1.230104040754356 -0.1534878217330852 -9.912639427321231e-20)
(1.074409175977449 -0.0002516478690288763 3.171959404057707e-20)
(0.9904863915846893 0.00652185175683222 0)
(1.026958436685219 0.009161299872697679 0)
(1.039071450379964 -0.01570277960208154 0)
(0.9875494179543772 0.04526519403029218 0)
(1.051040622499025 -0.006220365349525047 5.696442887661011e-20)
(1.053640576001314 0.008220097072552807 0)
(0.9337638137524178 0.1997839529288822 4.577781900581961e-19)
(1.162459883531911 -0.09104431500258155 0)
(1.18426873044928 -0.01953384821088818 1.555586087433509e-19)
(1.077193438952869 0.009552400396662634 5.222163923225937e-20)
(1.084125607785421 0.001823236409237543 5.090219954108635e-21)
(1.072005840355599 0.03098607913031941 0)
(1.075528717218409 0.00252117729811402 -1.179331672750373e-20)
(1.033412093589623 0.006245053162731983 -1.903165957055014e-19)
(1.059941378192535 0.01466717614573919 -2.382864211964682e-20)
(1.08883939512075 0.005282834649542909 -2.931200318113864e-20)
(1.120483775675818 0.03640866410019953 0)
(0.7549299147109533 -0.1201558067787136 -4.547489715682282e-19)
(0.9544175656040887 -0.005733952352639847 0)
(1.068940782684765 0.02243750089516511 0)
(1.068834991816181 0.007240569558309236 0)
(1.073687619393713 0.00866948529162362 -2.823267687142399e-20)
(1.0927062111646 0.02257839818108189 1.088877801630203e-19)
(1.149622306169712 0.002209669733338022 2.134984224674609e-19)
(1.095557539097387 -0.00245619176580561 0)
(1.015584036217555 -0.009354225545738479 0)
(1.127606373273941 -0.09749418468377975 -1.658701219025014e-19)
(1.044059776780156 -0.01180049026743758 -8.203687480395947e-20)
(1.05840509903107 0.02669230945401917 -2.767883795350407e-20)
(1.229151947055522 -0.111887395485381 -5.593880802571435e-20)
(1.067670497306272 0.01220936053699733 -4.145174440180491e-20)
(1.255384636670717 0.01579799515203652 0)
(0.9972179066408478 -0.01821638593924989 2.121306985394185e-21)
(1.044597845184922 -0.002559410254117457 0)
(1.087300750766646 -0.002366482094162327 0)
(0.9975864007705793 0.007630879240284399 -1.912694976686502e-20)
(1.25276010991919 0.03303233623198964 -2.3650636739112e-19)
(1.063732819215677 0.0183917314149613 5.979761809838905e-20)
(0.988226835214182 0.009952290076738094 0)
(1.015417091839361 -0.01046112323730381 2.513401365801533e-20)
(1.106824623025261 -0.001568612320460224 -1.169113892856223e-19)
(1.061732952045326 0.0312799450918464 0)
(-0.06744056663863823 -0.02772354694924106 7.358484131437288e-20)
(1.153626578027776 -0.05206761349889496 -1.870058905449673e-19)
(1.001778188719223 -0.0079858961845914 -2.762259927647541e-20)
(1.18513270247889 0.064479238361573 -1.204912464101017e-19)
(0.9975014442229165 -0.01068958768199996 3.039947290078118e-20)
(1.083815956440015 -0.005520283313686661 0)
(1.244018399038282 0.0923870751465256 0)
(0.69602760928045 0.003173318736516312 -7.469913829663628e-20)
(0.9893858889794559 -0.0159482167874788 -3.166402295734168e-20)
(1.456785059368462 -0.01849235544486474 4.433386101880773e-19)
(1.060678388550958 0.007560642072857181 -6.65122531924704e-20)
(1.364321455732847 0.09540586431806265 2.876645194494776e-19)
(1.054826402437987 0.006733319227582779 -1.871298806989965e-22)
(1.08104892695694 -0.01415964500109901 -4.035692521466817e-22)
(1.162711592300754 -0.2348701292971929 0)
(1.022689878551843 -0.014651395807254 0)
(1.017998003267053 0.01778633790057323 -3.050148955278614e-20)
(1.389463374824687 0.3500106748181548 4.212354056490946e-19)
(1.097178344130436 -0.04206312402693688 9.432649442777261e-20)
(1.046737120668885 0.2111707263187685 2.445990975962011e-19)
(1.123246577320681 -0.06334461169025743 1.169610873512561e-19)
(0.9221343066948301 0.005196766448574994 0)
(0.9755008890137665 0.01859148780989104 0)
(1.004001224530878 -0.04853020657579867 3.021838556373156e-21)
(1.010818413269992 -0.0135234145024716 7.567614331413511e-21)
(1.031242109804325 0.02596040853643992 1.370914653801316e-20)
(1.525662360199125 0.03540666151747114 3.239303361657128e-19)
(1.291773372094257 0.07064339669702173 5.575769731159988e-19)
(1.072724500857818 0.002903892757025019 -8.969091119265183e-20)
(1.196584781144017 -0.09936163063265689 0)
(1.033960368990581 0.001481936254015531 1.3083964874685e-19)
(1.163606710377851 0.02039964512764448 -3.155915680442676e-19)
(1.001517441249699 0.03249361093524003 0)
(0.9996301480745671 0.001977244179513461 0)
(1.04417144845694 -0.0003719107673616048 7.876567390243953e-20)
(1.213020788321842 0.1013208705437384 3.994234238256208e-19)
(1.011132685806977 0.006940727242160767 0)
(1.087669598231941 -0.07092352833882672 -1.064464128771583e-19)
(1.14979780836885 0.03511543661775357 0)
(1.211079397545463 0.08947879476725987 -1.882526137101018e-19)
(1.108176684980868 -0.02866730350664718 -7.712010608593931e-20)
(1.02802795378577 0.01166271025799545 0)
(1.085484276581891 -0.004658067756387605 0)
(1.020269119820943 0.02586205821460268 7.954004080324965e-20)
(1.075475910252514 0.05423541666265777 -9.18743807766175e-21)
(1.103627022253438 -0.004388540136511269 6.348343051635797e-20)
(1.104304901809928 -0.09570398421412572 1.542432948123737e-19)
(0.9599150334674165 -0.003550944570983694 0)
(1.066515062730479 0.03145915134145427 3.75684816400239e-20)
(1.167387484808588 -0.07630994571990718 2.285346921262792e-19)
(1.054075393637345 0.04553225098113672 -2.874945455971149e-20)
(1.022951385947021 0.06801746989163451 3.677736125049935e-20)
(1.090644649010795 0.02626043467247934 0)
(1.012678188129249 0.01466425645170867 0)
(1.028963915160889 0.009409136257906582 7.888473671148765e-20)
(0.9486193522853708 -0.03224533626216732 0)
(1.053354176867205 -0.005558287572325843 -7.590886397735613e-21)
(1.338820091547893 0.05757495004498802 -1.562619761811807e-19)
(1.079739193857833 -0.01333808900411895 2.605138263556544e-20)
(0.7442111859813174 -0.001786781208147897 0)
(0.5374100274178373 0.1572666810116338 -9.42062361125159e-20)
(0.7058212254340431 -0.00250390633946148 0)
(0.6991239905742631 0.01467634995745829 0)
(1.077836715970532 0.003460600965589285 -6.568116406824935e-22)
(0.9906380475074963 0.01443822443027625 0)
(1.281089004871006 0.1225696220898349 2.525898205777547e-19)
(1.012236362720158 -0.02796989073481989 -7.546677234846629e-21)
(1.038720739847469 0.01871920738613508 1.275740243611137e-21)
(1.058376651421376 -0.0123556430896236 0)
(1.126355336766607 -0.009259342291759863 -5.060115083426935e-20)
(1.258493702754561 0.1244881554291707 -2.160827744899485e-19)
(1.088781549252988 -0.0109609214945053 -8.504419978425418e-20)
(1.070807114024807 0.02503604222200487 -1.079291431223133e-19)
(1.041060980885878 0.04676326267809956 7.226073522015729e-20)
(1.022315738113897 -0.003535649555701435 -3.45326809987843e-20)
(1.061406720127966 0.02366712883096038 5.846826922986552e-21)
(1.136550850012412 -0.001853804475361381 1.064462841020281e-20)
(1.04110522927107 -0.01255169578649016 -4.671064087720188e-22)
(1.087739620068182 0.03483048982373126 0)
(1.028772335562342 0.01334319948567898 0)
(0.7905177040108532 -0.07294311565817871 -1.847464234002991e-19)
(1.03027023014119 -0.002136773700062171 -6.664655740905847e-20)
(1.137736590899809 0.0020552591672052 -1.305127689357427e-20)
(0.7035494375732891 0.006547090694671587 7.253223648746207e-20)
(1.176218755773113 0.01901432785402395 -1.947961764998929e-19)
(1.128168945604997 -0.004195617631496651 5.799777582895515e-21)
(1.129050914441446 -0.01010759739749843 3.40171185785411e-20)
(1.000937692680491 -0.002987818207305109 -6.984991224793189e-20)
(1.09415151143849 -0.06030479235273989 0)
(0.9869522895175408 -0.0003602004549202619 0)
(1.057992399891353 0.007048562600968694 0)
(1.006177531024413 0.1896873009558492 -2.395210213590941e-19)
(0.7795322978588504 0.01242522141502726 0)
(0.8570073783708908 0.1034469315035449 -8.276029703940886e-20)
(0.1033262446074632 0.03616380994793444 -3.046851704754576e-19)
(1.173138421144523 -0.03230758009956024 -2.264557283088916e-20)
(0.6712488181075383 -0.007369155669452576 2.443176519389349e-20)
(1.163582976048457 -0.1062248103641323 7.007553124931107e-20)
(1.128893723291657 -0.0009250547422996141 -6.138858466901728e-21)
(1.1548445564205 -0.05094299733004209 2.200597156917115e-20)
(0.0767784523240297 -0.1897896379358244 0)
(0.265916297286688 0.07020129649941784 0)
(1.254043341558587 0.1058495582329545 1.864298180944201e-19)
(1.021591010240906 0.01988406389747371 0)
(0.7375509803150748 -0.006323904366682946 0)
(1.074860276222425 -0.01173898722615639 2.70604699655842e-20)
(0.975248478018872 0.002854270244035028 0)
(1.287235720269641 0.121342192899598 -1.453553254818122e-19)
(1.05739910716677 0.01112663780283731 0)
(0.9924225281275113 -0.008206202342995234 0)
(1.065328351732447 0.008027703722109493 0)
(1.006241163864342 0.02088953762490651 2.039731876786916e-20)
(0.9227724972423401 0.003455074900909794 1.237267485435444e-20)
(1.17515845724647 -0.1988419943151143 0)
(1.004986574317548 -0.005231440238790361 7.889607375115586e-20)
(1.05923320324927 0.006148413481026193 0)
(0.7745466524979941 -0.00335382505865511 0)
(1.215626760471249 0.02635738816666737 1.633082114136692e-20)
(0.7051329096325557 0.001334481262212481 0)
(1.431507997525994 0.08658727607901191 -5.192487395094614e-20)
(0.993536913673873 -0.005945773519331387 1.658524953077209e-20)
(1.275937831793365 -0.003644570525079832 -2.974815637053439e-19)
(1.060057838737302 0.008807342040914956 1.349603774018096e-19)
(1.000897240137065 -0.01357971087754234 0)
(1.214337618241542 -0.1548750905599446 2.034185271615076e-19)
(0.733168871633377 0.01379010944184578 0)
(1.097969633724361 -0.005062124634737792 0)
(1.154245572761673 0.06408505649539359 1.937082558404062e-20)
(1.006440820628607 -0.007231408215972965 -3.028481637183266e-20)
(1.121840679245 0.04940710940787041 -1.722311032927865e-19)
(0.1572379477687545 -0.08870931032137711 0)
(1.073778102252719 0.03702732152152659 0)
(0.6615008879122195 -0.002887679578375592 -5.787103309921357e-22)
(1.012065917247887 -0.01972350129128489 9.247128830295374e-20)
(1.061837200157441 0.0007397739126314229 0)
(1.087791160851628 -0.1379076209737868 3.790468007619112e-19)
(1.002477021951419 -0.006162335120435451 -3.381355998028346e-21)
(1.001997325113022 -0.00414893135958725 1.30032124830793e-21)
(1.094025937157708 -0.00920185352188921 0)
(1.020795229744692 0.02016696061594623 -6.504642936669347e-20)
(1.106825447340696 -0.001679609431041845 6.443855913506747e-22)
(1.073803763738902 -0.01071341290827377 6.557303208076837e-20)
(1.085686061703104 0.02230154378487857 0)
(1.325027969227999 0.1605718631555821 0)
(1.002076983434514 0.0004636261575799662 4.411179766594713e-20)
(1.323245066107084 -0.1317284548386297 1.57820379484798e-19)
(0.01953382215118232 -0.1395548339653717 -2.407608921644668e-19)
(1.07122490344479 -0.005513325058032109 0)
(1.115017292550101 0.0007295837406667579 1.212443652507667e-20)
(0.7269385587065004 0.01785779414044907 0)
(1.060041424236483 0.004566861362239657 0)
(0.8648239988218731 0.1639255539714781 4.689666025949113e-19)
(1.277018685295503 0.1180173297532526 1.819783216466365e-19)
(0.6541191580756923 -0.003116652330103917 -6.391825252422765e-20)
(1.041737238971436 -0.002019241017273008 -2.783688321604125e-21)
(1.054961507388002 -0.0002470666302956877 6.532109021045917e-20)
(1.359108584894584 0.1206587296851533 6.650850637594338e-19)
(1.337882207548429 0.2528526577908731 0)
(1.057436399952532 0.006802767812841435 0)
(0.9952763959316787 -0.005842338257706471 1.42272135965389e-20)
(0.994720631322031 -0.007298290700436636 1.589578653174283e-21)
(1.385890870437982 0.2000741999084749 4.302048037909388e-19)
(0.6817142853627221 0.0006432154305629385 9.876225104467813e-20)
(1.005684091655608 -0.002058859753470932 -5.980046953187754e-20)
(1.09797880302447 0.01308981105541026 2.545727027684411e-20)
(0.6694609517934299 0.004991281017923517 0)
(1.066081705451047 -0.01203280456901623 0)
(0.9896008320001718 0.1243476222268659 -1.282104091816532e-19)
(1.08186424927329 0.00415711100046749 -2.509760344239391e-20)
(0.9819325254828346 -8.867005687068998e-06 3.295671209041753e-20)
(0.9912108386454137 0.00599617540871846 0)
(0.6382147264769106 -0.001157007995771478 0)
(0.9768565944365356 -0.0012998147844298 0)
(0.6419648919021711 -0.001459515074128914 2.711165991238965e-21)
(1.087375080914118 -0.05745195528246216 1.21125601980879e-19)
(1.109987296822857 -0.003067864094815511 1.210884739118288e-21)
(0.9580810492003529 -0.0009023337188495884 3.901405969845829e-20)
(1.016216483361086 0.01081703196124926 1.680908739696587e-20)
(1.063772939586382 0.009893191536145353 -2.157510352796648e-21)
(0.6348185739150651 0.008846727057696785 -3.635503898072784e-20)
(1.00253151706125 0.012764685012797 -7.138205909146598e-22)
(1.036257791930558 0.01257407007744241 5.003937457976148e-21)
(0.9875465854623373 -0.005228114553123545 0)
(0.6100833622784233 -0.0004642805235668575 0)
(1.068877376171083 0.02271728521357062 0)
(1.015744309050687 -0.01588869771779393 1.054445200868461e-20)
(1.021689493431928 -0.001793631872096288 0)
(0.992687634219505 0.01498371443501316 -9.35520547494271e-21)
(1.011654131802598 0.00693060222786144 0)
(1.130734466940659 -0.004676871353190208 -1.268072222398425e-20)
(0.03254087159744352 -0.1375663332830374 -4.499886740387055e-20)
(1.03559040138378 -0.01570735988780182 -7.444547396981916e-22)
(1.045892541398159 0.009131189396610489 0)
(1.087759680117832 0.06644004623570178 8.386867263963253e-20)
(0.969433249375654 -0.0008502368773010672 3.117685700329222e-20)
(1.020456705103391 0.01715146955848974 -2.293367864441721e-20)
(1.006362688318237 0.001129392054971466 2.431022684204231e-20)
(1.040429137891278 -0.005173663681118074 0)
(0.6409867890009978 -0.004037167952967291 0)
(1.02599943798533 0.02447799552024767 -7.716120688384896e-20)
(1.080248406436356 0.005746154220449882 4.940839564073127e-20)
(1.012511197765291 0.003503301093790741 0)
(0.9816858528436291 -0.001765537229065113 -1.90765394352537e-21)
(0.8678222083159725 0.02163831537038211 -1.462095031487779e-20)
(1.013949476136484 0.003059839514203252 -9.94631646544452e-21)
(1.026545489652726 -0.001191692318638794 1.778543856503967e-20)
(0.9781076921270622 -0.001371270996582969 0)
(1.005994180146557 0.008458466321227419 3.325581188809568e-20)
(1.106950691048094 -0.005181000583112898 0)
(0.9316880799310964 0.004371348520641445 -3.45176930355277e-20)
(0.9578994187138127 0.007343458211376499 0)
(0.9067365395714504 0.2067164052235023 5.082595215672474e-20)
(1.011137924093055 0.06748798325556346 0)
(0.991233225908738 0.003807851027928466 -2.314260171523054e-20)
(1.053162609520969 -0.05066926961033504 -2.734962441135699e-20)
(0.992374373480323 -0.001436525191560395 3.367385615519453e-20)
(1.009152589099507 0.002126436829675274 0)
(0.9800959333377827 -0.0007110212889346295 -3.137360540540469e-20)
(1.175083747122875 0.0948758929524106 -3.304812350411958e-19)
(1.067772241236528 -0.2631376188417938 0)
(0.9948421864969649 0.001866584093609881 -2.206603245033875e-20)
(0.9809677570840453 0.009513503076416116 4.86170356249766e-21)
(0.9581749446626109 -0.000502150585980241 1.06669684663636e-21)
(0.7460294811760397 -0.001099155325619114 0)
(1.112865959289572 -0.07393744895057339 0)
(1.007979144965868 0.0002956442481265069 -2.1482038802429e-20)
(0.8989171607639073 -0.002455334133438567 -1.073168536077697e-20)
(0.8477927780018659 0.01253612428886462 5.878625274002316e-21)
(1.01006753585792 0.004381469635575505 0)
(0.9548053575338098 0.00505454821539106 1.602984657880557e-20)
(1.005817685504381 -0.0002122945249269923 -2.272327133448626e-20)
(1.023897023263538 0.002330329055476836 -2.515151784473684e-20)
(1.111344509201595 -0.00610756921424864 -4.897045677041368e-21)
(1.114311635104584 -0.004350911927618475 0)
(1.010916962892326 0.004170488000464189 0)
(1.025424694936751 0.0001059625765834749 0)
(0.9506795791393104 0.01023668039669284 -2.153603830103128e-20)
(1.017885359175132 0.01315912162691511 5.514142633765824e-20)
(1.081870049615994 0.006916623393824076 -2.281162146431212e-20)
(1.036780687459062 0.006631364596254317 0)
(1.107312885177568 -0.005801809126977407 1.808470437695729e-21)
(0.9960326374668484 0.001310500239145199 -2.216150549971196e-20)
(0.9811360006390155 0.003031464837809941 0)
(1.011224056277712 0.001910488189928538 4.692459016457239e-20)
(1.362717559924292 -0.3135413584679327 -1.123039186860803e-18)
(1.121459912912784 -0.0459285381850659 -1.101435539099764e-19)
(0.9754672377246979 0.01042051748292228 4.846727935845755e-20)
(0.7818967306223885 0.02489556690052581 -3.511118893935289e-20)
(1.220905312988553 0.04936332734572281 0)
(1.21502898051891 -0.1372325307926809 -1.472098884738098e-19)
(1.083109314164949 0.003345712077182165 0)
(1.009586528864012 0.001322496677744005 2.230588323171829e-20)
(-0.1785293313129606 -0.06838916702213571 0)
(0.9939716078926403 -0.004672019588139073 0)
(1.012359458121743 -0.02309220517038981 4.090381554146987e-20)
(0.7061393086528645 -0.01941258602099053 0)
(1.096802736276885 -0.0150436447431845 2.318524666638456e-21)
(1.040523128882276 0.000172333477690324 1.450069315495039e-20)
(0.6331265932728574 0.004182710221146518 0)
(1.445148019926244 -0.123052034281453 0)
(0.98645045319604 0.002087099963258808 -1.07775332003808e-20)
(1.06961903532251 -0.01495965900795737 0)
(1.038079627710608 0.0005654644407592105 2.111582854935112e-20)
(1.087805931590103 -0.002801111304949102 0)
(1.009227609860375 -0.002153011914089635 -1.216800639308517e-21)
(1.006245143554179 0.003158683455850978 0)
(1.012951393689197 -0.00780983225795056 -8.311459451801969e-23)
(1.003312622191493 -0.02009805979859493 0)
(1.033906970463999 0.0008810140727478819 1.854288851228838e-20)
(-0.2140144445628061 0.05294345478146018 2.746059396884899e-19)
(0.822374356092349 0.04048975331667195 5.796112707955606e-20)
(1.005273309162316 0.002370127631991017 0)
(1.125534366262518 0.02282354114108713 -1.316434580146586e-20)
(1.111776086237375 0.01385732628372219 9.595420105208003e-21)
(1.053826347200535 -0.0130378167687469 -1.306152556711303e-19)
(0.9987775884838156 0.01038568865009799 2.296155942924577e-22)
(1.083779741042768 -0.0002284276568803036 0)
(1.186249517963365 0.04981818263195896 0)
(0.8351134375038309 -0.0738208175672399 4.604594166375232e-19)
(1.098721902978678 -0.01505688398538491 0)
(1.032675493091735 0.00797687017547942 -7.601168142527295e-21)
(1.042783771065491 0.005353542212669811 5.8706987434717e-21)
(1.050485355693754 -0.06032392140404846 -7.508569364038741e-21)
(1.140175858401504 -0.002429348417606769 1.701599684630273e-19)
(1.076884626577766 -0.0006079529784866959 0)
(0.9951353947311125 0.001660856561464762 0)
(0.9976206065124031 -0.02407206460176019 -2.311848011693988e-21)
(0.9916335883057772 0.002895812008340851 0)
(1.028878481185108 -0.03734325774526447 6.445497121369273e-20)
(1.294443863774954 -0.09758950247822344 0)
(1.046236552877629 -0.01254815145780513 -1.153766730661824e-21)
(0.9861687505031058 0.01680702480770604 -8.857191720228645e-20)
(1.035534826489269 0.04208448457291538 -2.361833717649259e-21)
(-0.09202168492330629 0.1874146205090033 -1.680238008751052e-19)
(-0.06355927274794534 -0.2811672235705419 -1.373534605120816e-19)
(0.8568100660973595 0.113752286286408 0)
(0.2820795593316763 -0.0043878312323635 -2.93802627522554e-19)
(1.013633608837714 -0.01909816456660808 -1.274109278747684e-20)
(1.064007690526343 0.002629826775991213 -2.087696992614879e-20)
(0.9934976167151616 -0.02037056175566635 2.933992749776095e-20)
(1.025187038252031 -0.02657784474227037 2.552979475425072e-21)
(1.008381183794687 -0.03070814502698878 -6.632394194874612e-20)
(0.9886915412490666 0.004909553731046717 -3.483771188327333e-20)
(0.9937671166540489 0.004285851117551585 0)
(1.024559734092194 -0.001800186956452749 -3.571806097863736e-21)
(1.931262616816397 -0.1556209991239392 1.068877425561371e-18)
(1.053190351097426 -0.01895286911373893 0)
(0.9962685296619772 0.007187553816645167 1.507097959474132e-20)
(1.003019538479634 -0.0003223808893356161 4.051581685406073e-20)
(1.177673580135903 0.1409626315675835 0)
(1.006581736046404 -0.01772871359150226 -1.11951074111444e-21)
(0.9520585934989568 -0.0007796905540217941 0)
(1.037849588089666 0.04171871220424718 0)
(1.292501047497725 0.1554531111136501 2.175407305267022e-19)
(1.080269706953419 -0.009859745664405315 2.283995321800911e-20)
(1.017647154911335 0.032316561543434 4.605109049524092e-20)
(1.079455028940968 -0.005147997358809056 -2.202284418475404e-20)
(1.056034985096549 -0.01578689691697448 1.538552960529176e-21)
(-0.3846363529248183 -0.03477650918971983 0)
(0.9981992449011543 0.01325134377069267 0)
(0.1215574394981071 0.0585440534015074 -8.874139974168167e-20)
(1.005642110699905 0.02243010524527398 -4.067728785590529e-20)
(0.9988244189688628 -0.0084302124581997 0)
(1.000252032496294 0.00569119244293901 -5.001549948521248e-21)
(1.081625463008833 -0.04209264134487636 0)
(0.9956121172051381 -0.0187418779927034 -7.870117604275635e-21)
(1.09067909208442 -0.04669047342993052 0)
(1.440365925558177 0.1739339241882642 0)
(1.054219383733696 -0.01167426232614561 0)
(0.9917043173296919 -0.0229337686473779 -3.945522872391399e-20)
(0.980463211962308 -0.0254792833493236 -2.462781807760475e-21)
(1.020228019546576 -0.01872629865332354 -1.929194567900677e-20)
(0.9973718878857493 0.01726865026873114 -5.505057720803232e-20)
(0.9952749275584878 0.009551590314397691 -1.468770005052377e-20)
(0.9942695918405504 -0.0262243738176688 0)
(1.00227508016508 0.02569204442817818 1.920408211673139e-20)
(1.035977664306464 -0.03049937234522251 0)
(1.110406997036576 -0.03627271738805792 2.558793002362847e-19)
(0.9951659722798357 0.0171605154024868 4.561204685218269e-20)
(0.6151051874380413 -0.008676025682665865 0)
(1.14850981509681 0.1380700316360789 -2.629876934498768e-21)
(0.8341918214414482 -0.09820762422695313 0)
(1.139221216077638 0.07278498263719006 -2.756295472896357e-19)
(1.313358759991471 -0.3874114853151871 1.280798247247487e-19)
(1.076439756579117 0.06433393180879889 -1.327592417378607e-20)
(1.009957055129811 -0.02943781843945311 0)
(0.9548064209509057 -0.2138725042688855 0)
(0.5239353322413403 0.1570415336850314 0)
(1.012074248698154 0.01293774975448174 1.050156780620673e-21)
(0.7087148527829013 -0.01448047224135477 0)
(0.9980181747889967 0.01757354994012551 3.501955813538668e-20)
(1.021587536459329 -0.0006683456580926699 -2.687021831814782e-20)
(1.079176833580433 -0.008027474558769686 2.715124466952586e-21)
(1.043764943659228 -0.008586045459547817 2.997607148191121e-20)
(1.04285981868697 0.0108395468038961 0)
(1.054291694382727 0.02810775759560148 -9.937168861502381e-21)
(1.051585500900082 0.03468529154242759 -1.790262151711754e-20)
(0.9830165568211202 -0.02164594418423214 0)
(0.6249181239992796 0.005139561290150852 9.182649871759129e-20)
(0.8941770230354543 -0.005906106026016827 -8.857733778492245e-20)
(0.9093520631986499 0.005286467562133545 1.443305229998549e-20)
(0.6296033625542878 -0.006392939312097352 1.408560942465561e-20)
(0.9787800843405768 -0.0001550476642042659 2.599745236533494e-20)
(1.004437576612759 -0.01762373344549449 -3.393668707464854e-20)
(0.9672907747803055 -0.01120030527626639 -3.226399914560443e-20)
(1.085550406934231 0.001446743584502592 0)
(1.018749787194967 0.004652173719831538 1.085737582469587e-20)
(1.133325309462886 0.04827560640654775 1.330507900153371e-19)
(1.034031817616633 0.04243645233104209 0)
(1.02214002437961 0.002625100739875336 0)
(1.580710274009129 -0.1670709447978839 4.37421365547442e-19)
(1.039686554624127 -0.02679223823766607 0)
(1.0218773576957 0.007465084297622047 -3.638647235941419e-20)
(1.088179545413733 -0.004024102481228013 0)
(0.4844181001271146 -0.020498864969659 0)
(-0.04187547089296149 0.006830612526282621 0)
(0.9900121472008288 -0.02364507571706374 1.234025259099252e-20)
(1.299308622431453 -0.09585223285217788 3.696657732021621e-19)
(1.033791786197917 0.03952802803901569 0)
(1.022604760912959 0.003359054267664744 -2.214916488346918e-20)
(0.9450100388219592 -0.1656656879311131 -1.132094202604186e-21)
(1.252635914166318 0.07428943883946602 0)
(0.5991754799122687 0.7326951636186698 0)
(1.306084620493123 0.1465625077205121 1.080579972484493e-19)
(1.673703455478702 -0.0254685681552998 0)
(1.07075084245031 0.1220925173596889 0)
(0.7287701888425879 -0.0002338178252677477 2.88213701724924e-21)
(1.05116964554174 0.04920767764625603 0)
(0.7154749943009487 0.0985329822104668 1.252788518090277e-19)
(0.9968148406165996 -0.01631656399882674 3.581826238582627e-19)
(1.034253869280544 -0.03884121829183827 2.644850072785827e-20)
(-0.3708698172962721 -0.03241711058465417 0)
(1.071582749108611 -0.0161842763411652 0)
(1.094845180881987 -0.01662625309389296 0)
(0.647132759905044 -0.5002121424423138 -2.504380021503814e-19)
(0.9923381482224186 -0.0003238870770983839 0)
(1.091738880625223 -0.0220758133038441 5.678519923796458e-22)
(1.189228694415939 0.1211424313259475 -2.027082139112068e-19)
(1.092032791170456 -0.0373218296947209 0)
(1.004931183755157 -0.02102131597980153 0)
(0.8108735036400723 -0.1944507204139455 -1.73575045949705e-19)
(0.9013135724328186 -0.1408720853204559 1.514753972205638e-19)
(1.029771928682794 0.01000363586746511 -2.144265830045092e-20)
(1.023125270500532 -0.009272396884625654 -4.384756419867609e-20)
(0.8673999256336031 0.001151317521626237 -3.650483782633518e-22)
(1.502412254101019 -0.1935086567786059 0)
(1.301513817264377 0.1143432237751112 3.155368615084959e-20)
(1.24413220695356 -0.07917475636929973 -3.043722514393783e-21)
(1.095912011735582 -0.01874364826168808 -3.906491718521518e-20)
(1.043995491403149 -0.01634122603387871 2.761638837461627e-20)
(1.092802730706484 -0.03918917836903987 9.367915793956529e-20)
(1.032692978116478 0.01970348461290877 0)
(1.047249157419571 -0.03166078664094557 0)
(1.115855645487438 -0.009048073034277097 0)
(1.092709149405089 -0.02595111866064827 0)
(0.9979557849202326 0.01080604471496801 0)
(1.152430878368151 0.07509204498937137 9.354844842127982e-20)
(1.345428131217878 -0.1560506362238327 0)
(1.042169397663582 -0.02185951455472978 -2.067094662431953e-22)
(1.053207322802193 0.05406151028182074 0)
(1.009920714011064 0.01446624211612387 -3.883155963157799e-20)
(1.033563173097039 -0.008208713034067569 9.24359165609703e-21)
(1.088993911101908 0.01330638109268692 -3.199975320875895e-20)
(1.084441118443849 -0.02982247519918899 0)
(1.076780763313895 -0.005661478644537372 0)
(1.103037286136044 0.09347695456402544 -1.409999463741302e-18)
(0.9349330181070468 -0.1481721404506609 -7.100163294580798e-20)
(1.177806981787127 0.1058452149716353 1.107542885752428e-19)
(-0.4641490857171848 -0.005007445331637023 -2.922991577033826e-19)
(1.019547123408433 0.02931204620329838 -8.67923241351199e-20)
(1.006091933098517 -0.006222335041525704 0)
(-0.2757238074680491 0.03172909520649346 3.555008730734526e-19)
(-0.05196179107608315 0.3391024610729728 7.32715568267966e-21)
(0.9952229509208487 -0.006329073584527145 9.218500149098656e-20)
(0.1879791932729437 -0.04017951912204232 1.390659941296775e-19)
(1.097493600725462 0.08736342375643071 1.509270921103011e-20)
(0.09357839399613926 -0.1068050746571823 -5.386862305586711e-20)
(1.107882251208603 0.003151361526155705 0)
(1.096869460879504 0.2536769413253829 0)
(1.021632480220822 0.02201708226784556 -1.700392092547838e-20)
(1.071436215122851 0.06071798293507173 0)
(1.024504954326236 0.02673874453862167 -9.215416210263609e-21)
(1.260441764900789 -0.5475391885495146 7.998339001147027e-19)
(-0.08352345005561376 -0.2078621680508976 2.132571504466728e-19)
(1.295387626960654 0.113493414868552 -6.190611732162401e-19)
(1.124648036779693 1.119426270890604e-05 0)
(1.135175676439073 0.1005908215101705 0)
(0.5237201368798579 0.07999573167390324 2.497223163344713e-19)
(1.022947074908028 -0.0210874888442405 9.467003579491902e-20)
(1.005282697031762 -0.02370329261532121 0)
(1.21317325343141 0.271698527404434 -9.745752073996384e-20)
(1.250807248441236 0.1328942611081373 -1.542328822354416e-19)
(1.026533941023658 0.002666319100952725 1.566556738151859e-20)
(1.296850637410225 -0.08469539241222228 -4.976684702297711e-19)
(0.3038303462146144 -0.0194490627029822 2.717279271325191e-19)
(0.8326569605772842 -0.1486501068278747 6.803856487775108e-19)
(1.058904930060796 0.06993646110693891 1.071232570801855e-19)
(1.041160228874317 -0.007403387618520326 1.344258861410238e-21)
(1.001036490923527 0.02005518816610671 2.909808488472685e-20)