/*--------------------------------*- C++ -*----------------------------------*\
| =========                 |                                                 |
| \\      /  F ield         | OpenFOAM: The Open Source CFD Toolbox           |
|  \\    /   O peration     | Version:  2412                                  |
|   \\  /    A nd           | Website:  www.openfoam.com                      |
|    \\/     M anipulation  |                                                 |
\*---------------------------------------------------------------------------*/
FoamFile
{
    version     2.0;
    format      ascii;
    arch        "LSB;label=32;scalar=64";
    class       volScalarField;
    location    "1538.5";
    object      yPlus;
}
// * * * * * * * * * * * * * * * * * * * * * * * * * * * * * * * * * * * * * //

dimensions      [0 0 0 0 0 0 0];

internalField   uniform 0;

boundaryField
{
    FrontBack
    {
        type            empty;
    }
    Top
    {
        type            calculated;
        value           nonuniform List<scalar> 
15
(
142.2713558034206
133.5541768921242
138.065315402909
144.3885749927641
159.7635215579606
131.3673631390176
140.1110919802478
135.345403153708
153.4332240089373
135.7413618197971
136.0842511542633
136.7781446207588
125.2374127013629
132.9005019614557
123.9488489570825
)
;
    }
    In
    {
        type            calculated;
        value           uniform 0;
    }
    Bottom
    {
        type            calculated;
        value           nonuniform List<scalar> 
15
(
155.5663729121634
158.1112617077057
141.1036003395167
142.0809288967826
141.1887715180582
148.4575897652935
142.7137919849483
143.1707277940304
143.4232111007918
134.0629705007046
125.7385401891982
141.5589790430426
122.4132701344109
123.4912102956135
124.1456513830279
)
;
    }
    Out
    {
        type            calculated;
        value           uniform 0;
    }
    circle
    {
        type            calculated;
        value           nonuniform List<scalar> 
32
(
56.27202079659316
21.81853022422577
65.26063402517501
25.0333880565622
19.66155937741389
56.25686408521389
56.743233180699
24.14357296783596
22.17046502968428
65.48001988098467
40.10251815522474
62.98696590006044
50.42591399973161
14.952600984187
23.15846798205825
19.49715417406035
39.01773466662915
59.69118567494949
61.07769369743346
26.23753457551075
65.78285373819749
63.7580911876068
63.0289785735887
59.85355187545394
64.16265987223728
46.05735865321735
66.42856773668471
32.21214162227281
37.88730424804179
55.67115989794419
21.35766823086345
43.06615115788961
)
;
    }
}


// ************************************************************************* //
