/*--------------------------------*- C++ -*----------------------------------*\
| =========                 |                                                 |
| \\      /  F ield         | OpenFOAM: The Open Source CFD Toolbox           |
|  \\    /   O peration     | Version:  2412                                  |
|   \\  /    A nd           | Website:  www.openfoam.com                      |
|    \\/     M anipulation  |                                                 |
\*---------------------------------------------------------------------------*/
FoamFile
{
    version     2.0;
    format      ascii;
    arch        "LSB;label=32;scalar=64";
    class       volVectorField;
    location    "941";
    object      U;
}
// * * * * * * * * * * * * * * * * * * * * * * * * * * * * * * * * * * * * * //

dimensions      [0 1 -1 0 0 0 0];

internalField   nonuniform List<vector> 
808
(
(0.756270965492694 -0.01751314084058586 0)
(1.031559112783583 -0.01260669461638429 0)
(1.111201812552634 -0.004952404622192712 -1.717219890012032e-20)
(1.085125199241598 0.01258614988261958 0)
(1.362547098137021 0.01295075268635165 -3.820825987276765e-19)
(1.038751145146954 -0.009421409812676727 -7.32334473530862e-20)
(1.014494418537746 -0.0209512623575379 -2.436851129744633e-20)
(1.079249175361835 -0.005238405322695351 9.056396960843144e-21)
(1.25393086634993 -0.02156265306217652 6.262763389655826e-20)
(1.08532114136992 0.009555772729616201 0)
(1.007705969672428 -0.009538203747866722 0)
(1.305142344840203 -0.05451298860358185 -3.466697394064711e-19)
(1.086408794394632 -0.001987330344310442 2.045288026806255e-20)
(0.6752100249706158 0.006355480159889111 0)
(1.275313910481816 -0.11853205753951 0)
(1.081738170418939 -0.0004475576342625973 -3.873497574233451e-20)
(1.223933744048964 -0.1464395909362607 -9.495988920098348e-20)
(1.074165717235907 -0.0003362251823435571 3.2121043448326e-20)
(0.9890509810751089 0.003850633158948361 0)
(1.026630394263774 0.00966150711948348 0)
(1.032609504234077 -0.0132922537507666 0)
(0.9875797321618335 0.0451468627339693 0)
(1.051078466891044 -0.006033704457510648 5.793963218638298e-20)
(1.053803641091779 0.008873780860991725 0)
(0.933353299421812 0.1985513337507337 4.570483041076367e-19)
(1.161833671215608 -0.08654177172240861 0)
(1.185537506522948 -0.01977539358385676 1.54281276257386e-19)
(1.077262157361105 0.009661888146042755 5.233953305458722e-20)
(1.083646737529397 0.002120601944566044 5.124254887671606e-21)
(1.071748784263897 0.03091026368069443 0)
(1.075248687099448 0.002786907101446539 -1.183434809907564e-20)
(1.033271176846076 0.006730652354558418 -1.880479059969777e-19)
(1.060070933723077 0.01452605154002595 -2.350800761511268e-20)
(1.088778481325796 0.005650532036679153 -2.939181771570531e-20)
(1.121671413579022 0.03790781925164434 0)
(0.7549108882097749 -0.1219513260459198 -4.548640887225314e-19)
(0.954790324701421 -0.005818014081375499 0)
(1.068758355010524 0.02222086051718388 0)
(1.068799158241518 0.007230517436162189 0)
(1.073791042509675 0.008733371395761681 -2.819607913905617e-20)
(1.093233503680589 0.02385520098044364 1.081610272239872e-19)
(1.150839846922744 0.002496773108995939 2.120151471388898e-19)
(1.095847476420032 -0.002263945922497343 0)
(1.015180567001446 -0.009312561856244524 0)
(1.129995562438758 -0.09285116174188821 -1.627055344073801e-19)
(1.044074007869848 -0.01168300294255183 -8.353097732755819e-20)
(1.058133844082147 0.0266470817385206 -2.679610662829715e-20)
(1.230414161698894 -0.1126554822438924 -5.562113866003716e-20)
(1.067484274847802 0.01201994022472427 -4.080624611134894e-20)
(1.257771939623674 0.01532257312501898 0)
(0.9969836170568702 -0.01923098676446205 2.215190470144873e-21)
(1.044753665295441 -0.002189273653108568 0)
(1.087472675577694 -0.002117056312219132 0)
(0.9990313322452881 0.007753844506738434 -1.879191568024326e-20)
(1.251277264633979 0.03293456456408116 -2.387176160144425e-19)
(1.063420976950153 0.01809121143253391 5.886620707166796e-20)
(0.9908108386721923 0.01139102577162306 0)
(1.015925827447818 -0.006514472788626997 2.519011170073626e-20)
(1.107567649398009 -0.001141320529018236 -1.158295979426285e-19)
(1.061163838227203 0.03121696325888632 0)
(-0.08801933860315557 -0.004801579354654644 7.675363576958869e-20)
(1.154473465909083 -0.0523609035052672 -1.851797499271184e-19)
(1.004975866708 -0.005631119257879379 -2.766484647103042e-20)
(1.188172370853555 0.0670112763277689 -1.208178556224786e-19)
(0.9971562220101532 -0.009713760586588838 3.104503494267478e-20)
(1.084209671629286 -0.005454989094445769 0)
(1.249187402231668 0.0933289922373122 0)
(0.6960837503728502 0.003164861113391886 -7.424323706743981e-20)
(0.9883025657551092 -0.01465154896857624 -3.234312433144634e-20)
(1.458426929742934 -0.01998178874329123 4.400776152010144e-19)
(1.060530974284374 0.007608277468923654 -6.540957596309909e-20)
(1.366782637243681 0.09318395060805477 2.84159806583567e-19)
(1.054861743342753 0.00681350636070704 -1.9577346846451e-22)
(1.080959985821897 -0.01396421463237324 -2.445814679624598e-22)
(1.163850916787452 -0.2358627964403023 0)
(1.022082370197848 -0.01511312579488052 0)
(1.017233458015753 0.01807778705807459 -3.000450094172693e-20)
(1.387697817389547 0.3487035292268176 4.224318849797289e-19)
(1.097435981689017 -0.04246412494820825 9.588919642046927e-20)
(1.046288188395072 0.21031287396027 2.420195430887634e-19)
(1.12314555368663 -0.06089148399158702 1.177934690587622e-19)
(0.9219593538702722 0.005171217695131617 0)
(0.9753365606211267 0.01852557751395265 0)
(1.004013038732022 -0.04856598140008542 3.120974051176217e-21)
(1.009908124927579 -0.01367342779279753 7.828772886429973e-21)
(1.030455793603463 0.02686118809904278 1.354457718172939e-20)
(1.527387864272358 0.03372167393260137 3.215851104245669e-19)
(1.290244163939512 0.07015843041666922 5.627871587084191e-19)
(1.072449701722326 0.003101300345188406 -8.84326049841556e-20)
(1.194494597180494 -0.09533258813994358 0)
(1.033858279212905 0.001822200384232351 1.292770675825726e-19)
(1.165243177253469 0.02085522561738384 -3.1337696432124e-19)
(1.001495674377711 0.03250623401927479 0)
(0.9996274085983956 0.002006458499372473 0)
(1.044299489666358 -3.903199853755781e-05 7.995742392574021e-20)
(1.218139844410491 0.1073915021176986 4.082752235472557e-19)
(1.011139640817427 0.006971859575570753 0)
(1.089973767868376 -0.06788593092721887 -1.065363355959383e-19)
(1.151451611487155 0.0363018914820914 0)
(1.216393591067427 0.09164715756504212 -1.912445375805288e-19)
(1.108304979683455 -0.02890644244354629 -7.820371483945146e-20)
(1.027481784003979 0.01192715417964849 0)
(1.085131078235792 -0.004589522476658862 0)
(1.019354094301333 0.02646978926778877 7.853419898702466e-20)
(1.073413864104444 0.05662696530520218 -9.543463202345331e-21)
(1.103736565835108 -0.004197515367143942 6.429898177315005e-20)
(1.107182255434818 -0.09172753791329843 1.497812205642192e-19)
(0.9638469067842528 0.002627256477948858 0)
(1.066000993179993 0.03127013047940185 3.694721063684421e-20)
(1.16828403199515 -0.07687986486532003 2.263174374044479e-19)
(1.052207965183678 0.04729566546008344 -2.852411411689489e-20)
(1.022928757153795 0.06791166940221957 3.651729030230493e-20)
(1.090204746571387 0.02608385558186202 0)
(1.017624427896559 0.01451182532756828 0)
(1.028985996272599 0.009363394521137835 7.840326977833854e-20)
(0.948544318966009 -0.03255587152445173 0)
(1.052869344582239 -0.005444124184548036 -7.429520837347535e-21)
(1.341167946631818 0.05592124323853818 -1.543489531050856e-19)
(1.079700253869442 -0.01315452425738355 2.667742605513682e-20)
(0.7440364853993261 -0.001730941604447194 0)
(0.5900832000623726 0.1909478803596517 -1.131442906403021e-19)
(0.7061214242192698 -0.002483219247044904 0)
(0.6988042384606259 0.01463450160897591 0)
(1.077721364949689 0.003622678856867774 -6.478051806247569e-22)
(0.9906528245338375 0.01447711119511614 0)
(1.279707152927949 0.12202488139086 2.547491165280507e-19)
(1.012245395754731 -0.02788201558357395 -7.421568823816205e-21)
(1.044379232293741 0.01674782940288282 1.48566739991939e-21)
(1.058629296978438 -0.01209455549197346 0)
(1.126549103902181 -0.009142251999123453 -5.125092751161251e-20)
(1.271754735487667 0.1286319655148882 -2.259655257381885e-19)
(1.089143536764387 -0.01092286112678101 -8.626433691742015e-20)
(1.070886115254557 0.02635286516439313 -1.072137638311308e-19)
(1.04099726498156 0.04679332746375871 7.397638458513235e-20)
(1.022589400016563 -0.003665328275077733 -3.479871542548358e-20)
(1.060935433624328 0.02366709496007493 5.722524240710296e-21)
(1.137972377671651 0.004146050052667046 1.034276636936729e-20)
(1.039225669422612 -0.0142295010003031 -4.778625869919273e-22)
(1.087382747524967 0.03472908147468743 0)
(1.02829980602231 0.01372103796086613 0)
(0.7798936495895294 -0.07860347183313715 -1.816833729357644e-19)
(1.0302860215338 -0.001808004491054285 -6.564888694834185e-20)
(1.131700645391041 -0.001421279129914756 -1.245760252228012e-20)
(0.703451237615333 0.006558176920799822 7.132957571629603e-20)
(1.17520762096251 0.01913280147698558 -1.969467339528825e-19)
(1.137024259473102 0.004769953782879492 5.153152424641827e-21)
(1.129010870920466 -0.01004893680195473 3.37309808329427e-20)
(1.000933474023936 -0.002961934456364893 -6.778309376833157e-20)
(1.101906025073168 -0.05830314296641068 0)
(0.9898006921779368 0.005039327914694729 0)
(1.05782670904518 0.007024094475701553 0)
(1.005899872011719 0.188965982135856 -2.372166355165139e-19)
(0.779241375896515 0.01243630348761205 0)
(0.8570273794290816 0.1022117115992952 -8.227808684228657e-20)
(0.09260027134727429 0.03273536144241819 -2.970725831467492e-19)
(1.171787139104363 -0.03152174918577805 -2.289376163935684e-20)
(0.6712659018636693 -0.007334139216636142 2.45335742496479e-20)
(1.164535158483072 -0.1008776392745646 6.923858607176738e-20)
(1.126080530245376 6.379029194130434e-05 -5.803681669595563e-21)
(1.153647662593056 -0.04947902305700901 2.224697305663923e-20)
(0.08277451014031102 -0.2070505168506341 0)
(0.2398259501860464 0.06468128596942542 0)
(1.261629811409746 0.1053577456388419 1.861769514637925e-19)
(1.021145547518681 0.01983004683796871 0)
(0.7377315941884479 -0.006251304781728658 0)
(1.075018369454624 -0.01142764508499471 2.74323223263699e-20)
(0.9748481934590996 0.002875692643511903 0)
(1.297202648561984 0.1200124707748755 -1.487698530537993e-19)
(1.057359985557246 0.01095920520912518 0)
(0.9930007605882126 -0.007094913199180113 0)
(1.065152386500896 0.008284582286502312 0)
(1.006237399184726 0.02090156193968723 2.169429693328726e-20)
(0.9350911646079656 0.01079374343392167 1.268530422831203e-20)
(1.176181182065914 -0.199651264854031 0)
(1.0050906003148 -0.005194251217538313 8.048602779639176e-20)
(1.059184838839757 0.006325133334275143 0)
(0.7745970313573022 -0.003300140995194966 0)
(1.218064339973921 0.02640598586638647 1.622371188367487e-20)
(0.7050114547718577 0.001368923436865734 0)
(1.433446750520558 0.08402781834412365 -5.115347291590553e-20)
(0.9949576474945157 -0.005342337716158507 1.679347392821729e-20)
(1.273960068195319 -0.003759999822697155 -3.00260101345992e-19)
(1.05968135287045 0.009035180366344429 1.330666074400122e-19)
(1.000908789737229 -0.01353395583624014 0)
(1.209475334724392 -0.1440118138228878 2.053269863671265e-19)
(0.7331755108679191 0.01378483285978826 0)
(1.098354372375968 -0.004916594160854023 0)
(1.156262217813175 0.06724747986983338 1.894302280528797e-20)
(1.006455597754257 -0.006452709155381706 -3.048594270128633e-20)
(1.122851111631842 0.05191501869728989 -1.721623683840139e-19)
(0.1264056592774024 -0.09394461728541745 0)
(1.073355114782643 0.03901250455291123 0)
(0.6617081391980857 -0.002877510372096096 -5.013815133182269e-22)
(1.012112789236809 -0.01955636891063742 9.077138411823137e-20)
(1.061435223618331 0.0008755464447471465 0)
(1.078789888568955 -0.1376055506429982 3.764647377609698e-19)
(1.002703540867658 -0.00613611800198474 -3.295671228425499e-21)
(1.003223531184413 -0.004194601755903869 9.886140947767946e-22)
(1.093994634436273 -0.009209757131527101 0)
(1.020749251831389 0.02033633964092587 -6.63460325951236e-20)
(1.10664160252736 -0.001589039811712777 6.355513260690178e-22)
(1.074523652927034 -0.01084059007040041 6.656091664351543e-20)
(1.085645900603341 0.02217073356604283 0)
(1.326398424288382 0.1558331534932896 0)
(1.002072510953079 0.0005029946077678628 4.40764866250271e-20)
(1.319036482485701 -0.1325679960815272 1.602562130619944e-19)
(0.01051523998523851 -0.1615468081314161 -2.317657085699808e-19)
(1.071109733051272 -0.005354282104869225 0)
(1.111338768660656 -0.00524820177387859 1.16400306752238e-20)
(0.7267439135031049 0.01779540992665356 0)
(1.058328669107206 0.0112296757225633 0)
(0.8618567669094104 0.1614899717098922 4.596388815353509e-19)
(1.284269421602527 0.1252356882764518 1.902665281896472e-19)
(0.6542332768667044 -0.003101957358843515 -6.531526354017561e-20)
(1.039623912071264 0.005535309104104719 -4.315176512233814e-21)
(1.054800380142797 -0.0002082151974163639 6.451297947705092e-20)
(1.362722961440676 0.1168716528928865 6.568512927673243e-19)
(1.336362490185494 0.251914300932835 0)
(1.058237725824641 0.00914780149549727 0)
(0.9993687403818159 -0.004179403109885192 1.385542784221314e-20)
(0.9931079299794486 -0.002237329151416112 2.986321686168994e-21)
(1.384276529040642 0.1992470891160756 4.320997806154123e-19)
(0.6818608986106197 0.0004905377529878224 9.969910696793394e-20)
(1.00569514992947 -0.002200977295133792 -6.023726342202913e-20)
(1.098178793059097 0.0131486202141267 2.562125788040837e-20)
(0.6694524450254984 0.004951281176861038 0)
(1.066085911389423 -0.01202489671185013 0)
(1.013340405989339 0.1408259799479599 -1.426562896680876e-19)
(1.089293035053095 0.0005881134569687384 -2.58391877856945e-20)
(0.9819348796086794 9.585606442021578e-05 3.310754925139728e-20)
(0.9912118164393428 0.006003084364007118 0)
(0.6381286691189588 -0.00109087215969724 0)
(0.976706462807947 -0.001247692210231822 0)
(0.6420443160837228 -0.001418336517219316 2.638146852215825e-21)
(1.087919733390027 -0.05540292092215382 1.213255216533348e-19)
(1.110037338603008 -0.005637872599208152 1.141224618687827e-21)
(0.9579705329567574 -0.0008539554296006984 3.878650045120222e-20)
(1.017219042855071 0.01030669907986347 1.741343915452212e-20)
(1.065924747016847 0.006833233496297952 -2.445540831825901e-21)
(0.6347747340579435 0.008870622142746257 -3.614297531866726e-20)
(1.005912445248696 0.01031021313796412 -6.440971673615752e-22)
(1.037830358811284 0.007665626066519056 5.366133412821862e-21)
(0.9856176045556717 -0.005403368265617449 0)
(0.6099763721744509 -0.0004434858517726952 0)
(1.068992630617556 0.02249597732500483 0)
(1.016267421751402 -0.0168863504425507 1.03138311139387e-20)
(1.023171746027288 -0.007182342394125036 0)
(0.9930506557429895 0.01353531333459115 -9.857990573135505e-21)
(1.009107736896486 0.003277163260685143 0)
(1.134563555247199 0.003017572575215981 -1.20532982414965e-20)
(0.03176612682228223 -0.1416776132669503 -3.863329811556594e-20)
(1.034343358500768 -0.01816080628747626 -5.919608118361261e-22)
(1.042708836340114 0.007074569785170001 0)
(1.083877994367797 0.07050583391306725 8.435792593961716e-20)
(0.9672466601697418 -0.001446576899787345 3.109275948869107e-20)
(1.020072559675254 0.01674489853048659 -2.242545599084414e-20)
(1.005345417071419 -0.002701659287520402 2.403610816092991e-20)
(1.038887331978985 -0.007948538220153409 0)
(0.6409224591431358 -0.004086203172120212 0)
(1.025949899346198 0.02450910152239083 -7.916399750721265e-20)
(1.087698208921662 -0.001994857581683684 5.091393836960971e-20)
(1.012896729236291 0.007722019751879512 0)
(0.9805306033835151 -0.0004649932456731302 -1.939439291528813e-21)
(0.8548035397382754 0.008743177235812739 -1.059165724528944e-20)
(1.013978632666393 0.002696820799718169 -9.51399806878983e-21)
(1.022260722767752 0.002787878990971027 1.872663271176167e-20)
(0.9829293222699244 0.001703323126757176 0)
(1.007429803143448 0.01122220545540864 3.226215867978267e-20)
(1.11094265929269 -0.0007855975583403498 0)
(0.9338549836844897 0.0119310405990315 -3.159884992991737e-20)
(0.9534296352888623 -0.000778488342359066 0)
(0.9016920808717561 0.2022937257014253 4.951885061291343e-20)
(1.011117213706366 0.06739258118953038 0)
(0.9909530713778231 0.004920842989610187 -2.281127607696298e-20)
(1.058279539042715 -0.04938769395560216 -2.805991639473876e-20)
(0.9939742670101352 0.0002847265380302794 3.245711531081271e-20)
(1.006950972322823 0.00637723974248262 0)
(0.9801229248166776 0.0007370917401548595 -3.006848824483701e-20)
(1.178090910759777 0.101954633468776 -3.394080308533744e-19)
(1.068619907926543 -0.2642919064151594 0)
(0.9942247785999907 0.0004265383859105513 -2.269485302652623e-20)
(0.9735625083505162 0.002694780131393868 4.773582409707923e-21)
(0.9603229242568633 -0.001156638328032598 1.015827129188558e-21)
(0.7459873760311803 -0.001059066531012569 0)
(1.12059201079313 -0.06997607820941665 0)
(1.003506968108927 3.129292092662582e-05 -2.258541456858437e-20)
(0.9090491045745672 0.009503691191430488 -1.065362008111913e-20)
(0.8410329301489669 -0.001386389938692283 3.408646354315872e-21)
(1.012649469857925 -0.00758509096908959 0)
(0.9620877685403664 0.01407705378502516 1.478483409754409e-20)
(1.005612769570513 -0.0001992283819128779 -2.243803081289692e-20)
(1.02626632209268 -0.002498794353888817 -2.485071532083601e-20)
(1.114380745515773 -0.003445413197645632 -4.912054534676858e-21)
(1.116796228151102 -0.00439503568762605 0)
(1.010058710500247 -0.0006170407432223629 0)
(1.022364874761507 -0.002812361801558061 0)
(0.9443061924818135 0.005619036047078927 -1.975272466745025e-20)
(1.017861291945721 0.01340117025824059 5.613168654727778e-20)
(1.088197086439301 -0.004497243011161119 -2.357744044231355e-20)
(1.038954775019032 -0.004459117785938028 0)
(1.109003332968973 -0.002379340778137233 1.838116435272136e-21)
(0.994206703749124 0.001173945926723656 -2.245770065737587e-20)
(0.9805618906216306 -0.0006687949453733095 0)
(1.009940217864487 0.002556516697387216 4.690483701281914e-20)
(1.363625967039466 -0.3140940191167618 -1.120663132876673e-18)
(1.120772679176604 -0.04426801688685943 -1.109258695157828e-19)
(0.9710640298857328 0.01042639458832218 4.444336680560474e-20)
(0.7662160080534259 0.00718439110650131 -3.538314321278021e-20)
(1.223954852815715 0.04985302977824903 0)
(1.21681732468632 -0.1280946459026898 -1.481147045311043e-19)
(1.08521059202319 -0.004793307674126546 0)
(1.008589320176869 0.0004324783808442091 2.294181240268027e-20)
(-0.2004389777184503 -0.113883689869966 0)
(0.9939688377798346 -0.004668338733804228 0)
(1.012337434908186 -0.02304090323024197 3.94757002233779e-20)
(0.7064147371053092 -0.01943526226210452 0)
(1.096789992422367 -0.01488658589301077 2.317881970940916e-21)
(1.039316592882468 0.002121768630534985 1.560776129168016e-20)
(0.6332280710294784 0.004135360541877809 0)
(1.446684487794106 -0.1241447047022842 0)
(0.9857822157871737 0.001941698882797095 -1.067042123069786e-20)
(1.06968205140633 -0.01508742105086925 0)
(1.037805891815609 0.0005086285501527757 2.046474757658739e-20)
(1.083637193934929 -0.0004822405073233853 0)
(1.012224114012943 -0.005466170005386379 -1.193101958501732e-21)
(1.005963264825274 0.003295762703726755 0)
(1.007859149341664 0.003601697999712395 -1.262986080391284e-21)
(1.004410415539943 -0.02036113776796322 0)
(1.036327883682888 -0.007860758462255448 1.783694557046666e-20)
(-0.1906917359190637 0.03928585799812299 2.80331946166443e-19)
(0.802834188449642 0.02748763711252222 5.898169482500334e-20)
(1.005102343958196 0.002081937459999517 0)
(1.122305181941376 0.01031353312694175 -1.194226608066921e-20)
(1.110963201443651 0.003963657445160729 9.194193413877426e-21)
(1.054287360437493 -0.01274898790861348 -1.326420450304579e-19)
(0.9987725567896467 0.01039881467063013 -2.394153674033173e-22)
(1.083384905204296 -0.005480790674097274 0)
(1.188989805497151 0.05093214184926083 0)
(0.8350942197284383 -0.07494718645390212 4.605958038381507e-19)
(1.089208580518618 -0.002917588421721661 0)
(1.033885190615162 0.007807572360980728 -7.696282649959515e-21)
(1.042525491374857 0.00534667067962521 5.657150803309378e-21)
(1.053819284392558 -0.05839551118418808 -7.599490193914096e-21)
(1.139338542708762 -0.001921274161183726 1.7203168418039e-19)
(1.082145148829592 0.001833276084013579 0)
(0.9942574056137286 0.001928346817393911 0)
(0.9979586977528221 -0.02650402564374825 -2.439491412498775e-21)
(0.9905242385616165 0.003622158227479525 0)
(1.030783936025226 -0.03667480617875605 6.512863331592843e-20)
(1.29116604014688 -0.09777391089639408 0)
(1.040541976300929 0.00206573185782462 -4.369880088692711e-21)
(0.9861866373053656 0.01691041412910118 -9.049698220432822e-20)
(1.033425099939476 0.04309854744028471 -2.325262080453131e-21)
(-0.07479050860413344 0.1853931863781596 -1.737724196855056e-19)
(-0.07029839707317649 -0.2878235714279808 -1.295147936445179e-19)
(0.8833217949963845 0.1198455211008908 0)
(0.2776889638884345 -0.02959915119767118 -3.043455722640807e-19)
(1.007487840446008 -0.004180299248047441 -9.662593873709513e-21)
(1.063939774300631 0.002720423921339655 -2.064986486875025e-20)
(0.9919860039994337 -0.02164775569569552 3.106035995033791e-20)
(1.026561125068259 -0.03057927488436016 2.693472241399114e-21)
(1.009976084336688 -0.03066089397429875 -6.705368397571653e-20)
(0.9888407436464167 0.004876017474563793 -3.491344970909983e-20)
(0.9936101608330083 0.005065545714901168 0)
(1.024512637076621 -0.002240544865361569 -3.471476710193698e-21)
(1.931924772348739 -0.1564975701947369 1.066639006369077e-18)
(1.046667003932204 -0.008921750148515799 0)
(0.9966171649335348 0.008032690297442821 1.491704894444868e-20)
(1.003644855022479 -0.0005429690566292615 3.992059528045908e-20)
(1.168204642489368 0.1595419484175531 0)
(1.005434558906139 -0.01810740696840157 5.661136758648102e-21)
(0.9530429584428264 0.003771091700193098 0)
(1.037843742528303 0.04172904916988394 0)
(1.302204406610725 0.1502372685139221 2.232668251804148e-19)
(1.076874103810681 -7.870312056628274e-05 2.335758242043409e-20)
(1.016014408715438 0.03046280660429886 4.461780714523067e-20)
(1.07947175585075 0.004206860387640781 -2.248891630031094e-20)
(1.056759168124795 -0.02252958149346218 -6.057400007611072e-21)
(-0.3894579752950378 -0.04598234123594018 0)
(0.999649047627314 0.01261465538575446 0)
(0.1231966189593576 0.05342315262843561 -9.476984217247368e-20)
(1.006073062547559 0.02026805097517226 -3.997615173937794e-20)
(1.006931793087354 -0.0270476381422296 0)
(1.001159921180938 0.005304927033480314 -4.869679085232402e-21)
(1.08204247680262 -0.04239645600793376 0)
(0.993963756089625 -0.01864611540563805 -8.142898220423555e-21)
(1.100812633859289 -0.05179520528131151 0)
(1.443293159692265 0.1696186744878234 0)
(1.054866069168882 -0.01196458066030309 0)
(0.9914464073691368 -0.02494986575727576 -4.17451021489315e-20)
(0.9941068207269497 -0.02599995516023334 -3.501049977048068e-21)
(1.016279332174847 -0.02183366403555916 -2.165461048851803e-20)
(0.9966030768035132 0.01689087190716775 -5.402790947634523e-20)
(0.9961298617674347 0.009636391477362448 -1.453772956024292e-20)
(0.9954572041906252 -0.02779815967715073 0)
(1.001669323599513 0.0240404488125025 1.876841172022235e-20)
(1.045570003164335 -0.02488028699459384 0)
(1.110966502296781 -0.03633903714066228 2.53139669886962e-19)
(0.9953526857054006 0.016546084528319 4.467303630099552e-20)
(0.615037052212795 -0.008695446439117068 0)
(1.154394442308699 0.1622755996730343 7.412910070420234e-22)
(0.8276724352976742 -0.07930815602237615 0)
(1.138505849102192 0.07259945673336532 -2.793285575552778e-19)
(1.314865226702869 -0.3887871341993558 1.279339560164165e-19)
(1.070441289309997 0.06678745655810751 -1.24891894029223e-20)
(1.011823100433088 -0.03071073586397 0)
(0.9553632366296477 -0.2150359964602611 0)
(0.5486348408262091 0.1779278704538461 0)
(1.015543600328998 0.01292333348911888 1.089660341017809e-21)
(0.7082166252358073 -0.01643125800332037 0)
(0.9989306417480847 0.01622832537853106 3.442053809241297e-20)
(1.026838209330879 -0.001280738551366435 -2.680339393202788e-20)
(1.079007445992296 -0.008024614050723305 2.637618665508871e-21)
(1.054817195824391 -0.02660578781636954 2.548510445047918e-20)
(1.042868179626996 0.01153062283375329 0)
(1.057351684447637 0.02049051610534984 -8.723230749359252e-21)
(1.050578887723232 0.0363010763460784 -1.768763803205722e-20)
(0.983879441553957 -0.02236821198685247 0)
(0.6248805257037199 0.005110703754711029 9.170022881010067e-20)
(0.8941593575788028 -0.005949411699918666 -8.845514381534648e-20)
(0.9093628242754114 0.005226724374086135 1.451450463632753e-20)
(0.6296460831642344 -0.006441882845073575 1.410767028854195e-20)
(0.9809790283583982 4.643914150721351e-06 2.465549425422235e-20)
(1.004409038047893 -0.0175333229633497 -3.321611568614856e-20)
(0.9822580953752561 -0.03008163217899402 -2.749787414173818e-20)
(1.085641018767872 0.001591692328479266 0)
(1.019289773646825 0.005335295747820221 1.0457385068233e-20)
(1.132717010650818 0.04830193048838989 1.347380576656927e-19)
(1.031354015559591 0.04239973860358026 0)
(1.022594207984323 0.002603300634860019 0)
(1.582492144417815 -0.1682036179924153 4.361914891873968e-19)
(1.055676423004164 -0.03839510491414772 0)
(1.020767991312087 0.01066742087061683 -3.616785912105793e-20)
(1.082651002457675 0.004923930902434602 0)
(0.4929104655798766 0.003342244919441739 0)
(-0.0021727046548833 0.009678806457543477 0)
(0.991169416842469 -0.02360300746832374 1.252639465262837e-20)
(1.300847360088436 -0.09677316889806038 3.670601167942955e-19)
(1.030899024427528 0.03641657562201042 0)
(1.022521733181264 0.003573917100256602 -2.180282621393827e-20)
(0.9315376515710428 -0.1609906089518232 -6.122084705931467e-21)
(1.256422577174723 0.07411643711540375 0)
(0.5979658995432944 0.730179087404356 0)
(1.307597969572016 0.1409468592436237 1.039071072976346e-19)
(1.675195783342482 -0.02662238092630859 0)
(1.062558268765766 0.132471367502081 0)
(0.7253040197619053 -0.005102943149315363 4.105943712705268e-21)
(1.046246639012867 0.04675516673381506 0)
(0.7509333625081492 0.1160350176655822 1.389414518793665e-19)
(0.9968112026385118 -0.01631075654727521 3.584223941367316e-19)
(1.038971180428289 -0.03942766707626894 2.712600746116183e-20)
(-0.3749276448804769 -0.05364567617996552 0)
(1.072194958838746 -0.01620552243337648 0)
(1.084809448732212 -0.01080328524157981 0)
(0.6482202150865747 -0.5031152682093452 -2.490016069104091e-19)
(0.9901151979533735 -0.0001881288656840088 0)
(1.092266200603262 -0.02193277532180151 6.706876466946199e-22)
(1.188204911819051 0.1207200519394674 -2.044048077009282e-19)
(1.099610697194116 -0.04443654752821029 0)
(1.005834531591471 -0.02075266022534053 0)
(0.7752252726933017 -0.1898132270241356 -1.636518150905415e-19)
(0.8861028069742354 -0.140793250866977 1.456294545005355e-19)
(1.033989189164214 0.01292236463629605 -2.056320025342034e-20)
(1.023131117498171 -0.009066425622963534 -4.300258430465253e-20)
(0.8732761261607022 0.001726278049104636 1.529118511834103e-22)
(1.504020441391335 -0.1948287498369532 0)
(1.307942241239304 0.110218625741148 2.988880200341608e-20)
(1.240985298084964 -0.07752141666998806 -3.275608844913625e-21)
(1.095804432021183 -0.01873818556709646 -4.015364078508038e-20)
(1.036837687746885 -0.01792040269576084 3.077160358503209e-20)
(1.092815955025027 -0.03912162586500968 9.538549645169872e-20)
(1.032281107895796 0.02055995904600796 0)
(1.051361515125286 -0.03498599299297849 0)
(1.115900806759893 -0.008989994940010033 0)
(1.100563378044543 -0.03920440812699631 0)
(0.9982816347130369 0.01082709719066836 0)
(1.153632623008865 0.08026520186051143 9.414105244263612e-20)
(1.341680915192818 -0.1595703715692588 0)
(1.04024884370877 -0.0271913740764527 -2.598487458563267e-22)
(1.048262387119101 0.05425696097354457 0)
(1.01011850166334 0.01416627597627073 -3.803002230899013e-20)
(1.033594393456248 -0.007630486185544434 9.364346319214342e-21)
(1.088963580815127 0.01340180176191328 -3.173057514728622e-20)
(1.08441735727687 -0.02856024798553972 0)
(1.072384302664294 0.0007238509102643477 0)
(1.101553083840307 0.09253396825467966 -1.398367932092416e-18)
(0.9351426115516439 -0.1490937738941222 -7.104025714083161e-20)
(1.177736817415713 0.1163315761216526 1.145853488700923e-19)
(-0.4564491728967198 -0.03022549943870405 -2.915682697119948e-19)
(1.018207494688822 0.02961979280141273 -8.56967002056081e-20)
(1.007073363868151 0.0006169169196020985 0)
(-0.2423248184346183 -0.004336218312507348 3.577496321952377e-19)
(-0.03292254240661097 0.3130607673178935 7.596527703353557e-21)
(0.9952076734083728 -0.006289847922561636 8.997092141366044e-20)
(0.1829703527187105 -0.04488005027487604 1.282203005502057e-19)
(1.087389970020744 0.09103551870984547 1.421356154153504e-20)
(0.09343215038092474 -0.1092829843788172 -5.406714870442277e-20)
(1.108345361094335 0.003086249462693843 0)
(1.094755042663181 0.2492785574281988 0)
(1.021059046021004 0.02162240123817848 -1.678157207581103e-20)
(1.062101746437085 0.05647988805038199 0)
(1.024886603484551 0.02367628644026325 -8.287117806478116e-21)
(1.261837868385998 -0.5484396222656348 7.997642465395481e-19)
(-0.1017726943892323 -0.2402603461885252 2.079910413686e-19)
(1.30009958748584 0.1111242501798721 -6.130147179798433e-19)
(1.123585261777782 -0.000303356913122294 0)
(1.127055104949434 0.1079524601768492 0)
(0.5203282326833323 0.0760289049231703 2.402882591842702e-19)
(1.023284406676993 -0.02036667146705738 9.590116487829111e-20)
(1.00606276713454 -0.02313022460114916 0)
(1.212015869098203 0.2707585455937123 -9.782910365163216e-20)
(1.255971994750759 0.1257022814039687 -1.49625468219042e-19)
(1.026502608990062 0.003061468105810233 1.59074726293005e-20)
(1.296797716203031 -0.08518072219473102 -4.951851569647096e-19)
(0.3088194001853444 -0.02370632995147023 2.91988328511852e-19)
(0.8342096589363005 -0.1502692758111946 6.923537524536549e-19)
(1.044438206433945 0.06139423405486962 1.101991862747287e-19)
(1.0386451916621 0.002203190034891929 1.460652646108887e-21)
(1.000750307444561 0.01927594217347243 2.846745278184761e-20)