/*--------------------------------*- C++ -*----------------------------------*\
| =========                 |                                                 |
| \\      /  F ield         | OpenFOAM: The Open Source CFD Toolbox           |
|  \\    /   O peration     | Version:  2412                                  |
|   \\  /    A nd           | Website:  www.openfoam.com                      |
|    \\/     M anipulation  |                                                 |
\*---------------------------------------------------------------------------*/
FoamFile
{
    version     2.0;
    format      ascii;
    arch        "LSB;label=32;scalar=64";
    class       surfaceScalarField;
    location    "438";
    object      phi;
}
// * * * * * * * * * * * * * * * * * * * * * * * * * * * * * * * * * * * * * //

dimensions      [0 3 -1 0 0 0 0];

oriented        oriented;

internalField   nonuniform List<scalar> 
1171
(
-0.9279301698174705
0.9279301698671528
0.7872828206143375
-1.098759979790559
0.3114771589662664
-0.1949289342469999
-0.7666310419611487
0.9615599762415202
0.07206983342421923
-0.1171766257295843
-0.2117782042763901
0.3289548307005269
-0.7872828321776996
0.06933393740633866
0.7179488947559325
0.8109714156015726
-0.1774052654373584
-0.6335661500739691
0.8743325050709336
-1.043525024022777
0.1691925189037561
-0.2847661812707127
-0.09767592364439576
0.3824421044943044
-0.03591797170988726
0.5483925634818685
-0.5124745916798168
-0.5050388263500323
0.8276358223287573
-0.322596996035476
-0.4019428122940877
1.045795935045875
-0.1714634300649488
0.395879069387183
0.04807331423296127
-0.4439523822385885
1.046402034234338
-0.0006060995583422353
0.4457599560018773
-0.04988088380081404
1.057000965573925
-0.0105989282990023
0.5776756668531134
-0.7726046068224749
-0.7244225945292549
0.5571832874921376
0.1672393071306782
0.2214744509058736
-0.7265132696763293
0.5503581284665088
-0.9227159569665537
0.3723578294189303
-1.094172677878097
0.6863888136909366
0.4077838640650503
-0.5953515697356626
0.5594335910745132
0.01813046360644309
-0.2568695789397883
0.2387391164321048
-0.02457877436062968
-0.5225239737823908
0.547102748594803
0.3999257482727024
-0.497601678100535
-0.9187430464041934
0.9414245418006381
-0.0226814954259549
1.067669296697289
-0.01066832943831618
0.9351968172560541
-1.116961658332124
0.1817648411654401
1.067304534054543
0.0003647665419630313
-0.6643230747320736
-0.06009952130128018
1.262133548109041
-0.8643928019928395
-0.3977407461113427
0.1485614923545362
-0.1089259005602914
-0.3259444380535606
0.4348703382474338
-0.2857496970664912
0.1910791346724991
0.09467056187441816
-0.5833884581578668
-0.5153715161748714
1.014082249574594
-0.07888543169759044
0.009939236440200779
0.8254342845444801
-0.8353735210407108
0.5718381919835903
0.6902953536387534
0.4394666592099995
-0.03039624066891055
0.430321989083649
-0.8076703775446877
-0.1026055452486461
0.9102759228857765
0.5027030249136291
0.2537859815245987
-0.7564890064324801
0.003864716726995712
0.5291028836862722
-0.5329675997901441
-0.4898670519083986
-0.604305624298803
-0.4229079031660481
-0.6940537555140278
-0.02734236908445844
0.2702272292120651
-0.2428848611172119
-0.9248633469800569
-0.005178916290697898
0.9300422632051863
0.3079663415315292
0.07447575660565493
0.7623996967761602
0.04857172347628297
-0.5330766645600784
-0.06227490690494508
0.04633877838398264
-0.8540091552410006
0.0760836060290907
0.8620577547818268
-0.9381413608364706
-0.3474043036490504
-0.04124846685454559
0.3886527703102678
-0.6824078684616489
-0.2424554826743583
-0.6313504558542705
0.7074340638513048
0.6090987221161863
0.2185371070796982
-0.5428708390033825
0.9462066489417552
-0.7794246789335759
-0.1667819700580922
0.0224127332764856
-0.01515664117052935
-0.007256091449893822
-0.4029279224860471
-0.09467375541461991
-0.2417860596289717
0.8508847868396437
0.04653355364143143
0.3347597264323817
-0.3812932805897715
-0.4604393422644049
0.9631423717846161
0.6800903160493597
-0.7826958593974174
0.3188180504387725
-0.01652133109977786
-0.3022967196329563
0.9306724149362416
-0.9306724149558474
-0.7830363274265262
0.1109452616844058
-0.3227234697602326
-0.7500522598858795
0.7599914942318916
-0.09054007291917701
-0.1427627605362062
0.2333028326984215
0.8649727345410042
-0.0395384533774623
1.054366221602367
-0.8005802333647178
0.186006962905955
-0.3155452531358048
0.1295382904574887
0.8593150996487738
-0.09691540173621752
-0.611787471115309
-0.03935954095202067
0.6511470120320003
0.1238561304417439
-0.2311100179090097
0.1072538886969748
0.8056539394464804
-0.9830592012014844
-0.4352922982580701
0.3295792992000002
0.105712999676632
0.5316463750100849
-0.5562251474179781
1.022126037440477
-0.4562652278604893
-0.5658608095980178
0.5992181352993647
-0.7193299531546226
0.06671784610588284
0.6526121066734175
0.1028260993190256
0.5705256960652028
0.05473372360878285
-0.6252594195106792
0.1942937989611713
-0.08334853537946359
-0.4931572730896768
0.145752970115078
0.0503681167371703
-0.8868440945960783
0.8364759779365376
-0.4744506655863248
-0.713458712844934
0.0491356368777766
0.4365869623896775
-0.006264976706875179
0.2999080393558345
-0.8552562007538761
0.5553481615933904
0.4157165315685118
0.5842834685142934
0.560572115229195
-0.5142333321195569
-0.3653515994853577
0.03515783740119202
0.330193758999688
0.6813636411435662
0.2493087732681398
-0.5664401169831822
0.5703048344128557
0.1106425229529427
0.8749878852822481
0.0102661144238839
-0.6220535875844035
-0.7493278585285885
0.7996959766223594
0.531166149988101
0.07139932539782744
0.3013117117283405
-0.3727110368984993
-0.1676203398739171
0.4419311835378426
0.08717169041430919
0.8757932369974663
-0.7974229759432028
-0.07837026097454056
0.6354959619023013
0.3107106858126029
-0.4302702910381772
0.5755306674604519
-0.5041313416389245
0.4171618295572839
0.1331963040246005
-0.04691190902373713
-0.5895156874625772
-0.1381828300665054
0.7276985175359166
-0.1496894424580647
-0.7809829755257072
-0.6110433619516259
0.3606763229778963
0.2503670377507889
0.6222935855809213
-0.6120274707513699
0.2384147621895377
1.011498426504398
0.04286779615505774
-0.7493278559532544
0.2219415678331761
-0.1995288389129631
0.680090314601102
0.8021430877476744
-0.8021430878248494
0.8377084542050232
-0.833326845167039
-0.004381608956678848
-0.4453782037088709
0.8610947349461658
-0.147641686364906
-0.3455155894914738
0.7347195812613023
-0.6684741595046559
-0.06624542182796503
-0.7316257879313127
0.1421101005591148
0.1387474797154837
-0.6718241441976095
0.7826958470590163
-0.9503161869956593
-0.3649457021864673
0.2888392916800795
0.07610640896296231
0.1459110426648519
-1.009540647029284
0.8636296043956456
0.4807806091113911
-0.04131394998951562
-0.3081772717439009
0.5864417476469992
-0.2782644757550472
-0.7383089508906597
0.884219991904124
-0.1571310947782441
0.7347147571370418
-0.838686502104639
0.1039717449686458
0.9779690405730208
-0.5418910433032926
-0.4360779973508233
0.7552311811287473
-0.06487030228811039
-0.03477027918933356
0.1879039366817003
-0.1531336579813908
-0.7757336167762383
-0.8455558882252133
0.07892484009248099
-0.7500522604875289
0.5140884622900953
-0.5553369325037402
0.08993716210068332
0.7189240588713842
-0.8088612208260934
0.7537094522902921
0.1742207359022102
0.5028778546858198
0.4971221452887005
-0.05222179289870377
-0.6057826642210091
0.6580044576946332
0.8803419533775385
-0.004548712963838406
-0.7552311811106083
0.7996959766515311
0.1910705140727424
-0.4479400899823344
0.01989730262594265
0.00115476975146928
-0.02105206809920271
0.5893199396563695
-0.4384128428311636
-0.1509070962990721
0.7179489016822053
0.01413515666290343
-0.1108411301544023
0.4375407123107404
0.1517792285683132
-0.01358082297154082
-0.006227871789090027
0.01980869408794189
-0.03378149356202632
-0.0009887925881708198
0.2433914594164255
-0.2599127807511648
-0.9592741829951081
0.001957776212895788
-0.1595782063536495
-0.1215542468888091
0.09466873611568279
0.7213563187153339
0.7290272640079545
-0.1447437957806267
0.6609439319800342
-0.5710067712447958
-0.2118509446260806
0.3978579074659075
0.6954411551682887
0.02250774648688664
0.2416117279721647
-1.074938571060677
-0.9503161886979897
0.3017013673315851
0.7599914920541244
-0.2087053781661218
0.06594261995295168
-0.7233140960007247
0.9095447652329134
-0.1862306692283534
0.4163008773999873
-0.02764811373322571
0.7716056781052406
0.2806700476822186
0.3722900712409898
0.07346987613949998
-0.6586932726232262
0.6586932726020642
0.2147488703251933
0.6955270543537918
-0.05490805228442613
0.3896677840454523
0.3799622889457137
-0.01381123090171237
0.03370852110816239
0.4493976238322677
0.03138298225166025
-0.738308951423255
0.5341218815023756
0.2005977021233474
0.3057589884231753
-0.1178550517129062
-0.6954411564225702
0.1798954199569437
0.7296493460115956
-0.01023352048389035
-0.8136681173407488
0.8239016378107569
0.6962863855866684
-0.7920776601153947
0.09579127459076865
-0.7537094593550007
-0.1502909648631042
0.2112971145112712
-0.06100615057872946
0.0772840464547184
-0.1795670805959521
-0.1127382596794451
0.2923053414340987
-0.006988555791392325
-0.006592275251778872
0.7065917787703713
-0.7168253068375616
0.8847522349632703
0.07680773617067685
-0.3159498706402024
-0.5172375786248431
0.8331874491086703
0.1033996434134487
-0.1033996406292117
0.3239971337512155
0.4747601600263699
0.6158142687414976
-1.090574428705225
-0.1941306858781038
-0.5856722575566592
0.77980294345323
0.01316981867059127
0.2201330212540498
0.3771776342183347
-0.2533214919561588
1.01309432212726
-0.5383341585899321
0.6646541186931691
0.9946018351685963
-0.3787875628812444
0.2295359445325857
0.8842199902870667
0.7127565612551354
0.2137009276947399
0.7277236174894322
-0.780982976098394
0.3413067403124057
-0.2761388749044225
0.244667675221651
0.03147119823421704
0.8473630283186264
-0.01083881670522407
-0.8365242113576886
-0.7021576366580965
0.7025224054145605
0.5546217982598435
-0.7021576351975564
-0.712756561264518
0.7025224069763099
-0.0347937328349304
0.9055965278371576
-0.02084429616651473
-0.6813636309941733
0.6123608892477931
0.06900274173794405
0.5387877204070255
0.5369709657160677
-1.075758686106724
0.4917626752038037
0.5213316480867686
0.5427586845872366
0.459528675031015
-1.002287359560952
0.4978589890406427
0.496742847473628
0.6123608822160664
-0.525546391180897
-0.465105977591033
-0.5564800491379941
-0.5192699100041466
-0.1197624466810146
-0.01220597640578947
0.01220597534377586
0.512863061103859
0.522986241350036
-1.042256151236773
0.5752306825307524
-0.2739189715796096
-0.8855050035979348
0.3436139597713476
-0.6330331658903503
0.390577681809876
0.002433855421869189
-0.829855565853999
0.8274217103597973
0.420849984585773
-0.01733047716986794
0.864693505115662
-0.9473003217171047
-0.8342994822355678
0.05462667369067716
0.7796728084329555
0.5632515709529421
-0.4386234087384578
-0.1246281621488663
0.6500217367210296
-0.7289071689684221
0.8854893235116698
-0.8325362707238324
-0.0529530530299988
-0.009285980799497899
-0.7881369919704942
-0.1096548743800906
0.7139662716654113
-0.6043113972775871
-0.9359877796791432
0.9267017991770071
-0.7283167608147267
0.6918280410202045
0.0364887197517464
-0.8102884378114024
0.03888511906561481
0.7714033186535418
0.06168572344775918
0.04171391662131144
0.4331043420206642
0.0618109864614938
-0.8513908472186165
0.7895798608693477
-0.6427607582569195
0.5905389676753697
0.8901800674918769
0.07003012470661879
-0.9602101921584176
0.0558805823217348
-0.04743874924890437
0.3776325125416371
-0.3813386703627734
0.06579341989248098
0.8423361593343269
-0.8399023012773235
-0.7334807071925298
-0.811042183986906
0.0229051922358781
-0.1638514820683873
-0.8528653623456676
0.02032909730098326
0.6243450153693701
0.03659891532308888
0.03217542190753468
0.5310761536894352
-0.8064139206047746
0.8452990361800445
0.5658608082934118
-0.8471860395432609
-0.8659576569234573
0.03963886705973308
-0.03727217336769113
0.8380951278766308
-0.8008229545668246
-0.02544364576203526
-0.7707528821728985
0.5443518542702779
0.151934526991711
-0.0316812059593127
0.8963747116712129
0.9813284712779378
0.8620591662698759
-0.8417300665357864
0.1474855674990102
-0.1474855658641679
-0.1186844377034014
-0.4825532420286845
0.043929836195616
0.2706507510325845
0.03105061594451243
0.3864252319492528
0.8709310644422866
0.004050210675530824
-0.0110387753613278
0.6586102508483996
0.3413897491330793
0.7835478923996144
-0.5833884558789389
-0.7780724878142306
-0.8116617744542878
-0.6798409159933643
0.6798409159847817
-0.1677417932475856
-0.1549816796146286
0.6017937173269313
-0.8122332865026242
0.2104395691458031
-0.4937256851274928
-0.5690139918659247
0.2782113127557143
-0.9722650678557814
-0.9019009902186056
0.8489479445737959
-0.8143291137040248
0.8372343052150542
0.6487273516429429
0.1343299515594888
-0.7830573031795784
-0.775173053573609
-0.1459312318606953
0.7242482090033597
-0.5783169771025045
0.03096992296068271
-0.0149313435886182
0.01848916432938869
-0.003557821924332699
-0.3552953558068143
-0.127257890961311
0.8800050275896889
0.7438685100685583
-0.2453623775171267
-0.4985061319926201
0.6192403425296698
0.6852788189491933
-0.4705299471695467
-0.0006556253464569976
-0.2850940706485112
0.02566058585027866
0.7460808862580607
-0.7717414723037248
-0.3235377184751742
-0.07245592183273772
0.07567562012027719
-0.9601165654807169
0.1235923527302245
-0.6779033387368664
0.05169555517657787
0.6411276341143448
-0.6928231892952151
-0.756705681515234
0.07880234277670259
0.5880615274884701
-0.6605174494097814
0.1567787654803548
-0.3363458447176934
-0.7706716163093896
-0.004501437211551336
0.3712276830392601
0.6014652864298776
-0.02593462210565544
0.02309412101125527
-0.02309412047668407
-0.01843386048490814
-0.05055136171640537
-0.2255875189950091
0.02305345371098657
-0.0190032150701274
-0.7340726982382091
0.2793004793463115
0.6802102242651007
-0.6896993666134762
0.009489142155278492
-0.5967412786863268
0.6484368386484776
0.6530304582627257
-0.06496893275381435
-0.6316108953640711
-0.1250947829644175
-1.050205735756301
0.01109259341203484
0.1363929718078953
-0.7084121107961708
-0.7412657641775684
-0.7631531317964713
0.3654123837309056
-0.412801622061421
0.4668018838462499
-0.0540002622066827
-0.672466383840455
-0.0359457270530503
0.5015543915331419
0.7306800769029054
-0.2333926389184395
0.1118383913061115
0.9646179996921331
0.4460006325629071
0.1343147374342988
-0.5803153699179037
-0.6781269064017486
0.005660520902930333
-0.04456241473953527
0.02963108089849468
0.63670439667266
-0.7748872263168668
-0.002141480789315161
0.002141480952637457
-0.6009204167754646
0.6481613813071988
-0.04724096442170023
-0.6459514812100589
-0.1131314008302981
-0.6715820320222288
0.05312836331852763
0.6048760996771613
-0.1371211445216921
-0.8175132638488148
-0.5581523422230615
0.5656523050203378
-0.007499962734447595
0.6333231973632757
-0.6238340502177839
0.3223224863437172
0.2142093707737034
-0.5365318571202945
-0.1045613691722626
-0.6021411250030566
-0.09068206263531234
-0.1549197879562324
-0.5050239749123938
0.4041233583706053
-0.4987971120711555
0.1267258541793108
0.6782826948244012
-0.8050085490655643
0.5992181353037508
-0.3693742117935892
-0.04342740637021576
0.07875563428296244
-0.583779605810719
0.5518505127403391
-0.04050026706276426
-0.5113502455258108
-0.3123412766234873
0.3048746881613535
0.007466587504923969
0.4541674801930754
0.1210632023238146
0.0508893328856579
-0.3158827353836862
0.1567816533119432
0.1591010818785732
0.2333545918596764
-0.01141301737761634
-0.2948532942977112
-0.3121102202677224
0.3627953209929325
-0.05068510281330481
0.7882464728413175
-0.6272293993422116
-0.01872208154672893
0.4993340691890555
0.2805564093658666
-0.5259187890924389
0.5775006682360831
-0.577500668237427
-0.2897478504342554
-0.5864581174038158
-0.2955600276694719
-0.5864581172102292
-0.5947978132168936
-0.8385119206605374
0.1700377646619968
-0.5832995723477328
0.8211469600195073
-0.003486417262025102
0.1190733337154073
0.4823919513831376
0.09670185846356733
0.185467826320381
-0.03632265804257333
-0.1491451697214472
-0.01764725696861329
0.5942038282466304
-0.9462598937469695
0.4290223188053854
-0.001711434973634124
0.002563621024883096
-0.0008521871142871384
-0.6432859091655059
-0.1317155818432454
-0.46698553845339
0.6013002741633657
-0.503756823944899
-0.3238525178406249
-0.2599271039315209
-0.2712460993701293
-0.111998157729526
0.1119981573548536
0.1525238586128754
0.05877325104403316
0.1965604168428425
0.4553888738618082
-0.5732408127150576
0.1062552776898587
0.2429562371530617
0.4662406837478234
0.5337593154678208
0.6414283064987045
0.08515838789991169
-0.003914716787019498
-0.08124367407808647
-0.2768573986455733
-0.5406558651185038
-0.5502670138801674
0.1141451081619814
-0.1261114958335941
0.01196638717981707
-0.1058321969736952
-0.3860158556265689
-0.0446870316626378
0.64956311236955
-0.4986629587101717
-0.1446229505042347
-0.33900915962574
0.2919477593905801
0.123387125616208
-0.6069524989648841
-0.2040644431433582
-0.2617774330795952
0.001864634911191698
-0.4221725375714616
0.322671436462431
0.09950110069122868
-0.09319006503089591
0.2916229261056461
-0.8959285486421271
-0.4580201161187549
0.6319158573386083
-0.7729514271439633
0.6683900579268319
0.3422290347970248
-0.1255614313535439
0.2253731614527388
-0.09981172921357995
0.02460279185828757
-0.5862743449788765
0.02928639907910131
0.5569879461941334
-0.9007178352825448
0.5469440640880565
-0.6656285018603596
-0.09731194530586834
0.1093851561879508
-0.1093851530916526
-0.3165383592718451
0.3637266157631393
0.01390590228113382
0.02955720798146487
0.05560118981340134
0.505231526946617
0.6615521036388133
-0.7399223622829878
0.03071198890123169
0.02365092679918003
-0.0005567981695288168
-0.007051945459601389
0.007051944784075185
-0.4166706384363573
0.5377338420393963
0.01525169911575926
-0.0152516992578569
-0.79222891161225
-0.06061511886528204
0.1223008490444674
-0.4553956096958724
0.5616508889188589
0.4510693751023784
-0.4983103433614504
0.1498526549551951
-0.1498526538109147
0.03534149017966167
-0.001632971705084477
-0.04164442140226037
-0.9767797589301822
0.5407017601161705
-0.4706708932885748
0.04171391960785846
0.5144642982452267
0.03107082758493866
-0.5455351255822002
-0.6159592646968461
0.1172963052991881
-0.3296658488413696
0.01343235841601346
0.3162334912025415
-0.1543884958826089
-0.07900413274481394
-0.5407892943171791
-0.04548505669591017
0.1363929702521562
-0.04070676313962688
0.03856528844378635
0.08129134284005321
-0.08129134661775876
-0.5377270949291644
0.4870420030881598
-0.4144308709753748
0.1613391997245885
0.6222086926216531
-0.09792341850071427
-0.004604961611852466
0.004604961685133919
0.5329585384872367
-0.07587634739964398
0.005985514858138701
0.02700781380079498
0.03466196349391507
0.6854740921213516
-0.7613504393619179
-0.6565186482660194
0.6377965636443257
-0.1069443042081073
0.3128905212366962
0.7461759342103159
-0.01843386243575746
-0.2672192441737263
0.1493641854637421
-0.7446653886471637
0.484365040378208
-0.423778574367189
-0.1014949746990938
0.003562556963819369
-0.01441158281607503
0.01913871947486547
0.4113452684115457
-0.1216426525910695
-0.3897075917560526
0.6288516036641859
0.01925794113891279
0.01071404264489593
-0.01071404257772397
-0.3554683236196744
-0.08233822600383746
-0.5605903542462322
0.5571039372002782
-0.2382996953252272
0.4647990871617851
-0.1510978516346352
0.7287735153199207
0.6730061745677206
-0.04070676236218989
-0.615642111496025
0.5621650441647035
0.2891908067803761
-0.2868976834261165
-0.002293124572635622
0.5446064951917975
0.09338280064897959
-0.03896181363152491
0.1968317833182127
-0.1578699702937158
0.1202531526731111
-0.1202531557298878
-0.8587618436807357
0.002367092076564251
-0.1132118847757239
0.1402196999673591
-0.1319823292022633
0.1319823285671966
0.02365092085301018
-0.0230388156642262
0.6707097795376649
0.05893956588192047
-0.3231038621254649
-0.06291199406321762
-0.4712264448807886
-0.04981835251456079
-0.1516994749593034
0.1516994738566522
-0.04590219092598764
0.1432566939909671
-0.1432566931549354
0.1366536476783021
-0.1366536497593135
-0.3156423478121903
-0.1146279433069332
0.2265763008524452
0.1030029988349468
0.03486021246197978
-0.8211064189775775
-0.1977362581389381
0.1703129679916377
0.02075755157001622
-0.265393785423507
0.1257629108678471
-0.1257629101391913
-0.4140602871154455
-0.0847368271202177
0.2365121875324069
0.002226932495115604
0.04058457884175164
-0.5432211493757131
0.5780148822121055
-0.02673387253886086
-0.01916832054386175
-0.02863906407050328
0.02700609856755157
0.006595974619329628
-0.1842880290819433
0.1776920543627637
-0.1082399142663542
-0.228105931574415
-0.1448075719398126
0.1448075710477621
0.07294794987464698
-0.07294795023572413
-0.01943982618913305
-0.1086727396808037
0.1281125665420756
0.2420668624161958
-0.1828029870657234
-0.02715416797899305
0.02659737918953465
-0.1387220188118653
0.6257640232647184
-0.0390501959421925
0.4229288628730211
-0.04259718634867829
0.06240588856564461
-0.1534564178908065
0.1534564163777494
-0.636342111811401
0.3089011839992944
-0.07936523923312749
-0.2346753638233881
0.003565349221192309
-0.1218559204820733
0.1624404981889807
0.1950870997390411
0.0972182456350881
0.09595666664868251
-0.06129470286652804
0.07257935283114657
0.04156575641520978
0.06386715814093706
0.1064458053489809
-0.09578921008727385
0.2076275849134485
0.0128555185552127
-0.1147924363509121
-0.1011940677478536
0.09776148925145643
0.003432579589176798
0.01293688381567304
-0.02333923803953534
0.03784796022345133
-0.03784796026760381
0.07497586250844906
-0.05479293912049762
0.05479293881422898
-0.2245570176193515
-0.05238654880561707
0.01145280899823547
-0.1030895474745643
0.01640049420364742
0.1083250905537491
-0.1083250900569068
0.2945881992381653
-0.2715637456810344
0.1633238351704564
-0.05078196725961356
-0.2207817783187549
-0.0175424544884767
0.01754245477353689
0.3673490223217326
0.2852630904424297
-0.5274932911840307
-0.09399696296558066
-0.03211453249576868
0.5286882280937177
0.2134278148924451
-0.1700009986090318
-0.3808632663198713
0.07648157136992539
-0.1478050003748297
0.1873503794882822
-0.03954537934322915
-0.06675932902708204
0.06675932931265924
0.8226575055760945
-0.5606664909800676
-0.004556516761359919
0.01749339925456738
-0.01998417956856085
-0.2866972596757874
-0.01749378445980026
-0.01282523504431271
-0.131793638339996
-0.5720249222720801
0.5559632697247733
-0.5693506589351769
-0.006891907200824962
0.1029899279533304
-0.001756936939997551
0.01680276647163825
-0.1677891801423589
-0.3365921281082672
0.2335025807189232
-0.05453981575842939
0.0350999910373164
0.131724215625599
0.1731504724457635
0.3366068790948932
0.2766955625742773
-0.2784524990395124
-0.06262877443137949
-0.1549730468988287
-0.2212430003421642
0.07484532237350851
-0.01097816522410848
0.2141331040666789
-0.1973303370984263
-0.0862845017162277
0.1588638535987036
-0.3551412893729836
0.2086519354348212
-0.1922514410798894
0.08960128864158161
-0.4793088841868879
0.1745251469918229
0.1698987590700871
-0.2561832566463017
0.07261743253882058
-0.1943152300680762
0.1768214451408475
0.0174378184271102
0.1414260359640708
-0.03954125324188792
0.06617132009885789
0.4667872178555658
0.02030550658777303
-0.07728519853914886
0.05537216768877973
0.1258081219759724
-0.2607883771710127
-0.2308791342756103
0.5597183936943898
0.1577853821745084
0.07872680490572898
0.07558225505065551
-0.03091397182516826
-0.01040138854424588
0.008108258089160112
-0.03279415379898452
0.17119860297909
-0.1780905097094268
-0.05814647632421327
0.02204085562415663
-0.1467780779791993
-0.05288919171135584
0.1494811192974556
0.277083679531249
-0.03863423134160959
0.01660471136878803
-0.2557540350494155
-0.1313906820764611
0.2356921795063948
0.1790580093231839
0.1298431745996848
0.02188166709560576
0.08906237441254553
0.05216681808066815
0.4530647088226484
0.01628809223800253
0.09708217579204501
0.04377231991322909
0.07165578776356082
-0.1154281088582094
-0.2422302026575192
-0.200939670671016
-0.01984210522151127
-0.2022252075511247
0.2755961447387653
)
;

boundaryField
{
    FrontBack
    {
        type            empty;
    }
    Top
    {
        type            calculated;
        value           uniform 0;
    }
    In
    {
        type            calculated;
        value           uniform -1;
    }
    Bottom
    {
        type            calculated;
        value           uniform 0;
    }
    Out
    {
        type            calculated;
        value           nonuniform List<scalar> 10(1.034521359526132 1.064334111976922 1.021586026732991 1.019190636099107 0.9964996418927738 1.016012757358731 1.035849302067599 1.062739676987526 0.8672485143934857 0.8820181450633833);
    }
    circle
    {
        type            calculated;
        value           uniform 0;
    }
}


// ************************************************************************* //
