/*--------------------------------*- C++ -*----------------------------------*\
| =========                 |                                                 |
| \\      /  F ield         | OpenFOAM: The Open Source CFD Toolbox           |
|  \\    /   O peration     | Version:  2412                                  |
|   \\  /    A nd           | Website:  www.openfoam.com                      |
|    \\/     M anipulation  |                                                 |
\*---------------------------------------------------------------------------*/
FoamFile
{
    version     2.0;
    format      ascii;
    arch        "LSB;label=32;scalar=64";
    class       volScalarField;
    location    "1268";
    object      p;
}
// * * * * * * * * * * * * * * * * * * * * * * * * * * * * * * * * * * * * * //

dimensions      [0 2 -2 0 0 0 0];

internalField   nonuniform List<scalar> 
808
(
-0.03365366082510345
0.04387656874057653
-0.0110574801417551
0.0373083348702034
-0.2968850666625353
-0.05571462320763634
-0.01564294339631648
-0.02415119048600679
-0.1953443637372845
-0.08319722431740048
-0.01077250968182746
-0.2522380915004114
-0.03071385154169622
-0.01406646922124994
-0.1216377424947665
-0.01424897975771241
-0.1379645815009083
-0.01376621219682859
-0.01261492036046325
-0.05502989517104075
-0.007830136482256696
0.1168517283479039
-0.0631562672827653
-0.07095822504313432
0.1747067987724004
-0.1004437529127448
-0.1511949074997024
-0.02045893767078983
-0.01757000107869804
-0.02555987583641834
-0.02037822673592675
-0.05780558961961543
-0.02271397878746266
-0.01691486117652719
-0.0989093158444755
0.3446970939773901
-0.03989007106868227
-0.01636574365233847
-0.02254269343234088
-0.02647208675665506
-0.08965829024995588
-0.1256400966073948
-0.05264487655729426
-0.02145961637768584
-0.05432259632965904
-0.04222323636916582
-0.01189764759229767
-0.1830568969988308
-0.02663676062831583
-0.2026111271712811
-0.01723623874767013
-0.06650168964426027
-0.0615602125884691
-0.01451025494642818
-0.19511397242875
-0.02788215347126287
-0.01062125596317574
-0.0144021273602099
-0.09946757299146312
-0.03922220283476485
-0.1112447819632511
-0.1248589339755539
-0.01446630595390192
-0.1284346951020119
-0.01763483396124561
-0.05242378694531941
-0.1634975817229067
-0.0353864338035548
-0.0153227719930666
-0.4378860250796208
-0.02617985613460145
-0.2988811802303656
-0.02137272939785339
-0.02119516365892036
-0.06381119865477518
-0.0181164270039022
-0.0419697789680861
-0.3649357856037342
-0.03653723868408186
0.03928112190377412
-0.09197948296587938
-0.01679082203553238
0.05725190281073722
0.04556175378181786
-0.01745430193034937
-0.05164435574147527
-0.538578034973771
-0.2281919033127565
-0.05151892135182581
-0.1133232027552142
-0.05591388702644891
-0.1316364303403108
0.03853129106701633
-0.02628456814618562
-0.06266227152921047
-0.1206747736866591
-0.03822444353882713
-0.05198135394512938
-0.1153135649016418
-0.139171535251992
-0.05312370745534977
-0.04673346844477512
-0.05377558446923403
-0.04423572679322788
-0.0569948329550822
-0.07538978883374867
-0.03965729156311788
-0.01064919591508755
-0.03974543032180178
-0.1228125720565155
-0.04981380222774159
0.08148922400307103
-0.04189654938281966
-0.007595758331390502
-0.02753157651294475
0.1807837562304472
-0.0382254760816572
-0.2662291406557836
-0.02081248120777821
-0.05291410884248252
-0.04211455681787155
-0.04949038883919835
0.01398581030308929
-0.04799038143029167
-0.03646559885064959
-0.2192492622085125
-0.04042463856200425
-0.004253508914494396
-0.07504362178000769
-0.06964843566527351
-0.1512811789107169
-0.02131848973134801
-0.07459455271517322
-0.04389250012409739
-0.02310310582143781
-0.01507194756870159
-0.005982462768951934
-0.007620764057198681
-0.05190514343644431
-0.04911192363519234
-0.2137447880905922
-0.05580348791967771
-0.008182665397508337
-0.02188598326508916
-0.1488044722053356
-0.002125436552818605
-0.07558297270355643
-0.02136008273521805
-8.312819090303739e-05
-0.01024041587611301
-0.03289390351023018
0.09343100728429396
-0.0381051141900696
0.2516335986662794
-0.2597336142572574
-0.1336878759212115
-0.03806027880880063
-0.09078251169681033
-0.009034077069915285
-0.1145799919597865
-0.1686682059543185
-0.2146073667388093
-0.1791279544447372
0.05684519203820745
-0.06378271080780383
-0.02062502103052793
-0.06630689517952858
-0.1722575587315248
-0.02304648018581393
-0.01877768616059557
-0.05128586977511471
-0.02052873200488278
-0.007427268701583264
-0.1067214846186808
-0.02361813458495512
-0.04443577584235004
-0.07095260226969005
-0.1600590039432424
-0.03305256059013575
-0.3851057541047033
-0.01791673375870021
-0.2273593248905453
-0.04365517847821129
0.03270073424604216
-0.1059202180200002
-0.01644514465351309
-0.04328458498685057
-0.1047345215048931
-0.01790284637279245
-0.09548416597248609
-0.2034449148464249
-0.07133166660023751
-0.02420638870470283
-0.04740547851081253
-0.04214285159172765
-0.2011614897892741
-0.02244722559871389
-0.01935239390260958
-0.01127446422867822
-0.05724198152812421
-0.0499896559351365
-0.02270974769257048
-0.02058300770490306
-0.2343304829729114
0.1269547705027981
-0.2068139343678394
-0.1909471254396475
-0.01171131698868861
-0.01129496506931743
-0.06655513407210374
-0.01018563879236851
-0.4934528228716619
-0.1272708415774885
-0.01966875694528071
-0.000905573086802373
-0.02368483038195423
-0.2779363025658113
-0.2791387875084141
-0.00755694380185695
-0.01784077364977658
-0.001928984198768086
-0.3501583007215461
-0.02861340083147158
-0.0294234422432585
-0.01268582375534736
-0.01943230567903869
0.04871527914939772
-0.1253453214300312
-0.01419101142298071
-0.02094050471169458
-0.04531965320799739
-0.01841321155872814
-0.01643054922562042
-0.02353058875550005
-0.06794042911482241
-0.01108049370720267
-0.01890502157789605
-0.008966013270878339
-0.001361518791776075
-0.02931718280541713
-0.002082975529715628
-0.0019761115579548
-0.005752165856227653
-0.02549506310826972
-0.008113293910727052
0.001636899492311955
-0.00412164310849081
0.001256463371554691
0.002316945274113065
-0.008798599858093318
-0.1296512900913297
-0.00292513874938543
-0.0001457214629034071
-0.04730723547062738
-0.0213836494355759
-0.02374618231721378
-0.01404781247134885
-0.006202693168650855
-0.02116134359893624
-0.03996096665223033
-0.01513010170330494
-0.01263229563263188
-0.0116081160914428
0.006286573733050648
-0.009635928234693914
-0.01317863795874024
-0.01138809575766706
-0.01007672929562982
-0.01014600862632267
-0.01105659929257968
-0.01358264573840452
-0.2923217787829153
0.05902880684226362
-0.01520925273522169
-0.01559200004109938
-0.01240412390233359
-0.0123872186343387
-0.008247334304226389
-0.09938589062431434
0.01213452377033084
-0.0143757845017859
-0.01386587076373456
-0.01061226317731968
-0.0511777784916791
-0.00809602075485381
-0.01388842583873121
-0.009802811653827978
-0.002392091765387458
-0.01125564521229189
-0.01080250111940897
-0.02427982468812224
-0.01563250812606163
-0.01243563126608687
-0.01343065308136605
-0.009850703310901552
-0.01308827724318783
-0.01087397456732138
-0.05972042481264114
-0.01336689692451532
-0.01227034152159174
-0.009164697380288625
-0.01538912333410584
-0.01407149425893496
-0.01569316332813865
-1.368286760582837
-0.1004327279192684
-0.01181571744346993
0.02404890907413661
-0.1620163157411628
-0.09353760312996531
-0.01209684040141988
-0.01423411294033887
-0.2409856987786524
-0.02854632813744914
-0.01808570188700226
-0.01227691185583553
-0.02052715926114958
-0.01080147550529319
-0.03079253582328334
-0.4088371134875155
-0.01201094319822901
-0.01407861158568271
-0.004443315517344932
-0.01073537691688104
-0.009455658217222522
-0.01388617637486628
-0.00820719672742452
-0.02735238799820875
-0.01171630317711922
-0.1701413149067456
0.02010280128528769
-0.007381255264738767
0.003818238942101115
0.0118410084850687
-0.04895805878355272
0.02770854011339442
-0.01287875118183257
-0.1332900819140473
0.2827032549847174
-0.008192124383339681
-0.01349041100163681
-0.007965007402926005
-0.03334131287686412
-0.1256330108118942
-0.0132404587402644
-0.01196804572076783
-0.01768060128287198
-0.01351758160299124
-0.04167692487418056
-0.2197686605293447
-0.009447547994321849
-0.04356362115625335
-0.03842169547546328
-0.1788136337572059
-0.1519799493712923
-0.1555336742710787
-0.2389544142725571
-0.003089484495595892
-0.02071068354296308
-0.01556820436662351
-0.01398371072219558
-0.03372454350277838
-0.0245008174787884
-0.01398390009804127
-0.01493462990258166
-1.070703294398017
-0.002907724330224462
-0.01342625059544272
-0.01800785156130948
-0.01936009947080618
0.00560700211146526
-0.0142139636626204
-0.02561650977666136
-0.1573395071127252
-0.01359931899148312
-0.02093244276491992
-0.01463784486306853
0.001219378884820798
-0.1779712287056183
-0.01264029441708726
-0.1569659802635667
-0.01543491702375627
0.006617098994679719
-0.01395052506257823
-0.0242393971183691
-0.01643368812436647
0.007282509809236916
-0.2666354709693875
-0.02671528184352475
-0.01694485054431819
-0.01671567938678068
-0.01094647493795218
-0.02937344932943915
-0.01373745070022292
-0.02118504668868285
-0.02050067630420766
0.008220640406667423
-0.09792766094543341
-0.02119496919417583
0.009614613746121476
-0.0569912821328398
0.1781561721255166
-0.1063154394544561
-0.3171629451057933
-0.02932705183097609
-0.02592619793368255
0.1508595421206633
0.09515761640322899
-0.003752815536555798
0.05362272512256636
-0.01518893584211595
-0.01331495139395185
0.002703853269826051
0.008153032602404461
-0.06500746769253364
-0.004369606460157171
-0.05601989993316784
-0.02331699737509269
-0.01567686495645543
-0.03650443765809888
-0.03293638020765086
-0.006696549594580374
-0.01452701500430129
-0.0369722436076597
0.03074781157747563
-0.0386309235801069
-0.01382392705086675
-0.1195652627478967
-0.03085698808936035
-0.03997703063413271
-0.6695548198593139
0.01338932217282673
-0.01072721850976503
-0.00559966971681124
0.1866829583783031
-0.1009846832012158
-0.03598240922156039
-0.2424430105642622
-0.01519380171420746
-0.01606571086285196
0.07623886511055067
-0.1810565951486232
-0.2297993819005453
-0.1863700870725465
-0.6771886332521382
0.0114426800316924
-0.01793271522377742
-0.01512280742463427
-0.09635105060747931
0.1185651331444433
-0.02199611639599861
-0.2429453104806334
-0.03629893837320434
-0.006982113153755501
0.2787061902912998
-0.01079793736416781
-0.09113154611510051
-0.1528093654328283
-0.004682423220429436
-0.04169429046763686
-0.0460475227848878
-0.1956551873593087
-0.007949833348210363
-0.0400247917567379
-0.003745637424241145
-0.5446878919776642
-0.1944942741192371
-0.1786706870389076
-0.02364837213976221
-0.00903515607323957
-0.0620811988160786
-0.05652358717540647
-0.01607687520475869
-0.06960480158964177
0.004443865812238827
-0.01758345488206854
-0.09518261601810411
-0.276650507133989
-0.009888160956595787
-0.02479980397515421
-0.02129517056958179
-0.07639896398729616
-0.08910064726367932
-0.08979002441975983
-0.01120292873139041
-0.9090218652739295
0.1619435481143584
-0.08303347111539372
-0.2515970723067897
-0.0413695505609404
-0.009148680052721979
-0.2473503380193305
-0.1951728201736355
-0.0310485737509067
-0.1141716962513081
-0.01770922265152985
0.5626746144608851
-0.02520009052025165
-0.2136405438724157
-0.02507012761412406
-0.003744364486525902
-0.01087833610283604
-1.246830057947659
-0.1819083502554986
-0.2275289826864378
0.005264280977588785
-0.03937121840694809
-0.2348761690433258
-0.06714095516063753
-0.05220979150359812
-0.1458245485276344
-0.1829444806608086
-0.07000111660900467
-1.216004589582111
-0.1600934130764144
-0.5406870582141401
0.07983960037467168
-0.006336219053584663
-0.02100856835726023
-0.04470535245294514
-0.03831597974634504
-0.02765320509097472
-0.1301871383280618
0.08131519849222733
-0.00442299489734707
-0.009849064674993512
-0.5629121411069125
-0.8499552882201536
-0.1761206377134827
-0.007529163275002513
-0.1228879390678872
0.0006070258250872728
-0.0006247427268145545
-0.002883311356241638
-0.06178883580415696
-0.2337284635826715
-0.01334251524008041
-0.1104721483984427
-0.1562028042871583
-0.01309827502585111
-0.03446984456208613
0.02839290504775475
-0.05886400930039665
-0.07208671654706464
-0.4930942433429305
-0.2312717712723605
-0.07986645050225728
-0.07549948172205742
-0.01929520547472308
-0.1106727146777143
-0.1660518212900764
-0.08225850995364291
0.02735378035898592
-0.08723698587542932
-0.05039646368911559
-0.01494775169359438
-0.1160304790605507
-0.281105919787177
-0.05947862568862434
-0.0180094206259498
0.001855629500244029
-0.0102344296656496
-0.01053400482124334
-0.2367176445021533
-0.01396794292315662
-0.2171742902862713
-0.01081393510666276
-0.07108173488514721
-0.004000633464634171
-0.02325647447430897
-0.3919400962678297
-0.9272688241386916
-0.01123101313667594
-1.041535761594131
-0.6019162883542998
-0.01063512128071716
-0.6589717835333297
-0.1864115926922373
-0.004869437586325155
-0.1236638568865153
-0.01715121544085609
-0.1252940099503681
-0.06503885023062185
-0.07751096650650874
-0.005608808688583926
-0.00365085659615226
-1.343803383416688
-0.0113523913132174
-0.1888319636387476
0.001026768211705466
-1.007914531605935
-1.247099582843709
-0.07857639205911218
0.01676985326040242
0.1645593409167983
-0.004936524379613361
-0.02294687274529727
-0.004370701024137038
-0.2391255613323688
0.3655230181125393
-0.04230955493158369
-0.2142097497524406
-0.01528928964855121
-0.6532229850315663
-0.07238637782061777
0.1891736826615675
-0.3031173115227325
-0.05094180429295261
-0.0704331366432933
-0.0157987504829813
-0.02138761394591958
-0.5930395914915167
-0.15360145530042
-0.09538677075418216
-0.118464305678096
-0.5512366882918595
-0.04550033504974051
-0.9032170577260402
-0.0008027185703862298
-0.2439530350505329
-1.052855115669887
0.1671153725351876
0.2903242970960146
-0.1704421928491386
-0.1895967002119148
-0.2129123680596569
-0.06628898564232438
0.02568207431048014
0.04702411392590079
0.005128439655326266
-0.1527084463908024
0.02601876987116412
-1.365439084178695
-0.08728281316353061
-0.4790261014919862
-0.3341796936361395
-0.2192736620634844
-0.1802944165231014
-0.01698196910310822
-0.01535604641845688
-0.09301973087046402
0.1728822401024867
0.3846669202084971
-0.2115028513204858
-0.1561032460423094
-0.2259378080484124
-0.06372820469534719
-0.1631687364998351
-0.1725346935503511
-0.1277589623347601
-0.1098923489078702
0.4653474987883426
-0.2826540924405024
0.4317863909642582
-0.5898640089743246
0.07278561752340192
-0.1895685628218618
-0.06797602908930914
-0.07742435230675841
-0.8928315028556852
-0.2188518462374291
-0.1925762537673346
-0.3547752360497619
-0.4661260210396522
0.5697528572753887
-0.2119614580202816
0.002466143174564161
-0.06778224857663684
0.3446141017838013
-0.03510643753216184
-0.1189413503316423
-0.1816886822918022
-0.06473796905611007
-0.01632773874066849
-0.1981029428303957
0.1949231894622324
-0.01257369159052026
-0.09879820530856663
-0.1757980561172385
-0.317354278638823
-0.308344851144838
-0.08290988183203078
-0.009656218412608596
-0.0781654132792949
-0.6515346201932359
-0.6730931696130137
-0.3254523866608401
-0.05930131501391138
-0.04968058626403756
-0.02440052739875427
-0.07016624941564339
-0.05515543216748187
-0.3681289830413988
-0.9621562530174226
-0.008629672064824498
-0.08539183299082041
-1.144905048360506
-1.042159491126341
-0.1077645293905688
-0.04147803838748285
-0.06798288257875781
0.3893071290308991
-0.3399190253527646
-0.05160551969090729
-0.6048743882232551
-0.1373970890509295
-0.248733247702543
-0.2136860577521908
0.4734894764723991
-0.6363605854429377
0.07548548398355696
-0.02843118570570942
-0.569263707145677
-0.05433310810729294
-0.3649517575905981
0.1089852411190489
-0.1936663608463436
-0.0615580057477573
-0.1253433454477282
-0.3586532882061193
-0.08547153485106926
0.5147508805706246
0.08685328696629216
0.4699925003758337
-0.1251083563872862
-0.2065759820499305
-0.5098283047528699
-0.1338895109485891
0.02439659987077587
-0.05562027108498475
0.1003460208280618
-0.305057914250346
0.2363653269441702
0.005630810674459424
-0.002645195646242004
-0.5084457384142341
-0.1818977708123121
-0.09982981264777088
0.5810659701249207
0.1395070519559866
0.3446335273693287
0.2251453780320442
-0.5661024393658827
-0.2104945223819011
-0.2195265555163321
-0.2298969060577086
-0.06231877498120988
-0.6882301335618686
-0.1908269061885622
0.3047471757064981
-0.2047980974840471
-0.01116843424972577
-0.1632334576160483
-0.01176734600696195
-0.1702585811700489
-0.4465566347115991
-0.07669574655355908
-0.2057203647348664
-0.07728142048899206
-0.110129289068228
-0.1321266963816937
-0.07273912474129759
-0.4409453051114465
-0.4110920347420482
-0.02434066144247818
-0.07746305092454962
0.3282106831126416
-0.2521868303763088
-0.1721302879355061
0.5246350445804406
-0.194116914734654
0.02039286563704525
-0.4552828414020117
0.04846293628032215
-0.05969984210940606
-0.1560004939529038
-0.5918229620128493
0.1596200080366626
-0.5756733721991162
-0.5406643415766847
-0.1027766870925467
-0.5123914088333551
-0.0360923444868203
-0.155874589227678
-0.4139808022705445
-0.01609751465617128
0.2876509145439318
0.4896714026343934
-0.1672123747143333
-0.00583338776119573
-0.08034525376529272
0.5250451848667932
-0.03214024043780447
-0.4458003089184527
-0.0316522406154337
0.4611148442252639
-0.01729164124410628
-0.5504062906292866
-0.239731880672482
0.1775248233542153
-0.3154634544504574
-0.1822751513899853
0.04897042847292073
0.03135612547087954
0.05628364067804296
-0.3045901958455386
-0.1588638769609816
0.4127588470816362
)
;

boundaryField
{
    FrontBack
    {
        type            empty;
    }
    Top
    {
        type            zeroGradient;
    }
    In
    {
        type            zeroGradient;
    }
    Bottom
    {
        type            zeroGradient;
    }
    Out
    {
        type            fixedValue;
        value           uniform 0;
    }
    circle
    {
        type            zeroGradient;
    }
}


// ************************************************************************* //
