/*--------------------------------*- C++ -*----------------------------------*\
| =========                 |                                                 |
| \\      /  F ield         | OpenFOAM: The Open Source CFD Toolbox           |
|  \\    /   O peration     | Version:  2412                                  |
|   \\  /    A nd           | Website:  www.openfoam.com                      |
|    \\/     M anipulation  |                                                 |
\*---------------------------------------------------------------------------*/
FoamFile
{
    version     2.0;
    format      ascii;
    arch        "LSB;label=32;scalar=64";
    class       volScalarField;
    location    "1679.5";
    object      p;
}
// * * * * * * * * * * * * * * * * * * * * * * * * * * * * * * * * * * * * * //

dimensions      [0 2 -2 0 0 0 0];

internalField   nonuniform List<scalar> 
808
(
-0.03521434457663394
0.04495667845394328
-0.01193572690569719
0.03573511413216159
-0.3017299641759011
-0.05466758234216317
-0.01458099347008075
-0.02382259333149564
-0.1986095983117814
-0.08484262822885891
-0.00934464928694839
-0.2560341208747261
-0.03054692070772801
-0.01301618632499213
-0.1233496237854947
-0.01398526633485282
-0.1420019798157494
-0.01355465562828219
-0.01272193003555346
-0.05645033840549352
-0.006090795173477641
0.1178741366779275
-0.0613695474387863
-0.07265813306307931
0.1758396908815409
-0.09934410574400171
-0.1539769818419208
-0.02032966306293371
-0.01742569556245186
-0.0260437086927395
-0.02017944331740339
-0.05929056587150502
-0.02300588670239356
-0.01686487682631174
-0.100229136398204
0.3444368556456184
-0.03870754967169281
-0.01687112571723989
-0.02319629500218144
-0.02660325856337573
-0.09107463614944088
-0.1278512892847994
-0.05110442683880671
-0.02062759500003399
-0.05523266395217066
-0.04043110833126595
-0.01236775316404571
-0.1860543847971625
-0.02742382520065537
-0.2058253269507268
-0.01608880775727356
-0.06821503155557436
-0.05989926506517299
-0.01504400105815254
-0.1915784705936381
-0.02880750063580844
-0.01080093941480442
-0.01479026334398594
-0.1014445154699822
-0.04039486944466136
-0.09637534439077061
-0.1274303332528955
-0.01349955052794903
-0.1288273910085684
-0.01688558802965513
-0.05091545584311712
-0.1648823251055438
-0.03567081546053578
-0.01493689183384963
-0.4436782247534565
-0.02691105903431521
-0.3058709813005845
-0.02194795785883066
-0.02029881643060659
-0.06586532302928326
-0.0174290162015545
-0.04320592345215525
-0.361841341973949
-0.03549609753628266
0.04098139989861285
-0.09101329504026089
-0.01725760550229003
0.05681899791616948
0.04424365009622849
-0.01665772030865672
-0.05289188358021205
-0.5461665171075555
-0.2243295466942194
-0.05293539621686713
-0.1120514174754254
-0.05742000503403632
-0.1337131926195154
0.04014024097994712
-0.02444996645292406
-0.06096275359928072
-0.1174328745806315
-0.03848808519304712
-0.05221436216656135
-0.1170730833694131
-0.1382473908167807
-0.05213233471482395
-0.04806078666955861
-0.05514030007895845
-0.0454596237935303
-0.05774741389188726
-0.07368396875589754
-0.04163060723248741
-0.0113135566625658
-0.04086552869094525
-0.1254544389046507
-0.05101918801856169
0.08277675548039903
-0.04294058413920215
-0.008339746970935553
-0.02784821149112825
0.1804215481692993
-0.03949670656947454
-0.2715640538716121
-0.02027118810303569
-0.05432517693201231
-0.02760000335604483
-0.04808217708599122
0.01289545266204887
-0.04948550839310116
-0.03461467024679404
-0.2157513837965587
-0.04212223310198396
-0.005220552701137583
-0.07690479733768757
-0.06797413363547958
-0.1436953158113121
-0.02083171495530609
-0.07590203395884074
-0.04189988615372449
-0.02270231928299994
-0.01627870713157232
-0.006476794128057882
-0.007284689115721455
-0.05294107907822004
-0.05051329505366978
-0.2137054721189559
-0.0574319486050765
-0.0085403102265388
-0.02266525581294304
-0.145808999153326
-0.002713201685643992
-0.07712555519560273
-0.02294475095676307
-0.001061589706242019
-0.01083768546392315
-0.0337706077433397
0.09486386881492918
-0.03937921198510592
0.2523871312694668
-0.2688121142964628
-0.1311082778467323
-0.03716150404298556
-0.09108658505285371
-0.009371184625050238
-0.11240229785593
-0.1840942005692749
-0.2178561316008734
-0.1797177911857444
0.05573967179324983
-0.0621976160095816
-0.02028736363239812
-0.06756322616532176
-0.1680776633163797
-0.02381249839505361
-0.01835341070848812
-0.05276828677113352
-0.01869926550503551
-0.006322502575552008
-0.1090639146466214
-0.02278281120062117
-0.04599741415355776
-0.06922996947614776
-0.1624288190883791
-0.03368124945592686
-0.3938440415577762
-0.01779928161835148
-0.2237244398088884
-0.04501559858739829
0.03130076675685688
-0.105953326525876
-0.01467073473529128
-0.04185938697996239
-0.1047998492995946
-0.01762870045686123
-0.09613960663372605
-0.2072195909458509
-0.07242032478580712
-0.02368465155163957
-0.04911661155894356
-0.04344717585489927
-0.2048944827381528
-0.02184637345618003
-0.01895534909528304
-0.01134456765938434
-0.05521198810663025
-0.05146546621557345
-0.02232899137288639
-0.02088067754861594
-0.2458673767501105
0.1277057167854238
-0.2022417932513455
-0.2032917440335688
-0.01180435831866689
-0.01155568405952176
-0.06751873676024407
-0.009801313816933882
-0.5117373948620259
-0.1203859801599996
-0.01894776140031854
-0.0006349633063396284
-0.02423936901546662
-0.284940052175185
-0.2757941044454222
-0.007021339312800576
-0.01732325122266971
-0.001578757952706063
-0.3464445797731911
-0.02823507570252501
-0.02911003066462496
-0.01248612424762321
-0.0197724804778703
0.05049519706180376
-0.1076859854798998
-0.01402125475201909
-0.02074835175283195
-0.04350790736976155
-0.0181853682307175
-0.01610990807728523
-0.02338810922502713
-0.06714691403889367
-0.01174315338503381
-0.01907980025040831
-0.008516706849039065
-0.0006890889577537339
-0.02956727007225808
-0.001610173194685815
-0.002257080581961759
-0.005975435038657329
-0.02563048036497279
-0.007960809766181888
0.001497836977549593
-0.004245124901523116
0.001275600038071552
0.002557191046282068
-0.008765018710599865
-0.1426303881211439
-0.003014658865083157
-0.001539495298382701
-0.04853386739724518
-0.02157986471263853
-0.02475336807250242
-0.0143756255309924
-0.006129706706188306
-0.02083885508671938
-0.03803872890896904
-0.01397378427450697
-0.01288947099146771
-0.01168121044219974
0.00795765830861004
-0.01030191794457646
-0.01174729256455401
-0.01141097737771584
-0.01081151944025391
-0.0102452218297091
-0.01194699815663568
-0.014080307582822
-0.3093462973758765
0.06046824771407335
-0.01571957788842436
-0.01582407246376994
-0.01307270060001744
-0.01202147522990054
-0.008820023637212486
-0.0968627953981215
0.01048192828199195
-0.01360171574534987
-0.01453033087247961
-0.01072415544879667
-0.05269054463864246
-0.01027356033863698
-0.01366068030741156
-0.009737127971092279
-0.0002413893475259759
-0.01022828036711103
-0.01178952462883487
-0.02484482572711372
-0.01596950412049182
-0.0118248732336093
-0.01345108779541233
-0.007324678528124406
-0.01236966172213546
-0.01180345202697608
-0.05776937954689428
-0.01316391759750771
-0.01120277675673107
-0.008751595512842584
-0.01486609284896898
-0.01377206492582748
-0.0156715428595979
-1.374314856406932
-0.09875455385046526
-0.01343102316914502
0.02487103386537323
-0.1640844138551048
-0.09195403380092886
-0.01162449223866188
-0.01402816986131186
-0.2459133217774946
-0.03013811969956302
-0.01969188556833294
-0.01106587335246339
-0.01962333186018087
-0.01053526677287856
-0.03072068831102381
-0.4136139597129972
-0.01244875721162184
-0.01410798774188178
-0.004867838655499946
-0.01098364045858092
-0.01035005628214366
-0.01431013021880854
-0.007792851152484506
-0.02612994830775012
-0.01145182654165202
-0.1655187337204617
0.01724771645264386
-0.00766659599689394
0.003442998559301839
0.01362469200123389
-0.04750577951294509
0.02937902628396261
-0.01316801310754535
-0.1344020687352713
0.282309146069753
-0.007180433451120743
-0.01339007400845901
-0.008391846806139873
-0.03272610726801013
-0.1230749525662449
-0.01246879708800005
-0.01233452094101914
-0.01667413602887499
-0.01362082041895938
-0.04099619380812084
-0.215420478407008
-0.01100300792966695
-0.04168596108039585
-0.03980543637877992
-0.1677042047338289
-0.1640990674143216
-0.1350345110810953
-0.242787630106163
-0.006939344917210197
-0.02125204852520015
-0.01400345543293771
-0.01255394847716293
-0.03292438336556687
-0.02443352299648136
-0.01447184067413272
-0.01496715602936497
-1.078407933611192
-0.006301894341574341
-0.01353166197385482
-0.01847247962041033
-0.02273579236095307
0.0002334611869703875
-0.01455291716901005
-0.02719742799216903
-0.1570294382281612
-0.01357157840978211
-0.02233378469134699
-0.01375715058676402
-0.0002111470085054211
-0.1791631524458643
-0.01321356259476554
-0.1419693044616375
-0.01614168883484444
0.005797222853269775
-0.01465567678808067
-0.0231682189692316
-0.0154816891949565
0.004976952779852236
-0.277045672611805
-0.02554903332371879
-0.01586417126345057
-0.001392936680489064
-0.009422522379065143
-0.03043331114916673
-0.01438906360536211
-0.02029037743880133
-0.02137477999237211
0.01495445649002782
-0.1001840079401755
-0.02206533720065317
0.009180080223642476
-0.05268724715043423
0.1638740584571856
-0.1036284666304014
-0.3195186771918817
-0.03110461148268925
-0.02538028204675698
0.1499137354471116
0.07885811993896488
-0.003449666263014492
0.04896470169552559
-0.01558783986417362
-0.01447864014807857
0.002240742764128495
0.01115329921685972
-0.06656514107699399
-0.006084100980114211
-0.05738325635042609
-0.0220694399951462
-0.01573304796779548
-0.03653902799666921
-0.03291189033556367
-0.006639114874578847
-0.01513339927796516
-0.03862639938972388
0.03773090360511755
-0.03889325755242005
-0.01373087780791918
-0.1168961192108009
-0.03207521057039359
-0.03866339238679276
-0.6751293580371406
0.02069640240281447
-0.01065248062762563
-0.005593219790483652
0.1589528429321322
-0.08537173126583665
-0.03495704774225106
-0.2458591648687806
-0.01675127763031788
-0.01658965139386558
0.06717945072063682
-0.1832910563609774
-0.2310084191918599
-0.1968677684439613
-0.6842418850885421
0.002016913449441918
-0.01922135750602692
-0.01712530679606459
-0.07996738570828006
0.1180123099665655
-0.02073027267033831
-0.2358286604483908
-0.03503762175148741
-0.006476063126067259
0.2788942063702581
-0.01129635977905338
-0.0931034228879285
-0.1498304366900085
-0.00375084624417997
-0.04047087438086076
-0.05105056659894928
-0.205176619626396
-0.008645440931418646
-0.04164061726217393
-0.002432234403544388
-0.5491199764697943
-0.1976656717058606
-0.1764613467423922
-0.02268439523291766
-0.007050545000477187
-0.06030806790861804
-0.05792160677456278
-0.01386034320113255
-0.0678500387801786
0.003859858467571245
-0.0183545086242838
-0.09411876902717409
-0.2688189136546004
-0.007187864623318728
-0.02646455050717909
-0.02207894399782001
-0.07452951194864993
-0.09065971223948889
-0.08807709037162699
-0.0119778610621585
-0.9241864257900583
0.1612412362410377
-0.07880209079722911
-0.2542349878760687
-0.04242939537756484
-0.01042833230643158
-0.2549909958995462
-0.1874374511055512
-0.03267202355634036
-0.1281958614416607
-0.01970023667896536
0.5633158005949431
-0.02395940052887123
-0.2283460222846893
-0.0260514545357073
-0.005931558785218387
-0.01205449410538111
-1.249767623706026
-0.1816956921195698
-0.2318861153692769
0.005327784137303177
-0.03779267578061641
-0.2525714840240622
-0.06562381227926942
-0.05105511454669089
-0.1431972058667906
-0.1875116808863938
-0.06811574134460009
-1.226379650524803
-0.1434163212029292
-0.5227514130778129
0.07854654091599687
-0.006535829457159056
-0.02190843167499025
-0.04291642282793662
-0.0400438290386522
-0.02883410066520893
-0.1304478112760723
0.08032631935731584
-0.002088646689973725
-0.009869164868138833
-0.5785503738097599
-0.8615688545622998
-0.18373387355075
-0.008440253291835011
-0.1381567743558036
0.0009471131039276164
-0.0002649311630014037
-0.001722451574956619
-0.06009321428225127
-0.237671137571692
-0.01336561806677481
-0.1241110188761523
-0.1564668991749131
-0.01323191493645902
-0.0357350103014823
0.02347165381217048
-0.0574400376991303
-0.07005572569134927
-0.5015357926867773
-0.2262913913585617
-0.08043825622436536
-0.07313248382973697
-0.01993271256552987
-0.1244681316439311
-0.1526340082810558
-0.07462776366055197
0.02246806614697486
-0.08484605083056471
-0.04844552693827155
-0.01488657374969979
-0.105932515295738
-0.2735628820571177
-0.05726466526239734
-0.01848793048489354
-0.0005871275249889401
-0.01000378358841933
-0.01111452194736287
-0.218576761902731
-0.01535071395286599
-0.2208828019405268
-0.0102934674775614
-0.06869794024803341
-0.004085986002993441
-0.02321767319330126
-0.3798537532702202
-0.9129146636192599
-0.01134381199605206
-1.046102134680748
-0.6118875897711337
-0.01060116457867782
-0.6595258449898627
-0.1790438118552247
-0.006043295709308984
-0.1303222685583882
-0.01677498669660809
-0.1225563555082231
-0.06683916471681627
-0.07917983068770496
-0.00508523904186314
-0.002270497184141275
-1.341152936497534
-0.01129924781325643
-0.1798991040896148
0.0005409056079551971
-1.008673300072947
-1.23732364643096
-0.08082433367802751
0.01868511127466539
0.1644119315656637
-0.004522229045371234
-0.02305842960241698
-0.004173188341305739
-0.2519064959772055
0.366002405905446
-0.04096789397584448
-0.2112460127890458
-0.01485321694890697
-0.6526253841699173
-0.07443253800143317
0.190145540509653
-0.28585510627026
-0.04980581206683407
-0.0688809670636913
-0.015878045903892
-0.02176520744959535
-0.5780566808851184
-0.1453858956743201
-0.08626471384789851
-0.127894992807445
-0.5541203246055775
-0.04419631881552206
-0.9054400305825177
0.0004139097275305721
-0.2387918641411675
-1.052142703404542
0.1657696043007376
0.2906628203098824
-0.1843717897398843
-0.1916605072882108
-0.2102386459482258
-0.06770450397308032
0.0219839868944338
0.04633317363747279
0.003070648181965994
-0.1675934604911634
0.02547980691382088
-1.359683449116939
-0.08536346743905542
-0.4746190093806582
-0.3317762227759634
-0.2051472016639873
-0.1772116372042746
-0.01690192268689236
-0.01547681163838784
-0.1070353934158499
0.1727681869572276
0.3850814469401787
-0.2077816269847051
-0.1391620493630721
-0.2311618806684741
-0.06253608006536586
-0.1500783495909228
-0.1641424072277055
-0.1259154821595938
-0.1241905097515927
0.4648082400203949
-0.2706382862438039
0.4325439079885209
-0.59797523305213
0.07138600898461489
-0.2021291206060285
-0.06627109169233235
-0.07511181664896761
-0.8814904173100746
-0.2177893569570108
-0.1911190997402366
-0.3477345702831103
-0.4589449625076578
0.5703990892632006
-0.2098191443593115
0.0007995347137684116
-0.0698512353789071
0.3447511588201796
-0.03693796238256469
-0.1327271570856862
-0.1799368402938795
-0.06337297361431947
-0.01655365478935639
-0.1965620956598649
0.1959128419345777
-0.01292095470983025
-0.09651220636754461
-0.1709007996487698
-0.3174959430418823
-0.3122654331837297
-0.06524246544474187
-0.01028895451940679
-0.08016616808718013
-0.6521606499507207
-0.6723427620363223
-0.337207689371107
-0.05778432348915182
-0.05142045432790662
-0.02545245504034683
-0.0679583476898537
-0.05723378702058422
-0.359844089086367
-0.959931204701489
-0.01060148203452059
-0.08320918107925836
-1.140568647469166
-1.034657758731102
-0.1067237454608794
-0.03924967911330877
-0.06956967290532273
0.3894243909371265
-0.3429275893492224
-0.04954766572260217
-0.6002202229529277
-0.1222621035208768
-0.25205169754912
-0.211476594335971
0.4737685380723348
-0.6295791581122189
0.0749741555822631
-0.02949187196618827
-0.5597385780494744
-0.05206243470188739
-0.3631184049688084
0.1081822016933282
-0.1905519231303378
-0.05992956023558894
-0.1383940970454695
-0.3603151709847023
-0.08614514303846664
0.5152343138489545
0.08583628561491463
0.4701433439321819
-0.09966967265632792
-0.2011903428563248
-0.520740295333733
-0.1321666515608077
0.02631361098197332
-0.05376966347428701
0.1015473199737903
-0.3047306732407005
0.2363270608039724
0.007286352695246435
-0.003315993981539972
-0.5119550996481824
-0.1847407664119844
-0.08064156824491506
0.581635889194996
0.1387961615086706
0.3440179676378357
0.225676279626786
-0.5631496564373104
-0.1948818547650077
-0.2241920707094431
-0.2293944983358879
-0.06050335329759732
-0.6927464392046829
-0.1921031212716773
0.3054178856967503
-0.1937671104898753
-0.01135274032845014
-0.1693251124328458
-0.009864621872639119
-0.1579708558416601
-0.4364417410246358
-0.07630549690964722
-0.2012146479985077
-0.07112554280391711
-0.08731992202353404
-0.1454205414522839
-0.0728890739304051
-0.4536750565443323
-0.4134357030900756
-0.02517381961621222
-0.07505005091536217
0.3289506078887572
-0.2474485634813537
-0.1835391864409023
0.5246385651740565
-0.206966318415965
0.01910712575249194
-0.4502528201943781
0.04912480442809066
-0.06159191004607795
-0.1417039161439816
-0.5842292417918996
0.1599471624182633
-0.5791556877933846
-0.5354024706193135
-0.1042429221405378
-0.5086507599780934
-0.03726531631174659
-0.139372918355975
-0.4116062691869067
-0.01626781478623638
0.2874080727657143
0.4897666483310962
-0.1595880624299905
-0.007506788197088928
-0.07840933312275369
0.5252266986647667
-0.03330856036590561
-0.4395887246503501
-0.03278402076208672
0.4613612283442877
-0.0152704557019487
-0.5442703698900819
-0.2485381076469771
0.1768381699204105
-0.3106764581402478
-0.1792742792579024
0.04981374023261581
0.03322564004381547
0.05488938513087919
-0.299439522920268
-0.1588696213532388
0.4128012078765479
)
;

boundaryField
{
    FrontBack
    {
        type            empty;
    }
    Top
    {
        type            zeroGradient;
    }
    In
    {
        type            zeroGradient;
    }
    Bottom
    {
        type            zeroGradient;
    }
    Out
    {
        type            fixedValue;
        value           uniform 0;
    }
    circle
    {
        type            zeroGradient;
    }
}


// ************************************************************************* //
