/*--------------------------------*- C++ -*----------------------------------*\
| =========                 |                                                 |
| \\      /  F ield         | OpenFOAM: The Open Source CFD Toolbox           |
|  \\    /   O peration     | Version:  2412                                  |
|   \\  /    A nd           | Website:  www.openfoam.com                      |
|    \\/     M anipulation  |                                                 |
\*---------------------------------------------------------------------------*/
FoamFile
{
    version     2.0;
    format      ascii;
    arch        "LSB;label=32;scalar=64";
    class       surfaceScalarField;
    location    "1048";
    object      phi;
}
// * * * * * * * * * * * * * * * * * * * * * * * * * * * * * * * * * * * * * //

dimensions      [0 3 -1 0 0 0 0];

oriented        oriented;

internalField   nonuniform List<scalar> 
1171
(
-0.9279074570539826
0.9279074570138686
0.7872665014529896
-1.098815109435911
0.3115486079994371
-0.1939557843316103
-0.767765564834359
0.9617213492857565
0.07209254008689514
-0.1177063011699868
-0.2118974880841828
0.3296037892981081
-0.7872665255209768
0.0692640177195805
0.7180025078089352
0.8106160171149633
-0.177476110568622
-0.63313990652305
0.8740748184427932
-1.043543361412857
0.1694685430025736
-0.2847502750358921
-0.09823794153987658
0.3829882168322958
-0.03624559968630538
0.5484198114116404
-0.5121742117872141
-0.5082566925361074
0.8297157216156648
-0.3214590292340333
-0.4024565797928935
1.045551334037846
-0.1714765165641565
0.3952629632396101
0.04974056291824806
-0.4450035262785278
1.04632694732153
-0.0007756138824505243
0.4466848114069065
-0.05142183708009929
1.05680343201633
-0.01047648834574249
0.579090717949665
-0.7730464991318082
-0.7241974086697979
0.5569861761339202
0.167211232510707
0.2176946601703751
-0.7259513461451937
0.5498453419046644
-0.9224754824064884
0.3726301400153311
-1.094208288955089
0.6865099445083898
0.4076983445505433
-0.5953943249365529
0.5591487259995173
0.01748357852322456
-0.2560639076961508
0.2385803282025319
-0.02378307625559306
-0.5245140622794975
0.548297139246765
0.3998589227349058
-0.49809686650295
-0.9188038435873678
0.9415789025226505
-0.02277505895743575
1.067864714770353
-0.01106128441109461
0.9351734666119517
-1.116952668061337
0.1817792014368724
1.06747889237106
0.0003858197240466807
-0.6642596518955235
-0.05993775496559803
1.262011406656724
-0.8644778173189263
-0.3975335893228145
0.1486750482831746
-0.1094407795555839
-0.3252832324325962
0.4347240121598237
-0.2856245282997267
0.191660982640816
0.0939635460628338
-0.5834426641703307
-0.5153724309709401
1.014142142051558
-0.0789686785439721
0.009896114495748409
0.8254646097743229
-0.8353607242720616
0.571727029834816
0.6902843729834672
0.438979037548934
-0.03093534977781769
0.430794272762907
-0.8078403470403408
-0.1026266446547284
0.9104669916695347
0.50260949046133
0.2540432243386856
-0.7566527148490585
0.0039170901551531
0.5310894956309776
-0.5350065857536014
-0.4899534717415953
-0.6042548171748169
-0.422875868677477
-0.6940768028718024
-0.027539237939281
0.2706838574535104
-0.2431446190676217
-0.9249303013613632
-0.005212786876962748
0.9301430882449726
0.3078231206123239
0.07516509299281157
0.7620579520610946
0.04855806961531856
-0.5329386299169415
-0.06245569143241055
0.04623786936719397
-0.8540782169399547
0.07722014147238218
0.8618185422498963
-0.9390386837466531
-0.3473052446613726
-0.04071376965723403
0.3880190141026112
-0.6823918178185041
-0.2425384871699569
-0.6324226567217286
0.709642798258261
0.6107488033490076
0.2189669201944083
-0.5431095536523112
0.9461289610392796
-0.779250018674296
-0.1668789423857078
0.01786177990389226
-0.008274448771860045
-0.009587332118514608
-0.4031123248675529
-0.09498454076202224
-0.2420359277469009
0.852784739479914
0.04787121730245789
0.3336103726458122
-0.3814815897416315
-0.4612464098551092
0.9638559085722013
0.680202650439953
-0.7828292951535789
0.3178075549513082
-0.01485711692063582
-0.3029504391779997
0.9306676167554475
-0.9306676167508906
-0.7827054293096227
0.1114648212314711
-0.3233623084578578
-0.750014292372864
0.7599104038672521
-0.09121239418336628
-0.1427099114139629
0.2339223057450882
0.8648902985812087
-0.03942569229693439
1.054596983858255
-0.8005537519937382
0.1864114867393163
-0.316074588706908
0.1296631020417538
0.8587721938195332
-0.09671424278060993
-0.6115314722279074
-0.03945747683151532
0.6509889490650373
0.1236682494731341
-0.2306652745891471
0.1069970243444115
0.8055614066865341
-0.9830375156914705
-0.4345437617722599
0.3292123271009573
0.1053314345940626
0.5328755743273306
-0.5566586493651182
1.022099973252564
-0.4562806377941674
-0.5658193354853798
0.5992241012431656
-0.7192641805461421
0.06648689018913273
0.652777290647324
0.1021194943350087
0.5701946380410092
0.05469006859392064
-0.6248847066806683
0.1948398752982081
-0.08337505076177443
-0.492518186325211
0.1452129419581268
0.05035483434019023
-0.8866669706524641
0.8363121362941004
-0.4747735025556473
-0.7132927621364161
0.04903311278911731
0.4365028676281959
-0.005708596221583496
0.3000700003601328
-0.8552990461967701
0.5552290456371344
0.4157407445649539
0.5842592554378582
0.5606381305458887
-0.5144002596535752
-0.3656787763527153
0.03779206464002623
0.3278867129735864
0.6812958373683349
0.2493717770840187
-0.5675801532482126
0.571497250031894
0.1112196399309329
0.8748254451856462
0.01030701502199734
-0.6218384910394513
-0.749212055381698
0.7995668901509342
0.530737156264919
0.07153166778944704
0.3003421511777271
-0.3718738190025384
-0.1675682723768009
0.4438710985199813
0.08721839038493157
0.8742224656899089
-0.8000992890949018
-0.07412317666711966
0.6355352120994279
0.3105937445964506
-0.4306515583331517
0.5750492272674521
-0.5035175605538744
0.4170601785965394
0.1327851661672111
-0.04685660581562329
-0.5887247482290496
-0.13933041618487
0.7280551644522815
-0.1496643191139481
-0.7810032984179007
-0.6110719001887117
0.3603234258195801
0.2507484750023014
0.6221852346709335
-0.6118782188657073
0.2383914058009619
1.011736635720681
0.04286035583927207
-0.7492120590515834
0.219728402357276
-0.2018666339521073
0.6802026478925121
0.8020836949932376
-0.8020836949932805
0.8376338575078598
-0.8332037828583054
-0.004430074703568211
-0.4453476364148925
0.8610883867250571
-0.1475608344944045
-0.3449573539114709
0.7347607769234747
-0.6685421125990489
-0.06621866427648979
-0.7340884813457835
0.1453637308962155
0.1390142871035049
-0.671952914097989
0.7828292833980753
-0.9503975557348954
-0.3653383763857445
0.2860304198374628
0.07930795603967593
0.1457619492498226
-1.009774539674136
0.8640125904099057
0.4805165354606755
-0.04153749787074828
-0.3081095033109696
0.5862866749815078
-0.2781771717248471
-0.7384203623568082
0.8841823164868858
-0.1570647898508619
0.7339796266401586
-0.8359785112806158
0.1019988844417047
0.9781763747219954
-0.5407083382788955
-0.4374680364491454
0.7552270832876717
-0.06485230847475423
-0.03628920729924779
0.1867671320825279
-0.15047792419511
-0.7757484490936496
-0.8418486044517186
0.07408304168078543
-0.7500142944859964
0.5141062050572187
-0.5548199766510898
0.09391855037518766
0.7167187985571083
-0.8106373490081549
0.7536421269083984
0.1742653316193262
0.5029013301955746
0.4970986698166778
-0.05480962466093146
-0.6069808024164551
0.6617904271541241
0.878278323213747
-0.004055859481799286
-0.7552270832942204
0.7995668860011913
0.1914244690326312
-0.4474883755918893
0.01558468759483777
0.001886501397100868
-0.01747119112994721
0.5894933341558324
-0.4378843178365865
-0.1516090164442956
0.7180025218815572
0.01329056779787956
-0.1078689705970746
0.4384614858834661
0.1510318529586308
-0.01390627091999405
-0.007502536321942176
0.0214088075514814
-0.03323503464413909
-0.003054152139596587
0.2447951206784949
-0.2596522445374829
-0.9591484916120864
0.001962105443284501
-0.1595816056009972
-0.1205432555136737
0.09478235647683941
0.72181998567899
0.7289602213737956
-0.1447009649245001
0.6646708191323191
-0.5707522713129858
-0.2119660316963714
0.3983775205053008
0.6955599906982612
0.02244253118790795
0.2417106404705171
-1.074914423047116
-0.9503975585900858
0.3021145322670347
0.7599104011395735
-0.2090991819780249
0.06638928261793492
-0.7237820950095257
0.9095678906716742
-0.1857857957203111
0.4162260832099734
-0.02820707373316987
0.7714598276596847
0.2807358094893628
0.3748409430571896
0.07184384372800288
-0.6587080622457077
0.6587080622617736
0.2148457984204061
0.6956211925776814
-0.05560434738206041
0.3892147044522494
0.3791196722001033
-0.01217393993842987
0.02775865850039172
0.4488275013532004
0.03168903591025073
-0.7384203604025209
0.5340378047259833
0.2007229712888506
0.3025991036325663
-0.1158319682941246
-0.6955599998992218
0.1795307663685872
0.7300371312820724
-0.01028989077035261
-0.8135902705426631
0.8238801613385177
0.6963660778585916
-0.7919856409527634
0.09561956310268364
-0.7536421296430642
-0.1510803329220385
0.2121127189257035
-0.0610323853754648
0.07752452799310827
-0.1785599188649797
-0.1134936807864367
0.2920535995897905
-0.004978412147509301
-0.008927860844007238
0.706591694087378
-0.7168815833220011
0.886080363979538
0.0756409872823683
-0.3170999794914704
-0.5182843559052136
0.8353843356026804
0.1040902734600114
-0.1040902742906239
0.3238224893887441
0.4724558217484033
0.617818702927719
-1.090274524811426
-0.1940910610586341
-0.5856378937126449
0.7797289547686226
0.01382348843043357
0.22009882311346
0.3765692053462057
-0.2529009500194546
1.014853119003793
-0.5423972975938146
0.6669989505299563
0.9942334017423093
-0.3764146980735674
0.229008374806022
0.8841823213614654
0.7127058028666242
0.2138359579698682
0.7277429440070221
-0.7810033001768895
0.3412919481937036
-0.2782618538504164
0.2503415497073761
0.02792030325988802
0.8464021405104338
-0.003351457894762992
-0.8430506827123296
-0.7022293118738112
0.702615131213328
0.5546523668304157
-0.7022293129528751
-0.7127058028750755
0.702615129703388
-0.03470457375478312
0.9087330727586644
-0.02265270897436232
-0.6812958381505836
0.6123242585166414
0.06897157962877212
0.5385688050544809
0.5370856960982068
-1.075654501141019
0.4891352582248171
0.5257178609261556
0.5444195503711636
0.4582102854566462
-1.002629835869941
0.4943829241642084
0.499850478107114
0.6123242592425769
-0.525552629334779
-0.4655745377206132
-0.556768465091748
-0.5163677245118521
-0.1192597075931591
-0.01239546713986222
0.01239546758259863
0.5126018383593111
0.5236115142398312
-1.039979238847035
0.5734089760619417
-0.2730668281532211
-0.8848032920949546
0.3440949547563404
-0.6331060110592508
0.3905675227627821
0.002309341642823337
-0.8269606306212287
0.8246512889478962
0.4208507287681133
-0.0200747943026006
0.8664769406075787
-0.9495226361720761
-0.8330492647242901
0.05376501798743787
0.7792842467337009
0.567063131528184
-0.4400104257360636
-0.1270527055630979
0.6502012283000803
-0.7291699083888306
0.8881176723832863
-0.8302605506596068
-0.05785712162872015
-0.01175850963002995
-0.7883407807704959
-0.1101952063311842
0.7121037287812833
-0.601908522458291
-0.937633001517451
0.9258744909646487
-0.7242410091886387
0.6909235817813656
0.03331742738177066
-0.8102888629262258
0.03732087692281862
0.7729679860639911
0.061871197993521
0.04221907326137064
0.4328551813047185
0.06140496840990468
-0.8517686053379607
0.7903636368264704
-0.6446878287497688
0.5898782128116234
0.8886854049472324
0.07158464471574362
-0.9602700497724621
0.05563613819355042
-0.04854042014228924
0.3764271368841565
-0.3817534537608053
0.06567887020616633
0.8417514562074372
-0.8394421151093406
-0.7346478755473448
-0.8156526992068689
0.02731191743887177
-0.1631096857695963
-0.8521146145241282
0.02185406185265668
0.6222421087981019
0.04242870780436575
0.03368164360263604
0.5333814873766494
-0.8094698832542083
0.8467907598966391
0.56581933793699
-0.8470354288886607
-0.8660483586365001
0.04268471334489313
-0.03035876283861298
0.8368927800858736
-0.8065340172291278
-0.02746332950202659
-0.7650066340900848
0.5443237705792352
0.1520423110308034
-0.02742289977057596
0.893899840950342
0.979639507889849
0.8628298959455162
-0.8409758352379491
0.1478386885477191
-0.147838689940188
-0.1181971624460308
-0.4765659138282322
0.03655548665399683
0.270261960419466
0.03185257205135009
0.3881315197047411
0.8664365119062057
0.007776326562109086
-0.01275474541478981
0.6585913834517593
0.3414086165637003
0.7836371328353368
-0.5834426633322261
-0.7781112064964454
-0.8098854679354309
-0.6798400702882982
0.6798400702809367
-0.1679703222238631
-0.1553919975887531
0.6022570027254109
-0.8120245901536286
0.2097675874371235
-0.4939181852580624
-0.568964627438296
0.2780773164182131
-0.9721541203324969
-0.9010594372490179
0.8432023130413374
-0.8121678336811073
0.8394797508765045
0.6487058086256104
0.134153396519867
-0.7828592051474171
-0.7765680313872048
-0.1462115295513125
0.7244068794030907
-0.5781953498300945
0.03462292594965462
-0.01309296927931736
0.01726743770227087
-0.004174467616613022
-0.3542225766331685
-0.1223433371707145
0.8803343188991642
0.7479699719282604
-0.2467335455966475
-0.5012364263250644
0.620917267743197
0.6855411220565686
-0.4706953231276058
-0.0001593353258102686
-0.2854651930005958
0.0194508736494553
0.7500926277062826
-0.7695435013449005
-0.3234483126560651
-0.07319057356937461
0.07622189379045617
-0.9630235967905242
0.1199729180779592
-0.6778711938304045
0.05241709112636725
0.6402718496561108
-0.6926889407363104
-0.7561750614154515
0.0783038675660154
0.5880555933646181
-0.6612461668929205
0.157502756492581
-0.3360626786179401
-0.7705320631482955
-0.006035968241763819
0.3711349113253868
0.6005961628200385
-0.02554694010766972
0.02012068077386258
-0.0201206816177089
-0.0198979914913173
-0.04846668061287674
-0.2297951792881922
0.02808269587150426
-0.02030633679019408
-0.7281033451702509
0.2792524009658821
0.6805859363431472
-0.6888299195449507
0.008243983342185379
-0.5943169287067236
0.6467340195742608
0.6535469262036085
-0.06549133096504509
-0.630991337581989
-0.1251837256384128
-1.050686649544831
0.01103516728657877
0.13680352251828
-0.7086524691250967
-0.7411865497505993
-0.7633285088561087
0.3657949170215559
-0.4095818613652297
0.4614491463560874
-0.0518672851947741
-0.6642329729020405
-0.04441949612627077
0.501863625167083
0.7306839182310131
-0.2349818484079689
0.1144385944557835
0.969059556488109
0.4466051144680708
0.133539616706355
-0.5801447312029844
-0.6772176806207456
0.01298470508670488
-0.04477207067577599
0.03167910424270678
0.6362607036441148
-0.7755911222481794
-0.00169552150500274
0.001695520878620838
-0.6012648923387638
0.6486524793803731
-0.0473875869449868
-0.6435360419478564
-0.1131272823968637
-0.6714888893841668
0.05903129445815862
0.6027591466558597
-0.1372568543371564
-0.8177004175008051
-0.567430009935762
0.5663726146270527
0.001057396178528781
0.6299679610490301
-0.6217239795359253
0.3225122657348982
0.214001586662427
-0.5365138524113493
-0.1049258461766347
-0.6014219616924679
-0.09126697938343975
-0.1546597819885359
-0.5083987166604245
0.4040952660952641
-0.4990798018000003
0.1269386420241716
0.6783597142041036
-0.8052983562629857
0.599224101239324
-0.3670603940982357
-0.04252145745780472
0.08319510050705961
-0.591593817171608
0.5516177313788192
-0.04063341511871832
-0.5109843164303071
-0.3128956168095946
0.3054434768455639
0.007452140972065436
0.4545366687088112
0.1188723060323292
0.05212496623111826
-0.3163579966576334
0.1573144158104218
0.1590435810284237
0.2271615373614169
-0.00743312166636104
-0.2929870372790047
-0.3103566276581375
0.3531651709703888
-0.04280854066392194
0.7869718749124682
-0.6256946931258054
-0.01784134884897223
0.4992109767037498
0.2818258841789463
-0.528559438756244
0.5775042357114002
-0.5775042357115182
-0.2897355593051273
-0.5864404383154527
-0.2955899475312997
-0.5864404381786006
-0.5944751354207771
-0.8385072875567087
0.1699651762853187
-0.5891392058351408
0.8210988067187431
-0.003202238159825065
0.1178487503888422
0.4827474086503594
0.09675998459947513
0.1859454161976135
-0.03649871930350738
-0.1494466965775819
-0.02276659571253764
0.592844017086642
-0.9454243483776367
0.4271399919436188
-0.005953442747402911
0.003956591313843651
0.001996850956432461
-0.6436866779258343
-0.1317727182293231
-0.4684187454428261
0.6019583598601869
-0.5036068047574822
-0.3277961158244292
-0.2637977052536263
-0.2710978657836211
-0.111678279190758
0.1116782799089231
0.1526539843514816
0.05945875697081572
0.1969805955472233
0.4540160234898524
-0.5723854203838366
0.1039666741858319
0.2443880902302744
0.4664526182020486
0.5335473822067219
0.6420031827609179
0.08869513704236882
-0.006544190778429922
-0.08215094805975498
-0.2770087479761444
-0.5406916694920345
-0.5518488348663156
0.1145759478600226
-0.1264617371541542
0.01188578963477406
-0.1055190458209915
-0.3855907627704023
-0.04768625881893523
0.6504454093504815
-0.4988372233455951
-0.1448494545752662
-0.3360705646546605
0.2904251437143224
0.1261466354820709
-0.6151717678702396
-0.2044690268466952
-0.2625574739583819
0.002905227870339429
-0.4221198215050877
0.3237416442488695
0.09837817729763039
-0.09598338227324532
0.2916895089943342
-0.8959443232176179
-0.4576734764599288
0.6276788192914396
-0.7731420714885769
0.6682162253436547
0.3406742828644497
-0.1243072859763903
0.2242072694943756
-0.09989998399775195
0.02501004281901661
-0.5862955041515781
0.02900392158975877
0.5572915824203352
-0.9006490902355018
0.5475535620135104
-0.6657507245142116
-0.1022220374076441
0.1098511661126605
-0.1098511677224297
-0.3165173329459779
0.3611095408069505
0.01531759769853344
0.03116833284687144
0.05752682119101714
0.5051902126750735
0.6631345340426823
-0.7372577118938534
0.03305482018897007
0.02213513726813756
-0.002014476638598414
-0.007267351915810033
0.007267352659043437
-0.4157845936953848
0.5346569004504832
0.01557632467779734
-0.01557632461519879
-0.7923811767323476
-0.0611919141107868
0.1230631110103834
-0.4573744900230234
0.5613411646073629
0.4522626037671735
-0.4996501935220256
0.1501772307999555
-0.1501772320325959
0.03145362785917442
-0.003694975389907705
-0.04245863704015182
-0.9755836487934851
0.5381156131240732
-0.4676518716401121
0.04221907390531898
0.5148036987299153
0.03092125783813378
-0.545724956666682
-0.6163131360481726
0.1174759125304554
-0.3292138157505797
0.01347170950794947
0.3157421054892141
-0.1555591940100819
-0.07942264996734792
-0.5409551079689127
-0.0453403950972593
0.1368035200678027
-0.03996075925949051
0.03826523169541696
0.0805772836531487
-0.08057728218854851
-0.5312984338481386
0.4884898842028988
-0.4147308329372929
0.1613240443036585
0.622313088557048
-0.09739732891956719
-0.002853225824863193
0.002853226254959251
0.5329394996135866
-0.08179028342950091
0.005760890453476714
0.02695235041277074
0.034951726554215
0.6844907190237743
-0.7662810024596468
-0.6526888627890911
0.6348475126292776
-0.1065423432897648
0.3135565029691864
0.7459205106732351
-0.01989799056701694
-0.2665124724659604
0.1506804975312458
-0.7446186887524281
0.4841099988851539
-0.4269073914392194
-0.1015094355078848
0.003368660816615842
-0.01425930616104398
0.02153849324830322
0.4108087042653913
-0.121547768153033
-0.3894365409774964
0.6287905329810811
0.01966283135138819
0.01026036308580125
-0.01026036321748182
-0.3517428005402933
-0.07728241187450451
-0.5603584851515717
0.5571562469283535
-0.2378009679157196
0.4647389180572662
-0.1511644084341563
0.7302551269408566
0.6711478827447898
-0.03996075206502443
-0.617127843808231
0.5632789123014744
0.287628045108916
-0.2838444927562195
-0.003783552274539379
0.5388641332244547
0.09339963187768881
-0.03905444464396496
0.1960990897660814
-0.1570446449070432
0.1196317111951748
-0.1196317094876606
-0.8587001866747009
0.002338554653708261
-0.1136055408290059
0.1405578905049368
-0.1316720201760194
0.1316720211539205
0.02213514367381378
-0.02275123606146779
0.6699735760373891
0.06006355627320535
-0.3227496032801168
-0.06284115954727541
-0.4712299415005892
-0.04844252117670977
-0.1513593599044969
0.1513593612144445
-0.05069731782327944
0.143568653720534
-0.1435686549101874
0.1361820806918215
-0.1361820792195172
-0.3159688792652001
-0.1146826790548476
0.2261614470198738
0.1030508849281764
0.03482002395994341
-0.8211425769484909
-0.1984487673671042
0.1700321606709816
0.02139231429920918
-0.264617069231641
0.1260679992126237
-0.1260680002565264
-0.4142153210843219
-0.08486448146643243
0.2359721485956774
0.002608185863445184
0.04061652089787075
-0.5437702493551004
0.578474823101775
-0.03480706310904755
-0.01589025501323445
-0.02700264701895958
0.02330767917977552
0.006608603320072641
-0.1846740884618348
0.1780654850414667
-0.1086895208525074
-0.2273731579702834
-0.1444918579833618
0.1444918591985746
0.07264193418627798
-0.0726419335479251
-0.01914296820865453
-0.108571646890759
0.1277146144967379
0.2390033105783546
-0.183232514776215
-0.02888035417183494
0.02686587999404721
-0.1350898914942826
0.6235797751067977
-0.03903634707658356
0.4262512680307443
-0.04342734221356677
0.06483616227831777
-0.153059455750736
0.1530594572228161
-0.6367468025618381
0.3083565792634031
-0.07934820538341712
-0.2342401702100969
0.003574891626983066
-0.1207564346638801
0.1613729560287069
0.1959448623656706
0.09610873608726073
0.09698246796923304
-0.06203074121077967
0.07294919888100326
0.04162675123638737
0.06406870052601167
0.1059634549847715
-0.09778386625954291
0.212222441814919
0.01195588938227669
-0.118090224376616
-0.09973821542552494
0.09667437898110122
0.003063835192736411
0.01187477601700373
-0.02376451094171588
0.03757400520893623
-0.03757400510273448
0.07534265217922292
-0.05514057847492537
0.05514057871759448
-0.2244390480550408
-0.05325405803724533
0.0115666289222038
-0.103052363174637
0.01655035786693732
0.1086531355719444
-0.1086531362284879
0.294323033741176
-0.2711478353166845
0.1624583163376184
-0.05107211892332284
-0.2200757153697504
-0.01714597583142846
0.01714597546221589
0.3675739591663999
0.2852033252368312
-0.527934911886298
-0.09396263424936306
-0.03249909542955017
0.5288979995406342
0.2120006411951589
-0.170403730991862
-0.3796091656788553
0.07648011798298471
-0.1473986142887789
0.1869391574637242
-0.03954054280541791
-0.06702636053349707
0.06702636005029265
0.8224006286511381
-0.5605249090873464
-0.006340536023969728
0.01821531160028854
-0.01999372149434157
-0.2871647057358314
-0.01750064251589995
-0.01281983652016504
-0.1320594817702878
-0.572204758878159
0.5560944232353889
-0.5693906149445741
-0.00686749000940986
0.1023081681328643
-0.001700103194737363
0.01687739042775756
-0.1673923281282523
-0.3362302197621307
0.2331778564139213
-0.05421086740799368
0.03506790704963212
0.1319318040771925
0.1735116716399066
0.339688999104297
0.2761236583921689
-0.2778237621464137
-0.06147297606362721
-0.155232909957442
-0.2207684472659314
0.07463890832716619
-0.01057020971928355
0.2136528331257344
-0.1967754430552419
-0.08629468928407324
0.1592438815545345
-0.3553890291996513
0.2081167667918432
-0.1915664088254938
0.08957174465000461
-0.4790082846725144
0.1741193231432909
0.1704472350509661
-0.2567419222925465
0.07321796062733894
-0.1947225948969483
0.177221952670326
0.01741488654648533
0.1418289995955066
-0.03956425170547026
0.06576886008331877
0.4671706398399808
0.0204280350587457
-0.08327374035522014
0.05380353841780497
0.1262985918941446
-0.2603089740568075
-0.2308987831686162
0.559740656403473
0.1572580878604043
0.07871405800355578
0.07485822969189715
-0.03095734698053347
-0.0113740445485022
0.007590478747290203
-0.03272229937665969
0.1708267324687072
-0.1776942228452253
-0.06173524923497473
0.0205253571358354
-0.1471081373632284
-0.05289358724321371
0.1504872223748302
0.2770518835252374
-0.0389348826606787
0.01193363605150094
-0.2555802219146524
-0.132676712079822
0.2361261011853029
0.1785344693262132
0.129822110020136
0.02208642619311453
0.0886782659401131
0.05240385367368122
0.4527863589961724
0.01501972174114332
0.09769834817504854
0.04329250860958909
0.07206334431138739
-0.1153558518431364
-0.2427315908388093
-0.2006208953564972
-0.01945481760613652
-0.201956398107254
0.2750350488820539
)
;

boundaryField
{
    FrontBack
    {
        type            empty;
    }
    Top
    {
        type            calculated;
        value           uniform 0;
    }
    In
    {
        type            calculated;
        value           uniform -1;
    }
    Bottom
    {
        type            calculated;
        value           uniform 0;
    }
    Out
    {
        type            calculated;
        value           nonuniform List<scalar> 10(1.03355480909171 1.064121435646486 1.022343002808088 1.02010078487428 0.9952959830279283 1.016218202905091 1.036213352426731 1.062882812669081 0.8672397960225273 0.8820303858720838);
    }
    circle
    {
        type            calculated;
        value           uniform 0;
    }
}


// ************************************************************************* //
