/*--------------------------------*- C++ -*----------------------------------*\
| =========                 |                                                 |
| \\      /  F ield         | OpenFOAM: The Open Source CFD Toolbox           |
|  \\    /   O peration     | Version:  2412                                  |
|   \\  /    A nd           | Website:  www.openfoam.com                      |
|    \\/     M anipulation  |                                                 |
\*---------------------------------------------------------------------------*/
FoamFile
{
    version     2.0;
    format      ascii;
    arch        "LSB;label=32;scalar=64";
    class       surfaceScalarField;
    location    "20.1";
    object      phi;
}
// * * * * * * * * * * * * * * * * * * * * * * * * * * * * * * * * * * * * * //

dimensions      [0 3 -1 0 0 0 0];

oriented        oriented;

internalField   nonuniform List<scalar> 
1171
(
-0.94546
0.94546
0.776484
-1.088
0.311512
-0.228706
-0.73941
0.968117
0.0545404
-0.0671021
-0.27863
0.345733
-0.776484
0.0887824
0.687702
0.931771
-0.213708
-0.718064
0.833001
-1.05612
0.223123
-0.358015
-0.0381866
0.396202
-0.0044553
0.606861
-0.602405
-0.562136
0.94511
-0.382975
-0.425117
1.01362
-0.180617
0.219698
0.0999027
-0.319601
0.97531
0.0383086
0.254542
-0.0348432
1.01159
-0.0362832
0.67268
-0.901386
-0.786077
0.61017
0.175908
0.243359
-0.805495
0.556729
-0.913391
0.356661
-1.08082
0.672531
0.408286
-0.644936
0.640481
0.0297736
-0.248469
0.218695
0.0438948
-0.635392
0.591497
0.467991
-0.506178
-0.833772
0.876563
-0.0427905
0.98745
0.0241428
0.90432
-1.05864
0.154318
1.01042
-0.0229694
-0.698837
-0.0872408
1.26066
-0.848883
-0.411776
0.176647
-0.0795519
-0.411802
0.491354
-0.273392
0.187296
0.0860963
-0.606518
-0.481478
0.971662
-0.0673411
-0.0296787
0.888799
-0.859121
0.510632
0.750027
0.527309
0.0213982
0.446593
-0.792798
-0.105475
0.898272
0.579586
0.239612
-0.819198
0.0654056
0.583149
-0.648555
-0.510472
-0.570345
-0.380787
-0.677852
0.0272975
0.247208
-0.274506
-0.957284
-0.0338077
0.991092
0.37603
0.0201719
0.836204
0.0955678
-0.603395
-0.0415412
0.0339143
-0.826712
0.105207
0.928411
-1.03362
-0.405065
0.0310389
0.374026
-0.714995
-0.24229
-0.73035
0.835556
0.723182
0.221928
-0.581007
0.998417
-0.819225
-0.179192
-0.158311
0.0437502
0.114561
-0.460524
-0.0456545
-0.29507
1.01825
-0.00429234
0.433507
-0.429215
-0.509903
1.08949
0.716262
-0.821737
0.397154
-0.0737145
-0.32344
0.760282
-0.760282
-0.892878
0.0405889
-0.319219
-0.698697
0.669019
-0.0338715
-0.145743
0.179614
0.892145
-0.00334521
1.04794
-0.808326
0.226038
-0.322573
0.0965349
0.963
-0.126797
-0.673297
-0.051922
0.725219
0.148426
-0.22966
0.0812336
0.796405
-1.01011
-0.4388
0.308997
0.129803
0.682574
-0.638679
0.863972
-0.391792
-0.47218
0.483185
-0.693952
0.0351062
0.658845
0.143803
0.663735
0.046131
-0.709866
0.13675
-0.0961608
-0.509036
0.103971
0.0362542
-0.904526
0.868272
-0.535489
-0.759344
0.0605076
0.501526
-0.0549331
0.276143
-0.833604
0.557461
0.424663
0.575337
0.598831
-0.564916
-0.392862
-0.0131677
0.40603
0.53596
0.224323
-0.669411
0.734817
0.0897241
0.885187
0.0059431
-0.67924
-0.764684
0.800938
0.611813
0.104485
0.353404
-0.457889
-0.154181
0.548931
0.0342185
0.873281
-0.805689
-0.0675921
0.660642
0.337775
-0.433226
0.69202
-0.587534
0.409026
0.147703
-0.0543527
-0.736735
-0.20925
0.945985
-0.122779
-0.637503
-0.613312
0.361842
0.25147
0.661226
-0.655283
0.311861
1.02993
0.018004
-0.764684
-0.183437
0.0251259
0.716262
0.786858
-0.786858
0.844019
-0.830018
-0.0140005
-0.453737
0.8784
-0.192647
-0.316389
0.76431
-0.671115
-0.0931947
-0.911441
0.174705
0.110142
-0.713537
0.821737
-0.975917
-0.200996
0.193753
0.00724319
0.111721
-1.00159
0.889872
0.54659
-0.0192818
-0.288537
0.594385
-0.305847
-0.655769
0.76749
-0.157999
0.65699
-0.890698
0.233707
1.13805
-0.710729
-0.427317
0.732505
-0.0690699
0.00117499
-0.00180351
0.00062852
-0.800886
-0.873419
0.134009
-0.698697
0.575103
-0.544064
0.202888
0.641848
-0.844737
0.778684
0.166776
0.490454
0.509546
-0.0592514
-0.711933
0.771184
0.930818
-0.0575375
-0.732505
0.800938
0.181862
-0.430331
-0.0284261
0.0155368
0.0128894
0.672651
-0.428925
-0.243726
0.687702
-0.0570581
-0.216429
0.566405
0.106246
-0.0191704
0.00096891
0.0182015
0.00594926
-0.00477427
0.141411
-0.215125
-0.944857
0.0283412
-0.143919
-0.0595851
0.131971
0.794419
0.741733
-0.166396
0.595925
-0.393037
-0.163098
0.389136
0.637765
0.0499363
0.229728
-1.05975
-0.975917
0.321097
0.669019
-0.162983
0.0172404
-0.822761
1.02863
-0.205866
0.479929
-0.105903
0.799202
0.306048
0.260798
-0.00625676
-0.680818
0.680818
0.226241
0.672031
-0.0228679
0.456375
0.468486
0.00406954
-0.0324957
0.541403
0.00518711
-0.655769
0.571158
0.193153
-0.00639238
0.00458887
-0.637765
0.166253
0.862373
0.0322571
-0.720682
0.688425
0.760829
-0.821123
0.0602935
-0.778684
-0.0341999
0.0483672
-0.0141673
0.0866095
-0.117886
-0.102018
0.219904
-0.00745316
-0.0117172
0.766364
-0.734107
0.933403
0.0347137
-0.343735
-0.549442
0.893177
-0.00154243
0.00154243
0.180585
0.467822
0.523018
-0.99084
-0.196839
-0.549285
0.746124
-0.020102
0.199716
0.38006
-0.231634
1.02205
-0.554223
0.812386
0.964435
-0.441417
0.187413
0.76749
0.586874
0.237495
0.639068
-0.637503
0.319182
-0.0245051
-0.00117121
0.0256764
0.934082
0.00104234
-0.935125
-0.55059
0.527621
0.546263
-0.55059
-0.586874
0.527621
0.0131623
0.933623
-0.000219804
-0.53596
0.448881
0.0870783
0.533977
0.631929
-1.16591
0.53254
0.489506
0.637456
0.537054
-1.17451
0.537817
0.426618
0.448881
-0.513542
-0.49212
-0.660231
-0.615496
-0.248849
-0.00734893
0.00734893
0.645926
0.529945
-1.14544
0.706863
-0.35346
-1.07278
0.362048
-0.693438
0.451149
-0.0552632
-0.941825
0.997088
0.453195
-0.0963601
1.03044
-1.07408
-1.04317
0.123942
0.919232
0.256041
-0.221907
-0.0341342
0.728054
-0.795395
0.979903
-0.976918
-0.00298549
-0.0177448
-0.787944
-0.198959
0.91232
-0.713361
-1.0347
1.01695
-0.660199
0.521711
0.138488
-0.673556
-0.0599272
0.733484
0.00358676
-0.00512919
0.423846
0.0941814
-0.951152
0.856971
-0.803389
0.744138
1.07945
0.0961556
-1.1756
0.0362738
-0.0137215
0.419751
-0.361683
0.0391104
0.926718
-0.981981
-0.638843
-0.728565
-0.0593792
-0.163002
-0.938901
-0.038017
0.426491
0.169434
-0.0967861
0.352828
-0.69724
0.637313
0.47218
-1.03819
-0.938542
-0.00491905
-0.0168774
0.641537
-0.624659
0.0581873
-0.65572
0.578628
0.182201
0.0557039
0.974738
1.14089
0.92701
-0.965027
0.0466263
-0.0466263
-0.0722739
-0.0237894
-0.198118
0.33949
-0.0183939
0.20374
1.03293
0.0112113
-0.0186645
0.657288
0.342712
0.796503
-0.606518
-0.75839
-0.623617
-0.484831
0.484831
-0.209388
-0.109831
0.646405
-0.932685
0.28628
-0.468181
-0.53849
0.335855
-1.01371
-0.961021
0.958035
-0.709218
0.649839
0.659374
0.203562
-0.862936
-0.485129
-0.1884
0.863272
-0.674872
-0.0719049
0.00982618
0.00184433
-0.0116705
-0.0156292
-0.0081602
0.98226
0.569344
-0.244815
-0.324529
0.535209
0.752648
-0.526407
0.0147798
-0.288172
-0.0110827
0.775902
-0.764819
-0.354332
-0.0685723
0.146178
-1.05741
0.122283
-0.729123
0.123312
0.729889
-0.8532
-0.897188
0.168065
0.721714
-0.790286
0.233097
-0.350983
-0.544707
0.0595779
0.367928
0.714875
-0.0228548
-0.00357239
0.00357239
-0.00638002
0.00877657
-0.0332817
-0.0163444
0.0275557
-0.375273
0.342859
0.749075
-0.825457
0.0763815
-0.697819
0.821131
0.805847
-0.0841337
-0.702977
-0.194212
-1.12841
0.0210437
0.0255825
-0.386356
-0.901936
-0.857905
0.446129
-0.188292
0.246095
-0.0578027
-0.328763
-0.0575927
0.489401
0.711828
-0.047003
-0.0125822
0.99783
0.532617
0.163668
-0.696285
-0.274915
-0.053848
-0.00285436
0.0126805
0.735623
-0.944873
0.00493282
-0.00493282
-0.72359
0.772822
-0.0492316
-0.371701
-0.129851
-0.6986
0.131894
0.639291
-0.0543019
-0.887
-0.36418
0.269645
0.0945354
0.761004
-0.684623
0.355663
0.251301
-0.606965
-0.166312
-0.707992
-0.145208
-0.190974
-0.232287
0.470865
-0.51652
0.172051
0.751975
-0.924026
0.483185
-0.204174
0.0158811
-0.0769939
-0.155293
0.59403
-0.0945803
-0.499449
-0.287271
0.308259
-0.0209874
0.56576
0.141103
0.0978555
-0.3139
0.172004
0.141896
-0.0825676
-0.10087
-0.338954
0.159562
-0.0789062
-0.0806553
0.934669
-0.23422
-0.137481
0.55324
0.333572
-0.578387
0.397995
-0.397995
-0.200821
-0.391716
-0.218641
-0.391716
-0.729475
-0.852258
0.181142
-0.432338
0.734955
0.0499651
0.13406
0.580814
0.109744
0.119443
0.0100593
-0.129503
-0.162693
0.663471
-1.00167
0.452231
-0.0398358
0.0669588
-0.0271231
-0.759006
-0.177909
-0.573717
0.737385
-0.520077
-0.0492405
-0.106052
-0.341834
-0.0794905
0.0794905
0.0491502
-0.000782979
0.140487
0.145225
-0.699821
0.126104
-0.041007
0.473298
0.526702
0.841993
0.0174115
0.0187892
-0.0362007
-0.300297
-0.586703
-0.521459
0.115996
-0.120551
0.00455441
-0.153545
-0.41097
-0.144174
0.783465
-0.593061
-0.165945
-0.00549028
-0.00232284
0.232624
-0.45063
-0.199329
-0.189915
-0.0252097
-0.4693
0.429243
0.0400572
-0.0444908
0.295099
-0.865445
-0.533958
0.620772
-0.883946
0.717634
0.442653
-0.0305912
0.0539502
-0.023359
0.136508
-0.634604
-0.00996107
0.644565
-0.89297
0.653195
-0.725469
-0.0436376
0.00709345
-0.00709345
-0.29912
0.421839
-0.0020877
-0.00410737
0.0215188
0.588958
0.538609
-0.606201
0.0114294
0.000147528
-0.00371992
0.00529861
-0.00529861
-0.469014
0.610117
0.0158341
-0.0158341
-0.781775
-0.00815626
0.011743
-0.499701
0.625805
0.577868
-0.6271
0.0698796
-0.0698796
-0.0036267
-0.028869
0.00980078
-1.08336
0.65604
-0.526817
-0.00512919
0.609513
0.00325978
-0.612773
-0.71373
0.120669
-0.313917
-0.0132099
0.327127
-0.0239406
-0.0230624
-0.609033
-0.0255714
0.0255825
0.00556784
-0.000635018
-0.00302721
0.00302721
-0.255641
0.174986
-0.472877
0.134239
0.662264
-0.115471
0.00541672
-0.00541672
0.508404
-0.0978023
0.00863588
0.0184891
0.000169416
0.612113
-0.709915
-0.75728
0.619798
-0.104978
0.332033
0.7863
-0.00638002
-0.083853
0.0884418
-0.633604
0.546027
-0.269054
-0.104217
-0.0304048
-0.0262335
0.00244486
0.473673
-0.0849864
-0.414463
0.714289
0.00205033
0.00300833
-0.00300833
-0.206261
-0.110416
-0.569692
0.619657
-0.132609
0.509398
-0.186865
0.859545
0.831536
0.00556784
-0.729694
0.615107
0.0365858
0.00329399
-0.0398798
0.575307
0.0931147
-0.0116103
0.064503
-0.0528926
0.00858314
-0.00858314
-0.739311
0.0232534
-0.0443264
0.0628154
-0.0852282
0.0852282
0.000147528
-0.0009633
0.758858
0.103516
-0.315477
-0.0954924
-0.520384
0.0310955
-0.0657058
0.0657058
-0.0398274
0.0820907
-0.0820907
0.0258701
-0.0258701
-0.358478
-0.074748
0.238594
0.0704031
0.050886
-0.732183
-0.0624582
0.159379
0.0224836
-0.236204
0.0820347
-0.0820347
-0.467834
-0.0486853
0.22798
-0.00928503
0.00254063
-0.669617
0.656455
0.00569204
-0.0455194
0.0401288
-0.0689978
-0.0122111
-0.158218
0.170429
-0.14843
-0.202553
-0.0802655
0.0802655
0.0538421
-0.0538421
-0.0275399
-0.0935616
0.121101
-0.0371661
-0.190736
0.000241106
-0.00396103
-0.157703
0.332689
-0.0256484
0.468102
0.0096255
0.00857599
-0.0500054
0.0500054
-0.73543
0.314817
-0.127404
-0.206699
-0.0229608
-0.0166077
0.0191484
0.191102
0.0288018
-0.00225489
0.00242431
0.0859551
0.0300413
0.056532
0.102847
-0.0217072
0.00912506
-0.00192449
0.00584845
0.00484563
0.000472405
-0.00531803
-0.0028608
0.0116758
0.0270788
-0.0270788
0.0478952
-0.0437058
0.0437058
-0.189679
0.0144244
0.0317924
-0.0753231
0.017287
0.0783015
-0.0783015
0.231159
-0.233144
0.0847137
-0.0660735
-0.16707
-0.0146377
0.0146377
0.408344
0.250502
-0.521576
-0.0805267
-0.0400241
0.542582
0.00296277
-0.0550511
-0.458437
0.101351
-0.151238
0.16819
-0.0169519
-0.0482602
0.0482602
0.887652
-0.589252
-0.00415406
0.00129326
-0.00573764
-0.28774
-5.60108e-05
0.00496273
-0.0452178
-0.630623
0.569069
-0.663851
0.0145596
0.110285
0.0157004
0.0241353
-0.156976
-0.332554
0.257231
-0.0543033
0.0267634
0.17311
0.135149
0.234836
0.261685
-0.245985
0.00421061
-0.11463
-0.219909
0.0667443
-0.0102123
0.158417
-0.134282
-0.0684487
0.154404
-0.41255
0.118966
-0.101679
0.0582458
-0.472709
0.173153
0.180217
-0.248666
0.00942094
-0.179261
0.179205
0.00373314
0.150671
-0.0278717
0.0476499
0.460754
0.0124411
0.0144686
-0.00110092
0.0365819
-0.236861
-0.202752
0.590488
0.166457
0.0615225
0.0736695
-0.0641797
0.0475584
-0.0874382
-0.0304718
0.164751
-0.150192
0.0169135
-0.00811509
-0.106249
-0.0285908
0.0260385
0.251614
-0.0157843
-0.0214394
-0.308456
-0.00863796
0.219327
0.13775
0.177068
0.0567376
0.095453
0.0609376
0.52802
-0.00724252
0.106769
0.0406841
0.0678958
-0.10858
-0.271075
-0.194487
0.0274169
-0.221095
0.281039
)
;

boundaryField
{
    FrontBack
    {
        type            empty;
    }
    Top
    {
        type            calculated;
        value           uniform 0;
    }
    In
    {
        type            calculated;
        value           uniform -1;
    }
    Bottom
    {
        type            calculated;
        value           uniform 0;
    }
    Out
    {
        type            calculated;
        value           nonuniform List<scalar> 10(1.17 1.04752 1.15235 1.02732 1.16898 1.04211 1.17587 1.00667 0.598816 0.610357);
    }
    circle
    {
        type            calculated;
        value           uniform 0;
    }
}


// ************************************************************************* //
