/*--------------------------------*- C++ -*----------------------------------*\
| =========                 |                                                 |
| \\      /  F ield         | OpenFOAM: The Open Source CFD Toolbox           |
|  \\    /   O peration     | Version:  2412                                  |
|   \\  /    A nd           | Website:  www.openfoam.com                      |
|    \\/     M anipulation  |                                                 |
\*---------------------------------------------------------------------------*/
FoamFile
{
    version     2.0;
    format      ascii;
    arch        "LSB;label=32;scalar=64";
    class       volVectorField;
    location    "0.9";
    object      cellDisplacement;
}
// * * * * * * * * * * * * * * * * * * * * * * * * * * * * * * * * * * * * * //

dimensions      [0 1 0 0 0 0 0];

internalField   nonuniform List<vector> 
1024
(
(0.00218798 -0.00329512 0)
(0.00427171 -0.00603581 0)
(0.00649349 -0.00810211 0)
(0.0089822 -0.00942963 0)
(0.011785 -0.00993341 0)
(0.0147927 -0.00949833 0)
(0.0177593 -0.00805744 0)
(0.0202618 -0.00564706 0)
(0.0219157 -0.00252961 0)
(0.0221382 0.00084556 0)
(0.0208142 0.00383005 0)
(0.0181863 0.00585233 0)
(0.0147123 0.00660337 0)
(0.0108669 0.00608201 0)
(0.00699645 0.00452232 0)
(0.0032699 0.00228547 0)
(0.00986773 -0.0144657 0)
(0.0159476 -0.0214836 0)
(0.0225091 -0.0264626 0)
(0.0298176 -0.0292769 0)
(0.0378558 -0.0297029 0)
(0.0462767 -0.0275269 0)
(0.0543242 -0.0226466 0)
(0.0609431 -0.0153145 0)
(0.0650041 -0.00629441 0)
(0.0653459 0.00314767 0)
(0.061815 0.0114477 0)
(0.0549599 0.0172602 0)
(0.0458058 0.0198352 0)
(0.0356053 0.0191652 0)
(0.0250528 0.015636 0)
(0.0146041 0.00997806 0)
(0.0205037 -0.0294455 0)
(0.0303032 -0.0393652 0)
(0.0409443 -0.0459547 0)
(0.0527421 -0.0491269 0)
(0.065545 -0.0485576 0)
(0.0786491 -0.0439489 0)
(0.0908163 -0.035271 0)
(0.100583 -0.0231079 0)
(0.106088 -0.00867065 0)
(0.106166 0.00607403 0)
(0.100684 0.0189521 0)
(0.0905104 0.0281774 0)
(0.0771154 0.0327961 0)
(0.0619376 0.0326577 0)
(0.0461035 0.0282599 0)
(0.0301253 0.0204112 0)
(0.0340051 -0.0477853 0)
(0.0472569 -0.0592265 0)
(0.0617482 -0.0662421 0)
(0.0777004 -0.0687449 0)
(0.0947073 -0.0663185 0)
(0.111744 -0.0586899 0)
(0.127169 -0.0459794 0)
(0.139059 -0.029087 0)
(0.145315 -0.00971327 0)
(0.144847 0.00968561 0)
(0.137694 0.0265731 0)
(0.125025 0.0389564 0)
(0.108412 0.0457229 0)
(0.089471 0.0466481 0)
(0.0695985 0.0422693 0)
(0.0492677 0.033346 0)
(0.0502623 -0.0689226 0)
(0.0667747 -0.080628 0)
(0.0848541 -0.0869399 0)
(0.104551 -0.0878091 0)
(0.125211 -0.082788 0)
(0.145419 -0.0716437 0)
(0.163285 -0.0547574 0)
(0.176418 -0.0332929 0)
(0.182859 -0.00941795 0)
(0.181679 0.0141072 0)
(0.173122 0.0345668 0)
(0.158519 0.0498807 0)
(0.139536 0.0588739 0)
(0.117862 0.0612902 0)
(0.0950242 0.0576424 0)
(0.071485 0.0486502 0)
(0.0692504 -0.0923172 0)
(0.0888238 -0.103084 0)
(0.110211 -0.107641 0)
(0.133244 -0.106019 0)
(0.156924 -0.0977371 0)
(0.17958 -0.0827029 0)
(0.198987 -0.0615203 0)
(0.212671 -0.0357043 0)
(0.218854 -0.00772338 0)
(0.216826 0.0194861 0)
(0.20712 0.043177 0)
(0.191012 0.0612359 0)
(0.170317 0.0725144 0)
(0.146803 0.0767856 0)
(0.121904 0.0744408 0)
(0.096139 0.0662308 0)
(0.0909531 -0.117333 0)
(0.11345 -0.126103 0)
(0.137842 -0.127959 0)
(0.163718 -0.123045 0)
(0.189794 -0.110925 0)
(0.21412 -0.0916889 0)
(0.234256 -0.0661801 0)
(0.247886 -0.0362365 0)
(0.25345 -0.00450875 0)
(0.250523 0.0260319 0)
(0.239731 0.0526455 0)
(0.222483 0.0733061 0)
(0.200649 0.0869559 0)
(0.175928 0.0933324 0)
(0.149735 0.0927832 0)
(0.122638 0.0861236 0)
(0.115471 -0.143342 0)
(0.140654 -0.149057 0)
(0.167745 -0.147377 0)
(0.19596 -0.138478 0)
(0.223709 -0.122028 0)
(0.248883 -0.0983466 0)
(0.269054 -0.0685654 0)
(0.282109 -0.0347362 0)
(0.286791 0.000420818 0)
(0.282844 0.033959 0)
(0.271048 0.0632543 0)
(0.252952 0.0864382 0)
(0.230358 0.102506 0)
(0.204959 0.111234 0)
(0.178098 0.112922 0)
(0.150303 0.10841 0)
(0.142916 -0.1696 0)
(0.170581 -0.171311 0)
(0.199929 -0.165278 0)
(0.229843 -0.15176 0)
(0.258545 -0.130597 0)
(0.283826 -0.102355 0)
(0.303393 -0.0684145 0)
(0.315432 -0.0309485 0)
(0.318916 0.007317 0)
(0.313813 0.0435573 0)
(0.301096 0.0753437 0)
(0.282333 0.100978 0)
(0.259283 0.119558 0)
(0.233566 0.13085 0)
(0.206476 0.135149 0)
(0.178499 0.13332 0)
(0.173588 -0.19529 0)
(0.203379 -0.19209 0)
(0.234476 -0.180957 0)
(0.265424 -0.162279 0)
(0.294282 -0.136108 0)
(0.318932 -0.103282 0)
(0.337284 -0.0653454 0)
(0.347811 -0.0245385 0)
(0.349763 0.0165075 0)
(0.343414 0.055187 0)
(0.329826 0.0893219 0)
(0.310525 0.117384 0)
(0.287186 0.138544 0)
(0.261353 0.15261 0)
(0.234322 0.159851 0)
(0.206466 0.161196 0)
(0.207822 -0.21942 0)
(0.239366 -0.210431 0)
(0.271584 -0.193515 0)
(0.30277 -0.169223 0)
(0.330963 -0.137875 0)
(0.354152 -0.100504 0)
(0.3706 -0.0588432 0)
(0.379094 -0.0150449 0)
(0.37927 0.0284554 0)
(0.37159 0.0693609 0)
(0.357123 0.105715 0)
(0.337311 0.136182 0)
(0.313728 0.160021 0)
(0.287841 0.177064 0)
(0.260911 0.187579 0)
(0.233317 0.192542 0)
(0.246246 -0.240667 0)
(0.278966 -0.225043 0)
(0.311507 -0.201687 0)
(0.341957 -0.171428 0)
(0.368465 -0.134868 0)
(0.389273 -0.0932153 0)
(0.403099 -0.0481831 0)
(0.409138 -0.001807 0)
(0.407287 0.0438288 0)
(0.398113 0.0866952 0)
(0.382671 0.125149 0)
(0.362307 0.158017 0)
(0.338429 0.184679 0)
(0.312368 0.204958 0)
(0.285345 0.21905 0)
(0.25784 0.227986 0)
(0.289625 -0.257047 0)
(0.322693 -0.233921 0)
(0.354411 -0.203646 0)
(0.382859 -0.167289 0)
(0.406454 -0.125743 0)
(0.423914 -0.0802275 0)
(0.434376 -0.0323605 0)
(0.43745 0.0160776 0)
(0.43326 0.0633614 0)
(0.422381 0.10789 0)
(0.405813 0.148302 0)
(0.384702 0.18363 0)
(0.360334 0.213297 0)
(0.333861 0.237098 0)
(0.30636 0.255159 0)
(0.278305 0.268519 0)
(0.338844 -0.265451 0)
(0.370882 -0.234005 0)
(0.400082 -0.196576 0)
(0.424814 -0.154446 0)
(0.44405 -0.108582 0)
(0.457071 -0.060107 0)
(0.463431 -0.010304 0)
(0.463063 0.0394723 0)
(0.456215 0.0879003 0)
(0.443415 0.133775 0)
(0.425464 0.176021 0)
(0.403281 0.213854 0)
(0.377907 0.24674 0)
(0.350379 0.27441 0)
(0.321622 0.296952 0)
(0.292047 0.315184 0)
(0.394136 -0.260797 0)
(0.422735 -0.220835 0)
(0.44677 -0.177014 0)
(0.465576 -0.130373 0)
(0.478832 -0.0815941 0)
(0.486319 -0.0314943 0)
(0.487946 0.0190523 0)
(0.483782 0.0691497 0)
(0.474044 0.117933 0)
(0.45911 0.164576 0)
(0.439482 0.20834 0)
(0.415806 0.248605 0)
(0.388773 0.284902 0)
(0.359147 0.316945 0)
(0.327611 0.344685 0)
(0.29452 0.368532 0)
(0.4475 -0.233467 0)
(0.468229 -0.18848 0)
(0.484449 -0.141678 0)
(0.496003 -0.0935114 0)
(0.50278 -0.0444443 0)
(0.504716 0.00505078 0)
(0.50179 0.0544972 0)
(0.494032 0.103419 0)
(0.481517 0.151345 0)
(0.464364 0.197813 0)
(0.442739 0.242376 0)
(0.41685 0.284605 0)
(0.386946 0.324093 0)
(0.353316 0.360459 0)
(0.316284 0.393355 0)
(0.276205 0.422462 0)
(0.00329503 0.00218115 0)
(0.00603866 0.00425464 0)
(0.00810794 0.00647189 0)
(0.00943763 0.00896185 0)
(0.00994172 0.011768 0)
(0.00950478 0.0147814 0)
(0.00806165 0.0177528 0)
(0.00564958 0.0202575 0)
(0.00253169 0.0219106 0)
(-0.000841759 0.0221304 0)
(-0.00382302 0.0208041 0)
(-0.00584287 0.0181757 0)
(-0.00659371 0.0147013 0)
(-0.00607332 0.0108569 0)
(-0.00451799 0.0069861 0)
(-0.00228649 0.00326012 0)
(0.0144679 0.00984141 0)
(0.0214936 0.0158968 0)
(0.0264795 0.0224449 0)
(0.0292998 0.0297552 0)
(0.0297255 0.0378063 0)
(0.0275442 0.0462438 0)
(0.0226579 0.0543048 0)
(0.0153218 0.0609296 0)
(0.00630147 0.0649882 0)
(-0.00313514 0.065323 0)
(-0.0114272 0.0617856 0)
(-0.0172335 0.0549274 0)
(-0.0198055 0.045774 0)
(-0.0191396 0.0355728 0)
(-0.0156185 0.0250224 0)
(-0.00997108 0.0145778 0)
(0.0294487 0.0204517 0)
(0.0393805 0.0302176 0)
(0.0459819 0.0408399 0)
(0.049162 0.0526414 0)
(0.0485923 0.0654654 0)
(0.0439761 0.0785962 0)
(0.0352886 0.0907847 0)
(0.02312 0.10056 0)
(0.00868246 0.106063 0)
(-0.00605386 0.10613 0)
(-0.0189188 0.100637 0)
(-0.0281337 0.0904589 0)
(-0.0327491 0.0770619 0)
(-0.0326136 0.0618848 0)
(-0.0282256 0.0460539 0)
(-0.0203914 0.0300816 0)
(0.0477923 0.0339251 0)
(0.0592477 0.0471366 0)
(0.0662784 0.0616067 0)
(0.0687909 0.0775663 0)
(0.0663632 0.0946015 0)
(0.0587249 0.111674 0)
(0.0460025 0.127126 0)
(0.0291034 0.139028 0)
(0.00973029 0.14528 0)
(-0.00965705 0.144799 0)
(-0.0265286 0.137633 0)
(-0.0388989 0.124956 0)
(-0.0456582 0.108339 0)
(-0.0465864 0.0893983 0)
(-0.0422163 0.0695305 0)
(-0.0333071 0.0492086 0)
(0.0689314 0.0501492 0)
(0.0806554 0.0666206 0)
(0.0869843 0.0846788 0)
(0.0878637 0.104388 0)
(0.0828417 0.125085 0)
(0.071685 0.145335 0)
(0.0547861 0.163233 0)
(0.0333131 0.176379 0)
(0.00944007 0.182815 0)
(-0.0140721 0.181621 0)
(-0.0345119 0.173048 0)
(-0.0498093 0.158436 0)
(-0.0587945 0.139446 0)
(-0.0612104 0.117772 0)
(-0.0575694 0.0949395 0)
(-0.0485901 0.0714106 0)
(0.0923334 0.0691058 0)
(0.103118 0.0886373 0)
(0.107694 0.110007 0)
(0.106082 0.133059 0)
(0.0977974 0.156781 0)
(0.0827499 0.179484 0)
(0.0615534 0.198926 0)
(0.0357289 0.212625 0)
(0.00775076 0.218802 0)
(-0.0194432 0.216759 0)
(-0.0431135 0.207037 0)
(-0.0611544 0.190917 0)
(-0.0724211 0.170215 0)
(-0.0766899 0.146699 0)
(-0.0743487 0.121805 0)
(-0.0661479 0.0960514 0)
(0.117354 0.0907713 0)
(0.126146 0.113231 0)
(0.12802 0.137615 0)
(0.123115 0.163516 0)
(0.11099 0.189642 0)
(0.0917406 0.214018 0)
(0.0662175 0.234189 0)
(0.0362651 0.247835 0)
(0.00454078 0.253392 0)
(-0.025984 0.250451 0)
(-0.0525754 0.239643 0)
(-0.0732156 0.222381 0)
(-0.0868526 0.200539 0)
(-0.0932231 0.175814 0)
(-0.0926741 0.149626 0)
(-0.0860189 0.12254 0)
(0.143367 0.115249 0)
(0.149105 0.140406 0)
(0.147446 0.167499 0)
(0.138553 0.195751 0)
(0.122097 0.223554 0)
(0.0984017 0.248778 0)
(0.0686066 0.268984 0)
(0.0347683 0.282053 0)
(-0.000384891 0.28673 0)
(-0.0339066 0.282768 0)
(-0.0631799 0.270958 0)
(-0.0863433 0.252849 0)
(-0.102396 0.230245 0)
(-0.111115 0.204842 0)
(-0.112801 0.177984 0)
(-0.108289 0.150199 0)
(0.169626 0.142663 0)
(0.171366 0.170307 0)
(0.165352 0.199676 0)
(0.151839 0.229637 0)
(0.130668 0.258395 0)
(0.102412 0.283725 0)
(0.0684577 0.303324 0)
(0.0309827 0.315374 0)
(-0.00727835 0.318853 0)
(-0.0435038 0.313737 0)
(-0.0752687 0.301008 0)
(-0.100882 0.282232 0)
(-0.119446 0.259173 0)
(-0.130727 0.233453 0)
(-0.135021 0.206365 0)
(-0.133187 0.178396 0)
(0.195321 0.173309 0)
(0.192147 0.203105 0)
(0.181034 0.234231 0)
(0.162359 0.265232 0)
(0.136178 0.294145 0)
(0.103339 0.318839 0)
(0.0653876 0.337218 0)
(0.0245736 0.347755 0)
(-0.0164698 0.349702 0)
(-0.0551351 0.343342 0)
(-0.0892499 0.329743 0)
(-0.117292 0.310433 0)
(-0.138435 0.287086 0)
(-0.15249 0.261249 0)
(-0.159724 0.234221 0)
(-0.161062 0.206369 0)
(0.219455 0.207562 0)
(0.210488 0.239116 0)
(0.193591 0.271371 0)
(0.169298 0.302607 0)
(0.137941 0.330846 0)
(0.100556 0.354073 0)
(0.0588833 0.370543 0)
(0.0150765 0.379043 0)
(-0.028421 0.379215 0)
(-0.0693149 0.371526 0)
(-0.105651 0.35705 0)
(-0.136099 0.337231 0)
(-0.159923 0.313644 0)
(-0.176953 0.287755 0)
(-0.18746 0.260825 0)
(-0.192416 0.233233 0)
(0.240702 0.246035 0)
(0.225099 0.278773 0)
(0.201753 0.311345 0)
(0.171492 0.341834 0)
(0.134923 0.368376 0)
(0.0932594 0.389212 0)
(0.0482148 0.403052 0)
(0.00183365 0.409096 0)
(-0.0438012 0.407241 0)
(-0.0866584 0.398063 0)
(-0.125098 0.382613 0)
(-0.15795 0.362245 0)
(-0.184598 0.338364 0)
(-0.204865 0.312303 0)
(-0.218948 0.285277 0)
(-0.227878 0.257773 0)
(0.257083 0.289486 0)
(0.233967 0.322567 0)
(0.203696 0.354307 0)
(0.167335 0.382779 0)
(0.125782 0.406395 0)
(0.0802573 0.423871 0)
(0.0323833 0.434343 0)
(-0.016059 0.437421 0)
(-0.0633414 0.433229 0)
(-0.107863 0.422346 0)
(-0.148265 0.405776 0)
(-0.183581 0.384661 0)
(-0.213237 0.360293 0)
(-0.237029 0.333816 0)
(-0.255082 0.306314 0)
(-0.268439 0.278256 0)
(0.265476 0.338774 0)
(0.234034 0.370818 0)
(0.196605 0.400029 0)
(0.154472 0.424772 0)
(0.108603 0.444019 0)
(0.0601229 0.457047 0)
(0.0103163 0.463413 0)
(-0.039461 0.463048 0)
(-0.0878872 0.456199 0)
(-0.133758 0.443398 0)
(-0.175998 0.425445 0)
(-0.213823 0.40326 0)
(-0.246704 0.377884 0)
(-0.274368 0.350355 0)
(-0.296906 0.321596 0)
(-0.315136 0.292019 0)
(0.260808 0.394115 0)
(0.220847 0.422714 0)
(0.177025 0.446752 0)
(0.130382 0.465563 0)
(0.0816009 0.478822 0)
(0.0314994 0.486311 0)
(-0.0190477 0.48794 0)
(-0.0691445 0.483777 0)
(-0.117927 0.47404 0)
(-0.164568 0.459105 0)
(-0.20833 0.439477 0)
(-0.248592 0.415801 0)
(-0.284887 0.388767 0)
(-0.316929 0.35914 0)
(-0.344668 0.327602 0)
(-0.368515 0.294509 0)
(0.233467 0.4475 0)
(0.18848 0.468229 0)
(0.141678 0.484449 0)
(0.0935114 0.496003 0)
(0.0444443 0.50278 0)
(-0.00505078 0.504716 0)
(-0.0544972 0.50179 0)
(-0.103419 0.494032 0)
(-0.151345 0.481517 0)
(-0.197813 0.464364 0)
(-0.242376 0.442739 0)
(-0.284605 0.41685 0)
(-0.324093 0.386946 0)
(-0.360459 0.353316 0)
(-0.393355 0.316284 0)
(-0.422462 0.276205 0)
(-0.00218163 0.00328715 0)
(-0.00425132 0.0060306 0)
(-0.00646153 0.00810124 0)
(-0.00894623 0.00943308 0)
(-0.0117506 0.00993942 0)
(-0.0147655 0.00950506 0)
(-0.0177402 0.00806332 0)
(-0.0202488 0.00565047 0)
(-0.021905 0.00253172 0)
(-0.0221269 -0.000842399 0)
(-0.0208022 -0.003826 0)
(-0.0181742 -0.00584752 0)
(-0.0146997 -0.00659848 0)
(-0.0108552 -0.00607924 0)
(-0.00698454 -0.00452299 0)
(-0.00325997 -0.00228908 0)
(-0.00983587 0.0144429 0)
(-0.0158749 0.0214707 0)
(-0.0224083 0.0264584 0)
(-0.0297087 0.0292845 0)
(-0.0377575 0.0297186 0)
(-0.0462007 0.027544 0)
(-0.0542714 0.0226606 0)
(-0.0609068 0.0153225 0)
(-0.0649741 0.00629958 0)
(-0.0653149 -0.00314024 0)
(-0.0617808 -0.0114356 0)
(-0.0549241 -0.0172454 0)
(-0.0457708 -0.0198224 0)
(-0.0355689 -0.0191568 0)
(-0.0250181 -0.0156356 0)
(-0.0145759 -0.00998434 0)
(-0.0204305 0.0294088 0)
(-0.0301726 0.0393409 0)
(-0.0407753 0.0459472 0)
(-0.0525667 0.0491378 0)
(-0.0653912 0.0485797 0)
(-0.0785322 0.0439736 0)
(-0.0907359 0.0352899 0)
(-0.100527 0.023119 0)
(-0.106043 0.00867742 0)
(-0.106119 -0.00606293 0)
(-0.100631 -0.0189337 0)
(-0.0904557 -0.0281553 0)
(-0.0770587 -0.0327755 0)
(-0.0618805 -0.0326442 0)
(-0.0460486 -0.0282561 0)
(-0.0300778 -0.0204179 0)
(-0.0338832 0.0477363 0)
(-0.0470655 0.0591937 0)
(-0.0615156 0.0662318 0)
(-0.0774682 0.0687574 0)
(-0.0945082 0.0663458 0)
(-0.111595 0.0587196 0)
(-0.127067 0.0460015 0)
(-0.138988 0.0290994 0)
(-0.145257 0.0097208 0)
(-0.144787 -0.00967257 0)
(-0.137628 -0.0265504 0)
(-0.124954 -0.038928 0)
(-0.108338 -0.0456962 0)
(-0.0893956 -0.0466291 0)
(-0.0695261 -0.0422614 0)
(-0.0492042 -0.0333498 0)
(-0.0500824 0.0688613 0)
(-0.0665237 0.0805885 0)
(-0.0845656 0.0869276 0)
(-0.104273 0.0878237 0)
(-0.124979 0.0828186 0)
(-0.145248 0.0716745 0)
(-0.16317 0.0547795 0)
(-0.176338 0.0333035 0)
(-0.182792 0.00942441 0)
(-0.18161 -0.0140941 0)
(-0.173045 -0.0345411 0)
(-0.158436 -0.049848 0)
(-0.139448 -0.0588419 0)
(-0.117772 -0.0612662 0)
(-0.094938 -0.0576292 0)
(-0.0714066 -0.0486488 0)
(-0.0690132 0.092251 0)
(-0.0885187 0.103042 0)
(-0.109877 0.107631 0)
(-0.132934 0.106035 0)
(-0.156671 0.097769 0)
(-0.179396 0.0827335 0)
(-0.198863 0.0615406 0)
(-0.212586 0.0357131 0)
(-0.218782 0.0077284 0)
(-0.216751 -0.0194727 0)
(-0.207037 -0.0431508 0)
(-0.190921 -0.0612009 0)
(-0.170221 -0.0724787 0)
(-0.146704 -0.0767566 0)
(-0.121807 -0.0744215 0)
(-0.0960501 -0.0662227 0)
(-0.0906561 0.117263 0)
(-0.113096 0.126064 0)
(-0.137478 0.127953 0)
(-0.163391 0.123066 0)
(-0.189535 0.110955 0)
(-0.213935 0.0917151 0)
(-0.234132 0.0661947 0)
(-0.2478 0.0362403 0)
(-0.253377 0.00450989 0)
(-0.250447 -0.0260217 0)
(-0.239646 -0.0526201 0)
(-0.222389 -0.0732701 0)
(-0.200549 -0.0869179 0)
(-0.175824 -0.093299 0)
(-0.149634 -0.0927578 0)
(-0.122542 -0.0861064 0)
(-0.115117 0.143272 0)
(-0.140264 0.149022 0)
(-0.167363 0.147379 0)
(-0.195633 0.1385 0)
(-0.223457 0.122055 0)
(-0.248705 0.0983654 0)
(-0.268935 0.0685735 0)
(-0.282026 0.0347342 0)
(-0.28672 -0.000423969 0)
(-0.282769 -0.0339515 0)
(-0.270964 -0.0632319 0)
(-0.252859 -0.0864041 0)
(-0.230258 -0.102467 0)
(-0.204856 -0.111197 0)
(-0.177996 -0.11289 0)
(-0.150206 -0.108385 0)
(-0.142523 0.169532 0)
(-0.170167 0.171287 0)
(-0.19955 0.165287 0)
(-0.229531 0.151785 0)
(-0.258313 0.130618 0)
(-0.283664 0.102364 0)
(-0.303285 0.0684126 0)
(-0.315356 0.0309385 0)
(-0.31885 -0.00732598 0)
(-0.313743 -0.0435559 0)
(-0.301017 -0.0753254 0)
(-0.282244 -0.100946 0)
(-0.259188 -0.11952 0)
(-0.233468 -0.130809 0)
(-0.206379 -0.135111 0)
(-0.178407 -0.133284 0)
(-0.173172 0.195235 0)
(-0.202978 0.192075 0)
(-0.234122 0.180973 0)
(-0.265146 0.162302 0)
(-0.29408 0.13612 0)
(-0.318794 0.10328 0)
(-0.337192 0.0653311 0)
(-0.347746 0.0245193 0)
(-0.349706 -0.0165241 0)
(-0.343352 -0.0551903 0)
(-0.329755 -0.0893084 0)
(-0.310446 -0.117357 0)
(-0.287101 -0.138506 0)
(-0.261266 -0.152569 0)
(-0.234236 -0.159807 0)
(-0.206383 -0.161153 0)
(-0.207438 0.21938 0)
(-0.239008 0.210424 0)
(-0.271285 0.193533 0)
(-0.302542 0.169238 0)
(-0.330801 0.137876 0)
(-0.354043 0.100489 0)
(-0.370528 0.0588172 0)
(-0.379042 0.0150159 0)
(-0.379223 -0.0284787 0)
(-0.371538 -0.0693704 0)
(-0.357063 -0.105708 0)
(-0.337245 -0.136159 0)
(-0.313658 -0.159988 0)
(-0.28777 -0.177022 0)
(-0.260841 -0.187533 0)
(-0.23325 -0.192493 0)
(-0.245934 0.24064 0)
(-0.278691 0.225045 0)
(-0.311284 0.201699 0)
(-0.341792 0.171432 0)
(-0.368349 0.134857 0)
(-0.389197 0.0931894 0)
(-0.403048 0.0481481 0)
(-0.4091 0.00177086 0)
(-0.407252 -0.0438566 0)
(-0.398075 -0.0867102 0)
(-0.382626 -0.125149 0)
(-0.362257 -0.158003 0)
(-0.338377 -0.184653 0)
(-0.312316 -0.204922 0)
(-0.285294 -0.219005 0)
(-0.257791 -0.227936 0)
(-0.289414 0.257037 0)
(-0.322514 0.233922 0)
(-0.354272 0.203648 0)
(-0.382758 0.167282 0)
(-0.406385 0.125724 0)
(-0.423868 0.0801972 0)
(-0.434345 0.0323237 0)
(-0.437427 -0.0161129 0)
(-0.433237 -0.0633895 0)
(-0.422355 -0.107906 0)
(-0.405784 -0.148306 0)
(-0.384671 -0.183623 0)
(-0.360302 -0.213279 0)
(-0.333828 -0.23707 0)
(-0.306328 -0.255121 0)
(-0.278274 -0.268475 0)
(-0.338735 0.265446 0)
(-0.370793 0.234004 0)
(-0.400016 0.196571 0)
(-0.424768 0.154435 0)
(-0.444019 0.108564 0)
(-0.45705 0.0600822 0)
(-0.463417 0.010276 0)
(-0.463052 -0.0394986 0)
(-0.456203 -0.0879207 0)
(-0.443402 -0.133788 0)
(-0.42545 -0.176026 0)
(-0.403265 -0.21385 0)
(-0.37789 -0.246729 0)
(-0.350362 -0.274391 0)
(-0.321606 -0.296926 0)
(-0.292032 -0.315152 0)
(-0.394102 0.260796 0)
(-0.422709 0.220834 0)
(-0.446752 0.177011 0)
(-0.465565 0.130367 0)
(-0.478825 0.0815857 0)
(-0.486314 0.0314832 0)
(-0.487942 -0.0190644 0)
(-0.483778 -0.0691607 0)
(-0.474041 -0.117941 0)
(-0.459106 -0.164581 0)
(-0.439477 -0.208342 0)
(-0.415802 -0.248603 0)
(-0.388769 -0.284897 0)
(-0.359142 -0.316937 0)
(-0.327606 -0.344674 0)
(-0.294516 -0.368518 0)
(-0.4475 0.233467 0)
(-0.468229 0.18848 0)
(-0.484449 0.141678 0)
(-0.496003 0.0935114 0)
(-0.50278 0.0444443 0)
(-0.504716 -0.00505078 0)
(-0.50179 -0.0544972 0)
(-0.494032 -0.103419 0)
(-0.481517 -0.151345 0)
(-0.464364 -0.197813 0)
(-0.442739 -0.242376 0)
(-0.41685 -0.284605 0)
(-0.386946 -0.324093 0)
(-0.353316 -0.360459 0)
(-0.316284 -0.393355 0)
(-0.276205 -0.422462 0)
(-0.00328655 -0.00218521 0)
(-0.00602773 -0.00425936 0)
(-0.00809754 -0.00647385 0)
(-0.0094276 -0.00896042 0)
(-0.00992772 -0.0117674 0)
(-0.00949186 -0.0147937 0)
(-0.00804763 -0.0177709 0)
(-0.00563315 -0.0202777 0)
(-0.00251482 -0.0219287 0)
(0.000862383 -0.0221497 0)
(0.0038514 -0.0208409 0)
(0.00587639 -0.018214 0)
(0.00662105 -0.0147266 0)
(0.00609302 -0.0108706 0)
(0.00452411 -0.00698688 0)
(0.0022831 -0.00326089 0)
(-0.0144399 -0.00985149 0)
(-0.0214644 -0.0159044 0)
(-0.0264505 -0.022448 0)
(-0.0292693 -0.0297536 0)
(-0.029688 -0.0378055 0)
(-0.0275084 -0.0462771 0)
(-0.0226179 -0.0543522 0)
(-0.0152739 -0.060984 0)
(-0.00625133 -0.0650368 0)
(0.0031986 -0.0653868 0)
(0.0115029 -0.0618568 0)
(0.017318 -0.0549975 0)
(0.0198882 -0.0458419 0)
(0.0191971 -0.0356085 0)
(0.0156534 -0.0250424 0)
(0.00998983 -0.0145995 0)
(-0.0294038 -0.0204628 0)
(-0.039334 -0.0302254 0)
(-0.0459376 -0.0408427 0)
(-0.0491162 -0.0526383 0)
(-0.0485389 -0.0654737 0)
(-0.043919 -0.0786455 0)
(-0.0352222 -0.0908554 0)
(-0.0230411 -0.100639 0)
(-0.0085985 -0.106138 0)
(0.00615303 -0.106214 0)
(0.019039 -0.100743 0)
(0.0282707 -0.0905714 0)
(0.0328758 -0.0771549 0)
(0.0327172 -0.0619496 0)
(0.0282978 -0.0460933 0)
(0.0204351 -0.03011 0)
(-0.0477308 -0.0339342 0)
(-0.059188 -0.0471414 0)
(-0.0662224 -0.0616067 0)
(-0.0687343 -0.0775651 0)
(-0.0662978 -0.0946186 0)
(-0.0586497 -0.111734 0)
(-0.0459122 -0.127213 0)
(-0.0289975 -0.139123 0)
(-0.00961624 -0.145374 0)
(0.00979001 -0.144905 0)
(0.0266815 -0.137748 0)
(0.0390675 -0.125071 0)
(0.0458274 -0.10845 0)
(0.0467308 -0.0894807 0)
(0.0423332 -0.0695932 0)
(0.0333999 -0.0492655 0)
(-0.0688572 -0.0501531 0)
(-0.0805854 -0.0666196 0)
(-0.0869205 -0.0846749 0)
(-0.0878 -0.104388 0)
(-0.0827667 -0.125109 0)
(-0.0715941 -0.1454 0)
(-0.0546733 -0.163326 0)
(-0.0331837 -0.176481 0)
(-0.00929894 -0.182919 0)
(0.0142289 -0.18173 0)
(0.0346946 -0.173172 0)
(0.0500143 -0.158568 0)
(0.0589979 -0.139567 0)
(0.0614007 -0.117878 0)
(0.057736 -0.0950265 0)
(0.0487251 -0.0714745 0)
(-0.0922495 -0.0691013 0)
(-0.103042 -0.0886289 0)
(-0.107626 -0.109997 0)
(-0.106013 -0.133058 0)
(-0.0977152 -0.156808 0)
(-0.0826454 -0.179551 0)
(-0.0614235 -0.199019 0)
(-0.0355799 -0.212729 0)
(-0.00759031 -0.218908 0)
(0.019624 -0.216876 0)
(0.0433144 -0.207159 0)
(0.061377 -0.191042 0)
(0.0726566 -0.170345 0)
(0.0769188 -0.146818 0)
(0.0745623 -0.121908 0)
(0.0663438 -0.0961405 0)
(-0.117265 -0.0907573 0)
(-0.126068 -0.113213 0)
(-0.127951 -0.137599 0)
(-0.123044 -0.163514 0)
(-0.110903 -0.189668 0)
(-0.0916264 -0.214079 0)
(-0.0660754 -0.234275 0)
(-0.0361036 -0.247931 0)
(-0.00436607 -0.253495 0)
(0.0261736 -0.250559 0)
(0.0527922 -0.239762 0)
(0.0734604 -0.222513 0)
(0.0871118 -0.200674 0)
(0.09349 -0.17595 0)
(0.0929367 -0.149748 0)
(0.0862609 -0.122631 0)
(-0.143279 -0.115223 0)
(-0.14903 -0.140378 0)
(-0.14738 -0.167477 0)
(-0.138484 -0.195744 0)
(-0.122008 -0.223575 0)
(-0.0982826 -0.24883 0)
(-0.0684575 -0.269058 0)
(-0.0346011 -0.282138 0)
(0.000564734 -0.286822 0)
(0.0341069 -0.282873 0)
(0.0634035 -0.271073 0)
(0.0865939 -0.252975 0)
(0.102674 -0.230387 0)
(0.111409 -0.204986 0)
(0.113101 -0.17811 0)
(0.108594 -0.15031 0)
(-0.169543 -0.142627 0)
(-0.171296 -0.17027 0)
(-0.165291 -0.199645 0)
(-0.151773 -0.229624 0)
(-0.13058 -0.258408 0)
(-0.102292 -0.283764 0)
(-0.0683095 -0.303382 0)
(-0.0308173 -0.315444 0)
(0.00745852 -0.318935 0)
(0.0436988 -0.31383 0)
(0.0754927 -0.301117 0)
(0.101139 -0.282359 0)
(0.11973 -0.259316 0)
(0.131039 -0.233596 0)
(0.135353 -0.2065 0)
(0.133526 -0.178504 0)
(-0.195248 -0.173264 0)
(-0.192088 -0.20306 0)
(-0.18098 -0.234195 0)
(-0.162297 -0.265213 0)
(-0.136093 -0.294148 0)
(-0.103224 -0.318865 0)
(-0.0652467 -0.33726 0)
(-0.0244156 -0.34781 0)
(0.0166393 -0.34977 0)
(0.0553272 -0.34343 0)
(0.0894681 -0.329846 0)
(0.117541 -0.310554 0)
(0.138716 -0.287218 0)
(0.1528 -0.261387 0)
(0.160061 -0.234342 0)
(0.161428 -0.206479 0)
(-0.219396 -0.207511 0)
(-0.21044 -0.239067 0)
(-0.193545 -0.271332 0)
(-0.169241 -0.302584 0)
(-0.137862 -0.330843 0)
(-0.100449 -0.354087 0)
(-0.0587542 -0.370571 0)
(-0.0149336 -0.379084 0)
(0.0285788 -0.379273 0)
(0.0694874 -0.3716 0)
(0.105855 -0.35714 0)
(0.13633 -0.337335 0)
(0.160183 -0.313758 0)
(0.177241 -0.287869 0)
(0.187775 -0.260934 0)
(0.192756 -0.233328 0)
(-0.240659 -0.245983 0)
(-0.225063 -0.278725 0)
(-0.201715 -0.311307 0)
(-0.171442 -0.341809 0)
(-0.134852 -0.368368 0)
(-0.0931661 -0.389218 0)
(-0.0481048 -0.40307 0)
(-0.00171091 -0.409127 0)
(0.0439324 -0.407285 0)
(0.0868108 -0.398119 0)
(0.125268 -0.382684 0)
(0.158148 -0.362321 0)
(0.184812 -0.338451 0)
(0.205101 -0.312388 0)
(0.219199 -0.285366 0)
(0.228164 -0.257842 0)
(-0.257055 -0.28944 0)
(-0.233942 -0.322527 0)
(-0.203666 -0.354275 0)
(-0.167293 -0.382759 0)
(-0.125724 -0.406388 0)
(-0.0801839 -0.423874 0)
(-0.0322977 -0.434355 0)
(0.0161522 -0.437441 0)
(0.063444 -0.433258 0)
(0.107975 -0.422384 0)
(0.148395 -0.405816 0)
(0.183723 -0.384711 0)
(0.213392 -0.360342 0)
(0.237188 -0.333877 0)
(0.255259 -0.306365 0)
(0.268625 -0.278314 0)
(-0.265462 -0.338742 0)
(-0.234019 -0.370792 0)
(-0.196584 -0.40001 0)
(-0.154442 -0.424761 0)
(-0.108564 -0.444015 0)
(-0.0600744 -0.45705 0)
(-0.0102616 -0.46342 0)
(0.03952 -0.463059 0)
(0.0879504 -0.456214 0)
(0.133828 -0.443415 0)
(0.176075 -0.425465 0)
(0.213907 -0.403282 0)
(0.24679 -0.37791 0)
(0.274458 -0.350381 0)
(0.296996 -0.321629 0)
(0.315236 -0.292053 0)
(-0.260803 -0.394102 0)
(-0.22084 -0.422704 0)
(-0.177015 -0.446746 0)
(-0.130368 -0.46556 0)
(-0.0815833 -0.478822 0)
(-0.0314791 -0.486313 0)
(0.01907 -0.487943 0)
(0.0691682 -0.48378 0)
(0.117951 -0.474044 0)
(0.164595 -0.45911 0)
(0.208359 -0.439481 0)
(0.248622 -0.415806 0)
(0.284918 -0.388773 0)
(0.316962 -0.359145 0)
(0.344695 -0.32762 0)
(0.36855 -0.294521 0)
(-0.233467 -0.4475 0)
(-0.18848 -0.468229 0)
(-0.141678 -0.484449 0)
(-0.0935114 -0.496003 0)
(-0.0444443 -0.50278 0)
(0.00505078 -0.504716 0)
(0.0544972 -0.50179 0)
(0.103419 -0.494032 0)
(0.151345 -0.481517 0)
(0.197813 -0.464364 0)
(0.242376 -0.442739 0)
(0.284605 -0.41685 0)
(0.324093 -0.386946 0)
(0.360459 -0.353316 0)
(0.393355 -0.316284 0)
(0.422462 -0.276205 0)
)
;

boundaryField
{
    walls
    {
        type            cellMotion;
        value           uniform (0 0 0);
    }
    cylinder
    {
        type            cellMotion;
        value           nonuniform List<vector> 
64
(
(0.4475 -0.233467 0)
(0.468229 -0.18848 0)
(0.484449 -0.141678 0)
(0.496003 -0.0935114 0)
(0.50278 -0.0444443 0)
(0.504716 0.00505078 0)
(0.50179 0.0544972 0)
(0.494032 0.103419 0)
(0.481517 0.151345 0)
(0.464364 0.197813 0)
(0.442739 0.242376 0)
(0.41685 0.284605 0)
(0.386946 0.324093 0)
(0.353316 0.360459 0)
(0.316284 0.393355 0)
(0.276205 0.422462 0)
(0.233467 0.4475 0)
(0.18848 0.468229 0)
(0.141678 0.484449 0)
(0.0935114 0.496003 0)
(0.0444443 0.50278 0)
(-0.00505078 0.504716 0)
(-0.0544972 0.50179 0)
(-0.103419 0.494032 0)
(-0.151345 0.481517 0)
(-0.197813 0.464364 0)
(-0.242376 0.442739 0)
(-0.284605 0.41685 0)
(-0.324093 0.386946 0)
(-0.360459 0.353316 0)
(-0.393355 0.316284 0)
(-0.422462 0.276205 0)
(-0.4475 0.233467 0)
(-0.468229 0.18848 0)
(-0.484449 0.141678 0)
(-0.496003 0.0935114 0)
(-0.50278 0.0444443 0)
(-0.504716 -0.00505078 0)
(-0.50179 -0.0544972 0)
(-0.494032 -0.103419 0)
(-0.481517 -0.151345 0)
(-0.464364 -0.197813 0)
(-0.442739 -0.242376 0)
(-0.41685 -0.284605 0)
(-0.386946 -0.324093 0)
(-0.353316 -0.360459 0)
(-0.316284 -0.393355 0)
(-0.276205 -0.422462 0)
(-0.233467 -0.4475 0)
(-0.18848 -0.468229 0)
(-0.141678 -0.484449 0)
(-0.0935114 -0.496003 0)
(-0.0444443 -0.50278 0)
(0.00505078 -0.504716 0)
(0.0544972 -0.50179 0)
(0.103419 -0.494032 0)
(0.151345 -0.481517 0)
(0.197813 -0.464364 0)
(0.242376 -0.442739 0)
(0.284605 -0.41685 0)
(0.324093 -0.386946 0)
(0.360459 -0.353316 0)
(0.393355 -0.316284 0)
(0.422462 -0.276205 0)
)
;
    }
    outlet
    {
        type            cellMotion;
        value           uniform (0 0 0);
    }
    inlet
    {
        type            cellMotion;
        value           uniform (0 0 0);
    }
    frontAndBack
    {
        type            empty;
    }
}


// ************************************************************************* //
