/*--------------------------------*- C++ -*----------------------------------*\
| =========                 |                                                 |
| \\      /  F ield         | OpenFOAM: The Open Source CFD Toolbox           |
|  \\    /   O peration     | Version:  2412                                  |
|   \\  /    A nd           | Website:  www.openfoam.com                      |
|    \\/     M anipulation  |                                                 |
\*---------------------------------------------------------------------------*/
FoamFile
{
    version     2.0;
    format      ascii;
    arch        "LSB;label=32;scalar=64";
    class       surfaceScalarField;
    location    "0.9";
    object      meshPhi;
}
// * * * * * * * * * * * * * * * * * * * * * * * * * * * * * * * * * * * * * //

dimensions      [0 3 -1 0 0 0 0];

internalField   nonuniform List<scalar> 
1984
(
0.000405022
-0.00141586
-0.000376763
0.00048707
-0.00180492
0.000562318
-0.0022417
0.000625023
-0.00256113
0.000681184
-0.00274927
0.000741303
-0.00276192
0.00082158
-0.00253458
0.000939387
-0.00203368
0.00106395
-0.00132587
0.0010997
-0.000573399
0.00106476
9.85847e-05
0.000981868
0.000607488
0.000882987
0.000940432
0.000762077
0.00110921
0.000534087
0.0010977
0.000930401
0.00034131
0.00128343
-0.00307125
-0.00121218
0.00157334
-0.00380596
0.00177306
-0.00458907
0.00191848
-0.00501893
0.00206574
-0.00519884
0.00222952
-0.00511719
0.00245426
-0.00464207
0.00276914
-0.00369874
0.00309292
-0.00240153
0.00319708
-0.00104192
0.0030944
0.000137118
0.00287743
0.00102729
0.00262084
0.00163578
0.0022798
0.00195683
0.00164395
0.00193713
0.00158321
0.00108213
0.0023479
-0.00497338
-0.00225655
0.00281897
-0.00589461
0.0031061
-0.00682075
0.00329355
-0.00729005
0.00348819
-0.0073988
0.00372336
-0.00715377
0.00405742
-0.00641612
0.00449326
-0.00507683
0.00495233
-0.00329491
0.0051179
-0.00147317
0.00495181
8.44623e-05
0.00467002
0.0012761
0.0043051
0.00209729
0.0037813
0.00253164
0.00284537
0.00251622
0.00204706
0.0020034
0.00363206
-0.00696979
-0.00355671
0.00417998
-0.00794651
0.00453459
-0.00889189
0.00475938
-0.00932974
0.00496994
-0.00929146
0.00524631
-0.00881706
0.00564014
-0.00779487
0.00611666
-0.00609835
0.00669581
-0.00393846
0.00692304
-0.0018066
0.006697
2.22837e-06
0.00639727
0.00141719
0.0059456
0.00239562
0.00527816
0.00289922
0.00413826
0.0028806
0.00237038
0.00317352
0.00511459
-0.00888675
-0.00507307
0.00569779
-0.00991694
0.00609003
-0.0108116
0.00633871
-0.0111451
0.00654719
-0.0109386
0.006832
-0.0102214
0.00722143
-0.00891025
0.00765135
-0.00688811
0.00825038
-0.00443968
0.00854341
-0.00212983
0.00835435
-0.000162837
0.00807595
0.00143411
0.007583
0.00254091
0.00681553
0.00309774
0.00554461
0.00308524
0.00258171
0.00458687
0.00678206
-0.0106125
-0.00677933
0.00741166
-0.0116535
0.00781189
-0.0124897
0.00805302
-0.0126813
0.00824307
-0.0122635
0.00849178
-0.0112891
0.00880767
-0.00970266
0.00912329
-0.00744489
0.00951324
-0.00482064
0.00984246
-0.00235962
0.00990054
-0.000286195
0.00969644
0.00137406
0.00922824
0.00253509
0.00842103
0.0031357
0.00709486
0.00315842
0.00269912
0.00622001
0.00868637
-0.0121379
-0.00873935
0.00933596
-0.013127
0.00971167
-0.0138238
0.00991753
-0.0138487
0.0100671
-0.0132485
0.0102274
-0.0120607
0.0104118
-0.0102502
0.0105974
-0.00784314
0.010744
-0.00512432
0.0110617
-0.002535
0.0113677
-0.000387716
0.0112712
0.00125118
0.0108588
0.00239796
0.010074
0.00302668
0.00880286
0.00311535
0.00275182
0.00809258
0.0109065
-0.0134661
-0.0110547
0.0114827
-0.0142708
0.0117856
-0.0147286
0.0119224
-0.014568
0.011989
-0.0138004
0.0120216
-0.012456
0.0120495
-0.010512
0.0121153
-0.00802821
0.0121924
-0.00527504
0.0124931
-0.00265508
0.0128633
-0.000519204
0.0128465
0.00105142
0.0124861
0.0021509
0.0117991
0.00281244
0.0107059
0.00300087
0.00277214
0.0102743
0.0134644
-0.0144094
-0.0137775
0.0138569
-0.0149743
0.0140178
-0.0151333
0.0140281
-0.0147596
0.0139668
-0.0138426
0.0138573
-0.0124122
0.0137376
-0.0104416
0.013681
-0.00797195
0.0137281
-0.00524556
0.0140504
-0.0026509
0.0144687
-0.000597685
0.0144949
0.000827754
0.0141844
0.00183892
0.013668
0.00252698
0.0128797
0.0028285
0.00275019
0.0128198
0.0163609
-0.0149167
-0.0169406
0.0164499
-0.0151858
0.0164118
-0.0150245
0.016238
-0.0144433
0.0159979
-0.0134054
0.0157374
-0.0119381
0.0154833
-0.0100324
0.0152942
-0.00770304
0.0152259
-0.00508517
0.0155264
-0.00257855
0.0160438
-0.000729697
0.0162051
0.000435243
0.0160265
0.00136563
0.0157728
0.00216323
0.0154262
0.00261987
0.00267066
0.0158055
0.0195936
-0.0148526
-0.0204746
0.0193009
-0.0149168
0.018971
-0.0144145
0.018545
-0.0135812
0.0180729
-0.0124133
0.0176243
-0.0109176
0.0172381
-0.00912463
0.016937
-0.00705678
0.0167519
-0.0047622
0.016904
-0.00256155
0.0174042
-0.000943733
0.0178397
0.000135707
0.0180498
0.00108037
0.0182211
0.00190934
0.018426
0.00240796
0.00248798
0.019315
0.0231299
-0.0138836
-0.0242687
0.0224185
-0.0138319
0.0216734
-0.0130486
0.0209181
-0.0119674
0.0201751
-0.0106814
0.0195067
-0.00920822
0.0189946
-0.00758787
0.0186394
-0.00585529
0.0184547
-0.00404557
0.0185153
-0.00231969
0.0189482
-0.000898919
0.0196635
0.000201253
0.0203997
0.00109824
0.0211034
0.00178505
0.0218952
0.00218433
0.00224465
0.0233006
0.0268596
-0.0116378
-0.0283095
0.025683
-0.0114798
0.0244512
-0.0105655
0.0232883
-0.00938531
0.022241
-0.0081117
0.0213708
-0.00679987
0.0207484
-0.00546857
0.020401
-0.00413845
0.0203215
-0.00282279
0.0205222
-0.00155926
0.0210893
-0.000433286
0.0220452
0.000488343
0.0231994
0.00119742
0.0244358
0.00170179
0.0257902
0.00199772
0.0020553
0.0276372
0.0306698
-0.00804879
-0.0325366
0.0289083
-0.0078114
0.0271312
-0.00692061
0.0255175
-0.00590062
0.0241632
-0.00488743
0.0231193
-0.00391883
0.0224205
-0.00299272
0.0221081
-0.00210647
0.0221683
-0.00125532
0.0226146
-0.000439088
0.0234595
0.000306822
0.0246889
0.000931294
0.0262222
0.00140561
0.027988
0.00174139
0.0299187
0.00195442
0.00200989
0.0321755
0.0339688
-0.00318931
-0.0363763
0.0314847
-0.00293504
0.0291824
-0.00243417
0.0272
-0.00191884
0.0256078
-0.00142898
0.024439
-0.000963871
0.0237166
-0.000523412
0.0234585
-0.000103548
0.0236685
0.000298751
0.0243461
0.00067713
0.0254713
0.00102039
0.0270106
0.00131769
0.0289315
0.00156102
0.0311805
0.00175157
0.0336434
0.00189093
0.00196253
0.0362505
0.0317414
-0.0347116
0.0289421
0.0265389
0.0245896
0.0231156
0.022133
0.0216449
0.0216425
0.0221103
0.0230199
0.0243279
0.0259829
0.0279319
0.0301081
0.0324062
0.0346938
0.000291371
-0.000998853
0.000347435
-0.00147887
0.000442457
-0.00211313
0.000552032
-0.00260426
0.000650737
-0.00288683
0.000737239
-0.00289733
0.000826776
-0.00262218
0.000940033
-0.00206895
0.00105199
-0.00131866
0.00107074
-0.000539668
0.00101512
0.000149316
0.000910814
0.000685241
0.000795637
0.00108093
0.000675896
0.00136374
0.000460086
0.00143528
0.00122781
0.000265594
0.000959556
-0.00228639
0.00118461
-0.003196
0.00143831
-0.00434383
0.00171195
-0.00509402
0.0019792
-0.00544649
0.00221725
-0.00537105
0.00246886
-0.00480942
0.00277208
-0.00375911
0.00306169
-0.00236889
0.00311819
-0.000949452
0.00295762
0.000266948
0.00268225
0.00121372
0.00237974
0.00193417
0.00203143
0.00242016
0.00141642
0.00250335
0.00213775
0.000869148
0.00185195
-0.00389904
0.00224336
-0.00507312
0.00261562
-0.00649559
0.00298835
-0.00740573
0.0033598
-0.00775681
0.00370682
-0.00753386
0.00408244
-0.00667839
0.00450326
-0.00517263
0.00491313
-0.00323575
0.00500765
-0.00130982
0.00475636
0.000317377
0.004389
0.00159978
0.00395455
0.0025665
0.00340506
0.00317836
0.00248082
0.00326128
0.00282965
0.00169271
0.00301391
-0.00568526
0.00349229
-0.00699227
0.00396074
-0.00852212
0.00440532
-0.00948789
0.00482443
-0.00975266
0.0052368
-0.00931814
0.005682
-0.00815116
0.0061422
-0.00622372
0.00666224
-0.00384048
0.00680288
-0.00155412
0.00647352
0.000359719
0.00606969
0.00189598
0.00553072
0.00304382
0.00481627
0.0037212
0.00367832
0.00378736
0.00335763
0.00280658
0.00444732
-0.00751526
0.00498269
-0.00892937
0.00550585
-0.0104494
0.0059877
-0.0113598
0.00641475
-0.011495
0.00684448
-0.0108299
0.00728965
-0.00934627
0.00770261
-0.00703143
0.00823632
-0.00429082
0.00843373
-0.00177333
0.00813128
0.000335492
0.00773984
0.00208379
0.00714878
0.0033734
0.00631705
0.00408946
0.00504386
0.00414521
0.00374203
0.00420364
0.00613253
-0.00922906
0.00675337
-0.0107165
0.00729032
-0.012195
0.00775391
-0.0129637
0.0081531
-0.0128914
0.00854153
-0.0119699
0.00891098
-0.0101838
0.00920783
-0.00757724
0.0095287
-0.0045967
0.00975899
-0.00187868
0.00970233
0.000368002
0.00938456
0.00219778
0.00881456
0.0035399
0.007936
0.00427862
0.00660699
0.00434508
0.00397932
0.0058525
0.00807385
-0.0107812
0.00878884
-0.0122702
0.0093043
-0.0136123
0.00970807
-0.0141861
0.0100427
-0.0139039
0.0103264
-0.012752
0.0105551
-0.010717
0.0107176
-0.00791316
0.0107934
-0.00478159
0.0110141
-0.00189921
0.0112104
0.000434678
0.0110049
0.00224218
0.0104938
0.00354953
0.0096399
0.00427909
0.00836993
0.00438126
0.00408751
0.00776237
0.0102958
-0.0120966
0.0110326
-0.0134543
0.0115059
-0.0145657
0.0118217
-0.0149197
0.0120429
-0.014426
0.0121749
-0.0130876
0.0122323
-0.0108963
0.0122678
-0.00798314
0.0122732
-0.00478399
0.0124825
-0.00185169
0.0127515
0.000470148
0.012632
0.00218485
0.0121808
0.00340023
0.0114364
0.00411448
0.0103518
0.00428148
0.00408335
0.00998791
0.0127838
-0.0130669
0.0134441
-0.0141814
0.0138345
-0.0149705
0.0140234
-0.0150583
0.0140933
-0.0143638
0.0140589
-0.0129117
0.0139526
-0.0106834
0.0138582
-0.00777809
0.0138299
-0.00458767
0.0140675
-0.00167508
0.0143947
0.000535493
0.0143275
0.0020582
0.0139385
0.00312598
0.0133812
0.00381154
0.0126055
0.00405309
0.0039599
0.0125671
0.015583
-0.0136804
0.0160262
-0.0144385
0.0162674
-0.0148177
0.0162861
-0.0146202
0.0161689
-0.0137532
0.0159713
-0.0122557
0.0157227
-0.0101129
0.0154864
-0.00737026
0.0153363
-0.0043065
0.0155584
-0.00149358
0.0159976
0.000489236
0.0160783
0.00169932
0.0158385
0.00262705
0.0155579
0.00337317
0.0152129
0.00373598
0.00374395
0.0155633
0.0188008
-0.013838
0.0188745
-0.0142484
0.0188342
-0.0141514
0.0186012
-0.0135981
0.0182521
-0.0125591
0.01787
-0.0110461
0.0174942
-0.00907738
0.017131
-0.00667126
0.0168629
-0.00398596
0.0169429
-0.00150809
0.0173793
0.000235419
0.017755
0.0013344
0.0179211
0.00224581
0.0180686
0.00300089
0.0182423
0.00339927
0.00344695
0.0190534
0.022463
-0.0131665
0.0220519
-0.0132965
0.0215447
-0.0127557
0.0209557
-0.0118471
0.0203322
-0.0106548
0.0197434
-0.0091995
0.0192441
-0.00748747
0.0188258
-0.00552504
0.0185602
-0.00341822
0.0185606
-0.00146087
0.0189446
7.5354e-05
0.0196268
0.00120501
0.0203293
0.00207717
0.0209963
0.00270363
0.0217164
0.00303955
0.00308757
0.0230216
0.0263947
-0.0112491
0.0254152
-0.0111265
0.0243387
-0.0103096
0.0232985
-0.00921278
0.022357
-0.00800279
0.0215703
-0.00673327
0.0209599
-0.00537708
0.0205644
-0.00392319
0.0204152
-0.00242844
0.020573
-0.00100428
0.0211124
0.000215639
0.0220474
0.00117905
0.0231781
0.00188682
0.0243632
0.00236416
0.0256299
0.00264353
0.00269642
0.0274006
0.0304024
-0.00793569
0.0287432
-0.00765601
0.0270493
-0.00677729
0.0255094
-0.00577891
0.0242341
-0.00479743
0.0232528
-0.00386024
0.0225694
-0.00293921
0.0222235
-0.00200892
0.0222454
-0.00107926
0.0226625
-0.000185642
0.023498
0.000615186
0.0247085
0.00127128
0.0262312
0.00175484
0.0279537
0.00208459
0.029822
0.00229824
0.00235502
0.0320441
0.033866
-0.00317975
0.0314176
-0.00290462
0.029146
-0.00239809
0.0271942
-0.00188336
0.0256407
-0.0014
0.0245023
-0.000944959
0.0237901
-0.000508849
0.0235178
-8.08834e-05
0.023717
0.000337952
0.0243803
0.000734948
0.0255025
0.00109348
0.0270333
0.00140032
0.0289513
0.00164786
0.0311836
0.00183736
0.0336242
0.00197647
0.00204956
0.0362249
0.0317263
0.0289313
0.0265326
0.0245888
0.0231222
0.0221462
0.0216598
0.0216563
0.0221224
0.0230301
0.0243373
0.025992
0.0279407
0.0301153
0.0324107
0.0346989
0.000248796
-0.000436195
0.000355371
-0.000970926
0.0004701
-0.00169839
0.000576343
-0.00232195
0.00066322
-0.00280093
0.000742459
-0.00305625
0.000829062
-0.00300552
0.000941411
-0.00257599
0.0010521
-0.00183197
0.00106924
-0.000997417
0.00101467
-0.000241661
0.000914218
0.000361158
0.000803734
0.000827836
0.000685088
0.00116797
0.000470707
0.00125857
0.00108308
0.000296784
0.0008454
-0.00128017
0.00118943
-0.00226946
0.00149713
-0.00355315
0.00176947
-0.00453746
0.002011
-0.00524929
0.00223073
-0.00560895
0.00247284
-0.00545154
0.00277084
-0.00463907
0.00305379
-0.0032849
0.00310387
-0.0017932
0.00294415
-0.000479013
0.00267766
0.000574969
0.00238783
0.00141347
0.00205144
0.00200679
0.00145938
0.00217003
0.00188466
0.000961242
0.0016964
-0.00257294
0.00222655
-0.00382063
0.00267012
-0.00539344
0.00305038
-0.00659529
0.00339645
-0.00741185
0.00372102
-0.0077636
0.00408195
-0.00745057
0.00448941
-0.00628396
0.00488314
-0.0044324
0.00496288
-0.0024468
0.00470692
-0.000718525
0.00434759
0.000681696
0.00393222
0.0017856
0.00341655
0.00254437
0.00255418
0.00277242
0.00246223
0.00182249
0.00283694
-0.00415866
0.00344804
-0.00551523
0.0039854
-0.00718321
0.00444486
-0.00845145
0.0048469
-0.00923201
0.0052405
-0.00945573
0.00567052
-0.00893087
0.00610811
-0.0074366
0.00660058
-0.00520662
0.00671429
-0.0029015
0.00636904
-0.000911603
0.00596751
0.000730032
0.00545265
0.00201695
0.00479573
0.00286741
0.00374919
0.00312918
0.00285227
0.0029288
0.00426179
-0.00589478
0.00490852
-0.00732342
0.00548256
-0.00895517
0.00598076
-0.0101381
0.00640123
-0.0107793
0.006824
-0.0107957
0.00725956
-0.0100145
0.00764421
-0.00821646
0.00813882
-0.0057145
0.00829407
-0.00324336
0.00796015
-0.00109809
0.00755974
0.000724348
0.00699336
0.00213447
0.00623496
0.00303269
0.0050641
0.00331427
0.00308861
0.00426761
0.00594258
-0.00760394
0.00664226
-0.00906956
0.00720357
-0.0106184
0.0076771
-0.0115962
0.00807979
-0.0119645
0.00848093
-0.0116918
0.00885538
-0.0106341
0.00912609
-0.00862216
0.00939931
-0.00597698
0.00957084
-0.00338488
0.00946342
-0.00115895
0.00912047
0.000703403
0.0085688
0.00214227
0.00776317
0.00305801
0.00653063
0.00336524
0.00319779
0.0058161
0.00787273
-0.00922336
0.00862789
-0.0106529
0.00913956
-0.0120166
0.00954055
-0.012712
0.00988695
-0.0127598
0.0102084
-0.0121727
0.0104684
-0.01086
0.0106174
-0.00872639
0.0106426
-0.00603973
0.0107887
-0.00337379
0.0109139
-0.00111647
0.0106652
0.000684819
0.0101582
0.00206429
0.00936053
0.00296304
0.00816533
0.00330632
0.00322059
0.00759957
0.0100711
-0.0106583
0.0108089
-0.0119283
0.0112508
-0.0130067
0.011549
-0.0133799
0.011788
-0.013077
0.0119865
-0.0121849
0.0121116
-0.010687
0.0121585
-0.00851008
0.0121176
-0.00586181
0.0122407
-0.0032333
0.0124214
-0.00104247
0.0122412
0.000637708
0.011773
0.00191399
0.011054
0.00278935
0.0100127
0.00319003
0.00320548
0.0096988
0.0125238
-0.011779
0.0131488
-0.0127823
0.0134835
-0.0134889
0.0136435
-0.0135016
0.013735
-0.0128563
0.0137964
-0.0117015
0.0137994
-0.0101053
0.0137493
-0.00798629
0.0136902
-0.00545215
0.0138375
-0.0029329
0.0140644
-0.00088888
0.013921
0.000593722
0.0134905
0.00172671
0.0129224
0.0025725
0.0121613
0.00303793
0.00315888
0.0121851
0.0152778
-0.012529
0.0156584
-0.0131683
0.015833
-0.0134391
0.0158165
-0.0131063
0.0157221
-0.0121633
0.0156402
-0.0108221
0.0155383
-0.00921931
0.0153842
-0.00726321
0.0152293
-0.00492373
0.0153675
-0.00257275
0.0157015
-0.000786103
0.0156958
0.000393079
0.0153912
0.00139684
0.0150714
0.00230021
0.0147275
0.00287242
0.00307535
0.0151509
0.018452
-0.0127902
0.0184522
-0.0131053
0.0183548
-0.012913
0.0180823
-0.0122161
0.0177467
-0.0110304
0.0174844
-0.00957172
0.0172735
-0.00801358
0.0170372
-0.00629887
0.0167939
-0.00431911
0.0168096
-0.00231769
0.0171477
-0.000795749
0.0174315
0.000267524
0.0175216
0.0012495
0.0176179
0.00214167
0.0177967
0.00271637
0.00290874
0.018685
0.0221039
-0.0122578
0.0216327
-0.0123377
0.0210868
-0.0117517
0.0204447
-0.0107246
0.0198166
-0.00937932
0.0193263
-0.00790557
0.0189929
-0.00645519
0.0187281
-0.00501311
0.0185207
-0.00348156
0.018483
-0.00194739
0.0187907
-0.000625924
0.0193845
0.000444896
0.0200165
0.00135573
0.0206382
0.00207956
0.0213691
0.00253274
0.00267898
0.0227288
0.0260999
-0.0105939
0.0250915
-0.0104674
0.0239778
-0.00964317
0.0228696
-0.00846399
0.0219016
-0.00713388
0.0211731
-0.00581433
0.0207092
-0.00459081
0.0204573
-0.00345131
0.020385
-0.00232669
0.0205309
-0.00120228
0.0210179
-0.000152941
0.0218885
0.000741254
0.0229581
0.00145551
0.0241097
0.0019873
0.0253761
0.00232926
0.00245263
0.0271487
0.0302444
-0.00760283
0.0285766
-0.0073389
0.0268407
-0.00646435
0.0252363
-0.00542839
0.0239162
-0.00437994
0.0229612
-0.00340179
0.0223708
-0.00252337
0.0221304
-0.00172463
0.0222086
-0.000965182
0.0226327
-0.000218159
0.0234345
0.000488523
0.0246115
0.00109936
0.0260853
0.00157889
0.0277806
0.0019346
0.0296274
0.00218038
0.00227534
0.0318141
0.0338359
-0.00309793
0.0313822
-0.00282892
0.0290823
-0.00232699
0.0270889
-0.00180449
0.0255017
-0.00130267
0.0243691
-0.000833462
0.0236925
-0.000402568
0.0234674
-2.50409e-06
0.0236878
0.000378241
0.0243572
0.000740265
0.0254638
0.00107453
0.0269791
0.00136942
0.028871
0.00161584
0.0310836
0.00181353
0.033502
0.00196341
0.00204607
0.0360727
0.03173
0.0289329
0.0265267
0.0245717
0.023097
0.02212
0.0216405
0.0216446
0.0221147
0.0230227
0.024327
0.0259774
0.0279207
0.0300899
0.0323799
0.0346601
0.000279272
-0.000653959
0.000346621
-0.00106244
0.0004288
-0.00158315
0.000524619
-0.00192648
0.000680248
-0.00208875
0.000837167
-0.00211603
0.000933482
-0.00194734
0.0010288
-0.00157578
0.00113626
-0.00106269
0.00120518
-0.000450273
0.0011975
0.000151303
0.00110409
0.000597496
0.00093193
0.000811733
0.000713537
0.000818333
0.000484292
0.00070331
0.000591932
0.000923012
-0.00165862
0.00117819
-0.00245259
0.00140581
-0.0034133
0.00164969
-0.00391947
0.00206209
-0.00406646
0.00248227
-0.0039929
0.00276125
-0.003609
0.00302296
-0.00288642
0.00330203
-0.00192484
0.00346952
-0.000841212
0.00342409
0.0001735
0.00318161
0.00092987
0.00274535
0.00133288
0.00218222
0.00141153
0.00155666
0.00126576
0.00102194
0.00179092
-0.00303757
0.00223248
-0.0040697
0.00258791
-0.00528333
0.00294261
-0.00591345
0.00349632
-0.00599868
0.00407371
-0.00572557
0.00450176
-0.00507706
0.00487869
-0.00401222
0.00527555
-0.00265483
0.00549042
-0.00122006
0.0053785
7.03957e-05
0.00505205
0.00104807
0.00446702
0.0016103
0.00370913
0.00178685
0.00281759
0.00167272
0.00135657
0.00291771
-0.00464184
0.00347193
-0.00579992
0.00395197
-0.00712947
0.00440735
-0.00780641
0.00500663
-0.00776589
0.00564867
-0.00722713
0.00616711
-0.00627151
0.00659686
-0.00486398
0.00710686
-0.00317322
0.00735114
-0.00151089
0.00715345
-5.87013e-05
0.00679353
0.00107385
0.00614207
0.00176658
0.00529731
0.00203121
0.00423561
0.00194643
0.0015924
0.00430021
-0.00634211
0.00493965
-0.00761091
0.00550945
-0.00895011
0.0060291
-0.00957226
0.0066165
-0.00937948
0.00724985
-0.00857025
0.00778265
-0.00729165
0.00819014
-0.00554614
0.00872484
-0.00357265
0.00900495
-0.00177432
0.00881528
-0.000236804
0.0084824
0.00102165
0.00785257
0.00183343
0.0069853
0.00217372
0.00579904
0.00211618
0.00173893
0.00591717
-0.00797912
0.00666807
-0.00933268
0.0072823
-0.0106487
0.00780521
-0.0111381
0.00833935
-0.0107397
0.00889613
-0.00965621
0.00936328
-0.00806746
0.00968786
-0.00604871
0.0100303
-0.00387455
0.0103325
-0.00193777
0.0103746
-0.000336101
0.0101445
0.000946013
0.00962168
0.00180502
0.00877999
0.00220881
0.00751412
0.00219565
0.00182627
0.00777535
-0.00950973
0.00863989
-0.0108721
0.00925744
-0.0120698
0.00973414
-0.0123886
0.0101751
-0.0117988
0.0105931
-0.0104816
0.0109294
-0.00863468
0.0111577
-0.00641662
0.0112848
-0.004092
0.0115825
-0.00200197
0.011886
-0.000345139
0.0118111
0.000880631
0.0114258
0.00170923
0.0106418
0.00214493
0.00939506
0.00220803
0.00192927
0.00990786
-0.0108552
0.0108037
-0.0120915
0.0113953
-0.0130794
0.0117885
-0.0132099
0.0120892
-0.01244
0.0123297
-0.0109513
0.0125072
-0.00894194
0.0126473
-0.00658595
0.012745
-0.00415319
0.0130619
-0.00199263
0.0134673
-0.000349121
0.0135255
0.000789801
0.0132359
0.00155828
0.0125591
0.00202168
0.0114931
0.00218997
0.00202734
0.0123149
-0.011906
0.0131297
-0.0129029
0.0136429
-0.0135849
0.0139069
-0.0134858
0.0140364
-0.01256
0.014096
-0.010986
0.0141229
-0.0089315
0.0141714
-0.00653155
0.0142867
-0.004037
0.0146768
-0.00183062
0.0151768
-0.00023797
0.0153071
0.000767387
0.0150727
0.001442
0.0145972
0.00192136
0.0138715
0.00218905
0.00215192
0.015058
-0.0126371
0.0156355
-0.0132798
0.0159911
-0.0135664
0.0160783
-0.0132203
0.0160117
-0.0121748
0.0159035
-0.0105956
0.0158001
-0.00861678
0.0157418
-0.00630979
0.0157866
-0.00384174
0.0161999
-0.00162521
0.0168327
-0.000154993
0.0170918
0.000637652
0.0169979
0.00125386
0.0168384
0.00182194
0.016594
0.00218837
0.00222966
0.0182546
-0.0129258
0.0184311
-0.0132312
0.0184862
-0.0130604
0.0183152
-0.0124001
0.0180184
-0.0112457
0.0177284
-0.00970212
0.0175054
-0.00788663
0.0173422
-0.00583393
0.0172911
-0.0036168
0.0175719
-0.00159853
0.01818
-0.000227726
0.018706
0.000573123
0.0190197
0.0012296
0.0193379
0.00179211
0.0196501
0.00211195
0.0021141
0.0219336
-0.012392
0.0215943
-0.0124478
0.0211597
-0.0118648
0.0206273
-0.0108979
0.0200624
-0.00965556
0.0195696
-0.0082158
0.0192173
-0.00663604
0.0189884
-0.00493075
0.018916
-0.00314759
0.0190836
-0.00149179
0.0195915
-0.000190221
0.0203871
0.0007477
0.0212489
0.00140719
0.0221155
0.00181639
0.0229642
0.00201935
0.00196873
0.025926
-0.0106517
0.0249978
-0.0104998
0.0239745
-0.00967729
0.0229845
-0.00856702
0.0221039
-0.00735499
0.0214041
-0.00612089
0.0209132
-0.00485947
0.0206604
-0.0035596
0.0206503
-0.00224858
0.0209071
-0.000981067
0.0215139
0.000134585
0.02253
0.00100326
0.0238176
0.00157164
0.0251862
0.00187148
0.0265467
0.00201702
0.00195572
0.0300541
-0.00758739
0.0284325
-0.00730779
0.0267764
-0.00644174
0.025276
-0.00545335
0.0240486
-0.00448616
0.023127
-0.00357617
0.0225182
-0.00270233
0.0222549
-0.00184011
0.0223489
-0.000983627
0.0228065
-0.00014581
0.0236629
0.000630216
0.0249312
0.0012592
0.0265618
0.0016828
0.0284203
0.0019236
0.0303272
0.00205753
0.00204528
0.0336959
-0.00308244
0.0312677
-0.00281066
0.0290153
-0.0023107
0.0270835
-0.00180188
0.0255526
-0.00132472
0.0244399
-0.000877899
0.0237573
-0.000453005
0.0235165
-3.95708e-05
0.0237389
0.000363863
0.0244141
0.000750187
0.0255363
0.00110674
0.0270921
0.00141196
0.0290561
0.00164603
0.0313479
0.00181495
0.0337876
0.00193606
0.00198829
0.0316935
0.0289018
0.0265065
0.0245662
0.0231037
0.0221323
0.021651
0.0216526
0.0221226
0.0230317
0.024338
0.0259961
0.0279533
0.0301353
0.0324282
)
;

boundaryField
{
    walls
    {
        type            calculated;
        value           uniform 0;
    }
    cylinder
    {
        type            calculated;
        value           nonuniform List<scalar> 
64
(
5.83515e-12
-1.15331e-11
-7.44862e-12
1.02774e-11
-3.65136e-12
2.00446e-12
6.04672e-12
-4.92786e-12
4.9233e-12
-6.05114e-12
-2.0079e-12
3.64855e-12
-1.02809e-11
7.44463e-12
1.15296e-11
-5.83909e-12
5.83515e-12
-1.15331e-11
-7.44862e-12
1.02774e-11
-3.65136e-12
2.00446e-12
6.04672e-12
-4.92786e-12
4.9233e-12
-6.05114e-12
-2.0079e-12
3.64855e-12
-1.02809e-11
7.44463e-12
1.15296e-11
-5.83909e-12
5.83515e-12
-1.15331e-11
-7.44862e-12
1.02774e-11
-3.65136e-12
2.00446e-12
6.04672e-12
-4.92786e-12
4.9233e-12
-6.05114e-12
-2.0079e-12
3.64855e-12
-1.02809e-11
7.44463e-12
1.15296e-11
-5.83909e-12
5.83515e-12
-1.15331e-11
-7.44862e-12
1.02774e-11
-3.65136e-12
2.00446e-12
6.04672e-12
-4.92786e-12
4.9233e-12
-6.05114e-12
-2.0079e-12
3.64855e-12
-1.02809e-11
7.44463e-12
1.15296e-11
-5.83909e-12
)
;
    }
    outlet
    {
        type            calculated;
        value           uniform 0;
    }
    inlet
    {
        type            calculated;
        value           uniform 0;
    }
    frontAndBack
    {
        type            empty;
    }
}


// ************************************************************************* //
