/*--------------------------------*- C++ -*----------------------------------*\
| =========                 |                                                 |
| \\      /  F ield         | OpenFOAM: The Open Source CFD Toolbox           |
|  \\    /   O peration     | Version:  2412                                  |
|   \\  /    A nd           | Website:  www.openfoam.com                      |
|    \\/     M anipulation  |                                                 |
\*---------------------------------------------------------------------------*/
FoamFile
{
    version     2.0;
    format      ascii;
    arch        "LSB;label=32;scalar=64";
    class       pointVectorField;
    location    "0.9";
    object      pointDisplacement;
}
// * * * * * * * * * * * * * * * * * * * * * * * * * * * * * * * * * * * * * //

dimensions      [0 1 0 0 0 0 0];

internalField   nonuniform List<vector> 
2176
(
(0 0 0)
(0 0 0)
(0 0 0)
(0 0 0)
(0 0 0)
(0 0 0)
(0 0 0)
(0 0 0)
(0 0 0)
(0 0 0)
(0 0 0)
(0 0 0)
(0 0 0)
(0 0 0)
(0 0 0)
(0 0 0)
(0 0 0)
(0.00593061 -0.00868364 0)
(0.00804309 -0.0112967 0)
(0.0122842 -0.0155157 0)
(0.0169324 -0.0183264 0)
(0.0220959 -0.0196053 0)
(0.0276696 -0.0191936 0)
(0.0332912 -0.0169663 0)
(0.0383412 -0.0129513 0)
(0.0420703 -0.00747539 0)
(0.0436592 -0.00122314 0)
(0.0425973 0.00482035 0)
(0.0390111 0.00961664 0)
(0.0334694 0.0124156 0)
(0.0267793 0.0129475 0)
(0.0196367 0.0113653 0)
(0.0124621 0.00810002 0)
(0.00868765 0.00592034 0)
(0.0150037 -0.0218736 0)
(0.019137 -0.0261846 0)
(0.0274113 -0.0333246 0)
(0.0364904 -0.0377222 0)
(0.0464808 -0.0391905 0)
(0.0570793 -0.0374646 0)
(0.0675256 -0.032382 0)
(0.0766905 -0.0241168 0)
(0.083196 -0.0133707 0)
(0.085706 -0.00144657 0)
(0.0835643 0.00990935 0)
(0.0770529 0.018976 0)
(0.067151 0.024542 0)
(0.0551558 0.0261403 0)
(0.0421982 0.023952 0)
(0.0289804 0.0185845 0)
(0.0218799 0.0149756 0)
(0.0268553 -0.0388284 0)
(0.0330035 -0.0439646 0)
(0.0450531 -0.0527153 0)
(0.0582752 -0.0575408 0)
(0.0726694 -0.0582156 0)
(0.0876647 -0.0544108 0)
(0.102109 -0.0460046 0)
(0.114436 -0.0333889 0)
(0.122804 -0.0176624 0)
(0.125655 -0.000661644 0)
(0.122402 0.0153271 0)
(0.113533 0.0281799 0)
(0.100317 0.0364354 0)
(0.0842781 0.0394826 0)
(0.0668126 0.0374859 0)
(0.0488053 0.0310984 0)
(0.0388354 0.0268034 0)
(0.0413396 -0.0590151 0)
(0.0495633 -0.0641602 0)
(0.0651524 -0.0732854 0)
(0.0822093 -0.0774631 0)
(0.100543 -0.0764468 0)
(0.11928 -0.0698926 0)
(0.136925 -0.0577972 0)
(0.151517 -0.0408014 0)
(0.160955 -0.0203891 0)
(0.163722 0.0011647 0)
(0.159384 0.0212409 0)
(0.148638 0.0375086 0)
(0.132921 0.0483786 0)
(0.113866 0.0531591 0)
(0.0930309 0.0519919 0)
(0.071392 0.0455125 0)
(0.0590222 0.0412597 0)
(0.0583646 -0.0818589 0)
(0.0687677 -0.086266 0)
(0.0876631 -0.0946058 0)
(0.108215 -0.0971354 0)
(0.129989 -0.0936219 0)
(0.151799 -0.0837497 0)
(0.171844 -0.0676821 0)
(0.187877 -0.0463349 0)
(0.197742 -0.0215399 0)
(0.200097 0.00411654 0)
(0.194729 0.0278437 0)
(0.182486 0.047229 0)
(0.16489 0.0606446 0)
(0.143675 0.0673901 0)
(0.120443 0.0675697 0)
(0.0961961 0.0617806 0)
(0.0818674 0.0582538 0)
(0.0779036 -0.106757 0)
(0.0906095 -0.109744 0)
(0.112582 -0.116234 0)
(0.136258 -0.116202 0)
(0.160932 -0.109466 0)
(0.185126 -0.0957933 0)
(0.206768 -0.0755444 0)
(0.223488 -0.0499205 0)
(0.233255 -0.0210431 0)
(0.234952 0.00832855 0)
(0.228588 0.035346 0)
(0.215125 0.0576045 0)
(0.196156 0.0735199 0)
(0.173468 0.0824194 0)
(0.148639 0.0843647 0)
(0.122667 0.0799349 0)
(0.106768 0.07776 0)
(0.100007 -0.133075 0)
(0.115123 -0.133999 0)
(0.139927 -0.137664 0)
(0.166326 -0.134253 0)
(0.193313 -0.123653 0)
(0.219155 -0.105774 0)
(0.241614 -0.081211 0)
(0.258365 -0.0514338 0)
(0.267597 -0.0187604 0)
(0.268437 0.0139857 0)
(0.26107 0.0439845 0)
(0.246587 0.0689238 0)
(0.226647 0.087317 0)
(0.203015 0.0985277 0)
(0.177225 0.102596 0)
(0.150256 0.100098 0)
(0.133086 0.0998266 0)
(0.124804 -0.16014 0)
(0.142398 -0.158371 0)
(0.169736 -0.158298 0)
(0.198385 -0.150761 0)
(0.227039 -0.135747 0)
(0.253774 -0.113353 0)
(0.276327 -0.08443 0)
(0.292536 -0.0506648 0)
(0.300847 -0.0144777 0)
(0.300622 0.0213257 0)
(0.292229 0.0540408 0)
(0.276887 0.0815155 0)
(0.256264 0.102384 0)
(0.232079 0.116056 0)
(0.205817 0.122564 0)
(0.178403 0.122484 0)
(0.16015 0.124588 0)
(0.152534 -0.187209 0)
(0.172611 -0.182119 0)
(0.202105 -0.177451 0)
(0.23244 -0.165105 0)
(0.262055 -0.145213 0)
(0.288934 -0.118101 0)
(0.310899 -0.0848525 0)
(0.326018 -0.0473048 0)
(0.333013 -0.00790296 0)
(0.331504 0.0306559 0)
(0.322062 0.0658646 0)
(0.305971 0.0957678 0)
(0.284861 0.119128 0)
(0.260381 0.135406 0)
(0.233967 0.144637 0)
(0.206493 0.147407 0)
(0.187219 0.152292 0)
(0.183566 -0.213419 0)
(0.206036 -0.204354 0)
(0.237221 -0.194288 0)
(0.268593 -0.176526 0)
(0.298397 -0.151392 0)
(0.324624 -0.11945 0)
(0.345283 -0.0819896 0)
(0.358734 -0.0409305 0)
(0.364014 0.0013605 0)
(0.361033 0.0423922 0)
(0.35051 0.0799078 0)
(0.333719 0.11216 0)
(0.312213 0.138042 0)
(0.287557 0.157072 0)
(0.26114 0.169293 0)
(0.233799 0.175312 0)
(0.213429 0.183319 0)
(0.218416 -0.23766 0)
(0.243102 -0.223935 0)
(0.275382 -0.207705 0)
(0.306992 -0.183989 0)
(0.336083 -0.15336 0)
(0.360759 -0.116614 0)
(0.379322 -0.0751742 0)
(0.390516 -0.0309516 0)
(0.393723 0.0138763 0)
(0.389085 0.0571003 0)
(0.377392 0.0967411 0)
(0.359871 0.131274 0)
(0.337965 0.159732 0)
(0.313117 0.181689 0)
(0.286645 0.197174 0)
(0.25939 0.206799 0)
(0.237674 0.2182 0)
(0.257843 -0.258376 0)
(0.284391 -0.239211 0)
(0.316931 -0.216103 0)
(0.34773 -0.186027 0)
(0.374985 -0.149831 0)
(0.397074 -0.1085 0)
(0.412706 -0.0634751 0)
(0.421046 -0.0165444 0)
(0.421806 0.0303865 0)
(0.415277 0.0754595 0)
(0.402259 0.117019 0)
(0.383889 0.15378 0)
(0.361461 0.184909 0)
(0.336269 0.210011 0)
(0.309507 0.22907 0)
(0.281992 0.242676 0)
(0.258391 0.257684 0)
(0.302784 -0.273194 0)
(0.330531 -0.24764 0)
(0.362068 -0.217051 0)
(0.390601 -0.180485 0)
(0.414602 -0.138995 0)
(0.432922 -0.0936351 0)
(0.444736 -0.0457163 0)
(0.449607 0.00325245 0)
(0.447515 0.0517278 0)
(0.43883 0.0982484 0)
(0.42428 0.141506 0)
(0.404827 0.180454 0)
(0.381571 0.214378 0)
(0.355638 0.242881 0)
(0.328077 0.265897 0)
(0.29961 0.283936 0)
(0.273206 0.302691 0)
(0.353952 -0.278249 0)
(0.381699 -0.245281 0)
(0.410194 -0.207087 0)
(0.434386 -0.164563 0)
(0.453382 -0.118698 0)
(0.466617 -0.0703908 0)
(0.473726 -0.0206626 0)
(0.474577 0.0293855 0)
(0.469289 0.0786465 0)
(0.458205 0.126068 0)
(0.441875 0.17069 0)
(0.421017 0.211707 0)
(0.396454 0.248519 0)
(0.369068 0.280737 0)
(0.339712 0.308228 0)
(0.30898 0.331305 0)
(0.278257 0.353911 0)
(0.408152 -0.266273 0)
(0.433314 -0.22579 0)
(0.455688 -0.181875 0)
(0.473308 -0.135516 0)
(0.485876 -0.0873595 0)
(0.493214 -0.0380113 0)
(0.495225 0.0118708 0)
(0.491906 0.0616079 0)
(0.483353 0.110525 0)
(0.469763 0.157966 0)
(0.451426 0.203315 0)
(0.428723 0.246012 0)
(0.4021 0.285577 0)
(0.372055 0.321626 0)
(0.339102 0.353891 0)
(0.303668 0.382299 0)
(0.266276 0.408142 0)
(0.436031 -0.255451 0)
(0.45897 -0.211483 0)
(0.477489 -0.165477 0)
(0.491409 -0.117878 0)
(0.500597 -0.0691443 0)
(0.504964 -0.0197443 0)
(0.504468 0.0298459 0)
(0.499113 0.0791486 0)
(0.488952 0.127689 0)
(0.474082 0.175 0)
(0.454646 0.220625 0)
(0.430831 0.264126 0)
(0.402868 0.305083 0)
(0.371025 0.343102 0)
(0.335608 0.377817 0)
(0.29696 0.408893 0)
(0.255451 0.436031 0)
(0 0 0)
(0 0 0)
(0 0 0)
(0 0 0)
(0 0 0)
(0 0 0)
(0 0 0)
(0 0 0)
(0 0 0)
(0 0 0)
(0 0 0)
(0 0 0)
(0 0 0)
(0 0 0)
(0 0 0)
(0 0 0)
(0 0 0)
(0.00593061 -0.00868364 0)
(0.00804309 -0.0112967 0)
(0.0122842 -0.0155157 0)
(0.0169324 -0.0183264 0)
(0.0220959 -0.0196053 0)
(0.0276696 -0.0191936 0)
(0.0332912 -0.0169663 0)
(0.0383412 -0.0129513 0)
(0.0420703 -0.00747539 0)
(0.0436592 -0.00122314 0)
(0.0425973 0.00482035 0)
(0.0390111 0.00961664 0)
(0.0334694 0.0124156 0)
(0.0267793 0.0129475 0)
(0.0196367 0.0113653 0)
(0.0124621 0.00810002 0)
(0.00868765 0.00592034 0)
(0.0150037 -0.0218736 0)
(0.019137 -0.0261846 0)
(0.0274113 -0.0333246 0)
(0.0364904 -0.0377222 0)
(0.0464808 -0.0391905 0)
(0.0570793 -0.0374646 0)
(0.0675256 -0.032382 0)
(0.0766905 -0.0241168 0)
(0.083196 -0.0133707 0)
(0.085706 -0.00144657 0)
(0.0835643 0.00990935 0)
(0.0770529 0.018976 0)
(0.067151 0.024542 0)
(0.0551558 0.0261403 0)
(0.0421982 0.023952 0)
(0.0289804 0.0185845 0)
(0.0218799 0.0149756 0)
(0.0268553 -0.0388284 0)
(0.0330035 -0.0439646 0)
(0.0450531 -0.0527153 0)
(0.0582752 -0.0575408 0)
(0.0726694 -0.0582156 0)
(0.0876647 -0.0544108 0)
(0.102109 -0.0460046 0)
(0.114436 -0.0333889 0)
(0.122804 -0.0176624 0)
(0.125655 -0.000661644 0)
(0.122402 0.0153271 0)
(0.113533 0.0281799 0)
(0.100317 0.0364354 0)
(0.0842781 0.0394826 0)
(0.0668126 0.0374859 0)
(0.0488053 0.0310984 0)
(0.0388354 0.0268034 0)
(0.0413396 -0.0590151 0)
(0.0495633 -0.0641602 0)
(0.0651524 -0.0732854 0)
(0.0822093 -0.0774631 0)
(0.100543 -0.0764468 0)
(0.11928 -0.0698926 0)
(0.136925 -0.0577972 0)
(0.151517 -0.0408014 0)
(0.160955 -0.0203891 0)
(0.163722 0.0011647 0)
(0.159384 0.0212409 0)
(0.148638 0.0375086 0)
(0.132921 0.0483786 0)
(0.113866 0.0531591 0)
(0.0930309 0.0519919 0)
(0.071392 0.0455125 0)
(0.0590222 0.0412597 0)
(0.0583646 -0.0818589 0)
(0.0687677 -0.086266 0)
(0.0876631 -0.0946058 0)
(0.108215 -0.0971354 0)
(0.129989 -0.0936219 0)
(0.151799 -0.0837497 0)
(0.171844 -0.0676821 0)
(0.187877 -0.0463349 0)
(0.197742 -0.0215399 0)
(0.200097 0.00411654 0)
(0.194729 0.0278437 0)
(0.182486 0.047229 0)
(0.16489 0.0606446 0)
(0.143675 0.0673901 0)
(0.120443 0.0675697 0)
(0.0961961 0.0617806 0)
(0.0818674 0.0582538 0)
(0.0779036 -0.106757 0)
(0.0906095 -0.109744 0)
(0.112582 -0.116234 0)
(0.136258 -0.116202 0)
(0.160932 -0.109466 0)
(0.185126 -0.0957933 0)
(0.206768 -0.0755444 0)
(0.223488 -0.0499205 0)
(0.233255 -0.0210431 0)
(0.234952 0.00832855 0)
(0.228588 0.035346 0)
(0.215125 0.0576045 0)
(0.196156 0.0735199 0)
(0.173468 0.0824194 0)
(0.148639 0.0843647 0)
(0.122667 0.0799349 0)
(0.106768 0.07776 0)
(0.100007 -0.133075 0)
(0.115123 -0.133999 0)
(0.139927 -0.137664 0)
(0.166326 -0.134253 0)
(0.193313 -0.123653 0)
(0.219155 -0.105774 0)
(0.241614 -0.081211 0)
(0.258365 -0.0514338 0)
(0.267597 -0.0187604 0)
(0.268437 0.0139857 0)
(0.26107 0.0439845 0)
(0.246587 0.0689238 0)
(0.226647 0.087317 0)
(0.203015 0.0985277 0)
(0.177225 0.102596 0)
(0.150256 0.100098 0)
(0.133086 0.0998266 0)
(0.124804 -0.16014 0)
(0.142398 -0.158371 0)
(0.169736 -0.158298 0)
(0.198385 -0.150761 0)
(0.227039 -0.135747 0)
(0.253774 -0.113353 0)
(0.276327 -0.08443 0)
(0.292536 -0.0506648 0)
(0.300847 -0.0144777 0)
(0.300622 0.0213257 0)
(0.292229 0.0540408 0)
(0.276887 0.0815155 0)
(0.256264 0.102384 0)
(0.232079 0.116056 0)
(0.205817 0.122564 0)
(0.178403 0.122484 0)
(0.16015 0.124588 0)
(0.152534 -0.187209 0)
(0.172611 -0.182119 0)
(0.202105 -0.177451 0)
(0.23244 -0.165105 0)
(0.262055 -0.145213 0)
(0.288934 -0.118101 0)
(0.310899 -0.0848525 0)
(0.326018 -0.0473048 0)
(0.333013 -0.00790296 0)
(0.331504 0.0306559 0)
(0.322062 0.0658646 0)
(0.305971 0.0957678 0)
(0.284861 0.119128 0)
(0.260381 0.135406 0)
(0.233967 0.144637 0)
(0.206493 0.147407 0)
(0.187219 0.152292 0)
(0.183566 -0.213419 0)
(0.206036 -0.204354 0)
(0.237221 -0.194288 0)
(0.268593 -0.176526 0)
(0.298397 -0.151392 0)
(0.324624 -0.11945 0)
(0.345283 -0.0819896 0)
(0.358734 -0.0409305 0)
(0.364014 0.0013605 0)
(0.361033 0.0423922 0)
(0.35051 0.0799078 0)
(0.333719 0.11216 0)
(0.312213 0.138042 0)
(0.287557 0.157072 0)
(0.26114 0.169293 0)
(0.233799 0.175312 0)
(0.213429 0.183319 0)
(0.218416 -0.23766 0)
(0.243102 -0.223935 0)
(0.275382 -0.207705 0)
(0.306992 -0.183989 0)
(0.336083 -0.15336 0)
(0.360759 -0.116614 0)
(0.379322 -0.0751742 0)
(0.390516 -0.0309516 0)
(0.393723 0.0138763 0)
(0.389085 0.0571003 0)
(0.377392 0.0967411 0)
(0.359871 0.131274 0)
(0.337965 0.159732 0)
(0.313117 0.181689 0)
(0.286645 0.197174 0)
(0.25939 0.206799 0)
(0.237674 0.2182 0)
(0.257843 -0.258376 0)
(0.284391 -0.239211 0)
(0.316931 -0.216103 0)
(0.34773 -0.186027 0)
(0.374985 -0.149831 0)
(0.397074 -0.1085 0)
(0.412706 -0.0634751 0)
(0.421046 -0.0165444 0)
(0.421806 0.0303865 0)
(0.415277 0.0754595 0)
(0.402259 0.117019 0)
(0.383889 0.15378 0)
(0.361461 0.184909 0)
(0.336269 0.210011 0)
(0.309507 0.22907 0)
(0.281992 0.242676 0)
(0.258391 0.257684 0)
(0.302784 -0.273194 0)
(0.330531 -0.24764 0)
(0.362068 -0.217051 0)
(0.390601 -0.180485 0)
(0.414602 -0.138995 0)
(0.432922 -0.0936351 0)
(0.444736 -0.0457163 0)
(0.449607 0.00325245 0)
(0.447515 0.0517278 0)
(0.43883 0.0982484 0)
(0.42428 0.141506 0)
(0.404827 0.180454 0)
(0.381571 0.214378 0)
(0.355638 0.242881 0)
(0.328077 0.265897 0)
(0.29961 0.283936 0)
(0.273206 0.302691 0)
(0.353952 -0.278249 0)
(0.381699 -0.245281 0)
(0.410194 -0.207087 0)
(0.434386 -0.164563 0)
(0.453382 -0.118698 0)
(0.466617 -0.0703908 0)
(0.473726 -0.0206626 0)
(0.474577 0.0293855 0)
(0.469289 0.0786465 0)
(0.458205 0.126068 0)
(0.441875 0.17069 0)
(0.421017 0.211707 0)
(0.396454 0.248519 0)
(0.369068 0.280737 0)
(0.339712 0.308228 0)
(0.30898 0.331305 0)
(0.278257 0.353911 0)
(0.408152 -0.266273 0)
(0.433314 -0.22579 0)
(0.455688 -0.181875 0)
(0.473308 -0.135516 0)
(0.485876 -0.0873595 0)
(0.493214 -0.0380113 0)
(0.495225 0.0118708 0)
(0.491906 0.0616079 0)
(0.483353 0.110525 0)
(0.469763 0.157966 0)
(0.451426 0.203315 0)
(0.428723 0.246012 0)
(0.4021 0.285577 0)
(0.372055 0.321626 0)
(0.339102 0.353891 0)
(0.303668 0.382299 0)
(0.266276 0.408142 0)
(0.436031 -0.255451 0)
(0.45897 -0.211483 0)
(0.477489 -0.165477 0)
(0.491409 -0.117878 0)
(0.500597 -0.0691443 0)
(0.504964 -0.0197443 0)
(0.504468 0.0298459 0)
(0.499113 0.0791486 0)
(0.488952 0.127689 0)
(0.474082 0.175 0)
(0.454646 0.220625 0)
(0.430831 0.264126 0)
(0.402868 0.305083 0)
(0.371025 0.343102 0)
(0.335608 0.377817 0)
(0.29696 0.408893 0)
(0.255451 0.436031 0)
(0 0 0)
(0 0 0)
(0 0 0)
(0 0 0)
(0 0 0)
(0 0 0)
(0 0 0)
(0 0 0)
(0 0 0)
(0 0 0)
(0 0 0)
(0 0 0)
(0 0 0)
(0 0 0)
(0 0 0)
(0 0 0)
(0.0113005 0.00801795 0)
(0.0155246 0.0122458 0)
(0.0183398 0.0168902 0)
(0.0196208 0.0220584 0)
(0.0192072 0.0276418 0)
(0.0169761 0.0332736 0)
(0.0129577 0.0383302 0)
(0.00748013 0.0420607 0)
(0.0012295 0.0436463 0)
(-0.00480938 0.0425797 0)
(-0.00960068 0.0389904 0)
(-0.0123967 0.0334478 0)
(-0.0129291 0.0267579 0)
(-0.0113513 0.0196158 0)
(-0.00809308 0.0124428 0)
(-0.00591773 0.00867074 0)
(0.0261923 0.0190834 0)
(0.0333419 0.027335 0)
(0.0377478 0.0364074 0)
(0.0392194 0.0464077 0)
(0.0374901 0.0570255 0)
(0.0324004 0.0674913 0)
(0.0241288 0.0766688 0)
(0.0133803 0.0831766 0)
(0.00145945 0.0856808 0)
(-0.00988773 0.0835305 0)
(-0.0189449 0.0770129 0)
(-0.0245052 0.0671086 0)
(-0.0261037 0.055113 0)
(-0.0239216 0.0421568 0)
(-0.0185648 0.0289429 0)
(-0.0149625 0.0218465 0)
(0.0439762 0.032919 0)
(0.0527403 0.0449401 0)
(0.0575769 0.058155 0)
(0.0582558 0.0725643 0)
(0.0544462 0.0875875 0)
(0.0460304 0.10206 0)
(0.0334062 0.114404 0)
(0.0176767 0.122775 0)
(0.000681025 0.125619 0)
(-0.0152954 0.122354 0)
(-0.0281352 0.113475 0)
(-0.0363821 0.100255 0)
(-0.0394281 0.0842151 0)
(-0.0374376 0.0667518 0)
(-0.0310618 0.0487502 0)
(-0.0267733 0.038786 0)
(0.0641762 0.0494464 0)
(0.0733177 0.0650045 0)
(0.0775084 0.0820557 0)
(0.0764965 0.100411 0)
(0.0699363 0.119183 0)
(0.0578293 0.136863 0)
(0.0408235 0.151475 0)
(0.020408 0.160918 0)
(-0.001139 0.163676 0)
(-0.0212002 0.159323 0)
(-0.0374515 0.148566 0)
(-0.0483103 0.132842 0)
(-0.0530877 0.113785 0)
(-0.051925 0.0929519 0)
(-0.0454561 0.0713204 0)
(-0.0412082 0.0589576 0)
(0.0862878 0.0686181 0)
(0.0946455 0.0874831 0)
(0.097189 0.108033 0)
(0.0936797 0.129834 0)
(0.0838003 0.151686 0)
(0.0677197 0.171771 0)
(0.0463616 0.187828 0)
(0.0215635 0.197697 0)
(-0.00408465 0.200042 0)
(-0.0277946 0.194659 0)
(-0.0471611 0.182403 0)
(-0.0605632 0.164798 0)
(-0.067303 0.143579 0)
(-0.0674845 0.120349 0)
(-0.0617035 0.0961096 0)
(-0.0581786 0.081789 0)
(0.109772 0.0904265 0)
(0.116282 0.112373 0)
(0.116264 0.136053 0)
(0.109531 0.160761 0)
(0.0958493 0.185003 0)
(0.0755867 0.206687 0)
(0.0499514 0.223432 0)
(0.0210713 0.233204 0)
(-0.00829101 0.23489 0)
(-0.0352899 0.22851 0)
(-0.0575281 0.215033 0)
(-0.0734278 0.196054 0)
(-0.082319 0.173361 0)
(-0.0842632 0.148532 0)
(-0.0798377 0.122568 0)
(-0.0776615 0.106678 0)
(0.134033 0.114905 0)
(0.137719 0.139692 0)
(0.134321 0.166105 0)
(0.123723 0.193134 0)
(0.105834 0.219026 0)
(0.0812574 0.241528 0)
(0.0514686 0.258304 0)
(0.0187925 0.26754 0)
(-0.0139437 0.26837 0)
(-0.0439233 0.260988 0)
(-0.0688413 0.246491 0)
(-0.0872172 0.22654 0)
(-0.0984173 0.202901 0)
(-0.102481 0.177112 0)
(-0.0999835 0.15015 0)
(-0.0997084 0.132989 0)
(0.158409 0.142148 0)
(0.158359 0.16948 0)
(0.150836 0.198156 0)
(0.135821 0.226859 0)
(0.113416 0.253646 0)
(0.0844792 0.276241 0)
(0.0507024 0.292472 0)
(0.0145129 0.300788 0)
(-0.0212806 0.300553 0)
(-0.053977 0.292147 0)
(-0.0814304 0.276791 0)
(-0.102281 0.256158 0)
(-0.11594 0.231966 0)
(-0.122441 0.205703 0)
(-0.122358 0.178295 0)
(-0.124457 0.160051 0)
(0.182161 0.17234 0)
(0.177517 0.201843 0)
(0.165182 0.232216 0)
(0.145288 0.261883 0)
(0.118165 0.288814 0)
(0.0849023 0.310816 0)
(0.0473434 0.325955 0)
(0.00793939 0.332954 0)
(-0.0306104 0.331436 0)
(-0.0658015 0.321983 0)
(-0.0956839 0.30588 0)
(-0.119026 0.28476 0)
(-0.135291 0.260274 0)
(-0.144512 0.23386 0)
(-0.147276 0.20639 0)
(-0.152156 0.187124 0)
(0.204399 0.205771 0)
(0.194355 0.236975 0)
(0.176603 0.268389 0)
(0.151465 0.298245 0)
(0.119512 0.324518 0)
(0.0820374 0.345209 0)
(0.0409677 0.358676 0)
(-0.00132577 0.363958 0)
(-0.0423496 0.36097 0)
(-0.0798495 0.350437 0)
(-0.112083 0.333637 0)
(-0.137947 0.312124 0)
(-0.156963 0.287463 0)
(-0.169174 0.261046 0)
(-0.175185 0.233707 0)
(-0.183189 0.213343 0)
(0.223981 0.242874 0)
(0.207769 0.275178 0)
(0.184059 0.306827 0)
(0.153425 0.33596 0)
(0.116668 0.360672 0)
(0.0752162 0.379261 0)
(0.0309841 0.390467 0)
(-0.0138462 0.393675 0)
(-0.057064 0.389032 0)
(-0.0966917 0.377331 0)
(-0.131207 0.359804 0)
(-0.159649 0.337893 0)
(-0.181593 0.313042 0)
(-0.197068 0.286568 0)
(-0.206686 0.259314 0)
(-0.218085 0.237602 0)
(0.239254 0.284224 0)
(0.216157 0.316785 0)
(0.186084 0.347613 0)
(0.149882 0.374897 0)
(0.108542 0.397012 0)
(0.0635072 0.41266 0)
(0.0165693 0.421009 0)
(-0.0303633 0.421769 0)
(-0.0754318 0.415237 0)
(-0.116981 0.402214 0)
(-0.153729 0.383839 0)
(-0.184844 0.361408 0)
(-0.209934 0.336215 0)
(-0.228984 0.309451 0)
(-0.242585 0.281935 0)
(-0.257593 0.258335 0)
(0.247674 0.330431 0)
(0.21709 0.361981 0)
(0.180523 0.390531 0)
(0.139028 0.414549 0)
(0.0936616 0.432883 0)
(0.0457364 0.444707 0)
(-0.00323624 0.449583 0)
(-0.051712 0.447492 0)
(-0.0982291 0.438806 0)
(-0.14148 0.424252 0)
(-0.180419 0.404798 0)
(-0.214334 0.381539 0)
(-0.242829 0.355605 0)
(-0.265838 0.328041 0)
(-0.283873 0.299572 0)
(-0.302631 0.273167 0)
(0.2453 0.381654 0)
(0.207107 0.410155 0)
(0.164582 0.434355 0)
(0.118714 0.453358 0)
(0.0704028 0.466599 0)
(0.020672 0.473712 0)
(-0.0293772 0.474566 0)
(-0.0786375 0.469279 0)
(-0.126057 0.458194 0)
(-0.170675 0.441864 0)
(-0.211688 0.421005 0)
(-0.248496 0.39644 0)
(-0.280709 0.369053 0)
(-0.308197 0.339695 0)
(-0.331273 0.308961 0)
(-0.353882 0.278236 0)
(0.225795 0.433304 0)
(0.181881 0.455679 0)
(0.135521 0.4733 0)
(0.0873634 0.48587 0)
(0.0380142 0.49321 0)
(-0.0118684 0.495222 0)
(-0.0616055 0.491903 0)
(-0.110522 0.483351 0)
(-0.157963 0.469761 0)
(-0.203311 0.451424 0)
(-0.246007 0.42872 0)
(-0.28557 0.402097 0)
(-0.321618 0.372052 0)
(-0.353883 0.339098 0)
(-0.382291 0.303664 0)
(-0.408134 0.26627 0)
(0.211483 0.45897 0)
(0.165477 0.477489 0)
(0.117878 0.491409 0)
(0.0691443 0.500597 0)
(0.0197443 0.504964 0)
(-0.0298459 0.504468 0)
(-0.0791486 0.499113 0)
(-0.127689 0.488952 0)
(-0.175 0.474082 0)
(-0.220625 0.454646 0)
(-0.264126 0.430831 0)
(-0.305083 0.402868 0)
(-0.343102 0.371025 0)
(-0.377817 0.335608 0)
(-0.408893 0.29696 0)
(-0.436031 0.255451 0)
(0 0 0)
(0 0 0)
(0 0 0)
(0 0 0)
(0 0 0)
(0 0 0)
(0 0 0)
(0 0 0)
(0 0 0)
(0 0 0)
(0 0 0)
(0 0 0)
(0 0 0)
(0 0 0)
(0 0 0)
(0 0 0)
(0.0113005 0.00801795 0)
(0.0155246 0.0122458 0)
(0.0183398 0.0168902 0)
(0.0196208 0.0220584 0)
(0.0192072 0.0276418 0)
(0.0169761 0.0332736 0)
(0.0129577 0.0383302 0)
(0.00748013 0.0420607 0)
(0.0012295 0.0436463 0)
(-0.00480938 0.0425797 0)
(-0.00960068 0.0389904 0)
(-0.0123967 0.0334478 0)
(-0.0129291 0.0267579 0)
(-0.0113513 0.0196158 0)
(-0.00809308 0.0124428 0)
(-0.00591773 0.00867074 0)
(0.0261923 0.0190834 0)
(0.0333419 0.027335 0)
(0.0377478 0.0364074 0)
(0.0392194 0.0464077 0)
(0.0374901 0.0570255 0)
(0.0324004 0.0674913 0)
(0.0241288 0.0766688 0)
(0.0133803 0.0831766 0)
(0.00145945 0.0856808 0)
(-0.00988773 0.0835305 0)
(-0.0189449 0.0770129 0)
(-0.0245052 0.0671086 0)
(-0.0261037 0.055113 0)
(-0.0239216 0.0421568 0)
(-0.0185648 0.0289429 0)
(-0.0149625 0.0218465 0)
(0.0439762 0.032919 0)
(0.0527403 0.0449401 0)
(0.0575769 0.058155 0)
(0.0582558 0.0725643 0)
(0.0544462 0.0875875 0)
(0.0460304 0.10206 0)
(0.0334062 0.114404 0)
(0.0176767 0.122775 0)
(0.000681025 0.125619 0)
(-0.0152954 0.122354 0)
(-0.0281352 0.113475 0)
(-0.0363821 0.100255 0)
(-0.0394281 0.0842151 0)
(-0.0374376 0.0667518 0)
(-0.0310618 0.0487502 0)
(-0.0267733 0.038786 0)
(0.0641762 0.0494464 0)
(0.0733177 0.0650045 0)
(0.0775084 0.0820557 0)
(0.0764965 0.100411 0)
(0.0699363 0.119183 0)
(0.0578293 0.136863 0)
(0.0408235 0.151475 0)
(0.020408 0.160918 0)
(-0.001139 0.163676 0)
(-0.0212002 0.159323 0)
(-0.0374515 0.148566 0)
(-0.0483103 0.132842 0)
(-0.0530877 0.113785 0)
(-0.051925 0.0929519 0)
(-0.0454561 0.0713204 0)
(-0.0412082 0.0589576 0)
(0.0862878 0.0686181 0)
(0.0946455 0.0874831 0)
(0.097189 0.108033 0)
(0.0936797 0.129834 0)
(0.0838003 0.151686 0)
(0.0677197 0.171771 0)
(0.0463616 0.187828 0)
(0.0215635 0.197697 0)
(-0.00408465 0.200042 0)
(-0.0277946 0.194659 0)
(-0.0471611 0.182403 0)
(-0.0605632 0.164798 0)
(-0.067303 0.143579 0)
(-0.0674845 0.120349 0)
(-0.0617035 0.0961096 0)
(-0.0581786 0.081789 0)
(0.109772 0.0904265 0)
(0.116282 0.112373 0)
(0.116264 0.136053 0)
(0.109531 0.160761 0)
(0.0958493 0.185003 0)
(0.0755867 0.206687 0)
(0.0499514 0.223432 0)
(0.0210713 0.233204 0)
(-0.00829101 0.23489 0)
(-0.0352899 0.22851 0)
(-0.0575281 0.215033 0)
(-0.0734278 0.196054 0)
(-0.082319 0.173361 0)
(-0.0842632 0.148532 0)
(-0.0798377 0.122568 0)
(-0.0776615 0.106678 0)
(0.134033 0.114905 0)
(0.137719 0.139692 0)
(0.134321 0.166105 0)
(0.123723 0.193134 0)
(0.105834 0.219026 0)
(0.0812574 0.241528 0)
(0.0514686 0.258304 0)
(0.0187925 0.26754 0)
(-0.0139437 0.26837 0)
(-0.0439233 0.260988 0)
(-0.0688413 0.246491 0)
(-0.0872172 0.22654 0)
(-0.0984173 0.202901 0)
(-0.102481 0.177112 0)
(-0.0999835 0.15015 0)
(-0.0997084 0.132989 0)
(0.158409 0.142148 0)
(0.158359 0.16948 0)
(0.150836 0.198156 0)
(0.135821 0.226859 0)
(0.113416 0.253646 0)
(0.0844792 0.276241 0)
(0.0507024 0.292472 0)
(0.0145129 0.300788 0)
(-0.0212806 0.300553 0)
(-0.053977 0.292147 0)
(-0.0814304 0.276791 0)
(-0.102281 0.256158 0)
(-0.11594 0.231966 0)
(-0.122441 0.205703 0)
(-0.122358 0.178295 0)
(-0.124457 0.160051 0)
(0.182161 0.17234 0)
(0.177517 0.201843 0)
(0.165182 0.232216 0)
(0.145288 0.261883 0)
(0.118165 0.288814 0)
(0.0849023 0.310816 0)
(0.0473434 0.325955 0)
(0.00793939 0.332954 0)
(-0.0306104 0.331436 0)
(-0.0658015 0.321983 0)
(-0.0956839 0.30588 0)
(-0.119026 0.28476 0)
(-0.135291 0.260274 0)
(-0.144512 0.23386 0)
(-0.147276 0.20639 0)
(-0.152156 0.187124 0)
(0.204399 0.205771 0)
(0.194355 0.236975 0)
(0.176603 0.268389 0)
(0.151465 0.298245 0)
(0.119512 0.324518 0)
(0.0820374 0.345209 0)
(0.0409677 0.358676 0)
(-0.00132577 0.363958 0)
(-0.0423496 0.36097 0)
(-0.0798495 0.350437 0)
(-0.112083 0.333637 0)
(-0.137947 0.312124 0)
(-0.156963 0.287463 0)
(-0.169174 0.261046 0)
(-0.175185 0.233707 0)
(-0.183189 0.213343 0)
(0.223981 0.242874 0)
(0.207769 0.275178 0)
(0.184059 0.306827 0)
(0.153425 0.33596 0)
(0.116668 0.360672 0)
(0.0752162 0.379261 0)
(0.0309841 0.390467 0)
(-0.0138462 0.393675 0)
(-0.057064 0.389032 0)
(-0.0966917 0.377331 0)
(-0.131207 0.359804 0)
(-0.159649 0.337893 0)
(-0.181593 0.313042 0)
(-0.197068 0.286568 0)
(-0.206686 0.259314 0)
(-0.218085 0.237602 0)
(0.239254 0.284224 0)
(0.216157 0.316785 0)
(0.186084 0.347613 0)
(0.149882 0.374897 0)
(0.108542 0.397012 0)
(0.0635072 0.41266 0)
(0.0165693 0.421009 0)
(-0.0303633 0.421769 0)
(-0.0754318 0.415237 0)
(-0.116981 0.402214 0)
(-0.153729 0.383839 0)
(-0.184844 0.361408 0)
(-0.209934 0.336215 0)
(-0.228984 0.309451 0)
(-0.242585 0.281935 0)
(-0.257593 0.258335 0)
(0.247674 0.330431 0)
(0.21709 0.361981 0)
(0.180523 0.390531 0)
(0.139028 0.414549 0)
(0.0936616 0.432883 0)
(0.0457364 0.444707 0)
(-0.00323624 0.449583 0)
(-0.051712 0.447492 0)
(-0.0982291 0.438806 0)
(-0.14148 0.424252 0)
(-0.180419 0.404798 0)
(-0.214334 0.381539 0)
(-0.242829 0.355605 0)
(-0.265838 0.328041 0)
(-0.283873 0.299572 0)
(-0.302631 0.273167 0)
(0.2453 0.381654 0)
(0.207107 0.410155 0)
(0.164582 0.434355 0)
(0.118714 0.453358 0)
(0.0704028 0.466599 0)
(0.020672 0.473712 0)
(-0.0293772 0.474566 0)
(-0.0786375 0.469279 0)
(-0.126057 0.458194 0)
(-0.170675 0.441864 0)
(-0.211688 0.421005 0)
(-0.248496 0.39644 0)
(-0.280709 0.369053 0)
(-0.308197 0.339695 0)
(-0.331273 0.308961 0)
(-0.353882 0.278236 0)
(0.225795 0.433304 0)
(0.181881 0.455679 0)
(0.135521 0.4733 0)
(0.0873634 0.48587 0)
(0.0380142 0.49321 0)
(-0.0118684 0.495222 0)
(-0.0616055 0.491903 0)
(-0.110522 0.483351 0)
(-0.157963 0.469761 0)
(-0.203311 0.451424 0)
(-0.246007 0.42872 0)
(-0.28557 0.402097 0)
(-0.321618 0.372052 0)
(-0.353883 0.339098 0)
(-0.382291 0.303664 0)
(-0.408134 0.26627 0)
(0.211483 0.45897 0)
(0.165477 0.477489 0)
(0.117878 0.491409 0)
(0.0691443 0.500597 0)
(0.0197443 0.504964 0)
(-0.0298459 0.504468 0)
(-0.0791486 0.499113 0)
(-0.127689 0.488952 0)
(-0.175 0.474082 0)
(-0.220625 0.454646 0)
(-0.264126 0.430831 0)
(-0.305083 0.402868 0)
(-0.343102 0.371025 0)
(-0.377817 0.335608 0)
(-0.408893 0.29696 0)
(-0.436031 0.255451 0)
(0 0 0)
(0 0 0)
(0 0 0)
(0 0 0)
(0 0 0)
(0 0 0)
(0 0 0)
(0 0 0)
(0 0 0)
(0 0 0)
(0 0 0)
(0 0 0)
(0 0 0)
(0 0 0)
(0 0 0)
(0 0 0)
(-0.00801049 0.0112845 0)
(-0.0122278 0.0155099 0)
(-0.016863 0.0183278 0)
(-0.0220263 0.0196135 0)
(-0.0276105 0.0192049 0)
(-0.0332473 0.0169772 0)
(-0.0383108 0.0129592 0)
(-0.0420478 0.00748006 0)
(-0.0436384 0.0012276 0)
(-0.0425751 -0.00481366 0)
(-0.0389875 -0.00960768 0)
(-0.0334454 -0.0124063 0)
(-0.0267552 -0.0129403 0)
(-0.0196129 -0.0113626 0)
(-0.0124409 -0.00810257 0)
(-0.00866935 -0.00592625 0)
(-0.0190601 0.0261604 0)
(-0.027293 0.0333123 0)
(-0.0363518 0.0377239 0)
(-0.0463465 0.0392046 0)
(-0.0569679 0.0374845 0)
(-0.0674439 0.0324007 0)
(-0.0766342 0.0241298 0)
(-0.0831542 0.0133785 0)
(-0.0856674 0.00145418 0)
(-0.0835231 -0.00989709 0)
(-0.0770086 -0.0189591 0)
(-0.0671054 -0.0245244 0)
(-0.0551094 -0.0261265 0)
(-0.0421523 -0.0239455 0)
(-0.0289391 -0.0185867 0)
(-0.0218431 -0.0149841 0)
(-0.0328743 0.0439288 0)
(-0.0448721 0.0526965 0)
(-0.0580728 0.0575421 0)
(-0.0724791 0.0582338 0)
(-0.0875099 0.0544367 0)
(-0.101997 0.0460284 0)
(-0.114359 0.033405 0)
(-0.122747 0.0176718 0)
(-0.125603 0.000671243 0)
(-0.122346 -0.0153107 0)
(-0.113471 -0.028157 0)
(-0.100252 -0.0364109 0)
(-0.0842123 -0.0394626 0)
(-0.0667476 -0.0374748 0)
(-0.0487457 -0.0310981 0)
(-0.0387814 -0.0268111 0)
(-0.0493772 0.0641145 0)
(-0.0649113 0.0732616 0)
(-0.0819512 0.0774641 0)
(-0.100308 0.076468 0)
(-0.119092 0.0699222 0)
(-0.136791 0.0578234 0)
(-0.151425 0.0408182 0)
(-0.160887 0.0203983 0)
(-0.163659 -0.00115467 0)
(-0.159316 -0.0212223 0)
(-0.148564 -0.0374812 0)
(-0.132842 -0.0483486 0)
(-0.113784 -0.0531337 0)
(-0.09295 -0.0519759 0)
(-0.0713168 -0.0455077 0)
(-0.0589531 -0.0412636 0)
(-0.0685243 0.0862138 0)
(-0.0873684 0.0945797 0)
(-0.107912 0.0971375 0)
(-0.12972 0.0936454 0)
(-0.151589 0.0837807 0)
(-0.171696 0.0677081 0)
(-0.187776 0.0463504 0)
(-0.197666 0.0215476 0)
(-0.200027 -0.00410704 0)
(-0.194653 -0.0278241 0)
(-0.182403 -0.0471991 0)
(-0.164801 -0.0606108 0)
(-0.143582 -0.0673599 0)
(-0.120351 -0.0675483 0)
(-0.0961086 -0.0617701 0)
(-0.0817862 -0.0582513 0)
(-0.0903111 0.109689 0)
(-0.112243 0.116209 0)
(-0.135924 0.116207 0)
(-0.160644 0.109491 0)
(-0.184906 0.0958231 0)
(-0.206614 0.0755673 0)
(-0.223384 0.0499323 0)
(-0.233176 0.0210478 0)
(-0.234878 -0.00832114 0)
(-0.228508 -0.0353272 0)
(-0.215036 -0.0575739 0)
(-0.196061 -0.0734838 0)
(-0.173368 -0.0823854 0)
(-0.148538 -0.0843379 0)
(-0.122571 -0.0799173 0)
(-0.106679 -0.0777491 0)
(-0.114774 0.133945 0)
(-0.139554 0.137644 0)
(-0.165975 0.134262 0)
(-0.193022 0.123678 0)
(-0.218936 0.105799 0)
(-0.241463 0.081228 0)
(-0.258263 0.0514399 0)
(-0.267519 0.0187603 0)
(-0.268363 -0.0139818 0)
(-0.26099 -0.0439681 0)
(-0.246498 -0.0688943 0)
(-0.226551 -0.0872802 0)
(-0.202913 -0.0984908 0)
(-0.177122 -0.102564 0)
(-0.150157 -0.100073 0)
(-0.132994 -0.0998061 0)
(-0.14201 0.158321 0)
(-0.169344 0.158286 0)
(-0.198035 0.150776 0)
(-0.226758 0.135771 0)
(-0.253568 0.113372 0)
(-0.276186 0.0844387 0)
(-0.292439 0.0506633 0)
(-0.300774 0.0144717 0)
(-0.300552 -0.0213265 0)
(-0.292152 -0.0540284 0)
(-0.276801 -0.0814888 0)
(-0.256171 -0.102348 0)
(-0.23198 -0.116017 0)
(-0.205717 -0.122527 0)
(-0.178306 -0.122451 0)
(-0.160059 -0.124557 0)
(-0.172204 0.182078 0)
(-0.201717 0.177447 0)
(-0.232109 0.165123 0)
(-0.261799 0.145233 0)
(-0.288751 0.118111 0)
(-0.310774 0.0848502 0)
(-0.325932 0.0472934 0)
(-0.332947 0.00788923 0)
(-0.33144 -0.0306628 0)
(-0.321992 -0.0658571 0)
(-0.305892 -0.0957449 0)
(-0.284774 -0.119094 0)
(-0.26029 -0.135367 0)
(-0.233876 -0.144596 0)
(-0.206404 -0.147366 0)
(-0.187136 -0.152252 0)
(-0.205646 0.204325 0)
(-0.236867 0.194291 0)
(-0.268303 0.176544 0)
(-0.29818 0.151405 0)
(-0.324471 0.119449 0)
(-0.34518 0.0819752 0)
(-0.358663 0.0409083 0)
(-0.363959 -0.00138256 0)
(-0.360978 -0.0424054 0)
(-0.350448 -0.079906 0)
(-0.33365 -0.112143 0)
(-0.312138 -0.138012 0)
(-0.287478 -0.157034 0)
(-0.261062 -0.16925 0)
(-0.233722 -0.175266 0)
(-0.213358 -0.183272 0)
(-0.242769 0.223917 0)
(-0.275093 0.207712 0)