/*--------------------------------*- C++ -*----------------------------------*\
| =========                 |                                                 |
| \\      /  F ield         | OpenFOAM: The Open Source CFD Toolbox           |
|  \\    /   O peration     | Version:  2412                                  |
|   \\  /    A nd           | Website:  www.openfoam.com                      |
|    \\/     M anipulation  |                                                 |
\*---------------------------------------------------------------------------*/
FoamFile
{
    version     2.0;
    format      ascii;
    arch        "LSB;label=32;scalar=64";
    class       volVectorField;
    location    "1873";
    object      U;
}
// * * * * * * * * * * * * * * * * * * * * * * * * * * * * * * * * * * * * * //

dimensions      [0 1 -1 0 0 0 0];

internalField   nonuniform List<vector> 
808
(
(0.7562714636753656 -0.01751375669010429 0)
(1.03155639711716 -0.01260439627066128 0)
(1.111246258748213 -0.00481904734819005 -1.716592147312053e-20)
(1.085125501217372 0.01258525128668968 0)
(1.36244574508204 0.01290376420107757 -3.819240183255633e-19)
(1.038750058007919 -0.009423267448980683 -7.32388626146894e-20)
(1.014506192822963 -0.02093536946261568 -2.437364397086824e-20)
(1.079247724026554 -0.005224072857076138 9.054299787049967e-21)
(1.253869658972376 -0.02160737661284293 6.26105546407853e-20)
(1.085322917113771 0.009517104783923924 0)
(1.007658075233715 -0.009648821741947677 0)
(1.305063710944842 -0.05454503733690046 -3.464888814044421e-19)
(1.086412162462406 -0.00198137405094797 2.045080082000423e-20)
(0.6752088234778181 0.006355629693714096 0)
(1.275243733286376 -0.1187529857171153 0)
(1.081749938840659 -0.0004492029706694239 -3.87279066969565e-20)
(1.223926424503915 -0.1466585654625777 -9.500963119873249e-20)
(1.074177045739619 -0.0003430923888048326 3.211420300244866e-20)
(0.9889972275229678 0.003898143158170581 0)
(1.026646442205283 0.009653820902888251 0)
(1.032648705578973 -0.01343206291608938 0)
(0.9875819049317943 0.04516922479929987 0)
(1.051076122559627 -0.006040504812045057 5.797586554497373e-20)
(1.053809470931621 0.008849265401621622 0)
(0.9333830896162066 0.1986213433611926 4.569797708771528e-19)
(1.161726617197617 -0.08668400354530507 0)
(1.185495577343069 -0.01981297952953255 1.541879546367253e-19)
(1.077256081368497 0.009665160357042703 5.23419739863826e-20)
(1.083652196735698 0.002108950737088697 5.124277653752893e-21)
(1.071751239003868 0.03091244321073547 0)
(1.075249463133638 0.002782212274563062 -1.183470779534794e-20)
(1.033282202061749 0.006718615101476113 -1.878693847710764e-19)
(1.06007254534654 0.01452188480232396 -2.350398188616338e-20)
(1.088771358822043 0.005647619691465509 -2.93901745843315e-20)
(1.12168462088104 0.03783577798746617 0)
(0.7549045417245646 -0.1218538850734069 -4.549066456540473e-19)
(0.9547847971411725 -0.005814746823533436 0)
(1.068759386297161 0.02222285271849449 0)
(1.06879952328198 0.007227861759736197 0)
(1.073792468557966 0.008725466109037844 -2.818988879225176e-20)
(1.093248948353339 0.02380612175061972 1.080779065990308e-19)
(1.150814763724764 0.002449042489288133 2.118635879792905e-19)
(1.095837081989722 -0.002266649162612051 0)
(1.015175396007005 -0.00932192760916088 0)
(1.129823751841786 -0.09289300097889928 -1.627610067187929e-19)
(1.044073025463878 -0.01168795683312767 -8.358788090775145e-20)
(1.058138005177194 0.02664875129087609 -2.677217794388909e-20)
(1.23035035435768 -0.1126598576378363 -5.561290009322803e-20)
(1.067483927018022 0.0120206356255605 -4.076952863786337e-20)
(1.257711973554373 0.01525084628542466 0)
(0.9970074661664018 -0.01921925314830446 2.214937356431735e-21)
(1.044753316383863 -0.002206778229308332 0)
(1.087464739346979 -0.002122560609583028 0)
(0.9989942597652693 0.007778673262691337 -1.880896764608431e-20)
(1.251332116368475 0.03288849993662214 -2.388238085422144e-19)
(1.063421802121856 0.01809579453264548 5.881324042018587e-20)
(0.9907243143470748 0.01141744373817255 0)
(1.015797093973257 -0.00656337934500268 2.521879639469811e-20)
(1.107557060989045 -0.001180088077134163 -1.157363089705168e-19)
(1.061174754914332 0.03122397130226465 0)
(-0.08763089674698997 -0.005740423609106705 7.682974872518106e-20)
(1.154434823358933 -0.05237831690264853 -1.850388025152696e-19)
(1.004854885323069 -0.005643128655316351 -2.769655533417521e-20)
(1.188188939447242 0.06686704418814317 -1.207266660166646e-19)
(0.997136961733297 -0.009743493299003921 3.104272197911953e-20)
(1.084199462020786 -0.005454950072102718 0)
(1.249129835257362 0.09314858671031548 0)
(0.6960831541414862 0.003164157953680657 -7.423331968837262e-20)
(0.9882958487852919 -0.01471329039623924 -3.234047422873205e-20)
(1.458306317473376 -0.02001641890809215 4.398965582185028e-19)
(1.060535443592728 0.007607595521634671 -6.535950333347898e-20)
(1.366668013155365 0.09310396668985157 2.840366508183612e-19)
(1.0548642100416 0.00680979208590733 -1.95742915821153e-22)
(1.080955110550401 -0.01397119312242746 -2.433687330179033e-22)
(1.163781785570684 -0.2358254876988798 0)
(1.0221046352195 -0.01511651981815085 0)
(1.017255097936089 0.01808169507083473 -2.997656103510385e-20)
(1.387811900761801 0.3487314392347445 4.225875326441834e-19)
(1.097438699155313 -0.04245851716322759 9.590198942689097e-20)
(1.046326894640466 0.210363199990797 2.417953559682986e-19)
(1.12307838944611 -0.06095793836203774 1.178411243266934e-19)
(0.9219625445167436 0.00517293837060708 0)
(0.975338593184254 0.01852719605124125 0)
(1.004009590621614 -0.04855403319999124 3.131383248504185e-21)
(1.009922172984359 -0.01368750861584042 7.828172917097264e-21)
(1.030490377302046 0.02685444062005183 1.35345857883741e-20)
(1.527252805320417 0.03367760802023319 3.214779208189709e-19)
(1.290321691036419 0.07012408591025093 5.630182617757758e-19)
(1.072459344150611 0.003098064243333717 -8.834523366076799e-20)
(1.194420677600707 -0.09550341527145409 0)
(1.033865230640178 0.001813089595223558 1.291544933239398e-19)
(1.16521984778801 0.02079057355063161 -3.131503539958832e-19)
(1.001497898165112 0.03251137277330064 0)
(0.9996274953539757 0.002005046425563381 0)
(1.044291376607699 -4.805706168641436e-05 7.999378114439783e-20)
(1.218208796513753 0.10713962745838 4.07873767608291e-19)
(1.011141539050773 0.006970660980279885 0)
(1.089853096946075 -0.06790512557306219 -1.065674679488517e-19)
(1.151447965605277 0.03622195026309057 0)
(1.216373966526818 0.0914534712373556 -1.910513999424659e-19)
(1.108307725578078 -0.02890702049964352 -7.821232065541965e-20)
(1.027499974596789 0.01192703935097251 0)
(1.085140995046353 -0.004589863916428493 0)
(1.019385755038305 0.02647183973938144 7.846986845185054e-20)
(1.073510286887892 0.05661971471085851 -9.535464793583104e-21)
(1.1037315615405 -0.004202859191408248 6.432608129802713e-20)
(1.106982335046034 -0.09173219061025358 1.498449803120035e-19)
(0.9637964805655508 0.002456677385991986 0)
(1.066009351567777 0.03127793547232843 3.691310468184885e-20)
(1.168237758685961 -0.07688714430812459 2.261449275652333e-19)
(1.052274494543149 0.04729723973436045 -2.850798679410293e-20)
(1.022939967733929 0.06793252195029001 3.650139797342542e-20)
(1.090210568715538 0.02608882977866694 0)
(1.017559302750765 0.01442985556344972 0)
(1.028985153717926 0.00936305295103193 7.83927968156349e-20)
(0.9485421773766707 -0.03251884549272313 0)
(1.052881956267529 -0.005441563167595767 -7.419293277420022e-21)
(1.341065385746738 0.05585359189573721 -1.542682602120161e-19)
(1.079693336220205 -0.01315827656820795 2.667399209827899e-20)
(0.7440426151832771 -0.001731967101909103 0)
(0.5893948973243858 0.1904318737544075 -1.132117032571066e-19)
(0.7061138243614856 -0.002482423088553234 0)
(0.6988102478556023 0.01463547147958676 0)
(1.077726256710911 0.003618311446603447 -6.470745235085739e-22)
(0.9906527683232799 0.01447498596284924 0)
(1.279784483221399 0.122012049195695 2.548686001081095e-19)
(1.01224246192509 -0.02788590856313003 -7.410564426322731e-21)
(1.044233969368554 0.01667432243551139 1.472306602091092e-21)
(1.058623042238234 -0.0121118838429374 0)
(1.126542351826735 -0.009145181496106415 -5.127252976916201e-20)
(1.271612150027588 0.1282272994055653 -2.256612965830574e-19)
(1.089130426166064 -0.01091629694728834 -8.624458406763778e-20)
(1.070912327852767 0.02631546178854851 -1.07130897062918e-19)
(1.041006004367715 0.04679441807344245 7.405831686269379e-20)
(1.022584435421174 -0.003659804599148051 -3.479565027838013e-20)
(1.060945606820488 0.02367110420194096 5.714645071305786e-21)
(1.138130794451587 0.004181190817428818 1.033752338831419e-20)
(1.039255540302172 -0.01415489412825389 -4.774963884657953e-22)
(1.087387354725721 0.03473089296083743 0)
(1.028317038508803 0.0137170465599192 0)
(0.7804708688348549 -0.07890675073252038 -1.817484467500561e-19)
(1.030288851418214 -0.001819951716445795 -6.556720323591857e-20)
(1.131872261278733 -0.001216730994357943 -1.24570953750544e-20)
(0.703454018767654 0.00655737689694003 7.127498284900889e-20)
(1.175241656238937 0.01909287801218094 -1.970343092824199e-19)
(1.136936877867467 0.004539226426692035 5.166476628034348e-21)
(1.129012944852111 -0.01005121485232018 3.370662721035e-20)
(1.000933423328517 -0.002963285146458119 -6.758855649185194e-20)
(1.101740760065862 -0.05809786550538041 0)
(0.9898271995394439 0.004974267220395885 0)
(1.057828957434529 0.00702334523059278 0)
(1.005923230328226 0.189014788716947 -2.370287153621957e-19)
(0.779248425056505 0.01243670001969721 0)
(0.8570311125575721 0.1022900841367422 -8.223721333073517e-20)
(0.09325351054541992 0.03257912466828976 -2.971027723548352e-19)
(1.171798662175229 -0.03159227601792267 -2.290332309912006e-20)
(0.6712638043859441 -0.007335910359117699 2.45350238507643e-20)
(1.164360721476201 -0.100996676066852 6.926661792409285e-20)
(1.126231998236549 0.0001981565918621901 -5.808712113617474e-21)
(1.153631226699199 -0.04955761885687775 2.225626460878412e-20)
(0.08204351037360649 -0.2062979775546216 0)
(0.2402029944598992 0.06431331480302455 0)
(1.261563345175958 0.1051586909858 1.859756110414064e-19)
(1.021154008778997 0.01983228180744629 0)
(0.7377248374657285 -0.006252198540122673 0)
(1.075004866579975 -0.01142663227944781 2.742788947506891e-20)
(0.9748575522484646 0.002877305583529567 0)
(1.297051746911074 0.1197482827366208 -1.484471301738484e-19)
(1.057358393789195 0.01095755734470658 0)
(0.9929660905737208 -0.007115422416515125 0)
(1.065160110145328 0.008278798042920464 0)
(1.006239372547901 0.02090352400669507 2.175265974433586e-20)
(0.9347940866973421 0.01048813215315225 1.271642134846771e-20)
(1.176119945056986 -0.1996245470599257 0)
(1.005085060921655 -0.005195289391157138 8.049186329845858e-20)
(1.059187435071254 0.006318983391110806 0)
(0.774593790878412 -0.003301745789634005 0)
(1.218023912726063 0.02632777244315707 1.621224213273021e-20)
(0.705015793777126 0.001368888377727731 0)
(1.433318179728889 0.08395951764080103 -5.111726380012579e-20)
(0.9949265291242727 -0.005322868761592594 1.677748335237572e-20)
(1.274019654458719 -0.003831899299541602 -3.003782921248141e-19)
(1.059693522785529 0.009033327714758193 1.329350955192941e-19)
(1.000908509154655 -0.01353370085357698 0)
(1.209439172336565 -0.1442937248807398 2.05321801157819e-19)
(0.7331748690905754 0.01378483249077793 0)
(1.098342219576435 -0.004915891810022692 0)
(1.156316456554351 0.06711909813655281 1.892261973126288e-20)
(1.00643964415872 -0.006463385057942585 -3.048108144738311e-20)
(1.122894201202094 0.0518310634267509 -1.720353833421155e-19)
(0.1277961860282838 -0.09400128086442411 0)
(1.073402721556653 0.03897620949637359 0)
(0.6617024283140788 -0.002876591395354525 -4.996934830523456e-22)
(1.012110490480806 -0.01956443776844866 9.063026311079126e-20)
(1.061446084268376 0.0008758272528652973 0)
(1.079059039051621 -0.1379054694741157 3.766266556424871e-19)
(1.002695380320819 -0.006134944824357279 -3.294180237989923e-21)
(1.003206554868425 -0.004165617458815559 1.001691705460315e-21)
(1.093997377042626 -0.009206556072544798 0)
(1.020752602738412 0.02032631897153796 -6.639643605289445e-20)
(1.10664809375396 -0.001591214878174485 6.348344963278297e-22)
(1.074510298182449 -0.01082492835247431 6.654320080468418e-20)
(1.08564293999336 0.02217009324896604 0)
(1.326231100966557 0.1557288113111874 0)
(1.002074437209757 0.0005112889368982737 4.407771894988211e-20)
(1.319096814661491 -0.1327432486385562 1.603351491519874e-19)
(0.00983301134084022 -0.1603530042893094 -2.314731960826315e-19)
(1.071107986949003 -0.005354734765478522 0)
(1.111304600705946 -0.005186243426473498 1.163903210142465e-20)
(0.7267463317627654 0.01779586068624312 0)
(1.058270192113561 0.01119202215203435 0)
(0.8617124318628616 0.1614291527784941 4.594654654094315e-19)
(1.284390367055675 0.1248552056495258 1.900076584010542e-19)
(0.6542276198153967 -0.00310237878429015 -6.531796493096081e-20)
(1.03963572867835 0.005523723079041933 -4.206861943786455e-21)
(1.05480544501128 -0.000207455454239009 6.447750954719532e-20)
(1.362607413234168 0.1167717644483651 6.56463983230398e-19)
(1.336460220420599 0.2519273069879618 0)
(1.058165235082665 0.009287482227324822 0)
(0.9992613585476215 -0.004154210343444839 1.382922231696627e-20)
(0.9931444249837738 -0.002178986936881719 2.891844183862186e-21)
(1.384378546368903 0.1992444785306342 4.322468702809621e-19)
(0.6818603386596349 0.0004936191599663569 9.969054185597731e-20)
(1.005697673101081 -0.002199590776590841 -6.023145940438229e-20)
(1.098173767233191 0.01315006142518874 2.561914933894889e-20)
(0.6694522919638124 0.004951189562545888 0)
(1.066085691471221 -0.01202541262012634 0)
(1.012830720229278 0.1401566180737208 -1.425887663096956e-19)
(1.08907788429288 0.0009099177182970723 -2.584429592005648e-20)
(0.9819301417009503 9.497735102041356e-05 3.310768756342894e-20)
(0.9912118192441215 0.006002062712728753 0)
(0.6381270010241613 -0.001092603676071767 0)
(0.9767078105647771 -0.001250803454706612 0)
(0.6420399158836285 -0.001417623486922844 2.639427076352982e-21)
(1.087842434590382 -0.05543716110931812 1.213602398818895e-19)
(1.109954149929325 -0.005681296552057246 1.14101931258004e-21)
(0.9579745748055647 -0.0008539540488417136 3.878306885403294e-20)
(1.017221832316876 0.01032456527947878 1.740776082352306e-20)
(1.065850551182079 0.007048844980318348 -2.436863448349669e-21)
(0.6347777350643414 0.00887003721215762 -3.613977846145096e-20)
(1.005883834792825 0.01041534833202339 -6.396334428468364e-22)
(1.037840816316329 0.007779005281710643 5.357680377513232e-21)
(0.9856286613512767 -0.005227356159632855 0)
(0.6099789902311343 -0.0004429025948022796 0)
(1.068997699153481 0.02249835000430826 0)
(1.016237261135052 -0.01688339598798934 1.031505317034928e-20)
(1.02312629626484 -0.006998104203624665 0)
(0.993082621834134 0.0135584271273304 -9.848709491006767e-21)
(1.009131219256132 0.003415091996371537 0)
(1.134621308034752 0.002922603307311235 -1.207352140900064e-20)
(0.03162160060900722 -0.141545045284257 -3.872381669711124e-20)
(1.034331149560521 -0.01811092414398632 -5.938025926586537e-22)
(1.042814560866317 0.007190777936223792 0)
(1.084034391745787 0.07050130026025266 8.432954727231357e-20)
(0.9672736223457874 -0.001408644988341269 3.1092817934082e-20)
(1.020071590180785 0.01675340182984418 -2.240194131905989e-20)
(1.005463781721965 -0.002657841357462607 2.401931014758042e-20)
(1.038895244411307 -0.007914557786671153 0)
(0.6409248880910019 -0.004086668508067856 0)
(1.02595486950245 0.02450763979987934 -7.925843349866035e-20)
(1.087607628549521 -0.001733336876900877 5.092902673737417e-20)
(1.012788357380956 0.007694748116863278 0)
(0.9805951426354823 -0.0004442427392765396 -1.938103322885475e-21)
(0.8547642885595392 0.008852353413181602 -1.070248628066604e-20)
(1.01397668016184 0.002706913059854432 -9.508582654238012e-21)
(1.022298964448713 0.002623652819473657 1.870773036047532e-20)
(0.9827970007720295 0.001551354020914205 0)
(1.007506304721168 0.01115090205282012 3.22111117154722e-20)
(1.110894089628964 -0.0008995494829022755 0)
(0.9340101815639476 0.01198996239459614 -3.165916497843667e-20)
(0.9534084577997332 -0.000678663686039945 0)
(0.9014936240160719 0.2022133099997565 4.949902166966916e-20)
(1.011126659688601 0.06741026556453991 0)
(0.9909128974977048 0.004905281782684789 -2.281871801944532e-20)
(1.058170014679863 -0.04930841790523138 -2.801368943838569e-20)
(0.9939899018513483 0.0002369101478915937 3.245175084662693e-20)
(1.006896994190548 0.006288579107241637 0)
(0.980174349439623 0.000714210004354193 -3.00642096583169e-20)
(1.178221983583467 0.1017357831838719 -3.391000929587664e-19)
(1.068564292441292 -0.2642371535715108 0)
(0.9942691592638671 0.0004445416038487838 -2.268605949001179e-20)
(0.9736480026328316 0.002856439856156893 4.768390697851125e-21)
(0.9601844402976482 -0.001301541408427802 1.017257740277581e-21)
(0.7459901603992876 -0.001060159728639024 0)
(1.120331784777496 -0.06979083662647076 0)
(1.003599844509326 -5.916235238836651e-05 -2.25630909978901e-20)
(0.9089004278741722 0.009193302948834933 -1.067453799630749e-20)
(0.8409033062535456 -0.00135834523427833 3.477654658538917e-21)
(1.012551132752262 -0.007387589845503511 0)
(0.9621538992735179 0.01400169102588763 1.482423585867729e-20)
(1.005618194515681 -0.000198070455730799 -2.24258096949411e-20)
(1.02633141260435 -0.002390271772132281 -2.483373395364478e-20)
(1.114310894989749 -0.003561532584159596 -4.910270565488805e-21)
(1.1166688940766 -0.004514133867322951 0)
(1.009977888740991 -0.0002528519198005051 0)
(1.022501620017966 -0.002865477858108842 0)
(0.944500655511068 0.005883639303391365 -1.976741848038655e-20)
(1.017862094871426 0.01338996957213691 5.616854869830194e-20)
(1.08818288573396 -0.004275737643069222 -2.35855850866538e-20)
(1.038868099437071 -0.004135578797370512 0)
(1.109022713868441 -0.002405017746896279 1.836852501556668e-21)
(0.9942300336925517 0.001142818445479001 -2.245534263093296e-20)
(0.9804311689231261 -0.0007236034004803492 0)
(1.009935151737262 0.002523782206877578 4.690962132924867e-20)
(1.363502041891029 -0.3140661795058143 -1.120403065897654e-18)
(1.120744278960887 -0.04433317627023483 -1.109707290983983e-19)
(0.9713217890264549 0.010613064658702 4.448811641954406e-20)
(0.7664741099181803 0.007641345138518116 -3.549463699321308e-20)
(1.223920966607134 0.04974042471202459 0)
(1.216581422886198 -0.1282972049440517 -1.481366160632674e-19)
(1.085314754642655 -0.004770989381371256 0)
(1.008621857540943 0.0004320937226168943 2.293285076826303e-20)
(-0.2005324332107674 -0.1123711698866434 0)
(0.993968960945755 -0.004668972813407087 0)
(1.012335369388334 -0.02303931742012166 3.933757703116738e-20)
(0.7064107493062143 -0.01943414829168314 0)
(1.096790238120442 -0.01489279222390697 2.322708635547621e-21)
(1.03924310010122 0.002403012048617549 1.551083980967254e-20)
(0.6332269207824429 0.004136686801759736 0)
(1.446569502079649 -0.1241546342411219 0)
(0.9857785412935308 0.001961312918121749 -1.066591013356455e-20)
(1.069677249700448 -0.01508569163984961 0)
(1.037810495136533 0.0005131884159624912 2.044948391542057e-20)
(1.083789737801188 -0.0007096097899891393 0)
(1.012194479691862 -0.005626347178215756 -1.197346063820728e-21)
(1.005973933092303 0.003299537971245668 0)
(1.007894404112468 0.003639623533599333 -1.26445555284826e-21)
(1.004395978980131 -0.02034190983683961 0)
(1.03629828260015 -0.007881207769693251 1.787335351132648e-20)
(-0.1916271863058112 0.03983879955994371 2.806054445957624e-19)
(0.8033178226591245 0.02792269246341245 5.913793437140838e-20)
(1.005092618986766 0.002095461818058794 0)
(1.122159946125829 0.01044071081069619 -1.198434948562843e-20)
(1.11072106122023 0.003926332897672545 9.224124343218208e-21)
(1.054270471341226 -0.01275063471118501 -1.326957745361406e-19)
(0.9987723842337178 0.01039967113624575 -2.601399990995978e-22)
(1.083538445876116 -0.005609360133783299 0)
(1.188980567772668 0.05082380115741356 0)
(0.8350861031809877 -0.0748745773254019 4.606455131827694e-19)
(1.089260630793366 -0.003237177544256042 0)
(1.033872288184887 0.007823191038803396 -7.700254977635529e-21)
(1.042533130735473 0.005351412885705442 5.64854122743788e-21)
(1.053695481876513 -0.05837468355570038 -7.598076505666277e-21)
(1.139352787877085 -0.001965579925127932 1.721095654900164e-19)
(1.081911021972924 0.002007662681932002 0)
(0.9942719491493339 0.001936413927525006 0)
(0.9979976237959649 -0.02646175246608321 -2.438481355976677e-21)
(0.9905578518165037 0.003620871974998794 0)
(1.03072909559981 -0.03664429080594196 6.514032318531095e-20)
(1.291230499080495 -0.09790399319648957 0)
(1.040595330792083 0.001908945452081464 -4.323972666316514e-21)
(0.9861868332328825 0.01690520662214152 -9.057337745849546e-20)
(1.033482558252361 0.04312082851173817 -2.323507193200149e-21)
(-0.07507155816199916 0.1863893047535084 -1.73821019231229e-19)
(-0.07018524725451492 -0.2873174505646354 -1.295259505896749e-19)
(0.8824519693862533 0.119200409888564 0)
(0.2774405096810473 -0.029003894639853 -3.033980955859797e-19)
(1.00766196578693 -0.004592586410814652 -9.601231557031306e-21)
(1.063944517492455 0.002719191034448229 -2.063983649064389e-20)
(0.9920332498564172 -0.02168346894243432 3.104224483458959e-20)
(1.026652111033304 -0.03047398255634182 2.6923309928908e-21)
(1.00994572695876 -0.03062139250523283 -6.706909168889411e-20)
(0.9888371677285946 0.004878605570228964 -3.491483826411017e-20)
(0.99363258691587 0.005048769015364291 0)
(1.024494459937604 -0.002229139543723836 -3.472365652086655e-21)
(1.931732814803083 -0.1564969825505318 1.066388549185642e-18)
(1.04689310700285 -0.0093607736460995 0)
(0.9966402901085778 0.00800085325873239 1.490042849370924e-20)
(1.003641615250672 -0.00054554556676335 3.991358383729513e-20)
(1.168620807279276 0.1595114785736511 0)
(1.005663787171053 -0.01851309250937469 5.456283840669906e-21)
(0.9531195832370631 0.00377870439101026 0)
(1.037844100343113 0.04172774164870886 0)
(1.301774728165036 0.1500157446555399 2.227932030692614e-19)
(1.076749489101399 -0.0002185849997298033 2.335191692114157e-20)
(1.016007283030916 0.03051874244662806 4.459120214191115e-20)
(1.079271789679713 0.004231575371217999 -2.248317416869984e-20)
(1.056989034831999 -0.02276457688448564 -5.830423447970414e-21)
(-0.3895522354367456 -0.04559783172938246 0)
(0.9996259349381074 0.0125886293896604 0)
(0.123546594623027 0.05346265402104294 -9.479302346958369e-20)
(1.006035406538911 0.02028971351311945 -3.993867190288431e-20)
(1.007001472360348 -0.02694337966468911 0)
(1.001134207967416 0.005305133255037173 -4.868511008033039e-21)
(1.082039424305308 -0.04238847221033151 0)
(0.993984532683642 -0.01869754346259147 -8.142269354336572e-21)
(1.100641656823691 -0.051462451821904 0)
(1.443168059371674 0.1695145429856613 0)
(1.054857298471714 -0.01195214919861622 0)
(0.9914827332502709 -0.02493004897518052 -4.172210290027003e-20)
(0.9936758259423184 -0.02544507061319243 -3.488873424386896e-21)
(1.01641499337239 -0.0218431640139417 -2.167958974487265e-20)
(0.9966101158857986 0.01690756244783921 -5.397376880110388e-20)
(0.9961248983491666 0.009609962976797844 -1.452153150540023e-20)
(0.995461319345312 -0.02774355595927553 0)
(1.001649899438411 0.02407826716273036 1.875299958681835e-20)
(1.045060586979536 -0.02456417908115772 0)
(1.110942266958739 -0.036356708741298 2.529152620366319e-19)
(0.9953382535538933 0.01654955068529078 4.463480242161232e-20)
(0.6150378782466278 -0.008695388806805527 0)
(1.154715843797449 0.1620153775025815 7.679534249207222e-22)
(0.8270954680378626 -0.07933011597914603 0)
(1.138542334294284 0.07258808995049726 -2.794959414477608e-19)
(1.314763879312219 -0.3887382233165148 1.278746501554395e-19)
(1.070592815482245 0.06685903159587157 -1.249979798747632e-20)
(1.011811222262399 -0.03064269360270902 0)
(0.9553262559867608 -0.2149675466455278 0)
(0.5490310985163388 0.1780524541271383 0)
(1.015457172347497 0.01302049715476147 1.083086507006847e-21)
(0.7087382541169083 -0.01599984238106645 0)
(0.9988943485461692 0.01622631920668614 3.438824753881763e-20)
(1.026747307908497 -0.001165950983521217 -2.677140284344006e-20)
(1.079011639374792 -0.008022720552280968 2.63438256560483e-21)
(1.054801972308059 -0.0263528406483854 2.543637901523518e-20)
(1.042880009009426 0.01151002632458755 0)
(1.057086231641085 0.02055389289068062 -8.732758134831143e-21)
(1.050630344630563 0.03628241021384272 -1.76745125784605e-20)
(0.98388079822125 -0.02234198192102911 0)
(0.6248803310459293 0.005111591255118548 9.17013032398154e-20)
(0.8941600306141658 -0.005949846270103953 -8.845617921561716e-20)
(0.9093620298208386 0.005226089297132622 1.451325389528864e-20)
(0.6296469044200285 -0.006441465757714824 1.410792333083914e-20)
(0.9809603525466943 -3.347230049213386e-05 2.46610689113637e-20)
(1.004408755686995 -0.01753728156042423 -3.31526796998562e-20)
(0.9819816055552052 -0.02952026173171271 -2.744564126964447e-20)
(1.08564156602536 0.001587184419937477 0)
(1.019253866878996 0.005334710211522521 1.047380802524701e-20)
(1.13274480295281 0.0482829788704867 1.3481090263995e-19)
(1.03140078892399 0.04245283763287384 0)
(1.022585476682584 0.002605513205085328 0)
(1.582348935968527 -0.1682006724002358 4.36059820719552e-19)
(1.055321889283957 -0.03790338689006648 0)
(1.020897984121566 0.01064922766412436 -3.610735583711864e-20)
(1.08273019126381 0.004742668312874299 0)
(0.49299074188249 0.003482020810409889 0)
(-0.003349577111018105 0.009042442099451441 0)
(0.9911460308517348 -0.0235839934113822 1.252950787168487e-20)
(1.300768368538126 -0.09678589195252528 3.668606795025037e-19)
(1.030880291721053 0.03652165581112946 0)
(1.022531162143629 0.003572103340329501 -2.178792895998552e-20)
(0.931187210274762 -0.1610776054290619 -6.198581205798778e-21)
(1.256348836674279 0.07399894928044774 0)
(0.5980281322094925 0.7302888763949346 0)
(1.307387792670526 0.14086338514309 1.03838813885935e-19)
(1.675038290201339 -0.02663920364065268 0)
(1.063083342020666 0.1327676282165172 0)
(0.7258224865169034 -0.00451632398957966 4.091146699431426e-21)
(1.046269102883097 0.04689655563858915 0)
(0.7500657621675658 0.1154496857272351 1.388936503695698e-19)
(0.9968125191679096 -0.01630488467826975 3.584781749301565e-19)
(1.038922584335257 -0.0393343570153997 2.708109148384339e-20)
(-0.3745893539849069 -0.05419971284367466 0)
(1.072181668159675 -0.01619823668598556 0)
(1.084951764506354 -0.01111224317878295 0)
(0.6481632010948859 -0.5029818346286327 -2.491219755118226e-19)
(0.9901723392773516 -0.0001565407725401246 0)
(1.09225058011074 -0.02195365913111457 6.744144698023871e-22)
(1.188262842980451 0.1207154137116597 -2.045026772239936e-19)
(1.099611365586947 -0.04415665792500029 0)
(1.005807040141722 -0.02074485671528037 0)
(0.7757714548611702 -0.1902660625103117 -1.638700865077109e-19)
(0.8865625714498372 -0.1410924793577191 1.456043755193913e-19)
(1.033996869310931 0.01281202943384241 -2.05303919120084e-20)
(1.023131493941623 -0.009074238936662237 -4.293133277395603e-20)
(0.8729551245012978 0.001385411804669997 1.397872142626444e-22)
(1.503894014120548 -0.1948253402725388 0)
(1.307822538016444 0.1100614651297045 2.991502755644447e-20)
(1.240991907184977 -0.07766827331668341 -3.272300609252182e-21)
(1.095809869911708 -0.01874619885106543 -4.015516098378475e-20)
(1.037012423330016 -0.0180288430405093 3.080868282397672e-20)
(1.092815050474839 -0.03912484371818102 9.545046732492065e-20)
(1.032306150042153 0.02054607998606086 0)
(1.05139306300375 -0.0348371366460614 0)
(1.115898354213716 -0.008992583814921611 0)
(1.10061844683878 -0.03892286906590461 0)
(0.99827869757261 0.01081660113987824 0)
(1.153741802748552 0.08012505603176215 9.407150297744118e-20)
(1.341868537679943 -0.1597406607114628 0)
(1.04042310933655 -0.02712227806765983 -2.595453401731168e-22)
(1.048346424759927 0.05435106738953164 0)
(1.010110168567432 0.01416307012231893 -3.799746834569155e-20)
(1.033585475239397 -0.007649762776298545 9.368416128387697e-21)
(1.088965332001713 0.01339780560668189 -3.17076659722262e-20)
(1.084391781280827 -0.02860168430149559 0)
(1.07251550665356 0.0004447276829754789 0)
(1.101414067376826 0.09250470260387006 -1.39795467231075e-18)
(0.9351237952113977 -0.1490313470636828 -7.10537764535025e-20)
(1.177985602387714 0.1161534475818614 1.145168187364856e-19)
(-0.4560229647340782 -0.03040443991415129 -2.916415202904302e-19)
(1.018241124325952 0.02963678701635802 -8.56262551198357e-20)
(1.007117039459909 0.0003682641949277874 0)
(-0.242246531456816 -0.004016344665817989 3.577935396368015e-19)
(-0.03308056586631018 0.3143826860468378 7.616605712504776e-21)
(0.9952077320527943 -0.006291707821518312 8.977079405780861e-20)
(0.1829587197501427 -0.04482887745058001 1.282213068744504e-19)
(1.087650413004917 0.09117300569402194 1.422518877367999e-20)
(0.0934188003773216 -0.1091588489480069 -5.402675189536016e-20)
(1.108336087141013 0.003090717682847368 0)
(1.094570092095768 0.2491775990588889 0)
(1.021063214164949 0.02163495547273298 -1.67682181919035e-20)
(1.062148988628641 0.05673001752975598 0)
(1.02482354920702 0.02371983810034602 -8.283388429369335e-21)
(1.261727289685806 -0.5483869539821554 7.995746535263442e-19)
(-0.1009774191909907 -0.2399193854500853 2.078258719794739e-19)
(1.300000757365679 0.1110168097801538 -6.125767364774376e-19)
(1.123664796157384 -0.0002135051349080899 0)
(1.127387152427906 0.108010464009595 0)
(0.52020890208787 0.0759823934581923 2.401966076631586e-19)
(1.02326273775941 -0.02038158971844058 9.593911062089724e-20)
(1.006032152769529 -0.02312929439016879 0)
(1.212092925385349 0.2707918893904893 -9.789031168700273e-20)
(1.255641555150387 0.125611282291828 -1.494854881544837e-19)
(1.026499935887183 0.003045674153028428 1.591605857658339e-20)
(1.296665159424645 -0.08517944325595903 -4.950556359613386e-19)
(0.3090717895658047 -0.02382391438819719 2.920584780717462e-19)
(0.8343934693332118 -0.1503565209524564 6.926766984767664e-19)
(1.044839935062358 0.06194173200044707 1.102151970656535e-19)
(1.038696110145049 0.002026464229351704 1.447272876609963e-21)
(1.000740622162779 0.01929017863400522 2.843747698502861e-20)