/*--------------------------------*- C++ -*----------------------------------*\
| =========                 |                                                 |
| \\      /  F ield         | OpenFOAM: The Open Source CFD Toolbox           |
|  \\    /   O peration     | Version:  2412                                  |
|   \\  /    A nd           | Website:  www.openfoam.com                      |
|    \\/     M anipulation  |                                                 |
\*---------------------------------------------------------------------------*/
FoamFile
{
    version     2.0;
    format      ascii;
    arch        "LSB;label=32;scalar=64";
    class       volScalarField;
    location    "19";
    object      p;
}
// * * * * * * * * * * * * * * * * * * * * * * * * * * * * * * * * * * * * * //

dimensions      [0 2 -2 0 0 0 0];

internalField   nonuniform List<scalar> 
808
(
0.110598
0.00999788
0.0423807
0.11065
-0.227134
0.0100625
-0.000767569
0.0182308
-0.127269
-0.0319594
0.0314521
-0.143161
0.0143522
0.00602236
-0.230304
0.0117058
-0.235334
0.00912815
0.0390245
0.00110561
0.039931
0.387152
0.0731236
-0.0127
0.466018
-0.178581
-0.0641654
-0.000115265
0.00861627
0.0139769
0.00473062
0.0111652
0.0199851
0.00417074
-0.0888802
0.63064
0.00821249
0.0228784
0.0120274
0.0161501
-0.0585774
-0.066094
0.0329348
0.0186507
-0.219823
0.0905009
0.0171528
0.00685642
0.00747853
-0.166676
0.00454165
0.00820982
0.0434747
0.00365154
-0.0710842
0.00449685
0.00730952
0.0317173
-0.0275167
-0.000632184
-0.304729
-0.00244842
0.0252106
-0.179213
0.0228965
0.0436115
-0.265454
0.0202679
0.0309381
-0.276983
0.0152175
-0.310182
0.0126913
0.0135909
0.183024
0.0139702
-0.0128919
-0.0498144
0.00444868
0.32471
-0.126058
0.0128296
0.030682
0.270984
0.0194704
-0.0340896
-0.35166
-0.0895085
0.0192446
-0.179853
0.0313325
-0.10733
0.262521
0.163097
0.0394989
-0.244195
0.0174615
-0.146272
-0.113661
-0.224643
0.00870962
-0.00563897
0.0315634
-0.0270656
-0.0959587
0.0588731
-0.262383
0.00705566
0.00224472
0.0256459
-0.0726099
0.342198
0.00977003
0.0128197
0.0179123
0.455305
0.00605618
-0.263743
0.0146193
0.0488262
-0.269042
0.0320209
0.00545933
0.0494783
0.11675
-0.0353854
0.0993785
-0.00355943
0.0236844
0.0675215
-0.286752
0.01495
-0.0547222
0.133689
0.0155227
0.00343518
0.0721788
0.00603624
0.0128801
0.00156818
-0.248678
0.0390412
0.0612337
0.0130415
-0.0169986
0.0511835
0.0880523
0.151074
-0.158209
0.012019
0.0109571
0.354344
0.0222398
0.544157
-0.256822
-0.0875391
0.0109997
-0.225893
0.0626111
-0.111461
-0.293747
-0.252486
-0.293504
0.0107151
0.0596961
0.0175783
0.0136346
-0.303981
0.00591666
0.0236807
0.0312505
0.165495
0.0640866
0.119309
0.0140919
0.0625393
0.0712711
-0.153786
0.0172501
-0.33606
0.0224215
-0.120573
0.00906224
0.260556
-0.25816
0.119048
0.0165679
-0.151579
0.0232442
-0.105697
-0.245673
-0.0739455
0.0145127
0.0742631
0.00974258
-0.232395
0.0148007
0.0185025
-0.000614483
0.0850297
0.0578323
0.0156921
0.0209967
-0.311084
0.382684
-0.234697
-0.287861
0.00374878
0.0307835
0.0112981
0.00446409
-0.384234
-0.274419
0.0130036
0.00896913
0.013724
-0.318258
-0.0182988
0.00206118
0.0206464
0.0172644
-0.0670383
0.018425
0.0177344
-0.000131779
0.0214696
0.127533
-0.273112
0.0178424
0.0059452
0.120851
0.00768239
0.00921144
0.00325801
-0.111817
0.0204185
0.00458286
-0.0010719
-0.000257746
0.0115898
0.00288687
0.00187592
0.00461361
0.000971105
0.000184518
-0.000270985
0.00436043
0.0020745
0.000992167
0.057059
-0.301239
0.00305061
0.010716
-0.108824
0.0053543
-0.00208236
0.0194112
-0.00096149
0.0125956
0.13347
0.0190775
0.00979487
0.00706044
-0.0409061
0.0273335
0.00897591
0.00417106
0.0263484
0.00649926
0.070016
0.014178
-0.38127
0.285452
0.0163705
-0.0978803
0.0142453
0.0149475
0.0119675
-0.20682
0.274936
0.0114647
0.0267954
0.0033453
0.0779087
-0.248061
0.0137783
0.0763
0.0128234
0.0306164
0.0782686
0.0169157
0.0262944
0.00770504
0.0116248
0.0321545
0.0186178
0.0375167
0.0615434
0.0283681
0.035586
0.00543299
0.0146374
0.00569427
0.0128065
-0.49036
-0.0968117
0.0608042
-0.0197236
-0.175773
-0.287597
0.0312265
0.0141508
-0.289495
0.121858
0.152897
0.012904
0.0128967
0.0261483
-0.00165897
-0.21465
0.0300529
-0.000314761
0.0244378
0.0328366
0.0218598
0.0250846
0.0186779
-0.0142138
0.0302846
-0.265619
0.0434745
0.0230041
-0.0510575
-0.0383529
0.00572389
0.239886
0.0364035
-0.159883
0.551504
0.0483212
3.64025e-05
0.0226975
-0.100248
-0.0392596
0.0120432
0.0269407
-0.008559
0.0264125
-0.066759
-0.216384
0.0149193
0.110436
-0.0509321
-0.25626
-0.294307
-0.269811
-0.293267
0.0353594
0.0179416
0.0115724
0.00352273
-0.048135
0.000443766
0.0208949
0.000943406
-0.484873
0.0388793
0.0155917
0.0241133
-0.167622
0.052774
0.0156007
0.105807
-0.334246
0.0301455
-0.0382265
0.0218163
0.0805859
-0.271371
0.00875589
-0.267218
-0.0138641
0.0878137
0.0279451
0.00488018
0.0205474
-0.147088
-0.328018
-0.00411779
0.00479947
-0.0913283
0.0289575
-0.0110226
0.0108002
-0.0175879
-0.0179945
-0.258435
0.030963
0.000235368
0.012784
-0.2274
-0.2432
0.0738388
-0.00584606
-0.0989415
-0.0478397
0.425246
-0.249015
0.00500756
-0.104733
0.00313647
0.0217331
0.0197724
0.0769433
-0.0142606
-0.0317213
-0.0631634
-0.0155463
-0.0080008
-0.0103178
-0.013721
-0.0134642
0.0194467
0.108103
0.0684838
0.0134732
0.00574594
0.0326505
-0.0541674
0.0206658
-0.362983
0.073408
0.0432036
0.014622
-0.207801
-0.278941
-0.0276181
-0.0823292
-0.0470593
0.0207597
-0.308278
-0.229397
0.248201
-0.304448
-0.436145
-0.163815
-0.127271
-0.0621835
-0.255613
0.354371
-0.0696717
-0.278447
0.000305813
0.0511232
0.574481
0.00779389
0.00627937
0.0602262
-0.0598283
-0.0192921
-0.360509
-0.232069
0.02252
0.0557533
0.046954
-0.252375
-0.298088
-0.191625
0.0114833
0.0423481
0.095028
-0.0237863
-0.0628545
0.0809114
0.0180507
0.011036
-0.169336
-0.256604
0.0326163
-0.0684071
0.00894087
0.00986512
0.0723334
-0.0491761
0.0270562
-0.445168
0.454058
-0.216441
-0.267736
-0.0325591
0.012337
-0.261167
-0.251578
0.11412
-0.317065
-0.135232
0.869662
0.00782751
-0.33953
-0.00442333
-0.0799408
-0.0296338
-0.439555
-0.259332
-0.295597
0.00806265
-0.159517
-0.343527
-0.0136688
-0.0286704
0.11959
-0.304084
0.0335278
-0.48136
-0.280198
-0.338876
-0.0621337
0.0143434
-0.00440113
0.109009
0.12304
-0.0377392
-0.267474
0.306931
0.0261521
0.00780173
-0.419383
-0.47813
-0.320661
-0.0280844
-0.331967
0.0203113
0.0700632
0.0442454
-0.173783
-0.222913
0.0105742
-0.28451
-0.238438
0.00269644
-0.0108086
-0.313445
-0.0129092
0.0399256
-0.364388
-0.297911
-0.092222
0.111725
0.0171248
-0.310695
-0.255274
-0.238979
-0.122454
0.0479546
0.10642
0.00278489
-0.273637
-0.25275
0.111628
0.0183204
-0.131878
0.0306356
0.0402877
-0.287552
0.023815
-0.257867
0.0483153
-0.297699
0.0703359
-0.00599039
-0.317734
-0.406479
-0.00198668
-0.454558
-0.441556
0.039652
-0.0440402
-0.251362
0.00989653
-0.275048
0.0159845
0.0950734
0.0577673
-0.316815
0.0243184
0.0935672
-0.409908
0.0195576
-0.275702
0.0135871
-0.302641
-0.461085
0.0967442
0.289145
0.448228
0.00464113
-0.00199001
-0.00339389
-0.324953
0.655477
0.0134676
-0.178262
0.014262
-0.063037
0.0761527
0.500037
-0.323141
-0.0534679
-0.0431397
0.0247336
0.0110902
-0.402705
-0.259113
-0.272239
-0.270975
-0.26551
-0.00504496
-0.345553
-0.0144069
-0.22786
-0.276181
0.529497
0.604874
-0.249514
0.112809
-0.255218
-0.028747
-0.0744256
0.42584
-0.0610192
-0.302307
-0.0474476
-0.462372
-0.0190718
-0.165568
0.00426849
-0.269672
-0.228913
-0.00474371
-0.0019517
-0.307812
0.449958
0.687968
-0.308688
-0.260103
-0.309976
-0.0617269
-0.261861
-0.25222
-0.155623
-0.304782
0.768744
-0.296101
0.748369
-0.397469
0.329738
-0.297522
0.00336276
0.193364
-0.451863
0.225208
-0.234257
-0.268917
-0.296984
0.882141
-0.259276
0.208918
0.146794
0.647455
0.121672
-0.28073
-0.231668
-0.150115
0.00777524
0.11022
0.523827
0.00748263
-0.0149061
-0.253104
0.14248
-0.119595
-0.228241
0.0267947
-0.267705
-0.152367
-0.125424
-0.352818
0.00262808
0.100864
-0.0106827
0.0855829
0.10566
-0.287029
-0.319432
-0.0406334
0.0185795
-0.421946
-0.465736
0.198802
0.209835
0.0856249
0.684452
-0.0781266
-0.329344
-0.344491
-0.25682
-0.0584811
0.104909
0.775209
-0.405559
0.377131
-0.0147951
-0.377759
0.167919
-0.0477949
0.386432
-0.129461
0.0153106
-0.31677
-0.0748989
0.196016
0.819625
0.336468
0.773628
-0.30043
-0.251063
-0.401723
0.188316
0.28318
0.0673932
0.399529
0.137976
0.505358
0.295192
-0.0509172
-0.183598
0.02312
-0.283454
0.893145
0.415611
0.665954
0.522125
-0.233244
-0.302819
-0.254181
-0.276186
0.052406
-0.394059
0.10387
0.611322
-0.331664
0.00588808
-0.277877
0.199115
-0.283895
-0.321241
-0.14287
-0.24052
-0.273533
-0.273116
-0.325396
-0.10915
-0.401574
-0.129297
-0.328579
0.163213
0.658715
-0.184334
-0.307961
0.840166
-0.306488
0.287563
-0.200806
0.390417
0.0853914
-0.295549
-0.351144
0.462414
-0.268881
-0.283865
0.189742
-0.24123
-0.0228591
-0.256151
-0.0894197
0.0250325
0.574406
0.788301
-0.254881
0.226229
-0.274778
0.831815
-0.0144184
-0.273069
-0.0252311
0.769664
0.221455
-0.280688
-0.249213
0.457367
-0.179292
0.0587472
0.371135
0.267928
0.297147
-0.216179
-0.270638
0.697301
)
;

boundaryField
{
    FrontBack
    {
        type            empty;
    }
    Top
    {
        type            zeroGradient;
    }
    In
    {
        type            zeroGradient;
    }
    Bottom
    {
        type            zeroGradient;
    }
    Out
    {
        type            fixedValue;
        value           uniform 0;
    }
    circle
    {
        type            zeroGradient;
    }
}


// ************************************************************************* //
