/*--------------------------------*- C++ -*----------------------------------*\
| =========                 |                                                 |
| \\      /  F ield         | OpenFOAM: The Open Source CFD Toolbox           |
|  \\    /   O peration     | Version:  2412                                  |
|   \\  /    A nd           | Website:  www.openfoam.com                      |
|    \\/     M anipulation  |                                                 |
\*---------------------------------------------------------------------------*/
FoamFile
{
    version     2.0;
    format      ascii;
    arch        "LSB;label=32;scalar=64";
    class       surfaceScalarField;
    location    "19";
    object      phi;
}
// * * * * * * * * * * * * * * * * * * * * * * * * * * * * * * * * * * * * * //

dimensions      [0 3 -1 0 0 0 0];

oriented        oriented;

internalField   nonuniform List<scalar> 
1171
(
-0.945516
0.945516
0.774813
-1.08454
0.309723
-0.196665
-0.782236
0.978901
0.0544842
-0.0678876
-0.276977
0.344864
-0.774813
0.0862425
0.68857
0.924894
-0.21
-0.714893
0.827517
-1.04744
0.219922
-0.355369
-0.0384935
0.393862
-0.00231476
0.602796
-0.600481
-0.596381
0.989248
-0.392867
-0.423256
1.00474
-0.177219
0.223957
0.101743
-0.3257
0.97069
0.0340463
0.272878
-0.0489212
1.00396
-0.0332736
0.708125
-0.904791
-0.786094
0.612598
0.173496
0.229591
-0.825972
0.557462
-0.91381
0.356347
-1.08109
0.671715
0.409375
-0.644202
0.641888
0.0315996
-0.250625
0.219025
0.0396642
-0.643361
0.603697
0.466758
-0.505252
-0.839223
0.879332
-0.0401091
0.991781
0.0121825
0.905578
-1.06304
0.157464
1.01353
-0.0217538
-0.697071
-0.0890233
1.25961
-0.853032
-0.406577
0.174312
-0.0758411
-0.41033
0.486171
-0.2739
0.18607
0.0878299
-0.604296
-0.48024
0.972758
-0.0671797
-0.0306591
0.885064
-0.854405
0.505603
0.754006
0.526955
0.0221191
0.444639
-0.790396
-0.106592
0.896988
0.589063
0.240115
-0.829178
0.0447579
0.613673
-0.658431
-0.51047
-0.57062
-0.38364
-0.679402
0.026363
0.246763
-0.273126
-0.956322
-0.0363153
0.992638
0.37282
0.0210427
0.843083
0.0818109
-0.603201
-0.0410013
0.0356442
-0.826041
0.105876
0.940181
-1.04606
-0.406936
0.0312295
0.375707
-0.718621
-0.237702
-0.746894
0.852769
0.705412
0.283836
-0.578362
1.00269
-0.82157
-0.181118
-0.136989
0.047002
0.0899865
-0.459026
-0.0462256
-0.315061
1.02047
-0.00493667
0.429878
-0.424941
-0.518449
1.10751
0.714469
-0.821061
0.389053
-0.0681534
-0.3209
0.759095
-0.759095
-0.911316
0.0414428
-0.318419
-0.696377
0.665718
-0.0349937
-0.145289
0.180283
0.885335
-0.000270266
1.05125
-0.811132
0.224444
-0.321213
0.0967688
0.964797
-0.121714
-0.673923
-0.0565278
0.730451
0.149475
-0.230725
0.0812492
0.797555
-1.00755
-0.440528
0.309512
0.131016
0.684935
-0.645271
0.865545
-0.392424
-0.473122
0.481906
-0.694104
0.0357314
0.658372
0.135619
0.668584
0.0417891
-0.710373
0.137232
-0.0957891
-0.510799
0.103863
0.0374166
-0.907089
0.869672
-0.541618
-0.759222
0.062151
0.498935
-0.0542963
0.275564
-0.833048
0.557484
0.424591
0.575409
0.599942
-0.564298
-0.384117
-0.00963735
0.393754
0.531671
0.227424
-0.680043
0.724801
0.0886057
0.883797
0.00700153
-0.680924
-0.764836
0.802253
0.612056
0.117281
0.339785
-0.457066
-0.154326
0.559832
0.0538411
0.86033
-0.867217
0.006887
0.662284
0.340404
-0.432663
0.704036
-0.586755
0.408928
0.148534
-0.0563369
-0.684352
-0.243243
0.927594
-0.119726
-0.639369
-0.613542
0.362924
0.250618
0.663311
-0.656309
0.309871
1.03808
0.0131691
-0.764836
-0.182164
0.0451758
0.714469
0.78903
-0.78903
0.844938
-0.830851
-0.0140871
-0.453993
0.878584
-0.193821
-0.316978
0.763441
-0.670394
-0.0930471
-0.937449
0.253098
0.10884
-0.712041
0.821061
-0.975387
-0.198472
0.178161
0.0203113
0.109044
-0.998108
0.889064
0.542942
-0.0159874
-0.288834
0.594894
-0.30606
-0.652691
0.761735
-0.15826
0.676653
-0.834055
0.157402
1.11127
-0.670084
-0.441183
0.732693
-0.0683266
-0.00625966
0.00454188
0.00171778
-0.800223
-0.818501
0.0362648
-0.696377
0.577029
-0.5458
0.210698
0.62038
-0.831078
0.778923
0.166593
0.490741
0.509259
-0.0923408
-0.70116
0.793501
0.930717
-0.0703872
-0.732693
0.802253
0.181109
-0.431734
-0.0192804
0.00389631
0.0153841
0.677132
-0.431754
-0.245378
0.68857
-0.0547344
-0.141847
0.56914
0.107992
-0.0154823
0.00168533
0.013797
0.00450132
-0.010761
0.145242
-0.213395
-0.947289
0.0399688
-0.145036
-0.0532303
0.138232
0.792451
0.742361
-0.166952
0.545579
-0.334881
-0.163531
0.387976
0.639522
0.0490485
0.229092
-1.05994
-0.975387
0.318523
0.665718
-0.163244
0.0179547
-0.83242
1.01559
-0.183174
0.482957
-0.10725
0.801345
0.305896
0.288746
-0.0158683
-0.680922
0.680922
0.227687
0.669301
-0.019846
0.449724
0.466325
0.0185947
-0.0378752
0.544966
-0.00202363
-0.652691
0.571132
0.192309
-0.00611391
0.0106558
-0.639522
0.158375
0.85722
0.0207733
-0.713615
0.692842
0.760948
-0.821642
0.0606939
-0.778923
-0.0361998
0.0505051
-0.0143053
0.0861901
-0.116979
-0.102905
0.219884
-0.00813592
-0.00734638
0.744541
-0.723768
0.954471
0.0244297
-0.336647
-0.578224
0.914871
-0.00103773
0.00103773
0.168523
0.478962
0.519417
-0.99838
-0.192597
-0.549366
0.741962
-0.0188153
0.199098
0.381508
-0.232032
1.06157
-0.582605
0.837299
0.971998
-0.452581
0.187687
0.761735
0.584516
0.233775
0.645556
-0.639369
0.319078
0.0015618
-0.00370287
0.00214106
0.913858
0.084224
-0.998082
-0.551242
0.529488
0.546007
-0.551242
-0.584516
0.529488
0.00489167
0.995456
-0.0409847
-0.531671
0.447801
0.0838699
0.533712
0.640245
-1.17396
0.505652
0.555915
0.670985
0.514051
-1.18504
0.504702
0.467296
0.447801
-0.512602
-0.511543
-0.637813
-0.557171
-0.213675
-0.00683475
0.00683475
0.599724
0.547539
-1.10471
0.700325
-0.36054
-1.04143
0.371347
-0.698121
0.460419
-0.0561487
-0.904725
0.960874
0.453528
-0.10469
1.01855
-1.08354
-1.02987
0.142625
0.887245
0.367621
-0.206882
-0.16074
0.744952
-0.812132
1.00756
-0.947832
-0.0597325
-0.0812404
-0.785976
-0.199008
0.866432
-0.667424
-1.07676
0.995519
-0.580853
0.581088
-0.00023466
-0.71367
-0.0425101
0.75618
0.00399165
-0.00502938
0.424098
0.075976
-0.947721
0.871745
-0.809442
0.717101
1.05054
0.141696
-1.19223
0.0206658
-0.0089166
0.402671
-0.360867
0.0396535
0.907227
-0.963376
-0.689241
-0.816574
0.0305973
-0.141328
-0.942096
-0.00573548
0.423452
0.122127
0.0623563
0.305265
-0.677321
0.634811
0.473122
-1.00941
-0.935063
0.0603932
0.0718876
0.604037
-0.675924
0.0187773
-0.617353
0.579178
0.18177
0.0732843
0.945264
1.13814
0.935538
-0.941274
0.0468808
-0.0468808
-0.0761305
-0.0937425
-0.113139
0.336336
-0.0178125
0.234012
0.964041
0.00276636
-0.0109023
0.657595
0.342405
0.796637
-0.604296
-0.762083
-0.5917
-0.489379
0.489379
-0.208226
-0.110193
0.664542
-0.920285
0.255743
-0.478075
-0.533475
0.334306
-1.01371
-0.939119
0.879386
-0.659733
0.690331
0.66417
0.187634
-0.851804
-0.591935
-0.184196
0.851058
-0.666861
-0.0249222
0.00383664
0.00238066
-0.0062173
-0.0812441
-0.0124984
0.998848
0.668181
-0.311802
-0.356379
0.507441
0.750827
-0.52314
0.0136374
-0.287537
-0.0171452
0.802529
-0.785383
-0.349539
-0.0846408
0.145275
-1.05643
0.0583498
-0.732651
0.100872
0.732156
-0.833028
-0.870789
0.138137
0.70595
-0.790591
0.235411
-0.35239
-0.562003
-0.0299326
0.368114
0.720523
-0.0164872
-0.00113673
0.00113673
-0.00514942
0.0345001
-0.0329383
-0.0160967
0.018863
-0.439876
0.335969
0.775697
-0.813966
0.0382692
-0.673866
0.774738
0.794239
-0.088289
-0.680499
-0.190289
-1.11589
0.0208697
0.0260111
-0.457021
-0.879507
-0.871319
0.464742
-0.13323
0.154807
-0.0215769
-0.297006
-0.160015
0.478136
0.71208
-0.0478643
-0.00536599
1.08636
0.537278
0.174173
-0.711451
-0.317603
0.0205967
-0.00514176
0.0089784
0.70704
-0.950283
0.00504417
-0.00504417
-0.737891
0.758649
-0.0207579
-0.255246
-0.126366
-0.697832
0.188091
0.60541
-0.0550151
-0.882028
-0.390256
0.170525
0.219731
0.735608
-0.697339
0.357716
0.255392
-0.613109
-0.172467
-0.696863
-0.136164
-0.200612
-0.202165
0.469522
-0.515748
0.191634
0.740629
-0.932263
0.481906
-0.160526
0.0272958
0.0507237
-0.252889
0.595639
-0.0958033
-0.499836
-0.286357
0.306904
-0.0205475
0.589813
0.110511
0.0973756
-0.312655
0.170598
0.142057
-0.158059
-0.0241052
-0.332266
0.107336
-0.138487
0.0311511
0.895649
-0.187695
-0.0675508
0.552864
0.314865
-0.626666
0.400161
-0.400161
-0.207007
-0.397938
-0.224395
-0.397938
-0.72749
-0.851664
0.18127
-0.300835
0.733027
0.0498398
0.1238
0.596723
0.110173
0.119713
0.00951837
-0.129231
-0.13031
0.652757
-0.98379
0.405565
-0.0687687
0.0754483
-0.00667957
-0.75515
-0.176493
-0.604026
0.778199
-0.515835
-0.0823823
-0.170506
-0.338713
-0.0799779
0.0799779
0.0493425
0.00116261
0.140582
0.130702
-0.713614
0.109588
-0.0724716
0.472648
0.527352
0.814477
0.0230866
0.00528896
-0.0283755
-0.299234
-0.582794
-0.555793
0.114984
-0.119748
0.00476322
-0.154186
-0.412782
-0.140611
0.746021
-0.587117
-0.168033
-0.0353802
0.0124808
0.26017
-0.494896
-0.198708
-0.191299
-0.0220963
-0.47299
0.433626
0.0393636
-0.0903638
0.294465
-0.865085
-0.536877
0.615711
-0.878862
0.706394
0.440807
-0.028839
0.051944
-0.023105
0.0773994
-0.635936
-0.00806807
0.644004
-0.893349
0.65201
-0.72814
-0.104404
0.00753395
-0.00753395
-0.299018
0.41281
-0.0101388
0.00704251
0.016044
0.595569
0.592814
-0.585927
0.0109388
0.00189866
-0.00303538
0.00530567
-0.00530567
-0.478735
0.589247
0.015104
-0.015104
-0.779473
-0.00877018
0.0127618
-0.520323
0.629911
0.622585
-0.643342
0.0699075
-0.0699075
-0.0231408
-0.0147344
0.00779928
-1.06776
0.626574
-0.500312
-0.00502938
0.606879
0.00714938
-0.614028
-0.713657
0.12654
-0.314645
-0.0138115
0.328456
-0.0272462
-0.0206182
-0.609089
-0.0268474
0.0260111
0.00557623
-0.000532067
-0.00331059
0.00331059
-0.199625
0.230776
-0.471845
0.13506
0.661577
-0.114728
0.00351739
-0.00351739
0.508379
-0.189631
0.00857169
0.0184771
0.000276285
0.570907
-0.760538
-0.693111
0.62556
-0.0875025
0.330913
0.774672
-0.00514942
-0.0824246
0.0930803
-0.629745
0.549333
-0.311834
-0.106778
-0.0299108
-0.0260116
-0.0108077
0.464301
-0.0845836
-0.415253
0.706124
0.00152908
0.00379053
-0.00379053
-0.170664
-0.0689233
-0.571004
0.620844
-0.131744
0.51031
-0.186716
0.894841
0.790895
0.00557623
-0.768475
0.649047
0.0593616
-0.00857703
-0.0507846
0.535196
0.0914413
-0.0115032
0.0637572
-0.052254
0.00819266
-0.00819266
-0.740482
0.0230267
-0.0447934
0.0632705
-0.0855865
0.0855865
0.00189866
-0.00163203
0.743454
0.113766
-0.316357
-0.0964243
-0.519731
0.0239814
-0.0656997
0.0656997
-0.0515163
0.0819216
-0.0819216
0.025545
-0.025545
-0.357122
-0.0755405
0.239718
0.0697946
0.0476401
-0.736998
-0.0637853
0.160142
0.020967
-0.237578
0.081731
-0.081731
-0.466949
-0.0487989
0.229398
-0.010373
0.00226565
-0.664051
0.659159
-0.0191657
-0.0323506
0.0608857
-0.07562
-0.012014
-0.157831
0.169845
-0.149538
-0.202852
-0.0804554
0.0804554
0.0543559
-0.0543559
-0.0283457
-0.0937572
0.122103
-0.0364403
-0.189588
-0.00472152
0.00168614
-0.138101
0.368877
-0.025622
0.49181
0.00866998
0.00512698
-0.0498178
0.0498178
-0.736209
0.315935
-0.128248
-0.207366
-0.023359
-0.0158406
0.0181063
0.193256
0.0266284
-0.0012672
0.00154349
0.0849963
0.029988
0.0560121
0.10413
-0.0134663
0.00810032
-0.00125364
0.00539672
0.00553078
0.00213431
-0.0076651
-0.00189187
0.0101991
0.0275176
-0.0275176
0.0479166
-0.043084
0.043084
-0.190269
0.0105237
0.0299758
-0.0749274
0.0173523
0.0778351
-0.0778351
0.232619
-0.233366
0.0838278
-0.0664377
-0.166928
-0.0153085
0.0153085
0.40743
0.250943
-0.520654
-0.080724
-0.0390235
0.54249
0.0244453
-0.0557961
-0.448042
0.103282
-0.15225
0.168888
-0.0166377
-0.0478472
0.0478472
0.877954
-0.590933
-0.00630929
0.00441741
-0.00560859
-0.286686
-0.000190561
0.00513107
-0.0458306
-0.629918
0.56853
-0.672457
0.0147558
0.134857
0.0158818
0.0242729
-0.157859
-0.333346
0.258419
-0.055184
0.0268383
0.171837
0.135067
0.257993
0.262547
-0.246665
0.00499872
-0.114849
-0.221177
0.0673931
-0.011381
0.158572
-0.134299
-0.0685878
0.153584
-0.417065
0.118692
-0.101339
0.0579385
-0.473191
0.174019
0.178815
-0.247403
0.00893186
-0.178569
0.178379
0.00389585
0.149688
-0.02798
0.0483999
0.459979
0.0122091
0.0153344
-0.0038521
0.0372589
-0.237815
-0.20233
0.591145
0.16802
0.0613781
0.0753869
-0.0636408
0.0325224
-0.0833069
-0.0304125
0.165416
-0.15066
0.0045267
-0.00462315
-0.106204
-0.028881
0.012627
0.251423
-0.00723495
-0.0430976
-0.310101
-0.0100945
0.218469
0.137787
0.178148
0.0572326
0.0964809
0.0637758
0.531793
-0.00891874
0.105346
0.0417934
0.0670035
-0.108797
-0.269711
-0.195019
0.0280907
-0.221768
0.282011
)
;

boundaryField
{
    FrontBack
    {
        type            empty;
    }
    Top
    {
        type            calculated;
        value           uniform 0;
    }
    In
    {
        type            calculated;
        value           uniform -1;
    }
    Bottom
    {
        type            calculated;
        value           uniform 0;
    }
    Out
    {
        type            calculated;
        value           nonuniform List<scalar> 10(1.17664 1.04631 1.14936 1.06062 1.1543 1.02447 1.14726 1.01155 0.607168 0.622333);
    }
    circle
    {
        type            calculated;
        value           uniform 0;
    }
}


// ************************************************************************* //
