/*--------------------------------*- C++ -*----------------------------------*\
| =========                 |                                                 |
| \\      /  F ield         | OpenFOAM: The Open Source CFD Toolbox           |
|  \\    /   O peration     | Version:  2412                                  |
|   \\  /    A nd           | Website:  www.openfoam.com                      |
|    \\/     M anipulation  |                                                 |
\*---------------------------------------------------------------------------*/
FoamFile
{
    version     2.0;
    format      ascii;
    arch        "LSB;label=32;scalar=64";
    class       volVectorField;
    location    "19";
    object      U;
}
// * * * * * * * * * * * * * * * * * * * * * * * * * * * * * * * * * * * * * //

dimensions      [0 1 -1 0 0 0 0];

internalField   nonuniform List<vector> 
808
(
(0.892328 -0.0115187 0)
(1.02123 -0.0366312 0)
(1.16419 -0.0410447 0)
(1.07014 0.0105166 -2.33712e-21)
(1.47684 -0.28527 0)
(0.957103 -0.027565 0)
(1.13216 -0.0547429 -4.30785e-22)
(1.12429 -0.0425384 0)
(1.34938 -0.225548 2.49953e-20)
(1.22874 -0.0899292 -8.36382e-21)
(1.20278 -0.012219 6.95634e-21)
(1.3803 -0.252609 0)
(0.997024 -0.0445761 0)
(0.738732 -0.0227327 0)
(0.915917 0.0754259 1.65526e-20)
(1.07527 -0.0327955 0)
(0.806648 0.0429508 -5.35908e-21)
(0.983444 -0.0349442 -4.24324e-23)
(1.18899 -0.0011971 0)
(1.11728 0.000177489 0)
(1.20947 -0.01565 -9.7077e-21)
(0.928219 0.1227 1.12733e-19)
(1.07555 0.0134559 -1.325e-20)
(1.17794 -0.0403986 0)
(0.95096 0.182562 0)
(1.34937 0.0717279 -2.93479e-20)
(1.28079 -0.174369 8.49392e-21)
(0.955041 -0.0246665 -6.22244e-22)
(1.06971 -0.0242069 0)
(1.03934 0.037309 -2.8782e-22)
(0.978684 -0.0287559 1.47798e-24)
(1.12439 -0.0178618 0)
(1.04443 0.0358321 0)
(1.06917 -0.0210573 6.73338e-22)
(1.30017 -0.076663 8.26628e-21)
(0.742506 -0.116457 1.11511e-19)
(0.872366 -0.0293579 -4.01651e-21)
(1.02127 0.0317082 1.05906e-21)
(1.19675 0.0558364 -1.30087e-21)
(1.0898 0.0246378 0)
(1.25745 -0.0710443 -1.58325e-20)
(1.27405 -0.133402 0)
(1.00851 -0.00201042 -7.21605e-21)
(1.12349 -0.0374468 6.32665e-21)
(1.25872 -0.034262 0)
(1.01132 0.0178562 -1.99276e-20)
(0.991506 0.0396119 1.45197e-21)
(1.25323 -0.248756 6.0524e-21)
(1.17922 0.0535411 -2.22457e-21)
(1.40341 -0.17666 -3.61094e-20)
(1.12828 -0.0529973 1.57577e-21)
(1.14848 -0.0703631 0)
(1.12085 -0.000367009 6.43118e-21)
(1.14065 -0.0135726 0)
(1.31865 0.239334 3.67134e-21)
(1.07578 0.0449855 -8.88317e-22)
(1.19386 -6.73907e-05 0)
(1.22311 -0.050444 2.95815e-21)
(1.23299 -0.0951439 8.978e-21)
(1.14934 0.0293855 4.27404e-22)
(-0.276749 0.195914 0)
(1.21545 -0.213737 -6.97929e-21)
(1.21009 -0.0516897 0)
(1.41799 -0.0859823 -2.74715e-20)
(1.14608 -0.0402783 -7.00253e-21)
(1.04147 -0.0292516 -7.06591e-21)
(1.3477 -0.114375 2.80508e-20)
(0.636299 0.0169451 0)
(1.14437 -0.0388893 0)
(1.44458 -0.351486 0)
(0.887486 0.0311976 -1.25922e-22)
(1.25308 -0.138887 -4.1102e-20)
(1.00663 0.0525042 0)
(1.05929 -0.0424474 -2.16906e-21)
(1.1244 -0.335918 -5.64245e-20)
(1.12049 -0.0425753 -7.4289e-21)
(1.14752 0.018876 4.76746e-22)
(1.31511 0.497453 2.45735e-20)
(1.10744 -0.0457904 0)
(1.01196 0.28063 -1.87511e-19)
(1.36354 0.0406277 1.69132e-20)
(0.733797 0.018454 0)
(0.841147 0.0323983 -7.64547e-21)
(0.969033 -0.110086 4.22554e-21)
(1.11725 -0.0475288 6.04088e-21)
(1.19145 0.00762524 1.55512e-21)
(1.28997 -0.234457 0)
(1.34358 0.289082 0)
(1.09077 -0.000400398 -9.02462e-21)
(1.39309 0.110525 3.32345e-20)
(1.07825 -0.020687 1.02396e-20)
(1.31883 -0.122007 -1.41819e-21)
(0.964539 0.0255158 1.75524e-20)
(1.00413 -0.0235046 0)
(1.11701 0.0178298 1.46782e-21)
(1.28848 -0.0518297 -7.00712e-20)
(0.754509 0.0172113 -2.01331e-21)
(1.37479 -0.0447256 0)
(1.32075 -0.0915554 0)
(1.42168 -0.0800244 -4.4458e-20)
(1.10137 -0.0486626 -1.97055e-21)
(1.12601 0.00644171 1.89274e-23)
(0.951561 0.0210708 8.98762e-21)
(1.1844 -0.00712649 -5.60499e-22)
(1.30945 0.0119755 -2.22576e-20)
(1.00171 0.00672432 1.30854e-20)
(1.482 -0.0520482 0)
(0.93061 0.084198 0)
(1.10053 0.0304814 1.61125e-21)
(1.20366 -0.219387 -6.96706e-21)
(1.27038 -0.00134561 1.16383e-20)
(1.04607 0.0457771 -1.24294e-19)
(1.16122 0.0387092 -4.96922e-22)
(1.2205 0.14484 2.22736e-21)
(0.793302 0.0185644 0)
(0.917817 -0.0486212 7.62566e-20)
(1.14908 0.0180873 -2.14354e-21)
(1.43841 -0.260802 -1.81173e-20)
(1.12477 -0.0476847 -4.77383e-21)
(0.925964 0.0166531 2.44637e-21)
(-0.42716 0.00220706 0)
(0.863612 -0.0175162 2.30859e-21)
(0.803995 0.0224881 0)
(1.06291 0.00269002 -7.9967e-23)
(1.01209 0.0291289 0)
(1.30725 0.324469 5.76327e-21)
(1.03515 -0.053162 -2.975e-20)
(1.38789 0.139275 -2.19681e-23)
(1.14898 -0.0663477 0)
(1.09217 -0.0225336 0)
(0.626779 -0.00949481 0)
(1.12849 -0.0404836 -2.38072e-21)
(1.24509 -0.0527944 9.08379e-21)
(1.06611 0.112389 -3.44385e-20)
(0.849964 -0.0248833 0)
(1.10527 0.0216857 -4.98055e-22)
(1.07797 0.0885859 4.10401e-21)
(1.16126 0.027553 -1.17771e-21)
(0.992039 0.0335231 2.05622e-21)
(1.1295 0.00482217 -1.58673e-23)
(-0.0151195 0.0474652 0)
(1.09588 -0.0244899 -1.14116e-20)
(1.08245 -0.0164651 3.14681e-21)
(0.722258 0.0263204 -1.95272e-21)
(1.25849 0.174267 3.57865e-21)
(1.10149 0.171912 3.62549e-21)
(1.04883 0.017219 1.547e-20)
(0.990834 0.0260569 0)
(1.19903 -0.126521 -2.75113e-20)
(1.07988 0.0859102 0)
(0.939172 0.0322313 3.96127e-21)
(0.967455 0.279767 1.49879e-19)
(0.968561 0.0362887 0)
(0.818112 0.0965585 0)
(-0.100119 0.0373842 -6.33239e-20)
(1.34185 0.141473 -1.10775e-20)
(0.676061 -0.0235477 0)
(1.44806 0.0567727 0)
(1.11408 0.0148633 0)
(1.35778 0.107605 1.28289e-20)
(-0.0467225 -0.105054 0)
(-0.0561577 0.0562011 3.00417e-20)
(1.01943 -0.0382369 8.45279e-20)
(1.00559 0.0393675 3.79113e-22)
(0.862487 0.000405253 0)
(1.03964 -0.0497653 7.00554e-21)
(0.893119 0.0219808 0)
(0.757297 -0.0216136 -9.13475e-20)
(1.03293 0.0500359 3.97705e-21)
(1.13831 -0.0441666 2.32101e-21)
(1.09625 0.00856455 4.59773e-21)
(1.01385 0.0695197 -1.22032e-20)
(0.784322 0.157936 -3.60932e-21)
(1.13849 -0.350216 5.55823e-22)
(0.915004 -0.0253695 0)
(1.06961 -0.000106272 -1.22861e-20)
(0.875182 0.00955333 -1.07837e-20)
(1.37607 -0.166059 2.15321e-21)
(0.687908 0.0281961 0)
(1.05379 -0.142122 0)
(1.12939 -0.0503613 2.85448e-21)
(1.38606 0.220303 8.75476e-21)
(1.11751 0.0147262 2.88901e-21)
(1.03634 0.0171597 1.91653e-20)
(0.681787 0.0889006 -7.1249e-20)
(0.814378 0.00383171 1.96091e-20)
(1.13769 -0.0194523 3.26559e-21)
(1.37464 -0.0684017 -4.92244e-21)
(1.11971 -0.0447777 -4.25412e-21)
(1.31302 -0.046998 4.21803e-21)
(-0.101775 0.0668857 4.5851e-20)
(1.26965 -0.034729 0)
(0.609588 -0.0179282 0)
(1.06232 -0.0280864 -5.93979e-21)
(1.10087 0.0106511 2.87629e-21)
(0.0292628 0.0868534 0)
(0.879112 -0.0244776 2.86095e-22)
(1.13321 -0.0543376 -1.94316e-21)
(0.965757 0.0173166 2.03142e-22)
(1.07876 0.0403589 -7.47564e-21)
(1.0079 0.0196639 2.67071e-21)
(1.05107 -0.0488118 1.7141e-21)
(1.04559 0.0316415 0)
(0.349301 -0.0393213 0)
(1.0479 -0.0637386 0)
(1.12368 0.112802 -2.54714e-20)
(-0.048921 -0.101804 4.6139e-20)
(1.07096 0.028399 -2.59255e-24)
(1.13885 -0.0187753 0)
(0.757966 0.0216852 -3.80872e-21)
(1.11222 0.04021 1.27259e-21)
(-0.00455657 -0.0398065 -1.52335e-19)
(0.806804 0.0274358 -5.00218e-20)
(0.626544 -0.019413 0)
(0.925699 0.0507953 0)
(0.923893 0.0379919 5.18681e-21)
(1.02384 -0.110457 5.89229e-21)
(1.27319 0.398375 -3.38889e-21)
(1.08604 0.0177257 -1.05322e-23)
(1.19758 -0.0650719 -2.43845e-21)
(0.999829 0.0700809 0)
(1.35618 0.424218 -3.19734e-20)
(0.650969 -0.0230487 0)
(0.798552 -0.020438 -2.258e-21)
(1.05206 -0.0148076 5.09693e-22)
(0.576338 0.0143877 0)
(1.09977 -0.00632637 0)
(0.034894 0.0598712 -4.23478e-20)
(1.18338 -0.124191 -2.97396e-21)
(0.720623 -0.0136122 7.36522e-22)
(0.990635 -0.00265334 0)
(0.534115 -0.0191569 0)
(0.755366 -0.0174986 -1.75697e-21)
(0.52209 -0.0181663 -4.38277e-22)
(1.3521 0.0423328 3.19535e-22)
(1.24265 0.00320891 -2.27954e-21)
(0.693244 0.0159824 -1.24411e-21)
(1.12722 -0.00908427 -3.58879e-23)
(1.12842 -0.00985727 9.92427e-24)
(0.533957 0.0207183 3.63544e-21)
(1.21515 -0.0179115 3.064e-22)
(1.17549 -0.0370502 0)
(0.928648 0.0439473 0)
(0.482084 0.0212512 0)
(1.04523 -0.00694862 0)
(1.14959 0.00945403 -2.86069e-22)
(1.05767 -0.0176612 0)
(1.15333 -0.0198904 0)
(1.02701 0.00900339 0)
(1.1051 0.118251 0)
(-0.0269644 -0.0508579 4.6666e-20)
(1.19981 0.013187 2.48443e-22)
(1.10461 0.0424195 0)
(1.32173 -0.00024463 1.45042e-20)
(1.15825 0.0391024 6.3263e-22)
(1.1238 0.0443516 -5.09482e-22)
(1.12677 -0.0715574 3.43112e-21)
(1.1516 0.00583715 0)
(0.560303 -0.0168372 4.1111e-21)
(1.0515 0.0447226 1.18688e-20)
(1.27391 -0.106837 0)
(1.18657 0.000904134 -1.36906e-21)
(1.19138 0.0561553 1.69117e-21)
(0.686869 0.0602543 4.93521e-21)
(1.12973 0.0234452 4.72173e-21)
(1.17651 0.00958023 -3.62445e-21)
(1.08444 0.0624954 0)
(1.18148 0.125483 -1.09147e-20)
(1.18977 0.0822172 -1.04868e-21)
(0.689483 -0.0221826 1.33383e-20)
(0.845361 -0.0575883 0)
(-0.0172103 -0.022929 0)
(0.973553 0.111777 -1.79441e-20)
(1.12881 -0.0195765 0)
(1.31858 -0.100548 3.23701e-20)
(1.2126 0.0429724 4.07892e-22)
(1.13567 0.0216624 3.48431e-21)
(1.17725 0.0489769 -1.54021e-21)
(1.35277 -0.0152243 1.0006e-19)
(1.0196 -0.32597 5.69655e-20)
(1.12392 -0.0518495 -4.25386e-23)
(0.931006 -0.0680053 0)
(0.91513 0.0313041 0)
(0.902496 0.00250446 -2.59265e-20)
(1.3271 -0.127201 -6.09684e-20)
(1.12394 -0.0184675 0)
(0.607844 0.122731 1.74516e-20)
(0.393651 0.0600434 0)
(0.752858 -0.0883187 6.08523e-21)
(0.793364 0.0575365 -2.03293e-20)
(0.806948 0.0272965 -3.20131e-21)
(1.16271 -0.0685135 0)
(1.28316 0.0645222 -4.75805e-22)
(1.18869 0.0426827 2.67561e-21)
(0.758243 -0.110701 -5.49119e-21)
(1.15905 -0.027382 -3.08727e-21)
(0.758928 -0.0994556 0)
(1.09262 0.0731606 0)
(1.13503 -0.103889 5.44766e-21)
(0.840602 -0.106347 -6.14715e-21)
(1.29478 0.0852894 1.88456e-21)
(1.11433 -0.0371817 -2.43757e-21)
(1.0208 -0.00604338 1.93617e-22)
(1.08982 -0.0185443 0)
(0.418424 -0.139166 1.38471e-20)
(1.34343 0.0982121 -2.10266e-20)
(0.83892 -0.0508406 -1.56063e-20)
(0.0380705 -0.15036 -5.21907e-21)
(1.41969 -0.133644 2.47525e-20)
(0.886418 0.0284575 6.56355e-20)
(1.25252 -0.0681729 -5.61485e-21)
(1.092 -0.0405084 2.79514e-22)
(-0.0630972 -0.0924618 -7.88882e-21)
(1.00055 -0.00658283 0)
(1.03288 -0.0868913 -1.59187e-20)
(0.855158 -0.0338656 4.43885e-21)
(1.10344 -0.0467214 2.57645e-21)
(0.846205 -0.0860703 1.31116e-21)
(0.507642 -0.0175148 -7.04585e-22)
(1.41659 -0.383689 -1.55683e-20)
(1.09899 0.0385591 0)
(1.01136 0.009158 3.34113e-22)
(1.12643 0.0341275 -2.00647e-21)
(1.22248 -0.0156961 0)
(0.760971 -0.00397515 -8.38142e-21)
(1.11806 0.044576 2.44714e-21)
(0.737532 -0.0475542 7.83894e-21)
(1.15407 -0.051456 8.97531e-21)
(0.857223 -0.0590958 4.77688e-21)
(-0.0369147 -0.0409754 0)
(0.313411 -0.00119554 9.15165e-21)
(1.13477 0.021993 0)
(0.998638 0.0386874 9.14798e-21)
(0.974672 0.130911 0)
(1.13319 -0.00875237 1.02197e-21)
(1.01649 0.0271891 0)
(1.07257 -0.0480586 0)
(1.38984 -0.115193 2.04931e-20)
(0.79719 -0.0884961 0)
(1.12467 -0.00196372 1.59898e-20)
(1.10436 -0.00455004 3.35934e-23)
(1.04198 0.0370318 2.41122e-21)
(1.31551 -0.0678769 -1.89762e-20)
(1.24394 0.127649 -4.08558e-21)
(1.27164 -0.101135 5.42527e-21)
(1.12223 0.039349 0)
(1.15914 -0.0511951 0)
(1.09195 0.05907 1.83888e-21)
(1.23916 -0.0373172 0)
(1.39287 0.218579 -2.28325e-20)
(0.811285 -0.003722 1.7464e-21)
(1.02715 0.0171574 2.16457e-20)
(1.25492 0.000895991 -2.87912e-22)
(-0.010581 -0.0120133 0)
(-0.0350395 -0.0790653 0)
(0.0210927 0.112283 -3.99929e-20)
(-0.0630483 -0.0863762 0)
(0.6504 0.0787722 -5.57866e-21)
(1.17538 0.0467424 -1.37626e-21)
(1.14138 -0.0372988 -3.3476e-21)
(1.20812 -0.121374 -7.62704e-21)
(1.21917 -0.0577484 0)
(0.686525 -0.00660211 -2.94101e-22)
(1.1305 0.0768919 0)
(1.10195 0.0141148 9.60582e-23)
(0.507791 -0.109714 0)
(0.699655 0.0688801 -3.26195e-22)
(1.12695 0.0794972 0)
(1.15451 0.031357 0)
(0.577442 0.0804569 3.80193e-20)
(0.50013 0.153213 -1.58433e-21)
(0.923532 0.0832949 2.40883e-21)
(1.01033 0.0176744 -8.80682e-21)
(0.192523 -0.0735971 0)
(1.2247 -0.0317245 -1.52696e-20)
(1.25165 0.0444827 -6.22244e-21)
(1.18002 -0.0785277 1.64621e-21)
(0.544342 0.0558043 1.11717e-20)
(-0.0519767 -0.0642004 -9.45197e-20)
(1.17192 0.0876685 0)
(-0.0322926 0.0344565 0)
(1.21858 0.0763348 -1.78606e-21)
(0.323124 0.0855363 -1.20218e-20)
(1.13792 0.0324727 -9.92799e-21)
(1.10868 -0.0452055 0)
(1.15581 -0.0310126 2.37619e-21)
(1.27008 -0.254673 2.62782e-20)
(0.552892 -0.0462228 -9.75562e-21)
(1.14497 -0.0398587 7.91513e-22)
(1.1553 -0.0629174 -7.94318e-23)
(0.359467 -0.282546 3.30498e-20)
(1.20499 -0.0642568 -1.25873e-20)
(1.1447 0.0300936 0)
(1.16639 0.0957151 0)
(1.17741 -0.0853911 4.61099e-21)
(1.216 0.0528101 5.62343e-21)
(0.816737 -0.208558 -7.7286e-20)
(1.19259 -0.118319 -1.26552e-20)
(1.14118 0.0547779 7.26705e-22)
(0.498841 -0.000837939 9.26794e-21)
(0.271806 0.086385 -7.2703e-20)
(0.14432 -0.131726 4.62054e-20)
(1.17096 0.18793 -6.45559e-21)
(1.23726 -0.495875 5.66684e-21)
(1.36112 0.0347474 -1.35926e-20)
(1.20445 -0.0623864 -5.4643e-21)
(0.937818 -0.235763 9.41267e-20)
(-0.367995 -0.0610106 0)
(1.18463 -0.00395735 -3.93342e-22)
(-0.177938 0.0121601 -2.40901e-20)
(1.20045 0.10267 1.54557e-21)
(1.20643 -0.0789064 4.01267e-21)
(1.08094 0.0361675 0)
(0.512602 -0.0527768 0)
(1.17058 -0.0537193 0)
(1.32359 0.128036 -5.2622e-21)
(1.2536 -0.0287344 -2.38903e-20)
(1.15085 -0.0476464 -3.81659e-21)
(0.453428 0.0119604 0)
(0.61366 0.00190477 0)
(0.629402 0.00531854 7.56358e-22)
(0.441305 -0.00876278 0)
(1.20418 0.0380911 0)
(1.02182 -0.0145629 2.34133e-20)
(0.215138 -0.172448 0)
(0.918768 0.0421162 0)
(1.10814 -0.0117932 0)
(1.17121 0.186832 -8.81029e-21)
(1.26404 0.0181806 9.45499e-21)
(0.96623 -0.0318684 5.65337e-21)
(1.29843 -0.401519 -1.1026e-19)
(0.544478 -0.221596 2.00152e-21)
(1.22029 0.102275 4.57137e-21)
(1.18178 0.0188536 0)
(-0.270541 -0.0431756 0)
(-0.223876 0.162118 0)
(1.16939 -0.0379971 -7.14069e-21)
(1.32296 -0.2901 -2.67068e-20)
(1.34838 0.0576898 0)
(1.07403 0.0510154 -5.88726e-21)
(0.55019 -0.0399505 0)
(1.50989 -0.163063 7.42994e-20)
(0.410381 0.516963 1.19699e-19)
(0.292125 -0.0483515 0)
(1.10474 -0.277744 1.18361e-19)
(0.0710059 0.102931 0)
(-0.203503 -0.35689 1.18407e-20)
(1.33864 0.055552 0)
(-0.219192 0.100949 3.31174e-21)
(0.983513 -0.049924 0)
(1.2781 -0.128641 -1.42925e-20)
(-0.13615 0.0119014 -7.67796e-21)
(1.12685 -0.0337487 -2.36099e-22)
(1.14808 0.0247714 -7.79407e-21)
(0.575175 -0.519216 -9.16811e-20)
(1.14684 0.0500217 -9.90216e-22)
(1.19424 -0.127504 2.99879e-21)
(1.17819 0.250374 -2.26824e-20)
(1.15675 -0.242518 -3.03756e-21)
(1.16844 -0.0207571 -9.78055e-22)
(-0.0550243 0.0622803 -6.45687e-20)
(0.0269404 0.0889148 -6.6078e-21)
(1.30431 0.151032 2.55026e-21)
(1.0577 -0.0499708 0)
(0.540316 0.18049 -3.01883e-21)
(1.40637 -0.442535 8.38332e-20)
(0.944438 -0.074599 -6.17191e-20)
(1.41662 0.166036 6.74846e-20)
(1.08475 -0.0398856 2.06551e-21)
(1.16358 -0.00676149 1.09903e-20)
(1.06173 -0.00734206 0)
(1.18011 -0.0283079 0)
(1.25504 -0.107868 4.62081e-21)
(1.08746 -0.0201217 -4.55057e-21)
(1.13377 -0.177997 3.6722e-21)
(1.10276 0.0584142 -3.41162e-21)
(1.41308 -0.0318976 -4.42605e-20)
(0.412884 0.0294299 0)
(1.15654 -0.0732366 7.23042e-21)
(1.31204 0.0307286 0)
(1.12264 0.0646869 -8.38539e-22)
(1.14613 0.0258643 0)
(1.04128 -0.00915554 1.19013e-20)
(1.24028 0.0409568 1.45072e-20)
(1.05277 0.0172565 0)
(0.0558477 -0.0289663 1.5999e-19)
(0.883575 -0.214607 -7.38273e-20)
(1.24855 -0.00154565 -2.7634e-20)
(-0.108411 -0.0124995 3.88486e-20)
(1.19552 0.0254264 3.19542e-22)
(0.740468 0.0590527 -2.68913e-21)
(-0.091243 0.00580007 -4.04993e-20)
(-0.0209166 0.00325315 -2.51614e-20)
(1.01992 -0.0296212 0)
(-0.0315314 -0.0403482 0)
(1.17728 0.0173059 0)
(0.112193 -0.106652 0)
(1.11617 -0.0302387 0)
(0.141597 0.029181 0)
(1.13099 0.0408953 0)
(1.14566 0.0193815 0)
(1.40084 0.0945846 2.16401e-21)
(0.579274 -0.287032 -2.17684e-20)
(-0.122391 0.124464 0)
(1.14788 -0.0886397 6.42317e-20)
(1.28104 0.0590392 1.46796e-21)
(1.24587 0.0164164 0)
(-0.0378161 -0.0429854 0)
(1.166 0.0125426 3.25513e-21)
(1.1753 -0.0101796 -1.98924e-21)
(1.16473 0.389556 0)
(0.269265 -0.0703539 6.29087e-20)
(1.1229 0.0621434 1.22459e-21)
(0.237796 -0.0516451 -5.40746e-20)
(-0.0596791 0.0419157 -2.89297e-20)
(-0.0360586 0.0487088 7.57503e-20)
(0.145813 -0.111697 1.39578e-20)
(0.981799 0.0540806 2.53043e-21)
(1.15159 0.0622655 2.02786e-21)
(1.02385 -0.00755584 0)
(1.07021 -0.0693049 -2.09674e-20)
(1.2492 0.0217348 -1.01624e-20)
(-0.0106535 -0.0313111 9.63367e-20)
(0.97989 -0.0728954 -5.91801e-20)
(0.76156 0.142968 5.92244e-21)
(1.16953 0.0728914 -1.30101e-21)
(0.0768361 -0.0308357 3.46691e-20)
(0.24983 -0.0375823 -4.9009e-20)
(0.421119 -0.0532001 -5.7047e-20)
(1.2776 0.109528 -6.92959e-21)
(-0.0552307 -0.0407254 0)
(1.07417 0.198227 -5.7699e-22)
(1.07295 -0.104429 1.85068e-20)
(1.12704 -0.103615 -1.78444e-20)
(1.25045 0.029451 0)
(1.51735 -0.22317 7.45768e-20)
(1.13946 0.0418254 -1.82296e-21)
(-0.0167299 -0.0435351 -3.32435e-20)
(0.251422 0.0866565 0)
(0.891116 0.0364481 -4.06836e-22)
(1.13424 0.0186812 -6.22584e-22)
(0.808514 -0.120693 2.67848e-20)
(1.16995 0.0119113 -6.62974e-22)
(1.11899 0.0535882 0)
(1.14911 -0.169385 -1.51367e-20)
(-0.0897766 -0.0367135 -6.69475e-20)
(1.3051 -0.0295391 2.10838e-20)
(1.10059 0.175572 -8.6798e-21)
(1.09625 0.0646944 3.90183e-21)
(-0.0438907 -0.0662403 1.57403e-20)
(-0.0202961 0.0262858 -5.76103e-20)
(0.676391 0.0823724 0)
(0.682631 0.101383 0)
(1.15246 0.103812 -1.74948e-20)
(1.05149 0.0704243 1.28859e-20)
(1.09206 0.013442 0)
(0.523621 0.04349 4.82083e-20)
(0.702243 0.089492 -1.02081e-20)
(1.09864 0.111707 0)
(1.08351 0.05803 0)
(1.28893 0.0372022 0)
(1.19727 0.00206482 0)
(1.14068 0.0646314 3.36897e-21)
(-0.0428514 0.0429382 3.15949e-20)
(1.24318 0.0245687 4.8199e-21)
(1.41404 -0.186296 -8.48538e-20)
(1.18474 0.034403 -5.06888e-21)
(0.0125981 0.150994 0)
(1.12783 -0.0455869 0)
(0.624398 -0.00715997 7.18154e-22)
(0.518552 0.0090497 -5.43016e-20)
(0.0656713 0.036778 4.43994e-20)
(0.938819 0.013843 -7.71258e-22)
(0.746819 -0.273394 0)
(0.68338 -0.0908271 0)
(1.14253 0.00178847 0)
(0.537373 0.511136 1.766e-20)
(-0.0129356 0.0112879 -2.76209e-20)
(1.11774 0.0534105 -2.7758e-21)
(-0.0233545 -0.0650987 6.36551e-20)
(1.13434 -0.0452245 1.30914e-21)
(1.17117 0.316675 4.32628e-20)
(1.11231 -0.0871819 7.65305e-21)
(0.305121 0.0572805 8.44382e-20)
(1.10625 0.171508 1.53721e-21)
(1.03483 -0.0205977 0)
(0.552218 0.268928 0)
(0.893315 0.0169602 4.67468e-21)
(-0.186605 0.0911296 0)
(0.60628 0.0289763 1.55635e-21)
(0.605864 -0.418931 -3.17465e-21)
(0.230735 0.0489742 -1.05334e-19)
(1.12585 -0.227419 3.09202e-20)
(1.03619 0.363996 1.0413e-20)
(0.979685 0.0177444 0)
(1.21629 0.00397384 1.27758e-22)
(0.627917 0.0114282 0)
(0.989594 -0.00471861 -9.35249e-22)
(0.44459 -0.0192057 0)
(0.71197 0.128036 0)
(1.00243 -0.0227899 -2.8305e-21)
(1.43175 0.182815 -1.22546e-20)
(1.11612 -0.0483189 1.2711e-21)
(0.523764 -0.493605 0)
(1.13495 -0.155161 1.82154e-21)
(0.802868 0.377359 7.19099e-20)
(-0.0413938 0.0205106 1.06568e-21)
(1.23473 -0.0154858 1.116e-20)
(1.22505 0.040181 -1.11764e-20)
(1.16297 -0.0829895 5.64121e-22)
(0.789246 0.00745998 -2.76423e-21)
(0.0574732 0.0186392 3.40366e-20)
(-0.0173078 -0.0341639 -5.37559e-20)
(-0.178396 0.111007 0)
(-0.167917 0.217531 0)
(1.18809 -0.616326 3.24358e-20)
(1.15635 -0.0283675 9.54381e-22)
(0.891175 -0.46604 -4.37997e-20)
(1.07834 0.161384 4.69702e-22)
(1.35491 0.206811 3.04235e-20)
(0.599224 0.417732 0)
(0.245495 0.413782 -1.16989e-19)
(0.594262 0.479654 0)
(-0.0121223 0.111435 0)
(1.12395 -0.479692 0)
(-0.0421121 0.0120579 -1.17064e-22)
(1.19673 -0.0177816 0)
(0.786605 0.0121773 -1.15298e-20)
(0.592309 0.690283 2.01893e-20)
(1.29243 0.0811695 9.49992e-21)
(-0.0367243 -0.0999902 -1.11553e-19)
(0.570679 -0.0877277 -1.03363e-20)
(0.443161 0.142941 -1.26996e-20)
(1.20866 0.0991161 0)
(1.35357 0.360981 3.07087e-20)
(1.21801 0.566814 4.30906e-21)
(0.148398 -0.0133881 -2.00512e-20)
(0.976287 0.136607 2.82004e-20)
(0.934587 -0.0188401 -3.59847e-22)
(0.896008 0.0224396 2.22734e-22)
(-0.00415029 -0.0363586 0)
(0.647731 -0.654658 -3.02828e-20)
(0.613049 0.199571 0)
(0.0693542 -0.0811885 0)
(-0.0442911 0.0472399 0)
(-0.00789639 -0.0930439 -4.24806e-20)
(1.24911 -0.00275671 -1.28148e-20)
(-0.0342353 0.0451924 0)
(-0.028535 0.0338175 0)
(1.45608 0.127736 -6.51799e-20)
(-0.0393171 -0.0859547 5.04124e-20)
(0.114491 0.233246 -1.01945e-19)
(0.37188 0.0170599 0)
(0.169876 -0.279384 8.14974e-20)
(1.0931 -0.239658 0)
(0.996608 -0.285179 0)
(0.00174125 -0.0895794 1.05574e-19)
(1.15336 0.0404802 -7.26657e-23)
(1.12236 0.344101 2.94563e-20)
(0.252385 0.0281946 4.30756e-20)
(0.404365 -0.518903 -3.71079e-20)
(1.25964 0.0939799 0)
(1.1993 0.200288 2.00656e-20)
(1.20556 0.216436 -2.46502e-20)
(0.102271 0.0874275 -2.35616e-20)
(-0.060669 -0.00763078 0)
(1.07014 -0.0583638 -1.94713e-20)
(1.10321 -0.223599 -1.52302e-20)
(0.583471 -0.405925 0)
(1.09738 -0.149811 -2.57356e-20)
(-0.0845679 0.196847 0)
(0.561899 0.0450499 0)
(1.40577 0.00600688 3.37607e-20)
(0.981796 0.0317583 2.42182e-22)
(1.07388 0.74396 -1.85154e-20)
(0.22571 -0.379929 1.31935e-19)
(1.09854 0.0415822 3.04273e-22)
(1.20997 0.0805439 -4.15618e-22)
(-0.0441405 0.0459393 2.74591e-20)
(0.783008 0.730505 3.08635e-20)
(1.34997 -0.368991 -1.34381e-20)
(-0.158781 0.0652319 6.34191e-20)
(1.12583 0.0330799 0)
(0.17956 0.067292 -7.05756e-21)
(0.900342 -0.636664 2.86341e-21)
(0.893784 0.638851 -1.60301e-20)
(0.55423 -0.0341851 -6.43078e-20)
(1.14898 -0.00529459 -1.16921e-21)
(1.07554 -0.0843204 6.72659e-21)
(1.17239 0.0499557 -1.55501e-21)
(1.10578 0.122963 4.77909e-21)
(1.13285 -0.12828 0)
(0.887638 0.112858 1.29034e-20)
(0.877936 0.456669 0)
(1.31634 0.0720558 4.32326e-21)
(1.16952 0.118019 5.12763e-22)
(0.740708 0.262654 0)
(0.508277 0.109305 1.00465e-19)
(0.890191 0.710977 -9.02408e-22)
(1.07536 0.291781 -2.2622e-20)
(1.04323 -0.0104852 1.1683e-20)
(0.414622 0.490278 0)
(1.29746 -0.473325 0)
(0.667318 0.0201946 5.59612e-21)
(1.25539 0.504489 0)
(-0.0264738 0.0480096 -3.83035e-20)
(1.28472 -0.41583 -9.06472e-21)
(1.16205 0.511264 0)
(0.452479 0.216003 1.70612e-19)
(1.11131 0.316452 -1.10994e-19)
(0.815494 -0.64147 -2.59356e-20)
(1.17456 0.0428261 -2.7062e-21)
(0.899869 0.151685 7.4183e-20)
(1.08719 0.170496 5.47697e-20)
(1.06582 0.702895 1.52711e-21)
(0.904213 -0.43907 6.52171e-20)
(1.42674 0.198642 3.48397e-20)
(1.1328 0.00975917 -4.94739e-22)
(0.00542382 -0.0606508 9.45641e-20)
(1.08357 -0.703159 2.6681e-20)
(0.871739 -0.720763 5.32752e-20)
(0.251693 -0.334204 0)
(0.972261 -0.148577 7.30806e-20)
(0.361753 0.306558 -4.42811e-19)
(-0.10503 0.11764 2.22667e-20)
(0.217578 0.0354791 1.96158e-20)
(0.682031 -0.0582767 -7.56677e-20)
(1.07606 0.529649 0)
(0.989545 0.222142 8.26523e-20)
(1.08814 0.0314524 3.56263e-21)
(0.908026 0.44194 -9.27133e-20)
(0.782673 -0.726245 -8.42115e-21)
(0.928699 0.0216141 -4.94669e-20)
(0.975578 0.489781 0)
(1.19071 0.050211 -9.6044e-21)
(1.38215 -0.514727 1.34e-20)
(1.22833 -0.341007 9.44064e-21)
(-0.215938 0.184839 3.18297e-20)
(0.194585 0.0024365 -1.82628e-20)
(0.974343 -0.119422 -5.85715e-20)
(0.35176 0.523866 0)
(0.916092 0.0148537 3.94143e-20)
(1.14947 0.635565 7.28241e-20)
(-0.0815549 -0.0131145 1.4341e-19)
(-0.0584926 0.0331561 -2.28517e-20)
(-0.0832516 -0.0624801 4.00012e-20)
(1.09909 0.025509 -4.78658e-21)
(1.13347 -0.461708 0)
(1.06757 -0.735648 -4.21247e-20)
(0.697498 0.348127 0)
(0.0195813 -0.0125404 -1.05911e-19)
(1.10751 0.0384481 1.9931e-21)
(-0.0371733 -0.0819895 -2.9257e-20)
(1.04743 0.0575988 -1.21935e-20)
(0.0969219 0.0264688 4.96927e-20)
(0.825524 0.127269 0)
(1.35537 -0.027748 4.32657e-20)
(0.0304072 0.038887 -2.22725e-20)
(-0.193215 0.17586 -3.78085e-20)
(-0.205941 0.173115 0)
(0.084503 -0.0186108 0)
(1.315 -0.0214966 -1.26082e-20)
(0.384142 -0.0103819 1.56273e-19)
(1.26808 -0.72744 -2.27754e-20)
(0.924794 -0.00475246 4.06036e-20)
(1.06981 0.252053 -3.19509e-20)
(0.368423 -0.559293 1.40369e-19)
(1.53804 0.291582 -3.06e-20)
(0.0741917 -0.071414 3.68365e-20)
(0.207882 0.304091 1.97473e-19)
(0.103815 -0.0447759 -1.37511e-19)
(0.943007 -0.494116 -4.34817e-20)
(1.44386 0.392819 3.12776e-20)
(0.567412 -0.67756 4.90739e-20)
(1.10718 -0.0843294 -6.84132e-21)
(0.191345 0.0596679 5.74201e-20)
(1.16407 0.292696 -4.3561e-20)
(0.660097 0.638493 -4.16009e-20)
(1.33932 -0.624055 0)
(1.40523 0.521406 3.12166e-20)
(1.05391 -0.529534 -1.25489e-20)
(1.37989 0.607705 -9.00993e-20)
(1.18585 0.0164746 0)
(-0.0503261 0.0588868 0)
(1.24557 0.729603 0)
(1.20352 0.00878208 -5.29158e-21)
(0.742136 -0.303643 -2.07871e-19)
(0.476911 -0.0846037 0)
(-0.0529489 0.0594747 -2.32738e-20)
(1.02227 -0.247361 9.82643e-20)
(-0.238821 0.142423 0)
(0.321509 0.0238737 1.23383e-20)
(1.15139 0.0288843 0)
(1.39924 0.281445 0)
(1.19643 0.0411124 2.89804e-21)
(0.361848 -0.293928 0)
(1.01191 0.15092 3.89548e-20)
(1.29491 0.291204 0)
(-0.0762664 0.0468371 1.65328e-22)
(0.81264 -0.398337 0)
(1.5084 0.348205 -4.65591e-20)
(1.23639 0.371423 2.95788e-21)
(0.838703 0.645582 -1.00611e-20)
(1.00977 0.158784 -9.11607e-20)
(0.969862 -0.205252 -4.79247e-20)
(1.44234 0.302111 2.74121e-20)
(0.969885 0.108203 0)
(0.563939 -0.0729953 0)
)
;

boundaryField
{
    FrontBack
    {
        type            empty;
    }
    Top
    {
        type            noSlip;
    }
    In
    {
        type            fixedValue;
        value           uniform (1 0 0);
    }
    Bottom
    {
        type            noSlip;
    }
    Out
    {
        type            zeroGradient;
    }
    circle
    {
        type            noSlip;
    }
}


// ************************************************************************* //
