/*--------------------------------*- C++ -*----------------------------------*\
| =========                 |                                                 |
| \\      /  F ield         | OpenFOAM: The Open Source CFD Toolbox           |
|  \\    /   O peration     | Version:  2412                                  |
|   \\  /    A nd           | Website:  www.openfoam.com                      |
|    \\/     M anipulation  |                                                 |
\*---------------------------------------------------------------------------*/
FoamFile
{
    version     2.0;
    format      ascii;
    arch        "LSB;label=32;scalar=64";
    class       volScalarField;
    location    "1";
    object      p;
}
// * * * * * * * * * * * * * * * * * * * * * * * * * * * * * * * * * * * * * //

dimensions      [0 2 -2 0 0 0 0];

internalField   nonuniform List<scalar> 
808
(
0.239816
0.116365
0.0988534
0.257013
-0.198115
0.104672
0.131329
0.0722589
-0.0256463
0.119165
0.0990471
-0.0639012
0.0594141
0.0961911
0.0934356
0.0541935
0.10384
0.0749463
0.103094
0.16329
0.110056
0.42842
0.161808
0.144124
0.446942
0.106106
0.0433145
0.0493965
0.0443418
0.0648471
0.0669065
0.153871
0.0708864
0.00993369
0.117625
0.630329
0.137871
0.0720405
0.130352
0.0180569
0.120143
0.0661674
0.111701
0.129732
0.13958
0.174226
0.0584322
0.0947079
0.126546
-0.0473703
0.127026
0.164184
0.148968
0.0398503
-0.0255351
0.13834
0.0405957
0.108417
0.103158
0.15209
0.19315
0.0965034
0.103897
0.0637412
0.124392
0.133793
-0.00945902
0.0434154
0.110831
-0.297578
0.131206
-0.340573
0.0996573
0.0936174
0.229228
0.123495
0.149328
-0.0889533
0.125331
0.303976
0.13023
0.0878119
0.0693976
0.362694
0.120056
0.119277
-0.419022
-0.055588
0.164682
0.0565003
0.207902
0.055063
0.334063
0.316778
0.156358
0.0869001
0.0438025
0.126063
0.0774252
0.0554786
0.110741
0.160554
0.133897
0.137766
0.137339
0.198055
0.171875
0.0346868
0.137045
0.114081
0.139267
0.415124
0.120259
0.11729
0.0426941
0.476013
0.139407
-0.219947
0.0863374
0.1742
0.196417
0.140296
0.0987748
0.178003
0.245084
0.00360264
0.173717
0.113919
0.147761
0.212801
0.0644984
0.0886465
0.127689
0.2205
0.0938551
0.143454
0.112275
0.000169606
0.111976
0.154527
-0.215724
0.188155
0.0986653
0.116987
0.0678148
0.115081
0.205292
0.404082
0.147742
0.0288585
0.141736
0.347291
0.155972
0.544845
-0.0739284
0.0558139
0.115989
0.122664
0.117266
0.0580972
-0.230714
-0.2093
-0.072452
0.133667
0.154036
0.0800362
0.129208
-0.040213
0.121009
0.0959087
0.129693
0.27236
0.11872
0.17496
0.105138
0.173659
0.239922
-0.00492988
0.106021
-0.433838
0.109713
-0.0484527
0.147462
0.393886
0.149672
0.22692
0.129174
0.10563
0.0972112
0.114895
0.0411803
0.127182
0.0896869
0.191581
0.168873
-0.090406
0.0941254
0.0898255
0.0186305
0.201523
0.195903
0.0575867
0.0720314
-0.402167
0.450101
-0.228325
-0.19742
0.0522394
0.0646312
0.123322
0.00961961
-0.559802
0.10073
0.102172
-3.61881e-05
0.0754662
-0.33529
-0.0525025
0.0086076
0.0936028
0.000628277
-0.103143
0.0756074
0.0601418
0.00641941
0.072408
0.275907
0.174515
0.0808568
0.072399
0.253325
0.0656997
0.0697488
0.0490061
0.142444
0.0359582
0.0469124
0.00287414
0.000901245
0.0470738
-0.00932822
0.00246632
0.00574263
0.042142
0.00506009
-0.0042652
-0.00119494
-0.0114092
0.00541264
0.109592
-0.287122
0.00557226
0.00862343
0.143977
0.012981
0.152479
0.0718452
0.00981211
0.0737198
0.186566
0.0781444
0.013099
0.0569734
0.133278
0.0817553
0.0810809
0.039403
0.107574
0.0378582
0.0872991
0.0637893
-0.553776
0.359075
0.0455467
0.127884
0.0498591
0.0461884
0.0461555
0.118515
0.310792
0.0754222
0.0749074
0.0567315
0.277279
0.172271
0.0559859
0.112477
0.125416
0.0524029
0.108188
0.0752986
0.0829316
0.0521798
0.0553669
0.0724348
0.0655385
0.0689931
0.175958
0.0798112
0.0735726
0.0444886
0.0577243
0.0582967
0.0484454
-0.661312
0.0856831
0.0793577
0.141089
0.0063432
0.153659
0.0664475
0.0577091
-0.132713
0.275895
0.288316
0.154082
0.107885
0.0738947
0.03484
-0.216198
0.0942587
-0.00879127
0.108156
0.0751723
0.0660951
0.0926481
0.0809598
0.139413
0.0588476
-0.0941795
0.147739
0.102249
0.14002
0.134909
0.144605
0.352179
0.065762
0.0510028
0.551403
0.104659
0.0316112
0.0790693
0.105579
0.0683712
0.0752741
0.0946129
0.135809
0.114607
0.11586
-0.159363
0.0938498
0.224833
0.134624
-0.112818
-0.250935
0.154173
-0.102586
0.103027
0.101559
0.153359
0.145152
0.128436
0.0740565
0.0997598
-0.0110351
-0.650439
0.113874
0.106385
0.0914377
0.175431
0.123814
0.0178574
0.228359
-0.122093
0.107967
0.146122
0.0886337
0.116946
-0.111322
0.122374
-0.375119
0.14849
0.119379
0.0924876
0.135363
0.113349
0.164321
-0.40796
0.14152
0.134144
0.160734
0.127998
0.153097
0.123258
0.132235
0.138408
0.163307
0.14169
0.11904
0.0418036
0.185443
0.1655
0.102858
0.00201479
0.142245
0.129301
0.456303
0.177166
0.0160947
0.167279
0.135613
0.0697212
0.105312
0.145957
0.146675
0.151281
0.136255
0.134271
0.00969686
0.0222055
0.0226468
0.0270438
0.0650624
0.218199
0.155233
0.0561201
0.00830538
0.109794
0.130413
0.116477
-0.445291
0.157488
0.111488
0.0271402
0.174078
0.211546
0.135433
-0.0133393
0.154528
0.112906
0.15533
-0.0334335
0.231233
-0.335637
-0.575906
0.178688
0.161303
0.153798
0.220882
0.385213
0.141714
0.0812329
0.129092
0.12103
0.563402
0.0185457
0.133105
0.134295
0.146188
0.129644
0.184314
0.029045
0.111465
0.176405
0.123379
-0.275673
-0.195898
0.000722942
0.12491
0.096927
0.168656
0.135225
0.152633
0.216753
0.139006
0.128184
0.120112
-0.386696
0.133506
0.137332
0.123649
0.139416
0.129455
0.0859027
0.041274
-0.649918
0.476523
0.142384
-0.0105062
0.148557
0.0673855
-0.0173108
-0.138656
0.170277
-0.384064
0.153246
0.853186
0.153674
-0.505057
0.14588
0.153273
0.157888
-0.569589
0.177728
-0.222731
0.00809089
0.164799
-0.490154
0.133535
0.111477
0.120808
-0.230401
0.172048
-0.674243
-0.446665
-0.59103
0.168252
0.0370102
0.132733
0.195356
0.200727
0.135767
-0.116019
0.406631
0.126011
0.0232355
-0.605324
-0.665757
-0.263236
0.143349
-0.445226
0.119448
0.147928
0.141214
0.150587
-0.12472
0.0422547
-0.186246
-0.0986742
0.0130386
0.14494
0.170716
0.1497
0.162607
-0.478594
0.0258156
0.134482
0.146422
0.117083
-0.339955
-0.267936
0.160874
0.168615
0.165934
0.162572
0.00582149
0.158482
-0.349484
0.223545
0.111801
0.160876
0.0964869
0.113635
-0.487347
0.0392106
-0.116882
0.107696
0.212232
0.129127
-0.00721915
-0.581224
-0.664292
0.0198197
-0.589273
-0.621873
0.0932426
-0.0983089
-0.175955
0.0149065
-0.142321
0.073985
0.168907
0.175048
0.176692
0.115196
0.122381
-0.57171
0.0505675
0.176985
0.117606
-0.376728
-0.707281
0.180372
0.32319
0.522615
0.0332529
0.000574084
0.0364068
-0.466008
0.664239
0.128517
-0.0336617
0.0922774
-0.0935625
0.161091
0.49868
-0.558845
0.111276
0.110839
0.0564039
0.0660941
-0.648318
-0.102645
0.216834
0.186782
-0.322505
0.132806
-0.432931
0.123959
-0.212785
-0.380046
0.537631
0.607617
0.0819348
0.130521
-0.129778
0.143265
0.158511
0.424578
0.158387
-0.30335
0.146049
-0.677333
0.103333
-0.229903
-0.0244191
-0.490974
-0.16212
-0.0121178
-0.00595047
-0.402836
0.442737
0.695638
-0.0874717
-0.322474
-0.170105
0.119426
-0.356588
-0.222654
0.0468827
-0.322098
0.790107
-0.497542
0.727574
-0.52447
0.362918
-0.260281
0.147887
0.203491
-0.6913
0.216706
-0.0446187
-0.338103
-0.405075
0.884804
-0.112231
0.267734
0.215944
0.637485
0.178841
0.173076
-0.189095
0.141863
0.0340948
0.0827703
0.513564
0.0420671
0.109578
-0.217636
0.113181
-0.0827674
0.1924
0.0832708
0.180258
-0.194761
-0.191617
-0.509558
0.161967
0.19407
0.128799
0.207756
0.194746
-0.413654
-0.436358
0.141047
0.144263
-0.595233
-0.682961
0.177548
0.224905
0.199404
0.694673
-0.0707796
0.186449
-0.456808
-0.390814
-0.0254641
0.0877002
0.789819
-0.584368
0.367103
0.149139
-0.61983
0.211084
-0.0982972
0.379715
-0.0124547
0.151395
-0.379407
-0.100143
0.189162
0.799161
0.363886
0.790035
0.194901
-0.294491
-0.561077
0.179876
0.264039
0.182098
0.40625
0.12393
0.562315
0.317713
0.147346
-0.207273
0.0827004
0.211352
0.885871
0.420727
0.680467
0.574591
-0.314958
0.0649011
-0.173182
-0.0593679
0.168971
-0.489381
0.099932
0.60801
0.0168858
0.0302655
-0.139255
0.25887
-0.429163
-0.539629
0.130053
-0.316857
0.229978
0.220599
-0.438741
0.131159
-0.583846
-0.163012
0.174588
0.210457
0.64515
-0.157224
-0.300619
0.859243
-0.369069
0.295616
-0.255873
0.381966
0.187071
0.0767819
-0.529435
0.461111
-0.324617
-0.390789
0.202504
-0.323327
0.142912
-0.283948
-0.148959
0.0800127
0.56909
0.789501
-0.26954
0.330418
0.21431
0.831493
0.133888
-0.355837
0.148141
0.758427
0.290773
-0.381751
-0.126293
0.45388
-0.187869
0.0680421
0.359102
0.293858
0.352105
-0.227091
0.0122446
0.707303
)
;

boundaryField
{
    FrontBack
    {
        type            empty;
    }
    Top
    {
        type            zeroGradient;
    }
    In
    {
        type            zeroGradient;
    }
    Bottom
    {
        type            zeroGradient;
    }
    Out
    {
        type            fixedValue;
        value           uniform 0;
    }
    circle
    {
        type            zeroGradient;
    }
}


// ************************************************************************* //
