/*--------------------------------*- C++ -*----------------------------------*\
| =========                 |                                                 |
| \\      /  F ield         | OpenFOAM: The Open Source CFD Toolbox           |
|  \\    /   O peration     | Version:  2412                                  |
|   \\  /    A nd           | Website:  www.openfoam.com                      |
|    \\/     M anipulation  |                                                 |
\*---------------------------------------------------------------------------*/
FoamFile
{
    version     2.0;
    format      ascii;
    arch        "LSB;label=32;scalar=64";
    class       surfaceScalarField;
    location    "1";
    object      phi;
}
// * * * * * * * * * * * * * * * * * * * * * * * * * * * * * * * * * * * * * //

dimensions      [0 3 -1 0 0 0 0];

oriented        oriented;

internalField   nonuniform List<scalar> 
1171
(
-0.894134
0.894134
0.882451
-1.1622
0.279747
-0.223571
-0.662396
0.885967
0.105866
-0.126935
-0.234977
0.361911
-0.882451
0.0500548
0.832396
0.810591
-0.161374
-0.649217
0.820116
-0.98883
0.168714
-0.286583
-0.112154
0.398737
-0.0434719
0.560034
-0.516562
-0.501816
0.813033
-0.311217
-0.413518
0.975926
-0.15581
0.392469
-0.0131565
-0.379312
0.970667
0.00525858
0.363882
0.0285869
0.981077
-0.0104095
0.580584
-0.804155
-0.724077
0.543503
0.180574
0.199222
-0.701038
0.562649
-0.945973
0.383325
-1.08513
0.695927
0.389205
-0.618923
0.575451
0.0273476
-0.244881
0.217533
-0.0553906
-0.465204
0.520595
0.412347
-0.524501
-0.858169
0.889099
-0.03093
0.998954
-0.0178769
0.879392
-1.10834
0.228947
1.00111
-0.00215798
-0.664944
-0.0591335
1.17435
-0.796639
-0.377706
0.142942
-0.115033
-0.323281
0.438314
-0.262931
0.189091
0.0738409
-0.659642
-0.502555
0.94383
-0.0644382
0.00504145
0.807858
-0.8129
0.514677
0.659668
0.445001
-0.0316266
0.443974
-0.767763
-0.11826
0.886023
0.493978
0.250104
-0.744082
0.0221439
0.449821
-0.471965
-0.502742
-0.582389
-0.408849
-0.699489
-0.019963
0.278262
-0.258299
-0.90332
0.0205862
0.882734
0.312491
0.0862458
0.772454
0.0381368
-0.561502
-0.0574207
0.0353889
-0.803152
0.110264
0.834665
-0.944929
-0.366119
-0.032447
0.398566
-0.640261
-0.263059
-0.630789
0.741053
0.602945
0.210088
-0.548189
0.931843
-0.753055
-0.178788
0.213903
0.0786218
-0.292525
-0.441663
-0.0828381
-0.236904
0.839849
0.0831029
0.300544
-0.383647
-0.4767
0.970678
0.759338
-0.877598
0.280538
0.0426777
-0.323216
1.05652
-1.05652
-0.787917
0.101316
-0.336293
-0.829453
0.834495
-0.10465
-0.158299
0.262949
0.830048
-0.02219
0.992829
-0.742725
0.204946
-0.310134
0.105188
0.846055
-0.0736014
-0.617346
-0.0459679
0.663314
0.135545
-0.231144
0.0955989
0.753925
-0.915299
-0.456551
0.319043
0.137508
0.486171
-0.541562
1.08924
-0.433393
-0.655843
0.680387
-0.62042
-0.00469841
0.625119
0.101973
0.593304
0.0594798
-0.652784
0.19692
-0.0956036
-0.509551
0.143432
0.0921235
-0.876482
0.784358
-0.478361
-0.691211
0.0262673
0.445114
-0.00113945
0.254037
-0.820061
0.566024
0.432137
0.567863
0.52981
-0.494421
-0.363641
0.094956
0.268685
0.83185
0.224674
-0.526427
0.548571
0.121833
0.80398
-0.00202179
-0.615324
-0.798778
0.890902
0.547336
0.0604233
0.284432
-0.344855
-0.107225
0.383449
0.0663721
0.894291
-0.852659
-0.0416327
0.600766
0.331077
-0.461626
0.564385
-0.503962
0.429203
0.133445
-0.0394956
-0.573027
-0.14552
0.718547
-0.147191
-0.909333
-0.587294
0.353304
0.233991
0.601558
-0.60358
0.257261
0.949367
0.0434617
-0.798778
0.424084
-0.210181
0.759338
0.848362
-0.848362
0.850215
-0.853039
0.00282437
-0.432788
0.864925
-0.170349
-0.339202
0.723076
-0.680706
-0.0423694
-0.710291
0.137264
0.12679
-0.688292
0.877598
-0.984823
-0.32137
0.182015
0.139355
0.13933
-0.957955
0.818625
0.489109
-0.0441082
-0.290414
0.572427
-0.282012
-0.863511
1.00284
-0.151497
0.641849
-0.741296
0.0994469
0.915046
-0.543897
-0.371149
0.808867
-0.0718208
0.015709
0.102428
-0.118137
-0.748632
-0.736418
0.0740213
-0.829453
0.538692
-0.571139
0.0873732
0.637257
-0.72463
0.795954
0.09818
0.437245
0.562755
-0.0624863
-0.522092
0.584578
0.89899
-0.004699
-0.808867
0.890902
0.198538
-0.443419
0.00411639
0.0175675
-0.0216839
0.59734
-0.449139
-0.148201
0.832396
0.0486302
-0.0945686
0.414741
0.182599
-0.0136716
0.00448431
0.00918727
-0.0101019
0.0258108
0.292228
-0.24955
-0.999859
-0.00858795
-0.108957
-0.0291421
0.069834
0.733774
0.747801
-0.179939
0.722819
-0.635446
-0.194562
0.399509
0.820049
0.012347
0.233056
-1.08609
-0.984823
0.311351
0.834495
-0.217342
0.0590432
-0.725186
0.909338
-0.184152
0.430728
-0.0321616
0.712538
0.37958
0.259994
0.103888
-0.681266
0.681266
0.236753
0.64927
-0.0808955
0.381439
0.357419
-0.0885577
0.0926741
0.444482
0.0446274
-0.863511
0.515576
0.207499
0.27246
-0.170032
-0.820049
0.170204
0.739134
0.0177795
-0.788322
0.770542
0.718338
-0.81957
0.101233
-0.795954
-0.138354
0.169206
-0.0308519
0.0540268
-0.217066
-0.0867274
0.303793
-0.008643
-0.00502858
0.686643
-0.668863
0.825451
0.0605157
-0.298601
-0.46586
0.764461
0.0170163
-0.0170163
0.276971
0.470657
0.61034
-1.081
-0.178652
-0.53725
0.715902
0.0291639
0.233785
0.383926
-0.248381
0.967345
-0.496688
0.655697
0.987029
-0.376688
0.213577
1.00284
0.847031
0.220065
0.669035
-0.909333
0.318734
-0.216559
0.245348
-0.0287888
0.788514
-0.0152732
-0.773241
-0.836622
0.834464
0.567212
-0.836622
-0.847031
0.834464
-0.0402557
0.80392
0.0215312
-0.83185
0.736428
0.095422
0.516881
0.537849
-1.05473
0.462456
0.504889
0.548663
0.460164
-1.00883
0.487192
0.499836
0.736428
-0.48001
-0.421609
-0.572368
-0.513501
-0.104039
-0.0182276
0.0182276
0.493438
0.521112
-1.03461
0.535697
-0.251266
-0.910126
0.366228
-0.657909
0.394851
-0.00695274
-0.810503
0.817456
0.457387
-0.0164085
0.804923
-0.92939
-0.854235
0.0480912
0.806144
0.645161
-0.536299
-0.108862
0.649289
-0.713727
0.873754
-0.816977
-0.0567769
-0.026004
-0.826655
-0.103239
0.702918
-0.59968
-0.866072
0.840068
-0.77867
0.738119
0.0405508
-0.834487
0.0388411
0.795646
0.0220799
-0.00506367
0.387483
0.0556365
-0.857623
0.801987
-0.625806
0.56332
0.920961
0.0891297
-1.01009
0.0667256
-0.0759161
0.344601
-0.355698
0.0455644
0.853307
-0.86026
-0.773972
-0.822623
-0.00403107
-0.138643
-0.833911
0.0169343
0.679223
0.0435964
0.036648
0.608513
-0.796973
0.835814
0.655843
-0.826912
-0.776943
0.0269772
-0.0381687
0.821989
-0.783821
-0.016455
-0.81214
0.582999
0.135338
-0.0250164
0.829939
0.88816
0.8755
-0.858566
0.0655631
-0.0655631
-0.126821
-0.577217
0.040918
0.261814
0.0495375
0.308624
0.813484
-0.0146411
0.00599813
0.644031
0.355969
0.816825
-0.659642
-0.730378
-0.799094
-0.803534
0.803534
-0.184623
-0.151669
0.604274
-0.830442
0.226168
-0.480503
-0.514601
0.245846
-0.945335
-0.847266
0.790489
-0.802032
0.798001
0.662826
0.141634
-0.80446
-0.758543
-0.140609
0.743434
-0.602825
0.0337821
-0.00373133
0.0114514
-0.0077201
-0.47049
-0.106727
0.85012
0.653978
-0.21056
-0.443417
0.545116
0.669383
-0.432629
0.0302776
-0.293209
0.0154673
0.694588
-0.710056
-0.282509
-0.077235
0.0895533
-0.896869
0.123628
-0.688808
0.0557724
0.648589
-0.704361
-0.762483
0.0736756
0.59369
-0.670925
0.152957
-0.370023
-0.750736
-0.00780733
0.362183
0.601965
-0.0375805
0.00607486
-0.00607486
-0.0137433
-0.00748085
-0.209078
0.0516235
-0.0662647
-0.707139
0.292798
0.685943
-0.686726
0.000782197
-0.576963
0.632735
0.663395
-0.0697052
-0.649732
-0.112752
-1.05287
0.0158531
0.04971
-0.691672
-0.75297
-0.778129
0.400423
-0.329704
0.371095
-0.0413919
-0.641988
-0.0496837
0.522302
0.749897
-0.181039
0.151897
0.904676
0.451167
0.119885
-0.571052
-0.671044
0.0290552
-0.0171267
0.0133953
0.634438
-0.779958
0.0138421
-0.0138421
-0.60222
0.649103
-0.0468828
-0.634396
-0.12884
-0.635552
0.0325618
0.552017
-0.10919
-0.776162
-0.531449
0.551152
-0.0197034
0.627002
-0.62622
0.326832
0.217745
-0.544577
-0.118532
-0.610144
-0.0942172
-0.151053
-0.498887
0.421399
-0.504237
0.130855
0.695302
-0.826157
0.680387
-0.293026
-0.0366772
0.0714941
-0.570381
0.581628
-0.0474392
-0.534189
-0.283957
0.295138
-0.011181
0.424672
0.111026
0.0532509
-0.285914
0.156954
0.12896
0.380208
0.0438757
-0.267774
-0.451702
0.490194
-0.0384914
0.779325
-0.600822
-0.0335735
0.516318
0.281697
-0.492257
0.719412
-0.719412
-0.272957
-0.720244
-0.272315
-0.720244
-0.609667
-0.918723
0.238017
-0.559904
0.739351
0.010489
0.116003
0.485963
0.0996952
0.155875
-0.0166783
-0.139197
-0.00875212
0.598879
-0.881698
0.415838
0.00150971
-0.149621
0.148111
-0.67253
-0.135256
-0.448517
0.568403
-0.511662
-0.375821
-0.194559
-0.273678
-0.0828123
0.0828123
0.103912
0.065294
0.171729
0.414971
-0.540674
0.0921573
0.246858
0.466732
0.533268
0.616571
0.0137215
-0.0479583
0.0342368
-0.24641
-0.529752
-0.510833
0.114452
-0.119775
0.005323
-0.103982
-0.386642
-0.0396076
0.591624
-0.532899
-0.139631
-0.2972
0.183903
0.118867
-0.68513
-0.201301
-0.303614
0.0540638
-0.435484
0.295762
0.139722
-0.074036
0.303557
-0.885946
-0.472209
0.582872
-0.765136
0.646604
0.305523
-0.132048
0.183142
-0.0510937
0.0065155
-0.606224
0.0232636
0.582961
-0.987915
0.563938
-0.69076
-0.0912087
0.027119
-0.027119
-0.255636
0.299757
0.0448443
0.00259302
0.0111285
0.509755
0.665159
-0.706792
0.0201605
0.0141572
-0.00808237
0.0126425
-0.0126425
-0.369813
0.480839
0.0165401
-0.0165401
-0.748965
-0.0382495
0.0603295
-0.425955
0.518112
0.428594
-0.475477
0.0827307
-0.0827307
0.0185409
0.0741332
-0.0698285
-0.883461
0.512312
-0.411205
-0.00506367
0.54208
0.0294248
-0.571504
-0.650717
0.117817
-0.322275
-0.00553057
0.327805
-0.157976
-0.0230632
-0.576103
-0.0301217
0.04971
0.00527864
0.00856342
0.00823694
-0.00823694
-0.469855
0.431364
-0.431306
0.219401
0.597424
-0.0850897
0.00537657
-0.00537657
0.462034
-0.0766168
0.0101027
0.022591
0.00757881
0.605763
-0.68238
-0.589387
0.555814
-0.111448
0.343507
0.726394
-0.0137433
-0.238455
0.0684229
-0.6929
0.484526
-0.333203
-0.108637
0.00689668
-0.0204225
0.00366524
0.402046
-0.113102
-0.421087
0.624414
0.00558515
0.0160837
-0.0160837
-0.248182
-0.0548839
-0.560557
0.571046
-0.218776
0.459325
-0.136392
0.716977
0.672555
0.00527864
-0.588136
0.577986
0.255406
-0.248528
-0.00687798
0.481778
0.08329
-0.0210813
0.127697
-0.106615
0.0293183
-0.0293183
-0.787559
0.0171675
-0.076125
0.098716
-0.0900587
0.0900587
0.0141572
-0.00836674
0.691547
0.0475872
-0.307218
-0.0794237
-0.480793
-0.0417932
-0.078689
0.078689
0.0527777
0.0893704
-0.0893704
0.0476887
-0.0476887
-0.331863
-0.129763
0.241576
0.0774661
0.0170164
-0.752325
-0.147439
0.170214
0.0283243
-0.282527
0.0851759
-0.0851759
-0.429975
-0.0742618
0.228074
-0.0105406
0.0135156
-0.553108
0.593363
-0.106152
0.15893
-0.0678493
0.141983
-0.00663971
-0.167269
0.173908
-0.117156
-0.252867
-0.0883553
0.0883553
0.0553131
-0.0553131
-0.0257159
-0.0978348
0.123551
0.212489
-0.178769
-0.0124404
0.00435803
-0.118781
0.550144
-0.0274991
0.399332
-0.0125368
0.021724
-0.0694143
0.0694143
-0.667496
0.324791
-0.111214
-0.214865
-0.0162783
-0.0711404
0.084656
0.171167
0.132626
0.0370564
-0.0294776
0.0828766
0.0315757
0.0618385
0.108375
-0.027795
0.179692
0.00224162
-0.0940596
-0.0421256
0.0408239
0.0013017
-0.00192644
-0.00695161
0.0269251
-0.0269251
0.0565562
-0.0414089
0.0414089
-0.198744
-0.0723356
0.0114562
-0.0806981
0.0183705
0.0783076
-0.0783076
0.310889
-0.279376
0.16222
-0.0576192
-0.221757
-0.0120135
0.0120135
0.340338
0.284781
-0.526425
-0.0782095
-0.0415658
0.559739
0.14464
-0.105829
-0.362714
0.0464511
-0.151762
0.173949
-0.0221872
-0.0467319
0.0467319
0.772845
-0.577943
-0.00848499
0.00655855
-0.00724638
-0.286925
-0.00419452
0.00170339
-0.0883962
-0.541266
0.555055
-0.58236
0.00966629
0.0929254
0.00927472
0.0217255
-0.159008
-0.327873
0.247175
-0.0541039
0.028388
0.145716
0.149423
0.266831
0.273914
-0.26464
-0.0335622
-0.14121
-0.220396
0.0690155
-0.00717699
0.184426
-0.162701
-0.0707607
0.153637
-0.364614
0.164235
-0.145864
0.0600429
-0.481129
0.175653
0.16908
-0.239841
0.0301048
-0.182644
0.17845
0.00686828
0.146769
-0.0248688
0.0216457
0.440388
0.0149116
-0.113633
0.0773133
0.0782935
-0.242583
-0.190365
0.524543
0.165117
0.0629569
0.0600945
-0.0518789
-0.151291
0.144413
-0.0285536
0.169041
-0.159374
-0.109968
-0.00412696
-0.12203
-0.0358753
0.0697237
0.284012
-0.0571911
-0.00930891
-0.285028
-0.0953988
0.214645
0.171841
0.15295
0.038562
0.0960515
0.0600516
0.449704
0.00354332
0.110881
0.0357306
0.0664346
-0.102165
-0.241644
-0.210403
-0.0113535
-0.197118
0.296382
)
;

boundaryField
{
    FrontBack
    {
        type            empty;
    }
    Top
    {
        type            calculated;
        value           uniform 0;
    }
    In
    {
        type            calculated;
        value           uniform -1;
    }
    Bottom
    {
        type            calculated;
        value           uniform 0;
    }
    Out
    {
        type            calculated;
        value           nonuniform List<scalar> 10(1.01112 0.996891 0.993977 0.992081 0.998013 1.01334 1.01455 0.995105 0.992369 0.992559);
    }
    circle
    {
        type            calculated;
        value           uniform 0;
    }
}


// ************************************************************************* //
