/*--------------------------------*- C++ -*----------------------------------*\
| =========                 |                                                 |
| \\      /  F ield         | OpenFOAM: The Open Source CFD Toolbox           |
|  \\    /   O peration     | Version:  2412                                  |
|   \\  /    A nd           | Website:  www.openfoam.com                      |
|    \\/     M anipulation  |                                                 |
\*---------------------------------------------------------------------------*/
FoamFile
{
    version     2.0;
    format      ascii;
    arch        "LSB;label=32;scalar=64";
    class       volVectorField;
    location    "1";
    object      U;
}
// * * * * * * * * * * * * * * * * * * * * * * * * * * * * * * * * * * * * * //

dimensions      [0 1 -1 0 0 0 0];

internalField   nonuniform List<vector> 
808
(
(0.865252 -0.122937 0)
(1.05398 -0.0404479 0)
(0.976067 0.0284278 0)
(0.958844 0.0867665 -5.20496e-21)
(1.46969 -0.01705 0)
(1.02431 0.0306003 0)
(0.967055 -0.0113456 -2.77222e-20)
(1.01228 0.00047629 0)
(1.30143 0.0231683 6.3954e-21)
(1.08734 0.0539142 3.12686e-20)
(0.991539 0.000196538 2.01616e-20)
(1.34198 -0.00648955 0)
(1.0029 0.0243384 0)
(0.949671 -0.00613541 0)
(1.05525 -0.339355 -6.12567e-21)
(0.998176 0.0431477 0)
(1.02847 -0.301782 2.72515e-21)
(0.972899 0.0302623 -3.34006e-22)
(1.05689 0.0482154 0)
(1.06511 0.0704466 0)
(1.01135 -0.0096993 -2.81375e-20)
(1.04504 0.0916438 1.30991e-19)
(1.1063 0.0556933 -3.68982e-20)
(1.09418 -0.0213442 0)
(0.959319 0.18358 0)
(1.07675 -0.162206 1.23798e-20)
(1.22284 -0.0210781 -1.57504e-20)
(0.998125 0.054845 -1.2418e-20)
(1.01308 0.0363928 0)
(1.06766 0.00569254 3.52932e-22)
(0.977241 0.0454763 1.91925e-23)
(1.03633 -0.042447 0)
(0.88947 0.042764 0)
(1.02092 0.0122338 9.4699e-21)
(1.10068 0.0705044 -1.29633e-20)
(0.701085 -0.143845 1.10824e-19)
(0.958767 -0.0375523 -5.50708e-20)
(0.977213 0.00394297 3.23234e-21)
(0.991535 -0.0292636 -1.91221e-20)
(1.05083 -0.0282595 0)
(1.10573 0.0240138 3.06729e-20)
(1.21708 0.0156001 0)
(1.09137 0.0178521 -2.46192e-20)
(0.999012 -0.0431361 3.95077e-20)
(1.08167 -0.0401949 0)
(0.9401 -0.031633 -3.98206e-20)
(1.05371 -0.0571767 5.72762e-21)
(1.23532 -0.127775 -2.67767e-20)
(0.992478 -0.0363293 -4.12542e-20)
(1.29318 0.0582501 -9.23235e-21)
(1.05242 -0.0237703 4.69585e-20)
(1.11597 -0.0552913 0)
(1.01624 -0.105792 2.16232e-20)
(0.982529 -0.0236975 0)
(1.3175 0.10401 -7.53873e-22)
(1.04601 -0.00684368 -1.63759e-20)
(0.954078 -0.0318539 0)
(0.998752 -0.0261556 1.03437e-20)
(1.13265 -0.0184131 -3.35719e-20)
(0.985035 0.0127333 -9.48739e-21)
(0.851283 -0.00473644 0)
(1.25431 -0.124905 1.29358e-20)
(0.94207 0.0554015 0)
(1.12996 0.128635 9.20115e-21)
(0.951275 0.0195286 -3.93597e-20)
(1.12575 -0.0502433 -2.55634e-20)
(1.23012 0.231361 -6.96235e-21)
(0.935944 -0.0230647 0)
(1.02387 0.0100677 0)
(1.54315 -0.0913145 0)
(1.03199 0.0551555 -1.21521e-21)
(1.53303 0.12537 -4.13822e-20)
(1.02866 0.0673993 0)
(1.03962 0.0193387 -1.66392e-20)
(1.09167 -0.276018 -6.65668e-20)
(0.981775 -0.000419664 -5.98245e-20)
(1.0815 0.0173461 -3.32045e-21)
(1.35839 0.403004 2.99681e-20)
(1.04301 -0.0248842 0)
(1.06805 0.221028 -1.79518e-19)
(1.04426 -0.111963 -1.64399e-20)
(0.922182 0.00879998 0)
(1.0567 0.0484611 -1.96619e-20)
(0.798554 -0.0722341 5.52169e-21)
(1.01826 -0.0455583 4.36524e-20)
(1.06753 0.0418521 -3.96042e-21)
(1.62342 0.00784677 0)
(1.33847 0.0852589 0)
(1.05658 -0.120937 -6.98169e-20)
(1.13181 -0.194571 -1.47288e-20)
(1.03653 -0.0270988 5.66394e-20)
(1.1867 0.0106592 1.97261e-22)
(0.92996 -0.0152626 2.26032e-20)
(0.983649 0.0359511 0)
(1.02487 0.0849447 5.47634e-21)
(1.08584 0.199173 3.18245e-20)
(1.03808 -0.0185467 -6.41255e-21)
(0.996135 -0.0579633 0)
(1.17468 0.0278871 0)
(1.13976 0.255593 3.48081e-21)
(1.00796 -0.0282638 -2.29535e-20)
(1.00189 -0.00796711 -1.26744e-21)
(1.05375 0.0219456 3.61074e-20)
(1.10377 0.019164 3.90334e-21)
(1.01193 0.0697544 2.79283e-20)
(0.992954 0.0605587 3.50308e-20)
(0.965371 -0.0610434 0)
(0.97066 0.0454378 0)
(1.08874 0.0544024 3.70155e-20)
(1.2547 -0.104411 -1.72452e-20)
(1.02876 0.0569626 -2.63206e-20)
(0.993949 0.0824391 -1.40579e-19)
(0.981519 0.0355308 -1.51576e-20)
(0.995924 0.023257 1.43077e-20)
(1.03435 -0.000961888 0)
(0.892165 0.0277227 7.82942e-20)
(0.973466 0.066943 -4.4529e-20)
(1.48507 0.06205 -5.46928e-21)
(0.980429 0.0124813 -2.48746e-20)
(0.91153 -0.0229585 5.77197e-21)
(0.850925 0.0213855 0)
(0.885034 0.0112215 1.99517e-21)
(0.927552 0.000973015 0)
(1.01891 -0.0561546 -2.78769e-22)
(0.974637 0.0221849 0)
(1.31845 0.21087 6.65909e-21)
(0.979904 0.0115579 -5.56327e-20)
(1.03737 0.0229349 3.98561e-21)
(1.08958 -0.0158016 0)
(1.082 0.00187216 0)
(1.06043 0.393776 0)
(0.956524 0.0375085 -1.23557e-20)
(1.11145 0.0439706 -1.9843e-20)
(1.02724 0.130067 -4.89347e-20)
(0.998926 -0.0444267 0)
(1.10699 -0.025234 -1.04983e-20)
(0.997955 -0.00212144 6.01994e-21)
(0.980851 0.0173182 -7.5072e-22)
(1.02147 -0.00508425 1.99706e-20)
(1.04978 0.0895122 1.06234e-21)
(0.517853 -0.325601 0)
(1.01158 0.0439537 -6.31515e-20)
(0.999101 -0.00575982 4.60659e-21)
(0.922323 -0.0129246 -2.11465e-20)
(1.21469 0.00153392 3.83821e-21)
(0.994643 -0.010074 7.35527e-21)
(1.01303 -0.126981 4.46176e-20)
(0.951302 0.00558597 0)
(1.0004 -0.0801976 2.8087e-20)
(1.01884 -0.0699741 0)
(0.996028 -0.00140824 4.50034e-20)
(1.06287 0.27773 1.46343e-19)
(1.04469 -0.0759835 0)
(0.891217 0.0535681 0)
(0.0486624 -0.171223 -7.89853e-21)
(1.16839 -0.056058 1.22223e-21)
(0.935076 -0.0155142 0)
(0.998598 -0.22796 0)
(0.96698 -0.0231554 0)
(1.16925 -0.112944 -4.81431e-21)
(-0.0460157 -0.109862 0)
(0.250797 -0.177351 2.01241e-20)
(1.29987 0.361421 1.57672e-20)
(1.03732 0.0695776 8.56155e-21)
(0.94543 0.0412188 0)
(1.06871 -0.0121738 3.62047e-20)
(0.982119 0.105843 0)
(1.13866 0.427718 -1.702e-20)
(1.05876 0.0287277 6.68939e-20)
(1.06223 -0.061021 1.10414e-20)
(1.09333 0.117866 2.71319e-20)
(1.00167 0.0308899 -1.87518e-20)
(0.998066 0.012893 -7.32149e-21)
(1.17094 -0.300794 1.1055e-21)
(1.00147 0.0102635 0)
(1.10663 -0.0239955 -2.77042e-20)
(0.896221 0.0132581 -3.17337e-20)
(1.26354 0.0604805 -2.9954e-22)
(0.877443 -0.0559217 0)
(1.56061 0.102679 0)
(0.993536 -0.0351429 1.26776e-20)
(1.32779 -0.0544004 2.98903e-22)
(0.997128 -0.0494466 2.61795e-20)
(1.05123 -0.0859131 3.19958e-20)
(0.960138 -0.294429 3.96469e-20)
(0.909005 0.044368 4.35449e-20)
(1.04874 -0.0521086 2.82956e-20)
(1.09901 0.156729 4.15007e-21)
(0.998714 0.0107402 -1.94561e-20)
(1.11013 0.105054 -3.55592e-21)
(0.277337 -0.345726 3.31729e-21)
(1.06364 0.0520202 0)
(0.945916 0.0201182 0)
(1.05623 0.0765435 -1.66648e-20)
(0.99378 0.0535783 5.25911e-20)
(0.720574 -0.415183 0)
(0.993529 -0.0206582 1.75827e-21)
(1.02 0.00887095 -8.448e-21)
(0.968889 0.0523585 2.78516e-21)
(1.01524 -0.0461527 -1.13059e-20)
(1.0979 0.0452614 9.45949e-21)
(1.04307 -0.0630175 7.45209e-21)
(1.02738 0.0340147 0)
(1.04455 0.238615 0)
(0.960787 -0.063799 0)
(1.33458 -0.277555 -2.13346e-20)
(-0.0895038 -0.0536173 2.67887e-20)
(0.943663 -0.00607745 -5.57482e-23)
(1.04877 0.00436077 0)
(0.915931 0.0360573 -4.10416e-20)
(1.00971 0.0341585 1.66523e-21)
(0.149615 -0.0172594 -2.21379e-19)
(1.01334 0.32474 2.35652e-20)
(0.941593 0.0024857 0)
(1.0608 0.0181943 0)
(0.995989 -0.0165392 2.78924e-20)
(1.5104 0.225384 6.92618e-21)
(1.33199 0.322913 -6.63675e-22)
(1.01036 -2.52985e-05 -5.47794e-23)
(1.02433 0.0112443 -7.55254e-21)
(0.991508 -0.0195563 0)
(1.40242 0.317492 -4.28868e-20)
(0.926393 0.0576605 0)
(1.02249 -0.0149929 -1.00446e-20)
(1.00503 -0.0724226 4.02173e-21)
(0.926387 -0.0132666 0)
(1.01614 -0.0735057 0)
(0.790479 0.254783 3.14339e-20)
(1.0051 0.0160192 -1.53512e-20)
(1.01079 -0.0429046 9.71595e-21)
(0.913479 0.000495066 0)
(0.922037 0.0130358 0)
(1.01039 -0.0303892 -1.15339e-20)
(0.903471 0.0252174 1.09076e-22)
(1.00949 -0.0884182 -4.78854e-22)
(1.00281 -0.014835 -6.99942e-21)
(1.05087 0.0286797 -7.00919e-21)
(1.00886 0.0233308 1.26056e-21)
(1.0122 -0.00287632 5.16149e-23)
(0.906108 -0.0147173 1.51185e-20)
(1.02474 0.00558711 3.73084e-22)
(1.01145 0.000242638 0)
(0.978484 -0.0114517 0)
(0.833902 -0.0325754 0)
(1.00423 0.000432164 0)
(0.999955 0.00718543 1.10757e-21)
(0.995371 -0.00262272 0)
(0.998776 0.00244814 0)
(1.01491 0.00641049 0)
(1.00189 -0.00139733 0)
(-0.0835932 -0.153141 4.3364e-20)
(0.955444 0.0249884 1.34222e-22)
(1.03833 -0.0112473 0)
(0.980949 0.0694234 -2.73739e-20)
(1.01793 -0.037533 1.51681e-21)
(1.03618 -0.00317427 2.2678e-20)
(0.980349 -0.00297875 1.23986e-20)
(1.00816 -0.0100734 0)
(0.922846 0.028734 2.1989e-20)
(1.05336 -0.0441252 1.82379e-20)
(0.994203 -0.00906116 0)
(1.07568 0.0132147 -2.18364e-21)
(0.964206 0.0303069 9.5349e-21)
(1.00134 0.00566397 -2.25638e-20)
(0.952161 0.028295 1.51535e-20)
(1.02971 -0.0166784 -1.94885e-20)
(1.06054 -0.00968339 0)
(1.01109 -0.000846827 -4.28726e-20)
(1.05208 0.0417534 -7.17379e-21)
(1.01481 -0.0216921 1.6981e-20)
(1.0012 0.0182977 0)
(0.11064 -0.0308866 0)
(0.764749 0.0617544 -2.33175e-20)
(0.965092 -0.0309396 0)
(1.03424 -0.0588342 -4.43554e-20)
(1.0135 0.0475693 1.94397e-21)
(0.928799 0.0524022 1.87321e-20)
(1.04731 -0.0173062 -8.36896e-21)
(1.04061 0.199861 -5.0524e-20)
(1.00611 -0.313999 6.71726e-20)
(1.01217 -0.0135634 -3.24908e-21)
(0.988675 -0.0148521 0)
(0.963986 0.00511767 0)
(0.845171 -0.0726808 -8.17322e-20)
(0.941668 -0.0885966 3.72892e-20)
(0.981319 -0.00690896 0)
(0.993927 -0.0264714 2.4937e-20)
(0.987108 -0.0137972 0)
(0.977402 -0.00973357 1.15849e-20)
(0.992577 0.00903216 -2.92001e-20)
(1.05098 -0.00774276 -1.79787e-20)
(0.980799 0.0196834 0)
(0.971121 -0.00017725 -2.26745e-21)
(1.00229 -0.0264156 7.17491e-21)
(1.00119 0.0194346 -1.38037e-20)
(1.00725 -0.0126316 -1.14236e-20)
(1.02478 -0.00846564 0)
(1.09167 0.0137182 0)
(1.0225 -0.000765558 1.33902e-20)
(1.01564 0.00366442 -1.17026e-20)
(0.955337 -0.0499399 1.06363e-20)
(0.995726 0.0057154 -9.7781e-21)
(1.01079 0.00236245 1.26457e-21)
(1.04106 -0.0153328 0)
(0.584633 -0.157581 1.8676e-20)
(1.12518 -0.10779 2.12936e-20)
(0.996819 0.0159637 -2.04306e-20)
(0.973322 -0.0177958 2.38576e-20)
(1.21342 0.0945314 -3.93144e-21)
(0.992804 -0.164061 -3.66718e-20)
(0.96642 0.00364721 -1.38524e-20)
(1.04037 -0.0487423 -1.56356e-21)
(-0.011108 0.123977 -3.63515e-21)
(0.996126 0.0178297 0)
(1.02275 -0.175134 -2.59006e-20)
(0.912726 -0.0519692 6.0864e-20)
(0.995531 -0.0107455 1.97638e-20)
(1.01063 -0.00269137 -8.36275e-22)
(0.858547 0.0582451 1.60547e-21)
(1.46701 -0.171153 -2.28025e-20)
(1.06377 0.057682 0)
(1 0.00315392 -9.43668e-22)
(0.994009 0.0486379 -7.88268e-21)
(0.961635 0.0305973 0)
(0.932254 -0.0573329 -2.15188e-20)
(1.02972 0.0365268 1.12463e-20)
(1.01077 0.0135783 3.30735e-20)
(0.997557 -0.0155242 -6.27028e-20)
(1.05309 0.0297973 1.14214e-20)
(-0.104398 -0.00653927 0)
(0.982488 0.0219996 -4.40385e-20)
(0.904668 -0.0713791 0)
(0.998723 0.0331522 -2.66395e-20)
(0.979621 -0.00278857 0)
(0.999106 -0.0458905 4.18469e-20)
(1.00511 0.129684 0)
(1.05637 -0.0174856 0)
(1.17515 0.116772 -1.05182e-20)
(0.807061 -0.101338 0)
(1.03263 -0.000369027 3.99218e-20)
(0.991537 0.0456892 -7.58614e-24)
(1.04904 -0.0264479 9.47371e-21)
(1.03101 -0.0631101 2.22681e-20)
(1.22361 0.0119348 1.02737e-20)
(1.00361 0.0117891 2.70167e-20)
(0.962874 -0.0214078 0)
(0.982977 -0.0425356 0)
(1.00856 -0.00415608 6.20875e-21)
(1.05436 -0.0389308 0)
(1.46531 -0.157869 -9.6126e-21)
(1.00358 -0.0133564 2.00339e-21)
(1.05108 0.0451166 4.30929e-20)
(1.03209 0.0717151 9.90258e-22)
(-0.0421402 0.0501658 0)
(-0.0977731 -0.185885 0)
(0.755633 0.318936 2.44373e-20)
(0.207799 0.283702 0)
(1.00035 0.0106487 -2.16491e-20)
(1.01746 0.0635001 -7.82999e-21)
(0.95883 -0.0571068 -2.78556e-20)
(0.951499 -0.0275729 1.49764e-21)
(1.02477 -0.0540155 0)
(1.03977 -0.056111 -1.02222e-20)
(1.00867 0.0196995 0)
(1.04457 -0.00917116 -2.64084e-21)
(0.803987 -0.0919626 0)
(0.994268 -0.0135851 -8.17155e-22)
(1.02591 -0.00360838 0)
(1.03685 -0.00320972 0)
(0.928727 0.0743623 -3.42785e-20)
(0.983637 0.0288008 -3.92738e-21)
(0.982625 -0.018541 3.12551e-21)
(1.02059 0.0713976 -1.96836e-20)
(0.975344 0.494862 0)
(0.996583 -0.00365304 -4.82258e-20)
(1.00299 0.0204619 3.09792e-20)
(1.02186 -0.0172561 3.15457e-21)
(1.00699 -0.0267473 1.56564e-20)
(-0.150455 -0.0244327 -3.71921e-20)
(1.02151 0.0279316 0)
(-0.0851844 0.132241 0)
(0.981438 0.0270261 4.25634e-20)
(1.01339 0.0237238 -1.68467e-20)
(1.00928 0.0529195 -3.16636e-20)
(0.989586 -0.0235858 0)
(1.01158 0.0220475 2.23353e-20)
(0.966697 -0.0297708 -2.68005e-20)
(1.27164 0.26904 -1.14889e-20)
(1.01693 -0.00813622 -2.4893e-20)
(1.03184 0.0119009 -2.22109e-21)
(0.959109 -0.0134945 -4.30936e-21)
(0.965707 0.0336727 -4.30079e-20)
(0.985707 0.0339829 0)
(0.986291 0.0122779 0)
(1.0237 -0.0199744 -1.77186e-20)
(1.01983 0.0266677 -2.80033e-20)
(0.944591 -0.017286 5.9438e-20)
(1.14123 -0.0462213 -5.10662e-20)
(1.03356 0.0658905 4.44612e-20)
(0.868938 0.0292098 2.61708e-20)
(0.900453 0.110729 6.3635e-20)
(0.948068 -0.0281305 -3.02692e-20)
(1.20632 0.091912 -3.12099e-21)
(1.23853 -0.426992 6.93551e-21)
(1.04068 0.0709226 1.85883e-20)
(1.01654 -0.0361003 2.09989e-20)
(0.820534 -0.22734 9.99771e-20)
(0.920707 0.00760634 0)
(1.03124 -0.0498058 -4.7899e-22)
(0.947085 0.020814 3.28275e-20)
(1.00766 -0.0193386 -3.6828e-20)
(0.981028 -0.00136429 1.57508e-20)
(0.9679 -0.0393124 0)
(0.969706 -0.0263776 0)
(1.08796 0.0614799 0)
(0.992606 -0.0299179 1.88195e-20)
(1.0535 0.0451918 4.98704e-20)
(1.04962 -0.0276844 3.51254e-20)
(0.917998 0.0709348 0)
(0.98035 0.0229303 0)
(0.983711 -0.0276161 -2.84558e-21)
(0.910036 -0.0643676 0)
(1.04078 0.0291595 0)
(1.11709 -0.164971 4.37508e-20)
(0.974433 0.00777712 0)
(0.943449 0.0252011 0)
(1.06349 0.00494912 0)
(1.20262 0.113243 -2.82436e-20)
(1.04524 0.032007 -2.75815e-20)
(1.07326 0.00976269 2.57219e-20)
(1.50645 -0.291891 -1.41241e-19)
(0.977006 0.00697684 -2.82032e-20)
(0.987066 -0.0160097 1.43876e-20)
(1.00595 -0.0733246 0)
(0.928671 0.00124139 0)
(0.709718 0.0924809 0)
(1.04855 -0.00537015 4.51999e-20)
(1.3434 -0.0884355 1.78497e-21)
(0.936415 0.0236709 0)
(1.03373 0.00490079 -2.96003e-20)
(0.932214 -0.0635688 0)
(1.2862 0.174856 1.53778e-20)
(0.42467 0.53548 1.14202e-19)
(1.01518 0.308245 0)
(1.35263 -0.182499 1.51655e-19)
(0.929502 0.0513047 0)
(0.96165 -0.00315983 2.23084e-21)
(1.02556 0.0282852 0)
(0.785602 0.139137 1.57614e-21)
(1.01253 0.0158911 0)
(0.981033 -0.0469343 2.28995e-20)
(0.0446258 0.148987 1.35365e-21)
(1.01401 -0.0262939 1.72746e-20)
(0.995878 -0.000877728 -1.77934e-20)
(0.575004 -0.516706 -8.98397e-20)
(1.03798 -0.0345588 -2.80768e-21)
(1.10111 -0.0592107 2.11991e-20)
(1.1478 0.119893 -4.28879e-20)
(0.994434 -0.0376229 2.34598e-20)
(1.04329 -0.0199446 1.04692e-20)
(0.896101 -0.062982 3.45717e-20)
(0.690262 -0.413036 9.89927e-22)
(1.00354 0.00333839 6.33955e-21)
(0.974986 -0.0151588 0)
(0.989872 -0.0107214 -1.20206e-20)
(1.49158 -0.26786 8.90669e-20)
(1.37365 0.355319 -4.36408e-20)
(1.24112 -0.186201 -7.50129e-21)
(1.03133 0.0108325 2.40605e-20)
(1.02846 -0.0726838 3.34264e-20)
(1.09168 -0.0360798 0)
(1.06537 -0.00144016 0)
(1.02965 -0.0168329 -2.37424e-20)
(1.0536 0.0482691 8.99284e-22)
(0.982827 -0.0328261 -2.4834e-20)
(0.950602 0.0535666 -2.91946e-20)
(1.07523 0.126772 3.54233e-20)
(1.04818 -0.246605 0)
(1.0545 -0.0175109 4.0193e-20)
(0.978661 0.0576045 0)
(1.03469 -0.0499457 -2.42744e-20)
(1.08316 0.0526621 0)
(1.09468 -0.0383082 2.6834e-20)
(1.11804 0.0149912 -2.6875e-20)
(1.02724 -0.0493783 0)
(0.237846 0.00596664 2.29353e-19)
(0.782506 -0.304358 -7.83915e-20)
(0.997732 0.156554 1.6962e-20)
(-0.0863488 0.0336899 2.05338e-21)
(1.01018 0.0346993 -1.09862e-21)
(0.961312 0.0253644 -1.06377e-20)
(-0.0615423 -0.0537114 -2.14322e-21)
(-0.0905733 0.113348 -1.33961e-20)
(1.07719 -0.0698873 0)
(-0.0782389 -0.122776 0)
(1.00727 0.0631076 0)
(0.104341 -0.120214 0)
(1.04165 0.0526094 0)
(0.569689 0.127683 0)
(1.08609 0.0259027 0)
(1.03592 0.0308407 0)
(0.958281 0.0221741 -1.49924e-20)
(0.682547 -0.316366 -2.78145e-20)
(0.273038 -0.168786 0)
(1.43471 0.254279 4.53585e-20)
(1.0016 0.0183814 9.35652e-22)
(0.963033 0.0976535 0)
(-0.032188 -0.0777364 0)
(1.07556 0.0420945 -3.4493e-20)
(1.10269 -0.0067577 1.28064e-20)
(1.18842 0.382204 0)
(0.988596 0.431843 4.93096e-20)
(1.07762 0.144835 4.84075e-21)
(0.464171 -0.0447661 -7.55661e-20)
(-0.0437932 0.0919997 -4.76208e-20)
(0.0666645 0.0248388 1.32122e-19)
(0.95266 0.0162947 -3.4476e-20)
(1.00976 0.0271497 1.00102e-20)
(1.01794 0.0205275 -6.0089e-20)
(1.05277 0.0470972 0)
(1.09285 0.0452043 -3.4581e-20)
(1.01606 0.0557314 2.96457e-20)
(-0.0376261 -0.0487012 4.20542e-20)
(0.948382 -0.169761 -6.89197e-20)
(1.00117 0.0162184 2.19997e-20)
(1.01958 0.0653632 -6.33197e-21)
(0.339798 0.030117 5.01058e-20)
(0.550311 0.00269708 -7.1501e-20)
(1.19719 0.405049 -4.5188e-20)
(0.977947 0.0292363 3.8135e-20)
(-0.0453475 -0.0892918 0)
(1.00745 0.0107959 1.29235e-20)
(0.935791 -0.0400613 4.66414e-20)
(1.0327 0.0198739 -4.49747e-20)
(1.00617 0.133366 0)
(1.40457 0.0813871 4.55829e-20)
(1.0352 -0.00645826 -8.65566e-21)
(-0.0563296 -0.128213 -1.74048e-20)
(1.08993 -0.449168 0)
(1.06682 0.00497953 -4.5536e-21)
(0.980323 -0.0411326 1.38168e-20)
(0.914168 -0.0407788 -1.89414e-20)
(1.01595 0.0160957 1.61022e-20)
(1.08102 -0.0223868 0)
(1.51029 0.0352025 -2.07315e-20)
(0.218448 0.304224 9.67704e-21)
(1.03005 0.0948649 -2.75597e-20)
(1.15462 0.138638 -9.98585e-21)
(1.02789 0.00306185 3.33908e-20)
(-0.0902251 -0.157484 1.61154e-20)
(-0.0763034 0.145221 -6.04617e-20)
(0.925235 0.188401 0)
(0.96297 0.0272103 0)
(1.08587 0.014598 -4.98939e-20)
(1.13626 0.137836 2.46298e-20)
(1.0418 0.0255182 0)
(0.920941 0.235644 -2.26892e-20)
(1.33184 -0.272206 -1.44662e-20)
(1.04899 0.0510853 0)
(0.976646 -0.0376928 0)
(0.954003 0.0578288 0)
(0.884165 -0.0697732 0)
(1.01628 -0.00631367 6.64085e-21)
(-0.0381803 0.0829486 5.20639e-20)
(0.95232 -0.0513986 1.2667e-20)
(1.37686 0.162299 -3.46985e-20)
(0.976434 0.0165827 -1.27181e-20)
(0.795545 -0.128528 0)
(1.00489 -0.0118367 0)
(1.05954 0.0437334 -2.98761e-21)
(0.962374 -0.0579786 -9.15831e-20)
(0.264899 0.00188901 7.20472e-20)
(0.981567 -0.0473679 4.22018e-21)
(0.9713 -0.27779 0)
(1.04901 -0.0228752 0)
(1.01824 -0.0485221 0)
(0.562388 0.537187 3.0499e-20)
(-0.0600865 0.121892 -1.93388e-20)
(1.04244 -0.00318987 -3.60164e-21)
(-0.0904749 -0.127354 3.86202e-20)
(1.02336 0.0660217 8.53732e-21)
(1.12845 0.224223 8.17806e-20)
(1.0623 -0.0945886 2.14708e-20)
(0.862056 -0.135604 -4.50743e-20)
(1.01452 0.0173017 7.43926e-21)
(0.981864 0.0521103 0)
(0.66069 0.301922 0)
(1.01844 0.0260577 1.30475e-20)
(0.192786 -0.016528 0)
(0.922062 0.0560618 9.7987e-21)
(0.657833 -0.446965 -3.98483e-21)
(0.44219 0.0399817 -1.58223e-19)
(1.17866 -0.163707 5.54806e-20)
(1.0715 0.349689 1.09724e-20)
(0.889928 0.100988 0)
(0.952285 0.0169123 6.24375e-22)
(1.0478 -0.0199437 0)
(0.966993 0.0411452 3.52759e-21)
(1.03095 0.136161 0)
(0.761167 0.106748 0)
(1.04192 -0.0223779 -2.62312e-20)
(1.29397 -0.158191 6.44586e-21)
(1.01556 -0.0160897 1.01467e-20)
(0.544627 -0.509439 0)
(1.12097 -0.101438 9.91112e-21)
(0.785105 0.405507 7.24257e-20)
(0.0744515 0.018702 1.84912e-21)
(1.04961 -0.0409525 -2.23072e-20)
(1.11179 -0.0836288 2.4014e-20)
(1.01055 -0.0377325 1.85028e-21)
(0.995327 -0.0757445 -1.37703e-20)
(0.275067 -0.0225091 6.0166e-20)
(-0.0863514 0.00124957 -2.24371e-20)
(0.451395 0.144124 0)
(0.512973 -0.197795 0)
(1.27082 -0.587654 4.04042e-20)
(1.02099 0.000355991 -1.02152e-20)
(1.03436 -0.482998 -5.35073e-20)
(1.00669 0.0224208 -2.95988e-20)
(1.43805 -0.116289 2.79381e-20)
(0.654547 0.45044 0)
(0.252314 0.420014 -1.18777e-19)
(0.613763 0.471294 0)
(0.709518 -0.408662 0)
(1.10925 -0.407452 0)
(-0.0910673 0.0712459 -1.45323e-21)
(1.06005 0.00408628 0)
(0.976664 0.0394518 2.79045e-20)
(0.617165 0.705027 2.17371e-20)
(0.963846 0.0338135 -2.76445e-20)
(0.106478 0.00714304 -1.09007e-19)
(0.975737 -0.00118536 4.4085e-20)
(0.618264 0.160056 -1.86044e-20)
(1.10733 -0.0481649 0)
(1.44014 0.215969 4.37386e-20)
(1.26645 0.522978 1.09334e-20)
(0.644744 -0.13559 -3.35677e-20)
(1.348 -0.336457 2.36047e-20)
(1.03103 0.027222 -4.35858e-22)
(1.02808 -0.0594981 -7.45974e-22)
(0.277332 0.0818179 0)
(0.659981 -0.649626 -2.97062e-20)
(0.666224 0.197017 0)
(0.731095 0.477985 0)
(-0.104947 0.151395 0)
(0.376542 0.313104 -3.08205e-20)
(1.05268 -0.0309001 2.5467e-20)
(0.242535 -0.0730576 0)
(-0.0945091 0.172664 0)
(1.16128 -0.190911 1.20558e-20)
(0.0967023 -0.0211165 5.20824e-20)
(0.118692 0.223681 -1.04777e-19)
(0.945017 -0.133307 0)
(0.158651 -0.271697 7.92369e-20)
(1.4459 -0.131941 0)
(0.995644 -0.237226 0)
(0.443224 0.25853 8.8022e-20)
(1.0572 -0.0112488 -1.17634e-21)
(1.14443 0.32321 3.12627e-20)
(0.547331 -0.010424 6.76254e-20)
(0.409021 -0.516259 -3.59165e-20)
(1.27107 -0.289748 0)
(1.53654 -0.105657 2.65176e-20)
(1.43982 -0.0131449 -3.247e-20)
(0.0975574 0.0606067 -2.36254e-20)
(-0.14531 0.00102321 0)
(1.09087 0.0717377 -2.76389e-20)
(1.15403 -0.126579 -2.63171e-20)
(0.577812 -0.421452 0)
(1.11472 0.0008552 -3.21264e-20)
(0.66816 -0.314674 0)
(1.07966 -0.391039 0)
(1.04922 0.082415 -3.64617e-20)
(0.974223 -0.00777154 1.20757e-21)
(1.08819 0.716463 -1.3696e-20)
(0.22259 -0.366154 1.29349e-19)
(0.968353 -0.0566852 2.70755e-22)
(1.14355 0.0259024 -1.49516e-20)
(-0.059236 0.103269 2.60986e-20)
(0.828566 0.753691 2.60083e-20)
(1.36736 -0.156667 -2.03264e-20)
(0.864234 0.103927 -5.33138e-20)
(1.03117 0.0557928 0)
(0.784613 -0.250649 4.48297e-21)
(0.983187 -0.652052 3.5956e-21)
(0.979581 0.662763 -2.76948e-20)
(1.11334 0.137333 -9.31394e-20)
(1.02328 -0.0710119 -6.0231e-20)
(1.04438 0.0139724 1.4431e-20)
(1.03041 0.00485099 2.55189e-20)
(1.03091 0.0545565 1.77724e-20)
(1.13584 0.0267613 0)
(1.27776 -0.14961 1.82874e-20)
(1.02593 0.475371 0)
(1.01505 0.0155327 -1.79965e-20)
(1.13394 0.0311098 1.84423e-20)
(0.96326 0.26504 0)
(0.794296 0.0922138 1.50727e-19)
(0.909982 0.71414 -6.49648e-22)
(1.04363 0.243565 -2.40073e-20)
(1.1493 0.0163857 2.60806e-20)
(0.432654 0.479775 0)
(1.30279 -0.34876 0)
(0.923435 -0.12419 -3.14584e-21)
(1.37228 0.453549 0)
(0.323703 -0.109796 -5.80632e-20)
(1.32256 -0.305855 6.92324e-21)
(1.19175 0.459462 0)
(0.476953 0.189473 1.74171e-19)
(1.31408 0.269889 -1.60889e-19)
(0.813888 -0.612351 -2.51643e-20)
(0.999938 0.0327535 1.9928e-20)
(1.20853 0.0893122 1.17654e-19)
(1.11355 0.176313 6.98262e-20)
(1.12086 0.697293 -1.20166e-21)
(0.889367 -0.411155 6.53527e-20)
(1.27554 -0.03569 -7.27017e-22)
(0.972952 -0.00570954 -8.40406e-21)
(0.25895 0.0708952 1.13475e-19)
(1.12958 -0.686361 3.44356e-20)
(0.890978 -0.71091 5.15785e-20)
(0.231428 -0.33569 0)
(0.890063 -0.196751 8.90225e-20)
(0.384914 0.281021 -4.52241e-19)
(0.525752 0.276973 -1.91768e-20)
(1.00076 -0.346405 2.44696e-20)
(1.16977 0.044452 -1.08834e-19)
(1.11832 0.506721 0)
(1.02938 0.2908 8.26353e-20)
(0.918075 -0.0398433 1.04357e-20)
(0.892131 0.441153 -9.33926e-20)
(0.824401 -0.730361 -7.92119e-21)
(0.887947 0.0299919 -5.47737e-20)
(0.975148 0.463672 0)
(1.02452 0.0316358 2.1509e-20)
(1.40563 -0.391679 1.49004e-20)
(1.28068 -0.267589 1.58757e-20)
(0.723563 -0.0952056 -2.52965e-20)
(0.178556 -0.0291424 -1.81636e-20)
(0.90777 -0.155583 -5.9685e-20)
(0.364322 0.523304 0)
(0.900654 -0.0727714 4.3652e-20)
(1.24621 0.618557 9.80447e-20)
(0.471749 0.419585 -2.92056e-20)
(-0.0654905 0.0232628 -1.43254e-20)
(-0.120511 -0.00267506 1.30713e-20)
(1.00158 -0.0852164 -1.5323e-20)
(1.29636 -0.428253 0)
(1.07819 -0.686699 -4.21843e-20)
(0.732293 0.350221 0)
(0.674159 0.471938 1.43832e-20)
(1.04259 0.0101514 1.01032e-20)
(-0.101776 -0.105121 -2.16501e-20)
(1.15651 -0.045168 -1.04287e-20)
(0.582952 -0.16368 7.78879e-20)
(1.28884 -0.0130717 0)
(1.05112 0.142847 -3.46287e-20)
(0.70272 -0.273857 -2.76909e-20)
(0.587585 -0.0860797 3.00859e-20)
(0.579465 0.0756398 0)
(0.506886 0.142259 0)
(1.03339 0.0869034 1.66172e-20)
(0.840606 0.0755383 2.23498e-19)
(1.31313 -0.67483 -2.94955e-20)
(0.904925 -0.101083 -2.18204e-20)
(1.05594 0.23133 -4.07957e-20)
(0.364514 -0.537551 1.37562e-19)
(1.4725 0.000616167 -2.8851e-20)
(0.694727 0.342115 4.03442e-20)
(0.221542 0.26975 2.01852e-19)
(0.680534 0.24632 -1.60569e-19)
(0.94004 -0.450313 -4.25639e-20)
(1.53986 0.228612 3.71477e-20)
(0.581819 -0.667714 4.8136e-20)
(1.03115 -0.0296183 -1.36604e-20)
(0.842469 0.447795 -7.95214e-21)
(1.46374 0.169363 -7.42146e-20)
(0.680419 0.63955 -4.16323e-20)
(1.43687 -0.55721 0)
(1.56074 0.422293 4.447e-20)
(1.04715 -0.478608 -1.36375e-20)
(1.46815 0.544197 -1.23314e-19)
(1.03781 0.0256412 0)
(0.0551638 0.0260656 0)
(1.28866 0.694033 0)
(1.03312 -0.0762814 -1.229e-20)
(0.740041 -0.341664 -2.06611e-19)
(0.444186 -0.11537 0)
(0.027098 0.00906542 -2.20984e-20)
(0.955619 -0.149805 1.31943e-19)
(0.745289 -0.00406788 0)
(0.303212 -0.00225482 1.22699e-20)
(1.06381 0.00691985 0)
(1.59147 0.0448863 0)
(1.00466 -0.0318773 -2.1337e-20)
(0.33297 -0.309447 0)
(0.981318 0.0992132 5.09659e-20)
(1.48885 0.108843 0)
(0.0669469 -0.112261 -1.55893e-21)
(0.775463 -0.384455 0)
(1.48514 0.147161 -5.21065e-20)
(1.25272 0.317686 5.79105e-22)
(0.844231 0.63051 -9.92198e-21)
(0.939618 0.161809 -9.56382e-20)
(0.980721 -0.211072 -6.18937e-20)
(1.49683 0.0529883 2.88263e-20)
(1.13056 -0.36956 0)
(0.555369 -0.101202 0)
)
;

boundaryField
{
    FrontBack
    {
        type            empty;
    }
    Top
    {
        type            noSlip;
    }
    In
    {
        type            fixedValue;
        value           uniform (1 0 0);
    }
    Bottom
    {
        type            noSlip;
    }
    Out
    {
        type            zeroGradient;
    }
    circle
    {
        type            noSlip;
    }
}


// ************************************************************************* //
