/*--------------------------------*- C++ -*----------------------------------*\
| =========                 |                                                 |
| \\      /  F ield         | OpenFOAM: The Open Source CFD Toolbox           |
|  \\    /   O peration     | Version:  2412                                  |
|   \\  /    A nd           | Website:  www.openfoam.com                      |
|    \\/     M anipulation  |                                                 |
\*---------------------------------------------------------------------------*/
FoamFile
{
    version     2.0;
    format      ascii;
    arch        "LSB;label=32;scalar=64";
    class       volVectorField;
    location    "18.6";
    object      U;
}
// * * * * * * * * * * * * * * * * * * * * * * * * * * * * * * * * * * * * * //

dimensions      [0 1 -1 0 0 0 0];

internalField   nonuniform List<vector> 
808
(
(0.892076 -0.0115932 0)
(1.02142 -0.0361508 0)
(1.17643 -0.0334572 0)
(1.07025 0.0104265 -2.35977e-21)
(1.4738 -0.286047 0)
(0.958039 -0.0286852 0)
(1.13362 -0.052925 -2.82492e-22)
(1.11907 -0.0396584 0)
(1.3458 -0.225855 2.41644e-20)
(1.22814 -0.0915637 -7.50991e-21)
(1.22064 -0.0331235 6.24038e-21)
(1.37664 -0.253139 0)
(0.99381 -0.0425639 0)
(0.738315 -0.0222381 0)
(0.935892 0.0685605 1.78293e-20)
(1.07277 -0.0303679 0)
(0.827931 0.0481609 -5.86332e-21)
(0.984186 -0.0332419 -4.5702e-23)
(1.21226 0.0048683 0)
(1.11855 -0.000156253 0)
(1.2279 -0.0294175 -8.70869e-21)
(0.928123 0.123586 1.11751e-19)
(1.07537 0.012802 -1.251e-20)
(1.17826 -0.0433212 0)
(0.9523 0.184938 0)
(1.34673 0.0637963 -3.11733e-20)
(1.2785 -0.176064 7.81163e-21)
(0.957494 -0.0236344 -8.69613e-22)
(1.07076 -0.0246846 0)
(1.04129 0.0362365 -2.78947e-22)
(0.981902 -0.0284875 1.63465e-24)
(1.12505 -0.0188751 0)
(1.04185 0.0346326 0)
(1.06965 -0.0202722 8.26959e-22)
(1.29883 -0.0809043 7.87139e-21)
(0.742453 -0.11391 1.11558e-19)
(0.872053 -0.0288823 -3.30237e-21)
(1.01985 0.0351308 8.90141e-22)
(1.194 0.054512 -1.14933e-21)
(1.08736 0.0302799 0)
(1.25735 -0.0751992 -1.50352e-20)
(1.27279 -0.135671 0)
(1.00735 -0.00261333 -6.62867e-21)
(1.12731 -0.0395432 5.51139e-21)
(1.25499 -0.0525231 0)
(1.01144 0.0178593 -1.91659e-20)
(0.99226 0.0394844 1.17999e-21)
(1.25121 -0.249247 4.72976e-21)
(1.17765 0.0546764 -1.83812e-21)
(1.39956 -0.179201 -3.49087e-20)
(1.13064 -0.0477945 1.2126e-21)
(1.14853 -0.0714546 0)
(1.12045 -0.00126965 5.90733e-21)
(1.14147 -0.0131014 0)
(1.32182 0.237099 4.09295e-21)
(1.0747 0.0465744 -7.51826e-22)
(1.1927 -0.00468683 0)
(1.22279 -0.0718218 2.67655e-21)
(1.232 -0.0973144 8.06138e-21)
(1.15056 0.0309115 4.73903e-22)
(-0.233818 0.154406 0)
(1.21424 -0.213503 -6.4187e-21)
(1.20313 -0.0643945 0)
(1.41493 -0.0953482 -2.64578e-20)
(1.14808 -0.0493582 -6.22183e-21)
(1.04079 -0.0296044 -6.53065e-21)
(1.33478 -0.116583 2.64662e-20)
(0.63417 0.0161108 0)
(1.15173 -0.0467323 0)
(1.43975 -0.350675 0)
(0.886195 0.030359 -1.13062e-22)
(1.24628 -0.139273 -4.04228e-20)
(1.00387 0.0498088 0)
(1.05927 -0.0462359 -2.11639e-21)
(1.1222 -0.33461 -5.68782e-20)
(1.12565 -0.0428211 -6.20391e-21)
(1.15008 0.0187498 4.83089e-22)
(1.31811 0.498736 2.46963e-20)
(1.10817 -0.0441919 0)
(1.013 0.282729 -1.85485e-19)
(1.36373 0.032206 1.77793e-20)
(0.733689 0.0193925 0)
(0.841715 0.0342217 -6.60971e-21)
(0.968722 -0.109227 4.24824e-21)
(1.12322 -0.0476248 5.038e-21)
(1.19445 0.00665389 1.56034e-21)
(1.28508 -0.233864 0)
(1.34622 0.289607 0)
(1.09196 -0.00119716 -9.17118e-21)
(1.40444 0.103958 3.50988e-20)
(1.07891 -0.0212771 1.05848e-20)
(1.31668 -0.12454 -1.36917e-21)
(0.964661 0.025825 1.72658e-20)
(1.00412 -0.0237895 0)
(1.11673 0.0169829 1.34888e-21)
(1.26728 -0.0631381 -6.53851e-20)
(0.754416 0.0195752 -1.40419e-21)
(1.37048 -0.0513463 0)
(1.31901 -0.0957223 0)
(1.41441 -0.0833007 -4.23773e-20)
(1.10334 -0.0462166 -1.6613e-21)
(1.12755 0.00563514 1.54786e-23)
(0.952589 0.0214653 9.15205e-21)
(1.18778 -0.00880806 -5.67958e-22)
(1.31614 0.00711494 -2.15069e-20)
(1.00113 0.00674042 1.23729e-20)
(1.48012 -0.0631619 0)
(0.926936 0.091506 0)
(1.10076 0.0317968 1.4206e-21)
(1.20149 -0.219748 -7.27036e-21)
(1.2766 -0.00697848 1.19244e-20)
(1.0469 0.0466397 -1.23269e-19)
(1.16168 0.0400535 -4.67253e-22)
(1.20261 0.15311 2.87708e-21)
(0.79399 0.0185462 0)
(0.917676 -0.0473231 7.61942e-20)
(1.15008 0.0187179 -2.16233e-21)
(1.43284 -0.260146 -1.76062e-20)
(1.1239 -0.051123 -4.46599e-21)
(0.9257 0.015866 2.4692e-21)
(-0.390063 -0.00498927 0)
(0.862927 -0.0177794 2.23562e-21)
(0.804682 0.022731 0)
(1.06334 0.00223838 -8.13617e-23)
(1.01228 0.0290976 0)
(1.31013 0.324175 6.37745e-21)
(1.0346 -0.0535634 -3.01776e-20)
(1.36856 0.15842 4.48844e-22)
(1.1485 -0.0676893 0)
(1.09191 -0.0229766 0)
(0.60752 -0.00123811 0)
(1.12568 -0.0399955 -2.26947e-21)
(1.24649 -0.0547587 8.61072e-21)
(1.06676 0.112731 -3.36247e-20)
(0.848387 -0.0244288 0)
(1.1063 0.0218144 -4.7686e-22)
(1.06401 0.047931 3.98525e-21)
(1.1521 0.010847 -1.2576e-21)
(0.991401 0.0343323 1.91784e-21)
(1.13132 0.00433201 -1.29762e-23)
(-0.00834619 0.0608586 0)
(1.09592 -0.0253859 -1.18002e-20)
(1.09763 -0.0290275 2.54505e-21)
(0.72044 0.0266174 -1.7409e-21)
(1.2608 0.174338 3.34431e-21)
(1.07537 0.151862 4.32836e-21)
(1.04913 0.0172564 1.56531e-20)
(0.990591 0.026028 0)
(1.17881 -0.14401 -2.37923e-20)
(1.06813 0.083181 0)
(0.938086 0.0321756 3.55026e-21)
(0.967858 0.281681 1.48307e-19)
(0.96846 0.0366334 0)
(0.818193 0.0992984 0)
(-0.0975297 0.0553801 -6.48598e-20)
(1.34462 0.140685 -1.18435e-20)
(0.676758 -0.0238836 0)
(1.45877 0.044804 0)
(1.10779 -0.0180666 0)
(1.36116 0.101119 1.37581e-20)
(-0.0447596 -0.0900957 0)
(-0.0545273 0.0727841 3.08532e-20)
(1.00525 -0.0371188 8.12891e-20)
(1.00596 0.0397066 3.6439e-22)
(0.862136 0.000321217 0)
(1.03799 -0.0498835 6.59764e-21)
(0.893931 0.0221504 0)
(0.739659 -0.017876 -8.7853e-20)
(1.03053 0.0511426 3.37897e-21)
(1.13679 -0.0489126 2.11416e-21)
(1.097 0.00814277 4.66594e-21)
(1.01428 0.0701501 -1.18773e-20)
(0.748056 0.130781 -4.3091e-21)
(1.13677 -0.349443 5.80112e-22)
(0.915702 -0.0249665 0)
(1.06995 -0.000288475 -1.25016e-20)
(0.875071 0.00987404 -1.02858e-20)
(1.37264 -0.167593 2.07879e-21)
(0.688102 0.02751 0)
(1.04911 -0.141357 0)
(1.1239 -0.051637 2.50363e-21)
(1.38922 0.220139 9.37201e-21)
(1.11843 0.0148322 2.9277e-21)
(1.03649 0.0167417 1.92683e-20)
(0.708606 0.0818929 -7.68068e-20)
(0.814519 0.00392749 1.89051e-20)
(1.13701 -0.0192313 2.72765e-21)
(1.37383 -0.0759128 -4.73879e-21)
(1.11757 -0.0495751 -4.05564e-21)
(1.31241 -0.0522186 4.06063e-21)
(-0.100151 0.0825497 4.70609e-20)
(1.27166 -0.0413729 0)
(0.607004 -0.0185583 0)
(1.06178 -0.0287563 -6.10062e-21)
(1.10189 0.0101614 2.91546e-21)
(0.0408317 0.0947763 0)
(0.878263 -0.0240412 2.65333e-22)
(1.12543 -0.0529342 -1.96746e-21)
(0.96727 0.0146532 -2.32825e-22)
(1.07901 0.0395077 -7.21518e-21)
(1.00845 0.0200429 2.68113e-21)
(1.04737 -0.049505 1.73554e-21)
(1.046 0.0330512 0)
(0.346381 -0.0367917 0)
(1.04822 -0.0634891 0)
(1.13065 0.113183 -2.6474e-20)
(-0.0481611 -0.0840749 4.57644e-20)
(1.06603 0.0202885 -6.4317e-25)
(1.16346 0.00495456 0)
(0.757221 0.0217175 -3.49517e-21)
(1.12489 0.0292887 1.16869e-21)
(-0.00364852 -0.0393162 -1.50565e-19)
(0.776418 0.0254162 -4.58461e-20)
(0.625563 -0.0202603 0)
(0.946493 0.0352619 0)
(0.92291 0.0364926 4.82812e-21)
(1.01853 -0.108797 5.80799e-21)
(1.2759 0.399118 -2.27913e-21)
(1.09766 -0.0031526 6.06604e-24)
(1.18125 -0.0763578 -2.99812e-21)
(1.00426 0.0522295 0)
(1.35903 0.425229 -3.41888e-20)
(0.648467 -0.0214296 0)
(0.798859 -0.0201852 -2.32371e-21)
(1.0535 -0.0127079 4.31089e-22)
(0.574727 0.0148983 0)
(1.09973 -0.00627091 0)
(0.0196579 0.0592082 -3.96183e-20)
(1.16997 -0.126449 -4.14843e-21)
(0.722591 -0.0127244 8.07843e-22)
(0.990774 -0.00272385 0)
(0.533407 -0.0187587 0)
(0.756366 -0.0175884 -1.87905e-21)
(0.522046 -0.0172424 -4.56133e-22)
(1.34969 0.0348626 3.34767e-22)
(1.25463 0.0311357 -2.00488e-21)
(0.693805 0.0145812 -7.78768e-22)
(1.12606 -0.0151651 -3.94024e-23)
(1.14351 -0.0328724 -5.71596e-24)
(0.531353 0.020478 2.38412e-21)
(1.20594 -0.0315803 3.27621e-22)
(1.17189 -0.0462586 0)
(0.938146 0.0109558 0)
(0.482699 0.0209098 0)
(1.04202 -0.00802177 0)
(1.15058 0.00932244 -5.22698e-22)
(1.06579 -0.0347755 0)
(1.14458 -0.0239461 0)
(1.02622 -0.0096393 0)
(1.08283 0.0832533 0)
(-0.02586 -0.0459315 4.60563e-20)
(1.19546 0.00537015 4.47069e-22)
(1.08666 0.019602 0)
(1.32836 -0.0111599 1.48233e-20)
(1.15363 0.02434 5.28005e-22)
(1.12229 0.0482131 -8.06664e-22)
(1.12354 -0.0552253 3.63246e-21)
(1.14906 -0.001148 0)
(0.559294 -0.0171434 4.30057e-21)
(1.05193 0.0444067 1.15519e-20)
(1.25755 -0.0939731 0)
(1.19951 -0.00217283 -1.23806e-21)
(1.18247 0.0532198 1.56022e-21)
(0.708677 0.114259 4.51329e-21)
(1.13381 0.0256391 3.83307e-21)
(1.18202 0.0162603 -3.60705e-21)
(1.08346 0.0777325 0)
(1.16285 0.109128 -1.25755e-20)
(1.17924 0.0870853 -1.46751e-21)
(0.691009 -0.0729097 1.05161e-20)
(0.873995 -0.021245 0)
(-0.0158767 -0.022348 0)
(0.97401 0.11277 -1.77683e-20)
(1.13559 -0.0196378 0)
(1.30286 -0.0973917 3.00295e-20)
(1.20028 0.0465171 4.15658e-22)
(1.14476 0.0192865 3.46761e-21)
(1.16419 0.0552144 -1.41158e-21)
(1.34447 -0.0244568 9.34333e-20)
(1.01799 -0.324238 5.74227e-20)
(1.11552 -0.0489653 -1.38459e-22)
(0.9516 -0.0487636 0)
(0.930393 0.0643694 0)
(0.902295 0.00214399 -2.62517e-20)
(1.31651 -0.140369 -5.94864e-20)
(1.12702 -0.00349308 0)
(0.594278 0.0641629 1.70393e-20)
(0.398854 0.12587 0)
(0.753104 -0.05716 6.33055e-21)
(0.779522 0.00884925 -1.98277e-20)
(0.807447 0.0274716 -2.9402e-21)
(1.15117 -0.058795 0)
(1.28177 0.0808455 -4.84865e-22)
(1.19442 0.0661132 2.31777e-21)
(0.751171 -0.112234 -6.97325e-21)
(1.15746 -0.00869535 -3.24001e-21)
(0.77792 -0.097701 0)
(1.09284 0.072563 0)
(1.10912 -0.0872858 6.78293e-21)
(0.822671 -0.0933118 -6.39496e-21)
(1.28604 0.0778808 2.43649e-21)
(1.11547 -0.0287191 -2.71767e-21)
(1.03477 0.026209 1.8577e-22)
(1.09703 -0.014996 0)
(0.416796 -0.13855 1.36782e-20)
(1.34492 0.093981 -2.22085e-20)
(0.848207 -0.0721006 -1.23643e-20)
(0.0444177 -0.0778414 -4.77268e-21)
(1.41587 -0.138948 2.38706e-20)
(0.908521 0.0114096 7.09166e-20)
(1.23165 -0.0469815 -6.96775e-21)
(1.09087 -0.0332435 2.58498e-22)
(-0.0648589 -0.0730555 -7.82597e-21)
(1.00058 -0.00669792 0)
(1.03298 -0.0862137 -1.59724e-20)
(0.854779 -0.0336448 3.64961e-21)
(1.10364 -0.0490354 2.51388e-21)
(0.830436 -0.103471 5.03474e-22)
(0.509102 -0.0173205 -6.2821e-22)
(1.41342 -0.38344 -1.54871e-20)
(1.10606 0.0363948 0)
(1.01239 0.00821449 4.42692e-22)
(1.12903 0.0349471 -1.81739e-21)
(1.21914 0.00203255 0)
(0.767872 0.0304168 -7.7647e-21)
(1.1194 0.0403917 2.3229e-21)
(0.744804 -0.0907905 1.23814e-20)
(1.15032 -0.0473782 8.72445e-21)
(0.855758 -0.0238324 4.47033e-21)
(-0.0369071 -0.0212012 0)
(0.413842 0.0309122 1.82829e-20)
(1.14475 0.023114 0)
(1.02175 0.102397 1.3678e-20)
(0.982476 0.182938 0)
(1.13181 -0.0095224 2.1138e-22)
(1.01626 0.0271153 0)
(1.0514 -0.0220553 0)
(1.38708 -0.118539 1.97101e-20)
(0.796178 -0.0863613 0)
(1.16049 -0.0413142 1.267e-20)
(1.10415 -0.00439169 9.40437e-23)
(1.04507 0.0360509 2.18398e-21)
(1.30379 -0.0782703 -1.80524e-20)
(1.24572 0.124815 -4.90292e-21)
(1.27078 -0.116836 6.87588e-21)
(1.12846 0.0322349 0)
(1.16129 -0.0461211 0)
(1.09106 0.049415 1.84648e-21)
(1.23456 -0.0374804 0)
(1.39937 0.219418 -2.39924e-20)
(0.821722 -0.047571 -6.66036e-23)
(1.0273 0.0167647 2.08364e-20)
(1.26485 -0.0034307 -3.03308e-22)
(-0.0121863 -0.00231772 0)
(-0.0333031 -0.0692398 0)
(0.00561476 0.117207 -3.85267e-20)
(-0.0662719 -0.0697178 0)
(0.680398 0.0205139 -6.03094e-21)
(1.17237 0.0449131 -1.25599e-21)
(1.14827 -0.0315814 -3.08397e-21)
(1.20546 -0.102727 -6.77568e-21)
(1.21057 -0.0563795 0)
(0.689602 -0.00563071 -3.49118e-22)
(1.12662 0.068372 0)
(1.1029 0.0149143 1.30671e-22)
(0.50615 -0.109244 0)
(0.740783 0.037139 -2.24311e-22)
(1.11705 0.077231 0)
(1.1536 0.0321634 0)
(0.56653 0.0511508 3.50874e-20)
(0.527356 0.14164 -1.62158e-21)
(0.908242 0.0701079 2.76629e-21)
(1.01066 0.0176738 -8.90996e-21)
(0.184889 -0.0639609 0)
(1.23566 -0.0724504 -1.3492e-20)
(1.25623 0.0584506 -7.11985e-21)
(1.18615 -0.110322 1.09225e-21)
(0.581833 0.0744902 9.42498e-21)
(-0.0520619 -0.0438033 -9.42396e-20)
(1.15984 0.09055 0)
(-0.0327217 0.0365165 0)
(1.21015 0.0910206 -1.99322e-21)
(0.33054 0.145392 -1.0142e-20)
(1.14052 0.0380065 -8.10957e-21)
(1.10912 -0.0444722 0)
(1.1691 -0.0342868 2.26448e-21)
(1.24912 -0.237317 2.27246e-20)
(0.5496 -0.0444761 -9.61596e-21)
(1.1435 -0.0380403 9.11244e-22)
(1.15929 -0.0557298 -7.44389e-23)
(0.247571 -0.279508 2.90911e-20)
(1.21872 -0.0498859 -1.18456e-20)
(1.14644 0.0322057 0)
(1.15302 0.0941325 0)
(1.17477 -0.0736891 4.36794e-21)
(1.21501 0.0633825 6.43445e-21)
(0.780698 -0.220507 -6.45554e-20)
(1.19154 -0.119718 -1.34845e-20)
(1.13772 0.0577123 4.74647e-23)
(0.49761 -0.00132582 7.8912e-21)
(0.212385 0.0508283 -6.72837e-20)
(0.135168 -0.22796 4.11472e-20)
(1.17252 0.188119 -6.50296e-21)
(1.23415 -0.494307 5.38502e-21)
(1.37816 0.0329311 -1.36491e-20)
(1.19896 -0.0576368 -5.17629e-21)
(0.936316 -0.233624 9.42422e-20)
(-0.393549 -0.119753 0)
(1.18535 -0.0159395 -4.20584e-22)
(-0.118863 0.00883855 -2.27765e-20)
(1.19035 0.111787 1.72482e-21)
(1.18662 -0.0791936 4.54283e-21)
(1.08118 0.0366384 0)
(0.505667 -0.00698244 0)
(1.17149 -0.0549992 0)
(1.33736 0.158374 -7.49975e-21)
(1.25881 -0.0319999 -2.41865e-20)
(1.14889 -0.0459607 -3.60393e-21)
(0.456601 0.0108128 0)
(0.618436 0.000474455 0)
(0.633899 0.00576472 7.38688e-22)
(0.446417 -0.00807425 0)
(1.19849 0.0458945 0)
(1.02124 -0.0144032 2.37513e-20)
(0.153034 -0.0697869 0)
(0.915942 0.0425481 0)
(1.11246 -0.0113581 0)
(1.17297 0.186096 -7.35282e-21)
(1.27276 0.0210663 1.05415e-20)
(0.965265 -0.0313305 5.14114e-21)
(1.29417 -0.40037 -1.08769e-19)
(0.501644 -0.177579 -2.12122e-21)
(1.2074 0.0822463 4.92393e-21)
(1.18919 0.0223607 0)
(-0.270923 -0.0923173 0)
(-0.219763 0.158374 0)
(1.16557 -0.0381631 -7.10832e-21)
(1.31977 -0.290067 -2.52573e-20)
(1.36126 0.0703029 0)
(1.07302 0.0464308 -5.58881e-21)
(0.543049 -0.0625518 0)
(1.50509 -0.165195 7.18362e-20)
(0.411612 0.519271 1.16867e-19)
(0.288837 -0.0441195 0)
(1.10093 -0.276883 1.16757e-19)
(0.053499 0.0164687 0)
(-0.251432 -0.339435 5.93811e-21)
(1.36197 0.0626971 0)
(-0.207435 0.0822286 2.67308e-21)
(0.98352 -0.0500191 0)
(1.26005 -0.117413 -1.28608e-20)
(-0.135737 0.0275679 -7.60162e-21)
(1.12464 -0.0328573 -3.54914e-22)
(1.16632 0.00960589 -5.93411e-21)
(0.573272 -0.515151 -9.19623e-20)
(1.13671 0.0390607 -8.20239e-22)
(1.19288 -0.128611 3.38363e-21)
(1.18032 0.251002 -2.13016e-20)
(1.14699 -0.209102 -1.16642e-21)
(1.16527 -0.0210782 -1.11016e-21)
(-0.0366423 0.0119723 -6.73173e-20)
(0.0402908 0.101253 -6.84227e-21)
(1.27863 0.142419 2.54158e-21)
(1.05776 -0.0506448 0)
(0.517082 0.175951 -4.92866e-21)
(1.4021 -0.441506 8.23231e-20)
(0.936787 -0.0712324 -6.03603e-20)
(1.42618 0.16446 7.20428e-20)
(1.08757 -0.0406464 1.74136e-21)
(1.17715 -0.0054013 1.01264e-20)
(1.0616 -0.00746327 0)
(1.18235 -0.0303669 0)
(1.24158 -0.0935856 3.76025e-21)
(1.08729 -0.0205255 -4.54375e-21)
(1.11895 -0.149862 1.69165e-21)
(1.09809 0.0597878 -3.28758e-21)
(1.41337 -0.044132 -4.2721e-20)
(0.416366 0.0319402 0)
(1.16299 -0.0564121 7.22319e-21)
(1.32595 0.0304268 0)
(1.11664 0.0659905 -5.02918e-22)
(1.1459 0.0248898 0)
(1.04126 -0.00959666 1.21101e-20)
(1.23963 0.037966 1.57781e-20)
(1.05211 0.034081 0)
(0.056024 -0.0286367 1.58199e-19)
(0.883022 -0.212333 -7.39171e-20)
(1.22721 -0.0269456 -2.58417e-20)
(-0.110059 0.00538087 3.91455e-20)
(1.19908 0.0275065 3.36633e-22)
(0.751119 0.0718597 -1.99505e-21)
(-0.0911029 0.0263917 -4.08078e-20)
(-0.0227366 0.0164542 -2.55835e-20)
(1.01937 -0.0297184 0)
(-0.0309735 -0.0384505 0)
(1.18704 -0.00350594 0)
(0.111973 -0.103432 0)
(1.11532 -0.0292203 0)
(0.141983 0.0302627 0)
(1.13154 0.0446302 0)
(1.16058 0.0252975 0)
(1.39632 0.109384 2.03398e-21)
(0.57711 -0.285838 -2.14277e-20)
(-0.11733 0.139679 0)
(1.13854 -0.0891946 6.28131e-20)
(1.2663 0.042503 1.56752e-21)
(1.24179 -0.0106517 0)
(-0.0370487 -0.0421142 0)
(1.16531 0.0111257 4.22748e-21)
(1.17331 -0.0118667 -2.31089e-21)
(1.16706 0.390871 0)
(0.261684 -0.0622726 6.17436e-20)
(1.12289 0.0604285 1.11528e-21)
(0.236897 -0.0513361 -5.34631e-20)
(-0.0602189 0.0435268 -2.96746e-20)
(-0.0365723 0.0490055 7.73978e-20)
(0.214755 -0.149572 2.23319e-20)
(0.992801 0.05367 1.87728e-21)
(1.15004 0.0668563 2.97302e-21)
(1.02355 -0.00766536 0)
(1.06999 -0.0697361 -2.11975e-20)
(1.25794 0.0254161 -1.13302e-20)
(-0.0103675 -0.0228765 9.62264e-20)
(0.979301 -0.0724167 -5.92993e-20)
(0.738609 0.162989 8.60731e-21)
(1.15877 0.0579662 -1.51387e-21)
(0.0772445 -0.0302237 3.42601e-20)
(0.249359 -0.0371761 -4.8467e-20)
(0.416209 -0.0477513 -5.59888e-20)
(1.27463 0.136913 -7.87019e-21)
(-0.0542988 -0.0386838 0)
(1.06293 0.206991 3.25276e-22)
(1.07521 -0.0828941 1.93051e-20)
(1.11859 -0.0742097 -1.86136e-20)
(1.24647 0.00927127 0)
(1.51419 -0.224575 7.28433e-20)
(1.13521 0.0471718 -1.32826e-21)
(-0.0156468 -0.0369068 -3.30131e-20)
(0.260325 0.0922745 0)
(0.890179 0.0323127 2.25548e-22)
(1.13668 0.0190119 -6.90321e-22)
(0.823408 -0.155029 2.48665e-20)
(1.16842 0.0103862 -1.16005e-21)
(1.1191 0.0522798 0)
(1.14423 -0.169 -1.49454e-20)
(-0.0938394 -0.0206773 -6.54655e-20)
(1.30573 -0.0344715 2.0041e-20)
(1.10174 0.175795 -8.71196e-21)
(1.09152 0.064415 3.75997e-21)
(-0.0427484 -0.0608947 1.55323e-20)
(-0.0214742 0.0311297 -5.92342e-20)
(0.63706 0.070332 0)
(0.701803 0.0796432 0)
(1.15334 0.102959 -1.6256e-20)
(1.05174 0.070512 1.23576e-20)
(1.09173 0.00516689 0)
(0.484737 0.0423308 4.41848e-20)
(0.70583 0.0915389 -1.04853e-20)
(1.09919 0.111682 0)
(1.07967 0.0530631 0)
(1.3087 0.0370808 0)
(1.2092 0.0124962 0)
(1.13652 0.0417308 3.30877e-21)
(-0.0428688 0.043404 3.24091e-20)
(1.24363 0.0364677 3.87799e-21)
(1.40657 -0.186305 -8.25317e-20)
(1.19379 0.0190256 -5.02105e-21)
(0.0302197 0.133901 0)
(1.13043 -0.0208434 0)
(0.627732 -0.00547244 6.34193e-22)
(0.52088 0.00940886 -5.54244e-20)
(0.0658337 0.0370076 4.52599e-20)
(0.942557 0.0116905 -1.06226e-21)
(0.744304 -0.27249 0)
(0.680858 -0.0901196 0)
(1.15652 -0.00798586 0)
(0.538945 0.513075 1.93818e-20)
(-0.0143467 0.0189994 -2.82129e-20)
(1.1024 0.0364651 -3.18772e-21)
(-0.0222156 -0.0518955 6.30349e-20)
(1.12547 -0.0486917 1.45379e-21)
(1.17344 0.317433 4.06289e-20)
(1.11186 -0.088158 7.86026e-21)
(0.319816 0.028971 8.79268e-20)
(1.08846 0.162113 2.18324e-21)
(1.06431 -0.0148336 0)
(0.553917 0.26982 0)
(0.902342 0.0404403 4.27476e-21)
(-0.188431 0.104226 0)
(0.607355 0.0288593 1.42427e-21)
(0.603708 -0.417157 -3.09372e-21)
(0.231625 0.0492059 -1.07228e-19)
(1.1248 -0.226622 3.16298e-20)
(1.0378 0.366058 1.02631e-20)
(0.979674 0.0190727 0)
(1.22704 -0.0142136 9.49327e-23)
(0.630475 0.00872782 0)
(0.990515 -0.00308529 -9.13429e-22)
(0.442365 -0.0181373 0)
(0.712138 0.131175 0)
(1.00088 -0.0228169 -2.3282e-21)
(1.43475 0.181132 -1.32724e-20)
(1.10673 -0.0497893 1.65215e-21)
(0.521914 -0.491354 0)
(1.1339 -0.155323 2.01242e-21)
(0.804076 0.380186 7.12053e-20)
(-0.0419898 0.0204313 1.08906e-21)
(1.23031 -0.0201122 1.18166e-20)
(1.22356 0.0361865 -1.22318e-20)
(1.14542 -0.0826383 5.90261e-22)
(0.789529 0.00746957 -2.11267e-21)
(0.0572993 0.018864 3.47947e-20)
(-0.0179759 -0.0181743 -5.37817e-20)
(-0.179763 0.11988 0)
(-0.168078 0.224621 0)
(1.18461 -0.614366 3.1936e-20)
(1.15456 -0.0284952 1.08329e-21)
(0.888186 -0.46447 -4.29368e-20)
(1.07573 0.186821 -1.6761e-21)
(1.35906 0.206204 3.16413e-20)
(0.600957 0.419192 0)
(0.246303 0.416232 -1.15692e-19)
(0.595579 0.483289 0)
(0.00816859 0.112985 0)
(1.12125 -0.477901 0)
(-0.0436492 0.0305811 -1.79061e-22)
(1.1983 -0.0209168 0)
(0.820455 0.0159793 -1.83423e-20)
(0.594354 0.693488 2.03256e-20)
(1.31447 0.105491 1.19589e-20)
(-0.0376425 -0.0859592 -1.10005e-19)
(0.650015 -0.00581122 -1.96651e-20)
(0.444744 0.143437 -1.29342e-20)
(1.20897 0.0969092 0)
(1.3569 0.361135 3.23265e-20)
(1.22084 0.568684 5.56255e-21)
(0.148354 -0.0129876 -2.05204e-20)
(0.982647 0.139259 2.93094e-20)
(0.936245 -0.0173384 -2.12451e-22)
(0.900103 0.0219174 3.76812e-22)
(-0.00271225 -0.0328477 0)
(0.64558 -0.650754 -3.05219e-20)
(0.613365 0.203147 0)
(0.0589835 -0.0700398 0)
(-0.0456283 0.0528836 0)
(-0.0134394 -0.0774419 -4.17689e-20)
(1.24636 -0.00504283 -1.35654e-20)
(-0.0325599 0.0536631 0)
(-0.0303634 0.0443062 0)
(1.45633 0.125766 -6.96717e-20)
(-0.0384654 -0.0778001 4.97687e-20)
(0.114893 0.235568 -1.01357e-19)
(0.372957 0.0179405 0)
(0.169221 -0.276329 8.16359e-20)
(1.08902 -0.238729 0)
(0.995076 -0.283538 0)
(-0.00215678 -0.0769751 1.03921e-19)
(1.15293 0.0386162 -4.25218e-23)
(1.12428 0.345656 2.87905e-20)
(0.253045 0.0284639 4.39015e-20)
(0.402882 -0.516174 -3.77959e-20)
(1.27157 0.0908771 0)
(1.20392 0.201292 2.06023e-20)
(1.20914 0.21652 -2.53092e-20)
(0.102477 0.0904375 -2.34933e-20)
(-0.061387 0.0123806 0)
(1.06963 -0.0585748 -1.94661e-20)
(1.10176 -0.222644 -1.5576e-20)
(0.582133 -0.402126 0)
(1.09671 -0.149048 -2.59343e-20)
(-0.0724642 0.204643 0)
(0.570611 0.0487544 0)
(1.41123 -0.00534565 3.29154e-20)
(0.979394 0.0286531 1.51895e-22)
(1.07664 0.746719 -1.74198e-20)
(0.224791 -0.377312 1.327e-19)
(1.0905 0.0381973 1.31961e-22)
(1.21066 0.078257 1.60906e-22)
(-0.0459478 0.0600752 2.81744e-20)
(0.785391 0.733092 2.95664e-20)
(1.34639 -0.368255 -1.33907e-20)
(-0.196748 0.0222904 5.95388e-20)
(1.13129 0.03545 0)
(0.210944 0.0578907 -7.77884e-21)
(0.897249 -0.634336 2.79044e-21)
(0.896315 0.640772 -1.75929e-20)
(0.551568 -0.0335468 -6.35244e-20)
(1.14844 -0.00671361 -2.188e-23)
(1.07534 -0.0847239 6.85395e-21)
(1.17282 0.0550609 -1.97213e-21)
(1.10621 0.122705 4.23514e-21)
(1.13209 -0.129004 0)
(0.89152 0.11361 1.32542e-20)
(0.880394 0.45788 0)
(1.33223 0.093371 5.54331e-21)
(1.17028 0.116952 -1.98515e-22)
(0.742903 0.263312 0)
(0.509867 0.109687 1.02276e-19)
(0.892545 0.713797 -8.49448e-22)
(1.07713 0.292796 -2.21107e-20)
(1.04351 -0.0108434 1.18132e-20)
(0.415635 0.494228 0)
(1.29395 -0.471986 0)
(0.693938 -0.00844961 5.93747e-21)
(1.25847 0.505657 0)
(-0.0271695 0.0513311 -3.92428e-20)
(1.28165 -0.415004 -7.89483e-21)
(1.16454 0.513091 0)
(0.452722 0.220112 1.69875e-19)
(1.11441 0.317294 -1.1341e-19)
(0.813083 -0.637853 -2.625e-20)
(1.17649 0.0487337 -2.98036e-21)
(0.902908 0.152307 7.58992e-20)
(1.08847 0.170874 5.32279e-20)
(1.06852 0.705153 1.05298e-21)
(0.902019 -0.436258 6.5617e-20)
(1.432 0.195154 3.70771e-20)
(1.13204 0.00890774 -3.17999e-22)
(0.00662482 -0.0540149 9.35339e-20)
(1.08035 -0.700603 2.54297e-20)
(0.869045 -0.71755 5.41565e-20)
(0.250734 -0.329161 0)
(0.971958 -0.147296 7.32751e-20)
(0.362494 0.31084 -4.40907e-19)
(-0.110739 0.128991 2.11907e-20)
(0.220606 0.040449 2.02623e-20)
(0.679241 -0.0576888 -7.47702e-20)
(1.07848 0.531919 0)
(0.990448 0.223315 8.15879e-20)
(1.08841 0.0309243 3.3371e-21)
(0.910216 0.444625 -9.18048e-20)
(0.779777 -0.723149 -8.62614e-21)
(0.92882 0.0236232 -4.93421e-20)
(0.977469 0.492255 0)
(1.21432 0.0871457 -1.16183e-20)
(1.37858 -0.513489 1.31223e-20)
(1.22596 -0.339891 9.27963e-21)
(-0.2102 0.164896 3.3278e-20)
(0.194445 0.00746936 -1.8226e-20)
(0.973408 -0.118034 -5.84634e-20)
(0.353191 0.527522 0)
(0.9166 0.0171874 3.9315e-20)
(1.15231 0.637295 7.51949e-20)
(-0.0883677 -0.00212509 1.4006e-19)
(-0.0589603 0.0513012 -2.34727e-20)
(-0.0827264 -0.0433263 3.99033e-20)
(1.09887 0.025081 -4.45069e-21)
(1.12997 -0.460169 0)
(1.0644 -0.732585 -4.31526e-20)
(0.698618 0.351307 0)
(0.010347 0.00119999 -1.02492e-19)
(1.09957 0.0323455 1.59562e-21)
(-0.035816 -0.0643451 -2.88372e-20)
(1.0477 0.0573372 -1.22658e-20)
(0.0965127 0.028635 5.08916e-20)
(0.828661 0.128204 0)
(1.35685 -0.0414981 4.17606e-20)
(0.0347776 0.0474996 -2.30063e-20)
(-0.193763 0.173217 -3.95279e-20)
(-0.207071 0.176448 0)
(0.084978 -0.0164232 0)
(1.31566 -0.0286881 -1.18653e-20)
(0.38272 -0.00980764 1.5438e-19)
(1.26428 -0.724921 -2.13966e-20)
(0.939747 -0.0425252 4.10405e-20)
(1.07155 0.252936 -3.11003e-20)
(0.36683 -0.554893 1.40807e-19)
(1.54298 0.290963 -3.17493e-20)
(0.0709629 -0.0615038 3.63604e-20)
(0.208425 0.308582 1.96616e-19)
(0.102069 -0.0375297 -1.35925e-19)
(0.941108 -0.491538 -4.36365e-20)
(1.44755 0.393388 3.24449e-20)
(0.565041 -0.673892 4.94602e-20)
(1.10688 -0.0847878 -6.93455e-21)
(0.177148 0.0727935 5.53772e-20)
(1.1678 0.293571 -4.45449e-20)
(0.661817 0.641906 -4.10359e-20)
(1.33522 -0.622142 0)
(1.409 0.522609 3.19123e-20)
(1.05127 -0.527219 -1.2431e-20)
(1.38339 0.609238 -9.34827e-20)
(1.18996 0.0181235 0)
(-0.051488 0.0681085 0)
(1.24871 0.731761 0)
(1.21638 0.0230403 -4.24558e-21)
(0.740467 -0.300568 -2.07955e-19)
(0.476752 -0.0809229 0)
(-0.0531342 0.0731324 -2.38773e-20)
(1.0217 -0.246344 9.87927e-20)
(-0.248492 0.115386 0)
(0.321589 0.0282123 1.23138e-20)
(1.15431 0.0306183 0)
(1.40344 0.281841 0)
(1.20026 0.0463042 3.19162e-21)
(0.361074 -0.289601 0)
(1.01271 0.15169 3.82498e-20)
(1.29848 0.291463 0)
(-0.0757147 0.0641971 5.39923e-23)
(0.811361 -0.395116 0)
(1.51242 0.347685 -4.8298e-20)
(1.23884 0.372738 1.98928e-21)
(0.840838 0.648832 -9.93028e-21)
(1.01088 0.15923 -8.99868e-20)
(0.969221 -0.203711 -4.81417e-20)
(1.44628 0.302034 2.84354e-20)
(0.980969 0.112546 0)
(0.563951 -0.0696306 0)
)
;

boundaryField
{
    FrontBack
    {
        type            empty;
    }
    Top
    {
        type            noSlip;
    }
    In
    {
        type            fixedValue;
        value           uniform (1 0 0);
    }
    Bottom
    {
        type            noSlip;
    }
    Out
    {
        type            zeroGradient;
    }
    circle
    {
        type            noSlip;
    }
}


// ************************************************************************* //
