/*--------------------------------*- C++ -*----------------------------------*\
| =========                 |                                                 |
| \\      /  F ield         | OpenFOAM: The Open Source CFD Toolbox           |
|  \\    /   O peration     | Version:  2412                                  |
|   \\  /    A nd           | Website:  www.openfoam.com                      |
|    \\/     M anipulation  |                                                 |
\*---------------------------------------------------------------------------*/
FoamFile
{
    version     2.0;
    format      ascii;
    arch        "LSB;label=32;scalar=64";
    class       volScalarField;
    location    "1725.5";
    object      p;
}
// * * * * * * * * * * * * * * * * * * * * * * * * * * * * * * * * * * * * * //

dimensions      [0 2 -2 0 0 0 0];

internalField   nonuniform List<scalar> 
808
(
-0.03595780423561645
0.04510121762150178
-0.01187787792102433
0.03497762492198876
-0.3039789531649996
-0.05460111150351615
-0.0144970155528018
-0.02389324736358337
-0.2002456423409729
-0.08572256443426875
-0.009452408397187868
-0.2579151117665184
-0.03057105133561342
-0.01290637739059231
-0.121630448665909
-0.01400864906893858
-0.1402355256952697
-0.01355967415489828
-0.01246912533305789
-0.05703666428037568
-0.005830593225273868
0.1183335518104918
-0.06077923565457655
-0.07348175255268025
0.1765185738479266
-0.09931493098184911
-0.1553746482961189
-0.02030104899774072
-0.0173677645608133
-0.02602737165057757
-0.02015919557054505
-0.05994655905521916
-0.02296617168327317
-0.01683096385540439
-0.1011925729347728
0.3440418259338485
-0.03850681636160951
-0.01681463702641897
-0.02332606674487813
-0.0265859447616578
-0.09197473550305628
-0.1291155575822881
-0.05070617885337626
-0.02061476390775407
-0.05479027594322651
-0.03981509459786353
-0.01237795822966255
-0.1876985900372899
-0.02763319733787229
-0.2075680358138498
-0.01606236522852461
-0.06904338169446513
-0.05942238166150582
-0.01474476928900833
-0.1902122704643264
-0.02903558501414006
-0.01063700002551905
-0.01425155086522637
-0.1024855871306584
-0.0407506698580062
-0.09638626193367779
-0.1287189594903119
-0.01336509905260334
-0.1303616074497237
-0.01692534720945925
-0.05052072044455856
-0.1672365947512482
-0.0356831376309852
-0.0148495443278013
-0.4463835560649504
-0.02703476627390169
-0.3083073015735976
-0.02205508250775308
-0.02033814455365598
-0.0673788972803063
-0.01732366141806673
-0.04360543095570864
-0.3592117482328021
-0.03541151538436487
0.04206650299784388
-0.0904114065647499
-0.0173171233190795
0.05678100237217604
0.04343515754241914
-0.01652983750618076
-0.05336279802742591
-0.549331625725803
-0.222687382193013
-0.05349607247114165
-0.1114676961162215
-0.05810097770941268
-0.1350425488377162
0.04078798940391652
-0.02375672624496727
-0.06046785794062403
-0.1195712406324924
-0.03851290793353635
-0.05200718827988574
-0.1182686366818769
-0.1401926241240189
-0.05205529542669744
-0.04849143003359679
-0.05570672091388203
-0.04586019859022104
-0.05799394616685892
-0.07315827567193176
-0.04146086772625924
-0.01126762321096902
-0.0411615174573148
-0.1268203845488774
-0.05134928262242906
0.08339001078640194
-0.04320937890502596
-0.008124614280304749
-0.02785259564505551
0.1801234398579503
-0.03993808401432689
-0.2738141751807976
-0.02028515653100621
-0.05494165196184864
-0.02685581916400666
-0.04776301926879854
0.01252946213233207
-0.05017131821014705
-0.03394910272556142
-0.214060521067488
-0.04297229441160869
-0.005123015247769544
-0.07782660502856689
-0.06746877326684046
-0.147069960332966
-0.02091553059296232
-0.07662192302533274
-0.04106511212239097
-0.02272341825610622
-0.01667851745042355
-0.006439252759985668
-0.007362976079988495
-0.05322364260869322
-0.05104869639354905
-0.2095343316530349
-0.05819728757052189
-0.008585412321256723
-0.02282604130394232
-0.1447006757469042
-0.002392852847069702
-0.07786359847119885
-0.02379782033351357
-0.001182187808331623
-0.01047488501456601
-0.03396367557296315
0.09560577398826767
-0.03987982624105942
0.2527562155597339
-0.2655177016092278
-0.1302095237559109
-0.03710319192687894
-0.09124119252900567
-0.009208655008556341
-0.111652910030267
-0.1863530974626741
-0.2146366242932952
-0.1830110533619864
0.05531281348217441
-0.06175223662861119
-0.02028305941491942
-0.06802094355058462
-0.1720135138157427
-0.02396019984235126
-0.01849822577932357
-0.053407577012562
-0.01797001233478398
-0.005919728069612703
-0.1105716122269488
-0.02274361587935547
-0.04674142966070762
-0.06870098732784964
-0.1639931002561084
-0.0337762418346766
-0.3965684822158881
-0.01780136636313068
-0.2222867643751766
-0.04554077050751084
0.03050613432303583
-0.1052454610604282
-0.01409100100236496
-0.04151819926511851
-0.1057904753158089
-0.01768783425331194
-0.09708807961008126
-0.2054309147659919
-0.07306346245098116
-0.02369511414721374
-0.04995196457253383
-0.04392439575505525
-0.2042787299858238
-0.02182972760071341
-0.0189459672000338
-0.0113746911897467
-0.05451951912895906
-0.05213797284423459
-0.0224014298451258
-0.02086131877080274
-0.2480849601525566
0.1280458025548811
-0.2003522060181439
-0.20823372718276
-0.01178910681423645
-0.0116301591849421
-0.06776327369567374
-0.00950679210479425
-0.5153151298843327
-0.1224463866338814
-0.01892621055833382
-0.001261232414245833
-0.02432466959904035
-0.287479431421325
-0.2737034679392387
-0.007080185827122024
-0.01763464273832044
-0.002043930371481862
-0.3441699445534126
-0.02825325435498236
-0.02914484549339948
-0.01249566413639221
-0.01979307945376291
0.0510938500538874
-0.108124002712582
-0.01381215056181784
-0.02073051575761914
-0.04286853859962601
-0.01819041590842789
-0.01612722735240526
-0.02336236995536942
-0.06682142855091369
-0.01188559773307982
-0.01908069329914411
-0.008515295331232495
-0.0008090763260327875
-0.02957062214047902
-0.001546238519772193
-0.002304264648835751
-0.006088655208400147
-0.02562695853281573
-0.007999546653231574
0.001562295760318732
-0.004172593459511236
0.001165022725815747
0.00252538472111378
-0.00856864794659269
-0.1427253875503218
-0.003034664714408326
-0.001330456303435004
-0.04848896720831413
-0.02151862783237118
-0.02496034347981606
-0.01438857879117197
-0.006090364401961965
-0.02086291633215762
-0.03727201517409681
-0.01397724271224131
-0.0128172429193566
-0.01191768191620704
0.006874113932428821
-0.01028559824459031
-0.01196625909828683
-0.01129225368601272
-0.01080685182662079
-0.01008660747557768
-0.01153153906645889
-0.01415358280406321
-0.3116285282536626
0.06111679618739253
-0.01545025720040424
-0.01655012655259449
-0.01308713126260221
-0.01232037353822259
-0.008776414012363728
-0.09784154581616063
0.009091688333907489
-0.01373362337956368
-0.01476997345500403
-0.01081459191222691
-0.0533981670752156
-0.009882125424650803
-0.01384068674727965
-0.009308414822861665
-0.0006386240293308741
-0.009757481304562348
-0.01112258375831555
-0.02493048307021518
-0.01624976111688944
-0.01187671389307718
-0.01334729799392026
-0.00779857580275763
-0.01281527101901364
-0.01164898509230656
-0.05711877498265518
-0.01296241325036179
-0.01134135683164083
-0.00866730439988625
-0.01485472157399744
-0.01396380403993476
-0.01573122096397413
-1.38023090652811
-0.09815752162317051
-0.01319833343235798
0.0234561028825263
-0.1657966669377753
-0.0927206023201556
-0.01137248889640958
-0.0140555441914247
-0.2547934508781947
-0.03094375972536699
-0.0205777091138706
-0.01084887733650953
-0.0196186675511838
-0.01095521991282328
-0.03069169123106887
-0.4161875977049635
-0.01232986910427955
-0.01410309427596065
-0.004915473396897827
-0.01063388322099993
-0.009758067226895603
-0.01436988161075876
-0.009020963566355809
-0.0260539041128074
-0.01129072581417415
-0.1615327063333066
0.01719207288279369
-0.007767263338005042
0.003093007572105037
0.01333190790853896
-0.0471827120492451
0.0300258196865025
-0.01292071998523201
-0.1358727722570493
0.2819699588251823
-0.007237405714071879
-0.01318937492083574
-0.008454667642059767
-0.03306741946152741
-0.1221379291034917
-0.01291021339481626
-0.01239839688898834
-0.01687298512121297
-0.01362238695156315
-0.04090358012105968
-0.213570157542305
-0.0115313431180937
-0.04102615953972869
-0.0400393331142633
-0.1648441779305211
-0.1658831430642156
-0.1402870695678659
-0.2552720319377528
-0.00735215973019844
-0.02133556275072705
-0.01424141387258028
-0.01262331962091773
-0.03277467336989944
-0.02439147435160603
-0.01451343035702297
-0.01503062567422709
-1.083480282478313
-0.005746807045248858
-0.0136852310772855
-0.01849672944789566
-0.02006038070498874
0.001734527623761709
-0.01417169766831609
-0.02798028046624273
-0.1639816239720611
-0.01359058758320058
-0.02227826597698264
-0.01380184826019721
0.001143444340835335
-0.1796026035613863
-0.01337738438775758
-0.1412664143360946
-0.01612632204500792
0.008480786486545855
-0.01463838970817632
-0.02301940135460631
-0.0156148122778332
0.004947662023760712
-0.2794463362672741
-0.02540963513603521
-0.01594617672570952
-0.003447355963485753
-0.009283486163487306
-0.03067490024443577
-0.01443357983433791
-0.02032298814816193
-0.02144561008183305
0.01296557453920257
-0.1013201667894742
-0.02221041847516338
0.009156568696690215
-0.05065314432601508
0.1574315382804669
-0.102557909455631
-0.3220744843535525
-0.03072366973060954
-0.02534668482923292
0.1489364709954189
0.08369684161022932
-0.003286516768609546
0.04929820455607221
-0.01570411702829918
-0.01471804279535439
0.002183880579624933
0.01206169915608692
-0.0672780263444652
-0.005782324324664199
-0.05779678930848293
-0.02212422522650279
-0.01572059575965258
-0.03653132655811087
-0.03291580806621038
-0.006638684206907846
-0.01505392600016912
-0.03945787822382862
0.03770010398763354
-0.03890374573492101
-0.01356735141704315
-0.1159162598029949
-0.03210873028108859
-0.03838259974156905
-0.6787720635062667
0.01922631949549298
-0.01093170549511147
-0.005359952915464887
0.1592613116102645
-0.08328077478441533
-0.03486604027520115
-0.2477256425606966
-0.01673838610602033
-0.01665746586482013
0.06146161786848052
-0.185373786695529
-0.2271018529183691
-0.1990811589198473
-0.6879811943189503
0.004445575281448513
-0.01856480768261955
-0.0167856294849393
-0.07791231087666042
0.1176271513686038
-0.02102792351667942
-0.2447954202467521
-0.03483297792910636
-0.006431185954408245
0.2770964739424409
-0.01132240093077323
-0.09413593272491486
-0.1484443942768351
-0.004576050887832857
-0.04027679081950361
-0.04822244153466753
-0.2069187301693652
-0.008906446891256806
-0.04242119105540992
-0.00246869735911021
-0.5522157906298363
-0.2006250885485428
-0.1752568500165424
-0.02264137287743668
-0.006776279357029257
-0.05970401638480608
-0.05846263110835662
-0.01463055421676467
-0.06728412285531642
0.00293871502404576
-0.01844874959415489
-0.09501732611368244
-0.2660544807772932
-0.007448706160074434
-0.02646297045257052
-0.02217635650546851
-0.07394639967169356
-0.0914154625708334
-0.08752019079985661
-0.01171057431186058
-0.9293555708018422
0.1605244586988464
-0.0793162851713116
-0.2578162628330343
-0.04274884828760913
-0.01050656631998805
-0.252217699473224
-0.1829507372277354
-0.0335003391832344
-0.1282420928523009
-0.01909058776260081
0.5627148505223709
-0.02373159699794692
-0.2303353037623512
-0.02630296441246058
-0.005599388526098806
-0.01200569423594834
-1.255330335102914
-0.1835390259905624
-0.234578705039385
0.005403962246912746
-0.03700835935528993
-0.2540514087600089
-0.06517159672543059
-0.05078395434320945
-0.1414754767940404
-0.1922850351914474
-0.06750708700465508
-1.232136683465424
-0.1423788057130749
-0.5175413104598293
0.07826929967707125
-0.006963268430358843
-0.02208990371620161
-0.04230535771638179
-0.04096341360212933
-0.0289374270636269
-0.1317323303917052
0.07964710247440511
-0.002650058317903936
-0.009752130038389132
-0.5824406734130266
-0.8662344742021244
-0.1869899290499108
-0.008271245520438847
-0.1385017260797717
0.001127495809546732
-0.0006497982858471448
-0.001801179755944072
-0.05989009811725096
-0.2397909481697303
-0.01342535591148952
-0.125039408188014
-0.1551501169146192
-0.01324814353652648
-0.03607978607365405
0.02157353028347443
-0.05707840154054146
-0.0693870822182328
-0.504612542850753
-0.2402474699085368
-0.08112190995011975
-0.07213825437842665
-0.0200035483749416
-0.1239972879240835
-0.1520965579157518
-0.07451718506810417
0.02357157476528476
-0.08401325550623442
-0.04774640519647112
-0.01490488548366483
-0.1067564362345504
-0.2712111489869923
-0.05641641645436599
-0.01857876725265068
0.0002902572281243171
-0.01001836745706429
-0.01120166989599705
-0.2160494536402625
-0.01521079688857178
-0.2231478126334517
-0.01037060343465669
-0.06597677880058245
-0.003774310872908372
-0.02319502561485672
-0.3760316318489454
-0.9062686373351796
-0.0113429894759356
-1.050967985894008
-0.6155434666626808
-0.01070084571156515
-0.6548148766748189
-0.1753374835399634
-0.005847449573850257
-0.131368923383535
-0.0169822024056146
-0.121194429036817
-0.06774056633261183
-0.07662038102536567
-0.005116287037059496
-0.002532080503662419
-1.334998051655687
-0.01113549153832081
-0.1842814935263344
0.0004708007016248615
-1.013844410266215
-1.230397268062482
-0.08204923699396299
0.02009750987617422
0.1642824964673222
-0.004665457268179708
-0.02304719003106768
-0.004205730108639571
-0.2542413569633024
0.3662175431599138
-0.04067414476884629
-0.20987814145456
-0.01488622048880718
-0.6572820608290535
-0.0754941972571038
0.1913579172263813
-0.2824482837066701
-0.04961181592089893
-0.06849180723578589
-0.01589942792708476
-0.02178236919038297
-0.5728519478704532
-0.1438459811156459
-0.08523411718341864
-0.1290136059680407
-0.5575331720600673
-0.04397059982949957
-0.9100287240846674
-3.538624210959077e-05
-0.2368088517001789
-1.046698714909177
0.1687246150943871
0.2922087579477655
-0.1841330720990824
-0.1938023628515004
-0.2066957589336794
-0.06840433270507226
0.02251502105255105
0.04932253538499771
0.003749591276185744
-0.1675114411178757
0.02542252604052687
-1.353125286744876
-0.08478669957659499
-0.4717955120460534
-0.3290767307753655
-0.2023714124953473
-0.1754287390310473
-0.01690898278898339
-0.015470999922303
-0.1075309733405806
0.170751805596784
0.3857248458053094
-0.216731391051885
-0.1392290943584902
-0.2391314262279299
-0.06224499815102746
-0.149456389525764
-0.1618856632147417
-0.1251942398490338
-0.1235829674090318
0.4665790265786871
-0.2675104888661259
0.4307928352864032
-0.6014301324075106
0.07027634534678204
-0.2055208544453445
-0.06578253427865405
-0.07364875229010504
-0.8755717888448206
-0.2215577043465679
-0.1894875061003624
-0.3452079733160268
-0.4559537068158306
0.5706944108536249
-0.2059460325160796
-0.0001461024675150353
-0.07117036578481564
0.3433808280274629
-0.0379247691667587
-0.131454994820183
-0.1784931315099635
-0.06352230326354029
-0.01654935827687348
-0.1939053985216895
0.1931917180226311
-0.01284382852229646
-0.0957739935121316
-0.1677872285714933
-0.3138144987969967
-0.3144438535296676
-0.06368667775311776
-0.01033455700885506
-0.07772897235980084
-0.6563849950055193
-0.6679832433133738
-0.3398982096821498
-0.05739630089133036
-0.05233153867706739
-0.025586661557318
-0.06715593045818725
-0.05829550200614018
-0.3571291728650228
-0.9549792986050558
-0.01039739887061126
-0.08247767833316656
-1.135001875961613
-1.02895138592298
-0.104113784869024
-0.03809629586490374
-0.07035736502415356
0.3908298267298165
-0.3453785633150439
-0.05040663161230337
-0.5965499499321282
-0.1215925193556806
-0.25407779865951
-0.2092644850616586
0.474313513142867
-0.6255588144840133
0.0728735939347583
-0.02969814229311731
-0.5555231984534293
-0.0510310299920864
-0.3599575039548196
0.1065040688942519
-0.189314773466351
-0.05948178584135677
-0.1389354053737474
-0.363388261083203
-0.08874561285132476
0.5141887434989634
0.0850716787935385
0.4711270724440453
-0.1047696345620445
-0.1987183966344353
-0.5241271274259813
-0.129959941435956
0.02726351238690167
-0.05314690799667993
0.1031591716384584
-0.3083863368350754
0.2361925762327049
0.008977229050444926
-0.003332175848823444
-0.5150322158026581
-0.1864579072661593
-0.08209279486360506
0.5814971840129917
0.1382198879037065
0.3460911764340779
0.2258522325017296
-0.5595452767235335
-0.2038951995691974
-0.2214476366168068
-0.2366332617244261
-0.05992249563302074
-0.696483931529861
-0.1947457203238624
0.3064176729737236
-0.2023368743862756
-0.01119523183402668
-0.1730034741154587
-0.009074219920353212
-0.1560946954142659
-0.4327073320260502
-0.076750170153311
-0.1972596465599141
-0.07103283948599655
-0.08744373484509703
-0.1466136272538443
-0.07346026821816368
-0.4568975140040901
-0.4164507985493369
-0.02658731338100966
-0.0738643728698182
0.326860649709452
-0.245602059576071
-0.185976796420977
0.5256551641483672
-0.2090862397876526
0.01742739714997952
-0.4475059122950636
0.0462549171035115
-0.06255085267348522
-0.1482249319697684
-0.5803319542230887
0.1620403512208618
-0.582538066598937
-0.5320499534901709
-0.1064125721429669
-0.5053170592652459
-0.03754668895373912
-0.1389045434766856
-0.4084637947248995
-0.01634518330964733
0.2863209385712396
0.4894824170861907
-0.1574899084543541
-0.008593908487602475
-0.07334022897046642
0.5253599118622031
-0.03359927316168936
-0.4367719227171699
-0.03292586037753092
0.4604400374443584
-0.01437670543836706
-0.541002569743021
-0.2462731122760027
0.1755841476313059
-0.3085078915779846
-0.1775727587454278
0.05193271995594353
0.03403345519726864
0.05392238484770253
-0.2973047364288613
-0.1574057422199139
0.4127479855968085
)
;

boundaryField
{
    FrontBack
    {
        type            empty;
    }
    Top
    {
        type            zeroGradient;
    }
    In
    {
        type            zeroGradient;
    }
    Bottom
    {
        type            zeroGradient;
    }
    Out
    {
        type            fixedValue;
        value           uniform 0;
    }
    circle
    {
        type            zeroGradient;
    }
}


// ************************************************************************* //
