/*--------------------------------*- C++ -*----------------------------------*\
| =========                 |                                                 |
| \\      /  F ield         | OpenFOAM: The Open Source CFD Toolbox           |
|  \\    /   O peration     | Version:  2412                                  |
|   \\  /    A nd           | Website:  www.openfoam.com                      |
|    \\/     M anipulation  |                                                 |
\*---------------------------------------------------------------------------*/
FoamFile
{
    version     2.0;
    format      ascii;
    arch        "LSB;label=32;scalar=64";
    class       volVectorField;
    location    "0.4";
    object      cellDisplacement;
}
// * * * * * * * * * * * * * * * * * * * * * * * * * * * * * * * * * * * * * //

dimensions      [0 1 0 0 0 0 0];

internalField   nonuniform List<vector> 
1024
(
(0.00166131 -0.00193291 0)
(0.00316656 -0.00348175 0)
(0.00472812 -0.00461564 0)
(0.00644768 -0.00530337 0)
(0.0082333 -0.00541941 0)
(0.00994795 -0.00489904 0)
(0.0115278 -0.00378404 0)
(0.0127014 -0.00213016 0)
(0.0131861 -0.000146016 0)
(0.0128527 0.00184321 0)
(0.0117318 0.00347835 0)
(0.0100957 0.00451357 0)
(0.00808659 0.0047811 0)
(0.00592782 0.00427831 0)
(0.00389046 0.00321834 0)
(0.00188825 0.00169299 0)
(0.00724512 -0.00828395 0)
(0.0115995 -0.0122488 0)
(0.0161397 -0.0149479 0)
(0.0209308 -0.0162473 0)
(0.025859 -0.0159949 0)
(0.03068 -0.0140976 0)
(0.0348822 -0.0105836 0)
(0.0379147 -0.00572718 0)
(0.0390968 -9.63722e-05 0)
(0.0381576 0.00547898 0)
(0.0352452 0.0101472 0)
(0.0307913 0.0132381 0)
(0.0253784 0.0143651 0)
(0.0196452 0.013584 0)
(0.0138973 0.0110822 0)
(0.00831685 0.00726485 0)
(0.0148727 -0.0167685 0)
(0.0217272 -0.0222803 0)
(0.028859 -0.0257409 0)
(0.0364228 -0.0270608 0)
(0.0441058 -0.0259719 0)
(0.0513763 -0.0223691 0)
(0.0575999 -0.0164133 0)
(0.0619803 -0.00857457 0)
(0.0635676 0.000290356 0)
(0.0620644 0.00899139 0)
(0.0576736 0.0163342 0)
(0.051113 0.0214335 0)
(0.0430824 0.0237229 0)
(0.0343614 0.0231211 0)
(0.0256769 0.0200234 0)
(0.0170546 0.0147143 0)
(0.0243275 -0.0270602 0)
(0.0334061 -0.0333535 0)
(0.0428827 -0.0369172 0)
(0.052765 -0.0376291 0)
(0.0626874 -0.0352733 0)
(0.0720351 -0.0297887 0)
(0.0798019 -0.0213884 0)
(0.0850717 -0.0107557 0)
(0.0868375 0.00100345 0)
(0.0847984 0.0124589 0)
(0.0792702 0.0222325 0)
(0.0709961 0.0292418 0)
(0.0609006 0.032836 0)
(0.0499838 0.0329582 0)
(0.038842 0.0297951 0)
(0.0278011 0.0238037 0)
(0.0355131 -0.0389297 0)
(0.0464993 -0.0452266 0)
(0.0579419 -0.0482273 0)
(0.0698523 -0.0478805 0)
(0.0816653 -0.0439287 0)
(0.0925089 -0.0363623 0)
(0.1014 -0.0255548 0)
(0.107185 -0.0123159 0)
(0.108954 0.00204192 0)
(0.106434 0.0159554 0)
(0.0999482 0.0279147 0)
(0.0904656 0.0368098 0)
(0.0788728 0.0418943 0)
(0.0661574 0.042976 0)
(0.0532334 0.0403756 0)
(0.0402895 0.0343842 0)
(0.0482022 -0.0520163 0)
(0.0608519 -0.0576643 0)
(0.0740444 -0.0595787 0)
(0.087565 -0.0577077 0)
(0.100784 -0.0518625 0)
(0.112806 -0.0421138 0)
(0.122429 -0.0289352 0)
(0.128461 -0.0132699 0)
(0.130099 0.00344453 0)
(0.127127 0.0195657 0)
(0.11996 0.0335756 0)
(0.109499 0.0442681 0)
(0.0967471 0.0508854 0)
(0.0828388 0.0533073 0)
(0.0685038 0.0516187 0)
(0.0541554 0.0462313 0)
(0.0623156 -0.0660704 0)
(0.0763729 -0.0704359 0)
(0.090947 -0.0707417 0)
(0.105813 -0.0670183 0)
(0.12014 -0.0590604 0)
(0.132868 -0.0470364 0)
(0.142854 -0.0315378 0)
(0.148904 -0.0136167 0)
(0.150311 0.00523795 0)
(0.146935 0.0233737 0)
(0.139221 0.0392641 0)
(0.128085 0.0517269 0)
(0.114584 0.0600169 0)
(0.0997239 0.06388 0)
(0.0844758 0.0635418 0)
(0.0691354 0.0592768 0)
(0.077682 -0.0807285 0)
(0.0929309 -0.0833061 0)
(0.108715 -0.0816118 0)
(0.124537 -0.0756894 0)
(0.139549 -0.065442 0)
(0.152721 -0.0510953 0)
(0.162752 -0.0333405 0)
(0.168624 -0.01331 0)
(0.169713 0.0075007 0)
(0.165937 0.0274727 0)
(0.157848 0.0451558 0)
(0.14622 0.0593222 0)
(0.132162 0.0692774 0)
(0.116779 0.0748663 0)
(0.100859 0.0760901 0)
(0.0848515 0.0733484 0)
(0.09428 -0.0957351 0)
(0.110534 -0.0960403 0)
(0.12718 -0.0919699 0)
(0.143675 -0.0835929 0)
(0.159113 -0.0709039 0)
(0.172288 -0.0542116 0)
(0.182112 -0.034288 0)
(0.187632 -0.0122974 0)
(0.188334 0.0102974 0)
(0.184213 0.0319765 0)
(0.175769 0.0512977 0)
(0.163853 0.0671559 0)
(0.149524 0.0788981 0)
(0.13374 0.0862333 0)
(0.117446 0.0893184 0)
(0.101056 0.0884809 0)
(0.112023 -0.110709 0)
(0.129058 -0.108326 0)
(0.146376 -0.101566 0)
(0.163226 -0.0905273 0)
(0.178647 -0.075295 0)
(0.191595 -0.0562659 0)
(0.200969 -0.0342727 0)
(0.205979 -0.0104672 0)
(0.206221 0.0137611 0)
(0.201761 0.0369838 0)
(0.19307 0.0578808 0)
(0.180974 0.0753823 0)
(0.166457 0.0888734 0)
(0.150524 0.0981883 0)
(0.134017 0.103287 0)
(0.117371 0.104629 0)
(0.130944 -0.125285 0)
(0.148597 -0.119836 0)
(0.166246 -0.110085 0)
(0.183108 -0.0962126 0)
(0.198253 -0.078383 0)
(0.210617 -0.0570749 0)
(0.219314 -0.0331353 0)
(0.223663 -0.007679 0)
(0.223376 0.0180193 0)
(0.218551 0.0426486 0)
(0.209641 0.0649677 0)
(0.197454 0.0840951 0)
(0.182917 0.099466 0)
(0.166944 0.110792 0)
(0.150301 0.11817 0)
(0.133536 0.12192 0)
(0.151135 -0.138987 0)
(0.169162 -0.130107 0)
(0.186878 -0.117106 0)
(0.203412 -0.100279 0)
(0.217854 -0.0798462 0)
(0.22934 -0.0563506 0)
(0.237113 -0.0306463 0)
(0.240636 -0.00371876 0)
(0.239717 0.0232309 0)
(0.234473 0.0490711 0)
(0.225405 0.0727645 0)
(0.21321 0.0934963 0)
(0.198708 0.110748 0)
(0.182731 0.124295 0)
(0.166054 0.134086 0)
(0.149067 0.140483 0)
(0.172749 -0.151156 0)
(0.19093 -0.138488 0)
(0.208327 -0.122041 0)
(0.224088 -0.102168 0)
(0.237451 -0.0791899 0)
(0.247687 -0.0537021 0)
(0.254229 -0.0264215 0)
(0.256718 0.00164791 0)
(0.255031 0.0296176 0)
(0.249379 0.0564897 0)
(0.240167 0.0814266 0)
(0.227989 0.103733 0)
(0.213551 0.122945 0)
(0.19757 0.138805 0)
(0.180735 0.151228 0)
(0.163428 0.160478 0)
(0.195979 -0.160787 0)
(0.213954 -0.143979 0)
(0.230526 -0.123921 0)
(0.244973 -0.10102 0)
(0.256712 -0.0757322 0)
(0.265266 -0.0485387 0)
(0.270259 -0.020136 0)
(0.271501 0.00877775 0)
(0.268989 0.0374342 0)
(0.262891 0.065133 0)
(0.253547 0.0911628 0)
(0.241385 0.114976 0)
(0.226946 0.136159 0)
(0.210821 0.15446 0)
(0.193606 0.16973 0)
(0.17568 0.182109 0)
(0.220761 -0.16597 0)
(0.23785 -0.144828 0)
(0.252777 -0.1213 0)
(0.265155 -0.0957992 0)
(0.274699 -0.0686712 0)
(0.281168 -0.0403535 0)
(0.284392 -0.0113147 0)
(0.284298 0.0179396 0)
(0.2809 0.0469253 0)
(0.274324 0.0751168 0)
(0.264787 0.101998 0)
(0.252585 0.127134 0)
(0.238008 0.150274 0)
(0.221492 0.171125 0)
(0.203443 0.189492 0)
(0.184264 0.205296 0)
(0.244723 -0.16332 0)
(0.259553 -0.138547 0)
(0.271883 -0.112439 0)
(0.281595 -0.0852484 0)
(0.288595 -0.0572368 0)
(0.292815 -0.0286739 0)
(0.294216 0.000165025 0)
(0.292783 0.0290024 0)
(0.28853 0.0575605 0)
(0.281499 0.0855642 0)
(0.271757 0.112744 0)
(0.259397 0.138838 0)
(0.24454 0.163595 0)
(0.227327 0.186776 0)
(0.207925 0.208159 0)
(0.186521 0.227536 0)
(0.00191037 0.00163195 0)
(0.00349591 0.00317658 0)
(0.00461485 0.00472699 0)
(0.00530156 0.00644239 0)
(0.00541483 0.00821649 0)
(0.00489396 0.00992171 0)
(0.00378163 0.0114985 0)
(0.0021338 0.0126695 0)
(0.000158705 0.0131505 0)
(-0.00181901 0.0128102 0)
(-0.00344116 0.0116879 0)
(-0.00444494 0.00999605 0)
(-0.00470769 0.00799571 0)
(-0.00424515 0.0058983 0)
(-0.00321086 0.00387926 0)
(-0.00169397 0.00188486 0)
(0.00828668 0.00723503 0)
(0.012213 0.0115456 0)
(0.0149377 0.0161198 0)
(0.0162372 0.0208994 0)
(0.015982 0.0258001 0)
(0.0140873 0.0306026 0)
(0.010582 0.0347974 0)
(0.00574179 0.0378238 0)
(0.00013382 0.0389965 0)
(-0.0054131 0.038044 0)
(-0.0100319 0.0350844 0)
(-0.0130809 0.0306211 0)
(-0.0142238 0.0252569 0)
(-0.0134823 0.0195691 0)
(-0.0110432 0.0138672 0)
(-0.00726068 0.0083071 0)
(0.0167118 0.0147936 0)
(0.0222594 0.0216816 0)
(0.0257143 0.0288045 0)
(0.0270368 0.0363511 0)
(0.0259508 0.0440023 0)
(0.0223569 0.0512496 0)
(0.0164166 0.057464 0)
(0.00860243 0.0618366 0)
(-0.000228937 0.0634119 0)
(-0.00888663 0.0618873 0)
(-0.0161726 0.057474 0)
(-0.0211998 0.0508626 0)
(-0.0234847 0.0428741 0)
(-0.0229594 0.0342561 0)
(-0.0199449 0.0256328 0)
(-0.0146967 0.0170398 0)
(0.0270338 0.0242777 0)
(0.0332838 0.0332901 0)
(0.0368693 0.0427815 0)
(0.0375905 0.0526448 0)
(0.0352462 0.0625361 0)
(0.0297776 0.0718637 0)
(0.0213997 0.0796223 0)
(0.0107979 0.084885 0)
(-0.000921292 0.0866384 0)
(-0.0123261 0.0845822 0)
(-0.0220195 0.0790096 0)
(-0.0289676 0.0707491 0)
(-0.0325698 0.0607199 0)
(-0.0327451 0.049866 0)
(-0.0296765 0.0387906 0)
(-0.0237666 0.0277843 0)
(0.0388442 0.035386 0)
(0.0451617 0.0463716 0)
(0.048158 0.0577842 0)
(0.0478262 0.0696753 0)
(0.0438958 0.0814671 0)
(0.0363558 0.0922961 0)
(0.0255768 0.101183 0)
(0.0123721 0.106964 0)
(-0.00194282 0.108723 0)
(-0.0157974 0.106185 0)
(-0.0276827 0.0996951 0)
(-0.0364985 0.0902053 0)
(-0.0415693 0.0786602 0)
(-0.0427242 0.0660414 0)
(-0.040222 0.0531832 0)
(-0.0343256 0.040275 0)
(0.0519501 0.0480822 0)
(0.0575559 0.0606381 0)
(0.0594895 0.0738225 0)
(0.0576425 0.0873304 0)
(0.0518298 0.100538 0)
(0.0421138 0.112557 0)
(0.0289691 0.122184 0)
(0.0133393 0.128216 0)
(-0.00333174 0.12985 0)
(-0.0193936 0.126869 0)
(-0.0333134 0.119686 0)
(-0.0439451 0.109264 0)
(-0.050564 0.0965869 0)
(-0.053031 0.0827367 0)
(-0.0514359 0.0684614 0)
(-0.0461507 0.0541485 0)
(0.065945 0.0620912 0)
(0.0703295 0.0761242 0)
(0.0706411 0.09066 0)
(0.0669467 0.10552 0)
(0.0590286 0.119853 0)
(0.047048 0.13259 0)
(0.0315852 0.142588 0)
(0.0136978 0.148647 0)
(-0.0051165 0.150056 0)
(-0.0231909 0.146674 0)
(-0.0390117 0.138984 0)
(-0.0514015 0.127875 0)
(-0.0596715 0.114425 0)
(-0.0635919 0.099645 0)
(-0.0633417 0.0844495 0)
(-0.0591782 0.0691419 0)
(0.0806119 0.0774254 0)
(0.0831741 0.0925822 0)
(0.0815062 0.108361 0)
(0.0756195 0.124195 0)
(0.0654204 0.139226 0)
(0.0511195 0.152423 0)
(0.0334009 0.162477 0)
(0.0134002 0.168366 0)
(-0.00737497 0.169464 0)
(-0.0272959 0.165698 0)
(-0.0448954 0.157616 0)
(-0.0590099 0.146041 0)
(-0.0689608 0.132059 0)
(-0.0745806 0.116725 0)
(-0.0758799 0.100851 0)
(-0.0732358 0.0848729 0)
(0.0955608 0.0938903 0)
(0.095902 0.110113 0)
(0.091864 0.126754 0)
(0.0835316 0.143288 0)
(0.0708946 0.15877 0)
(0.0542507 0.171985 0)
(0.0343599 0.181842 0)
(0.0123926 0.187387 0)
(-0.0101754 0.188104 0)
(-0.0318053 0.183992 0)
(-0.0510759 0.175588 0)
(-0.0668713 0.163717 0)
(-0.0785881 0.149437 0)
(-0.0859615 0.133714 0)
(-0.0891143 0.117457 0)
(-0.0883624 0.101097 0)
(0.110533 0.111578 0)
(0.108177 0.128566 0)
(0.10147 0.145907 0)
(0.0904823 0.162818 0)
(0.0753028 0.178305 0)
(0.0563176 0.191305 0)
(0.0343511 0.20072 0)
(0.0105612 0.205759 0)
(-0.0136495 0.206021 0)
(-0.0368429 0.201584 0)
(-0.0576741 0.192913 0)
(-0.0751311 0.18086 0)
(-0.0886102 0.166416 0)
(-0.0979471 0.150522 0)
(-0.103099 0.134052 0)
(-0.104515 0.117427 0)
(0.125092 0.130467 0)
(0.119703 0.148094 0)
(0.110009 0.165783 0)
(0.0961899 0.182722 0)
(0.0784072 0.197941 0)
(0.0571322 0.210365 0)
(0.0332122 0.219105 0)
(0.00776331 0.223483 0)
(-0.017927 0.223217 0)
(-0.0425308 0.218408 0)
(-0.064825 0.209523 0)
(-0.0839066 0.197397 0)
(-0.0992574 0.1829 0)
(-0.1106 0.166975 0)
(-0.118019 0.150357 0)
(-0.121828 0.133612 0)
(0.138816 0.150695 0)
(0.129999 0.168718 0)
(0.117057 0.186484 0)
(0.100279 0.203089 0)
(0.0798793 0.217604 0)
(0.0564054 0.229145 0)
(0.0307106 0.236957 0)
(0.00378562 0.240505 0)
(-0.0231658 0.239605 0)
(-0.0490068 0.234378 0)
(-0.072675 0.225343 0)
(-0.0933837 0.213182 0)
(-0.110622 0.198734 0)
(-0.124173 0.182787 0)
(-0.133989 0.166129 0)
(-0.140423 0.149151 0)
(0.151019 0.172406 0)
(0.138412 0.190603 0)
(0.122019 0.208042 0)
(0.102181 0.223861 0)
(0.0792236 0.237278 0)
(0.0537439 0.247558 0)
(0.0264658 0.25413 0)
(-0.00160673 0.256639 0)
(-0.0295841 0.254968 0)
(-0.05646 0.249333 0)
(-0.0813973 0.240142 0)
(-0.103691 0.228001 0)
(-0.122889 0.213595 0)
(-0.138748 0.197631 0)
(-0.15118 0.180809 0)
(-0.160455 0.163505 0)
(0.160696 0.19578 0)
(0.143935 0.213767 0)
(0.123914 0.230365 0)
(0.101035 0.244846 0)
(0.0757549 0.256617 0)
(0.0485619 0.265197 0)
(0.020158 0.270209 0)
(-0.00875905 0.271465 0)
(-0.0374214 0.268964 0)
(-0.0651285 0.262876 0)
(-0.0911603 0.253548 0)
(-0.114968 0.241405 0)
(-0.136144 0.226981 0)
(-0.154442 0.210868 0)
(-0.169716 0.193657 0)
(-0.182108 0.175736 0)
(0.165931 0.220692 0)
(0.144814 0.237783 0)
(0.121301 0.252719 0)
(0.0958071 0.265109 0)
(0.0686798 0.274666 0)
(0.0403608 0.281144 0)
(0.0113207 0.284376 0)
(-0.0179345 0.284288 0)
(-0.0469219 0.280894 0)
(-0.0751163 0.274323 0)
(-0.101998 0.264792 0)
(-0.127134 0.252596 0)
(-0.150272 0.238024 0)
(-0.171123 0.221512 0)
(-0.189491 0.203465 0)
(-0.2053 0.184289 0)
(0.16332 0.244723 0)
(0.138547 0.259553 0)
(0.112439 0.271883 0)
(0.0852484 0.281595 0)
(0.0572368 0.288595 0)
(0.0286739 0.292815 0)
(-0.000165025 0.294216 0)
(-0.0290024 0.292783 0)
(-0.0575605 0.28853 0)
(-0.0855642 0.281499 0)
(-0.112744 0.271757 0)
(-0.138838 0.259397 0)
(-0.163595 0.24454 0)
(-0.186776 0.227327 0)
(-0.208159 0.207925 0)
(-0.227536 0.186521 0)
(-0.00162801 0.0019031 0)
(-0.00317971 0.003493 0)
(-0.00473636 0.0046206 0)
(-0.00645888 0.00531021 0)
(-0.0082407 0.0054228 0)
(-0.0099539 0.00490001 0)
(-0.011537 0.0037835 0)
(-0.012714 0.00212739 0)
(-0.013202 0.000139446 0)
(-0.0128698 -0.00185348 0)
(-0.0117479 -0.0034897 0)
(-0.0101096 -0.00452652 0)
(-0.00809645 -0.00479285 0)
(-0.00593537 -0.00428659 0)
(-0.0038928 -0.00322779 0)
(-0.00188336 -0.00170244 0)
(-0.00722892 0.00827429 0)
(-0.0115568 0.0122166 0)
(-0.0161486 0.0149555 0)
(-0.0209511 0.0162622 0)
(-0.0258754 0.016004 0)
(-0.0306989 0.0140995 0)
(-0.0349103 0.01058 0)
(-0.0379534 0.00571503 0)
(-0.0391432 7.35745e-05 0)
(-0.0382072 -0.00551138 0)
(-0.035292 -0.0101844 0)
(-0.0308312 -0.0132745 0)
(-0.0254086 -0.0143964 0)
(-0.0196638 -0.0136122 0)
(-0.0139073 -0.0111072 0)
(-0.00830857 -0.00729161 0)
(-0.0147865 0.0167031 0)
(-0.0216993 0.0222729 0)
(-0.0288537 0.0257467 0)
(-0.0364369 0.0270752 0)
(-0.0441246 0.0259807 0)
(-0.0514058 0.0223712 0)
(-0.0576462 0.0164062 0)
(-0.062042 0.00855368 0)
(-0.0636419 -0.000327826 0)
(-0.0621429 -0.00904319 0)
(-0.0577475 -0.0163923 0)
(-0.0511754 -0.0214917 0)
(-0.0431281 -0.0237752 0)
(-0.0343926 -0.0231656 0)
(-0.02569 -0.0200666 0)
(-0.017046 -0.014758 0)
(-0.0242679 0.0270317 0)
(-0.0333135 0.033311 0)
(-0.0428487 0.0369149 0)
(-0.0527618 0.0376388 0)
(-0.062702 0.0352812 0)
(-0.0720727 0.0297885 0)
(-0.0798634 0.0213761 0)
(-0.0851543 0.0107245 0)
(-0.0869352 -0.00105564 0)
(-0.0849009 -0.0125289 0)
(-0.079366 -0.0223109 0)
(-0.0710774 -0.0293197 0)
(-0.0609614 -0.0329062 0)
(-0.0500218 -0.0330217 0)
(-0.0388599 -0.0298545 0)
(-0.0277958 -0.0238627 0)
(-0.0353704 0.0388528 0)
(-0.0463988 0.045203 0)
(-0.0578668 0.0482151 0)
(-0.0698184 0.047881 0)
(-0.0816685 0.0439307 0)
(-0.0925494 0.0363597 0)
(-0.101473 0.0255373 0)
(-0.107284 0.0122757 0)
(-0.109071 -0.00210711 0)
(-0.106556 -0.0160411 0)
(-0.100062 -0.0280103 0)
(-0.0905615 -0.0369054 0)
(-0.0789432 -0.0419831 0)
(-0.0662034 -0.0430568 0)
(-0.053254 -0.0404519 0)
(-0.0402879 -0.0344589 0)
(-0.0480599 0.0519725 0)
(-0.0606659 0.0576102 0)
(-0.0739158 0.0595557 0)
(-0.0874935 0.0576996 0)
(-0.100769 0.0518612 0)
(-0.112845 0.0421073 0)
(-0.122509 0.0289129 0)
(-0.128571 0.0132216 0)
(-0.130228 -0.00352018 0)
(-0.127261 -0.019664 0)
(-0.120086 -0.0336855 0)
(-0.109605 -0.0443805 0)
(-0.0968266 -0.050992 0)
(-0.0828888 -0.053406 0)
(-0.0685284 -0.0517119 0)
(-0.054159 -0.0463205 0)
(-0.0620594 0.0659816 0)
(-0.0761511 0.0703962 0)
(-0.0907603 0.0707116 0)
(-0.105698 0.0670026 0)
(-0.120104 0.0590535 0)
(-0.1329 0.0470288 0)
(-0.142936 0.0315122 0)
(-0.14902 0.0135628 0)
(-0.150447 -0.00532202 0)
(-0.147076 -0.0234818 0)
(-0.139354 -0.0393868 0)
(-0.128197 -0.0518534 0)
(-0.114667 -0.0601395 0)
(-0.0997781 -0.063997 0)
(-0.0845035 -0.0636518 0)
(-0.0691444 -0.059381 0)
(-0.0773854 0.0806649 0)
(-0.0926072 0.0832477 0)
(-0.108466 0.0815782 0)
(-0.124384 0.0756704 0)
(-0.139491 0.065436 0)
(-0.152744 0.0510871 0)
(-0.162831 0.0333142 0)
(-0.168739 0.013253 0)
(-0.169849 -0.00758883 0)
(-0.166078 -0.0275871 0)
(-0.15798 -0.0452856 0)
(-0.146332 -0.0594605 0)
(-0.132247 -0.0694165 0)
(-0.116834 -0.0749999 0)
(-0.100889 -0.0762184 0)
(-0.0848652 -0.0734689 0)
(-0.0938451 0.0956249 0)
(-0.11014 0.0959809 0)
(-0.126867 0.0919315 0)
(-0.143485 0.0835749 0)
(-0.159039 0.0708997 0)
(-0.172303 0.0542068 0)
(-0.182185 0.0342622 0)
(-0.187741 0.01224 0)
(-0.188463 -0.0103879 0)
(-0.184346 -0.0320928 0)
(-0.175895 -0.0514337 0)
(-0.16396 -0.0673025 0)
(-0.149606 -0.0790482 0)
(-0.133794 -0.0863846 0)
(-0.117477 -0.0894641 0)
(-0.101074 -0.0886183 0)
(-0.111536 0.110611 0)
(-0.128603 0.108254 0)
(-0.14603 0.101531 0)
(-0.163018 0.0905159 0)
(-0.178565 0.0752965 0)
(-0.191603 0.0562644 0)
(-0.201035 0.0342492 0)
(-0.206078 0.0104105 0)
(-0.206338 -0.0138496 0)
(-0.20188 -0.0370994 0)
(-0.193183 -0.0580151 0)
(-0.18107 -0.0755316 0)
(-0.166529 -0.0890334 0)
(-0.150573 -0.0983513 0)
(-0.134048 -0.103449 0)
(-0.117391 -0.104784 0)
(-0.130441 0.125176 0)
(-0.148149 0.119776 0)
(-0.165913 0.110062 0)
(-0.182913 0.0962119 0)
(-0.198177 0.0783904 0)
(-0.210625 0.0570748 0)
(-0.219373 0.0331116 0)
(-0.22375 0.00762459 0)
(-0.223475 -0.0181041 0)
(-0.218652 -0.042757 0)
(-0.209734 -0.0650969 0)
(-0.197533 -0.0842409 0)
(-0.182977 -0.0996245 0)
(-0.166985 -0.11096 0)
(-0.150329 -0.118341 0)
(-0.133557 -0.122086 0)
(-0.150696 0.138898 0)
(-0.168787 0.130065 0)
(-0.186609 0.117099 0)
(-0.203258 0.100288 0)
(-0.217798 0.0798555 0)
(-0.229352 0.056347 0)
(-0.237164 0.0306202 0)
(-0.240707 0.00366593 0)
(-0.239795 -0.023308 0)
(-0.234549 -0.0491689 0)
(-0.225474 -0.072879 0)
(-0.213267 -0.0936273 0)
(-0.198752 -0.110894 0)
(-0.182762 -0.124453 0)
(-0.166077 -0.134251 0)
(-0.149086 -0.14065 0)
(-0.172427 0.151091 0)
(-0.190672 0.138466 0)
(-0.208149 0.122046 0)
(-0.223992 0.102181 0)
(-0.237422 0.0791956 0)
(-0.247704 0.0536918 0)
(-0.254271 0.0263929 0)
(-0.256771 -0.00169551 0)
(-0.255085 -0.0296822 0)
(-0.24943 -0.056568 0)
(-0.240212 -0.0815181 0)
(-0.228025 -0.103837 0)
(-0.213578 -0.123062 0)
(-0.19759 -0.138934 0)
(-0.18075 -0.151368 0)
(-0.163442 -0.160627 0)
(-0.195805 0.160747 0)
(-0.213821 0.14397 0)
(-0.230439 0.123928 0)
(-0.244931 0.101029 0)
(-0.256705 0.07573 0)
(-0.265282 0.0485242 0)
(-0.270287 0.0201099 0)
(-0.271533 -0.00881362 0)
(-0.269021 -0.0374786 0)
(-0.262919 -0.0651848 0)
(-0.25357 -0.0912217 0)
(-0.241403 -0.115043 0)
(-0.22696 -0.136235 0)
(-0.210831 -0.154546 0)
(-0.193613 -0.169826 0)
(-0.175684 -0.182218 0)
(-0.220707 0.165954 0)
(-0.23781 0.144828 0)
(-0.252753 0.121305 0)
(-0.265146 0.0958008 0)
(-0.274701 0.0686662 0)
(-0.281177 0.0403426 0)
(-0.284404 0.0112999 0)
(-0.28431 -0.017957 0)
(-0.280911 -0.0469448 0)
(-0.274334 -0.0751385 0)
(-0.264796 -0.102022 0)
(-0.252592 -0.127161 0)
(-0.238013 -0.150305 0)
(-0.221495 -0.171161 0)
(-0.203443 -0.189535 0)
(-0.184262 -0.205346 0)
(-0.244723 0.16332 0)
(-0.259553 0.138547 0)
(-0.271883 0.112439 0)
(-0.281595 0.0852484 0)
(-0.288595 0.0572368 0)
(-0.292815 0.0286739 0)
(-0.294216 -0.000165025 0)
(-0.292783 -0.0290024 0)
(-0.28853 -0.0575605 0)
(-0.281499 -0.0855642 0)
(-0.271757 -0.112744 0)
(-0.259397 -0.138838 0)
(-0.24454 -0.163595 0)
(-0.227327 -0.186776 0)
(-0.207925 -0.208159 0)
(-0.186521 -0.227536 0)
(-0.00190203 -0.00163781 0)
(-0.0034933 -0.00318322 0)
(-0.00461821 -0.00473462 0)
(-0.00530483 -0.00645187 0)
(-0.00541912 -0.00822634 0)
(-0.00490087 -0.00993406 0)
(-0.0037874 -0.0115131 0)
(-0.00213556 -0.0126867 0)
(-0.000153825 -0.0131701 0)
(0.00183074 -0.0128307 0)
(0.00345768 -0.0117082 0)
(0.00446495 -0.0100181 0)
(0.00472432 -0.00801071 0)
(0.00428721 -0.0059539 0)
(0.00322439 -0.00389913 0)
(0.00170732 -0.00190129 0)
(-0.00827056 -0.00725853 0)
(-0.0122144 -0.0115678 0)
(-0.0149439 -0.0161467 0)
(-0.0162474 -0.0209296 0)
(-0.0159953 -0.0258335 0)
(-0.0141017 -0.0306398 0)
(-0.0105926 -0.0348394 0)
(-0.00574128 -0.0378714 0)
(-0.000116524 -0.0390492 0)
(0.00544775 -0.0380986 0)
(0.0100792 -0.0351395 0)
(0.0131337 -0.0306753 0)
(0.0142967 -0.0253393 0)
(0.0135431 -0.0196319 0)
(0.0111133 -0.0139495 0)
(0.00728119 -0.00833175 0)
(-0.0166992 -0.0148333 0)
(-0.0222617 -0.0217234 0)
(-0.0257257 -0.0288511 0)
(-0.0270517 -0.0364034 0)
(-0.0259682 -0.0440584 0)
(-0.0223751 -0.0513119 0)
(-0.0164269 -0.0575336 0)
(-0.00859521 -0.0619141 0)
(0.000261392 -0.063496 0)
(0.00894464 -0.0619738 0)
(0.016249 -0.0575603 0)
(0.0212887 -0.0509531 0)
(0.0235768 -0.0429619 0)
(0.0230891 -0.0343978 0)
(0.0200252 -0.0257181 0)
(0.014734 -0.0170824 0)
(-0.0270244 -0.0243358 0)
(-0.03329 -0.0333504 0)
(-0.0368828 -0.0428488 0)
(-0.0376082 -0.0527188 0)
(-0.0352658 -0.062616 0)
(-0.0297944 -0.0719503 0)
(-0.0214044 -0.079717 0)
(-0.0107793 -0.0849882 0)
(0.000970762 -0.0867482 0)
(0.0124069 -0.0846943 0)
(0.0221232 -0.079122 0)
(0.0290836 -0.0708603 0)
(0.0327146 -0.0608639 0)
(0.0328728 -0.0499815 0)
(0.0298001 -0.0389093 0)
(0.0238243 -0.0278378 0)
(-0.0388411 -0.0354601 0)
(-0.0451701 -0.0464512 0)
(-0.0481732 -0.0578718 0)
(-0.0478445 -0.0697711 0)
(-0.0439136 -0.0815696 0)
(-0.0363673 -0.0924062 0)
(-0.0255713 -0.101301 0)
(-0.0123389 -0.107091 0)
(0.00201125 -0.108855 0)
(0.0159007 -0.106318 0)
(0.0278124 -0.0998288 0)
(0.0366499 -0.0903466 0)
(0.0417252 -0.0787933 0)
(0.0429156 -0.0662134 0)
(0.0403607 -0.0532947 0)
(0.0344055 -0.0403376 0)
(-0.0519526 -0.0481726 0)
(-0.0575667 -0.0607364 0)
(-0.0595051 -0.0739303 0)
(-0.0576586 -0.087448 0)
(-0.0518425 -0.100663 0)
(-0.042116 -0.11269 0)
(-0.0289501 -0.122323 0)
(-0.0132887 -0.128362 0)
(0.00341973 -0.129999 0)
(0.0195184 -0.12702 0)
(0.0334681 -0.119837 0)
(0.0441196 -0.109416 0)
(0.0507793 -0.0967694 0)
(0.0532277 -0.0828839 0)
(0.0516306 -0.0686021 0)
(0.0462825 -0.0542332 0)
(-0.0659526 -0.0621977 0)
(-0.0703426 -0.0762409 0)
(-0.0706548 -0.0907891 0)
(-0.066959 -0.105659 0)
(-0.0590337 -0.119999 0)
(-0.0470374 -0.132742 0)
(-0.0315494 -0.142745 0)
(-0.0136285 -0.148808 0)
(0.00522388 -0.150217 0)
(0.0233354 -0.146835 0)
(0.0391872 -0.139146 0)
(0.0516113 -0.128049 0)
(0.0598932 -0.114587 0)
(0.063859 -0.0998327 0)
(0.0635719 -0.0845868 0)
(0.0593524 -0.0692292 0)
(-0.0806249 -0.077548 0)
(-0.0831867 -0.0927198 0)
(-0.0815181 -0.108511 0)
(-0.0756248 -0.124355 0)
(-0.0654137 -0.139392 0)
(-0.0510935 -0.152592 0)
(-0.0333474 -0.162647 0)
(-0.0133123 -0.168535 0)
(0.00749948 -0.169631 0)
(0.0274568 -0.165864 0)
(0.0450893 -0.157785 0)
(0.0592339 -0.146209 0)
(0.0692429 -0.132251 0)
(0.0748574 -0.116888 0)
(0.076173 -0.100998 0)
(0.0735057 -0.0849964 0)
(-0.0955757 -0.0940317 0)
(-0.0959147 -0.110271 0)
(-0.0918689 -0.126925 0)
(-0.0835274 -0.143467 0)
(-0.0708746 -0.158951 0)
(-0.0542078 -0.172164 0)
(-0.0342883 -0.182018 0)
(-0.012289 -0.187557 0)
(0.0103134 -0.188269 0)
(0.031976 -0.184155 0)
(0.0512805 -0.175752 0)
(0.0671225 -0.16389 0)
(0.0788618 -0.149598 0)
(0.086302 -0.133889 0)
(0.0894701 -0.117627 0)
(0.0887102 -0.101237 0)
(-0.110551 -0.111736 0)
(-0.108184 -0.128743 0)
(-0.101467 -0.146095 0)
(-0.0904648 -0.163009 0)
(-0.0752661 -0.178493 0)
(-0.0562578 -0.191486 0)
(-0.0342653 -0.200892 0)
(-0.0104464 -0.205921 0)
(0.0137931 -0.206176 0)
(0.0370168 -0.201734 0)
(0.0578824 -0.193064 0)
(0.0753747 -0.181006 0)
(0.0889301 -0.166576 0)
(0.0983019 -0.150706 0)
(0.103514 -0.134225 0)
(0.104944 -0.117614 0)
(-0.125107 -0.130639 0)
(-0.119705 -0.148283 0)
(-0.109994 -0.165977 0)
(-0.0961573 -0.182912 0)
(-0.0783551 -0.198122 0)
(-0.057059 -0.210534 0)
(-0.0331169 -0.21926 0)
(-0.00764575 -0.223626 0)
(0.0180681 -0.22335 0)
(0.0426976 -0.218537 0)
(0.0650251 -0.209649 0)
(0.0841625 -0.197525 0)
(0.0995552 -0.183053 0)
(0.110976 -0.167136 0)
(0.11843 -0.150557 0)
(0.122277 -0.13378 0)
(-0.138828 -0.150869 0)
(-0.129991 -0.168902 0)
(-0.117031 -0.186665 0)
(-0.100234 -0.203261 0)
(-0.0798167 -0.217762 0)
(-0.0563264 -0.229287 0)
(-0.0306162 -0.237082 0)
(-0.00367565 -0.240617 0)
(0.0232924 -0.239707 0)
(0.0491567 -0.234474 0)
(0.0728574 -0.225438 0)
(0.0936062 -0.213286 0)
(0.110902 -0.198854 0)
(0.124493 -0.182946 0)
(0.134359 -0.166289 0)
(0.14081 -0.14932 0)
(-0.151023 -0.172562 0)
(-0.138398 -0.190759 0)
(-0.121986 -0.208189 0)
(-0.102133 -0.223995 0)
(-0.0791625 -0.237397 0)
(-0.0536726 -0.24766 0)
(-0.0263856 -0.254216 0)
(0.00169584 -0.256713 0)
(0.0296852 -0.255033 0)
(0.0565777 -0.249394 0)
(0.0815417 -0.240203 0)
(0.103868 -0.228072 0)
(0.1231 -0.213684 0)
(0.138984 -0.197743 0)
(0.151435 -0.180933 0)
(0.160725 -0.163646 0)
(-0.160692 -0.195891 0)
(-0.143917 -0.213872 0)
(-0.123884 -0.230458 0)
(-0.100997 -0.244927 0)
(-0.0757099 -0.256686 0)
(-0.0485124 -0.265255 0)
(-0.0201045 -0.270256 0)
(0.00881714 -0.271502 0)
(0.037486 -0.268996 0)
(0.0652046 -0.262907 0)
(0.0912516 -0.25358 0)
(0.115078 -0.241442 0)
(0.136267 -0.227032 0)
(0.154579 -0.210928 0)
(0.169848 -0.193745 0)
(0.182242 -0.175843 0)
(-0.165924 -0.220742 0)
(-0.144801 -0.237825 0)
(-0.121284 -0.252754 0)
(-0.0957883 -0.265139 0)
(-0.0686598 -0.27469 0)
(-0.0403398 -0.281164 0)
(-0.0112987 -0.284392 0)
(0.0179581 -0.2843 0)
(0.0469487 -0.280904 0)
(0.0751475 -0.274333 0)
(0.102035 -0.264802 0)
(0.127176 -0.252609 0)
(0.150317 -0.238042 0)
(0.171171 -0.221534 0)
(0.189523 -0.20352 0)
(0.205346 -0.184331 0)
(-0.16332 -0.244723 0)
(-0.138547 -0.259553 0)
(-0.112439 -0.271883 0)
(-0.0852484 -0.281595 0)
(-0.0572368 -0.288595 0)
(-0.0286739 -0.292815 0)
(0.000165025 -0.294216 0)
(0.0290024 -0.292783 0)
(0.0575605 -0.28853 0)
(0.0855642 -0.281499 0)
(0.112744 -0.271757 0)
(0.138838 -0.259397 0)
(0.163595 -0.24454 0)
(0.186776 -0.227327 0)
(0.208159 -0.207925 0)
(0.227536 -0.186521 0)
)
;

boundaryField
{
    walls
    {
        type            cellMotion;
        value           uniform (0 0 0);
    }
    cylinder
    {
        type            cellMotion;
        value           nonuniform List<vector> 
64
(
(0.244723 -0.16332 0)
(0.259553 -0.138547 0)
(0.271883 -0.112439 0)
(0.281595 -0.0852484 0)
(0.288595 -0.0572368 0)
(0.292815 -0.0286739 0)
(0.294216 0.000165025 0)
(0.292783 0.0290024 0)
(0.28853 0.0575605 0)
(0.281499 0.0855642 0)
(0.271757 0.112744 0)
(0.259397 0.138838 0)
(0.24454 0.163595 0)
(0.227327 0.186776 0)
(0.207925 0.208159 0)
(0.186521 0.227536 0)
(0.16332 0.244723 0)
(0.138547 0.259553 0)
(0.112439 0.271883 0)
(0.0852484 0.281595 0)
(0.0572368 0.288595 0)
(0.0286739 0.292815 0)
(-0.000165025 0.294216 0)
(-0.0290024 0.292783 0)
(-0.0575605 0.28853 0)
(-0.0855642 0.281499 0)
(-0.112744 0.271757 0)
(-0.138838 0.259397 0)
(-0.163595 0.24454 0)
(-0.186776 0.227327 0)
(-0.208159 0.207925 0)
(-0.227536 0.186521 0)
(-0.244723 0.16332 0)
(-0.259553 0.138547 0)
(-0.271883 0.112439 0)
(-0.281595 0.0852484 0)
(-0.288595 0.0572368 0)
(-0.292815 0.0286739 0)
(-0.294216 -0.000165025 0)
(-0.292783 -0.0290024 0)
(-0.28853 -0.0575605 0)
(-0.281499 -0.0855642 0)
(-0.271757 -0.112744 0)
(-0.259397 -0.138838 0)
(-0.24454 -0.163595 0)
(-0.227327 -0.186776 0)
(-0.207925 -0.208159 0)
(-0.186521 -0.227536 0)
(-0.16332 -0.244723 0)
(-0.138547 -0.259553 0)
(-0.112439 -0.271883 0)
(-0.0852484 -0.281595 0)
(-0.0572368 -0.288595 0)
(-0.0286739 -0.292815 0)
(0.000165025 -0.294216 0)
(0.0290024 -0.292783 0)
(0.0575605 -0.28853 0)
(0.0855642 -0.281499 0)
(0.112744 -0.271757 0)
(0.138838 -0.259397 0)
(0.163595 -0.24454 0)
(0.186776 -0.227327 0)
(0.208159 -0.207925 0)
(0.227536 -0.186521 0)
)
;
    }
    outlet
    {
        type            cellMotion;
        value           uniform (0 0 0);
    }
    inlet
    {
        type            cellMotion;
        value           uniform (0 0 0);
    }
    frontAndBack
    {
        type            empty;
    }
}


// ************************************************************************* //
