/*--------------------------------*- C++ -*----------------------------------*\
| =========                 |                                                 |
| \\      /  F ield         | OpenFOAM: The Open Source CFD Toolbox           |
|  \\    /   O peration     | Version:  2412                                  |
|   \\  /    A nd           | Website:  www.openfoam.com                      |
|    \\/     M anipulation  |                                                 |
\*---------------------------------------------------------------------------*/
FoamFile
{
    version     2.0;
    format      ascii;
    arch        "LSB;label=32;scalar=64";
    class       surfaceScalarField;
    location    "0.4";
    object      meshPhi;
}
// * * * * * * * * * * * * * * * * * * * * * * * * * * * * * * * * * * * * * //

dimensions      [0 3 -1 0 0 0 0];

internalField   nonuniform List<scalar> 
1984
(
0.00229216
-0.00544476
-0.00212108
0.00270352
-0.00688538
0.00315148
-0.00861311
0.00339939
-0.00974773
0.00336204
-0.00980057
0.00338874
-0.00896199
0.00350664
-0.00760844
0.00360258
-0.00557245
0.00375071
-0.00285659
0.00396052
0.000263037
0.00423669
0.00356043
0.00430329
0.00641541
0.00393005
0.00795334
0.00320651
0.00788095
0.0023571
0.00679745
0.00581007
0.00202259
0.00716048
-0.0112364
-0.00662827
0.00837476
-0.0138295
0.00951867
-0.0166107
0.0101773
-0.018184
0.0101331
-0.0180634
0.0100718
-0.0163732
0.0103511
-0.0136679
0.010718
-0.00996173
0.0111093
-0.00514835
0.0117151
0.000422795
0.0124014
0.00617784
0.0124903
0.0111136
0.0115176
0.0139641
0.00967893
0.0143153
0.00742219
0.0128866
0.0112453
0.00648117
0.0125751
-0.0171405
-0.0117383
0.0144649
-0.0204268
0.0160108
-0.0237539
0.0169097
-0.0253986
0.0169119
-0.0249335
0.0166011
-0.0223849
0.0168906
-0.018396
0.0175601
-0.0132686
0.0181128
-0.00686952
0.0190057
0.00046029
0.0198932
0.00790898
0.0199194
0.0143049
0.018653
0.01831
0.0161935
0.019315
0.0130769
0.0179376
0.016086
0.0117851
0.0185201
-0.0228937
-0.0175156
0.0209021
-0.0265219
0.0226208
-0.029961
0.0235958
-0.0312853
0.0236751
-0.0303389
0.0232107
-0.0271292
0.0233628
-0.0221042
0.0241
-0.0157172
0.0247355
-0.00806649
0.0256598
0.000411156
0.026592
0.00891318
0.0267054
0.0163685
0.0254182
0.021351
0.0227159
0.0230735
0.019245
0.0221017
0.0204699
0.0180111
0.0250056
-0.0283299
-0.0240532
0.0276877
-0.0318998
0.0294027
-0.0351669
0.030291
-0.0360359
0.0303548
-0.0344577
0.0298617
-0.0305359
0.0298332
-0.0246882
0.0303897
-0.0173464
0.0310438
-0.00880622
0.0318139
0.000384961
0.032713
0.00955805
0.0330707
0.017703
0.0319585
0.0233965
0.0294463
0.0258872
0.0261055
0.0255846
0.0243307
0.0251719
0.0319905
-0.0330658
-0.0313314
0.0347119
-0.036265
0.0363052
-0.0390843
0.0369393
-0.0393774
0.0367633
-0.0370629
0.0362533
-0.0324638
0.036118
-0.0260473
0.0364525
-0.01812
0.0371089
-0.00907011
0.0378089
0.000504597
0.0386522
0.0100055
0.0391838
0.0184721
0.038421
0.0246077
0.0364958
0.027771
0.0336524
0.0281809
0.0273486
0.0330969
0.0394745
-0.0369486
-0.0393493
0.0418435
-0.0394633
0.0431651
-0.0415435
0.0434561
-0.0412865
0.0429595
-0.0384279
0.0423967
-0.0332736
0.042144
-0.0264011
0.0422971
-0.0181305
0.0429114
-0.00891055
0.0436674
0.00071001
0.0445283
0.0102447
0.0451852
0.0187653
0.0449433
0.0251357
0.0438013
0.0287953
0.0415651
0.0296938
0.0291539
0.0414379
0.0476575
-0.0399461
-0.0482587
0.0493339
-0.0417524
0.0500641
-0.042946
0.0499127
-0.0419543
0.0491654
-0.0386115
0.0484245
-0.0330912
0.0479359
-0.0258985
0.0479339
-0.0175143
0.0484009
-0.00842771
0.0491963
0.000981409
0.0502565
0.0102951
0.0512054
0.0186425
0.051601
0.0250258
0.0511781
0.0288724
0.0495248
0.0300416
0.0298143
0.049965
0.0566679
-0.041721
-0.0580836
0.057407
-0.0428328
0.0572552
-0.0431783
0.0565054
-0.041532
0.0554112
-0.0377549
0.0543029
-0.0319356
0.0535004
-0.0245748
0.0533282
-0.0163049
0.0536667
-0.00760836
0.054513
0.00135951
0.0558897
0.0102643
0.0572913
0.0181935
0.0582137
0.0242723
0.0583742
0.0280333
0.057447
0.0293817
0.0295312
0.0587025
0.0662759
-0.0418276
-0.0686238
0.0658862
-0.0422976
0.0647544
-0.0418929
0.0632211
-0.039738
0.0615405
-0.0356818
0.0599723
-0.0297863
0.0588362
-0.0225515
0.058426
-0.0146287
0.0587624
-0.00644215
0.0598263
0.00187709
0.0615131
0.0100106
0.0632907
0.0172126
0.0646743
0.0228208
0.0654657
0.0264774
0.0655608
0.0281087
0.0288055
0.0681229
0.0762723
-0.0402434
-0.0797052
0.0745338
-0.0400814
0.0722854
-0.0388574
0.06985
-0.0362723
0.0674572
-0.0321437
0.0653968
-0.0264972
0.0639495
-0.0197753
0.0633293
-0.0125046
0.0637189
-0.00506332
0.0650376
0.00232732
0.0669646
0.00940759
0.0691197
0.0157518
0.0711658
0.0208655
0.0728893
0.0244423
0.0745286
0.0264528
0.027618
0.0788115
0.0865732
-0.0364589
-0.091273
0.0832889
-0.035791
0.0798216
-0.0339145
0.076398
-0.0310446
0.0732186
-0.0270783
0.0706144
-0.0219911
0.0688722
-0.0160929
0.0681505
-0.00982973
0.0685726
-0.00353697
0.0700221
0.00263234
0.0722385
0.00854355
0.0749705
0.0138946
0.0779643
0.0183741
0.0811392
0.0217772
0.0846311
0.0239166
0.0253001
0.0904847
0.0971314
-0.0301098
-0.103234
0.0922359
-0.0291697
0.0873986
-0.0270112
0.0828564
-0.024142
0.0788349
-0.0206013
0.0756526
-0.0163626
0.0735952
-0.0116267
0.072791
-0.00673035
0.073229
-0.00187966
0.0748391
0.00287271
0.0774869
0.0074529
0.0809969
0.011697
0.085271
0.0153567
0.090184
0.0182053
0.095431
0.0201412
0.0215447
0.102548
0.107751
-0.0212658
-0.115307
0.101093
-0.0202847
0.0947201
-0.0182241
0.0889744
-0.0157897
0.0840886
-0.0130335
0.0803451
-0.00996859
0.077985
-0.00671593
0.0770982
-0.00344179
0.0776249
-0.000225849
0.0795285
0.00299155
0.082754
0.00618427
0.0871962
0.00919166
0.0928448
0.0117987
0.0993933
0.0137612
0.106371
0.0151257
0.0163194
0.114685
0.117196
-0.00987842
-0.126136
0.108674
-0.00902326
0.100827
-0.00772066
0.0939827
-0.0063132
0.0883734
-0.00482482
0.0842123
-0.00326866
0.0816487
-0.00167939
0.0807464
-0.00011221
0.0814602
0.00142209
0.0837706
0.00297751
0.0876664
0.00453895
0.0930143
0.0060249
0.0997611
0.00733076
0.107617
0.0083258
0.116154
0.00908058
0.00982999
0.125731
0.118043
-0.128632
0.10819
0.0995356
0.0923042
0.086654
0.0827007
0.0805114
0.0800969
0.0814076
0.0843902
0.0889543
0.0949219
0.102116
0.110281
0.11911
0.128521
0.0023155
-0.00525941
0.00288219
-0.00720271
0.00346161
-0.00927007
0.00367461
-0.0104377
0.00352849
-0.0102176
0.00347739
-0.00899599
0.00357579
-0.00724466
0.00368148
-0.00478582
0.00382614
-0.00174262
0.00394717
0.00138904
0.00396241
0.0041952
0.00383527
0.00632918
0.00357485
0.00756889
0.00305386
0.00767846
0.00225723
0.00654556
0.00499427
0.00176302
0.00719627
-0.0110849
0.00885112
-0.0142698
0.0103323
-0.0175919
0.0109109
-0.0192152
0.0105957
-0.0186934
0.0103359
-0.0164265
0.0105664
-0.0130594
0.0109602
-0.00860533
0.0113416
-0.00319479
0.011713
0.00244764
0.0117876
0.00749202
0.0114492
0.0113651
0.0107247
0.0136938
0.0093216
0.0141309
0.00716469
0.0125272
0.0100865
0.00580742
0.0127416
-0.0173315
0.0151507
-0.0211229
0.0171178
-0.0248836
0.0179279
-0.0265379
0.0175908
-0.0256395
0.0170264
-0.0224458
0.0172521
-0.0176425
0.0179618
-0.0115453
0.0185023
-0.00434366
0.0190875
0.00313715
0.0192653
0.00981341
0.0188279
0.0150221
0.0178117
0.0183342
0.0157904
0.0192318
0.0127128
0.0175522
0.0148654
0.0108532
0.0190026
-0.0235996
0.0217729
-0.0274753
0.0238744
-0.031149
0.0247592
-0.0323904
0.0244976
-0.0310274
0.0237765
-0.0272112
0.0238603
-0.0213279
0.0246487
-0.0138399
0.0252736
-0.00524471
0.0258814
0.00347456
0.0261573
0.0112488
0.0258534
0.0175206
0.0247392
0.0216996
0.0223486
0.0231086
0.0187927
0.0217402
0.0193508
0.016908
0.0259436
-0.0296167
0.0287554
-0.033211
0.030707
-0.036382
0.0314977
-0.0370136
0.0312675
-0.0350426
0.0305476
-0.0305966
0.0304589
-0.0239228
0.0310712
-0.0154489
0.0317155
-0.00590016
0.0322046
0.00358732
0.032562
0.0121149
0.0325736
0.019164
0.0315345
0.0240051
0.029149
0.0260389
0.0255756
0.0253031
0.0234163
0.0239571
0.0334046
-0.0348392
0.0359745
-0.0378192
0.0376058
-0.0402785
0.0381278
-0.0401542
0.0377318
-0.0374571
0.0370456
-0.0324561
0.0368687
-0.025329
0.0372539
-0.0163344
0.0378978
-0.0062851
0.0383752
0.00364032
0.0388124
0.0126448
0.0390731
0.0201543
0.0382789
0.0254314
0.0362816
0.0280479
0.0330674
0.0280379
0.0267582
0.0318492
0.0411354
-0.0388602
0.0432173
-0.041112
0.0444358
-0.0426242
0.0446205
-0.0417802
0.0439795
-0.0385284
0.0432974
-0.0330993
0.0430193
-0.0256943
0.0432082
-0.0165057
0.0438096
-0.00636865
0.0444167
0.00363039
0.0450056
0.0128133
0.0454477
0.0205215
0.0450654
0.0260667
0.0436714
0.0291705
0.040981
0.0297539
0.0289908
0.0402672
0.0490386
-0.0414404
0.0505225
-0.0430282
0.051231
-0.0436638
0.051069
-0.0420405
0.0502619
-0.038309
0.0494519
-0.0326529
0.0489404
-0.0251563
0.0489465
-0.0160795
0.0494068
-0.00622212
0.05013
0.00357789
0.0510273
0.0127003
0.0517915
0.0203811
0.0519502
0.0259996
0.0511519
0.0293538
0.0490362
0.030364
0.0301285
0.0489961
0.0572089
-0.0424627
0.0581324
-0.0435317
0.0582345
-0.0434139
0.0576738
-0.0411191
0.0566276
-0.03695
0.0554813
-0.0311496
0.0546391
-0.0237581
0.0544417
-0.015069
0.0547882
-0.00578343
0.0556467
0.0035452
0.0569256
0.0123687
0.0581438
0.0197591
0.0587797
0.0251743
0.0585286
0.0286021
0.0571905
0.0299885
0.0302947
0.0580655
0.0660533
-0.0420491
0.0662004
-0.0425342
0.0655978
-0.0416896
0.0644217
-0.0388621
0.0628825
-0.0344062
0.0613037
-0.0286403
0.0600971
-0.0216249
0.059638
-0.0135905
0.0600283
-0.00506349
0.0611422
0.00355296
0.0627563
0.0117221
0.0643902
0.0185899
0.0655182
0.0237344
0.0659378
0.0271887
0.0656838
0.0289514
0.0298708
0.0679116
0.0758396
-0.0401064
0.0747424
-0.0399965
0.073071
-0.0383886
0.0710102
-0.0351394
0.0688231
-0.0306505
0.0668095
-0.0251885
0.0652997
-0.0188417
0.0646528
-0.0117277
0.0651356
-0.00419183
0.0664882
0.00346611
0.0684131
0.0107513
0.0705245
0.0169635
0.0723947
0.0218133
0.0738142
0.0252818
0.0751045
0.0274213
0.0288086
0.0790151
0.0862859
-0.0360731
0.0835243
-0.0355095
0.0804453
-0.0333487
0.077331
-0.0299663
0.0744047
-0.0257316
0.0719401
-0.0208347
0.0702249
-0.0153444
0.0695514
-0.00938891
0.0700489
-0.00313861
0.0715477
0.00325445
0.0738188
0.00945087
0.0766173
0.01488
0.0795378
0.0192606
0.0824611
0.0226006
0.0855559
0.024835
0.0263938
0.0909953
0.0968469
-0.0296976
0.0922845
-0.0288243
0.0876834
-0.0265064
0.0833914
-0.0233399
0.0796531
-0.0196612
0.0767047
-0.0155866
0.0747814
-0.0111803
0.0740801
-0.00658097
0.0745746
-0.00183033
0.0762273
0.00308753
0.0789561
0.00793492
0.0826054
0.0123212
0.0868788
0.0159582
0.0915726
0.0187753
0.0964425
0.0207901
0.0222986
0.103209
0.107311
-0.021022
0.100872
-0.0200399
0.09467
-0.0179042
0.0891302
-0.0153528
0.0845101
-0.0125637
0.0810028
-0.00959909
0.0788042
-0.00653053
0.0780189
-0.00343762
0.0785924
-0.000305168
0.0804989
0.00299679
0.0838251
0.00633501
0.0883704
0.00942495
0.0940457
0.0120387
0.100456
0.0139815
0.107189
0.015387
0.0166404
0.115293
0.116837
-0.0098078
0.108428
-0.00894995
0.100687
-0.00762366
0.0939752
-0.00619407
0.0885217
-0.00470615
0.0844911
-0.00317732
0.0820251
-0.00163768
0.0811827
-0.000126486
0.0819152
0.00138122
0.084224
0.00295588
0.0881807
0.00455097
0.0935724
0.00605647
0.100344
0.00736414
0.108152
0.00835045
0.116595
0.00911169
0.00988211
0.126094
0.117938
0.108111
0.0994889
0.0922938
0.0866793
0.0827555
0.0805897
0.0801899
0.0815029
0.084489
0.0890663
0.0950464
0.102246
0.110406
0.119218
0.128618
0.0019654
-0.0048575
0.00257247
-0.00641241
0.00320784
-0.00843678
0.00349706
-0.00975456
0.00341996
-0.00969871
0.00339846
-0.00858765
0.00349906
-0.00694701
0.00363187
-0.00475832
0.00381083
-0.00205519
0.00402218
0.00103195
0.00430252
0.0043597
0.00436559
0.00725154
0.00396911
0.00878059
0.00320698
0.0086709
0.0022903
0.00755469
0.00648023
0.00184559
0.00627866
-0.0104049
0.00799967
-0.0130293
0.00960924
-0.0162352
0.0103813
-0.0180451
0.0102505
-0.0177584
0.010078
-0.0156312
0.010329
-0.0124332
0.0107931
-0.00844544
0.0112644
-0.00363278
0.0118847
0.00187692
0.0125832
0.00764973
0.012654
0.0126158
0.0116099
0.0154409
0.00965414
0.015729
0.00721156
0.0142456
0.0125036
0.00599098
0.0114704
-0.0164118
0.013906
-0.0196102
0.016017
-0.0232126
0.0170805
-0.0250472
0.0170004
-0.0243863
0.016568
-0.0213145
0.0168478
-0.0167053
0.0176529
-0.0112062
0.0183146
-0.00479603
0.0192451
0.00243992
0.0201541
0.0098766
0.0201425
0.0162924
0.0187546
0.0202663
0.0161046
0.0212001
0.0127223
0.0197676
0.0178387
0.0110778
0.0175143
-0.0224687
0.0202555
-0.0258025
0.022483
-0.0293095
0.0236464
-0.0307051
0.0236739
-0.0295407
0.0231083
-0.0257835
0.023279
-0.0200756
0.0241726
-0.013256
0.0249348
-0.00557631
0.0259215
0.00277965
0.026884
0.0112257
0.0269412
0.0186745
0.0254878
0.0236282
0.0225379
0.0252971
0.0187619
0.0242852
0.0226234
0.0171702
0.0243419
-0.0283183
0.0270675
-0.0314579
0.0291099
-0.034487
0.0301719
-0.0352385
0.030222
-0.0334053
0.0296659
-0.0289567
0.0296826
-0.0224281
0.0304049
-0.0146368
0.031196
-0.00606639
0.0320479
0.00296988
0.032983
0.0120442
0.0332704
0.0201695
0.0319603
0.0258502
0.0291656
0.0283138
0.0255139
0.0280002
0.0267647
0.0242572
0.0317966
-0.0334265
0.034224
-0.0360588
0.0359007
-0.038417
0.0366474
-0.0383892
0.0364861
-0.035771
0.0359519
-0.030701
0.0358828
-0.0236659
0.0363837
-0.0153155
0.0371787
-0.00624062
0.0379684
0.00315785
0.0388484
0.0125231
0.0393004
0.0209495
0.0383221
0.0270895
0.0361002
0.0302649
0.032965
0.0306943
0.0299234
0.0321439
0.0396309
-0.0374009
0.0415128
-0.0394029
0.0427063
-0.04086
0.0430296
-0.0400889
0.0425563
-0.0368802
0.0419962
-0.031348
0.0418198
-0.0239763
0.0421292
-0.0153556
0.0428735
-0.00613829
0.0437139
0.00328105
0.0446031
0.0126445
0.0451709
0.0211117
0.044706
0.0275056
0.043272
0.0312118
0.0407857
0.0321686
0.0317255
0.0404614
0.0477458
-0.0400053
0.0489581
-0.0414233
0.0495391
-0.0420406
0.0494049
-0.0404871
0.0486881
-0.0368052
0.0479607
-0.0310294
0.0475403
-0.0235045
0.0476691
-0.0148936
0.0482422
-0.00585747
0.0491018
0.00333236
0.0501705
0.0124558
0.0510154
0.0207339
0.0511843
0.0271472
0.0504924
0.0310742
0.0486468
0.0323364
0.0322294
0.0489592
0.0562181
-0.0411455
0.0567681
-0.0420899
0.0566116
-0.0419711
0.0559555
-0.0397407
0.0549181
-0.0356568
0.0538247
-0.0297532
0.0530654
-0.0222739
0.0529804
-0.0139302
0.0533868
-0.00534659
0.0542646
0.00338356
0.055617
0.0120786
0.0568894
0.0199209
0.0575854
0.0260293
0.0575119
0.0298863
0.056456
0.0313534
0.0316342
0.0576448
0.0654004
-0.0409283
0.0650484
-0.041289
0.0640384
-0.0404022
0.0626585
-0.0376436
0.0610752
-0.0333346
0.059523
-0.0275227
0.0584003
-0.0204059
0.0580257
-0.0125871
0.0583822
-0.00458729
0.0594335
0.00348252
0.061052
0.0114079
0.0626704
0.0185134
0.0638292
0.0241331
0.0644203
0.0278722
0.0644373
0.0296185
0.0304252
0.0669654
0.0755087
-0.0391794
0.0737806
-0.0389096
0.0716039
-0.0371992
0.0692965
-0.0340559
0.0670252
-0.0297534
0.0650039
-0.0243136
0.0635584
-0.0179012
0.0629301
-0.0108843
0.0632917
-0.00367894
0.0645507
0.00348094
0.066364
0.010377
0.0683325
0.0166156
0.070151
0.0217059
0.0716912
0.0253239
0.0732588
0.0273979
0.0286135
0.0775054
0.0862175
-0.0353147
0.0827736
-0.0345505
0.0792107
-0.0322916
0.0758392
-0.0290157
0.072787
-0.0249682
0.0702755
-0.0201619
0.0685565
-0.0146457
0.0678128
-0.00869762
0.068176
-0.0026421
0.0695312
0.00334343
0.0716046
0.00911159
0.0741347
0.0143661
0.0769011
0.0187933
0.0798869
0.0221757
0.0832689
0.0243022
0.0256658
0.0890622
0.0969664
-0.0291724
0.0918311
-0.0281077
0.0868218
-0.0257032
0.0822801
-0.0226045
0.0783999
-0.0190852
0.0753548
-0.0151093
0.0733639
-0.0107092
0.0725528
-0.00609709
0.072929
-0.00143394
0.0744395
0.00320105
0.0769467
0.00769688
0.0802698
0.0118699
0.0843381
0.0154671
0.0890592
0.0182581
0.0941513
0.0201287
0.0214776
0.101174
0.107536
-0.0207794
0.100711
-0.0196694
0.0942039
-0.017462
0.0884721
-0.0149409
0.0837138
-0.0122378
0.0801062
-0.00934001
0.0778311
-0.006299
0.0769583
-0.00320327
0.0774441
-9.54263e-05
0.0792753
0.00306851
0.0823971
0.00622717
0.0867065
0.00919896
0.0922033
0.0117649
0.0985942
0.0136823
0.105409
0.0149903
0.0161407
0.113616
0.117023
-0.00975518
0.108421
-0.00885368
0.100525
-0.00750431
0.093702
-0.00608219
0.088159
-0.00461415
0.084077
-0.00310901
0.0815674
-0.00158396
0.0806812
-7.01204e-05
0.0813796
0.0014333
0.0836566
0.00297598
0.0875034
0.00453114
0.0927876
0.00600924
0.0994581
0.00730443
0.107226
0.00828688
0.115656
0.00902601
0.0097635
0.125161
0.117995
0.108125
0.0994659
0.0922386
0.086602
0.0826662
0.08049
0.0800798
0.0813884
0.0843634
0.0889174
0.09487
0.102046
0.110188
0.118987
0.128378
0.0020693
-0.00373741
0.00263258
-0.00562604
0.0032271
-0.00782484
0.00345707
-0.00918376
0.00332879
-0.00925367
0.00329156
-0.00837998
0.00338429
-0.00698747
0.00346427
-0.00487212
0.00357499
-0.00211524
0.00365869
0.000791314
0.00363782
0.00340361
0.00353142
0.00544824
0.0034103
0.00687342
0.00311843
0.00746823
0.00247285
0.00691144
0.00591117
0.00653723
-0.00848751
0.00816901
-0.0115723
0.00968145
-0.0150779
0.0103034
-0.0170296
0.0100247
-0.0169864
0.0097868
-0.015274
0.00998886
-0.0125033
0.0103012
-0.00865509
0.010581
-0.00378249
0.0108452
0.00141181
0.010829
0.0060825
0.0105441
0.00976636
0.0102079
0.0123754
0.0093626
0.013533
0.00757559
0.0127264
0.0111232
0.0118234
-0.0140294
0.0141763
-0.0176881
0.0161713
-0.021671
0.0170304
-0.0237423
0.0167194
-0.0234283
0.0161536
-0.0209071
0.0163097
-0.0168437
0.0168789
-0.0115261
0.017254
-0.00505148
0.0176743
0.00179916
0.0177274
0.00794635
0.0173833
0.0128937
0.0169035
0.0164871
0.0155717
0.0181305
0.0129651
0.0173158
0.0155985
0.0179443
-0.0198807
0.0206312
-0.0236186
0.0227479
-0.027538
0.0236653
-0.0292466
0.0233979
-0.0285115
0.0226296
-0.0254077
0.0225912
-0.0203301
0.0231824
-0.0137266
0.0235874
-0.00599611
0.0239889
0.00194569
0.0241289
0.00907471
0.0239618
0.0150111
0.0234299
0.0194164
0.0217416
0.0215183
0.0186902
0.0209559
0.0194537
0.0248297
-0.0257137
0.0275427
-0.0291873
0.0294899
-0.0326252
0.0302807
-0.033739
0.0299989
-0.0323946
0.0291749
-0.0286671
0.028908
-0.0228228
0.0292735
-0.0152797
0.0296576
-0.00667234
0.0299181
0.00194736
0.0301524
0.00975371
0.0303405
0.0164355
0.029891
0.0214689
0.0281605
0.0241112
0.0250378
0.0240689
0.0229143
0.032288
-0.0309371
0.034756
-0.0338361
0.0363604
-0.036573
0.0368429
-0.0369226
0.0363448
-0.0348279
0.0354986
-0.0305195
0.0350906
-0.0242054
0.0351918
-0.0161385
0.0355536
-0.0070561
0.0358012
0.00195387
0.0361459
0.0102065
0.0366247
0.0173311
0.0363941
0.0227573
0.0349466
0.0258925
0.0320493
0.0264203
0.0256767
0.0400395
-0.0351049
0.0420247
-0.0373221
0.0431925
-0.0391199
0.0432991
-0.0387268
0.042511
-0.0360394
0.0416211
-0.0312705
0.0410695
-0.0246402
0.0409535
-0.0163369
0.0412697
-0.0071456
0.0416626
0.00193996
0.0421947
0.0103714
0.0428694
0.017711
0.0429831
0.0233916
0.0419988
0.026954
0.0395878
0.0280717
0.0278647
0.0479574
-0.0379517
0.0493509
-0.0395539
0.0499904
-0.0404703
0.049723
-0.0392676
0.048741
-0.0360662
0.047691
-0.0310292
0.046883
-0.0242436
0.0465827
-0.0159768
0.0467714
-0.00700365
0.0473028
0.00192775
0.0481606
0.0103501
0.0491369
0.0176994
0.0496992
0.0234755
0.0493335
0.0273658
0.0477383
0.0290299
0.0293761
0.0561079
-0.0393549
0.0569462
-0.040473
0.0569711
-0.040617
0.0562968
-0.0387062
0.0550711
-0.0350266
0.0536752
-0.0297931
0.0525371
-0.0230335
0.0520509
-0.0150587
0.052149
-0.00656347
0.0528299
0.00198869
0.0540591
0.0101998
0.055427
0.0173464
0.0564967
0.0230234
0.0569312
0.0270784
0.0564653
0.0291298
0.0300162
0.0648771
-0.0394413
0.0649497
-0.0399994
0.0642772
-0.0393817
0.0630074
-0.0368897
0.0613119
-0.0328683
0.0595025
-0.0275945
0.0580262
-0.0211114
0.0573106
-0.013673
0.0574745
-0.00580087
0.0584083
0.00218977
0.0599312
0.00990806
0.0617004
0.0166827
0.0633679
0.0221335
0.0647194
0.0260603
0.0655954
0.0282855
0.0295912
0.0745547
-0.0381443
0.0734168
-0.0381094
0.0717143
-0.0366827
0.0696046
-0.0337065
0.0673022
-0.0295585
0.0650955
-0.0244658
0.0633579
-0.0185133
0.0624896
-0.0118438
0.0627626
-0.00478296
0.0639284
0.0024474
0.0657379
0.00948999
0.0679831
0.0157171
0.0704016
0.0207669
0.0728344
0.0244351
0.0752045
0.0266303
0.0280071
0.0849463
-0.0348638
0.0822194
-0.0343591
0.07917
-0.0323271
0.0760536
-0.0291297
0.0730501
-0.0251097
0.070434
-0.020433
0.0685324
-0.0151776
0.0676686
-0.00948776
0.0679781
-0.00351364
0.069298
0.00267122
0.0714582
0.00880579
0.0743302
0.0143521
0.077766
0.0188224
0.0815425
0.0220421
0.0854385
0.0240066
0.025278
0.0956228
-0.0291886
0.0911829
-0.0283487
0.0866658
-0.0261031
0.0824033
-0.0230356
0.0786181
-0.0194558
0.0755549
-0.0154689
0.0734843
-0.0111534
0.0726265
-0.00665948
0.0729652
-0.00200804
0.0744694
0.0028729
0.0770926
0.00780309
0.0808132
0.0123318
0.085496
0.0159935
0.0907839
0.0185839
0.0962112
0.0202145
0.0214299
0.106411
-0.0209448
0.100135
-0.0199718
0.0940424
-0.0178689
0.088545
-0.0153558
0.0838994
-0.012592
0.0803137
-0.00964002
0.0780108
-0.00658091
0.0771134
-0.00350017
0.0775749
-0.000369302
0.0793829
0.0029667
0.0826317
0.00640609
0.0872653
0.00958985
0.0931877
0.0122007
0.0999954
0.0139982
0.107037
0.0151566
0.0162502
0.116373
-0.00983035
0.108085
-0.00897191
0.100424
-0.00765286
0.0937446
-0.00623028
0.0882808
-0.00474428
0.0842122
-0.00321258
0.0816924
-0.0016678
0.0807926
-0.000150513
0.0814693
0.0013665
0.0837327
0.00296088
0.0876585
0.00459154
0.0931004
0.00612824
0.099989
0.00742795
0.107982
0.00837579
0.116541
0.00907268
0.00978893
0.117824
0.108034
0.0994352
0.0922498
0.086634
0.0827016
0.0805232
0.0801092
0.0814097
0.0843854
0.0889584
0.0949498
0.102178
0.110373
0.119209
)
;

boundaryField
{
    walls
    {
        type            calculated;
        value           uniform 0;
    }
    cylinder
    {
        type            calculated;
        value           nonuniform List<scalar> 
64
(
2.13978e-11
-4.22659e-11
-2.72935e-11
3.76793e-11
-1.33791e-11
7.35471e-12
2.21697e-11
-1.80544e-11
1.80552e-11
-2.21682e-11
-7.35356e-12
1.3379e-11
-3.7679e-11
2.72942e-11
4.22664e-11
-2.13975e-11
2.13978e-11
-4.22659e-11
-2.72935e-11
3.76793e-11
-1.33791e-11
7.35471e-12
2.21697e-11
-1.80544e-11
1.80552e-11
-2.21682e-11
-7.35356e-12
1.3379e-11
-3.7679e-11
2.72942e-11
4.22664e-11
-2.13975e-11
2.13978e-11
-4.22659e-11
-2.72935e-11
3.76793e-11
-1.33791e-11
7.35471e-12
2.21697e-11
-1.80544e-11
1.80552e-11
-2.21682e-11
-7.35356e-12
1.3379e-11
-3.7679e-11
2.72942e-11
4.22664e-11
-2.13975e-11
2.13978e-11
-4.22659e-11
-2.72935e-11
3.76793e-11
-1.33791e-11
7.35471e-12
2.21697e-11
-1.80544e-11
1.80552e-11
-2.21682e-11
-7.35356e-12
1.3379e-11
-3.7679e-11
2.72942e-11
4.22664e-11
-2.13975e-11
)
;
    }
    outlet
    {
        type            calculated;
        value           uniform 0;
    }
    inlet
    {
        type            calculated;
        value           uniform 0;
    }
    frontAndBack
    {
        type            empty;
    }
}


// ************************************************************************* //
