/*--------------------------------*- C++ -*----------------------------------*\
| =========                 |                                                 |
| \\      /  F ield         | OpenFOAM: The Open Source CFD Toolbox           |
|  \\    /   O peration     | Version:  2412                                  |
|   \\  /    A nd           | Website:  www.openfoam.com                      |
|    \\/     M anipulation  |                                                 |
\*---------------------------------------------------------------------------*/
FoamFile
{
    version     2.0;
    format      ascii;
    arch        "LSB;label=32;scalar=64";
    class       pointVectorField;
    location    "0.4";
    object      pointDisplacement;
}
// * * * * * * * * * * * * * * * * * * * * * * * * * * * * * * * * * * * * * //

dimensions      [0 1 0 0 0 0 0];

internalField   nonuniform List<vector> 
2176
(
(0 0 0)
(0 0 0)
(0 0 0)
(0 0 0)
(0 0 0)
(0 0 0)
(0 0 0)
(0 0 0)
(0 0 0)
(0 0 0)
(0 0 0)
(0 0 0)
(0 0 0)
(0 0 0)
(0 0 0)
(0 0 0)
(0 0 0)
(0.00436226 -0.00498481 0)
(0.00590103 -0.00647473 0)
(0.00889644 -0.00882279 0)
(0.0120549 -0.010287 0)
(0.0153665 -0.010756 0)
(0.0186854 -0.0101213 0)
(0.0217737 -0.00836072 0)
(0.02428 -0.00557305 0)
(0.025757 -0.00203501 0)
(0.0258608 0.00176945 0)
(0.0245343 0.00524637 0)
(0.0219976 0.00786096 0)
(0.0186096 0.00924329 0)
(0.0147696 0.00926768 0)
(0.0108375 0.00804694 0)
(0.00698462 0.00580861 0)
(0.00497262 0.00434454 0)
(0.010891 -0.0124545 0)
(0.0138514 -0.0148948 0)
(0.0195762 -0.0188121 0)
(0.0255862 -0.0210119 0)
(0.0318327 -0.0213353 0)
(0.0380151 -0.0196269 0)
(0.0436513 -0.0158835 0)
(0.0481182 -0.0103386 0)
(0.0506701 -0.00353462 0)
(0.0507554 0.00366625 0)
(0.048319 0.0102458 0)
(0.0437364 0.0153024 0)
(0.0376158 0.0182075 0)
(0.0306328 0.0187153 0)
(0.0234031 0.0169662 0)
(0.0162359 0.0132772 0)
(0.012431 0.0108605 0)
(0.0192752 -0.0220019 0)
(0.0235789 -0.0248737 0)
(0.0317185 -0.0295864 0)
(0.0402359 -0.0318535 0)
(0.0490029 -0.0315015 0)
(0.0575636 -0.0283682 0)
(0.065222 -0.0225052 0)
(0.0711377 -0.0142941 0)
(0.0743926 -0.0045144 0)
(0.0743474 0.00568704 0)
(0.0709822 0.0150112 0)
(0.064792 0.0223225 0)
(0.0565485 0.0268243 0)
(0.0471033 0.0281777 0)
(0.0372307 0.0264916 0)
(0.0273549 0.0220997 0)
(0.0219647 0.0192327 0)
(0.029337 -0.0333418 0)
(0.0349368 -0.0361579 0)
(0.0451874 -0.0409494 0)
(0.0558676 -0.0426819 0)
(0.0667534 -0.0411959 0)
(0.07724 -0.0363545 0)
(0.0864565 -0.0282864 0)
(0.0933887 -0.0175119 0)
(0.0970383 -0.00500957 0)
(0.0967831 0.00786683 0)
(0.09264 0.0196466 0)
(0.0851971 0.0290601 0)
(0.0753347 0.0352098 0)
(0.064002 0.0376835 0)
(0.0520749 0.0365464 0)
(0.0400614 0.0321115 0)
(0.0332932 0.0292831 0)
(0.0409111 -0.0461755 0)
(0.0477703 -0.0484796 0)
(0.0598426 -0.0526952 0)
(0.0723621 -0.0533683 0)
(0.084981 -0.0503624 0)
(0.0969584 -0.0435813 0)
(0.107307 -0.0332518 0)
(0.114892 -0.0200245 0)
(0.118699 -0.00502586 0)
(0.118178 0.0102546 0)
(0.113392 0.0242587 0)
(0.104993 0.035651 0)
(0.0939214 0.0434769 0)
(0.0811793 0.0472827 0)
(0.0677069 0.0470899 0)
(0.0540717 0.0431778 0)
(0.0461061 0.0408315 0)
(0.0538441 -0.0601869 0)
(0.0619424 -0.0615708 0)
(0.0755661 -0.0646279 0)
(0.089606 -0.0637813 0)
(0.103592 -0.0589287 0)
(0.116669 -0.0500307 0)
(0.127761 -0.0374135 0)
(0.135684 -0.0218429 0)
(0.139466 -0.00455034 0)
(0.13864 0.0129088 0)
(0.133333 0.0289501 0)
(0.124214 0.0422164 0)
(0.112253 0.0517355 0)
(0.0984986 0.0570376 0)
(0.0839114 0.0581075 0)
(0.0690975 0.0551937 0)
(0.0600967 0.0537274 0)
(0.0680206 -0.0750666 0)
(0.0773344 -0.075161 0)
(0.0922557 -0.0765467 0)
(0.10752 -0.0737844 0)
(0.122529 -0.0668172 0)
(0.13634 -0.0556685 0)
(0.14782 -0.0407576 0)
(0.155804 -0.0229521 0)
(0.159408 -0.00354492 0)
(0.158243 0.0159 0)
(0.152505 0.0338215 0)
(0.142864 0.0488738 0)
(0.130285 0.0600952 0)
(0.115837 0.0670241 0)
(0.100485 0.0696135 0)
(0.0848617 0.0680899 0)
(0.0749467 0.067843 0)
(0.0833555 -0.0905011 0)
(0.0938678 -0.0889789 0)
(0.109857 -0.0882541 0)
(0.126046 -0.0832335 0)
(0.141739 -0.0739195 0)
(0.155939 -0.0604205 0)
(0.167489 -0.0432363 0)
(0.175299 -0.0233078 0)
(0.178594 -0.00194911 0)
(0.177066 0.0193158 0)
(0.170959 0.0389801 0)
(0.160941 0.0557384 0)
(0.147961 0.0686713 0)
(0.133075 0.0773304 0)
(0.117231 0.0816442 0)
(0.101084 0.081833 0)
(0.0903474 0.0830987 0)
(0.0998088 -0.106172 0)
(0.111487 -0.102728 0)
(0.128306 -0.0994958 0)
(0.145135 -0.0919291 0)
(0.161187 -0.0800895 0)
(0.175432 -0.0641736 0)
(0.186761 -0.0447596 0)
(0.194191 -0.0228284 0)
(0.197058 0.000327596 0)
(0.195147 0.0232588 0)
(0.188718 0.0445386 0)
(0.178433 0.0629335 0)
(0.165221 0.0775835 0)
(0.150083 0.088058 0)
(0.133956 0.0942714 0)
(0.117502 0.0964491 0)
(0.105979 0.0994647 0)
(0.117378 -0.12172 0)
(0.13017 -0.116063 0)
(0.14759 -0.109971 0)
(0.164761 -0.0996097 0)
(0.180831 -0.0851109 0)
(0.194799 -0.066756 0)
(0.205643 -0.0451847 0)
(0.212498 -0.021384 0)
(0.214824 0.00341351 0)
(0.21249 0.0278575 0)
(0.205769 0.0506236 0)
(0.195299 0.0705846 0)
(0.181968 0.0869587 0)
(0.16673 0.0993372 0)
(0.150469 0.107621 0)
(0.133834 0.112018 0)
(0.121506 0.11698 0)
(0.136137 -0.136744 0)
(0.149976 -0.128574 0)
(0.167743 -0.119297 0)
(0.184934 -0.105929 0)
(0.20068 -0.0886828 0)
(0.214037 -0.0679116 0)
(0.224114 -0.0442966 0)
(0.230196 -0.0187886 0)
(0.23186 0.00746893 0)
(0.22904 0.0332468 0)
(0.222029 0.0573657 0)
(0.21144 0.0788328 0)
(0.198088 0.096954 0)
(0.182843 0.11133 0)
(0.166528 0.121844 0)
(0.149764 0.128676 0)
(0.136529 0.135736 0)
(0.156218 -0.150708 0)
(0.171012 -0.1397 0)
(0.188848 -0.126944 0)
(0.205701 -0.110402 0)
(0.220724 -0.090369 0)
(0.233103 -0.0672662 0)
(0.242109 -0.0417722 0)
(0.247187 -0.0147764 0)
(0.248036 0.0127011 0)
(0.244659 0.0396066 0)
(0.237365 0.06494 0)
(0.226704 0.0878559 0)
(0.213378 0.107731 0)
(0.198156 0.1242 0)
(0.18179 0.137108 0)
(0.164842 0.146575 0)
(0.150513 0.155878 0)
(0.177809 -0.162819 0)
(0.193423 -0.148612 0)
(0.210959 -0.13211 0)
(0.227004 -0.112285 0)
(0.240829 -0.08952 0)
(0.251798 -0.0642802 0)
(0.259376 -0.0371881 0)
(0.263188 -0.0090228 0)
(0.263068 0.019377 0)
(0.25908 0.0471731 0)
(0.251503 0.0735546 0)
(0.240781 0.0978242 0)
(0.227479 0.119452 0)
(0.212235 0.138091 0)
(0.195698 0.153555 0)
(0.178381 0.165886 0)
(0.162666 0.177578 0)
(0.200998 -0.171723 0)
(0.21716 -0.153892 0)
(0.233805 -0.1335 0)
(0.248384 -0.110498 0)
(0.260407 -0.0852904 0)
(0.269479 -0.0583074 0)
(0.275284 -0.0300701 0)
(0.277622 -0.00117033 0)
(0.276429 0.0277786 0)
(0.271781 0.0561578 0)
(0.263893 0.0833545 0)
(0.253083 0.108817 0)
(0.23974 0.132132 0)
(0.224328 0.153 0)
(0.207354 0.171197 0)
(0.189265 0.18665 0)
(0.171632 0.200884 0)
(0.224564 -0.175043 0)
(0.240762 -0.153147 0)
(0.255553 -0.129253 0)
(0.267883 -0.103669 0)
(0.277535 -0.0767105 0)
(0.284336 -0.0487073 0)
(0.288159 -0.0200211 0)
(0.28893 0.00896687 0)
(0.286632 0.0378709 0)
(0.281317 0.066301 0)
(0.273095 0.0938607 0)
(0.262136 0.12018 0)
(0.248639 0.144959 0)
(0.23285 0.16794 0)
(0.215058 0.188884 0)
(0.195554 0.207617 0)
(0.175016 0.224534 0)
(0.2367 -0.175343 0)
(0.252746 -0.151298 0)
(0.266359 -0.125796 0)
(0.277407 -0.0990823 0)
(0.285783 -0.0714145 0)
(0.291406 -0.043059 0)
(0.294224 -0.0142889 0)
(0.294208 0.0146189 0)
(0.291358 0.0433859 0)
(0.285702 0.0717351 0)
(0.277295 0.0993934 0)
(0.266218 0.126094 0)
(0.252577 0.151581 0)
(0.236503 0.175608 0)
(0.218151 0.197944 0)
(0.197699 0.218373 0)
(0.175343 0.2367 0)
(0 0 0)
(0 0 0)
(0 0 0)
(0 0 0)
(0 0 0)
(0 0 0)
(0 0 0)
(0 0 0)
(0 0 0)
(0 0 0)
(0 0 0)
(0 0 0)
(0 0 0)
(0 0 0)
(0 0 0)
(0 0 0)
(0 0 0)
(0.00436226 -0.00498481 0)
(0.00590103 -0.00647473 0)
(0.00889644 -0.00882279 0)
(0.0120549 -0.010287 0)
(0.0153665 -0.010756 0)
(0.0186854 -0.0101213 0)
(0.0217737 -0.00836072 0)
(0.02428 -0.00557305 0)
(0.025757 -0.00203501 0)
(0.0258608 0.00176945 0)
(0.0245343 0.00524637 0)
(0.0219976 0.00786096 0)
(0.0186096 0.00924329 0)
(0.0147696 0.00926768 0)
(0.0108375 0.00804694 0)
(0.00698462 0.00580861 0)
(0.00497262 0.00434454 0)
(0.010891 -0.0124545 0)
(0.0138514 -0.0148948 0)
(0.0195762 -0.0188121 0)
(0.0255862 -0.0210119 0)
(0.0318327 -0.0213353 0)
(0.0380151 -0.0196269 0)
(0.0436513 -0.0158835 0)
(0.0481182 -0.0103386 0)
(0.0506701 -0.00353462 0)
(0.0507554 0.00366625 0)
(0.048319 0.0102458 0)
(0.0437364 0.0153024 0)
(0.0376158 0.0182075 0)
(0.0306328 0.0187153 0)
(0.0234031 0.0169662 0)
(0.0162359 0.0132772 0)
(0.012431 0.0108605 0)
(0.0192752 -0.0220019 0)
(0.0235789 -0.0248737 0)
(0.0317185 -0.0295864 0)
(0.0402359 -0.0318535 0)
(0.0490029 -0.0315015 0)
(0.0575636 -0.0283682 0)
(0.065222 -0.0225052 0)
(0.0711377 -0.0142941 0)
(0.0743926 -0.0045144 0)
(0.0743474 0.00568704 0)
(0.0709822 0.0150112 0)
(0.064792 0.0223225 0)
(0.0565485 0.0268243 0)
(0.0471033 0.0281777 0)
(0.0372307 0.0264916 0)
(0.0273549 0.0220997 0)
(0.0219647 0.0192327 0)
(0.029337 -0.0333418 0)
(0.0349368 -0.0361579 0)
(0.0451874 -0.0409494 0)
(0.0558676 -0.0426819 0)
(0.0667534 -0.0411959 0)
(0.07724 -0.0363545 0)
(0.0864565 -0.0282864 0)
(0.0933887 -0.0175119 0)
(0.0970383 -0.00500957 0)
(0.0967831 0.00786683 0)
(0.09264 0.0196466 0)
(0.0851971 0.0290601 0)
(0.0753347 0.0352098 0)
(0.064002 0.0376835 0)
(0.0520749 0.0365464 0)
(0.0400614 0.0321115 0)
(0.0332932 0.0292831 0)
(0.0409111 -0.0461755 0)
(0.0477703 -0.0484796 0)
(0.0598426 -0.0526952 0)
(0.0723621 -0.0533683 0)
(0.084981 -0.0503624 0)
(0.0969584 -0.0435813 0)
(0.107307 -0.0332518 0)
(0.114892 -0.0200245 0)
(0.118699 -0.00502586 0)
(0.118178 0.0102546 0)
(0.113392 0.0242587 0)
(0.104993 0.035651 0)
(0.0939214 0.0434769 0)
(0.0811793 0.0472827 0)
(0.0677069 0.0470899 0)
(0.0540717 0.0431778 0)
(0.0461061 0.0408315 0)
(0.0538441 -0.0601869 0)
(0.0619424 -0.0615708 0)
(0.0755661 -0.0646279 0)
(0.089606 -0.0637813 0)
(0.103592 -0.0589287 0)
(0.116669 -0.0500307 0)
(0.127761 -0.0374135 0)
(0.135684 -0.0218429 0)
(0.139466 -0.00455034 0)
(0.13864 0.0129088 0)
(0.133333 0.0289501 0)
(0.124214 0.0422164 0)
(0.112253 0.0517355 0)
(0.0984986 0.0570376 0)
(0.0839114 0.0581075 0)
(0.0690975 0.0551937 0)
(0.0600967 0.0537274 0)
(0.0680206 -0.0750666 0)
(0.0773344 -0.075161 0)
(0.0922557 -0.0765467 0)
(0.10752 -0.0737844 0)
(0.122529 -0.0668172 0)
(0.13634 -0.0556685 0)
(0.14782 -0.0407576 0)
(0.155804 -0.0229521 0)
(0.159408 -0.00354492 0)
(0.158243 0.0159 0)
(0.152505 0.0338215 0)
(0.142864 0.0488738 0)
(0.130285 0.0600952 0)
(0.115837 0.0670241 0)
(0.100485 0.0696135 0)
(0.0848617 0.0680899 0)
(0.0749467 0.067843 0)
(0.0833555 -0.0905011 0)
(0.0938678 -0.0889789 0)
(0.109857 -0.0882541 0)
(0.126046 -0.0832335 0)
(0.141739 -0.0739195 0)
(0.155939 -0.0604205 0)
(0.167489 -0.0432363 0)
(0.175299 -0.0233078 0)
(0.178594 -0.00194911 0)
(0.177066 0.0193158 0)
(0.170959 0.0389801 0)
(0.160941 0.0557384 0)
(0.147961 0.0686713 0)
(0.133075 0.0773304 0)
(0.117231 0.0816442 0)
(0.101084 0.081833 0)
(0.0903474 0.0830987 0)
(0.0998088 -0.106172 0)
(0.111487 -0.102728 0)
(0.128306 -0.0994958 0)
(0.145135 -0.0919291 0)
(0.161187 -0.0800895 0)
(0.175432 -0.0641736 0)
(0.186761 -0.0447596 0)
(0.194191 -0.0228284 0)
(0.197058 0.000327596 0)
(0.195147 0.0232588 0)
(0.188718 0.0445386 0)
(0.178433 0.0629335 0)
(0.165221 0.0775835 0)
(0.150083 0.088058 0)
(0.133956 0.0942714 0)
(0.117502 0.0964491 0)
(0.105979 0.0994647 0)
(0.117378 -0.12172 0)
(0.13017 -0.116063 0)
(0.14759 -0.109971 0)
(0.164761 -0.0996097 0)
(0.180831 -0.0851109 0)
(0.194799 -0.066756 0)
(0.205643 -0.0451847 0)
(0.212498 -0.021384 0)
(0.214824 0.00341351 0)
(0.21249 0.0278575 0)
(0.205769 0.0506236 0)
(0.195299 0.0705846 0)
(0.181968 0.0869587 0)
(0.16673 0.0993372 0)
(0.150469 0.107621 0)
(0.133834 0.112018 0)
(0.121506 0.11698 0)
(0.136137 -0.136744 0)
(0.149976 -0.128574 0)
(0.167743 -0.119297 0)
(0.184934 -0.105929 0)
(0.20068 -0.0886828 0)
(0.214037 -0.0679116 0)
(0.224114 -0.0442966 0)
(0.230196 -0.0187886 0)
(0.23186 0.00746893 0)
(0.22904 0.0332468 0)
(0.222029 0.0573657 0)
(0.21144 0.0788328 0)
(0.198088 0.096954 0)
(0.182843 0.11133 0)
(0.166528 0.121844 0)
(0.149764 0.128676 0)
(0.136529 0.135736 0)
(0.156218 -0.150708 0)
(0.171012 -0.1397 0)
(0.188848 -0.126944 0)
(0.205701 -0.110402 0)
(0.220724 -0.090369 0)
(0.233103 -0.0672662 0)
(0.242109 -0.0417722 0)
(0.247187 -0.0147764 0)
(0.248036 0.0127011 0)
(0.244659 0.0396066 0)
(0.237365 0.06494 0)
(0.226704 0.0878559 0)
(0.213378 0.107731 0)
(0.198156 0.1242 0)
(0.18179 0.137108 0)
(0.164842 0.146575 0)
(0.150513 0.155878 0)
(0.177809 -0.162819 0)
(0.193423 -0.148612 0)
(0.210959 -0.13211 0)
(0.227004 -0.112285 0)
(0.240829 -0.08952 0)
(0.251798 -0.0642802 0)
(0.259376 -0.0371881 0)
(0.263188 -0.0090228 0)
(0.263068 0.019377 0)
(0.25908 0.0471731 0)
(0.251503 0.0735546 0)
(0.240781 0.0978242 0)
(0.227479 0.119452 0)
(0.212235 0.138091 0)
(0.195698 0.153555 0)
(0.178381 0.165886 0)
(0.162666 0.177578 0)
(0.200998 -0.171723 0)
(0.21716 -0.153892 0)
(0.233805 -0.1335 0)
(0.248384 -0.110498 0)
(0.260407 -0.0852904 0)
(0.269479 -0.0583074 0)
(0.275284 -0.0300701 0)
(0.277622 -0.00117033 0)
(0.276429 0.0277786 0)
(0.271781 0.0561578 0)
(0.263893 0.0833545 0)
(0.253083 0.108817 0)
(0.23974 0.132132 0)
(0.224328 0.153 0)
(0.207354 0.171197 0)
(0.189265 0.18665 0)
(0.171632 0.200884 0)
(0.224564 -0.175043 0)
(0.240762 -0.153147 0)
(0.255553 -0.129253 0)
(0.267883 -0.103669 0)
(0.277535 -0.0767105 0)
(0.284336 -0.0487073 0)
(0.288159 -0.0200211 0)
(0.28893 0.00896687 0)
(0.286632 0.0378709 0)
(0.281317 0.066301 0)
(0.273095 0.0938607 0)
(0.262136 0.12018 0)
(0.248639 0.144959 0)
(0.23285 0.16794 0)
(0.215058 0.188884 0)
(0.195554 0.207617 0)
(0.175016 0.224534 0)
(0.2367 -0.175343 0)
(0.252746 -0.151298 0)
(0.266359 -0.125796 0)
(0.277407 -0.0990823 0)
(0.285783 -0.0714145 0)
(0.291406 -0.043059 0)
(0.294224 -0.0142889 0)
(0.294208 0.0146189 0)
(0.291358 0.0433859 0)
(0.285702 0.0717351 0)
(0.277295 0.0993934 0)
(0.266218 0.126094 0)
(0.252577 0.151581 0)
(0.236503 0.175608 0)
(0.218151 0.197944 0)
(0.197699 0.218373 0)
(0.175343 0.2367 0)
(0 0 0)
(0 0 0)
(0 0 0)
(0 0 0)
(0 0 0)
(0 0 0)
(0 0 0)
(0 0 0)
(0 0 0)
(0 0 0)
(0 0 0)
(0 0 0)
(0 0 0)
(0 0 0)
(0 0 0)
(0 0 0)
(0.0064651 0.00588101 0)
(0.00881427 0.0088798 0)
(0.0102813 0.0120405 0)
(0.0107487 0.0153385 0)
(0.0101131 0.0186405 0)
(0.00835581 0.0217192 0)
(0.00557656 0.0242208 0)
(0.00205207 0.0256923 0)
(-0.00173439 0.0257877 0)
(-0.00518565 0.0244438 0)
(-0.00776626 0.0218788 0)
(-0.00913308 0.018489 0)
(-0.00918012 0.0146899 0)
(-0.00800173 0.0108009 0)
(-0.00579637 0.00697109 0)
(-0.00434131 0.00496453 0)
(0.0148664 0.0138034 0)
(0.018789 0.0195331 0)
(0.0209942 0.0255419 0)
(0.0213182 0.0317664 0)
(0.0196127 0.0379234 0)
(0.0158783 0.0435451 0)
(0.0103496 0.0480044 0)
(0.00356993 0.0505474 0)
(-0.00359885 0.0506186 0)
(-0.0101339 0.0481562 0)
(-0.0151353 0.0435409 0)
(-0.0180147 0.037428 0)
(-0.0185545 0.0305051 0)
(-0.016871 0.0233393 0)
(-0.0132425 0.0162113 0)
(-0.0108519 0.0124197 0)
(0.024831 0.0235072 0)
(0.0295449 0.0316389 0)
(0.0318192 0.040149 0)
(0.0314738 0.0488912 0)
(0.0283502 0.0574253 0)
(0.022503 0.0650685 0)
(0.0143152 0.0709762 0)
(0.00456781 0.0742212 0)
(-0.00559175 0.0741603 0)
(-0.0148581 0.0707687 0)
(-0.0221018 0.0645527 0)
(-0.0265712 0.0563269 0)
(-0.0279577 0.04695 0)
(-0.0263486 0.0371509 0)
(-0.0220368 0.0273231 0)
(-0.019215 0.0219541 0)
(0.0360957 0.034831 0)
(0.0408866 0.0450621 0)
(0.0426293 0.0557285 0)
(0.0411576 0.0665916 0)
(0.0363351 0.0770565 0)
(0.0282903 0.0862612 0)
(0.0175449 0.0931876 0)
(0.00507951 0.0968289 0)
(-0.00774878 0.0965593 0)
(-0.0194626 0.0923952 0)
(-0.0288024 0.0849417 0)
(-0.0349155 0.0751094 0)
(-0.0374195 0.0638453 0)
(-0.0363619 0.0519909 0)
(-0.0320195 0.0400281 0)
(-0.029253 0.033287 0)
(0.0483988 0.0476239 0)
(0.052612 0.0596621 0)
(0.0532987 0.0721642 0)
(0.0503161 0.0847669 0)
(0.0435632 0.096732 0)
(0.0332642 0.107076 0)
(0.0200699 0.11466 0)
(0.00511027 0.118463 0)
(-0.010119 0.117931 0)
(-0.0240525 0.113133 0)
(-0.0353689 0.104737 0)
(-0.0431568 0.0937042 0)
(-0.0469889 0.0810315 0)
(-0.0468736 0.0676292 0)
(-0.0430588 0.0540431 0)
(-0.0407874 0.0461084 0)
(0.0614687 0.06174 0)
(0.0645268 0.0753235 0)
(0.0636996 0.0893469 0)
(0.0588783 0.103327 0)
(0.0500174 0.116404 0)
(0.0374367 0.127501 0)
(0.0219009 0.135431 0)
(0.00464658 0.139214 0)
(-0.0127614 0.138384 0)
(-0.0287327 0.133075 0)
(-0.0419256 0.123975 0)
(-0.0514066 0.112062 0)
(-0.0567298 0.0983736 0)
(-0.0578705 0.0838489 0)
(-0.055053 0.0690802 0)
(-0.0536692 0.0601111 0)
(0.0750411 0.0770653 0)
(0.0764354 0.0919457 0)
(0.0736975 0.1072 0)
(0.0667685 0.122217 0)
(0.0556641 0.136043 0)
(0.0407935 0.147541 0)
(0.0230219 0.155541 0)
(0.00364959 0.159153 0)
(-0.0157482 0.157992 0)
(-0.0336033 0.152262 0)
(-0.0485862 0.14265 0)
(-0.0597703 0.130123 0)
(-0.066715 0.115738 0)
(-0.0693673 0.100443 0)
(-0.0679343 0.08486 0)
(-0.0677724 0.0749759 0)
(0.0888382 0.0935134 0)
(0.0881337 0.10947 0)
(0.0831478 0.125668 0)
(0.073879 0.14139 0)
(0.0604286 0.155622 0)
(0.0432853 0.167203 0)
(0.0233873 0.175038 0)
(0.00205744 0.178348 0)
(-0.0191668 0.176831 0)
(-0.0387725 0.170741 0)
(-0.0554686 0.160759 0)
(-0.0683654 0.147835 0)
(-0.0770344 0.133007 0)
(-0.0814012 0.117212 0)
(-0.0816715 0.101101 0)
(-0.0830197 0.0903921 0)
(0.102569 0.11105 0)
(0.0993734 0.127853 0)
(0.091852 0.144712 0)
(0.0800626 0.160817 0)
(0.0641959 0.175113 0)
(0.0448199 0.186483 0)
(0.0229134 0.193945 0)
(-0.000221845 0.196834 0)
(-0.0231224 0.19494 0)
(-0.0443535 0.188535 0)
(-0.0626924 0.178287 0)
(-0.0773063 0.165127 0)
(-0.0877865 0.150044 0)
(-0.0940449 0.133961 0)
(-0.0962928 0.117538 0)
(-0.0993848 0.106038 0)
(0.1159 0.12969 0)
(0.109857 0.147108 0)
(0.0995498 0.164329 0)
(0.0851021 0.180468 0)
(0.0667914 0.1945 0)
(0.0452509 0.205393 0)
(0.0214674 0.212283 0)
(-0.00331791 0.214634 0)
(-0.0277418 0.21232 0)
(-0.0504715 0.20562 0)
(-0.0703874 0.195188 0)
(-0.0867308 0.181911 0)
(-0.099111 0.166723 0)
(-0.107428 0.150499 0)
(-0.111881 0.133889 0)
(-0.116911 0.12158 0)
(0.128423 0.14951 0)
(0.119206 0.167292 0)
(0.105892 0.184542 0)
(0.0886916 0.200362 0)
(0.0679541 0.213785 0)
(0.04436 0.223911 0)
(0.0188617 0.230027 0)
(-0.00739175 0.231715 0)
(-0.0331619 0.228913 0)
(-0.0572621 0.221924 0)
(-0.0786995 0.211374 0)
(-0.0967949 0.198069 0)
(-0.111168 0.182867 0)
(-0.121704 0.166582 0)
(-0.128576 0.149836 0)
(-0.135691 0.13661 0)
(0.139577 0.170623 0)
(0.126881 0.188485 0)
(0.110387 0.205393 0)
(0.090389 0.220481 0)
(0.0673072 0.232917 0)
(0.0418235 0.241964 0)
(0.0148306 0.247071 0)
(-0.0126494 0.24794 0)
(-0.0395585 0.24458 0)
(-0.0648868 0.237308 0)
(-0.0877874 0.226678 0)
(-0.107647 0.213391 0)
(-0.12411 0.198202 0)
(-0.137027 0.181857 0)
(-0.146518 0.16492 0)
(-0.155862 0.150592 0)
(0.148525 0.193158 0)
(0.132073 0.210719 0)
(0.112285 0.226804 0)
(0.0895411 0.240674 0)
(0.0643105 0.251682 0)
(0.0372209 0.259289 0)
(0.00905433 0.263122 0)
(-0.0193505 0.263018 0)
(-0.047153 0.259043 0)
(-0.0735381 0.251482 0)
(-0.0978035 0.240783 0)
(-0.119421 0.227507 0)
(-0.138054 0.212282 0)
(-0.153521 0.195756 0)
(-0.165865 0.178445 0)
(-0.177583 0.16273 0)
(0.153844 0.217029 0)
(0.133484 0.233687 0)
(0.110502 0.248286 0)
(0.0853039 0.260332 0)
(0.0583227 0.269424 0)
(0.0300847 0.275245 0)
(0.00118323 0.277594 0)
(-0.0277686 0.276409 0)
(-0.0561526 0.27177 0)
(-0.0833528 0.26389 0)
(-0.108814 0.253092 0)
(-0.132126 0.23976 0)
(-0.15299 0.224357 0)
(-0.171188 0.207389 0)
(-0.186648 0.189304 0)
(-0.200896 0.171671 0)
(0.153134 0.240728 0)
(0.12925 0.255522 0)
(0.103671 0.267857 0)
(0.0767146 0.277515 0)
(0.0487112 0.284322 0)
(0.0200243 0.288149 0)
(-0.00896414 0.288923 0)
(-0.0378689 0.286629 0)
(-0.0663 0.281315 0)
(-0.0938608 0.273096 0)
(-0.12018 0.26214 0)
(-0.144958 0.248646 0)
(-0.167938 0.232859 0)
(-0.188883 0.215069 0)
(-0.207618 0.195565 0)
(-0.224539 0.175029 0)
(0.151298 0.252746 0)
(0.125796 0.266359 0)
(0.0990823 0.277407 0)
(0.0714145 0.285783 0)
(0.043059 0.291406 0)
(0.0142889 0.294224 0)
(-0.0146189 0.294208 0)
(-0.0433859 0.291358 0)
(-0.0717351 0.285702 0)
(-0.0993934 0.277295 0)
(-0.126094 0.266218 0)
(-0.151581 0.252577 0)
(-0.175608 0.236503 0)
(-0.197944 0.218151 0)
(-0.218373 0.197699 0)
(-0.2367 0.175343 0)
(0 0 0)
(0 0 0)
(0 0 0)
(0 0 0)
(0 0 0)
(0 0 0)
(0 0 0)
(0 0 0)
(0 0 0)
(0 0 0)
(0 0 0)
(0 0 0)
(0 0 0)
(0 0 0)
(0 0 0)
(0 0 0)
(0.0064651 0.00588101 0)
(0.00881427 0.0088798 0)
(0.0102813 0.0120405 0)
(0.0107487 0.0153385 0)
(0.0101131 0.0186405 0)
(0.00835581 0.0217192 0)
(0.00557656 0.0242208 0)
(0.00205207 0.0256923 0)
(-0.00173439 0.0257877 0)
(-0.00518565 0.0244438 0)
(-0.00776626 0.0218788 0)
(-0.00913308 0.018489 0)
(-0.00918012 0.0146899 0)
(-0.00800173 0.0108009 0)
(-0.00579637 0.00697109 0)
(-0.00434131 0.00496453 0)
(0.0148664 0.0138034 0)
(0.018789 0.0195331 0)
(0.0209942 0.0255419 0)
(0.0213182 0.0317664 0)
(0.0196127 0.0379234 0)
(0.0158783 0.0435451 0)
(0.0103496 0.0480044 0)
(0.00356993 0.0505474 0)
(-0.00359885 0.0506186 0)
(-0.0101339 0.0481562 0)
(-0.0151353 0.0435409 0)
(-0.0180147 0.037428 0)
(-0.0185545 0.0305051 0)
(-0.016871 0.0233393 0)
(-0.0132425 0.0162113 0)
(-0.0108519 0.0124197 0)
(0.024831 0.0235072 0)
(0.0295449 0.0316389 0)
(0.0318192 0.040149 0)
(0.0314738 0.0488912 0)
(0.0283502 0.0574253 0)
(0.022503 0.0650685 0)
(0.0143152 0.0709762 0)
(0.00456781 0.0742212 0)
(-0.00559175 0.0741603 0)
(-0.0148581 0.0707687 0)
(-0.0221018 0.0645527 0)
(-0.0265712 0.0563269 0)
(-0.0279577 0.04695 0)
(-0.0263486 0.0371509 0)
(-0.0220368 0.0273231 0)
(-0.019215 0.0219541 0)
(0.0360957 0.034831 0)
(0.0408866 0.0450621 0)
(0.0426293 0.0557285 0)
(0.0411576 0.0665916 0)
(0.0363351 0.0770565 0)
(0.0282903 0.0862612 0)
(0.0175449 0.0931876 0)
(0.00507951 0.0968289 0)
(-0.00774878 0.0965593 0)
(-0.0194626 0.0923952 0)
(-0.0288024 0.0849417 0)
(-0.0349155 0.0751094 0)
(-0.0374195 0.0638453 0)
(-0.0363619 0.0519909 0)
(-0.0320195 0.0400281 0)
(-0.029253 0.033287 0)
(0.0483988 0.0476239 0)
(0.052612 0.0596621 0)
(0.0532987 0.0721642 0)
(0.0503161 0.0847669 0)
(0.0435632 0.096732 0)
(0.0332642 0.107076 0)
(0.0200699 0.11466 0)
(0.00511027 0.118463 0)
(-0.010119 0.117931 0)
(-0.0240525 0.113133 0)
(-0.0353689 0.104737 0)
(-0.0431568 0.0937042 0)
(-0.0469889 0.0810315 0)
(-0.0468736 0.0676292 0)
(-0.0430588 0.0540431 0)
(-0.0407874 0.0461084 0)
(0.0614687 0.06174 0)
(0.0645268 0.0753235 0)
(0.0636996 0.0893469 0)
(0.0588783 0.103327 0)
(0.0500174 0.116404 0)
(0.0374367 0.127501 0)
(0.0219009 0.135431 0)
(0.00464658 0.139214 0)
(-0.0127614 0.138384 0)
(-0.0287327 0.133075 0)
(-0.0419256 0.123975 0)
(-0.0514066 0.112062 0)
(-0.0567298 0.0983736 0)
(-0.0578705 0.0838489 0)
(-0.055053 0.0690802 0)
(-0.0536692 0.0601111 0)
(0.0750411 0.0770653 0)
(0.0764354 0.0919457 0)
(0.0736975 0.1072 0)
(0.0667685 0.122217 0)
(0.0556641 0.136043 0)
(0.0407935 0.147541 0)
(0.0230219 0.155541 0)
(0.00364959 0.159153 0)
(-0.0157482 0.157992 0)
(-0.0336033 0.152262 0)
(-0.0485862 0.14265 0)
(-0.0597703 0.130123 0)
(-0.066715 0.115738 0)
(-0.0693673 0.100443 0)
(-0.0679343 0.08486 0)
(-0.0677724 0.0749759 0)
(0.0888382 0.0935134 0)
(0.0881337 0.10947 0)
(0.0831478 0.125668 0)
(0.073879 0.14139 0)
(0.0604286 0.155622 0)
(0.0432853 0.167203 0)
(0.0233873 0.175038 0)
(0.00205744 0.178348 0)
(-0.0191668 0.176831 0)
(-0.0387725 0.170741 0)
(-0.0554686 0.160759 0)
(-0.0683654 0.147835 0)
(-0.0770344 0.133007 0)
(-0.0814012 0.117212 0)
(-0.0816715 0.101101 0)
(-0.0830197 0.0903921 0)
(0.102569 0.11105 0)
(0.0993734 0.127853 0)
(0.091852 0.144712 0)
(0.0800626 0.160817 0)
(0.0641959 0.175113 0)
(0.0448199 0.186483 0)
(0.0229134 0.193945 0)
(-0.000221845 0.196834 0)
(-0.0231224 0.19494 0)
(-0.0443535 0.188535 0)
(-0.0626924 0.178287 0)
(-0.0773063 0.165127 0)
(-0.0877865 0.150044 0)
(-0.0940449 0.133961 0)
(-0.0962928 0.117538 0)
(-0.0993848 0.106038 0)
(0.1159 0.12969 0)
(0.109857 0.147108 0)
(0.0995498 0.164329 0)
(0.0851021 0.180468 0)
(0.0667914 0.1945 0)
(0.0452509 0.205393 0)
(0.0214674 0.212283 0)
(-0.00331791 0.214634 0)
(-0.0277418 0.21232 0)
(-0.0504715 0.20562 0)
(-0.0703874 0.195188 0)
(-0.0867308 0.181911 0)
(-0.099111 0.166723 0)
(-0.107428 0.150499 0)
(-0.111881 0.133889 0)
(-0.116911 0.12158 0)
(0.128423 0.14951 0)
(0.119206 0.167292 0)
(0.105892 0.184542 0)
(0.0886916 0.200362 0)
(0.0679541 0.213785 0)
(0.04436 0.223911 0)
(0.0188617 0.230027 0)
(-0.00739175 0.231715 0)
(-0.0331619 0.228913 0)
(-0.0572621 0.221924 0)
(-0.0786995 0.211374 0)
(-0.0967949 0.198069 0)
(-0.111168 0.182867 0)
(-0.121704 0.166582 0)
(-0.128576 0.149836 0)
(-0.135691 0.13661 0)
(0.139577 0.170623 0)
(0.126881 0.188485 0)
(0.110387 0.205393 0)
(0.090389 0.220481 0)
(0.0673072 0.232917 0)
(0.0418235 0.241964 0)
(0.0148306 0.247071 0)
(-0.0126494 0.24794 0)
(-0.0395585 0.24458 0)
(-0.0648868 0.237308 0)
(-0.0877874 0.226678 0)
(-0.107647 0.213391 0)
(-0.12411 0.198202 0)
(-0.137027 0.181857 0)
(-0.146518 0.16492 0)
(-0.155862 0.150592 0)
(0.148525 0.193158 0)
(0.132073 0.210719 0)
(0.112285 0.226804 0)
(0.0895411 0.240674 0)
(0.0643105 0.251682 0)
(0.0372209 0.259289 0)
(0.00905433 0.263122 0)
(-0.0193505 0.263018 0)
(-0.047153 0.259043 0)
(-0.0735381 0.251482 0)
(-0.0978035 0.240783 0)
(-0.119421 0.227507 0)
(-0.138054 0.212282 0)
(-0.153521 0.195756 0)
(-0.165865 0.178445 0)
(-0.177583 0.16273 0)
(0.153844 0.217029 0)
(0.133484 0.233687 0)
(0.110502 0.248286 0)
(0.0853039 0.260332 0)
(0.0583227 0.269424 0)
(0.0300847 0.275245 0)
(0.00118323 0.277594 0)
(-0.0277686 0.276409 0)
(-0.0561526 0.27177 0)
(-0.0833528 0.26389 0)
(-0.108814 0.253092 0)
(-0.132126 0.23976 0)
(-0.15299 0.224357 0)
(-0.171188 0.207389 0)
(-0.186648 0.189304 0)
(-0.200896 0.171671 0)
(0.153134 0.240728 0)
(0.12925 0.255522 0)
(0.103671 0.267857 0)
(0.0767146 0.277515 0)
(0.0487112 0.284322 0)
(0.0200243 0.288149 0)
(-0.00896414 0.288923 0)
(-0.0378689 0.286629 0)
(-0.0663 0.281315 0)
(-0.0938608 0.273096 0)
(-0.12018 0.26214 0)
(-0.144958 0.248646 0)
(-0.167938 0.232859 0)
(-0.188883 0.215069 0)
(-0.207618 0.195565 0)
(-0.224539 0.175029 0)
(0.151298 0.252746 0)
(0.125796 0.266359 0)
(0.0990823 0.277407 0)
(0.0714145 0.285783 0)
(0.043059 0.291406 0)
(0.0142889 0.294224 0)
(-0.0146189 0.294208 0)
(-0.0433859 0.291358 0)
(-0.0717351 0.285702 0)
(-0.0993934 0.277295 0)
(-0.126094 0.266218 0)
(-0.151581 0.252577 0)
(-0.175608 0.236503 0)
(-0.197944 0.218151 0)
(-0.218373 0.197699 0)
(-0.2367 0.175343 0)
(0 0 0)
(0 0 0)
(0 0 0)
(0 0 0)
(0 0 0)
(0 0 0)
(0 0 0)
(0 0 0)
(0 0 0)
(0 0 0)
(0 0 0)
(0 0 0)
(0 0 0)
(0 0 0)
(0 0 0)
(0 0 0)
(-0.00588199 0.00646025 0)
(-0.00889283 0.00882027 0)
(-0.012067 0.0102955 0)
(-0.0153803 0.0107646 0)
(-0.0186975 0.0101252 0)
(-0.0217891 0.00836041 0)
(-0.0243022 0.0055683 0)
(-0.0257854 0.00202394 0)
(-0.0258931 -0.00178747 0)
(-0.0245667 -0.00526921 0)
(-0.0220268 -0.00788548 0)
(-0.0186331 -0.00926641 0)
(-0.0147862 -0.00928759 0)
(-0.0108472 -0.00806469 0)
(-0.00698433 -0.00582633 0)
(-0.00496334 -0.0043606 0)
(-0.0138073 0.0148654 0)
(-0.0195598 0.0188058 0)
(-0.0255957 0.0210226 0)
(-0.0318501 0.0213471 0)
(-0.0380359 0.0196323 0)
(-0.043682 0.0158819 0)
(-0.0481619 0.0103277 0)
(-0.0507254 0.00351129 0)
(-0.0508176 -0.00370237 0)
(-0.0483812 -0.0102907 0)
(-0.0437922 -0.0153499 0)
(-0.0376603 -0.0182521 0)
(-0.0306642 -0.0187543 0)
(-0.0234213 -0.0170015 0)
(-0.0162375 -0.0133119 0)
(-0.0124196 -0.0108936 0)
(-0.0235132 0.0248385 0)
(-0.0316782 0.0295746 0)
(-0.0402287 0.0318604 0)
(-0.0490139 0.0315117 0)
(-0.0575886 0.0283729 0)
(-0.0652657 0.0225009 0)
(-0.0712007 0.0142762 0)
(-0.0744717 0.00447895 0)
(-0.0744357 -0.00573994 0)
(-0.0710699 -0.0150758 0)
(-0.0648704 -0.0223907 0)
(-0.0566111 -0.026889 0)
(-0.0471472 -0.0282354 0)
(-0.0372557 -0.0265443 0)
(-0.0273592 -0.022151 0)
(-0.0219557 -0.0192825 0)
(-0.0348373 0.0361144 0)
(-0.0451121 0.0409294 0)
(-0.055831 0.0426808 0)
(-0.0667484 0.0412009 0)
(-0.0772639 0.0363563 0)
(-0.0865097 0.0282783 0)
(-0.0934678 0.0174866 0)
(-0.0971373 0.00496236 0)
(-0.0968928 -0.00793512 0)
(-0.0927485 -0.0197291 0)
(-0.0852938 -0.029147 0)
(-0.0754118 -0.035293 0)
(-0.0640558 -0.0377594 0)
(-0.0521055 -0.0366164 0)
(-0.0400693 -0.0321788 0)
(-0.0332883 -0.0293493 0)
(-0.0476281 0.0484305 0)
(-0.0597197 0.0526667 0)
(-0.0722846 0.0533576 0)
(-0.0849515 0.0503607 0)
(-0.0969752 0.0435792 0)
(-0.107365 0.0332396 0)
(-0.114983 0.0199924 0)
(-0.118813 0.00496851 0)
(-0.118303 -0.0103358 0)
(-0.113516 -0.0243561 0)
(-0.105104 -0.0357544 0)
(-0.0940094 -0.0435778 0)
(-0.0812408 -0.0473765 0)
(-0.0677423 -0.0471772 0)
(-0.0540835 -0.0432611 0)
(-0.0461064 -0.0409133 0)
(-0.0617401 0.0615137 0)
(-0.0753855 0.0645913 0)
(-0.0894805 0.063762 0)
(-0.103532 0.0589206 0)
(-0.116674 0.0500251 0)
(-0.127819 0.037398 0)
(-0.135781 0.0218054 0)
(-0.139589 0.00448484 0)
(-0.138775 -0.0130003 0)
(-0.133466 -0.0290599 0)
(-0.124333 -0.0423342 0)
(-0.112348 -0.0518525 0)
(-0.0985654 -0.0571489 0)
(-0.0839505 -0.0582122 0)
(-0.0691137 -0.0552928 0)
(-0.0601022 -0.0538247 0)
(-0.0770602 0.0750987 0)
(-0.0920101 0.0765062 0)
(-0.107344 0.0737598 0)
(-0.122438 0.0668053 0)
(-0.13633 0.0556613 0)
(-0.147875 0.0407406 0)
(-0.155903 0.0229114 0)
(-0.159534 0.00347413 0)
(-0.158382 -0.0159987 0)
(-0.152641 -0.0339402 0)
(-0.142987 -0.0490031 0)
(-0.130384 -0.0602268 0)
(-0.115907 -0.0671522 0)
(-0.100527 -0.0697357 0)
(-0.0848819 -0.0682056 0)
(-0.0749574 -0.0679562 0)
(-0.093505 0.0889056 0)
(-0.109537 0.0882067 0)
(-0.125819 0.0832062 0)
(-0.14162 0.0739077 0)
(-0.155916 0.0604147 0)
(-0.167537 0.0432201 0)
(-0.175394 0.0232662 0)
(-0.178716 0.00187585 0)
(-0.177201 -0.0194181 0)
(-0.171092 -0.0391042 0)
(-0.161061 -0.055876 0)
(-0.148058 -0.0688149 0)
(-0.133144 -0.077474 0)
(-0.117274 -0.081784 0)
(-0.101108 -0.081966 0)
(-0.0903623 -0.0832289 0)
(-0.111044 0.102643 0)
(-0.127928 0.0994445 0)
(-0.14487 0.0919034 0)
(-0.161048 0.0800815 0)
(-0.175399 0.0641713 0)
(-0.186802 0.0447457 0)
(-0.194278 0.0227876 0)
(-0.197171 -0.000400866 0)
(-0.195272 -0.0233616 0)
(-0.188841 -0.0446642 0)
(-0.178544 -0.0630751 0)
(-0.165311 -0.077735 0)
(-0.150148 -0.0882141 0)
(-0.133997 -0.0944269 0)
(-0.117527 -0.096599 0)