/*--------------------------------*- C++ -*----------------------------------*\
| =========                 |                                                 |
| \\      /  F ield         | OpenFOAM: The Open Source CFD Toolbox           |
|  \\    /   O peration     | Version:  2412                                  |
|   \\  /    A nd           | Website:  www.openfoam.com                      |
|    \\/     M anipulation  |                                                 |
\*---------------------------------------------------------------------------*/
FoamFile
{
    version     2.0;
    format      ascii;
    arch        "LSB;label=32;scalar=64";
    class       volScalarField;
    location    "444.5";
    object      yPlus;
}
// * * * * * * * * * * * * * * * * * * * * * * * * * * * * * * * * * * * * * //

dimensions      [0 0 0 0 0 0 0];

internalField   uniform 0;

boundaryField
{
    FrontBack
    {
        type            empty;
    }
    Top
    {
        type            calculated;
        value           nonuniform List<scalar> 
15
(
142.2851260928624
133.5874480783402
138.0696991652907
144.412132763809
159.7722512636137
131.3685963947446
140.1377913498873
135.3631862079579
153.4480424139114
135.7362162430284
136.0972863170589
136.7687243066713
125.2624985498418
132.910812177594
123.9511817302363
)
;
    }
    In
    {
        type            calculated;
        value           uniform 0;
    }
    Bottom
    {
        type            calculated;
        value           nonuniform List<scalar> 
15
(
155.5659068683023
158.1176600958306
141.0818441301937
142.0453738956125
141.1767907110766
148.4253371768441
142.6975885124293
143.1513731401737
143.4227135209277
134.0549270856477
125.7257943817251
141.5520475350339
122.4065736348984
123.4884587586291
124.1307999312026
)
;
    }
    Out
    {
        type            calculated;
        value           uniform 0;
    }
    circle
    {
        type            calculated;
        value           nonuniform List<scalar> 
32
(
56.24620012501718
22.25773943180042
65.3200033836726
23.67831601929889
19.28916096814404
56.13937913765447
56.75757872162634
23.94870250788509
22.39246727030794
65.55188883194711
40.03868747246029
63.02923781803282
50.39435360271136
14.78420701144706
23.60866237610677
18.11748742960079
39.027894738971
59.6376296937561
60.98123043971767
24.21460253851463
65.70706892741616
63.84115760108497
62.96725140264605
59.94990434761592
64.07906839827542
45.90711812535949
66.35819046379112
32.00201811407891
38.0576625024141
55.78636967784325
20.93302625031015
43.19265259135877
)
;
    }
}


// ************************************************************************* //
