/*--------------------------------*- C++ -*----------------------------------*\
| =========                 |                                                 |
| \\      /  F ield         | OpenFOAM: The Open Source CFD Toolbox           |
|  \\    /   O peration     | Version:  2412                                  |
|   \\  /    A nd           | Website:  www.openfoam.com                      |
|    \\/     M anipulation  |                                                 |
\*---------------------------------------------------------------------------*/
FoamFile
{
    version     2.0;
    format      ascii;
    arch        "LSB;label=32;scalar=64";
    class       surfaceScalarField;
    location    "763.5";
    object      phi;
}
// * * * * * * * * * * * * * * * * * * * * * * * * * * * * * * * * * * * * * //

dimensions      [0 3 -1 0 0 0 0];

oriented        oriented;

internalField   nonuniform List<scalar> 
1171
(
-0.9279195719610909
0.9279195719047602
0.7874445553930656
-1.099251207770134
0.3118066524848492
-0.189845074830502
-0.7652188594605123
0.9550639343604301
0.07208042195789416
-0.1170514691976213
-0.2123912993782641
0.3294427682687096
-0.7874445526921955
0.06946442090318115
0.7179801318036371
0.8116202115509509
-0.1779888826554077
-0.6336313289140745
0.8741813469807101
-1.044227437958711
0.1700460910241002
-0.2854786108618474
-0.09761876789515163
0.3830973791501557
-0.03632177798022488
0.5489959228912661
-0.5126741449996722
-0.5048477707964839
0.825146509044397
-0.3202987383387015
-0.4025300750353373
1.045926763180033
-0.1717454173029264
0.3922449256626209
0.04933184652141375
-0.4415767729991814
1.045939517825706
-1.275499334221086e-05
0.4434120118500371
-0.05116708701275102
1.056541352064254
-0.01060184071947977
0.5797138079107039
-0.7695588755027407
-0.7242062045426538
0.5566568748587502
0.1675493296159364
0.2160459487404075
-0.7208937253498546
0.5502682436254538
-0.9227318601780756
0.3724636157545684
-1.094197749452376
0.6865566464239941
0.4076411031666772
-0.5955894334236242
0.5592676612545922
0.01760355783091916
-0.2562628651530307
0.2386593060746308
-0.02284300344299117
-0.5223696279839584
0.54521263185705
0.4004441422552246
-0.4980629028101312
-0.9189475505341121
0.9415999704825938
-0.02265241995311547
1.067607466353623
-0.01106611748720312
0.9348493935569208
-1.116653251659187
0.1818038580468721
1.0670556068534
0.0005518526145393496
-0.664448566533791
-0.05975764114752218
1.262311980854186
-0.8642582246557663
-0.3980537561904354
0.1481080494078937
-0.1097210055713859
-0.3260770177591882
0.435798023644764
-0.2855614471790485
0.1915969517884396
0.09396449594243556
-0.5836808419143149
-0.5155703655802336
1.01403939491991
-0.07919000290324954
0.009900759231905988
0.8254858565372397
-0.8353866157488218
0.5717960719675746
0.6905159098527177
0.4392749212868768
-0.03060277493513358
0.4310469174309067
-0.8079943709285252
-0.1025082236018042
0.9105025944697098
0.5020815496256398
0.253858783578846
-0.755940333241345
0.006997129281175167
0.5278413684565155
-0.5348384980063019
-0.4899602555081796
-0.6042374997061219
-0.422759596159223
-0.6938936560402788
-0.02708806797501661
0.2704134217182176
-0.2433253529480841
-0.9247096017353236
-0.005069565407426774
0.9297791671771823
0.3087358866922855
0.07436150268073262
0.7617317129872707
0.04988849792739485
-0.5330720518284819
-0.06251737840049633
0.04602806681960343
-0.8540224401203531
0.0752978935619962
0.8634578972919622
-0.9387557908586341
-0.3468446129758956
-0.04122002530789442
0.3880646382146293
-0.6820334712825605
-0.2426761300554418
-0.6339792047319264
0.7092770952804498
0.6138351431213573
0.2113113606341417
-0.543276912826067
0.9456442384189673
-0.7790035996512674
-0.1666406387612724
0.01279508321031991
-0.01190436111703773
-0.0008907232592684378
-0.4034186981782669
-0.09464420399852479
-0.2408308462056024
0.8546659827453542
0.04753655811556957
0.3350430304356738
-0.38257958814642
-0.4609811785735194
0.9630627274786235
0.6804225506103079
-0.7829307792352476
0.3203515454876381
-0.01688819082021504
-0.303463355567479
0.9307358844811233
-0.930735884468316
-0.7812799257834601
0.1107141969671294
-0.3231054913702546
-0.7499400528862589
0.7598408110698824
-0.09019947176121886
-0.1434307858552624
0.2336302580762779
0.864947040361274
-0.03946118432610889
1.054313769649522
-0.8004549891966275
0.1865145589732063
-0.316026006012685
0.1295114469942317
0.8587822605435856
-0.09705054634972135
-0.6115238322026288
-0.03899583443284613
0.6505196666491392
0.1235162285933623
-0.2306954302438893
0.1071792004928891
0.8056334061418223
-0.9836222880442581
-0.4347641805878513
0.3293627902445079
0.1054013900086019
0.5325580984819566
-0.5554011060892905
1.021910452170719
-0.4561883771846578
-0.5657220749999561
0.5991508518683942
-0.7193661390577434
0.06672162236195213
0.6526445170977472
0.1028419267519677
0.5696878923343127
0.05538724047426412
-0.625075132933205
0.1943816562684169
-0.08366745385081863
-0.4925240558314
0.1456794406747907
0.05023824909714024
-0.8865097844685804
0.8362715353209768
-0.4730377784852859
-0.7132949566070654
0.04884639234447231
0.4372847575283739
-0.006237836409644054
0.2999270957088578
-0.8552521280146081
0.5553250320711084
0.4157452642000453
0.5842547357619752
0.5604722817749962
-0.5144442228958169
-0.3678881058338853
0.03792898743676433
0.3299591205926831
0.6813106263870464
0.2494252577268879
-0.5661472721370651
0.573144402855576
0.1112077359706737
0.875097826267765
0.01016579237529373
-0.6216896262294338
-0.7491168905075963
0.7993551371958852
0.5306920572127537
0.06982584969289274
0.3019321161680071
-0.3717579659978051
-0.1674658008260212
0.4438435660108357
0.08399780685840977
0.8755321901655976
-0.803982117722949
-0.07155007254133512
0.6352869947602247
0.3103572409618219
-0.4305067678116906
0.5738452486173407
-0.5040194018426862
0.4171606289847117
0.1331076044021146
-0.04674647965261818
-0.5940653607810655
-0.1379832867277187
0.7320486475436583
-0.1497811726718828
-0.780954709454273
-0.6109870426943493
0.3604621266379026
0.2505249171102394
0.6219598899942704
-0.6117940998441186
0.2392432964971276
1.011324308775175
0.04298946195300841
-0.7491168923345898
0.2342452109175349
-0.2214501195101728
0.6804225525137271
0.8017561015529524
-0.801756101513907
0.8376633979886199
-0.8331446868195488
-0.004518711250158383
-0.4453658917538477
0.8611111545359795
-0.147307729362933
-0.3452163241347172
0.7347281589333532
-0.6685142524607707
-0.06621390639890838
-0.7348248864855051
0.1407595258449633
0.1389247145704224
-0.6719967658813274
0.7829307976194745
-0.9503965983830629
-0.3686462583065184
0.2907606719479908
0.0778855868800169
0.1458428237588484
-1.01000221431128
0.8641593905244515
0.4812591416029912
-0.04198422023971695
-0.3081194409076565
0.5863787371302682
-0.2782592963288272
-0.7385618910308022
0.8844047178089155
-0.1570437141552765
0.7312830665319517
-0.8431945862584385
0.1119115195781008
0.9760719768871081
-0.5396942821012256
-0.4363776947522622
0.7550096189730445
-0.06503275078756944
-0.03217293135751225
0.1850746907526211
-0.1529017586574593
-0.7758123372564487
-0.8416716757493991
0.07645282373849265
-0.7499400541044784
0.5136473295211214
-0.5548673530189113
0.09869790409816495
0.7185516864651786
-0.8172495906984937
0.7536356188665095
0.1742839339084499
0.5029193512388361
0.4970806487831811
-0.0509923077900674
-0.6123089567646414
0.663301264413419
0.8839334946687398
-0.008401307862392189
-0.755009618986463
0.7993551365865776
0.1914085150956805
-0.4476713840652953
0.01565977984225658
0.003599512018009715
-0.0192592954138547
0.5885212389844318
-0.4376774078857277
-0.1508438314406478
0.7179801299844176
0.01037412779278316
-0.1103886085139399
0.4376607782310046
0.1508604569862539
-0.01645333162512864
-0.006111367383639463
0.02256469914424526
-0.03101021018479064
-0.001162714752991863
0.2449635857730759
-0.2618517922373197
-0.9587998175411113
0.00132210047265714
-0.1594446809429726
-0.123682676266215
0.09439254984974689
0.7222318768612942
0.729002611554485
-0.1447478741523652
0.6734742017300348
-0.5747762953196645
-0.211765689438217
0.3982802466879093
0.6955724234339598
0.0224077065649528
0.2417860351320653
-1.074930725789736
-0.9503965961832965
0.3024980423732384
0.7598408107172613
-0.2090543818606002
0.06562359144865011
-0.7235539769647172
0.9111346033913004
-0.1875806264708387
0.4155422308241475
-0.02747758758639482
0.7712387816541233
0.2806338548925653
0.3748781155280377
0.06853390692691626
-0.6587013132268071
0.6587013132483218
0.2146291473824476
0.6958734424504018
-0.05612325894186384
0.3911662894399306
0.3796747600242294
-0.01551916410384536
0.03117895037555594
0.4486321577290293
0.03262698610990286
-0.7385618898030329
0.5340263097445573
0.2007018446937814
0.3020787555186215
-0.117004074524901
-0.6955724247390574
0.1800680474344222
0.7310665572779464
-0.01015172174994419
-0.813686857440411
0.8238385792141339
0.696362530438026
-0.7920340845584569
0.0956715540995664
-0.7536356104030133
-0.1498904676460414
0.2113639116536256
-0.06147344310783521
0.07726813761090193
-0.1791999806457352
-0.1119474283583103
0.2911474084148358
-0.009496578728929434
-0.006956749658689684
0.7062804697093248
-0.7164321839916992
0.886268196299423
0.06879574469237799
-0.3098159611625177
-0.5231470811540865
0.8329630425476168
0.1028097708557239
-0.1028097727988892
0.3286896500841288
0.4787881549066106
0.6080608381891278
-1.086848993226255
-0.1941187287160318
-0.5855423538802805
0.779661082586431
0.01227955515157262
0.2213506935107555
0.3766069881051209
-0.253090773428102
1.014904972072795
-0.536116820773357
0.6670853579528924
0.9923659379979305
-0.384305102998879
0.2292992636089402
0.8844047209716814
0.7126593008626718
0.2138128154962821
0.7277871502340093
-0.7809547095596168
0.3412986698194728
-0.2840776783913396
0.2580008972190679
0.02607678153931573
0.8519844190773114
-0.01017833977583088
-0.8418060795010031
-0.7020574532437309
0.702609302618541
0.5546341053693097
-0.7020574561712627
-0.7126593008651583
0.7026092991293044
-0.03358918141329787
0.9058383995803799
-0.01957019922278018
-0.6813106357663512
0.6122487045079227
0.06906193125694403
0.5387349424638437
0.5385357655098132
-1.077270707971857
0.4887506493823243
0.5261543217388069
0.5478074223395243
0.4583158888386295
-1.006123311235657
0.4950182458270639
0.4973476910480293
0.6122487112242418
-0.5257025028948396
-0.466528936636775
-0.555792247192635
-0.5153578703823205
-0.1246428947162202
-0.01275445715303528
0.01275445810431732
0.5095430416824346
0.524307174489224
-1.039665045003524
0.5730805250400886
-0.2711484082606551
-0.8831797859106165
0.3434855042141715
-0.6326843817149249
0.390008251263475
-0.0002015314462501109
-0.8280106258029376
0.8282121572599631
0.4208831758873908
-0.02403392572285369
0.8760183475566747
-0.9437951705739233
-0.8347207243734512
0.05734791546506018
0.777372808960482
0.5509548562863548
-0.4366165367544401
-0.1143383194227178
0.6500893482353284
-0.7292793511915883
0.8847559890076462
-0.827796524430338
-0.05695946438264402
-0.0134688755080522
-0.7905132452018229
-0.1110987117885785
0.7153105639057399
-0.6042118521156314
-0.9409366160744287
0.9274677402681475
-0.7357175432935197
0.6885124054840414
0.04720513782567215
-0.800563452530438
0.0279425473766679
0.7726209052505918
0.06180583908539001
0.04100393419169118
0.4330347000358336
0.05903919926578913
-0.8496869520388136
0.7906477526412432
-0.6448951639585796
0.5939028492194987
0.8898475502188459
0.07291311230459754
-0.9627606626278699
0.05512682707380549
-0.05006869289003034
0.3800278034549285
-0.3816337452540522
0.06560773381391312
0.8407113477665509
-0.8409128839745067
-0.7317677012268633
-0.8104358066917692
0.01992256080421959
-0.1684653926283848
-0.8478510454678859
0.02005451316907529
0.6238060211787064
0.0496681824981353
0.0171580203939929
0.5337968224385352
-0.8147592985365369
0.8427018500386443
0.5657220780472236
-0.8520445587782177
-0.8680235032828439
0.03781489901036345
-0.03319753328343775
0.8342610782682081
-0.8010635449588507
-0.01963889975610768
-0.7649652301649512
0.5442945974647305
0.1520679341233922
-0.01950178347825951
0.8955201301721747
0.9848156561217013
0.8607530878988574
-0.8406985792232422
0.1475877372548826
-0.1475877390851104
-0.1177403308197624
-0.4662022317541
0.02958568855352354
0.2713718586679391
0.0311261840367866
0.3852522317058258
0.8758812331689215
0.00625322619491465
-0.01574979142613477
0.6586020809812902
0.3413979190407916
0.7835532136680516
-0.5836808427638427
-0.7780472780225027
-0.8112418772802028
-0.6799568731090488
0.6799568731069384
-0.1681403050884383
-0.1549651804589736
0.6017965712708916
-0.8113298914404643
0.2095333201912054
-0.4939737302921171
-0.5688565009456047
0.2780642203978982
-0.9719578774755884
-0.8988388602784165
0.8418793852265117
-0.8197442202192182
0.8396667818193811
0.6484851780459836
0.134494691444075
-0.7829798695019378
-0.7640367393803862
-0.1463100851567631
0.725349942298989
-0.5790398571419002
0.02295763015941973
-0.01293715277755298
0.01608876699634896
-0.003151613140422267
-0.3528039050921528
-0.1133983245314158
0.8798607927015853
0.7385453125477246
-0.2385486340984216
-0.4999966787574768
0.6242069946616445
0.6856412605788117
-0.471012114713553
-0.0003071150941379771
-0.2852543368702343
0.01444982969510356
0.7468437101187149
-0.7612935396701997
-0.3234726991295512
-0.07175076148364071
0.07596991735515027
-0.9665655221401006
0.1247594466177771
-0.676835198291996
0.0542043458804364
0.6402352043468263
-0.6944395502042281
-0.7565816914163247
0.07974649311164672
0.5894832431196994
-0.6612340045169817
0.1562568611535699
-0.3354568456834477
-0.7724472003484395
0.008410460954733561
0.3711509031258423
0.6001513357965714
-0.02630608436942849
0.02182552171312573
-0.02182552324102268
-0.01886581587647516
-0.05253753908336625
-0.2315401237945098
0.02116370641283796
-0.01491050706053183
-0.7227790211963936
0.2794046808353816
0.6784379992658965
-0.690123698681556
0.01168569959875783
-0.5968070523944585
0.6510113966499425
0.654435237131288
-0.06495199521730838
-0.6310683381725853
-0.1255133555212266
-1.049765976014429
0.01123392052282146
0.1363538209986166
-0.708329192958371
-0.7421670536497371
-0.7639465729773814
0.3658928174907139
-0.4069207761876366
0.467525578646899
-0.06060480231439344
-0.6737549441438405
-0.03457424870821059
0.4996283905916495
0.7306825084531308
-0.2347627102003287
0.1110800354919589
0.9581550639267969
0.4461716572525962
0.1324263257446834
-0.5785979830531099
-0.677486852192085
0.00373191036208017
-0.04449650307600642
0.03155932570665827
0.6375772546393702
-0.7755605433426345
-0.002779280650238863
0.002779280195699244
-0.6000244161207391
0.6495705647820228
-0.04954614863894705
-0.660328831996035
-0.1138572206110997
-0.6718156386101743
0.05373912214637259
0.6095621370500387
-0.1376109289966773
-0.8181257222481296
-0.5651116276828276
0.5720832295109215
-0.006971601102339534
0.6312414533446887
-0.6195557542519154
0.32232714225742
0.2136757750071902
-0.5360029172751283
-0.1045898000280395
-0.6027209353073792
-0.09171861383780093
-0.1538527581061162
-0.5113725170445825
0.404352195681011
-0.498996401802471
0.1259899755820618
0.6787469859510941
-0.8047369615308946
0.5991508518621227
-0.3746599207171671
-0.03226086606481973
0.05988036417325615
-0.5712528826695021
0.551456581433862
-0.0403336701322325
-0.5111229114978335
-0.3127449751341116
0.3053901592924481
0.007354817056344863
0.4507787634988158
0.1223017579406006
0.05171430373906067
-0.3162161682199959
0.1572094082793539
0.1590067601693368
0.25329595335244
-0.01905075258262621
-0.2968462176756252
-0.3131763220090059
0.3597754998130993
-0.04659917456992552
0.7918448024881755
-0.6291826328797854
-0.03114619925094964
0.4995100223891474
0.2851286033330491
-0.5236772414808748
0.5774419327389461
-0.5774419327373631
-0.2897888656589827
-0.5865179482604886
-0.2955235688400425
-0.5865179484789403
-0.5968678424480065
-0.8384785379245349
0.1699642810168669
-0.5995969391040836
0.8212213340768663
-0.003410776073683835
0.1189097233038691
0.4812416133167532
0.09674170990184537
0.1855817469265608
-0.03618484170482601
-0.1493969043000869
-0.02751371924652652
0.590667668057013
-0.9426447265635232
0.4194976410127476
-0.004289890652163075
7.776891070355139e-05
0.004212121984891655
-0.6439918509112992
-0.1321166559288267
-0.4659819974544371
0.5984083242390013
-0.5035751899033215
-0.3151751137120409
-0.2560777545821019
-0.2723371745141525
-0.111641665889269
0.1116416666152085
0.1535627661148457
0.05780114839862958
0.1968156711339651
0.4484748223735976
-0.5696884824856064
0.1037064796915182
0.2537109960935031
0.4662810855859427
0.53371891509523
0.6456171496925505
0.08132846263370797
0.002986386055646433
-0.08431484881531828
-0.2770447858904223
-0.5410809363681753
-0.5452475980913575
0.1146079410169366
-0.1264798329745391
0.01187189244265874
-0.1058069760990559
-0.3855499975929174
-0.04881009168239854
0.6583722452847902
-0.4994315259609667
-0.1445603249244879
-0.3270794656958548
0.286559596016096
0.1278367895618028
-0.6093505411607395
-0.2043251600244275
-0.262618329298976
0.0007665558061061583
-0.4209552573628125
0.3221773231829185
0.09877793438865913
-0.08965227838536365
0.2916952596918154
-0.8959327619838479
-0.4575258036740308
0.6308585217258411
-0.7731395337019921
0.6685497337228207
0.3410975899215444
-0.1257952986334154
0.2248001779377107
-0.09900488004543487
0.03145563766049893
-0.5861763103351553
0.02886355411946419
0.5573127559689415
-0.9006467942431948
0.5474817713374189
-0.665222102186516
-0.1007653457792139
0.1091569552073685
-0.1091569578922158
-0.3165232887939166
0.3601343354331696
0.01989346257530042
0.02108214421251126
0.06024629288767878
0.5043859735943483
0.6673513587053957
-0.7389014336366653
0.02468165096508338
0.02021417998101665
0.001611329899719753
-0.006325379270278084
0.006325380160888216
-0.4100224955603076
0.5323242495915324
0.01559324117690499
-0.01559324106195986
-0.7926151526983504
-0.06003218445622887
0.1218380159376174
-0.4509911588190239
0.5546976342887228
0.4496962938094017
-0.4992424421813284
0.1500439277691259
-0.1500439292471542
0.0438943577507445
-0.01271539666418291
-0.04126761868088707
-0.9764143475973193
0.5400366539947602
-0.4706273059205194
0.04100393252893492
0.5150447494689472
0.03052034313794923
-0.5455650928075847
-0.6162525882088999
0.1168210626153057
-0.3293851183296955
0.01359044065514978
0.3157946767383648
-0.15432932104558
-0.08043340544010764
-0.5409114998770153
-0.045264807410469
0.1363538216642457
-0.04129905282470911
0.03851976901096616
0.08161222602419399
-0.08161222314676395
-0.5298079130095238
0.4832087291064671
-0.4147287139050161
0.1613031078976042
0.6222501058124942
-0.09735637316601435
-0.005736747574590461
0.005736747620289132
0.5330026904961505
-0.07555371403453291
0.00634718110678066
0.02719686569421973
0.03467856628989356
0.6894128092516366
-0.7649665233736564
-0.6623141583074661
0.6311679594573568
-0.1104929536199285
0.3136047930754899
0.7456427383267786
-0.01886581463079186
-0.2655847647296806
0.1485807034064129
-0.744624913689758
0.4838790225873106
-0.4245431485694762
-0.1012078370769384
0.003383098250010194
-0.01467272159604019
0.02415011531632525
0.4123017486334155
-0.121633998771702
-0.3894889138436831
0.6290885476884952
0.01907980758327567
0.009133962470042325
-0.009133962664857876
-0.3547664439224641
-0.08133309089968109
-0.5604163040160862
0.5570055277938271
-0.2377427285488678
0.4647447447831537
-0.1505814470422627
0.7302952580692862
0.6704141582015746
-0.04129905256723829
-0.6164380399177178
0.5600255499096766
0.2823725809058426
-0.2785214916200897
-0.003851088249161601
0.5415156829489176
0.09343892219330403
-0.03874953483132833
0.1966691866900868
-0.1579196514088421
0.1203617582891349
-0.1203617555729506
-0.8586453654062853
0.002456186407566303
-0.1131482127646039
0.1403450772454093
-0.1316811723934828
0.1316811734352519
0.02021418335934084
-0.02460257445375927
0.6708667997450584
0.06019975802513458
-0.3228460888469016
-0.06270390853213742
-0.4712949179851659
-0.04470688583588708
-0.1514890887124454
0.1514890902213931
-0.04042049265896933
0.1435062714079318
-0.1435062727109508
0.1366110163375092
-0.1366110142595482
-0.3160157509764469
-0.1144910167926308
0.2262182654003185
0.1031445243113251
0.03480677997251475
-0.8212260716503087
-0.1976431211661767
0.1700534948626076
0.02135501274166296
-0.2646983884202866
0.1260523931297048
-0.126052394273429
-0.4142551181208761
-0.08474128078206702
0.2360230848642484
0.002636216196954339
0.04031317659569921
-0.5444129388709302
0.5780021203069267
-0.02818291292557291
-0.01223757879058616
-0.02540491917140148
0.01268950797401299
0.006537639295101853
-0.1845403035893988
0.1780026642652206
-0.107709752484335
-0.2277470947118105
-0.1445531393175255
0.1445531406634568
0.07256555253932274
-0.07256555187721586
-0.01911182173592808
-0.1086179608617737
0.1277297818187408
0.2353925186651225
-0.1832335307990113
-0.0215300192941208
0.02314134246519516
-0.1301862790902594
0.6133950108415804
-0.0390761173758845
0.424511359276657
-0.04122706304936192
0.06379174581232713
-0.1533065280383693
0.1533065298641364
-0.6363585443799447
0.3084106662425676
-0.07911140345192234
-0.2343534471792314
0.003658012164337632
-0.1222264137785603
0.162539591244746
0.1942181428059079
0.09692925921359877
0.09504313460575238
-0.0603645682778738
0.07298893752638611
0.04161900359385202
0.06407175115502908
0.1059817466730683
-0.09914486511722592
0.2102249233451005
0.01191324774454669
-0.1140553688356157
-0.1020544756185089
0.09675708458853315
0.005297389686311273
0.01108021872940096
-0.0221472593337409
0.03747705099997578
-0.03747705089266498
0.07444277213986616
-0.05517604515651094
0.05517604547720262
-0.224424337931249
-0.05026362361317489
0.01174766961090575
-0.1031668495090916
0.01624925675149887
0.1086669329052753
-0.1086669336396942
0.2929960731733315
-0.2710097117557443
0.1632999536612926
-0.05045500849707241
-0.2205547041372138
-0.01703155720146065
0.01703155678578445
0.3674430340013584
0.2852014721560449
-0.5277814418998482
-0.09394199246842684
-0.03253783840582108
0.5287461349564487
0.2099875855338545
-0.168655501874994
-0.3816413717343097
0.07659642040008537
-0.1474014633212453
0.1870187681907316
-0.03961730447984523
-0.06704794688703275
0.06704794637876756
0.8222391587257063
-0.5603886275910239
-0.002719336136557712
0.01379955501828396
-0.02003950387294227
-0.2870818414273708
-0.01745388292776165
-0.01287196367319405
-0.1320195315198641
-0.5722199516376515
0.55603619961925
-0.5685814720191972
-0.006935948034725795
0.09916588165384541
-0.001817442364394746
0.01669551678165371
-0.1674409662751048
-0.3363464183331554
0.2331795686524274
-0.0542003323963633
0.03508850930777863
0.1321269484229921
0.1732632096608165
0.3405453463765011
0.2762305972855534
-0.2780480403074762
-0.06353470576418498
-0.1549548933759638
-0.2207630119916185
0.07464582560700267
-0.01057407252681463
0.2138146959301432
-0.1971191796527806
-0.08622970045388702
0.1592186422133413
-0.354905701242095
0.2083746588314441
-0.1921254020795312
0.0896665102763414
-0.4791554214452535
0.1741468076081407
0.1704319982870263
-0.2566617089220136
0.07289586734237573
-0.1946393689188471
0.1771854864269392
0.01738545929467756
0.141833181123122
-0.03958279190757623
0.06599837967941055
0.4670043112980603
0.02044549287183096
-0.0807204964952065
0.0561446706941417
0.1256723515654968
-0.2603803156380705
-0.2309450206948055
0.5597090298009679
0.1572357809064448
0.07878730522311223
0.07520777720556424
-0.03106194870147683
-0.0005297076393057222
-0.003321379179844316
-0.03262479767777481
0.170868854927407
-0.1778048034595887
-0.05657038416397264
0.02042200807224235
-0.146940720189087
-0.05280619978124546
0.1536545249076249
0.2770657391416841
-0.04054378179041364
0.01215980355377147
-0.2552246918002428
-0.1306970220143729
0.2360397296022885
0.1788818825950477
0.1295287804739474
0.02168928670541586
0.08865366027756549
0.05212389769981614
0.452262075911743
0.01721064656724122
0.09765495000174416
0.04319887567019758
0.0721206332289837
-0.1153195075202968
-0.2425799672517105
-0.2005711749474137
-0.01998353243390496
-0.2020896794093958
0.2752082197425937
)
;

boundaryField
{
    FrontBack
    {
        type            empty;
    }
    Top
    {
        type            calculated;
        value           uniform 0;
    }
    In
    {
        type            calculated;
        value           uniform -1;
    }
    Bottom
    {
        type            calculated;
        value           uniform 0;
    }
    Out
    {
        type            calculated;
        value           nonuniform List<scalar> 10(1.036558072185839 1.064437445181058 1.022321183824188 1.021172568716537 0.9968516534841341 1.012705561506854 1.033850216302383 1.062830231218931 0.8672308026329441 0.8820415171242548);
    }
    circle
    {
        type            calculated;
        value           uniform 0;
    }
}


// ************************************************************************* //
