/*--------------------------------*- C++ -*----------------------------------*\
| =========                 |                                                 |
| \\      /  F ield         | OpenFOAM: The Open Source CFD Toolbox           |
|  \\    /   O peration     | Version:  2412                                  |
|   \\  /    A nd           | Website:  www.openfoam.com                      |
|    \\/     M anipulation  |                                                 |
\*---------------------------------------------------------------------------*/
FoamFile
{
    version     2.0;
    format      ascii;
    arch        "LSB;label=32;scalar=64";
    class       surfaceScalarField;
    location    "984";
    object      phi;
}
// * * * * * * * * * * * * * * * * * * * * * * * * * * * * * * * * * * * * * //

dimensions      [0 3 -1 0 0 0 0];

oriented        oriented;

internalField   nonuniform List<scalar> 
1171
(
-0.9279175840915236
0.9279175841328002
0.7872601035320327
-1.098753174160592
0.3114930705438629
-0.1947547291768698
-0.7674357318550983
0.9621904609749833
0.07208242175725706
-0.1175075335134917
-0.2117994910789809
0.329307024808915
-0.7872601059425932
0.06928105606945686
0.7179790498625923
0.8107043763524331
-0.1773997463479972
-0.6333046299858228
0.874188954953369
-1.043478524339891
0.1692895693505638
-0.2846978729262391
-0.09802056799216283
0.3827184406173212
-0.03608235347865834
0.5483596738923701
-0.5122773203448335
-0.5069893581734057
0.8290919506683486
-0.3221025924326831
-0.4022054124946355
1.045637189645601
-0.1714482330125826
0.3958214263005467
0.04896785024484227
-0.4447892759489055
1.046396141646024
-0.0007589514421693915
0.4465155935080929
-0.0506941646050538
1.056920951760299
-0.01052480376116614
0.5783654252387673
-0.7731201616675154
-0.7243049297113736
0.5571076827466392
0.1671972470131244
0.2196558198475744
-0.7266451723541191
0.550053607515534
-0.9225678826508447
0.3725142757565939
-1.094191625004951
0.6864477841184562
0.4077438407851461
-0.5953581411392045
0.5592757824016944
0.01778202050138345
-0.2564313025233043
0.2386492829921773
-0.02423854781721508
-0.5237264133799798
0.5479649609701631
0.399842516013187
-0.4978630915207158
-0.9187633910539127
0.9415041877159439
-0.02274079666043007
1.067792644314447
-0.01087168951327346
0.9352106724682561
-1.116980982427156
0.1817703100008248
1.067430012637959
0.0003626380803666559
-0.6642750577074166
-0.06002987029536008
1.2620445898105
-0.8644549510890795
-0.3975896387277259
0.1486666280811749
-0.1091709307872175
-0.3255351010136235
0.434706031569473
-0.2856895428937158
0.1913888004095394
0.09430074205674167
-0.5833972375101842
-0.5153559367732365
1.014121616048057
-0.07891094227186642
0.009916213767626244
0.8254478185053372
-0.8353640322902323
0.5717743278886752
0.6902702610636701
0.4391887397807747
-0.0307044987349739
0.4305470143412126
-0.8077463116460448
-0.1026261051071869
0.9103724167998474
0.5026975767608274
0.2539356020735102
-0.7566331788044216
0.00364864226163267
0.5303922620228966
-0.534040904087273
-0.4899111861483907
-0.6042804337637042
-0.4229003874949143
-0.6940805943745487
-0.02748260758368162
0.2704883864546644
-0.2430057794835766
-0.9249157498861451
-0.005208571590830159
0.9301243214506031
0.3078161741382391
0.07490225656069439
0.7622493427870977
0.0484550343741272
-0.5329940231253099
-0.06236412134000408
0.04630301020539627
-0.8540493192814486
0.07683455649137383
0.861798728612153
-0.938633285099311
-0.3473900649115482
-0.04092820868383558
0.3883182736515062
-0.6824288041472092
-0.2424869469195912
-0.6317839528278018
0.7086185121919796
0.6097101834876827
0.2193817723410792
-0.5429818257340236
0.9462057899935441
-0.7793540458442482
-0.1668517441543395
0.02041423859067821
-0.01126269332486387
-0.009151544528216192
-0.402999097687843
-0.09486399468132464
-0.2420123884521834
0.8517225779732464
0.04725453850855226
0.3340448514111602
-0.3812993902283169
-0.460881427364941
0.9635790050500314
0.6801308098181081
-0.7827569102036972
0.318077349929034
-0.0154831047652441
-0.3025942446159079
0.9306638141300504
-0.9306638141399222
-0.7829840111053948
0.1112794657983978
-0.3230789619716545
-0.7500380367586994
0.7599542506460649
-0.09097550825269465
-0.1426750097356847
0.233650517624407
0.8649244209011694
-0.03947660277658936
1.054510335557192
-0.8005747301532254
0.1862099295592106
-0.3158261400437973
0.1296162105206836
0.8590322992173954
-0.09678295702668215
-0.6116550243478234
-0.03944799038422102
0.6511030147191067
0.1237702892822176
-0.2308749015092078
0.1071046131246996
0.8056003879771261
-0.983000134555147
-0.4348823323554512
0.3293749942955878
0.1055073383186113
0.5323131302005752
-0.556551673873818
1.022127227893291
-0.4562805853673699
-0.5658466425160174
0.5992268431591997
-0.7192861443258143
0.0665763881268216
0.6527097558913544
0.1023991210762779
0.5703947375554347
0.05465427352012919
-0.6250490109861284
0.1946175937701304
-0.08333813233147654
-0.4928226567259681
0.1454325935920379
0.05037071041213695
-0.8867648446678386
0.8363941342938804
-0.4747585642929119
-0.7133724120814239
0.0490973520074693
0.4364786534926182
-0.005931643510551159
0.3000056539678062
-0.8552832526380532
0.5552775988562412
0.4157281143404453
0.5842718856884279
0.560619485223127
-0.5143164679690858
-0.3653318847861041
0.03650151505717702
0.3288303677170312
0.681326703679391
0.2493371108800882
-0.5671496275601688
0.5707982672389807
0.110943556525312
0.8748814447774278
0.01029889055500072
-0.6219539140649978
-0.7492755036602219
0.7996462157140186
0.5309467461942581
0.07160682481586458
0.300678231785008
-0.3722850564963853
-0.1676015289188506
0.4429496151026053
0.08744264247768414
0.8748648511700712
-0.7985043364234228
-0.07636051467645225
0.6355364374984832
0.3106693542657561
-0.4304817042968762
0.5753780831927547
-0.5037712561502985
0.4171003069192922
0.132953310425919
-0.04689236466910879
-0.5886639779392273
-0.1388925580201091
0.7275565359399866
-0.1496666627153287
-0.7809971536203029
-0.6110654693215539
0.3604798269316754
0.2505856415746203
0.6222556967021612
-0.6119568045625623
0.2383315165704872
1.011657205920915
0.04285312843916825
-0.7492755024134192
0.2196499727313923
-0.1992357418891798
0.6801308085771223
0.8021389711941129
-0.8021389712216449
0.8376674878858581
-0.8332678244872749
-0.004399663338748879
-0.4453611524599697
0.8610892678869411
-0.1476200451984625
-0.3452026137814953
0.7347441012226427
-0.6685120220664788
-0.06623207921159138
-0.7328487930699223
0.144184814438455
0.1388940454431318
-0.6718880687216428
0.7827568944231483
-0.9503584233869685
-0.3648700133338606
0.2869940328537968
0.0778759801605578
0.1458265240946795
-1.009644692894613
0.8638181688183342
0.480582882955788
-0.04139414323235238
-0.3081415042661113
0.5863527701557559
-0.2782112658064305
-0.738355929517999
0.8841824510990991
-0.1570983460047742
0.7345453963415985
-0.8366872881975631
0.1021418919725681
0.9782491805742185
-0.5413559015090489
-0.4368932790909866
0.7552466089111591
-0.06484623286621957
-0.03590599715541196
0.187464207131807
-0.151558210419614
-0.7757365314312873
-0.8436258309597223
0.07619009185668271
-0.7500380360618117
0.5141346207476577
-0.5550628311707234
0.09162525632185416
0.7176253383823782
-0.8092505946110211
0.7536751533102282
0.1742424459680385
0.5028878106503775
0.4971121893325426
-0.05388901014703835
-0.605998952040227
0.6598879623410441
0.8788024206839981
-0.003937566254135705
-0.755246608900909
0.7996462163736012
0.1912569083869173
-0.4476882083474058
0.01767608339049206
0.001344085017488137
-0.01902016552746043
0.5894888518443926
-0.4381538647125482
-0.1513349868686549
0.7179790512727935
0.01392406340101056
-0.1090804361617826
0.4380847931259787
0.1514040624470877
-0.01355393808398365
-0.007007150670547102
0.02056108826486024
-0.03369828630008937
-0.002207720548575417
0.2441051832961459
-0.2595882734076427
-0.959237315774385
0.002012507742979287
-0.1595910994103993
-0.1207648278208894
0.09476028912624307
0.7215666208102934
0.7289886301721055
-0.1447167457565298
0.662170107290203
-0.5705448535226616
-0.2119279059823126
0.3981378369958945
0.6955028062243641
0.02247624503489017
0.2416572354268143
-1.074925056577353
-0.9503584248257626
0.3018845384818644
0.7599542505387976
-0.2089150905584856
0.0662400847184962
-0.7235791288724746
0.9094290820539573
-0.1858499531462018
0.4163177179828682
-0.02799944958024332
0.7715479035818642
0.2807138612107071
0.3736146935355019
0.07290088610821356
-0.6587013940903956
0.6587013940738905
0.2148169767109041
0.6955554445968637
-0.05522707874695409
0.3892719300061609
0.3794789569504812
-0.01269210276302879
0.03036817796687075
0.4491169865192122
0.03146589437307899
-0.7383559303249961
0.5340792899927277
0.2006648149997065
0.3041728548969019
-0.11670864058308
-0.6955028047842486
0.1796603545055837
0.7297687263004592
-0.01027416278417404
-0.8136193537142377
0.8238935164794503
0.6963274996895868
-0.7920251946903792
0.0956976950182695
-0.7536751602596804
-0.1508034887408509
0.2117865795453501
-0.06098309151159327
0.07743212033095045
-0.1789908774066917
-0.1132617952901661
0.292252673150544
-0.005565162412419401
-0.007988781227914035
0.7066170926954894
-0.7168912627525611
0.8854281133341328
0.0767623408948561
-0.3171469662952957
-0.5173852824334687
0.8345322485512733
0.1038677301683864
-0.1038677286780912
0.3234955538465824
0.473040594253534
0.6176587428274136
-1.090699336976373
-0.194107613190242
-0.5856616622101074
0.7797692754084733
0.01364092136161715
0.2200096045151816
0.3768562575734085
-0.2530859557392822
1.014009567066585
-0.5409689694831709
0.6658726233492405
0.9945610953827844
-0.3769023494223097
0.2292362078360223
0.884182448315523
0.7127342181836619
0.2137739983907279
0.7277301937593217
-0.7809971534396964
0.3412986201855062
-0.2767703998437787
0.2469617633293414
0.02980863644904428
0.8464097595695589
-0.006371566635529105
-0.8400381927917765
-0.7022094209567415
0.70257206204878
0.5546388498091976
-0.702209418173765
-0.7127342181822195
0.7025720654575681
-0.03483648986410236
0.9074710714458073
-0.02204296197640713
-0.681326694626414
0.6123476065464747
0.06897908808059856
0.5386598870363198
0.5369128446217627
-1.075572731659085
0.4904213920398975
0.5235881759878611
0.5433509113582531
0.4588308857036406
-1.002181797016682
0.4959905467341528
0.4985705496592609
0.6123476000549859
-0.5255374842094475
-0.465273089997814
-0.5567101727281742
-0.5178356294013743
-0.119061955267856
-0.01227539126855297
0.01227539060442259
0.5129760890511927
0.5232562167736476
-1.041091846077379
0.5743073822221938
-0.2736291512210623
-0.8852706145508121
0.3439147125018286
-0.6331055438882708
0.3906185971339775
0.002574957341436725
-0.8282576326762308
0.8256826753264727
0.4208471212538927
-0.01844536225421117
0.8648551191384971
-0.9489309145363406
-0.8335095434192906
0.05388377057747866
0.7796257728039828
0.5665985291347497
-0.4396313900420161
-0.1269671391505009
0.6501244634026639
-0.7290354055443229
0.887137215194029
-0.8315468456329127
-0.05559036970318397
-0.01043948132400647
-0.7880648522601146
-0.1098647443243245
0.7127333026060179
-0.6028685582730379
-0.936578331543464
0.9261388505439989
-0.7252609843589465
0.6915559218212431
0.03370506253722898
-0.8110828802073219
0.03882902154712454
0.7722538585913393
0.0617881918716199
0.04207953573470509
0.4329589646456776
0.06179368275823162
-0.851760329068137
0.789966646409626
-0.6437509830308897
0.5898619784447544
0.889304235459959
0.07073254096658162
-0.9600367763479225
0.05579469046707312
-0.04788401273414342
0.3767143904009214
-0.3815656355167578
0.06573950036636926
0.8421163162330585
-0.839541354160546
-0.7343205455084264
-0.8138791339382349
0.02581428226077111
-0.1630493340190228
-0.8528214570580888
0.02127461880640565
0.6231190957126419
0.03905100964313715
0.03433773547929667
0.5322608052189594
-0.8075846799809864
0.8464136976276458
0.565846640361934
-0.8467029879742145
-0.8658457912766603
0.04162527740603383
-0.0334254622715113
0.8376758286766263
-0.8042503664400286
-0.02713877059670515
-0.7677460118542803
0.5443391184126709
0.1519883797041326
-0.03009114545300789
0.8949462655137209
0.9800226203800895
0.862632001267097
-0.8413573780382753
0.1476913109203528
-0.1476913095051733
-0.1184668787297124
-0.480238375773622
0.04060699229490668
0.2703558284998607
0.0315287097378625
0.3875387670741712
0.8678074923095996
0.006139497657491902
-0.01170467179123092
0.6585998905085193
0.3414001094740595
0.7836016661337272
-0.5833972365460887
-0.7780984899561914
-0.810621939979976
-0.679831274438855
0.6798312744397805
-0.1678473324462833
-0.1552316351974189
0.6020732915852137
-0.8121815088430104
0.2101082172416023
-0.4938216287624225
-0.5689967639704905
0.2781416239599762
-0.9722222176137152
-0.9016434368077322
0.8460530770419602
-0.8125777559967511
0.8383920374695729
0.6487335238057198
0.1342103134636473
-0.7829438372597055
-0.7769168783858352
-0.1460688502036373
0.7242524231629435
-0.5781835729576454
0.03383594151612208
-0.01397184753378234
0.01788263851900844
-0.00391079192557485
-0.3547866462616779
-0.1254517316114086
0.8802149139778682
0.7467899564413243
-0.2467542388553309
-0.5000357173884467
0.6198228164780502
0.6854075504512023
-0.4705905722058493
-0.0003836245105303194
-0.2853059138150387
0.02286206571742056
0.7484302105228869
-0.7712922763162177
-0.3234886946629489
-0.07295271397355824
0.07598075975940975
-0.9613516088759333
0.1213134124422002
-0.6779711977232773
0.05191823583963738
0.6406850883514422
-0.692603324224598
-0.7563922335227873
0.07842103580974466
0.587945108090681
-0.6608978221201135
0.157258390565285
-0.3362492643581497
-0.7704564955473526
-0.006460382820794263
0.3711780786878942
0.6010487915167199
-0.025670711111021
0.02136717833585994
-0.02136717763043507
-0.01928255220793835
-0.04916102419803047
-0.2276093906251881
0.02632557217148144
-0.02018604654976841
-0.7314054834142381
0.279262762734373
0.6805848889552919
-0.6891401273919875
0.008555238278148377
-0.5952637089888048
0.6471819473568931
0.6532324270762496
-0.06528731813011
-0.6312788375366185
-0.1251133938513144
-1.050531803001142
0.0110460313628983
0.1366452753871637
-0.7085434164616912
-0.7411435790297839
-0.7631940694836222
0.3656044301955135
-0.4112996030976949
0.4635018571193461
-0.0522022539758653
-0.6673824497898386
-0.04116096674777757
0.5019000721784082
0.7306823080747785
-0.2342412301698386
0.1134764011760219
0.9678119892568295
0.4463515257143622
0.1340015505060239
-0.5803530761805342
-0.6776219556373841
0.01023950354789528
-0.0447276929086392
0.0307558651632368
0.6363641872025094
-0.7752567440591798
-0.001809758216782756
0.001809758693065734
-0.601202569425466
0.6483415680827865
-0.04713899867102257
-0.6432842195568317
-0.1130696101788788
-0.6715070613712838
0.05666773457923093
0.6032202340038794
-0.1371625545075834
-0.817575912862634
-0.5632047196183736
0.5655867540095677
-0.002382035035547754
0.6314744941612832
-0.6229192546168969
0.3224361897512673
0.2141281322735458
-0.5365643220170171
-0.1047793916608588
-0.6016555306139183
-0.0909477935995926
-0.1548510455779853
-0.506536976361604
0.4040877827088207
-0.4989517754727189
0.1269151811284686
0.678290170475337
-0.8052053516068196
0.5992268431639143
-0.3675666955991374
-0.04373289826432702
0.08292014824486353
-0.589457123354188
0.5517414096843661
-0.04059405006638109
-0.5111473594649668
-0.3126438377148856
0.3051767385851886
0.007467098188585215
0.4546679605878324
0.1196394245193534
0.05157689489511502
-0.3161432415496552
0.1570690678208104
0.1590741735512558
0.2280501131233384
-0.008400131735281511
-0.2935632830504427
-0.310970256926552
0.357168686104574
-0.046198431437835
0.787186037663405
-0.6261747457341837
-0.01710947370104766
0.4992459099457373
0.2809478503033171
-0.5277020857310254
0.5775073564160117
-0.5775073564168163
-0.2897369874337594
-0.5864427836772153
-0.2955812035532335
-0.5864427834775675
-0.5944323489213296
-0.8385123218950805
0.1700003034340978
-0.5855677584216878
0.8211114345175632
-0.003321417620986688
0.1183490427936611
0.4826997475812848
0.09673357191695053
0.1857480717036036
-0.03644085142681817
-0.1493072209808106
-0.01998099644392872
0.5936713479394631
-0.9460504675286326
0.428665189333973
-0.003993139754185286
0.003457236104476652
0.0005359036733663166
-0.6434708918536078
-0.1317170240719139
-0.467933819528406
0.6019353682008681
-0.5036810737550121
-0.3269256189946158
-0.2625315165013288
-0.2710655319388789
-0.1118335874193887
0.1118335868516878
0.1525159410208222
0.05927063497188276
0.1967940995133923
0.455101729117312
-0.5730170053013484
0.105083190634607
0.2429686317971463
0.4663666590296918
0.5336333404422577
0.6414388779765907
0.08770062424287968
-0.006192827227366278
-0.08150779715820762
-0.2769330811393078
-0.5406428317137333
-0.5516364493805253
0.1143679713379836
-0.1262933064510069
0.0119253347338146
-0.1056448427971241
-0.385796660641376
-0.04617517276980598
0.649395392796928
-0.4987061737990464
-0.1447647180740842
-0.338188319851831
0.2914807483221593
0.1246879820791419
-0.6117058229768018
-0.2042881716921816
-0.2621778361909152
0.002589542930864388
-0.4222411246371108
0.3233544995869386
0.09888662487174263
-0.09517067194213065
0.2916570493926244
-0.8959374811159508
-0.45785176496973
0.6294143999374834
-0.7730504596449307
0.6682710679478826
0.3413879206659505
-0.124783834419241
0.2247187231515555
-0.09993488812005215
0.02426269741896234
-0.5862945378738822
0.02915015286161988
0.5571443851972978
-0.9006826078822285
0.5472672030751489
-0.6657340818000883
-0.09999738619431796
0.1096868289922075
-0.1096868269226844
-0.316526861235929
0.3624518648980969
0.01426252838991503
0.03126828210261286
0.05643236589979883
0.505276034187876
0.6620341414494336
-0.7383946539019853
0.03261236984904266
0.02301168422668043
-0.001644491916149032
-0.007242474759216059
0.00724247408342483
-0.4166681723947657
0.5363076002587731
0.01542031446264792
-0.01542031455053744
-0.7922890164065233
-0.06101356296064897
0.1228017615886801
-0.4569457585021423
0.5620289527309553
0.4519009328857191
-0.499039933022538
0.1500337191398393
-0.1500337179962199
0.0323295539364814
-0.001961384678546249
-0.04216824564181356
-0.9760850546600668
0.5391917742736689
-0.468870419477754
0.04207953678393584
0.514621552516874
0.03102520768478426
-0.5456467600592326
-0.6161480826767822
0.1174419087141969
-0.3294153115541006
0.013443297862115
0.315972014420898
-0.155105486320481
-0.07913572910244826
-0.5408787824620561
-0.04541575815738511
0.1366452743399971
-0.04020261012828244
0.03839285657348653
0.08083152382652166
-0.08083152604635631
-0.5344635703398062
0.4882651470462238
-0.4145867529575043
0.1613327506272675
0.6222689154732222
-0.09765332585276716
-0.00348454601581438
0.003484545689721153
0.5329430616580061
-0.07944502186666551
0.005819101602490767
0.02695844541951953
0.03483705070494735
0.684562605763591
-0.7640076275655073
-0.6536770984290604
0.6365676240258827
-0.1064185710767346
0.3132337776568694
0.7460649501870905
-0.01928255358241823
-0.2669337389438744
0.1502250875933527
-0.7446402777685097
0.4842512737749468
-0.4255808473689643
-0.101526532026404
0.003460335468521377
-0.01429750056594256
0.02013272282241629
0.4109448488599575
-0.1215861983215332
-0.389561159636811
0.6287944657479331
0.01951789386210283
0.01060184598818141
-0.01060184591173845
-0.3533041799225708
-0.07936184163473858
-0.5604642558226901
0.5571428383164272
-0.2380456292073478
0.4647665659678329
-0.1511795030682075
0.7295449251707957
0.6720923864119552
-0.04020261036591301
-0.6164753125694462
0.5630119500636195
0.2887877541830185
-0.2857144263769419
-0.00307332841484913
0.5413969500678317
0.09338849327311934
-0.03903611700708343
0.1964020181607916
-0.1573659015000724
0.1198676404256899
-0.1198676425380402
-0.8587337525886992
0.002342413040262004
-0.113455971367055
0.1404144177264744
-0.131819045623455
0.1318190448111017
0.02301167925176159
-0.02276708573438658
0.6702517776316256
0.05951694846627054
-0.3229106075917784
-0.06288605321511112
-0.4712232560293781
-0.04940056591993987
-0.1515107620025749
0.1515107608300095
-0.04917824282533022
0.1434252687577695
-0.1434252677495706
0.1363715356944028
-0.1363715373092641
-0.3158092235980999
-0.1146724807334587
0.2263544721055917
0.1030205225853451
0.03484024220711952
-0.8211186878493978
-0.1981761112712842
0.1701641567664038
0.0210927589093643
-0.2649827405490323
0.1259240067534457
-0.125924005869595
-0.4141381965834703
-0.08481358122720928
0.2362254903324082
0.00242379736858378
0.04062891010950501
-0.5434559156501927
0.5782924055228066
-0.03139828931112904
-0.0177799541853021
-0.02797304780998941
0.0260116778628953
0.006608468876629555
-0.1845013095944027
0.1778928407412459
-0.1085560926772465
-0.2276931709366513
-0.1446372222708117
0.1446372212191241
0.07279390359599261
-0.07279390410485773
-0.01928708229961985
-0.1086158713229126
0.12790295422283
0.2407865730001811
-0.1830276253852592
-0.02870159185245452
0.02705710554312717
-0.1372222969892546
0.6254874420573306
-0.03903968235425553
0.4248066513385727
-0.0432150869386176
0.06377619009868003
-0.1532283488639888
0.1532283474437506
-0.6365839325202303
0.3086119784927279
-0.07937577002097687
-0.2344384887677862
0.003563590959780871
-0.1211588642035022
0.1617877736293893
0.1956775565627388
0.09657512225592722
0.09665572321823229
-0.06181867252900233
0.07276962517756212
0.04159834589683665
0.06397208104798673
0.1061920727683772
-0.09668357632971707
0.2101599546872786
0.01241159812770474
-0.1168696262730262
-0.1002457477963845
0.09719810415399831
0.003047644783505616
0.01240983664813571
-0.02369719019032526
0.037712409438731
-0.03771240951667151
0.07524315445678698
-0.05497205667609728
0.05497205642413835
-0.2244965676001293
-0.05309343621474238
0.01149761905688082
-0.1030608431805683
0.01650389554713894
0.1084957441386029
-0.1084957435655679
0.2945641848866093
-0.2713585647879899
0.1628024775505753
-0.05098502137766389
-0.2203735425710785
-0.01734450028889448
0.01734450061129595
0.3674779207195709
0.2852318445033655
-0.5277371283936275
-0.09398076627867287
-0.03231254217900551
0.528810677161579
0.2128135390685367
-0.1703586177001301
-0.3800477139226842
0.07647115673865118
-0.1475919837984055
0.1871286293782198
-0.03953664588039584
-0.06689738043100965
0.0668973808208901
0.8225361069267146
-0.5606031723229415
-0.005829224082636553
0.01823906048520286
-0.01998545902170131
-0.2869486545100454
-0.0175012559526071
-0.01281818155505283
-0.1319360243977798
-0.5721171042518941
0.5560368361410514
-0.5694377985290738
-0.006873540134787133
0.1028954351788437
-0.001717585711196099
0.01685680994040246
-0.1675774436026623
-0.3363932065080378
0.2333323634618316
-0.05436856624957484
0.0350814852739616
0.1318165975537156
0.1733601418131795
0.3381382007843951
0.2763875524791503
-0.2781051376840231
-0.06185288995420448
-0.1551320579027463
-0.2209951857204295
0.07473647732264736
-0.01076439833064945
0.2138686045058822
-0.1970117941737737
-0.08629532593764787
0.1590649459356045
-0.3553096630444987
0.2083509245566667
-0.1918470290100047
0.08957825359141915
-0.4791394158230166
0.1743104440608966
0.1701869000777076
-0.2564822168007741
0.072958539436704
-0.1945354687139884
0.1770342124210002
0.01742826689828285
0.1416366809231038
-0.03955175273447282
0.06594121282975114
0.4670018484568207
0.02036791059391091
-0.08055927112978785
0.05436011062529664
0.1261169219091113
-0.2605318318964703
-0.2308858759455968
0.559732226770322
0.1575113195551464
0.07871416919278434
0.07517392386793766
-0.03092803085851533
-0.01168895192272053
0.008615621136712078
-0.03276481523117748
0.1710005099515226
-0.1778740496991107
-0.06042654603270584
0.0212278817337446
-0.1469648060489624
-0.0528987760867672
0.1497334235198102
0.2770663297659988
-0.03865979328413267
0.0143227244433553
-0.2556926103085621
-0.1322291701900519
0.2359264022277718
0.1787557472844533
0.129856234907686
0.02202158281381881
0.08886327511244428
0.0523130464144861
0.4529629877607027
0.01545923234155649
0.09740804269042042
0.04352920841757638
0.07186429190882394
-0.1153935013924313
-0.242505286274705
-0.2007773251576241
-0.0195962141015625
-0.2020730886488
0.2752888293879126
)
;

boundaryField
{
    FrontBack
    {
        type            empty;
    }
    Top
    {
        type            calculated;
        value           uniform 0;
    }
    In
    {
        type            calculated;
        value           uniform -1;
    }
    Bottom
    {
        type            calculated;
        value           uniform 0;
    }
    Out
    {
        type            calculated;
        value           nonuniform List<scalar> 10(1.033772303142243 1.064197371549417 1.021983262730374 1.019578721674049 0.9957437313541062 1.016406179013858 1.036232305599758 1.062818392747146 0.8672443397221749 0.8820239872104485);
    }
    circle
    {
        type            calculated;
        value           uniform 0;
    }
}


// ************************************************************************* //
