/*--------------------------------*- C++ -*----------------------------------*\
| =========                 |                                                 |
| \\      /  F ield         | OpenFOAM: The Open Source CFD Toolbox           |
|  \\    /   O peration     | Version:  2412                                  |
|   \\  /    A nd           | Website:  www.openfoam.com                      |
|    \\/     M anipulation  |                                                 |
\*---------------------------------------------------------------------------*/
FoamFile
{
    version     2.0;
    format      ascii;
    arch        "LSB;label=32;scalar=64";
    class       volScalarField;
    location    "5";
    object      p;
}
// * * * * * * * * * * * * * * * * * * * * * * * * * * * * * * * * * * * * * //

dimensions      [0 2 -2 0 0 0 0];

internalField   nonuniform List<scalar> 
808
(
0.102911
0.0176964
0.0346756
0.102567
-0.256455
0.023135
0.0281115
0.0286221
-0.153974
-0.0381408
0.0505978
-0.172768
0.0256471
0.0194331
-0.387622
0.0203943
-0.409485
0.0188307
0.0341417
0.00322194
0.052221
0.340946
0.0514038
-0.00509729
0.423245
-0.187086
-0.0782501
0.0183443
0.0184215
0.0302017
0.0152003
0.0111704
0.0132417
0.0233129
-0.101978
0.591422
0.00615557
0.0312257
0.0466431
0.0139274
-0.0654462
-0.0720143
0.0308961
0.0349775
-0.146182
0.0703422
0.0333007
-0.0160706
0.0346896
-0.193062
0.0286309
0.01163
0.0407128
0.0127334
-0.116705
0.029634
0.0131958
0.0455288
-0.0372576
0.0231005
-0.224589
-0.0178677
0.0384392
-0.200008
0.0405109
0.0363184
-0.303418
0.0212548
0.0453282
-0.306472
0.0391817
-0.34089
0.0418923
0.0308506
0.159732
0.0298292
-0.0135987
-0.114248
0.0251645
0.277201
-0.124085
0.0189034
0.0271686
0.247786
0.0347544
-0.0241916
-0.384896
-0.140831
0.020295
-0.240046
0.0344032
-0.119271
0.215969
0.1375
0.0298282
-0.302113
0.0149175
-0.0962411
-0.126964
-0.270152
0.0282506
0.00844177
0.0288368
-0.0158901
-0.0969155
0.0407963
-0.152767
0.0102434
0.0271054
0.00385517
-0.048473
0.292998
0.0419118
0.0535221
0.0229888
0.422848
0.018237
-0.291626
0.0293895
0.0524242
-0.174347
0.0223632
0.0253805
0.0494763
0.0820934
-0.0842433
0.0848354
0.0567431
0.0173017
0.0468206
-0.345449
0.0329754
-0.0514014
0.0999424
0.029783
0.0150508
0.0453003
0.00410175
0.0392911
0.0078756
-0.388605
0.0427797
0.0347151
0.0402572
-0.0641861
0.061063
0.0805671
0.140667
0.0436143
0.00997427
0.0281571
0.310134
-0.00114344
0.501709
-0.362744
-0.132558
0.0234379
-0.22489
0.0388791
-0.144042
-0.332749
-0.374218
-0.325969
0.00676324
0.0462715
0.0315654
0.002828
-0.343988
0.0391072
0.0387994
0.0287846
0.144569
0.0580174
0.0982884
0.02388
0.0627329
0.0542612
-0.176326
0.0320315
-0.370477
0.0342902
-0.18446
0.00688122
0.242121
-0.367324
0.100488
0.0111741
-0.164047
0.0386616
-0.119048
-0.380289
-0.0661048
0.0269355
0.061056
0.00333465
-0.37779
0.0247973
0.027035
0.00895137
0.0632945
0.0656943
0.0292561
0.0271837
-0.342085
0.336898
-0.338165
-0.332595
0.017012
0.0309742
0.0364423
0.0131546
-0.420751
-0.345258
0.0232432
0.00943836
0.0291495
-0.349323
-0.0795024
0.0054844
0.0367025
0.00982449
-0.129371
0.0287843
0.0264065
0.00918874
0.0253693
0.109373
-0.362032
0.0335508
0.0176037
0.0905923
0.0243498
0.0225469
0.0208964
-0.0942163
0.0270708
0.0231551
0.00276654
0.00176062
0.01915
0.00515004
0.00404212
0.00329412
0.0157415
-0.00212111
0.00278775
-0.000796072
0.00283991
0.00199853
0.050505
-0.338795
-0.00109982
0.00568773
-0.0924189
0.00930225
0.0312124
0.0264203
0.00210128
0.0254698
0.110536
0.0289527
0.012044
0.0150536
0.0934216
0.0283181
0.0211063
0.0203575
0.0510709
0.0189686
0.0427507
0.0241387
-0.420534
0.245046
0.0166091
0.00713945
0.0225795
0.0115133
0.0247736
-0.243674
0.249726
0.0237281
0.0298022
0.0259327
0.0780081
-0.0549881
0.021979
0.0511886
0.0850353
0.0240722
0.0464817
0.0263464
0.0254989
0.0179577
0.0217261
0.0342556
0.0259011
0.0314622
0.0466342
0.0267011
0.0315641
0.0128517
0.0215566
0.0228756
0.020503
-0.52438
-0.106848
0.0338681
0.117679
-0.199728
-0.301473
0.0202208
0.0197057
-0.346848
0.107089
0.133436
0.0171773
0.028649
0.0337646
0.0131378
-0.243771
0.0366891
-0.00212738
0.0312382
0.023072
0.0182172
0.0314431
0.0408254
0.0147021
0.0219618
-0.326519
0.113085
0.0261079
0.0933521
0.0912213
0.00238197
0.208076
0.0217886
-0.180281
0.514867
0.0539716
0.00791485
0.0262722
-0.0191843
-0.0777636
0.0416828
0.0365487
0.0327107
0.0445558
-0.0282844
-0.313185
0.0435383
0.0761807
-0.0159831
-0.321632
-0.333902
-0.393247
-0.342505
0.052339
0.0427657
0.0436627
0.044077
0.0012246
0.0180076
0.0428247
0.00344073
-0.519169
0.0537816
0.0472409
0.0168746
-0.205114
0.0660112
0.00625968
0.0973216
-0.366037
0.0473015
0.0125013
0.0452424
0.0695097
-0.322417
0.0470365
-0.374502
0.0412716
0.0857532
0.0206704
0.0263077
0.0403051
0.0861084
-0.359332
0.0174654
0.0346425
0.104545
0.0470709
0.0201857
0.0467896
0.0248787
0.0317547
0.0879796
0.0161111
0.039775
0.0195207
-0.280191
0.0750099
0.0320584
-0.0327812
-0.0512237
0.011224
0.394782
-0.0893529
0.00724281
0.0905369
0.0437368
0.0368899
0.0241715
0.0834599
-0.0061153
0.0789336
-0.0434272
0.0221179
0.00625131
0.00105148
0.00175
0.00426875
0.022274
0.0929645
0.122111
0.0134096
0.0167177
-0.00924053
-0.00845088
0.013066
-0.394052
0.0991839
0.0474751
0.0139675
0.0903293
-0.350911
0.00479145
-0.109732
0.0190465
0.0368162
-0.0905082
-0.261092
0.191251
-0.33265
-0.470438
-0.0951835
0.0897613
0.00616716
-0.341924
0.322694
0.0110422
-0.35761
0.0107547
0.0569573
0.539154
0.008778
-0.00558559
0.016555
0.0279454
-0.000410942
-0.199735
-0.406217
0.0555966
0.050419
0.0666113
-0.281096
-0.328565
-0.288471
0.0282671
0.0521922
0.0727318
-0.0137724
0.0246923
0.0644852
0.080892
0.0493766
-0.182175
-0.363564
0.0556143
-0.00935009
0.0420838
-0.00303947
0.0619672
-0.0614645
0.017441
-0.484002
0.421266
-0.25574
-0.340726
-0.0121265
0.0172105
-0.349974
-0.329127
0.103047
-0.352741
-0.0771527
0.828365
0.0131622
-0.374689
0.0256586
0.00230629
0.0435374
-0.469848
-0.392359
-0.325309
0.00501985
-0.16105
-0.379186
-0.015864
-0.0147942
0.0657163
-0.33372
0.00798649
-0.517741
-0.388037
-0.450532
0.0940151
0.0124848
0.0345589
0.0801994
0.105781
7.18423e-05
-0.31465
0.279068
0.0723903
0.00774083
-0.458045
-0.514755
-0.348695
0.0529445
-0.36777
0.0748133
0.0865921
0.0720303
-0.188108
-0.250634
0.022069
-0.323224
-0.383681
0.0145471
0.00183604
-0.151887
-0.00994076
0.012239
-0.399557
-0.370429
-0.103476
0.0684209
0.0464099
-0.347991
-0.360795
-0.316234
-0.0131623
0.0251757
0.0749704
0.00853693
-0.358883
-0.358542
0.0715067
0.0401819
-0.0247782
0.0299086
0.0468087
-0.393644
0.0255461
-0.286716
0.0431991
-0.366616
0.0661534
0.00423489
-0.428981
-0.522516
0.00993083
-0.486114
-0.479085
0.0370565
-0.113667
-0.340707
0.00439206
-0.314365
0.028589
0.050903
0.0424317
-0.288588
0.0621126
0.074743
-0.507299
0.0169804
-0.37741
0.0314806
-0.328942
-0.573774
0.0776328
0.23914
0.416659
0.00975215
0.00464934
0.00695166
-0.360263
0.612546
0.0103635
-0.268329
0.0284857
-0.0891811
0.0621792
0.454585
-0.434171
-0.0301326
-0.0500623
0.0297572
0.0218036
-0.519852
-0.312502
-0.389041
-0.435836
-0.2933
0.00458307
-0.373543
0.0689635
-0.319972
-0.360627
0.480227
0.558889
-0.439545
0.085944
-0.339264
-0.0186972
0.0356866
0.374447
0.0385242
-0.341915
0.105379
-0.56926
-0.0324612
-0.239347
-0.0577086
-0.369986
-0.341189
0.00691872
0.0109161
-0.338147
0.416755
0.645476
-0.353861
-0.370151
-0.357718
-0.0575945
-0.365579
-0.351887
-0.225085
-0.338812
0.723248
-0.396359
0.710471
-0.433173
0.304162
-0.330208
-0.0037156
0.143421
-0.564101
0.196252
-0.343569
-0.366392
-0.393086
0.838495
-0.333146
0.184521
0.125331
0.610501
0.0988526
-0.493042
-0.368137
-0.152653
0.0169577
0.0492892
0.490223
0.0186804
-0.0359676
-0.354139
0.0817483
-0.147342
-0.300996
0.0247948
-0.4581
-0.178638
-0.199349
-0.389789
0.00216926
0.0858777
0.0284333
0.0558078
0.0892347
-0.391268
-0.406476
0.0335869
9.352e-05
-0.520973
-0.573312
0.14146
0.164956
0.0741267
0.639016
-0.104933
-0.273509
-0.432522
-0.354789
-0.0846867
0.0480683
0.732415
-0.509772
0.344421
0.0188563
-0.492724
0.125182
-0.115891
0.355819
-0.19749
0.00925218
-0.350754
-0.101585
0.166606
0.780013
0.30794
0.729193
-0.402168
-0.361005
-0.438338
0.132996
0.237181
0.0532064
0.348619
0.109638
0.47058
0.240932
0.0513737
-0.212372
-0.0010023
-0.362876
0.850488
0.383499
0.619255
0.482825
-0.31071
-0.378122
-0.349377
-0.330488
0.0292836
-0.424365
0.0758923
0.56831
-0.394329
0.0160187
-0.321491
0.160163
-0.381978
-0.428793
-0.147289
-0.35346
-0.41599
-0.383277
-0.359329
-0.117758
-0.439915
-0.156384
-0.239793
0.120098
0.62232
-0.266588
-0.337218
0.795996
-0.335977
0.259983
-0.27803
0.358779
0.0704895
-0.386568
-0.456625
0.413227
-0.297775
-0.369391
0.161839
-0.319748
0.00113314
-0.3584
-0.159559
0.031196
0.538827
0.747761
-0.359646
0.202775
-0.327373
0.789772
0.0152698
-0.362928
0.00388526
0.730696
0.182439
-0.371097
-0.358779
0.425485
-0.250938
0.00460931
0.320046
0.227568
0.27204
-0.296888
-0.40925
0.65617
)
;

boundaryField
{
    FrontBack
    {
        type            empty;
    }
    Top
    {
        type            zeroGradient;
    }
    In
    {
        type            zeroGradient;
    }
    Bottom
    {
        type            zeroGradient;
    }
    Out
    {
        type            fixedValue;
        value           uniform 0;
    }
    circle
    {
        type            zeroGradient;
    }
}


// ************************************************************************* //
