/*--------------------------------*- C++ -*----------------------------------*\
| =========                 |                                                 |
| \\      /  F ield         | OpenFOAM: The Open Source CFD Toolbox           |
|  \\    /   O peration     | Version:  2412                                  |
|   \\  /    A nd           | Website:  www.openfoam.com                      |
|    \\/     M anipulation  |                                                 |
\*---------------------------------------------------------------------------*/
FoamFile
{
    version     2.0;
    format      ascii;
    arch        "LSB;label=32;scalar=64";
    class       surfaceScalarField;
    location    "5";
    object      phi;
}
// * * * * * * * * * * * * * * * * * * * * * * * * * * * * * * * * * * * * * //

dimensions      [0 3 -1 0 0 0 0];

oriented        oriented;

internalField   nonuniform List<scalar> 
1171
(
-0.944381
0.944381
0.803664
-1.06746
0.263794
-0.197075
-0.694591
0.891667
0.0556186
-0.0740792
-0.272661
0.34674
-0.803664
0.0547018
0.748963
0.848196
-0.174498
-0.673697
0.832643
-1.00515
0.172505
-0.353219
-0.0478111
0.40103
-0.0220203
0.613964
-0.591944
-0.503675
0.837344
-0.333669
-0.427299
1.00213
-0.169491
0.319259
0.0736491
-0.392908
1.00175
0.000386398
0.36457
-0.0453109
1.00816
-0.00641551
0.606818
-0.803893
-0.770035
0.576649
0.193386
0.215194
-0.718869
0.564113
-0.917594
0.353481
-1.09422
0.66833
0.42589
-0.641344
0.619324
0.0288073
-0.251141
0.222334
-0.00835246
-0.642063
0.650416
0.461541
-0.509352
-0.861625
0.896486
-0.0348616
1.01997
-0.0118035
0.895944
-1.08732
0.191375
1.01894
0.00103148
-0.710427
-0.0596079
1.24276
-0.827843
-0.414921
0.157311
-0.101088
-0.399225
0.500313
-0.272264
0.18432
0.0879442
-0.585538
-0.48192
0.982968
-0.0870241
0.00769488
0.813345
-0.821039
0.555611
0.687153
0.512876
0.00814849
0.453393
-0.787792
-0.107091
0.894883
0.510108
0.257884
-0.767992
-0.0313469
0.651593
-0.620246
-0.512064
-0.582156
-0.390338
-0.696981
0.0179971
0.25425
-0.272247
-0.938156
0.0143993
0.923756
0.371526
0.0295047
0.782203
0.0659931
-0.58583
-0.0555138
0.0359695
-0.823761
0.0930529
0.878659
-0.971712
-0.399573
0.00753654
0.392036
-0.695743
-0.242412
-0.64463
0.737683
0.628272
0.209072
-0.583795
0.995649
-0.78892
-0.20673
-0.0624987
-0.0676651
0.130164
-0.4573
-0.0520523
-0.249587
0.877859
0.0114586
0.421754
-0.433213
-0.491039
1.00115
0.702263
-0.809354
0.396151
-0.0655697
-0.330581
0.941924
-0.941924
-0.824708
0.0459077
-0.318569
-0.753256
0.760951
-0.0407326
-0.147586
0.188319
0.836665
-0.0233204
1.00185
-0.743967
0.221504
-0.319833
0.098329
0.877183
-0.0949801
-0.671537
-0.0633044
0.734841
0.147895
-0.233205
0.0853099
0.764195
-0.938693
-0.442288
0.312019
0.130269
0.633836
-0.642189
0.985762
-0.414683
-0.57108
0.595424
-0.698135
0.0374938
0.660641
0.109191
0.664115
0.0514361
-0.715551
0.14167
-0.0957623
-0.51537
0.115797
0.0103226
-0.882689
0.872367
-0.568414
-0.736073
0.0256457
0.499451
-0.0460582
0.267706
-0.843125
0.575419
0.428997
0.571003
0.584662
-0.548692
-0.40761
0.00322755
0.404382
0.718778
0.223146
-0.654508
0.623161
0.100226
0.818897
-0.00891558
-0.662621
-0.752793
0.763115
0.600811
0.0926687
0.35452
-0.447189
-0.155431
0.51508
0.136512
0.929398
-0.852325
-0.0770726
0.682925
0.312724
-0.439303
0.666616
-0.573947
0.413481
0.150632
-0.0128181
-0.57835
-0.16283
0.74118
-0.155125
-0.786799
-0.607329
0.362645
0.244684
0.655443
-0.664358
0.306008
0.957655
0.0441958
-0.752793
-0.0511647
-0.011334
0.702263
0.751675
-0.751675
0.857044
-0.835844
-0.0211993
-0.453059
0.882057
-0.189211
-0.326159
0.756385
-0.664987
-0.0913987
-0.750063
0.171714
0.115822
-0.701652
0.809354
-0.964784
-0.22513
0.214088
0.0110416
0.144154
-0.966899
0.822745
0.550427
-0.0375503
-0.289623
0.604867
-0.315244
-0.773109
0.917263
-0.133477
0.665092
-0.767029
0.101937
0.966695
-0.55602
-0.410675
0.738857
-0.085972
-0.0320798
0.0365895
-0.00450969
-0.791587
-0.774084
0.0794926
-0.753256
0.573079
-0.565542
0.101252
0.640949
-0.742201
0.773992
0.170389
0.500014
0.499986
-0.123566
-0.607112
0.730677
0.937992
-0.00859425
-0.738857
0.763115
0.180599
-0.431741
-0.0289751
-0.00309022
0.0320654
0.679655
-0.457169
-0.222486
0.748963
0.0301698
-0.108992
0.540485
0.13917
-0.018268
0.00170823
0.0165597
-0.000172486
-0.0319073
0.160322
-0.225891
-0.885152
-0.00924371
-0.122037
-0.0648084
0.102717
0.751559
0.727878
-0.156875
0.731201
-0.629948
-0.170024
0.391528
0.728913
0.0200498
0.225163
-1.06101
-0.964784
0.325467
0.760951
-0.167686
0.0201
-0.742316
0.938794
-0.196478
0.486587
-0.094551
0.786395
0.301865
0.300068
0.0645019
-0.672302
0.672302
0.24556
0.649322
-0.0413063
0.463061
0.459006
0.0356002
-0.0645753
0.522511
0.0279157
-0.773109
0.566423
0.189962
0.0392671
-0.00267764
-0.728913
0.182404
0.75639
0.00476188
-0.785706
0.780944
0.749689
-0.808247
0.0585587
-0.773992
-0.0409242
0.0560556
-0.0151314
0.0824064
-0.137434
-0.111611
0.249045
-0.0122461
-0.00602181
0.705321
-0.700559
0.814701
0.0769659
-0.305686
-0.489129
0.794815
-0.000371023
0.000371023
0.217316
0.47126
0.614818
-1.08608
-0.189871
-0.534287
0.724158
-0.0177744
0.206093
0.383664
-0.235769
0.989742
-0.518482
0.681381
1.02629
-0.411472
0.194453
0.917263
0.747772
0.225509
0.670977
-0.786799
0.327698
-0.0507789
0.0281983
0.0225806
0.80281
-0.00866315
-0.794146
-0.741356
0.742387
0.546941
-0.741356
-0.747772
0.742387
-0.0206714
0.831052
-0.0163517
-0.718778
0.656799
0.0619783
0.522993
0.581175
-1.10417
0.468879
0.520862
0.559394
0.454622
-1.01402
0.510474
0.515816
0.656799
-0.506624
-0.449743
-0.591108
-0.51139
-0.12608
-0.00708931
0.00708931
0.516952
0.519415
-1.0308
0.682588
-0.328067
-0.902738
0.346718
-0.673553
0.431141
-0.000536832
-0.835045
0.835581
0.438255
-0.0338027
0.836612
-0.950316
-0.86465
0.0641294
0.80052
0.594594
-0.421877
-0.172717
0.671893
-0.758917
0.89508
-0.835889
-0.059191
-0.0154745
-0.836851
-0.123458
0.726652
-0.603194
-0.874899
0.859425
-0.784608
0.747023
0.0375855
-0.863019
0.0401182
0.822901
0.00458413
-0.00495515
0.418338
0.0552367
-0.869638
0.814401
-0.730392
0.606826
0.925243
0.0767337
-1.00198
0.0605929
-0.0356188
0.440001
-0.359815
0.0399822
0.862269
-0.862805
-0.786053
-0.855788
0.0189372
-0.0920313
-0.854675
0.0187861
0.682671
0.0485301
0.026211
0.568383
-0.810122
0.85024
0.57108
-0.868847
-0.798165
0.0328872
-0.040462
0.834896
-0.794434
-0.0190934
-0.826515
0.580932
0.168757
-0.0247741
0.861386
0.923554
0.881441
-0.862655
0.0480786
-0.0480786
-0.101704
-0.46207
0.0401924
0.332987
-0.00751951
0.330238
0.842293
0.000505174
-0.0127513
0.660166
0.339834
0.801879
-0.585538
-0.723917
-0.803097
-0.707526
0.707526
-0.204503
-0.114066
0.629021
-0.857765
0.228744
-0.46093
-0.563416
0.284434
-0.981415
-0.864415
0.805224
-0.828118
0.847055
0.671939
0.151256
-0.823195
-0.765511
-0.163069
0.805884
-0.642814
0.0221221
-0.00590138
0.00693216
-0.00103078
-0.272689
-0.189381
0.913455
0.702528
-0.322716
-0.379813
0.529811
0.722524
-0.476964
0.0121199
-0.284384
0.0261051
0.712021
-0.738126
-0.309476
-0.107231
0.11591
-0.915523
0.121376
-0.706509
0.101426
0.669944
-0.77137
-0.790079
0.0835698
0.656398
-0.763629
0.233607
-0.371041
-0.759942
-0.00556982
0.369993
0.674821
-0.00820499
0.00605187
-0.00605187
-0.00538108
0.00224654
-0.0530255
-0.0273491
0.0278543
-0.711412
0.302378
0.715517
-0.735937
0.0204206
-0.590668
0.692094
0.742772
-0.0863743
-0.651385
-0.138694
-1.05204
0.0204788
0.0275998
-0.685306
-0.774843
-0.794052
0.379131
-0.252859
0.354354
-0.101495
-0.649562
-0.0357446
0.52652
0.715784
-0.0557171
-0.00909126
0.921093
0.454161
0.202665
-0.656827
-0.629473
-0.0200892
-0.016424
0.0105226
0.656302
-0.819132
0.00654728
-0.00654728
-0.66017
0.655762
0.00440817
-0.603262
-0.122159
-0.6749
0.141568
0.589109
-0.0586986
-0.837969
-0.411268
0.403589
0.00767862
0.642289
-0.621868
0.360829
0.241403
-0.602232
-0.118541
-0.639184
-0.132186
-0.206009
-0.2697
0.467973
-0.520026
0.16337
0.698656
-0.862026
0.595424
-0.257272
0.00441309
0.112906
-0.382606
0.595387
-0.0852417
-0.510145
-0.285145
0.304003
-0.0188575
0.507169
0.175419
0.103588
-0.30814
0.168501
0.139639
0.0256277
-0.0767924
-0.276333
-0.138534
0.265011
-0.126477
0.802758
-0.533543
-0.0697184
0.559716
0.252328
-0.575043
0.619113
-0.619113
-0.255214
-0.611698
-0.260182
-0.611698
-0.622846
-0.839821
0.174834
-0.493351
0.778758
0.029845
0.140989
0.533832
0.116724
0.122063
0.00686097
-0.128924
-0.0897617
0.600572
-0.906974
0.417845
-0.0212774
0.100644
-0.0793662
-0.729189
-0.173049
-0.470671
0.673336
-0.520817
-0.0817896
-0.300816
-0.338101
-0.0814396
0.0814396
0.0535266
0.00252901
0.142541
0.277562
-0.648157
0.177486
0.00692095
0.475078
0.524922
0.710414
0.053283
0.0177339
-0.0710169
-0.284127
-0.553842
-0.522932
0.113248
-0.118074
0.0048264
-0.102217
-0.411401
-0.119746
0.708856
-0.560507
-0.168682
-0.149455
0.0748673
0.137986
-0.665693
-0.197642
-0.203505
-0.0223862
-0.497708
0.429244
0.0684632
-0.0765803
0.292483
-0.874639
-0.522166
0.619094
-0.801373
0.682832
0.427442
-0.0383106
0.0683989
-0.0300884
0.0702259
-0.634261
0.023318
0.610943
-0.890618
0.626166
-0.72787
-0.10175
0.00864073
-0.00864073
-0.29602
0.422626
0.0173753
0.0241077
0.0291753
0.592606
0.668233
-0.745305
0.0210175
0.00972647
-0.00367459
0.00500296
-0.00500296
-0.460238
0.635657
0.0144075
-0.0144075
-0.766047
-0.0101352
0.0147193
-0.464771
0.642257
0.497736
-0.493328
0.0702404
-0.0702404
-0.00687478
-0.0577005
0.00258809
-0.91496
0.504285
-0.561733
-0.00495515
0.575961
0.0220294
-0.597991
-0.696612
0.136105
-0.316553
-0.0116422
0.328195
-0.0311404
-0.0245767
-0.588307
-0.0459546
0.0275998
0.00548187
0.00106541
-0.00261298
0.00261298
-0.448448
0.321971
-0.430885
0.142813
0.659066
-0.122995
0.000880283
-0.000880283
0.512572
-0.0973095
0.00901176
0.0189591
4.78086e-05
0.604215
-0.701525
-0.68932
0.619602
-0.139108
0.335513
0.747746
-0.00538108
-0.115996
0.113318
-0.723727
0.528112
-0.392847
-0.120651
-0.00737473
-0.0260164
-0.00961528
0.486922
-0.0972541
-0.412891
0.659512
0.00208635
0.00904828
-0.00904828
-0.239897
-0.170886
-0.566171
0.596016
-0.149922
0.507613
-0.154539
0.761356
0.684142
0.00548187
-0.639197
0.575149
0.0755518
-0.111996
0.0364444
0.543021
0.0958284
-0.0134318
0.0740919
-0.0606602
0.0108188
-0.0108188
-0.81863
0.0221618
-0.0467792
0.0657383
-0.0878467
0.0878467
0.00972647
-0.0045008
0.6903
0.0660897
-0.318974
-0.0924264
-0.51169
-0.0739028
-0.0694207
0.0694207
-0.0778917
0.0813879
-0.0813879
0.0293463
-0.0293463
-0.356245
-0.0830582
0.239636
0.0723825
0.0376863
-0.766805
-0.0688337
0.160399
0.0202004
-0.264101
0.0807176
-0.0807176
-0.464049
-0.055977
0.232165
-0.00983043
0.0028689
-0.627524
0.648195
0.0343555
-0.112247
0.0179379
-0.0756385
-0.0111475
-0.157088
0.168235
-0.151406
-0.219635
-0.0834724
0.0834724
0.0550532
-0.0550532
-0.0286208
-0.0948316
0.123452
0.0295564
-0.186816
-0.0199867
0.0163121
-0.247222
0.569193
-0.0263864
0.395035
0.00815948
0.00840025
-0.0542411
0.0542411
-0.704552
0.321726
-0.127272
-0.211131
-0.0220738
-0.0208652
0.0237341
0.211127
0.0379182
-0.00036432
0.000412128
0.0836309
0.0296166
0.0557371
0.104662
-0.0240884
0.0149971
0.002501
0.00376594
0.00528883
0.0141881
-0.0194769
0.000678187
0.0102458
0.0278516
-0.0278516
0.0532267
-0.0422247
0.0422247
-0.191314
0.0121662
0.0129527
-0.0769167
0.0185275
0.0766677
-0.0766677
0.27959
-0.248101
0.0966948
-0.0686912
-0.17941
-0.0157239
0.0157239
0.404294
0.256347
-0.526269
-0.0800909
-0.037983
0.547107
0.0474943
-0.0780773
-0.467175
0.0550305
-0.154015
0.172432
-0.0184176
-0.0470511
0.0470511
0.802776
-0.588642
-0.0164702
0.0171484
-0.00640706
-0.287115
-0.000670301
0.00437426
-0.0487337
-0.597615
0.567667
-0.636894
0.0140517
0.180009
0.0151796
0.0248948
-0.160422
-0.331936
0.255019
-0.0558223
0.0272015
0.167834
0.136168
0.256335
0.269274
-0.254094
0.00635424
-0.119281
-0.222774
0.0679501
-0.012213
0.166896
-0.142002
-0.06774
0.151371
-0.395491
0.129351
-0.110824
0.0639549
-0.476846
0.176807
0.176128
-0.243868
0.00988151
-0.176616
0.175945
0.00404987
0.147321
-0.0278172
0.0513357
0.461236
0.0121278
0.036602
-0.00967838
0.0397219
-0.241191
-0.201667
0.594647
0.168809
0.0633559
0.0782602
-0.0614734
0.087242
-0.0507976
-0.0301314
0.168785
-0.154733
0.0269867
-0.000158072
-0.106762
-0.0292945
0.0419838
0.260175
-0.0397328
0.0116036
-0.314186
-0.0124105
0.216111
0.145772
0.175953
0.0560725
0.0970659
0.0741203
0.518486
-0.0169759
0.104229
0.0423444
0.0658002
-0.108145
-0.269921
-0.201845
0.0224354
-0.216671
0.291751
)
;

boundaryField
{
    FrontBack
    {
        type            empty;
    }
    Top
    {
        type            calculated;
        value           uniform 0;
    }
    In
    {
        type            calculated;
        value           uniform -1;
    }
    Bottom
    {
        type            calculated;
        value           uniform 0;
    }
    Out
    {
        type            calculated;
        value           nonuniform List<scalar> 10(1.02827 1.02962 1.04085 1.03134 1.0358 1.02721 1.03637 1.02435 0.874327 0.871879);
    }
    circle
    {
        type            calculated;
        value           uniform 0;
    }
}


// ************************************************************************* //
