/*--------------------------------*- C++ -*----------------------------------*\
| =========                 |                                                 |
| \\      /  F ield         | OpenFOAM: The Open Source CFD Toolbox           |
|  \\    /   O peration     | Version:  2412                                  |
|   \\  /    A nd           | Website:  www.openfoam.com                      |
|    \\/     M anipulation  |                                                 |
\*---------------------------------------------------------------------------*/
FoamFile
{
    version     2.0;
    format      ascii;
    arch        "LSB;label=32;scalar=64";
    class       volVectorField;
    location    "5";
    object      U;
}
// * * * * * * * * * * * * * * * * * * * * * * * * * * * * * * * * * * * * * //

dimensions      [0 1 -1 0 0 0 0];

internalField   nonuniform List<vector> 
808
(
(0.886982 -0.0145601 0)
(1.01184 -0.014317 0)
(1.01682 0.00488573 0)
(1.07969 0.0219247 -2.15666e-21)
(1.46504 -0.254923 0)
(0.995543 -0.0109534 0)
(1.05034 -0.0356089 -6.09568e-21)
(1.04182 -0.0131974 0)
(1.36863 -0.205987 2.94031e-20)
(1.23206 -0.0635958 -1.06277e-20)
(1.03154 -0.0128606 9.85368e-21)
(1.39534 -0.228919 0)
(1.02878 0.007603 0)
(0.778832 0.0110078 0)
(1.19234 -0.0457341 2.55966e-20)
(1.03618 0.00801408 0)
(1.01087 -0.0248081 -8.50175e-21)
(1.0295 -0.00190404 -9.62049e-23)
(1.02423 0.0136381 0)
(1.09711 0.0483946 0)
(1.02119 -0.00950753 -1.37519e-20)
(0.920235 0.138377 9.78501e-20)
(1.09181 -0.0229244 -9.16654e-21)
(1.15845 0.0109787 0)
(0.964227 0.17565 0)
(1.35206 -0.0672647 -3.59459e-20)
(1.28391 -0.157888 1.19294e-20)
(0.995732 -0.00309224 -8.34793e-21)
(1.03467 0.00520099 0)
(1.03626 -0.000166885 -5.59017e-22)
(1.03315 -0.0164047 4.52951e-24)
(1.09936 0.0441717 0)
(1.04115 0.00519957 0)
(1.04057 0.00036245 6.77087e-21)
(1.30074 -0.0213477 9.40316e-21)
(0.740209 -0.118334 1.0459e-19)
(0.867566 -0.0130173 -4.49271e-21)
(1.04866 0.00243409 1.23184e-21)
(1.08979 0.00549531 -6.52191e-21)
(1.06801 0.00644183 0)
(1.25146 -0.0142984 -1.70202e-20)
(1.27681 -0.102019 0)
(0.986334 -0.00745563 -6.7626e-21)
(1.01829 2.66766e-05 1.15154e-20)
(1.24025 -0.213577 0)
(1.00831 -0.00715585 -1.448e-20)
(1.02529 0.00850689 2.95792e-21)
(1.27085 -0.23009 1.67796e-20)
(1.09986 0.0113356 -1.23341e-20)
(1.41402 -0.141476 -4.24773e-20)
(1.04052 -0.0390075 1.05584e-20)
(1.1315 -0.0523676 0)
(1.12213 0.0197618 6.13119e-21)
(1.04896 -0.00387315 0)
(1.33111 0.181957 7.04724e-21)
(1.08053 0.0267135 -4.48897e-21)
(1.01532 -0.00554039 0)
(1.01978 -0.00529267 4.43642e-21)
(1.22791 -0.0678903 1.14081e-20)
(1.10955 -0.0490743 -6.73816e-22)
(-0.0678461 -0.0216866 0)
(1.22566 -0.202651 -9.80162e-21)
(1.04013 -0.00732201 0)
(1.42565 -0.012866 -3.08401e-20)
(1.04496 -0.00310131 -1.24391e-20)
(1.032 -0.0309361 -5.48676e-21)
(1.41854 -0.0844616 3.34621e-20)
(0.753907 0.019766 0)
(1.04621 -0.00937157 0)
(1.45555 -0.330457 0)
(0.946706 0.0127805 -4.00395e-22)
(1.29488 -0.120262 -4.52738e-20)
(0.976433 0.0391828 0)
(1.01841 -0.00146627 -4.86811e-21)
(1.12645 -0.328742 -5.04526e-20)
(1.03145 -0.0163417 -1.54995e-20)
(1.155 0.00398806 3.44247e-22)
(1.33903 0.483512 2.62436e-20)
(1.05491 -0.0101179 0)
(1.01563 0.276451 -1.61631e-19)
(1.31049 -0.0261466 1.74919e-20)
(0.813548 0.0108189 0)
(0.971745 0.00924447 -8.27734e-21)
(0.969816 -0.108722 3.79137e-21)
(1.03672 -0.0261422 1.17761e-20)
(1.18562 0.0194508 1.0792e-21)
(1.3149 -0.219315 0)
(1.35903 0.256139 0)
(1.10223 0.0352201 -8.64557e-21)
(1.4476 -0.00942327 3.63432e-20)
(1.05337 0.0142024 1.11501e-20)
(1.31871 -0.0879714 -1.61063e-21)
(0.996358 0.0385727 1.42628e-20)
(1.01229 -0.014151 0)
(1.06349 0.00324486 1.22229e-21)
(1.41825 0.01409 -8.4821e-20)
(0.983374 -0.0106082 -2.41952e-21)
(1.24226 -0.0844032 0)
(1.33245 -0.0420223 0)
(1.42431 -0.0599605 -5.18782e-20)
(1.01869 -0.0057839 -5.49735e-21)
(1.09834 0.0205007 -6.57234e-23)
(0.926111 0.0545409 8.99111e-21)
(1.1789 -0.00947665 -4.04718e-22)
(1.26304 0.0460522 -2.21456e-20)
(1.0116 -0.00392708 9.14583e-21)
(1.34979 -0.155017 0)
(1.04004 0.00737445 0)
(1.10881 -0.0400351 9.65567e-21)
(1.21749 -0.201687 -4.51984e-21)
(1.21218 0.0215538 6.66683e-21)
(1.0577 0.0403257 -1.08219e-19)
(1.10875 -0.0044477 -3.7526e-21)
(1.02634 0.0348643 6.83276e-21)
(0.997578 0.0117458 0)
(0.909136 -0.0317618 7.05616e-20)
(1.10886 0.0732339 -3.83202e-21)
(1.45671 -0.239317 -2.04982e-20)
(1.03139 -0.00637528 -9.01503e-21)
(0.899915 0.0343799 3.42876e-21)
(-0.25876 0.0996794 0)
(0.850334 -0.0214665 2.30276e-21)
(0.751072 0.00790295 0)
(1.09066 0.00333217 -8.57366e-23)
(1.00914 0.02823 0)
(1.32123 0.292762 1.17324e-20)
(1.02654 -0.0761826 -2.54875e-20)
(1.05428 0.0606607 2.66596e-21)
(1.12498 -0.0468334 0)
(1.07471 -0.0113256 0)
(0.724128 -0.0227356 0)
(1.04103 0.00339396 -4.7266e-21)
(1.24036 -0.0138512 9.38588e-21)
(1.08615 0.1191 -2.70248e-20)
(1.00309 -0.015927 0)
(1.10297 -0.00556034 -7.73912e-22)
(1.03047 0.00238286 2.5049e-21)
(1.00716 0.000589052 -7.58444e-22)
(0.986424 -0.0133671 6.43722e-21)
(1.09279 0.0234525 5.50984e-23)
(0.0636345 0.167598 0)
(1.07555 0.012057 -1.25149e-20)
(1.04248 0.0144671 1.76905e-21)
(0.802506 0.0193387 -5.55408e-21)
(1.27696 0.122833 1.18438e-21)
(1.02473 0.0266509 3.74653e-21)
(1.04835 0.0155169 1.4756e-20)
(0.99994 0.0273113 0)
(1.06364 -0.223449 1.15897e-20)
(1.03502 0.00112289 0)
(0.972985 -0.0298248 1.13644e-20)
(0.980052 0.280413 1.29489e-19)
(0.912697 0.0596793 0)
(0.818551 0.100587 0)
(-0.159746 0.119885 -9.26044e-20)
(1.35323 0.0833709 -1.68679e-20)
(0.765105 0.00336189 0)
(1.43705 -0.0849258 0)
(1.02389 0.00199024 0)
(1.35754 0.0233094 1.78981e-20)
(-0.050996 -0.121624 0)
(-0.0624743 0.217993 4.37924e-20)
(1.09982 -0.0268712 9.48027e-20)
(0.934627 -0.0076449 7.3015e-22)
(0.842307 0.00992283 0)
(1.02269 0.0112315 1.34713e-20)
(0.847554 -0.00523698 0)
(0.854482 -0.0353389 -1.02417e-19)
(1.00685 0.0167354 2.09311e-20)
(1.03205 0.00224153 3.95823e-21)
(1.07444 0.0634474 4.43203e-21)
(1.00217 0.0623247 -1.04162e-20)
(1.00514 0.00425999 -3.72933e-21)
(1.14445 -0.33628 3.38894e-22)
(0.98804 -0.0127641 0)
(1.0396 -0.0123437 -1.1373e-20)
(0.853501 -0.0343759 -8.44699e-21)
(1.38888 -0.140447 2.44532e-21)
(0.825324 0.00488623 0)
(1.09018 -0.131125 0)
(1.01405 0.0054142 4.38742e-21)
(1.41301 0.176193 1.36293e-20)
(1.08269 0.0802507 3.30692e-21)
(1.02504 0.029513 1.73522e-20)
(1.00456 -0.113274 -8.54518e-20)
(0.80193 0.00483201 1.6176e-20)
(1.12934 -0.0392922 2.35684e-21)
(1.38312 -0.0159043 -5.40873e-21)
(1.04216 -0.0060478 -6.76111e-21)
(1.33494 0.0185677 4.63505e-21)
(-0.200638 0.116914 6.84875e-20)
(1.24531 0.0303024 0)
(0.747242 0.00517571 0)
(1.04764 -0.0344185 -4.62284e-21)
(1.10324 0.0845701 2.98371e-21)
(0.241212 0.101223 0)
(0.990207 -0.00732184 5.24436e-22)
(1.04195 -0.00479085 -3.17434e-21)
(1.07535 0.00468295 2.10341e-21)
(1.06466 0.0570801 -5.60947e-21)
(1.01019 0.0330738 2.3653e-21)
(1.03247 0.00102547 2.80011e-21)
(1.03422 -0.000912984 0)
(0.38623 -0.0312614 0)
(1.05288 -0.0607235 0)
(1.24815 0.0755562 -3.73753e-20)
(-0.0644616 -0.116292 5.34534e-20)
(1.02758 0.0108698 -2.02351e-23)
(1.04895 0.0154524 0)
(0.764497 0.019059 -1.14948e-20)
(0.998906 0.00663857 2.17491e-21)
(0.00261178 -0.0414144 -1.66698e-19)
(0.987873 0.0371897 -6.42251e-20)
(0.748907 0.00200038 0)
(1.03574 0.0130418 0)
(0.911201 0.0282019 1.10212e-20)
(1.06619 -0.099293 6.45873e-21)
(1.29233 0.382195 7.86791e-21)
(1.02854 0.00739931 -4.1377e-23)
(1.02784 -0.00547034 -4.4808e-21)
(1.02331 -0.00435768 0)
(1.36969 0.404684 -5.44813e-20)
(0.765857 0.0227526 0)
(0.995849 -0.0217012 -3.87918e-21)
(1.05983 -0.006436 2.06104e-22)
(0.722685 -0.00460982 0)
(1.0955 -0.0142904 0)
(0.165316 0.0264462 -5.63383e-20)
(1.02899 -0.000335878 -7.31676e-21)
(0.969721 0.0175512 3.08257e-21)
(0.972459 -0.00965613 0)
(0.732414 -0.0178271 0)
(0.987381 0.00846174 -3.87452e-21)
(0.754716 -0.0175683 3.51179e-23)
(1.27953 -0.0374929 2.79068e-22)
(1.01905 0.00340606 -3.59344e-21)
(0.935865 0.00192723 -2.92347e-21)
(1.05538 -0.00951863 3.86704e-22)
(1.0359 -0.00239387 3.89872e-23)
(0.739132 0.0174202 6.27573e-21)
(1.01466 -0.00859564 4.75258e-22)
(1.02715 -0.00491903 0)
(1.03076 -0.00778237 0)
(0.755483 -0.00792583 0)
(1.03485 0.00198463 0)
(1.03833 0.0132196 -6.41263e-22)
(1.03302 -0.00428376 0)
(1.03393 -0.00249639 0)
(1.02664 0.00167844 0)
(1.03007 0.0134404 0)
(-0.0253897 -0.0539469 5.2521e-20)
(1.04164 0.00461417 1.38456e-22)
(1.02255 -0.0059393 0)
(1.29597 0.101962 8.52817e-21)
(1.00988 -0.0038026 8.66874e-22)
(1.08918 0.0397376 5.21245e-21)
(1.01259 -0.0059389 4.72017e-21)
(1.03527 -0.00366326 0)
(0.722526 0.0161894 7.90404e-21)
(1.01932 0.0307094 1.01312e-20)
(1.03731 -0.0207148 0)
(1.02716 0.00896789 -2.42473e-21)
(1.0112 0.00956782 3.55772e-21)
(0.883747 0.0616162 -1.74042e-20)
(1.01346 0.000472505 3.6732e-21)
(1.01348 -0.00281714 -4.99694e-21)
(1.02716 -0.00765972 0)
(1.01271 0.0208114 -2.03481e-20)
(1.03368 0.0157381 -2.81164e-21)
(1.00006 0.00475683 7.82076e-21)
(1.0391 0.00870324 0)
(-0.0106665 -0.0220614 0)
(0.969092 0.124937 -1.54508e-20)
(1.03337 0.007965 0)
(1.12082 -0.112496 -4.42199e-22)
(1.03505 -0.00874314 7.64207e-22)
(1.02585 0.0194523 4.80311e-21)
(1.01246 0.00849391 -3.22409e-21)
(1.37617 0.0307297 1.20136e-19)
(1.01614 -0.322175 5.09317e-20)
(1.02938 0.00261755 -8.3081e-22)
(1.03696 -0.00137756 0)
(1.02155 -0.0115192 0)
(0.892471 0.00392361 -2.59747e-20)
(1.21452 -0.261769 -2.25637e-20)
(1.02259 -0.00642151 0)
(1.00082 0.0159113 1.10479e-20)
(0.92 0.0308257 0)
(1.02376 0.0017979 5.11552e-21)
(1.03095 -0.000922531 -1.27795e-20)
(0.904734 0.0157596 -5.93793e-21)
(1.04412 -0.00958411 0)
(1.02922 0.0137412 -8.91363e-22)
(1.02348 -0.020635 3.91848e-21)
(1.01628 0.0137122 -6.41498e-21)
(1.02564 0.000508718 -4.372e-21)
(1.02091 0.00135406 0)
(1.07448 0.0469945 0)
(1.03558 0.000297079 4.29784e-21)
(1.02331 -0.000707426 -5.16749e-21)
(1.02701 0.000992466 3.8425e-21)
(1.03135 0.00595565 -3.49148e-21)
(1.02956 0.00994725 4.96218e-22)
(1.01658 0.00181447 0)
(0.429073 -0.139036 1.48079e-20)
(1.31543 0.0176492 -2.23384e-20)
(1.04801 0.000546784 -9.07934e-21)
(0.760802 0.0628046 1.84026e-20)
(1.42655 -0.0837116 2.80348e-20)
(0.987305 -0.216059 8.17818e-20)
(1.04666 -0.00562883 -4.46706e-21)
(1.02624 -0.00765011 -1.94803e-22)
(-0.114877 -0.117524 -9.35407e-21)
(0.989915 -0.000891056 0)
(1.04707 -0.0837269 -1.47333e-20)
(0.823527 -0.0256191 4.96514e-21)
(1.01999 -0.0049758 5.78234e-21)
(1.02662 -0.00283834 -6.49238e-22)
(0.76351 0.00717619 1.29548e-21)
(1.40934 -0.359792 -1.56611e-20)
(1.045 0.00814653 0)
(1.02972 0.0120969 -1.57068e-21)
(1.0628 -0.0181788 -2.43694e-21)
(1.04053 0.0165692 0)
(1.03338 0.000402514 -6.75696e-21)
(1.08701 0.0218101 3.7252e-21)
(1.01014 -0.0186086 1.59454e-20)
(1.11084 -0.0428307 -6.17821e-21)
(1.03581 -0.000400543 3.67826e-21)
(-0.0834029 0.0342718 0)
(0.72287 0.109673 -2.99963e-20)
(1.03084 0.0124357 0)
(1.00065 0.134025 -1.85344e-20)
(1.02855 0.130065 0)
(1.09222 -0.038905 6.05663e-22)
(0.98799 0.00721292 0)
(1.03363 -0.0119071 0)
(1.39784 -0.0812268 2.28035e-20)
(0.789336 -0.0836882 0)
(1.05438 -0.0224741 1.93198e-20)
(1.04611 -0.00904058 2.42734e-22)
(1.04445 -0.00506572 2.92868e-21)
(1.16778 -0.153411 -1.25436e-21)
(1.2545 0.0751811 -1.06144e-20)
(1.01562 0.00045755 1.36128e-20)
(1.05364 -0.00131653 0)
(1.06557 -0.0822647 0)
(1.01872 0.00880552 2.48989e-21)
(1.18184 -0.0419173 0)
(1.48193 0.173717 -3.39273e-20)
(1.03023 -0.00301947 1.07571e-21)
(1.04188 0.0340833 1.57015e-20)
(1.17423 0.0288827 -9.7354e-23)
(-0.0259888 0.0463626 0)
(-0.0365573 -0.0878509 0)
(0.16667 0.00239803 -5.55039e-20)
(-0.101957 -0.127179 0)
(0.994086 -0.017009 -1.05547e-20)
(1.08541 0.0240868 -3.67356e-21)
(1.04494 -0.02741 -8.76903e-21)
(1.06938 -0.102188 -2.45939e-21)
(1.12911 -0.0690428 0)
(0.940777 -0.0105951 -3.22788e-21)
(1.04311 0.0167304 0)
(1.0265 0.0266623 5.75987e-22)
(0.528077 -0.109083 0)
(1.01711 -0.0125101 -4.02946e-22)
(1.03509 0.0252363 0)
(1.03736 -0.011124 0)
(0.851468 0.217428 4.66902e-20)
(0.979492 -0.0318927 -2.10715e-21)
(1.03434 0.00409799 1.00989e-21)
(1.03568 0.0118578 -7.80144e-21)
(0.230025 -0.105042 0)
(1.0232 -0.00376097 -2.24674e-20)
(1.11298 0.104763 4.70716e-21)
(1.04511 -0.0225013 6.15249e-22)
(0.983738 -0.0392292 1.03211e-20)
(-0.125492 -0.0253273 -1.11726e-19)
(1.05383 0.044354 0)
(-0.032577 0.0516495 0)
(1.05598 0.0911772 1.26669e-20)
(0.940791 -0.0390266 -1.11067e-20)
(1.04752 0.0164023 -8.82294e-21)
(1.03591 -0.00386624 0)
(1.05124 -0.0125398 6.99061e-21)
(1.1315 -0.245132 -1.10643e-20)
(0.596472 -0.0382438 -1.06949e-20)
(1.0916 -0.00574991 -2.67103e-21)
(1.05442 -0.0421931 -5.40734e-22)
(0.682632 -0.0901704 -1.22577e-21)
(1.03907 -0.0318923 -1.84458e-20)
(1.10291 0.000982177 0)
(1.03185 0.0227413 0)
(1.07593 -0.0943908 -2.36955e-21)
(1.07042 0.102391 -4.25461e-21)
(0.714504 -0.108539 3.2385e-20)
(1.19567 -0.105199 -7.71505e-21)
(1.06288 0.0681134 1.42846e-20)
(0.667118 0.00313946 1.07873e-20)
(0.695473 0.159985 -9.05945e-20)
(0.383044 -0.0599071 -1.50047e-20)
(1.18431 0.159458 -6.33642e-21)
(1.23239 -0.48138 7.43756e-21)
(1.24817 0.0841165 -9.84516e-21)
(1.12004 -0.0784574 2.80816e-21)
(0.919787 -0.233555 8.7356e-20)
(0.173644 0.148551 0)
(1.03319 -0.0148183 -6.10163e-22)
(0.457116 0.0666779 1.79972e-20)
(1.03221 0.0490645 -1.09601e-20)
(1.03872 -0.003059 6.98591e-21)
(1.04534 -0.00437586 0)
(0.928405 -0.0589988 0)
(1.16088 0.00353845 0)
(1.10763 0.159563 8.13714e-21)
(1.22114 0.00519943 -1.62329e-20)
(1.08187 -0.0391911 4.7139e-21)
(0.780993 0.015032 0)
(0.877268 0.0126321 0)
(0.872217 -0.0100819 -4.35243e-22)
(0.768152 -0.0224399 0)
(1.02627 0.00668178 0)
(1.02292 -0.010699 2.00527e-20)
(0.824021 -0.0543084 0)
(1.02003 -0.00496633 0)
(1.04103 -0.00850953 0)
(1.18517 0.147076 3.89945e-21)
(1.15432 0.0328288 8.35743e-22)
(0.942009 -0.0188853 3.74316e-21)
(1.30739 -0.388056 -1.19287e-19)
(0.814967 -0.102998 -1.80659e-20)
(1.04094 0.0171665 6.47105e-21)
(1.03558 -0.00795681 0)
(-0.0147804 -0.241557 0)
(-0.347209 -0.00822211 0)
(1.12152 -0.0342897 3.02586e-21)
(1.33781 -0.270069 -3.76676e-20)
(1.10343 0.160532 0)
(1.04806 0.0190545 -1.03285e-20)
(0.669485 -0.267015 0)
(1.49925 -0.129521 8.40897e-20)
(0.417511 0.525861 9.6699e-20)
(0.324525 -0.0418578 0)
(1.11973 -0.268223 1.28041e-19)
(0.73356 0.253604 0)
(0.523602 0.0168868 4.82493e-21)
(1.14144 0.132231 0)
(-0.0374015 0.0612077 4.47832e-21)
(0.979166 -0.0519503 0)
(1.11895 -0.133791 1.53941e-21)
(-0.300425 -0.0218981 -9.69917e-21)
(1.08666 -0.0262256 1.79215e-21)
(1.04499 -0.021445 -8.69343e-21)
(0.567668 -0.510178 -8.6404e-20)
(1.00905 -0.00677071 -1.5289e-21)
(1.20184 -0.117447 9.26494e-22)
(1.19244 0.227841 -1.06805e-20)
(1.13912 -0.165292 9.26496e-21)
(1.13049 -0.0261395 1.63944e-22)
(0.0774467 -0.25141 -4.84312e-20)
(0.157618 0.162878 -1.07784e-20)
(1.04605 0.0272191 2.98967e-21)
(1.05033 -0.0440457 0)
(0.97717 0.0138778 -6.79618e-21)
(1.40721 -0.422555 9.38473e-20)
(0.997861 -0.0690391 -6.79528e-20)
(1.49753 0.086097 1.00197e-19)
(1.02714 -0.0201038 5.76243e-21)
(1.03838 -0.0137207 1.50703e-20)
(1.0526 -0.0211475 0)
(1.17241 0.0249425 0)
(1.08616 -0.109744 -5.49613e-21)
(1.08691 -0.00208782 -4.38821e-21)
(1.12721 -0.151256 -9.4521e-21)
(1.03902 0.0193059 -1.14132e-20)
(1.41973 0.0640327 -4.67195e-20)
(0.535879 0.0293064 0)
(1.05039 -0.0575321 1.50784e-20)
(1.16973 0.105188 0)
(1.04295 0.0258704 -8.18098e-21)
(1.12471 -0.0197913 0)
(1.0808 -0.00579606 1.10169e-20)
(1.20432 0.0153957 1.72432e-20)
(1.03571 -0.00307872 0)
(0.0665674 -0.0278103 1.73469e-19)
(0.876928 -0.208334 -6.85152e-20)
(1.40233 0.120949 -3.2599e-20)
(-0.257024 0.00123976 5.08385e-20)
(1.17807 -0.0253632 1.0804e-22)
(1.01673 -0.00313018 -3.0138e-21)
(-0.185897 0.0779388 -5.29408e-20)
(-0.045308 0.105066 -3.31572e-20)
(0.994793 -0.0218943 0)
(-0.0296515 -0.0391063 0)
(1.20741 0.212441 0)
(0.111047 -0.101499 0)
(1.08896 -0.0123597 0)
(0.160765 0.0357953 0)
(1.08853 0.0173185 0)
(1.14019 0.201834 0)
(1.04716 0.10189 -5.78171e-21)
(0.581599 -0.284397 -2.33786e-20)
(-0.272153 0.0797038 0)
(1.20689 -0.0704677 7.07363e-20)
(1.02816 -0.019897 9.45275e-22)
(1.38442 0.201924 0)
(-0.037501 -0.0435146 0)
(1.13733 -0.0174959 3.20309e-21)
(1.14156 -0.030385 -1.19363e-21)
(1.17496 0.382985 0)
(0.312901 -0.0809339 6.86985e-20)
(1.11404 0.00331076 5.34361e-22)
(0.253325 -0.0514319 -5.81908e-20)
(-0.05896 0.0510164 -3.98104e-20)
(-0.0307022 0.0506577 1.00702e-19)
(0.761643 0.267253 -1.31422e-20)
(1.04276 -0.00201929 2.83615e-21)
(1.06304 0.0458096 -1.51428e-20)
(1.05171 -0.0123278 0)
(1.07453 -0.0545121 -1.7811e-20)
(1.13694 0.0802581 -8.98236e-22)
(-0.020883 -0.00430625 1.13627e-19)
(0.993653 -0.0715607 -5.40421e-20)
(0.960874 0.0231643 1.24613e-20)
(1.0374 0.00451832 -1.93851e-21)
(0.0886973 -0.0319306 3.8085e-20)
(0.268819 -0.0364866 -5.33374e-20)
(0.462946 -0.0514756 -6.23221e-20)
(1.06351 0.0849298 1.29078e-20)
(-0.0561183 -0.0351087 0)
(1.02458 0.0528785 7.55205e-21)
(1.09384 -0.0956174 2.56202e-20)
(1.10635 -0.102127 -2.47033e-20)
(1.29236 0.137385 0)
(1.49937 -0.188878 8.31906e-20)
(1.0434 -0.0128059 -4.14987e-21)
(-0.0217656 -0.0414875 -3.79846e-20)
(0.472453 0.0743516 0)
(1.02195 -0.0212263 -3.29839e-21)
(1.12991 -0.0119146 9.814e-22)
(1.01439 -0.281066 1.0198e-21)
(1.13241 -0.0274084 -1.49038e-21)
(1.1243 -0.00098454 0)
(1.18018 -0.157265 -1.65472e-20)
(-0.157252 -0.100673 -8.3294e-20)
(1.29475 0.0329601 2.31235e-20)
(1.1139 0.146545 -8.60719e-21)
(1.0324 0.0193297 1.30535e-20)
(-0.0408143 -0.0667983 1.76654e-20)
(-0.0308863 0.0718854 -8.14209e-20)
(0.913871 0.114884 0)
(0.830324 0.253642 0)
(1.12543 0.0643607 -1.04942e-20)
(1.03881 0.0570497 9.31215e-21)
(1.03711 0.0244903 0)
(0.730997 0.0347829 6.18879e-20)
(0.824137 0.0823707 -1.41404e-20)
(1.11073 0.0999667 0)
(1.0484 0.0125242 0)
(1.26525 0.223385 0)
(1.03044 0.00711035 0)
(1.01353 0.00669428 2.74306e-21)
(-0.0408813 0.0479082 4.34862e-20)
(1.02082 -0.00653599 5.6731e-21)
(1.44484 -0.162716 -9.50734e-20)
(1.02606 0.00472445 -5.17448e-21)
(0.132581 -0.13721 0)
(1.08783 -0.0544093 0)
(0.89596 -0.00481982 -1.58281e-21)
(0.601591 0.0070722 -7.12347e-20)
(0.0917878 0.0347746 5.71894e-20)
(1.03203 0.000689251 3.27479e-21)
(0.759472 -0.271287 0)
(0.707686 -0.0885316 0)
(1.0261 0.0140493 0)
(0.551365 0.523766 3.30204e-20)
(-0.0294122 0.0756062 -3.74436e-20)
(1.04104 -0.0115303 -1.16377e-21)
(-0.0407478 -0.0474232 7.22156e-20)
(1.01854 -0.00610482 2.74095e-21)
(1.1759 0.296428 2.03695e-20)
(1.10192 -0.0861411 5.95627e-21)
(0.493419 -0.16932 6.26698e-20)
(1.02483 0.0307564 3.86305e-21)
(1.07465 -0.0471 0)
(0.584733 0.281046 0)
(1.0337 0.00910607 3.98257e-21)
(-0.368967 0.0377218 0)
(0.807374 0.0339939 2.9426e-21)
(0.601642 -0.413218 -3.53409e-21)
(0.268549 0.0507715 -1.30411e-19)
(1.13679 -0.223191 2.46524e-20)
(1.04733 0.365822 8.71118e-21)
(0.969922 0.0270086 0)
(1.01846 -0.00365985 3.17571e-22)
(0.906697 -0.00664438 0)
(1.01804 0.0160736 5.39094e-22)
(0.479874 -0.0141605 0)
(0.714278 0.130667 0)
(0.984989 -0.0588145 -2.08338e-21)
(1.47761 0.125438 -1.95012e-20)
(1.02913 0.000107404 2.82567e-21)
(0.51744 -0.486166 0)
(1.14522 -0.14533 7.03407e-22)
(0.812861 0.372197 6.40446e-20)
(-0.0327837 0.0156949 1.4236e-21)
(1.18036 -0.0479053 8.61687e-21)
(1.19178 0.0144933 -1.34809e-20)
(1.02372 -0.0118441 8.19286e-22)
(0.940221 -0.00455936 -5.27873e-21)
(0.0785275 0.0184051 4.56549e-20)
(-0.0416408 0.0325593 -6.39608e-20)
(-0.439012 -0.0201101 0)
(-0.30642 0.0846667 0)
(1.1833 -0.603674 3.4637e-20)
(1.09588 -0.0433826 -1.59973e-22)
(0.893624 -0.460536 -4.80441e-20)
(1.02775 0.0679529 -1.6843e-20)
(1.42016 0.163208 4.325e-20)
(0.621663 0.432202 0)
(0.24821 0.419119 -1.06097e-19)
(0.601428 0.482922 0)
(0.28445 0.000392786 0)
(1.11985 -0.467644 0)
(-0.0850027 0.131438 -8.79628e-22)
(1.19281 0.0266011 0)
(0.959238 0.207208 1.27422e-20)
(0.605374 0.699607 2.09009e-20)
(1.17632 0.231619 -8.82237e-21)
(-0.0302047 -0.117905 -1.25082e-19)
(0.93858 0.189121 3.13834e-20)
(0.484838 0.150587 -1.56356e-20)
(1.18861 0.0337129 0)
(1.38731 0.334692 4.77802e-20)
(1.24077 0.563295 1.66945e-20)
(0.197434 -0.0273629 -2.72594e-20)
(1.11079 0.108578 4.13555e-20)
(0.980886 0.00824478 1.64564e-21)
(0.998718 -0.00430805 -1.18084e-21)
(0.00167936 -0.0308691 0)
(0.63931 -0.644829 -2.79213e-20)
(0.612828 0.201536 0)
(0.141962 -0.13296 0)
(-0.0519484 0.0989652 0)
(0.00309071 -0.136012 -4.79922e-20)
(1.21007 -0.00905715 -9.92472e-21)
(-0.00428298 0.11871 0)
(-0.0475552 0.127321 0)
(1.46597 0.0610061 -9.51293e-20)
(-0.0308443 -0.0907824 5.64503e-20)
(0.115343 0.236374 -9.59117e-20)
(0.444391 0.0151841 0)
(0.167987 -0.273253 7.73542e-20)
(1.11643 -0.231584 0)
(0.993762 -0.281369 0)
(0.0276728 -0.110901 1.1888e-19)
(1.10668 0.0108536 -2.09527e-23)
(1.12312 0.335289 2.24428e-20)
(0.296077 0.0276932 5.46466e-20)
(0.398909 -0.510682 -3.25921e-20)
(1.43712 0.00904708 0)
(1.29531 0.177044 2.6888e-20)
(1.27405 0.1909 -3.30135e-20)
(0.10204 0.0910787 -2.23968e-20)
(-0.120422 0.0861605 0)
(1.07544 -0.0425063 -1.87149e-20)
(1.11792 -0.210863 -1.2295e-20)
(0.577088 -0.398035 0)
(1.10599 -0.142303 -2.24002e-20)
(-0.00087055 0.0425754 0)
(0.721354 0.052177 0)
(1.40876 0.12548 3.23182e-20)
(1.04872 -0.030652 5.65324e-22)
(1.09466 0.746924 -8.53542e-21)
(0.222745 -0.373145 1.23471e-19)
(1.04652 -0.0279899 1.49819e-22)
(1.17979 0.0281696 1.86523e-21)
(-0.0689658 0.168831 3.85657e-20)
(0.804956 0.743443 1.97842e-20)
(1.35674 -0.348831 -1.36174e-20)
(0.134682 0.0372329 8.26998e-20)
(1.06153 -0.0152063 0)
(0.489881 -0.156701 -1.12606e-20)
(0.895234 -0.627419 3.18783e-21)
(0.926106 0.653764 -2.99753e-20)
(0.591433 -0.0287944 -7.06955e-20)
(1.07709 -0.0380721 -6.71617e-22)
(1.07796 -0.0621795 5.59843e-21)
(1.08252 0.0657024 6.07922e-21)
(1.10093 0.116097 2.04732e-21)
(1.13952 -0.103557 0)
(0.985891 0.0963828 1.78792e-20)
(0.921322 0.469078 0)
(1.08806 0.139961 -4.60891e-21)
(1.14034 0.0720972 -2.30096e-21)
(0.793445 0.270473 0)
(0.563 0.113289 1.24394e-19)
(0.90887 0.717817 -8.53793e-22)
(1.06903 0.279131 -1.72354e-20)
(1.01435 -0.003985 1.04705e-20)
(0.418808 0.495655 0)
(1.29433 -0.456519 0)
(0.97336 -0.241093 4.86546e-21)
(1.29599 0.503021 0)
(-0.0103562 0.0693133 -5.22387e-20)
(1.28819 -0.398092 -1.82871e-20)
(1.17912 0.503223 0)
(0.453063 0.220376 1.60955e-19)
(1.16934 0.317445 -1.41211e-19)
(0.803894 -0.62993 -2.30155e-20)
(1.11527 0.0555234 1.49077e-21)
(0.974991 0.151947 9.76387e-20)
(1.103 0.150492 3.92641e-20)
(1.09295 0.710056 -2.87383e-21)
(0.88896 -0.433203 5.95772e-20)
(1.45769 0.113325 5.27462e-20)
(1.09252 -0.0245401 -3.38146e-22)
(0.014771 -0.0581612 1.042e-19)
(1.07407 -0.69124 3.3774e-20)
(0.8606 -0.710412 4.58847e-20)
(0.248362 -0.324107 0)
(0.971424 -0.137915 6.65238e-20)
(0.363648 0.31194 -4.18077e-19)
(-0.22169 -0.0266995 3.35704e-20)
(0.317883 0.0701381 2.85163e-20)
(0.715517 -0.0549213 -8.27022e-20)
(1.09499 0.528073 0)
(0.992501 0.221872 6.96257e-20)
(1.09147 0.0118962 2.45483e-21)
(0.926728 0.439194 -8.25664e-20)
(0.773932 -0.715152 -7.11646e-21)
(0.920623 0.0291104 -4.59175e-20)
(0.991023 0.487455 0)
(1.10333 0.198423 3.60585e-21)
(1.37472 -0.494708 1.52012e-20)
(1.24268 -0.328174 1.02657e-20)
(-0.215387 -0.0678511 4.48826e-20)
(0.192905 0.00984128 -1.73706e-20)
(0.958532 -0.113577 -5.44445e-20)
(0.357135 0.530121 0)
(0.918441 0.0192168 3.65863e-20)
(1.18555 0.642053 9.67955e-20)
(-0.1374 -0.107725 1.79128e-19)
(-0.0929787 0.170834 -3.30765e-20)
(-0.186478 -0.0528026 4.77721e-20)
(1.10455 0.0140674 -2.97804e-21)
(1.13768 -0.452196 0)
(1.05489 -0.720106 -3.39207e-20)
(0.702616 0.351115 0)
(0.0560697 -0.139116 -1.30412e-19)
(1.03291 -0.0120448 4.88305e-21)
(-0.0681175 -0.0665599 -3.28315e-20)
(1.08412 0.0566807 -1.12294e-20)
(0.126936 0.0339274 6.76717e-20)
(0.919415 0.127359 0)
(1.365 0.0531176 4.56698e-20)
(0.126428 0.0976572 -3.23714e-20)
(-0.414679 -0.0833554 -5.32683e-20)
(-0.399521 0.0673801 0)
(0.0969453 -0.0135746 0)
(1.33339 0.0669512 -1.44299e-20)
(0.411196 -0.00797947 1.7126e-19)
(1.25799 -0.710355 -3.09935e-20)
(1.01126 -0.287198 2.50827e-20)
(1.08064 0.241375 -2.36337e-20)
(0.362823 -0.548574 1.32278e-19)
(1.5852 0.235367 -4.31872e-20)
(0.0946044 -0.0852341 4.03571e-20)
(0.209237 0.309386 1.86701e-19)
(0.122021 -0.0429574 -1.51239e-19)
(0.934325 -0.486301 -4.04973e-20)
(1.48382 0.371035 4.35129e-20)
(0.559234 -0.666673 4.52443e-20)
(1.09304 -0.0653117 -5.82081e-21)
(0.344915 -0.031186 7.1081e-20)
(1.24409 0.288021 -5.80204e-20)
(0.670093 0.644864 -3.68778e-20)
(1.33576 -0.608184 0)
(1.46223 0.516325 3.9659e-20)
(1.04221 -0.519386 -1.25737e-20)
(1.42082 0.605735 -1.24492e-19)
(1.16297 0.00103723 0)
(-0.0523302 0.149256 0)
(1.27458 0.732052 0)
(1.02277 -0.00369348 -6.60775e-21)
(0.733628 -0.298538 -1.94963e-19)
(0.4729 -0.0794147 0)
(-0.0484047 0.192479 -3.26533e-20)
(1.02544 -0.24065 8.8324e-20)
(-0.493137 0.000841272 0)
(0.319456 0.030746 1.1736e-20)
(1.14104 -0.00752745 0)
(1.46534 0.253195 0)
(1.15823 0.0375083 -1.59626e-21)
(0.358041 -0.285581 0)
(1.01484 0.13623 3.18013e-20)
(1.35126 0.269293 0)
(-0.127713 0.171507 -1.61162e-21)
(0.802779 -0.393944 0)
(1.54054 0.301661 -6.46433e-20)
(1.2394 0.356962 -6.86725e-21)
(0.852164 0.647397 -8.874e-21)
(0.992252 0.151334 -7.70904e-20)
(0.982826 -0.205433 -4.35208e-20)
(1.48658 0.26413 3.79501e-20)
(1.13016 0.0678696 0)
(0.563551 -0.0695946 0)
)
;

boundaryField
{
    FrontBack
    {
        type            empty;
    }
    Top
    {
        type            noSlip;
    }
    In
    {
        type            fixedValue;
        value           uniform (1 0 0);
    }
    Bottom
    {
        type            noSlip;
    }
    Out
    {
        type            zeroGradient;
    }
    circle
    {
        type            noSlip;
    }
}


// ************************************************************************* //
