/*--------------------------------*- C++ -*----------------------------------*\
| =========                 |                                                 |
| \\      /  F ield         | OpenFOAM: The Open Source CFD Toolbox           |
|  \\    /   O peration     | Version:  2412                                  |
|   \\  /    A nd           | Website:  www.openfoam.com                      |
|    \\/     M anipulation  |                                                 |
\*---------------------------------------------------------------------------*/
FoamFile
{
    version     2.0;
    format      ascii;
    arch        "LSB;label=32;scalar=64";
    class       volVectorField;
    location    "0.1";
    object      cellDisplacement;
}
// * * * * * * * * * * * * * * * * * * * * * * * * * * * * * * * * * * * * * //

dimensions      [0 1 0 0 0 0 0];

internalField   nonuniform List<vector> 
256
(
(0.000664022 -0.000667539 0)
(0.00115288 -0.0010755 0)
(0.00167866 -0.00135876 0)
(0.00216924 -0.00145353 0)
(0.00256682 -0.00135173 0)
(0.00297526 -0.00112349 0)
(0.00340508 -0.000769343 0)
(0.00358313 -0.000277378 0)
(0.00265813 -0.00263314 0)
(0.0040892 -0.00366523 0)
(0.00543454 -0.00420875 0)
(0.00670408 -0.00429817 0)
(0.00795353 -0.00397846 0)
(0.00912986 -0.0032588 0)
(0.0100514 -0.00214857 0)
(0.0105062 -0.000745962 0)
(0.00524031 -0.00512074 0)
(0.00733723 -0.0064263 0)
(0.00942746 -0.0070906 0)
(0.0114345 -0.00707429 0)
(0.0132821 -0.00640113 0)
(0.0149905 -0.0051561 0)
(0.0164255 -0.0033691 0)
(0.017098 -0.00113565 0)
(0.00823624 -0.00796588 0)
(0.0109596 -0.00939961 0)
(0.0135968 -0.00995928 0)
(0.0161335 -0.00969574 0)
(0.0185858 -0.00867354 0)
(0.0207945 -0.00690249 0)
(0.0224658 -0.00443403 0)
(0.0233107 -0.00145137 0)
(0.011652 -0.0111589 0)
(0.0147733 -0.0124496 0)
(0.0179004 -0.0128151 0)
(0.0209641 -0.0122573 0)
(0.023809 -0.0107841 0)
(0.0263237 -0.00846919 0)
(0.0283052 -0.00538707 0)
(0.0292756 -0.00171414 0)
(0.015311 -0.0145416 0)
(0.0188457 -0.0156194 0)
(0.0223316 -0.0156469 0)
(0.0257326 -0.0146858 0)
(0.0289687 -0.0127704 0)
(0.0317926 -0.00991745 0)
(0.0338739 -0.00622529 0)
(0.0349359 -0.00192319 0)
(0.0192668 -0.018145 0)
(0.0230312 -0.0188099 0)
(0.0268396 -0.0184457 0)
(0.030588 -0.0170545 0)
(0.0340464 -0.0146257 0)
(0.0370132 -0.0112262 0)
(0.0392538 -0.00697131 0)
(0.040382 -0.0020886 0)
(0.0233403 -0.0218205 0)
(0.0273945 -0.0220539 0)
(0.031438 -0.0212046 0)
(0.0353649 -0.0193041 0)
(0.0390362 -0.0163675 0)
(0.0421697 -0.0124322 0)
(0.0444182 -0.00762572 0)
(0.0455725 -0.00221054 0)
(0.0276404 -0.0256239 0)
(0.0318278 -0.0252825 0)
(0.0360627 -0.023905 0)
(0.0401922 -0.0214779 0)
(0.0439556 -0.0179923 0)
(0.0471049 -0.0135189 0)
(0.0494138 -0.00819765 0)
(0.0505692 -0.00229079 0)
(0.032004 -0.0294517 0)
(0.0363993 -0.0285225 0)
(0.0407678 -0.026547 0)
(0.0449478 -0.0235332 0)
(0.048769 -0.0194972 0)
(0.0519654 -0.0144984 0)
(0.0542129 -0.00868476 0)
(0.0553427 -0.00232188 0)
(0.0365823 -0.0333788 0)
(0.0410421 -0.0317319 0)
(0.04548 -0.0290973 0)
(0.0497179 -0.0254789 0)
(0.0535184 -0.0208705 0)
(0.0566263 -0.0153552 0)
(0.058839 -0.00907651 0)
(0.05992 -0.00230778 0)
(0.0412097 -0.0372881 0)
(0.0457891 -0.0348801 0)
(0.0502565 -0.0315397 0)
(0.0544381 -0.0272611 0)
(0.0581456 -0.0220722 0)
(0.0611731 -0.0160644 0)
(0.0632766 -0.00936563 0)
(0.0642804 -0.00223019 0)
(0.045974 -0.041157 0)
(0.0505988 -0.0379052 0)
(0.0550503 -0.0337836 0)
(0.059145 -0.0288135 0)
(0.062711 -0.023068 0)
(0.0655531 -0.0165762 0)
(0.0675079 -0.00949562 0)
(0.068414 -0.00209 0)
(0.0507593 -0.0448427 0)
(0.0554711 -0.0406762 0)
(0.0598637 -0.0357176 0)
(0.0637954 -0.0300616 0)
(0.0671335 -0.0237275 0)
(0.0697458 -0.0167982 0)
(0.071486 -0.00944709 0)
(0.0722557 -0.00180446 0)
(0.0555306 -0.0480576 0)
(0.0602607 -0.0428875 0)
(0.0645161 -0.0371076 0)
(0.0682097 -0.0307622 0)
(0.0712514 -0.0239119 0)
(0.0735512 -0.0166603 0)
(0.0750338 -0.00910362 0)
(0.0756516 -0.00139779 0)
(0.0598995 -0.0501654 0)
(0.0645282 -0.0440527 0)
(0.0685354 -0.0375157 0)
(0.0718825 -0.0306174 0)
(0.0745374 -0.0234242 0)
(0.0764745 -0.0160055 0)
(0.077675 -0.00843262 0)
(0.0781276 -0.000778534 0)
(0.000249191 -0.00349409 0)
(0.000735429 -0.00335242 0)
(0.00112782 -0.00303835 0)
(0.0014135 -0.00270175 0)
(0.00149903 -0.00223073 0)
(0.0014001 -0.00172614 0)
(0.00113081 -0.00121799 0)
(0.000661635 -0.00065148 0)
(0.000726679 -0.0104741 0)
(0.00211974 -0.0100659 0)
(0.00329747 -0.00928144 0)
(0.00410404 -0.00818336 0)
(0.00444982 -0.0069042 0)
(0.00432388 -0.00553889 0)
(0.00370019 -0.0041147 0)
(0.00264754 -0.00266421 0)
(0.00117209 -0.0169815 0)
(0.00337257 -0.0164118 0)
(0.00523822 -0.0151922 0)
(0.00660641 -0.0136022 0)
(0.00728372 -0.0116514 0)
(0.00725429 -0.00955485 0)
(0.00654207 -0.00742656 0)
(0.00511232 -0.00520425 0)
(0.00158607 -0.0232914 0)
(0.00452216 -0.0225202 0)
(0.0070582 -0.0210035 0)
(0.00892748 -0.0188716 0)
(0.00998524 -0.0163823 0)
(0.0101781 -0.0137106 0)
(0.00949607 -0.0109693 0)
(0.00799133 -0.00820655 0)
(0.00198066 -0.0291993 0)
(0.00558554 -0.0283243 0)
(0.00871358 -0.0265097 0)
(0.0111222 -0.0240689 0)
(0.0125978 -0.0211359 0)
(0.0130865 -0.017982 0)
(0.01263 -0.0148025 0)
(0.0111854 -0.011561 0)
(0.00235867 -0.0349374 0)
(0.00657896 -0.0339098 0)
(0.0102925 -0.0319209 0)
(0.0131959 -0.0291299 0)
(0.0151166 -0.0258523 0)
(0.0159941 -0.0223445 0)
(0.0158132 -0.0187638 0)
(0.0146325 -0.0152021 0)
(0.00273101 -0.0403228 0)
(0.00751727 -0.0392395 0)
(0.0117558 -0.0370631 0)
(0.0151799 -0.0340999 0)
(0.017575 -0.0305614 0)
(0.0188698 -0.0267479 0)
(0.0191093 -0.0229089 0)
(0.018281 -0.0190608 0)
(0.00310114 -0.045559 0)
(0.00840985 -0.0443663 0)
(0.0131739 -0.04211 0)
(0.0170831 -0.0389466 0)
(0.0199682 -0.0352159 0)
(0.0217503 -0.0312065 0)
(0.022423 -0.0271126 0)
(0.0220697 -0.0230707 0)
(0.00347672 -0.050482 0)
(0.00927341 -0.0492819 0)
(0.0145081 -0.0469218 0)
(0.0189282 -0.0436953 0)
(0.0223162 -0.0398388 0)
(0.0245932 -0.0356482 0)
(0.0258055 -0.031414 0)
(0.0260023 -0.0272111 0)
(0.00386606 -0.0552751 0)
(0.0101081 -0.0539983 0)
(0.0158176 -0.0516331 0)
(0.0207132 -0.0483305 0)
(0.0246161 -0.0443855 0)
(0.0274548 -0.0401353 0)
(0.0292334 -0.0357669 0)
(0.0300321 -0.0314411 0)
(0.00427734 -0.0597775 0)
(0.0109277 -0.0585309 0)
(0.0170613 -0.0561429 0)
(0.0224507 -0.0528445 0)
(0.0268917 -0.048921 0)
(0.0303092 -0.0446181 0)
(0.0327189 -0.0401959 0)
(0.0341974 -0.0357694 0)
(0.00471384 -0.0641481 0)
(0.0117322 -0.0628548 0)
(0.0182736 -0.0605114 0)
(0.02412 -0.0572856 0)
(0.0291118 -0.0534025 0)
(0.033157 -0.049139 0)
(0.0362441 -0.0446788 0)
(0.0384199 -0.0401366 0)
(0.00519674 -0.0681995 0)
(0.0125104 -0.0669786 0)
(0.0194067 -0.0647222 0)
(0.025699 -0.0616118 0)
(0.0312399 -0.0578571 0)
(0.0359294 -0.0536487 0)
(0.0397358 -0.0491604 0)
(0.0427112 -0.0445069 0)
(0.00569878 -0.0720405 0)
(0.0132444 -0.0708435 0)
(0.0204327 -0.0687247 0)
(0.0271359 -0.0657886 0)
(0.0332043 -0.0621895 0)
(0.0385743 -0.0580601 0)
(0.0431658 -0.0535582 0)
(0.046998 -0.0487662 0)
(0.006291 -0.0753924 0)
(0.0139248 -0.0742743 0)
(0.021321 -0.0723134 0)
(0.0283499 -0.0695873 0)
(0.0349341 -0.0661618 0)
(0.0409561 -0.0621554 0)
(0.0463787 -0.0576315 0)
(0.0511672 -0.0526772 0)
(0.00688306 -0.0778277 0)
(0.0144784 -0.0767782 0)
(0.0219342 -0.0749894 0)
(0.0291789 -0.0724784 0)
(0.0361425 -0.0692694 0)
(0.042758 -0.0653932 0)
(0.0489618 -0.0608873 0)
(0.054694 -0.055795 0)
)
;

boundaryField
{
    walls
    {
        type            cellMotion;
        value           uniform (0 0 0);
    }
    cylinder
    {
        type            cellMotion;
        value           nonuniform List<vector> 
16
(
(0.0598995 -0.0501654 0)
(0.0645282 -0.0440527 0)
(0.0685354 -0.0375157 0)
(0.0718825 -0.0306174 0)
(0.0745374 -0.0234242 0)
(0.0764745 -0.0160055 0)
(0.077675 -0.00843262 0)
(0.0781276 -0.000778534 0)
(0.00688306 -0.0778277 0)
(0.0144784 -0.0767782 0)
(0.0219342 -0.0749894 0)
(0.0291789 -0.0724784 0)
(0.0361425 -0.0692694 0)
(0.042758 -0.0653932 0)
(0.0489618 -0.0608873 0)
(0.054694 -0.055795 0)
)
;
    }
    outlet
    {
        type            cellMotion;
        value           nonuniform List<vector> 0();
    }
    inlet
    {
        type            cellMotion;
        value           uniform (0 0 0);
    }
    frontAndBack
    {
        type            empty;
    }
    procBoundary0to1
    {
        type            processor;
        value           nonuniform List<vector> 
16
(
(0.0035322 0.000273374 0)
(0.0104139 0.000792743 0)
(0.0170098 0.00128722 0)
(0.0232466 0.0017492 0)
(0.029209 0.00219275 0)
(0.0348795 0.00261364 0)
(0.0403009 0.00302435 0)
(0.0454899 0.0034259 0)
(0.0504472 0.00382343 0)
(0.0552079 0.00421434 0)
(0.0597508 0.00461629 0)
(0.0641 0.00501037 0)
(0.0681996 0.00543874 0)
(0.0720103 0.00584447 0)
(0.0753767 0.0063608 0)
(0.0778277 0.00688306 0)
)
;
    }
    procBoundary0to2
    {
        type            processor;
        value           nonuniform List<vector> 
16
(
(-0.000276462 -0.00350408 0)
(-0.000756055 -0.0102734 0)
(-0.00116909 -0.016895 0)
(-0.0015171 -0.0230828 0)
(-0.00181549 -0.0291238 0)
(-0.00206506 -0.0347717 0)
(-0.00226901 -0.0402804 0)
(-0.00242843 -0.0454438 0)
(-0.00253653 -0.0504818 0)
(-0.00259387 -0.0552162 0)
(-0.00258298 -0.0598301 0)
(-0.00250255 -0.0641667 0)
(-0.00231259 -0.0683499 0)
(-0.00195408 -0.0722088 0)
(-0.001453 -0.0756421 0)
(-0.000778534 -0.0781276 0)
)
;
    }
}


// ************************************************************************* //
