/*--------------------------------*- C++ -*----------------------------------*\
| =========                 |                                                 |
| \\      /  F ield         | OpenFOAM: The Open Source CFD Toolbox           |
|  \\    /   O peration     | Version:  2412                                  |
|   \\  /    A nd           | Website:  www.openfoam.com                      |
|    \\/     M anipulation  |                                                 |
\*---------------------------------------------------------------------------*/
FoamFile
{
    version     2.0;
    format      ascii;
    arch        "LSB;label=32;scalar=64";
    class       surfaceScalarField;
    location    "0.1";
    object      meshPhi;
}
// * * * * * * * * * * * * * * * * * * * * * * * * * * * * * * * * * * * * * //

dimensions      [0 3 -1 0 0 0 0];

internalField   nonuniform List<scalar> 
480
(
0.00365583
-0.00831196
-0.00354066
0.00423832
-0.00960066
0.00462574
-0.0109801
0.00464229
-0.011162
0.00469384
-0.0101757
0.00505025
-0.00849225
0.00526127
-0.00595993
-0.00225574
0.0113108
-0.0165003
-0.0109472
0.0128566
-0.0186664
0.0138407
-0.0206317
0.0139469
-0.0206206
0.0140695
-0.0187054
0.0148254
-0.0153884
0.0152323
-0.0105075
-0.00379826
0.0194664
-0.0239956
-0.018921
0.0216633
-0.0266536
0.0229516
-0.0287856
0.023123
-0.0283262
0.0232224
-0.0254632
0.0239464
-0.0206981
0.0242491
-0.0138718
-0.00482556
0.0279857
-0.0307003
-0.0274072
0.0304768
-0.0334104
0.0318073
-0.0352239
0.0319883
-0.0342044
0.0319773
-0.0305496
0.0324452
-0.0245744
0.0325252
-0.0161991
-0.00545112
0.0368496
-0.0363852
-0.0364319
0.039306
-0.0388777
0.04046
-0.04024
0.0405501
-0.0385906
0.0403159
-0.0341506
0.0404159
-0.0271927
0.0402327
-0.017729
-0.00585453
0.0460431
-0.0409487
-0.0459689
0.0482303
-0.0430311
0.0490151
-0.0437717
0.0488178
-0.0414759
0.0482341
-0.0363877
0.0478708
-0.0287006
0.0473973
-0.0185087
-0.00603022
0.0555072
-0.0441582
-0.0559498
0.0572366
-0.0456987
0.0574885
-0.0458572
0.0567971
-0.0430072
0.0557322
-0.0373764
0.0548304
-0.0292182
0.0540482
-0.0186972
-0.00606662
0.0652112
-0.0459674
-0.0663474
0.0662628
-0.0468423
0.0657951
-0.0463326
0.0644467
-0.0430321
0.0628048
-0.0371392
0.0613524
-0.0288369
0.0602525
-0.0183338
-0.00595294
0.0751254
-0.0462333
-0.0771936
0.0752268
-0.0463641
0.0738816
-0.0452481
0.071764
-0.0416809
0.0694798
-0.0357546
0.0674838
-0.0276027
0.0660668
-0.0174542
-0.00568164
0.0853215
-0.045072
-0.0885998
0.0841774
-0.0444163
0.0817758
-0.0426563
0.0787799
-0.038946
0.0758133
-0.033257
0.073286
-0.0255673
0.0715449
-0.016083
-0.00523256
0.0958135
-0.0422303
-0.100545
0.0930319
-0.0408664
0.08941
-0.0386048
0.0854928
-0.0349301
0.0818295
-0.0296851
0.0787974
-0.022762
0.076736
-0.0142538
-0.00465366
0.106204
-0.0373674
-0.112458
0.101725
-0.0356482
0.0968453
-0.0331707
0.0919834
-0.0297171
0.0876319
-0.02516
0.0840944
-0.0192017
0.0817251
-0.0119825
-0.00396748
0.116389
-0.0307985
-0.12405
0.110328
-0.0290012
0.104156
-0.0265404
0.098345
-0.0235326
0.0932288
-0.0197426
0.0891308
-0.0149041
0.0864632
-0.00928981
-0.00313427
0.126496
-0.0224237
-0.135624
0.118757
-0.0208137
0.111233
-0.0187077
0.104358
-0.0163108
0.098399
-0.0133948
0.0938164
-0.00995377
0.0908916
-0.00613883
-0.00200244
0.136121
-0.0117585
-0.146894
0.126465
-0.0106484
0.117476
-0.00932751
0.109489
-0.00787635
0.102841
-0.00624956
0.0978867
-0.00447949
0.094788
-0.00259575
-0.000605016
0.142425
-0.154728
0.131127
0.120986
0.112278
0.105276
0.100179
0.0971249
0.00449609
0.00128597
0.00465314
0.00493821
0.00500351
0.00863067
0.00528521
0.0117803
0.00517117
0.0134247
0.00467075
0.0132538
0.0039272
0.0117267
0.0100881
0.0133104
0.00229916
0.013825
0.0088675
0.0147708
0.0154322
0.0154878
0.0209869
0.0151962
0.0240372
0.0138965
0.0241185
0.0118767
0.0218178
0.0192077
0.0217663
0.00298431
0.0226389
0.0117852
0.0239989
0.0204648
0.0249891
0.027815
0.0246343
0.0320975
0.0228872
0.0327057
0.02004
0.0302317
0.0271835
0.0298747
0.00340006
0.0310117
0.0138272
0.0326334
0.0239854
0.0338005
0.0325666
0.0334928
0.0378199
0.0316221
0.039116
0.0284234
0.0369644
0.0339944
0.0376422
0.00358326
0.0389561
0.0151131
0.0407527
0.0262156
0.0420584
0.0356256
0.041909
0.0416902
0.0402169
0.0437585
0.0370806
0.0422118
0.0396227
0.0450488
0.00358587
0.0464778
0.0157315
0.0484019
0.0273115
0.0498574
0.0371644
0.0499899
0.0438193
0.0487141
0.0466203
0.0459897
0.0458343
0.0439135
0.0520737
0.003447
0.0535835
0.0157726
0.0556214
0.0274344
0.0572734
0.0374534
0.0578126
0.0445313
0.0571361
0.0479638
0.0551191
0.0479603
0.0467975
0.05871
0.00319444
0.0603025
0.0153021
0.0624744
0.0267193
0.0643942
0.0366364
0.0654328
0.0438879
0.0655103
0.0477792
0.064482
0.0485429
0.0482261
0.064984
0.00287899
0.0666719
0.0144218
0.0690231
0.0252811
0.0712617
0.0348509
0.0729024
0.0421092
0.0739477
0.0463624
0.074163
0.0478436
0.0482724
0.0709315
0.00256162
0.0727541
0.0131847
0.0753134
0.0232045
0.0779611
0.0322271
0.0804388
0.0393379
0.0826666
0.0438323
0.0843206
0.0458567
0.0468493
0.0765826
0.00220659
0.0785374
0.0116595
0.0813057
0.0205969
0.0845347
0.0288187
0.0880437
0.0355102
0.0916273
0.039998
0.0948863
0.0423258
0.0436998
0.0819366
0.0019793
0.0839766
0.0100162
0.0870354
0.0175674
0.0909373
0.0245815
0.0955158
0.0304591
0.100524
0.0345092
0.105409
0.0368299
0.0384607
0.086873
0.00173658
0.089075
0.00799427
0.0925141
0.0139373
0.0970962
0.0194475
0.102737
0.0240463
0.1091
0.027342
0.115623
0.029505
0.0312461
0.091313
0.00146312
0.0937694
0.00566554
0.0977169
0.00972873
0.103105
0.0134551
0.109827
0.0165745
0.117535
0.0189784
0.125785
0.0208054
0.0223829
0.095071
0.00120512
0.0978833
0.00319769
0.102488
0.00512688
0.10879
0.00692737
0.11662
0.00852949
0.125673
0.00988285
0.135634
0.0110516
0.0121166
0.0974959
0.10075
0.105963
0.112997
0.121649
0.131643
0.142712
)
;

boundaryField
{
    walls
    {
        type            calculated;
        value           uniform 0;
    }
    cylinder
    {
        type            calculated;
        value           nonuniform List<scalar> 
16
(
2.55348e-11
-5.04334e-11
-3.25679e-11
4.49626e-11
-1.59627e-11
8.777e-12
2.6455e-11
-2.15427e-11
2.15447e-11
-2.64525e-11
-8.77395e-12
1.59661e-11
-4.49582e-11
3.25709e-11
5.04362e-11
-2.55317e-11
)
;
    }
    outlet
    {
        type            calculated;
        value           nonuniform List<scalar> 0();
    }
    inlet
    {
        type            calculated;
        value           uniform 0;
    }
    frontAndBack
    {
        type            empty;
    }
    procBoundary0to1
    {
        type            processor;
        value           nonuniform List<scalar> 
16
(
0.0049897
0.0145847
0.0235372
0.0319007
0.0396955
0.0469281
0.0536121
0.059785
0.0654948
0.0708373
0.0758813
0.0807214
0.0853393
0.0897116
0.0936399
0.0961714
)
;
    }
    procBoundary0to2
    {
        type            processor;
        value           nonuniform List<scalar> 
16
(
-0.00429803
-0.0127718
-0.0210598
-0.0291372
-0.0369315
-0.0443797
-0.0514367
-0.058085
-0.0643405
-0.0702401
-0.0758175
-0.0811084
-0.0860289
-0.0904402
-0.0940933
-0.0962938
)
;
    }
}


// ************************************************************************* //
