/*--------------------------------*- C++ -*----------------------------------*\
| =========                 |                                                 |
| \\      /  F ield         | OpenFOAM: The Open Source CFD Toolbox           |
|  \\    /   O peration     | Version:  2412                                  |
|   \\  /    A nd           | Website:  www.openfoam.com                      |
|    \\/     M anipulation  |                                                 |
\*---------------------------------------------------------------------------*/
FoamFile
{
    version     2.0;
    format      ascii;
    arch        "LSB;label=32;scalar=64";
    class       pointVectorField;
    location    "0.1";
    object      pointDisplacement;
}
// * * * * * * * * * * * * * * * * * * * * * * * * * * * * * * * * * * * * * //

dimensions      [0 1 0 0 0 0 0];

internalField   nonuniform List<vector> 
578
(
(0 0 0)
(0 0 0)
(0 0 0)
(0 0 0)
(0 0 0)
(0 0 0)
(0 0 0)
(0 0 0)
(0 0 0)
(0.0016179 -0.00161419 0)
(0.00213632 -0.00200822 0)
(0.00308739 -0.00257903 0)
(0.00399743 -0.00283384 0)
(0.00485071 -0.00277536 0)
(0.00566106 -0.00243337 0)
(0.00639771 -0.00182965 0)
(0.00689529 -0.000988149 0)
(0.00701849 1.0212e-05 0)
(0.00386678 -0.00385801 0)
(0.00483046 -0.00446334 0)
(0.00657227 -0.00535098 0)
(0.00825192 -0.00567243 0)
(0.00984756 -0.00544311 0)
(0.0113445 -0.0047033 0)
(0.012656 -0.00348685 0)
(0.0135285 -0.0018521 0)
(0.0137657 4.92446e-05 0)
(0.00659283 -0.00657249 0)
(0.00794397 -0.0072318 0)
(0.0103327 -0.00822387 0)
(0.0126515 -0.00845992 0)
(0.014863 -0.00796564 0)
(0.0169188 -0.00678738 0)
(0.0186761 -0.00496858 0)
(0.0198324 -0.00259928 0)
(0.0201741 0.000112149 0)
(0.0097114 -0.00966899 0)
(0.0114085 -0.0102494 0)
(0.0143109 -0.0111611 0)
(0.0171525 -0.0111866 0)
(0.0198783 -0.0103571 0)
(0.0223842 -0.00871083 0)
(0.0244786 -0.00630062 0)
(0.0258462 -0.00324797 0)
(0.0262676 0.000194028 0)
(0.0131406 -0.0130623 0)
(0.015149 -0.0134485 0)
(0.0184673 -0.0141385 0)
(0.0217372 -0.0138561 0)
(0.0248737 -0.0126281 0)
(0.0277292 -0.0104882 0)
(0.0300802 -0.00750169 0)
(0.0316039 -0.00381333 0)
(0.0320814 0.00029229 0)
(0.0168192 -0.0166852 0)
(0.0191188 -0.016786 0)
(0.022767 -0.0171359 0)
(0.026378 -0.0164625 0)
(0.0298397 -0.0147875 0)
(0.0329611 -0.0121373 0)
(0.0354891 -0.00858643 0)
(0.0371171 -0.00430267 0)
(0.0376303 0.000406669 0)
(0.0206891 -0.0204756 0)
(0.0232631 -0.0202137 0)
(0.0271814 -0.0201338 0)
(0.0310634 -0.0190062 0)
(0.0347644 -0.0168407 0)
(0.0380719 -0.0136647 0)
(0.0407193 -0.00956479 0)
(0.0424118 -0.00472431 0)
(0.0429414 0.000537966 0)
(0.0247158 -0.0243867 0)
(0.0275566 -0.0237016 0)
(0.0316864 -0.0231161 0)
(0.03577 -0.0214762 0)
(0.0396429 -0.0187877 0)
(0.0430721 -0.015079 0)
(0.0457816 -0.0104441 0)
(0.0474981 -0.00508118 0)
(0.0480242 0.000687243 0)
(0.0288771 -0.0283921 0)
(0.0319733 -0.0272256 0)
(0.0362703 -0.0260683 0)
(0.0404986 -0.0238686 0)
(0.0444716 -0.0206267 0)
(0.0479537 -0.0163774 0)
(0.0506789 -0.011225 0)
(0.0523888 -0.00537355 0)
(0.0528957 0.000856565 0)
(0.0331656 -0.0324752 0)
(0.0365129 -0.0307762 0)
(0.0409282 -0.028978 0)
(0.045234 -0.0261661 0)
(0.0492436 -0.0223459 0)
(0.0527246 -0.0175555 0)
(0.055415 -0.0119034 0)
(0.0570823 -0.00559729 0)
(0.0575588 0.00105056 0)
(0.0375697 -0.036614 0)
(0.0411614 -0.0343235 0)
(0.0456477 -0.0318146 0)
(0.0499787 -0.0283455 0)
(0.0539601 -0.023921 0)
(0.0573702 -0.0185902 0)
(0.0599825 -0.0124648 0)
(0.0615822 -0.00574439 0)
(0.0620158 0.00127252 0)
(0.0420518 -0.040749 0)
(0.0458985 -0.0378102 0)
(0.0504292 -0.0345285 0)
(0.0547277 -0.0303499 0)
(0.0586147 -0.0253032 0)
(0.0618998 -0.0194443 0)
(0.064381 -0.0128744 0)
(0.0658725 -0.0057945 0)
(0.066251 0.0015326 0)
(0.0465903 -0.0448016 0)
(0.0507061 -0.0411464 0)
(0.0552513 -0.0370208 0)
(0.0594686 -0.0320934 0)
(0.0632006 -0.0264165 0)
(0.0662895 -0.0200409 0)
(0.0685761 -0.0130778 0)
(0.0699182 -0.00570824 0)
(0.070222 0.00184763 0)
(0.0511004 -0.0485764 0)
(0.0555106 -0.0441154 0)
(0.060033 -0.0390959 0)
(0.0641008 -0.0334104 0)
(0.0676014 -0.0271136 0)
(0.0704236 -0.0202722 0)
(0.0724566 -0.0130004 0)
(0.0736086 -0.00543691 0)
(0.0738252 0.00225127 0)
(0.0553172 -0.0516707 0)
(0.06006 -0.046288 0)
(0.0644649 -0.0403877 0)
(0.06829 -0.0339974 0)
(0.0714736 -0.0271756 0)
(0.0739561 -0.0199975 0)
(0.0756854 -0.0125481 0)
(0.0766232 -0.00492655 0)
(0.0767469 0.00276757 0)
(0.0574351 -0.0531081 0)
(0.062364 -0.0472227 0)
(0.0666923 -0.0408826 0)
(0.0703784 -0.0341488 0)
(0.0733867 -0.027086 0)
(0.0756882 -0.0197625 0)
(0.0772608 -0.0122486 0)
(0.0780893 -0.00461669 0)
(0.0781658 0.00305963 0)
(0 0 0)
(0 0 0)
(0 0 0)
(0 0 0)
(0 0 0)
(0 0 0)
(0 0 0)
(0 0 0)
(0 0 0)
(0.0016179 -0.00161419 0)
(0.00213632 -0.00200822 0)
(0.00308739 -0.00257903 0)
(0.00399743 -0.00283384 0)
(0.00485071 -0.00277536 0)
(0.00566106 -0.00243337 0)
(0.00639771 -0.00182965 0)
(0.00689529 -0.000988149 0)
(0.00701849 1.0212e-05 0)
(0.00386678 -0.00385801 0)
(0.00483046 -0.00446334 0)
(0.00657227 -0.00535098 0)
(0.00825192 -0.00567243 0)
(0.00984756 -0.00544311 0)
(0.0113445 -0.0047033 0)
(0.012656 -0.00348685 0)
(0.0135285 -0.0018521 0)
(0.0137657 4.92446e-05 0)
(0.00659283 -0.00657249 0)
(0.00794397 -0.0072318 0)
(0.0103327 -0.00822387 0)
(0.0126515 -0.00845992 0)
(0.014863 -0.00796564 0)
(0.0169188 -0.00678738 0)
(0.0186761 -0.00496858 0)
(0.0198324 -0.00259928 0)
(0.0201741 0.000112149 0)
(0.0097114 -0.00966899 0)
(0.0114085 -0.0102494 0)
(0.0143109 -0.0111611 0)
(0.0171525 -0.0111866 0)
(0.0198783 -0.0103571 0)
(0.0223842 -0.00871083 0)
(0.0244786 -0.00630062 0)
(0.0258462 -0.00324797 0)
(0.0262676 0.000194028 0)
(0.0131406 -0.0130623 0)
(0.015149 -0.0134485 0)
(0.0184673 -0.0141385 0)
(0.0217372 -0.0138561 0)
(0.0248737 -0.0126281 0)
(0.0277292 -0.0104882 0)
(0.0300802 -0.00750169 0)
(0.0316039 -0.00381333 0)
(0.0320814 0.00029229 0)
(0.0168192 -0.0166852 0)
(0.0191188 -0.016786 0)
(0.022767 -0.0171359 0)
(0.026378 -0.0164625 0)
(0.0298397 -0.0147875 0)
(0.0329611 -0.0121373 0)
(0.0354891 -0.00858643 0)
(0.0371171 -0.00430267 0)
(0.0376303 0.000406669 0)
(0.0206891 -0.0204756 0)
(0.0232631 -0.0202137 0)
(0.0271814 -0.0201338 0)
(0.0310634 -0.0190062 0)
(0.0347644 -0.0168407 0)
(0.0380719 -0.0136647 0)
(0.0407193 -0.00956479 0)
(0.0424118 -0.00472431 0)
(0.0429414 0.000537966 0)
(0.0247158 -0.0243867 0)
(0.0275566 -0.0237016 0)
(0.0316864 -0.0231161 0)
(0.03577 -0.0214762 0)
(0.0396429 -0.0187877 0)
(0.0430721 -0.015079 0)
(0.0457816 -0.0104441 0)
(0.0474981 -0.00508118 0)
(0.0480242 0.000687243 0)
(0.0288771 -0.0283921 0)
(0.0319733 -0.0272256 0)
(0.0362703 -0.0260683 0)
(0.0404986 -0.0238686 0)
(0.0444716 -0.0206267 0)
(0.0479537 -0.0163774 0)
(0.0506789 -0.011225 0)
(0.0523888 -0.00537355 0)
(0.0528957 0.000856565 0)
(0.0331656 -0.0324752 0)
(0.0365129 -0.0307762 0)
(0.0409282 -0.028978 0)
(0.045234 -0.0261661 0)
(0.0492436 -0.0223459 0)
(0.0527246 -0.0175555 0)
(0.055415 -0.0119034 0)
(0.0570823 -0.00559729 0)
(0.0575588 0.00105056 0)
(0.0375697 -0.036614 0)
(0.0411614 -0.0343235 0)
(0.0456477 -0.0318146 0)
(0.0499787 -0.0283455 0)
(0.0539601 -0.023921 0)
(0.0573702 -0.0185902 0)
(0.0599825 -0.0124648 0)
(0.0615822 -0.00574439 0)
(0.0620158 0.00127252 0)
(0.0420518 -0.040749 0)
(0.0458985 -0.0378102 0)
(0.0504292 -0.0345285 0)
(0.0547277 -0.0303499 0)
(0.0586147 -0.0253032 0)
(0.0618998 -0.0194443 0)
(0.064381 -0.0128744 0)
(0.0658725 -0.0057945 0)
(0.066251 0.0015326 0)
(0.0465903 -0.0448016 0)
(0.0507061 -0.0411464 0)
(0.0552513 -0.0370208 0)
(0.0594686 -0.0320934 0)
(0.0632006 -0.0264165 0)
(0.0662895 -0.0200409 0)
(0.0685761 -0.0130778 0)
(0.0699182 -0.00570824 0)
(0.070222 0.00184763 0)
(0.0511004 -0.0485764 0)
(0.0555106 -0.0441154 0)
(0.060033 -0.0390959 0)
(0.0641008 -0.0334104 0)
(0.0676014 -0.0271136 0)
(0.0704236 -0.0202722 0)
(0.0724566 -0.0130004 0)
(0.0736086 -0.00543691 0)
(0.0738252 0.00225127 0)
(0.0553172 -0.0516707 0)
(0.06006 -0.046288 0)
(0.0644649 -0.0403877 0)
(0.06829 -0.0339974 0)
(0.0714736 -0.0271756 0)
(0.0739561 -0.0199975 0)
(0.0756854 -0.0125481 0)
(0.0766232 -0.00492655 0)
(0.0767469 0.00276757 0)
(0.0574351 -0.0531081 0)
(0.062364 -0.0472227 0)
(0.0666923 -0.0408826 0)
(0.0703784 -0.0341488 0)
(0.0733867 -0.027086 0)
(0.0756882 -0.0197625 0)
(0.0772608 -0.0122486 0)
(0.0780893 -0.00461669 0)
(0.0781658 0.00305963 0)
(0 0 0)
(0 0 0)
(0 0 0)
(0 0 0)
(0 0 0)
(0 0 0)
(0 0 0)
(0 0 0)
(-1.4666e-05 -0.00694586 0)
(0.000959712 -0.00685613 0)
(0.00182422 -0.00644301 0)
(0.00249097 -0.00580741 0)
(0.00287203 -0.00500903 0)
(0.00292258 -0.0041015 0)
(0.00264053 -0.00314812 0)
(0.00203382 -0.00215857 0)
(-6.9724e-06 -0.0136648 0)
(0.00184936 -0.0134919 0)
(0.00351028 -0.0127456 0)
(0.00481617 -0.0115715 0)
(0.00561612 -0.0100901 0)
(0.00583273 -0.00841527 0)
(0.00545916 -0.00666016 0)
(0.00450222 -0.00485159 0)
(1.77471e-05 -0.0200705 0)
(0.00266453 -0.0198091 0)
(0.00505056 -0.0187894 0)
(0.00696136 -0.0171736 0)
(0.00820538 -0.0151323 0)
(0.00868039 -0.012829 0)
(0.00837239 -0.0104181 0)
(0.00729015 -0.00795396 0)
(5.84087e-05 -0.0261815 0)
(0.00341968 -0.0258409 0)
(0.00647204 -0.0245962 0)
(0.00895866 -0.0226199 0)
(0.0106624 -0.0201204 0)
(0.0114668 -0.0173076 0)
(0.0113534 -0.0143705 0)
(0.0103315 -0.0113885 0)
(0.000114678 -0.0320144 0)
(0.00412684 -0.0315991 0)
(0.00779444 -0.0301726 0)
(0.0108337 -0.0279133 0)
(0.0130118 -0.0250526 0)
(0.0142035 -0.0218343 0)
(0.0143865 -0.0184781 0)
(0.0135723 -0.0150876 0)
(0.000188979 -0.0375839 0)
(0.00479719 -0.0371081 0)
(0.00903748 -0.035539 0)
(0.0126082 -0.0330594 0)
(0.01527 -0.0299167 0)
(0.0168931 -0.0263822 0)
(0.0174523 -0.0226971 0)
(0.016966 -0.0189897 0)
(0.000283827 -0.0429066 0)
(0.00544038 -0.042377 0)
(0.0102153 -0.0407001 0)
(0.0142998 -0.0380603 0)
(0.0174542 -0.0347117 0)
(0.0195447 -0.0309389 0)
(0.0205431 -0.0269998 0)
(0.0204776 -0.0230446 0)
(0.000403441 -0.0479962 0)
(0.0060657 -0.0474269 0)
(0.011342 -0.0456747 0)
(0.0159246 -0.0429237 0)
(0.019576 -0.0394297 0)
(0.0221601 -0.0354831 0)
(0.0236477 -0.0313515 0)
(0.0240814 -0.0272086 0)
(0.000553357 -0.0528677 0)
(0.00668136 -0.0522633 0)
(0.0124272 -0.0504631 0)
(0.0174925 -0.04765 0)
(0.0216449 -0.0440678 0)
(0.0247477 -0.0400078 0)
(0.0267756 -0.0357471 0)
(0.0277738 -0.0314648 0)
(0.000741946 -0.0575282 0)
(0.00729496 -0.0568989 0)
(0.0134788 -0.0550801 0)
(0.0190111 -0.0522422 0)
(0.0236689 -0.0486255 0)
(0.0273198 -0.0445205 0)
(0.0299322 -0.0401851 0)
(0.03155 -0.0357997 0)
(0.000976752 -0.0619836 0)
(0.00791278 -0.0613308 0)
(0.0144985 -0.0595134 0)
(0.0204763 -0.0567002 0)
(0.0256439 -0.0531181 0)
(0.0298686 -0.0490255 0)
(0.0331095 -0.0446637 0)
(0.0353984 -0.0402012 0)
(0.00127424 -0.0662186 0)
(0.00853817 -0.0655478 0)
(0.0154802 -0.0637697 0)
(0.0218742 -0.0610364 0)
(0.0275424 -0.0575436 0)
(0.0323598 -0.0535167 0)
(0.0362677 -0.049162 0)
(0.03928 -0.0446264 0)
(0.00165768 -0.0702017 0)
(0.00916236 -0.0695177 0)
(0.0163978 -0.0678198 0)
(0.0231676 -0.065215 0)
(0.0293188 -0.0618656 0)
(0.0347364 -0.0579432 0)
(0.0393514 -0.0536117 0)
(0.0431535 -0.0490032 0)
(0.00214623 -0.0738225 0)
(0.00978951 -0.0731393 0)
(0.0172298 -0.071541 0)
(0.0243085 -0.069106 0)
(0.0309045 -0.065935 0)
(0.0369157 -0.0621455 0)
(0.0422675 -0.0578556 0)
(0.0469266 -0.0531631 0)
(0.00273634 -0.0767484 0)
(0.0103941 -0.0760692 0)
(0.0179136 -0.0745901 0)
(0.0251943 -0.0723439 0)
(0.0321492 -0.0693765 0)
(0.0386953 -0.0657479 0)
(0.0447612 -0.0615204 0)
(0.0502979 -0.056752 0)
(0.00305963 -0.0781658 0)
(0.0107065 -0.0774895 0)
(0.0182502 -0.076067 0)
(0.0256182 -0.0739118 0)
(0.0327395 -0.0710449 0)
(0.0395455 -0.0674938 0)
(0.0459706 -0.0632927 0)
(0.051953 -0.058482 0)
(0 0 0)
(0 0 0)
(0 0 0)
(0 0 0)
(0 0 0)
(0 0 0)
(0 0 0)
(0 0 0)
(-1.4666e-05 -0.00694586 0)
(0.000959712 -0.00685613 0)
(0.00182422 -0.00644301 0)
(0.00249097 -0.00580741 0)
(0.00287203 -0.00500903 0)
(0.00292258 -0.0041015 0)
(0.00264053 -0.00314812 0)
(0.00203382 -0.00215857 0)
(-6.9724e-06 -0.0136648 0)
(0.00184936 -0.0134919 0)
(0.00351028 -0.0127456 0)
(0.00481617 -0.0115715 0)
(0.00561612 -0.0100901 0)
(0.00583273 -0.00841527 0)
(0.00545916 -0.00666016 0)
(0.00450222 -0.00485159 0)
(1.77471e-05 -0.0200705 0)
(0.00266453 -0.0198091 0)
(0.00505056 -0.0187894 0)
(0.00696136 -0.0171736 0)
(0.00820538 -0.0151323 0)
(0.00868039 -0.012829 0)
(0.00837239 -0.0104181 0)
(0.00729015 -0.00795396 0)
(5.84087e-05 -0.0261815 0)
(0.00341968 -0.0258409 0)
(0.00647204 -0.0245962 0)
(0.00895866 -0.0226199 0)
(0.0106624 -0.0201204 0)
(0.0114668 -0.0173076 0)
(0.0113534 -0.0143705 0)
(0.0103315 -0.0113885 0)
(0.000114678 -0.0320144 0)
(0.00412684 -0.0315991 0)
(0.00779444 -0.0301726 0)
(0.0108337 -0.0279133 0)
(0.0130118 -0.0250526 0)
(0.0142035 -0.0218343 0)
(0.0143865 -0.0184781 0)
(0.0135723 -0.0150876 0)
(0.000188979 -0.0375839 0)
(0.00479719 -0.0371081 0)
(0.00903748 -0.035539 0)
(0.0126082 -0.0330594 0)
(0.01527 -0.0299167 0)
(0.0168931 -0.0263822 0)
(0.0174523 -0.0226971 0)
(0.016966 -0.0189897 0)
(0.000283827 -0.0429066 0)
(0.00544038 -0.042377 0)
(0.0102153 -0.0407001 0)
(0.0142998 -0.0380603 0)
(0.0174542 -0.0347117 0)
(0.0195447 -0.0309389 0)
(0.0205431 -0.0269998 0)
(0.0204776 -0.0230446 0)
(0.000403441 -0.0479962 0)
(0.0060657 -0.0474269 0)
(0.011342 -0.0456747 0)
(0.0159246 -0.0429237 0)
(0.019576 -0.0394297 0)
(0.0221601 -0.0354831 0)
(0.0236477 -0.0313515 0)
(0.0240814 -0.0272086 0)
(0.000553357 -0.0528677 0)
(0.00668136 -0.0522633 0)
(0.0124272 -0.0504631 0)
(0.0174925 -0.04765 0)
(0.0216449 -0.0440678 0)
(0.0247477 -0.0400078 0)
(0.0267756 -0.0357471 0)
(0.0277738 -0.0314648 0)
(0.000741946 -0.0575282 0)
(0.00729496 -0.0568989 0)
(0.0134788 -0.0550801 0)
(0.0190111 -0.0522422 0)
(0.0236689 -0.0486255 0)
(0.0273198 -0.0445205 0)
(0.0299322 -0.0401851 0)
(0.03155 -0.0357997 0)
(0.000976752 -0.0619836 0)
(0.00791278 -0.0613308 0)
(0.0144985 -0.0595134 0)
(0.0204763 -0.0567002 0)
(0.0256439 -0.0531181 0)
(0.0298686 -0.0490255 0)
(0.0331095 -0.0446637 0)
(0.0353984 -0.0402012 0)
(0.00127424 -0.0662186 0)
(0.00853817 -0.0655478 0)
(0.0154802 -0.0637697 0)
(0.0218742 -0.0610364 0)
(0.0275424 -0.0575436 0)
(0.0323598 -0.0535167 0)
(0.0362677 -0.049162 0)
(0.03928 -0.0446264 0)
(0.00165768 -0.0702017 0)
(0.00916236 -0.0695177 0)
(0.0163978 -0.0678198 0)
(0.0231676 -0.065215 0)
(0.0293188 -0.0618656 0)
(0.0347364 -0.0579432 0)
(0.0393514 -0.0536117 0)
(0.0431535 -0.0490032 0)
(0.00214623 -0.0738225 0)
(0.00978951 -0.0731393 0)
(0.0172298 -0.071541 0)
(0.0243085 -0.069106 0)
(0.0309045 -0.065935 0)
(0.0369157 -0.0621455 0)
(0.0422675 -0.0578556 0)
(0.0469266 -0.0531631 0)
(0.00273634 -0.0767484 0)
(0.0103941 -0.0760692 0)
(0.0179136 -0.0745901 0)
(0.0251943 -0.0723439 0)
(0.0321492 -0.0693765 0)
(0.0386953 -0.0657479 0)
(0.0447612 -0.0615204 0)
(0.0502979 -0.056752 0)
(0.00305963 -0.0781658 0)
(0.0107065 -0.0774895 0)
(0.0182502 -0.076067 0)
(0.0256182 -0.0739118 0)
(0.0327395 -0.0710449 0)
(0.0395455 -0.0674938 0)
(0.0459706 -0.0632927 0)
(0.051953 -0.058482 0)
)
;

boundaryField
{
    walls
    {
        type            fixedValue;
        value           uniform (0 0 0);
    }
    cylinder
    {
        type            solidBodyMotionDisplacement;
        value           nonuniform List<vector> 
34
(
(0.0574351 -0.0531081 0)
(0.0574351 -0.0531081 0)
(0.062364 -0.0472227 0)
(0.062364 -0.0472227 0)
(0.0666923 -0.0408826 0)
(0.0666923 -0.0408826 0)
(0.0703784 -0.0341488 0)
(0.0703784 -0.0341488 0)
(0.0733867 -0.027086 0)
(0.0733867 -0.027086 0)
(0.0756882 -0.0197625 0)
(0.0756882 -0.0197625 0)
(0.0772608 -0.0122486 0)
(0.0772608 -0.0122486 0)
(0.0780893 -0.00461669 0)
(0.0780893 -0.00461669 0)
(0.0781658 0.00305963 0)
(0.0781658 0.00305963 0)
(0.00305963 -0.0781658 0)
(0.00305963 -0.0781658 0)
(0.0107065 -0.0774895 0)
(0.0107065 -0.0774895 0)
(0.0182502 -0.076067 0)
(0.0182502 -0.076067 0)
(0.0256182 -0.0739118 0)
(0.0256182 -0.0739118 0)
(0.0327395 -0.0710449 0)
(0.0327395 -0.0710449 0)
(0.0395455 -0.0674938 0)
(0.0395455 -0.0674938 0)
(0.0459706 -0.0632927 0)
(0.0459706 -0.0632927 0)
(0.051953 -0.058482 0)
(0.051953 -0.058482 0)
)
;
        solidBodyMotionFunction oscillatingRotatingMotion;
        oscillatingRotatingMotionCoeffs
        {
            origin          ( 0 0 0 );
            axis            ( 0 0 1 );
            omega           1.5;
            amplitude       ( 0 0 30 );
        }
    }
    outlet
    {
        type            fixedValue;
        value           nonuniform List<vector> 0();
    }
    inlet
    {
        type            fixedValue;
        value           uniform (0 0 0);
    }
    frontAndBack
    {
        type            empty;
    }
    procBoundary0to1
    {
        type            processor;
    }
    procBoundary0to2
    {
        type            processor;
    }
}


// ************************************************************************* //
