/*--------------------------------*- C++ -*----------------------------------*\
| =========                 |                                                 |
| \\      /  F ield         | OpenFOAM: The Open Source CFD Toolbox           |
|  \\    /   O peration     | Version:  2412                                  |
|   \\  /    A nd           | Website:  www.openfoam.com                      |
|    \\/     M anipulation  |                                                 |
\*---------------------------------------------------------------------------*/
FoamFile
{
    version     2.0;
    format      ascii;
    arch        "LSB;label=32;scalar=64";
    class       volScalarField;
    location    "3";
    object      p;
}
// * * * * * * * * * * * * * * * * * * * * * * * * * * * * * * * * * * * * * //

dimensions      [0 2 -2 0 0 0 0];

internalField   nonuniform List<scalar> 
808
(
0.121575
0.0163269
0.0136816
0.115402
-0.280749
0.0258589
0.0284287
0.0218304
-0.16534
-0.0352053
0.03638
-0.189587
0.0285922
0.016083
-0.347334
0.0211741
-0.356708
0.0152492
0.0185678
0.0319647
0.0380548
0.323271
0.0542128
0.0091475
0.401935
-0.136324
-0.0870768
0.00566549
0.00995148
0.0122861
0.00894965
0.0211343
0.0133099
0.00493997
-0.079014
0.565147
0.0125256
0.0061738
0.0258057
0.0183227
-0.0486331
-0.0781803
0.0209925
0.0272274
-0.0556829
0.0579869
0.0179515
-0.0324546
0.0263122
-0.195481
0.0358497
0.00862539
0.0405977
-0.00156785
-0.135563
0.0273171
-9.88067e-05
0.0285085
-0.0437921
0.0469722
-0.0570772
-0.0291111
0.0303904
-0.168836
0.0315168
0.0331481
-0.323855
0.0172632
0.0368445
-0.330855
0.0236266
-0.36935
0.0338097
0.020432
0.142247
0.0385935
0.0128792
-0.155575
0.0361574
0.249212
-0.0943939
0.0185986
0.0132035
0.232152
0.0394999
-0.00461451
-0.415072
-0.163146
0.0289625
-0.198607
0.0358618
-0.111046
0.203544
0.108578
0.00898639
-0.277966
0.0206199
-0.0481137
-0.108307
-0.254162
0.0314282
0.0338102
0.0301909
0.00292215
-0.0425193
0.0387368
-0.0437421
0.010111
0.0434554
-0.0127999
-0.00886006
0.279761
0.0511254
0.0403
0.0198516
0.402754
0.0270061
-0.318857
0.0237226
0.0357764
0.0931211
0.0407603
0.0285616
0.0231131
0.0691353
-0.107561
0.0877846
0.0444749
0.00855795
0.0428495
-0.413175
0.0293376
-0.0377221
0.0596742
0.0177585
0.040189
0.0331959
0.00509387
0.0286558
0.0365537
-0.46876
0.0229372
0.0256743
0.0292912
-0.0825677
0.0414926
0.0920963
0.116297
0.0716195
0.0083208
0.0263962
0.285767
0.0278474
0.479556
-0.420111
-0.127943
0.0260256
-0.143588
0.0283182
-0.130379
-0.384467
-0.451694
-0.384653
0.0244833
0.0422947
0.0222999
0.034798
-0.427429
0.0296638
0.0352649
0.043419
0.104231
0.0404672
0.0786009
0.0274366
0.0553342
0.0406589
-0.167958
0.0331604
-0.404327
0.0233707
-0.196621
0.024173
0.225307
-0.255921
0.0747149
0.0289339
-0.12618
0.0257901
-0.0926483
-0.426353
-0.0437595
0.0198286
0.070278
0.0307045
-0.449961
0.0241947
0.0277804
0.0218707
0.050603
0.0365818
0.028274
0.00868888
-0.384396
0.316296
-0.38457
-0.385956
0.000472803
0.0150811
0.0279542
0.00441834
-0.461909
-0.354063
0.0257275
0.00614285
0.0254555
-0.386984
-0.116542
0.00771809
0.0299152
0.000775249
-0.164862
0.0201422
0.0280484
0.0165582
0.00722603
0.0832137
-0.353965
0.0270284
0.0132917
0.0842493
0.0208789
0.0201551
0.0135043
-0.0592755
0.0182441
-0.00831538
0.00270117
0.00502901
0.0267091
6.36148e-05
-0.00186616
0.00361231
0.0165677
0.00295812
0.00467459
0.00628752
0.0019817
1.02666e-05
0.0400701
-0.387017
0.00825025
0.00244934
-0.0271429
0.00339567
0.0270612
0.019115
0.000747045
0.0267728
0.0779167
0.0251535
0.00790529
0.00048949
0.0609695
0.0178845
-0.00194528
0.0048261
0.0381853
0.00802183
0.022167
0.021804
-0.464633
0.216479
0.0071156
0.0318139
0.0101201
0.0176567
-0.00174404
-0.192744
0.232315
0.0182382
0.0184065
0.00497076
0.0676782
0.0165568
0.0119511
0.0337186
0.0553599
0.0201469
0.0281915
0.0340793
0.0242005
0.0104883
0.0126729
0.0224952
0.0141369
0.0254439
0.0337457
0.0213996
0.014076
0.00655646
0.00872382
0.0157007
0.00458792
-0.559141
-0.0980462
0.0257376
0.0735269
-0.187442
-0.176632
0.0231501
0.0169991
-0.409283
0.106618
0.116309
0.0135112
0.0239185
0.0310671
0.0124226
-0.268502
0.0265019
0.000890547
0.0186635
0.00171903
0.0112508
0.0311505
0.0309047
0.0221183
0.0149497
-0.362634
0.0810998
0.0258338
0.0634351
0.0606162
0.0220469
0.16537
0.0142259
-0.158736
0.492507
0.0394464
-0.000310093
0.0227437
0.0116604
-0.0843737
0.0229714
0.0285876
0.0351367
0.0252596
-0.00330271
-0.341547
0.029557
0.0558256
0.00967313
-0.356109
-0.381508
-0.438389
-0.425918
0.0315601
0.0272847
0.0329282
0.040088
0.0101091
0.0052791
0.0322103
0.00125931
-0.554197
0.0342924
0.0336398
0.0175158
-0.0220512
0.0384374
0.00651455
0.0962221
-0.453231
0.0312208
0.029368
0.0279035
0.046019
-0.364045
0.0380196
-0.441649
0.0349733
0.0561683
0.0221614
0.0285093
0.037775
0.102644
-0.402074
0.023135
0.0351503
0.0961628
0.0464785
0.0279538
0.0326274
0.0311763
0.0352922
0.0845243
0.0112449
0.0280152
0.0103983
-0.108398
0.164902
0.0043235
-0.0501795
0.00773874
0.0268174
0.377577
0.0649024
0.00458248
0.116974
0.0321834
0.0336513
0.0328378
0.0602185
0.00879227
0.0571116
-0.0160113
0.0247586
0.00136732
-0.00355288
-0.00505182
0.00481117
0.0165885
0.098443
0.0739604
0.0135339
0.00426024
-0.0310899
0.0171878
0.0302739
-0.419261
0.0746356
0.0375357
0.00468594
0.179294
-0.241123
0.0160926
-0.129238
0.0342384
0.0312579
0.0543754
-0.275551
0.147482
-0.377594
-0.504101
0.0678014
0.0860266
0.0370374
-0.240028
0.306711
0.0376031
-0.421703
0.0204348
0.0423642
0.513458
0.0102594
-0.00835996
-0.00455085
0.060967
0.0143893
0.0502942
-0.441315
0.0437834
0.0582954
0.0446996
-0.302336
-0.386873
-0.281084
0.0241481
0.0460591
0.0687679
0.00807794
0.0395295
0.0395819
0.0750624
0.0277324
-0.137872
-0.439104
0.0509709
0.0282494
0.0265612
-0.00802433
0.0720585
-0.0559108
0.00867716
-0.527244
0.407002
-0.174911
-0.39375
0.0117627
-0.000831328
-0.393236
-0.36989
0.0999297
-0.399782
0.0201799
0.789382
0.0216115
-0.411378
0.0281699
0.0511624
0.0404477
-0.497796
-0.401832
-0.366156
0.00893922
-0.0197842
-0.421783
-0.0119091
0.00108746
0.0299961
-0.4148
0.00960425
-0.557125
-0.457203
-0.529059
0.134538
0.00439389
0.0293659
0.084533
0.108048
0.0209902
-0.344685
0.253025
0.051519
0.0102772
-0.501605
-0.555466
-0.409096
0.0440895
-0.410906
0.050076
0.0542606
0.0581033
-0.0835661
-0.275419
0.00332263
-0.363537
-0.436363
0.00258518
0.027448
0.00125001
0.00188643
0.00904883
-0.434544
-0.454699
-0.0729332
0.0521343
0.0321408
-0.397048
-0.423411
-0.220302
0.0692223
0.0069424
0.0715595
0.00348905
-0.323826
-0.427352
0.0510801
0.0369724
0.0509355
0.0233463
0.0300415
-0.464712
0.0263974
-0.315244
0.0255935
-0.169211
0.0491365
0.0184702
-0.509437
-0.604036
-3.08161e-05
-0.514665
-0.519553
0.0289782
-0.159095
-0.389695
0.010415
-0.348188
0.0255415
0.0195953
0.0358395
-0.105828
0.0457143
0.0481107
-0.569125
0.00998846
-0.410737
0.0265536
-0.346754
-0.650702
0.0579062
0.204595
0.406313
0.00285618
0.0159261
0.00215745
-0.399214
0.5845
0.0326632
-0.273865
0.017128
-0.101335
0.0584008
0.420053
-0.513849
-0.0150455
-0.0364838
0.0274212
0.0132695
-0.601744
-0.342425
-0.404073
-0.376105
-0.311765
0.0182171
-0.394335
0.052224
-0.353028
-0.412387
0.4366
0.517171
-0.424725
0.0704272
-0.388477
-0.00145969
0.0731945
0.330655
0.0665878
-0.397256
0.0801188
-0.640253
-0.0393489
-0.282965
-0.0991944
-0.4389
-0.381169
0.0185514
0.0161914
-0.377333
0.397245
0.609548
-0.452129
-0.436681
-0.441645
-0.0359242
-0.434248
-0.408859
-0.200715
-0.385571
0.680051
-0.464911
0.677806
-0.469242
0.289658
-0.393983
-0.00125322
0.109652
-0.640082
0.181338
-0.355815
-0.417582
-0.448414
0.796188
-0.379869
0.18544
0.105868
0.580655
0.103851
-0.417987
-0.432791
-0.0800316
0.00613868
0.00614193
0.466279
0.00755893
-0.0431262
-0.414635
0.0374467
-0.172072
-0.109282
0.0290037
-0.330988
-0.192849
-0.246665
-0.430449
0.0113799
0.0965191
0.0310869
0.0361315
0.0737136
-0.45844
-0.461195
0.042232
-0.0101306
-0.58492
-0.644708
0.0981601
0.126338
0.0609527
0.596731
-0.126653
-0.111837
-0.485931
-0.416051
-0.108047
0.010174
0.694465
-0.576694
0.327255
0.0267287
-0.573143
0.0969536
-0.161586
0.339066
-0.199093
0.00932657
-0.390987
-0.116466
0.151303
0.744128
0.290706
0.688341
-0.444252
-0.427996
-0.4768
0.0947639
0.214675
0.04318
0.314321
0.0962607
0.445628
0.209195
0.0529324
-0.232217
-0.0215226
-0.206777
0.80948
0.366274
0.575895
0.457925
-0.359812
-0.473123
-0.40636
-0.384823
0.0175841
-0.448807
0.0603339
0.528627
-0.494416
0.00864748
-0.361861
0.12023
-0.448186
-0.504729
-0.0945435
-0.422293
-0.321309
-0.363993
-0.393754
-0.0783529
-0.482823
-0.173652
-0.0895021
0.0741188
0.593193
-0.290296
-0.396846
0.753665
-0.382099
0.245343
-0.321446
0.339495
0.0665433
-0.477605
-0.52626
0.370732
-0.317867
-0.422208
0.146354
-0.368647
0.0228291
-0.424352
-0.205934
0.0153217
0.514178
0.711687
-0.42622
0.186872
-0.0789447
0.750631
0.0309374
-0.410861
0.0239503
0.696018
0.154861
-0.424174
-0.427538
0.406082
-0.285426
-0.0321059
0.278057
0.208384
0.257598
-0.330147
-0.402202
0.624978
)
;

boundaryField
{
    FrontBack
    {
        type            empty;
    }
    Top
    {
        type            zeroGradient;
    }
    In
    {
        type            zeroGradient;
    }
    Bottom
    {
        type            zeroGradient;
    }
    Out
    {
        type            fixedValue;
        value           uniform 0;
    }
    circle
    {
        type            zeroGradient;
    }
}


// ************************************************************************* //
