/*--------------------------------*- C++ -*----------------------------------*\
| =========                 |                                                 |
| \\      /  F ield         | OpenFOAM: The Open Source CFD Toolbox           |
|  \\    /   O peration     | Version:  2412                                  |
|   \\  /    A nd           | Website:  www.openfoam.com                      |
|    \\/     M anipulation  |                                                 |
\*---------------------------------------------------------------------------*/
FoamFile
{
    version     2.0;
    format      ascii;
    arch        "LSB;label=32;scalar=64";
    class       surfaceScalarField;
    location    "3";
    object      phi;
}
// * * * * * * * * * * * * * * * * * * * * * * * * * * * * * * * * * * * * * //

dimensions      [0 3 -1 0 0 0 0];

oriented        oriented;

internalField   nonuniform List<scalar> 
1171
(
-0.933711
0.933711
0.855551
-1.12258
0.267027
-0.178118
-0.698722
0.876839
0.0662892
-0.0799626
-0.273262
0.353225
-0.855551
0.0648003
0.790751
0.824764
-0.159615
-0.665149
0.825338
-0.998257
0.172919
-0.344945
-0.0415365
0.386482
-0.0274317
0.600382
-0.57295
-0.498916
0.829151
-0.330234
-0.424908
0.991759
-0.166421
0.381593
0.0444734
-0.426066
0.9881
0.00365917
0.400027
-0.0184336
1.00448
-0.016383
0.601807
-0.779925
-0.77626
0.573773
0.202487
0.209337
-0.708254
0.557843
-0.915131
0.357288
-1.05618
0.641777
0.414405
-0.650664
0.623232
0.0359582
-0.254769
0.218811
-0.0420575
-0.602852
0.644909
0.438439
-0.479976
-0.854712
0.869514
-0.0148018
1.00176
0.00272133
0.894096
-1.07528
0.181185
1.00417
-0.00241179
-0.704138
-0.072122
1.20983
-0.810449
-0.399383
0.149462
-0.131387
-0.356234
0.48762
-0.265993
0.17848
0.0875126
-0.624014
-0.498565
0.993143
-0.0990472
0.0139205
0.790095
-0.804016
0.54279
0.667042
0.468995
0.0126764
0.425763
-0.790351
-0.0772021
0.867554
0.509866
0.255074
-0.76494
-0.0432014
0.621678
-0.578477
-0.506982
-0.5492
-0.383321
-0.69196
0.01589
0.255094
-0.270984
-0.884217
-0.0262304
0.910447
0.351193
0.0352885
0.770258
0.0545068
-0.631626
-0.0190381
0.029942
-0.820293
0.082877
0.875605
-0.958482
-0.375341
-0.00433098
0.379672
-0.652148
-0.232068
-0.628563
0.71144
0.614044
0.215107
-0.560274
0.946407
-0.77496
-0.171446
0.0149213
-0.0318323
0.016911
-0.448905
-0.031071
-0.2481
0.862144
0.0469105
0.368634
-0.415544
-0.466376
0.976242
0.724959
-0.802161
0.379745
-0.0407284
-0.339016
1.0139
-1.0139
-0.796611
0.0517353
-0.324997
-0.773097
0.787017
-0.0475676
-0.155036
0.202604
0.842117
-0.0520218
1.01385
-0.758772
0.217814
-0.32453
0.106716
0.855938
-0.08568
-0.648898
-0.0307317
0.67963
0.144496
-0.233619
0.0891234
0.75562
-0.915235
-0.442676
0.314715
0.127961
0.569926
-0.611983
1.03335
-0.42695
-0.606397
0.650025
-0.700492
0.0370449
0.663447
0.0909973
0.598358
0.0807336
-0.679092
0.151003
-0.0992678
-0.499353
0.124012
0.0990154
-0.946979
0.847964
-0.558378
-0.806746
0.102607
0.464585
-0.038822
0.297229
-0.831784
0.534555
0.419579
0.580421
0.577341
-0.547398
-0.426655
0.0667395
0.359916
0.772559
0.241346
-0.628672
0.58547
0.108351
0.82042
-0.0156017
-0.633297
-0.724763
0.823778
0.567626
0.0487608
0.34874
-0.397501
-0.178516
0.4773
0.144378
0.918282
-0.831899
-0.0863827
0.629819
0.316588
-0.433015
0.597179
-0.548419
0.406718
0.151125
-0.0223293
-0.573865
-0.144115
0.71798
-0.182694
-0.831211
-0.598192
0.356076
0.242116
0.643911
-0.659513
0.305657
0.967217
0.0466293
-0.724763
0.170515
-0.155593
0.724959
0.821657
-0.821657
0.844372
-0.830939
-0.0134325
-0.470123
0.889702
-0.184699
-0.314653
0.781996
-0.700644
-0.0813517
-0.713928
0.140063
0.100688
-0.732314
0.802161
-0.980677
-0.285883
0.231618
0.0542657
0.149982
-0.957734
0.807752
0.543501
-0.0745055
-0.298929
0.596171
-0.297242
-0.813349
0.963331
-0.131049
0.649214
-0.757614
0.1084
0.98132
-0.580251
-0.401069
0.799327
-0.0595234
-0.032241
0.051144
-0.018903
-0.825784
-0.763896
0.0651741
-0.773097
0.542297
-0.546628
0.095437
0.63117
-0.726607
0.738196
0.195515
0.499662
0.500338
-0.0951668
-0.572339
0.667505
0.923755
-0.00547361
-0.799327
0.823778
0.179644
-0.434413
-0.0493806
0.0160875
0.0332931
0.640049
-0.453543
-0.186505
0.790751
0.0664326
-0.114681
0.479714
0.160335
-0.0328793
0.00140929
0.03147
-0.00196814
-0.0302728
0.208462
-0.24919
-0.952706
0.00948306
-0.128928
-0.0774217
0.106431
0.728142
0.748637
-0.168216
0.733296
-0.637859
-0.18291
0.400724
0.766719
0.0240315
0.230559
-1.0615
-0.980677
0.312371
0.787017
-0.178207
0.0231706
-0.737625
0.930725
-0.1931
0.458815
-0.0791436
0.78844
0.299508
0.296097
0.10393
-0.687026
0.687026
0.19711
0.670444
-0.082604
0.451238
0.405016
0.00137067
-0.0507513
0.467685
0.0758156
-0.813349
0.595225
0.186771
0.0890952
-0.0379512
-0.766719
0.190505
0.74022
-0.00942357
-0.746064
0.755488
0.771693
-0.832427
0.0607349
-0.738196
-0.0486037
0.0673572
-0.0187535
0.0848687
-0.159841
-0.114696
0.274537
-0.0194009
-0.0134784
0.679664
-0.689088
0.811317
0.0655221
-0.323724
-0.500991
0.824715
0.000201616
-0.000201616
0.298357
0.442397
0.611035
-1.05343
-0.180621
-0.572241
0.752862
-0.0174555
0.220059
0.387921
-0.243425
0.976725
-0.534328
0.669044
1.02791
-0.416875
0.203222
0.963331
0.79691
0.199355
0.670159
-0.831211
0.312974
-0.114975
0.153436
-0.0384611
0.807289
-0.00215888
-0.80513
-0.780527
0.778115
0.529877
-0.780527
-0.79691
0.778115
-0.0587461
0.848643
-0.037326
-0.772559
0.708954
0.063605
0.512278
0.562682
-1.07496
0.468282
0.508443
0.552029
0.449798
-1.00183
0.517547
0.510363
0.708954
-0.521258
-0.466097
-0.561576
-0.505707
-0.126445
-0.0118975
0.0118975
0.515222
0.501628
-1.00734
0.617936
-0.269196
-0.932596
0.352345
-0.636167
0.404098
0.00522907
-0.825265
0.820036
0.449708
-0.00929451
0.816583
-0.952287
-0.870143
0.0563536
0.81379
0.636375
-0.515335
-0.121039
0.636467
-0.735514
0.868574
-0.823359
-0.0452146
-0.000459887
-0.831439
-0.119083
0.718064
-0.598981
-0.851104
0.850644
-0.794111
0.742693
0.0514176
-0.841496
0.0270464
0.814449
0.00547476
-0.00527314
0.448354
0.0837133
-0.892734
0.80902
-0.679359
0.584192
0.909319
0.05446
-0.963779
0.0391759
-0.0912929
0.451208
-0.368755
0.0442253
0.864101
-0.858872
-0.775974
-0.866449
0.0350094
-0.0950388
-0.845612
0.0222522
0.685711
0.0475847
0.0308155
0.605559
-0.809614
0.83666
0.606397
-0.83456
-0.796644
0.0519991
-0.0318938
0.832956
-0.801063
-0.0255757
-0.807868
0.609729
0.161964
-0.0233424
0.839925
0.906998
0.890012
-0.86776
0.0516854
-0.0516854
-0.132269
-0.549314
0.0339788
0.307193
0.0051783
0.36253
0.81435
0.00576045
-0.0251614
0.657462
0.342538
0.799171
-0.624014
-0.73474
-0.803221
-0.763313
0.763313
-0.203192
-0.121806
0.612412
-0.817486
0.205074
-0.470434
-0.556707
0.285316
-0.977276
-0.845487
0.800272
-0.805523
0.840533
0.651364
0.135582
-0.786946
-0.751804
-0.155618
0.758599
-0.602982
0.0311369
-0.00252662
0.0108149
-0.00828826
-0.426655
-0.12266
0.897728
0.663399
-0.236879
-0.42652
0.54236
0.678687
-0.481577
0.0129579
-0.27895
0.0212291
0.690444
-0.711673
-0.325912
-0.0938885
0.0887541
-0.916378
0.111249
-0.681904
0.0574231
0.673293
-0.730716
-0.779816
0.0979123
0.626857
-0.720745
0.220294
-0.380135
-0.762631
0.0108273
0.38272
0.637842
-0.0406629
0.00730021
-0.00730021
-0.0104882
0.0015977
-0.116572
-0.0360876
0.041848
-0.715046
0.269876
0.705613
-0.727799
0.0221862
-0.580488
0.637911
0.698895
-0.0720377
-0.645024
-0.134792
-1.03201
0.0209291
0.0307563
-0.693817
-0.764107
-0.759555
0.360172
-0.276872
0.423069
-0.146197
-0.651302
-0.0425157
0.50688
0.723751
-0.084409
0.0069873
0.905551
0.454811
0.147732
-0.602542
-0.654409
0.00310792
-0.0229785
0.0204519
0.652413
-0.796528
0.00749762
-0.00749762
-0.62813
0.664306
-0.0361761
-0.623594
-0.123088
-0.648208
0.114773
0.552732
-0.0660592
-0.803825
-0.513733
0.518934
-0.00520094
0.622297
-0.600111
0.319579
0.238154
-0.557733
-0.111694
-0.637266
-0.0934502
-0.173319
-0.39896
0.459585
-0.490656
0.132223
0.709147
-0.84137
0.650025
-0.356185
0.0793126
0.0856867
-0.484647
0.577546
-0.0841933
-0.493353
-0.289223
0.303834
-0.0146111
0.444997
0.172939
0.0616291
-0.307731
0.168549
0.139182
0.259565
-0.0890505
-0.290387
-0.345252
0.431856
-0.0866038
0.780293
-0.591185
-0.0324092
0.55111
0.264886
-0.501766
0.647524
-0.647524
-0.26021
-0.650305
-0.261908
-0.650305
-0.603607
-0.842876
0.142232
-0.557206
0.784136
0.0309176
0.140278
0.497565
0.100945
0.128873
0.00292165
-0.131794
-0.0382716
0.59162
-0.897405
0.396415
-0.0771553
0.0733058
0.00384952
-0.67502
-0.169814
-0.452797
0.600528
-0.517071
-0.175733
-0.308914
-0.333838
-0.0808357
0.0808357
0.0672567
0.000100526
0.149802
0.334019
-0.585274
0.132478
0.0762806
0.486677
0.513323
0.645821
0.0634424
0.0282926
-0.091735
-0.272824
-0.531002
-0.502336
0.109558
-0.114323
0.0047641
-0.118807
-0.398847
-0.0653335
0.618066
-0.527334
-0.147686
-0.207566
0.0904659
0.118999
-0.680374
-0.20027
-0.227167
-0.0220232
-0.492604
0.398044
0.0945608
-0.0859569
0.293651
-0.842851
-0.476605
0.579794
-0.815579
0.703885
0.359945
-0.055421
0.0928384
-0.0374174
0.0378001
-0.646077
0.0182394
0.627838
-0.865983
0.583224
-0.715493
-0.0971332
0.0102652
-0.0102652
-0.294773
0.35492
0.0962887
0.0153025
0.0481399
0.526963
0.657017
-0.7434
0.03139
0.0134605
-0.00616029
0.00635947
-0.00635947
-0.382803
0.555742
0.0135987
-0.0135987
-0.771389
-0.0109965
0.0164713
-0.411506
0.543984
0.449042
-0.485218
0.073038
-0.073038
0.0190556
-0.0698069
-0.00710763
-0.901524
0.500456
-0.529
-0.00527314
0.559518
0.0477579
-0.607276
-0.675843
0.148509
-0.325213
-0.00847124
0.333685
-0.0452334
-0.0391755
-0.617107
-0.0289704
0.0307563
0.00559861
0.00189901
-0.00129437
0.00129437
-0.478255
0.391651
-0.437271
0.139576
0.659595
-0.104977
0.00351467
-0.00351467
0.523722
-0.0748153
0.0100636
0.020491
0.00108633
0.607608
-0.682423
-0.617594
0.585185
-0.17408
0.340945
0.706218
-0.0104882
-0.151813
0.113862
-0.682459
0.508184
-0.403953
-0.116325
-0.00737807
-0.0272036
-0.00779498
0.480832
-0.0719461
-0.421407
0.651863
0.00553801
0.0121495
-0.0121495
-0.259896
-0.144236
-0.58496
0.615878
-0.170117
0.524225
-0.162214
0.764021
0.689532
0.00559861
-0.640933
0.574851
0.10461
-0.155278
0.0506681
0.499228
0.113008
-0.0155049
0.0860182
-0.0705133
0.0142106
-0.0142106
-0.816918
0.0213526
-0.0505341
0.0710251
-0.0875311
0.0875311
0.0134605
-0.00697352
0.685953
0.0542666
-0.308587
-0.0902598
-0.545543
-0.102955
-0.0716063
0.0716063
-0.0726794
0.082516
-0.082516
0.0334488
-0.0334488
-0.356091
-0.0769234
0.241579
0.0731364
0.0614297
-0.783167
-0.0770557
0.160961
0.0186836
-0.27231
0.0801412
-0.0801412
-0.457956
-0.0327002
0.231059
-0.0122481
0.00430424
-0.572236
0.630982
0.0229316
-0.095611
-0.0206834
-0.0491234
-0.00947809
-0.159279
0.168757
-0.148449
-0.231686
-0.084195
0.084195
0.0546916
-0.0546916
-0.0291361
-0.0940549
0.123191
0.0720323
-0.182507
-0.0231017
0.0169414
-0.157529
0.549179
-0.0261441
0.386455
0.0127175
0.0187525
-0.0580157
0.0580157
-0.697254
0.326121
-0.1229
-0.213701
-0.0199188
-0.0282425
0.0325467
0.217644
0.0568927
-0.00119591
0.00228224
0.0803337
0.0292248
0.0546579
0.106303
-0.0385851
0.0455724
0.00465193
0.00326288
0.00297163
0.0209848
-0.0239565
0.00131096
0.0182555
0.0277691
-0.0277691
0.0577757
-0.0408397
0.0408397
-0.200206
0.0220154
0.0205614
-0.0836345
0.0192382
0.0748286
-0.0748286
0.312205
-0.26079
0.112341
-0.0687753
-0.192015
-0.0158765
0.0158765
0.395304
0.268143
-0.539001
-0.078136
-0.0361866
0.53488
0.0513489
-0.0949202
-0.443276
0.101677
-0.152831
0.172375
-0.019544
-0.0456038
0.0456038
0.807895
-0.6085
-0.0199617
0.0212727
-0.00669537
-0.29162
-0.00237483
0.00333603
-0.0538851
-0.597902
0.578243
-0.610591
0.0125888
0.115311
0.0135906
0.0245668
-0.159526
-0.339415
0.255781
-0.0560586
0.0269225
0.16188
0.141954
0.259574
0.271095
-0.257504
0.00487064
-0.12974
-0.222172
0.0679513
-0.0132934
0.172762
-0.148195
-0.0683256
0.148659
-0.372436
0.139289
-0.12005
0.0528058
-0.474212
0.175711
0.1712
-0.239526
0.0170596
-0.176265
0.173891
0.00531262
0.143347
-0.0272411
0.0526571
0.471065
0.0118926
0.0245293
-0.00208181
0.0438215
-0.241716
-0.211454
0.576369
0.168579
0.0624792
0.0771253
-0.0583156
0.0714286
-0.0207605
-0.0294751
0.168381
-0.155792
0.0167343
-0.00302031
-0.110442
-0.0329187
0.0623067
0.237313
-0.0833312
0.0223052
-0.31083
-0.0171602
0.215426
0.154354
0.171767
0.0527115
0.097047
0.0495496
0.477414
-0.0193045
0.100344
0.0427685
0.0634277
-0.106196
-0.270859
-0.207065
0.0150504
-0.236899
0.295779
)
;

boundaryField
{
    FrontBack
    {
        type            empty;
    }
    Top
    {
        type            calculated;
        value           uniform 0;
    }
    In
    {
        type            calculated;
        value           uniform -1;
    }
    Bottom
    {
        type            calculated;
        value           uniform 0;
    }
    Out
    {
        type            calculated;
        value           nonuniform List<scalar> 10(1.02031 1.03354 1.02767 1.02599 1.01248 1.01607 1.01685 1.02714 0.907735 0.912214);
    }
    circle
    {
        type            calculated;
        value           uniform 0;
    }
}


// ************************************************************************* //
