/*--------------------------------*- C++ -*----------------------------------*\
| =========                 |                                                 |
| \\      /  F ield         | OpenFOAM: The Open Source CFD Toolbox           |
|  \\    /   O peration     | Version:  2412                                  |
|   \\  /    A nd           | Website:  www.openfoam.com                      |
|    \\/     M anipulation  |                                                 |
\*---------------------------------------------------------------------------*/
FoamFile
{
    version     2.0;
    format      ascii;
    arch        "LSB;label=32;scalar=64";
    class       volVectorField;
    location    "3";
    object      U;
}
// * * * * * * * * * * * * * * * * * * * * * * * * * * * * * * * * * * * * * //

dimensions      [0 1 -1 0 0 0 0];

internalField   nonuniform List<vector> 
808
(
(0.851805 -0.0241607 0)
(1.03769 0.00628172 0)
(1.01222 -0.00643501 0)
(1.08372 0.0226274 -2.25564e-21)
(1.46585 -0.23214 0)
(1.01177 -0.0211465 0)
(1.04526 -0.0121933 -6.93801e-21)
(1.02979 0.0065162 0)
(1.33228 -0.2072 3.04105e-20)
(1.18754 -0.0182378 -1.11834e-20)
(1.00542 0.00038854 7.14144e-21)
(1.38054 -0.199001 0)
(1.01171 -0.00219253 0)
(0.873541 -0.0235063 0)
(1.28903 -0.145893 2.23408e-20)
(1.03333 -0.0275875 0)
(1.09803 -0.141955 -6.76416e-21)
(1.02112 0.013311 -8.2546e-23)
(1.04193 -0.0105585 0)
(1.08673 0.0394645 0)
(1.02394 -0.016251 -9.96668e-21)
(0.93817 0.148927 9.31113e-20)
(0.995119 -0.0186846 -9.41364e-21)
(1.16826 -0.0195218 0)
(0.943944 0.197603 0)
(1.30452 -0.14603 -2.85854e-20)
(1.21213 -0.168131 1.42475e-20)
(1.0194 0.00332551 -3.39524e-21)
(1.02483 -0.0148695 0)
(1.04527 -0.0136947 -2.07786e-22)
(1.01123 0.0202896 3.09545e-24)
(1.13777 -0.0250793 0)
(1.07748 -0.0147018 0)
(1.01484 0.00224083 1.71636e-21)
(1.22192 0.064004 7.19041e-21)
(0.723751 -0.115452 9.98436e-20)
(0.924366 -0.0324654 -4.90725e-21)
(1.03935 -0.00539171 5.35494e-22)
(1.04587 0.0290344 -4.28463e-21)
(0.975183 -0.0160696 0)
(1.19782 0.060612 -1.27635e-20)
(1.19576 -0.105987 0)
(1.01758 -0.00119884 -5.83188e-21)
(1.02914 -0.00563027 9.6095e-21)
(1.20255 -0.222053 0)
(1.05805 0.0772405 -1.14074e-20)
(1.00479 -0.00277748 1.41341e-21)
(1.25376 -0.212179 2.48224e-20)
(1.03274 0.0289395 -9.35619e-21)
(1.35614 -0.108368 -4.39296e-20)
(1.01855 -0.0197052 1.24626e-20)
(1.18992 -0.10061 0)
(1.08348 0.00513667 5.47532e-21)
(1.0407 0.00926203 0)
(1.2373 0.146027 8.41225e-21)
(1.03295 0.0363739 -4.89723e-21)
(1.01007 0.000917132 0)
(1.0327 -0.0193774 2.85356e-21)
(1.19163 -0.077104 1.20048e-20)
(1.06087 -0.0224936 -2.27177e-21)
(0.241354 0.00783573 0)
(1.17309 -0.228551 -1.17063e-20)
(1.02196 -0.0156559 0)
(1.32017 0.0799962 -2.66884e-20)
(1.02081 -0.00812475 -9.94246e-21)
(1.04991 0.0392109 -6.88768e-21)
(1.46155 0.0104982 3.25223e-20)
(0.827498 -0.0289104 0)
(1.01648 -0.0340207 0)
(1.50114 -0.312656 0)
(0.995597 -0.0253031 -2.30163e-22)
(1.37335 -0.100107 -4.92086e-20)
(0.995452 -0.00876325 0)
(1.05883 -0.0215159 -3.66464e-21)
(1.16742 -0.311118 -4.61625e-20)
(1.02425 -0.0177592 -1.88895e-20)
(1.08168 0.0335375 -1.74081e-22)
(1.35571 0.461132 2.70085e-20)
(1.02834 0.00313603 0)
(1.01637 0.281873 -1.46685e-19)
(1.22753 -0.0909237 1.45285e-20)
(0.854572 0.0280488 0)
(1.01031 -0.00872019 -4.19021e-21)
(1.02897 -0.1385 3.69204e-21)
(1.01618 0.00373634 1.47688e-20)
(1.10374 0.0659367 3.41004e-22)
(1.38433 -0.212753 0)
(1.32084 0.220983 0)
(1.14336 -0.0996471 -1.43702e-20)
(1.39198 -0.111208 2.72745e-20)
(1.11765 -0.0855499 8.71442e-21)
(1.23679 -0.0689674 -1.52315e-21)
(0.907721 -0.02111 1.19418e-20)
(0.981503 -0.0470047 0)
(1.07149 0.0271709 7.77411e-22)
(1.41832 0.184738 -7.32437e-20)
(1.06054 -0.00330983 -3.36264e-21)
(1.17207 -0.107129 0)
(1.23247 -0.0024278 0)
(1.38566 0.064635 -5.26526e-20)
(1.00551 -0.0155043 -5.38899e-21)
(1.05151 0.0360496 -2.81561e-22)
(0.959318 -0.0326275 7.69894e-21)
(1.08629 0.0515215 2.04658e-22)
(1.16424 0.114063 -1.03745e-20)
(1.02943 -0.0277068 9.26141e-21)
(1.24767 -0.162443 0)
(1.01217 -0.0289541 0)
(1.05604 0.00226099 1.34105e-20)
(1.1867 -0.210264 -2.36713e-21)
(1.10482 0.08976 1.40264e-21)
(1.02137 0.029472 -1.03477e-19)
(1.01154 -0.00957563 -6.45316e-21)
(1.02257 0.0131535 5.2681e-21)
(1.0211 -0.00763429 0)
(0.899288 -0.0303379 6.73062e-20)
(1.09089 0.0901684 -8.59659e-21)
(1.49825 -0.222083 -2.27193e-20)
(1.02255 0.015455 -6.86318e-21)
(0.866197 -0.00759922 6.03218e-22)
(0.288814 0.201836 0)
(0.86104 -0.013014 4.39525e-22)
(0.843473 -0.0219127 0)
(1.14768 -0.00136217 -4.4377e-23)
(1.05181 0.0256294 0)
(1.28051 0.269738 1.49578e-20)
(1.05209 -0.0214508 -2.65864e-20)
(0.995785 0.0341706 1.96237e-21)
(1.18744 -0.081972 0)
(1.10872 -0.0237445 0)
(0.997935 0.114396 0)
(1.02589 0.00787146 -3.78445e-21)
(1.17154 0.100424 6.93783e-21)
(1.06952 0.114855 -1.89194e-20)
(1.01403 -0.0118009 0)
(1.08724 -0.00381579 -2.61958e-21)
(1.02616 0.00742925 1.67789e-21)
(1.06444 -0.0125809 -1.18874e-21)
(1.04244 0.021283 4.80971e-21)
(1.05404 0.0261728 2.36019e-22)
(0.11195 0.146205 0)
(1.1526 -0.0744342 -9.20462e-21)
(1.02328 -0.00229415 1.32554e-21)
(0.816728 0.0281265 -4.53497e-21)
(1.22267 0.0842229 -9.21609e-22)
(1.0162 0.00986843 2.57857e-21)
(1.05965 0.0767669 1.49458e-20)
(0.98427 0.022362 0)
(1.06525 -0.175009 1.56309e-20)
(1.02069 0.0106648 0)
(1.02567 0.03501 9.42679e-21)
(0.972125 0.278011 1.18279e-19)
(0.968883 0.0237462 0)
(0.818131 0.110354 0)
(-0.199436 0.00914439 -1.0607e-19)
(1.27266 0.000397757 -1.68068e-20)
(0.844461 0.0153591 0)
(1.35029 -0.16789 0)
(1.01263 0.0166459 0)
(1.26587 -0.0493665 1.60404e-20)
(-0.08406 -0.228516 0)
(-0.0549853 0.222074 5.25236e-20)
(1.2861 0.0691692 1.1503e-19)
(0.994637 -0.0298358 2.09824e-21)
(0.823378 -0.0413163 0)
(1.03739 -0.0185099 1.03775e-20)
(0.912799 0.050496 0)
(1.01198 0.0296224 -1.2418e-19)
(1.02352 0.0271842 1.5059e-20)
(0.994626 -0.00672655 3.32281e-21)
(1.06123 -0.031114 6.74194e-21)
(1.01995 0.0686834 -7.43861e-21)
(0.996567 0.014123 -2.56672e-21)
(1.16325 -0.316097 1.47998e-22)
(1.00046 -0.024181 0)
(1.04056 0.102154 -1.15943e-20)
(0.873676 0.044746 -5.61183e-21)
(1.31798 -0.111371 2.31311e-21)
(0.85717 0.0526744 0)
(1.16944 -0.128026 0)
(1.01933 0.0119846 2.64195e-21)
(1.36461 0.12112 1.39006e-20)
(1.0718 -0.0298906 4.29581e-21)
(1.01283 0.0258498 1.57314e-20)
(1.11988 -0.241825 -5.42486e-20)
(0.830354 0.00696719 1.12021e-20)
(1.10664 0.036535 6.80522e-21)
(1.29193 0.124793 -4.18011e-21)
(1.02735 -0.0147702 -4.56215e-21)
(1.23769 0.127548 3.58233e-21)
(-0.206338 -0.0280241 7.78744e-20)
(1.16292 0.130173 0)
(0.829505 0.0144604 0)
(1.09459 -0.0528858 -4.65153e-21)
(1.10037 0.0397444 9.50759e-21)
(0.391822 0.021339 0)
(0.996582 -0.0221884 4.66057e-22)
(1.01747 0.0015286 -3.16706e-21)
(0.992985 -0.0227044 2.04134e-21)
(1.09966 0.0593828 -5.65269e-21)
(0.962987 0.021263 2.886e-21)
(1.02603 0.0184537 2.79367e-21)
(1.04572 -0.0397172 0)
(0.465981 -0.0328628 0)
(1.03668 -0.0818272 0)
(1.32556 0.0211419 -4.21321e-20)
(-0.104309 -0.220617 6.11108e-20)
(1.02418 0.00625876 -1.61618e-23)
(1.02612 -0.00343392 0)
(0.849172 -0.00750719 -9.09578e-21)
(1.05234 -0.0209271 1.10914e-21)
(0.00934445 -0.0443812 -1.82886e-19)
(1.11187 0.209553 -6.19093e-20)
(0.831478 0.0172042 0)
(0.994509 -0.0124582 0)
(0.977296 0.00635211 9.09733e-21)
(1.1459 -0.0965858 7.19838e-21)
(1.30573 0.3604 1.50391e-20)
(1.01942 -0.0057029 -7.21511e-23)
(1.00183 -0.0178001 -4.29924e-21)
(1.04363 0.0103423 0)
(1.41084 0.380618 -6.71818e-20)
(0.842756 0.0148303 0)
(1.01186 -0.00722546 -4.09887e-21)
(1.00218 0.0351436 -2.02099e-21)
(0.801647 0.0120182 0)
(1.09158 0.000260583 0)
(0.473157 0.23512 -4.77069e-20)
(1.05531 -0.0235958 -4.93307e-21)
(1.02623 -0.0209721 2.14559e-21)
(1.00104 -0.0116863 0)
(0.78744 0.0353455 0)
(1.00541 -0.0242059 -3.79212e-21)
(0.789633 -0.0123433 -6.34405e-22)
(1.1823 -0.103491 1.75062e-22)
(1.00516 0.00205922 -2.20233e-21)
(1.03336 -0.0323315 -1.61512e-21)
(1.02197 0.00430846 8.24204e-23)
(1.02302 -0.00190646 6.79855e-23)
(0.780631 -0.0212505 5.29561e-21)
(1.01772 -0.00319185 1.95647e-22)
(1.02148 0.00109934 0)
(1.02351 0.0115424 0)
(0.820881 0.0428955 0)
(1.02996 -0.00102183 0)
(1.02404 -0.0119483 -1.57131e-21)
(1.02148 0.0026224 0)
(1.01451 -0.00528215 0)
(1.01862 -0.00350976 0)
(1.00379 0.0100599 0)
(-0.0346018 -0.0956761 6.00136e-20)
(1.03182 -0.00961344 1.13028e-21)
(1.00891 0.0027081 0)
(1.15606 0.151742 -1.75042e-21)
(1.04118 0.0114914 6.60555e-22)
(1.02029 0.0238167 4.47348e-21)
(0.991417 5.8983e-05 3.00404e-21)
(1.01852 0.00680518 0)
(0.805616 0.0299311 8.04345e-21)
(1.08981 0.0336595 7.23479e-21)
(0.998605 0.0244791 0)
(1.00238 -0.00311067 -1.18368e-21)
(1.03973 -0.0199857 -3.07668e-23)
(0.974966 0.00891588 -1.10811e-20)
(1.02733 -0.0157169 3.78476e-21)
(1.03292 0.0132071 -2.33207e-21)
(1.02853 0.00130352 0)
(1.01296 0.00348484 -1.56379e-20)
(1.02065 -0.0253655 -1.28204e-21)
(1.02212 0.0160597 4.8655e-21)
(0.980572 -0.00537617 0)
(-0.00702581 -0.0223196 0)
(1.0663 0.121548 -1.44241e-20)
(1.04489 -0.00762308 0)
(1.0799 -0.0733362 -9.89506e-21)
(0.978255 -0.00476045 3.92474e-22)
(0.998441 -0.0286345 2.24158e-21)
(1.0238 0.00958451 1.00462e-22)
(1.32889 0.221088 9.90837e-20)
(1.0389 -0.30944 4.66021e-20)
(0.998834 0.00946015 1.6147e-24)
(1.04886 -0.00289795 0)
(1.02227 0.0134782 0)
(0.831457 0.0115415 -2.26996e-20)
(1.12311 -0.21632 1.91938e-21)
(0.980353 0.0153041 0)
(1.01694 -0.00459361 7.01227e-21)
(0.982384 9.28999e-05 0)
(1.00844 -0.00903052 3.14167e-21)
(1.01235 0.0110214 -8.19661e-21)
(0.922435 -0.00580025 -6.28989e-21)
(1.01921 -0.00109509 0)
(1.00737 -0.0247253 -4.57767e-22)
(1.06085 0.0424775 2.46789e-21)
(0.995404 -0.0262426 -5.06349e-21)
(1.02946 0.00477663 -2.73816e-21)
(0.999601 0.0204536 0)
(1.11756 0.058715 0)
(1.03793 -0.0139564 4.07295e-21)
(1.04846 0.0126245 -3.17359e-21)
(1.01715 0.0166865 2.44456e-21)
(1.02128 -0.0103878 -2.19575e-21)
(1.04488 -0.0155643 3.15335e-22)
(1.05577 -0.00799645 0)
(0.463584 -0.146067 1.57897e-20)
(1.21942 -0.0593432 -1.90704e-20)
(1.02492 -0.0109644 -5.85921e-21)
(0.94359 -0.000857436 1.17166e-20)
(1.34462 -0.0206477 2.56119e-20)
(1.03404 -0.301003 5.3375e-20)
(1.00903 0.000736039 -4.19786e-21)
(1.0461 0.0168647 -8.27314e-22)
(-0.16681 -0.219085 -1.09449e-20)
(1.00526 -0.0355411 0)
(1.05081 -0.0769881 -1.30566e-20)
(0.887174 -0.0178751 5.42345e-21)
(1.00852 -0.00149988 4.35287e-21)
(1.03817 0.00543368 -8.03941e-22)
(0.830522 -0.0557052 2.66019e-21)
(1.42632 -0.335613 -1.51649e-20)
(1.00948 0.00502134 0)
(1.02768 0.00224817 -2.57355e-22)
(1.083 0.00399257 -1.7847e-21)
(1.02383 -0.027785 0)
(1.01601 0.0136248 -4.24867e-21)
(1.0239 -0.000681507 3.3729e-21)
(0.993768 0.00510441 1.22656e-20)
(1.03085 -0.0209861 -9.58695e-21)
(1.02114 -0.0021817 2.39968e-21)
(-0.130255 -0.00103515 0)
(0.919001 0.0142336 -2.39187e-20)
(1.02971 0.00356314 0)
(0.98744 0.0320473 -1.3424e-20)
(0.99847 0.0305749 0)
(1.05792 -0.00452136 4.14721e-21)
(1.05704 0.0238758 0)
(1.01851 0.0117647 0)
(1.31164 -0.00850444 1.86011e-20)
(0.773097 -0.0899483 0)
(1.01037 -0.00867445 1.38011e-20)
(1.02773 -0.00945833 6.00955e-22)
(1.01934 0.0137594 2.14481e-21)
(1.0878 -0.102492 4.08499e-21)
(1.18702 0.0230378 -1.25859e-20)
(1.01586 -0.0121401 8.53168e-21)
(0.988001 0.000266753 0)
(1.0557 -0.0257682 0)
(1.05001 0.0554905 1.51302e-21)
(1.0971 -0.0613859 0)
(1.53799 0.0959252 -3.57273e-20)
(1.02143 0.00994273 -1.74008e-23)
(0.993825 -0.0218321 1.21328e-20)
(1.08577 0.0815183 7.51381e-23)
(-0.0411307 0.0556162 0)
(-0.0533193 -0.165244 0)
(0.376325 0.136698 -6.14389e-20)
(-0.135119 -0.202695 0)
(1.00605 -0.0029942 -6.71827e-21)
(1.064 -0.0206634 -2.62368e-21)
(1.05299 -0.0257656 -7.3813e-21)
(1.01491 -0.0352275 -8.75339e-22)
(1.09258 -0.0330041 0)
(1.01587 0.0228953 -1.53225e-21)
(0.987131 -0.0117699 0)
(1.02245 0.000164358 6.24148e-22)
(0.573608 -0.114103 0)
(1.01168 -0.0152259 -2.75777e-22)
(1.03892 0.0292294 0)
(0.969972 0.00791475 0)
(0.942472 0.353625 1.31704e-20)
(1.00266 -0.00222483 -1.32126e-21)
(1.02538 -0.00785839 1.65201e-21)
(1.00966 0.0361516 -6.76258e-21)
(0.417529 -0.0811828 0)
(1.00457 -0.00623418 -1.49807e-20)
(1.05343 0.044768 6.99828e-21)
(1.0299 0.00217096 8.04719e-22)
(0.992304 -0.0190844 6.79173e-21)
(-0.196125 -0.0938003 -1.26999e-19)
(1.02621 0.0200319 0)
(-0.0339182 0.0636998 0)
(1.04938 0.0364935 1.00581e-20)
(0.97929 0.000403496 -7.30838e-21)
(1.00761 -0.028986 -7.23261e-21)
(1.01826 -0.0235051 0)
(1.00774 -0.00479806 5.51523e-21)
(1.01855 -0.165386 -1.49194e-20)
(0.67806 -0.0308339 -1.19222e-20)
(1.05079 -0.032515 -4.00656e-21)
(1.03038 -0.0323507 -6.02155e-22)
(0.911959 -0.0588258 -3.01545e-21)
(1.01712 -0.0405247 -1.71992e-20)
(1.04352 0.0511746 0)
(1.01005 0.00334326 0)
(1.0586 -0.0154002 -3.90754e-21)
(1.03458 0.0451011 -6.32575e-21)
(0.89267 -0.104749 3.92242e-20)
(1.12685 -0.143148 -6.2536e-21)
(1.03636 0.000437646 1.00606e-20)
(0.778343 0.0121153 5.59902e-21)
(0.956506 0.365602 -2.86351e-20)
(0.722195 -0.136335 -2.30129e-20)
(1.13909 0.179405 -6.8346e-21)
(1.24926 -0.451232 8.57368e-21)
(1.11184 0.112784 -1.71007e-21)
(1.06263 -0.0371898 4.63088e-21)
(0.919455 -0.23589 8.39344e-20)
(0.547035 0.187444 0)
(0.994167 0.0171987 -2.51181e-22)
(0.80786 0.0342906 1.9766e-20)
(1.01661 0.0384597 -8.70292e-21)
(1.01546 -0.00420066 5.99781e-21)
(1.07824 0.000481839 0)
(0.977905 -0.0284373 0)
(1.14798 0.0132435 0)
(1.00454 0.0473133 6.927e-21)
(1.12301 0.0886434 -4.62289e-21)
(1.04141 -0.0291991 6.01119e-21)
(0.828935 0.0131424 0)
(0.912435 0.00672396 0)
(0.920231 -0.00493107 1.00825e-22)
(0.831138 -0.0043403 0)
(1.00184 -0.0150928 0)
(1.00512 0.0439143 2.09674e-20)
(0.947347 -0.0290083 0)
(1.05183 0.00370134 0)
(1.02691 -0.00658933 0)
(1.14764 0.152199 1.0494e-20)
(1.07288 0.05491 -3.96732e-21)
(0.984989 -0.0290691 7.17819e-21)
(1.35632 -0.380588 -1.27441e-19)
(0.939974 -0.0598075 -1.51873e-20)
(1.02456 0.0258673 4.97273e-21)
(1.03168 0.0227102 0)
(0.602143 -0.0127836 0)
(-0.0128615 0.168886 0)
(1.04999 -0.0300229 6.18178e-21)
(1.33888 -0.261407 -4.58981e-20)
(1.02619 0.065107 0)
(1.02715 -0.00493659 -8.47808e-21)
(0.737845 -0.220723 0)
(1.46618 -0.0856529 9.00001e-20)
(0.414318 0.521752 7.86082e-20)
(0.399414 -0.063535 0)
(1.17347 -0.265419 1.36808e-19)
(0.875476 0.315389 0)
(0.870757 0.00444643 -1.49869e-21)
(1.03942 0.0755077 0)
(0.28445 0.260072 1.81707e-20)
(0.983577 -0.0672379 0)
(1.03302 -0.0659778 5.8925e-21)
(-0.390502 -0.0933699 -1.17045e-20)
(1.03212 -0.015234 2.78006e-21)
(1.00772 -0.0164788 -6.4191e-21)
(0.549333 -0.492486 -8.23087e-20)
(1.02681 0.0217255 -1.14942e-21)
(1.16571 -0.148151 3.27183e-22)
(1.10017 0.206906 -3.09103e-21)
(1.04059 -0.0782137 1.14106e-20)
(1.03719 -0.0263784 1.29896e-21)
(0.364351 -0.256641 -7.81156e-21)
(0.252698 0.0526187 -1.19161e-20)
(1.00142 0.0197184 2.31172e-21)
(1.04656 -0.0987008 0)
(1.00137 -0.00431901 -4.85175e-21)
(1.44206 -0.397157 1.01731e-19)
(1.09549 -0.0589839 -7.81782e-20)
(1.4734 -0.0090443 9.4795e-20)
(1.04965 -0.00237039 5.64883e-21)
(1.00036 -0.0105198 1.3961e-20)
(1.03193 0.000475141 0)
(1.09947 0.0833616 0)
(1.02144 -0.0517402 -6.22747e-21)
(1.09151 -0.0259373 -3.37486e-21)
(1.0126 -0.0455911 -1.18373e-20)
(1.05619 0.0252551 -7.18452e-21)
(1.29372 0.176624 -3.29919e-20)
(0.684833 0.00652086 0)
(0.999433 -0.0320924 1.40184e-20)
(1.06602 0.105853 0)
(1.05495 0.0222179 -5.48223e-21)
(1.15144 0.0336729 0)
(1.04304 -0.00159033 1.12314e-20)
(1.16366 -0.0327517 1.46579e-20)
(1.01229 0.0131702 0)
(0.0827689 -0.027641 1.88492e-19)
(0.870086 -0.205256 -6.58314e-20)
(1.33355 0.282422 -2.4131e-20)
(-0.338167 -0.0695667 5.79751e-20)
(1.06823 0.0423133 -8.33686e-23)
(1.02103 0.000864836 -3.43888e-22)
(-0.236999 0.00414594 -6.03522e-20)
(-0.0669457 0.13633 -3.75877e-20)
(1.03365 -0.00792098 0)
(-0.0309683 -0.0538575 0)
(1.08076 0.223019 0)
(0.108395 -0.0956736 0)
(1.12243 -0.0080184 0)
(0.182608 0.0354168 0)
(1.04341 0.0391634 0)
(1.01357 0.131713 0)
(1.00015 0.0424592 -4.25565e-21)
(0.605286 -0.290276 -2.47311e-20)
(-0.343185 -0.0829985 0)
(1.3151 -0.0283211 8.14129e-20)
(1.01303 0.0168912 1.48157e-21)
(1.17131 0.264434 0)
(-0.0383386 -0.0487374 0)
(1.14352 -0.035174 1.33842e-21)
(1.10219 -0.0465105 1.4664e-22)
(1.19418 0.368347 0)
(0.453292 -0.109083 8.2915e-20)
(1.14186 0.06473 3.87931e-22)
(0.285962 -0.0542907 -6.27083e-20)
(-0.0598315 0.0549357 -4.69503e-20)
(-0.0183416 0.0522886 1.18247e-19)
(0.886931 0.152898 -2.15705e-20)
(1.00548 -0.00548042 3.23626e-22)
(1.05715 0.01846 -1.31112e-20)
(0.996593 -0.0188744 0)
(1.0647 -0.0509602 -1.76458e-20)
(1.05616 0.0406924 4.26409e-21)
(-0.0341098 -0.0236014 1.24713e-19)
(1.027 -0.0618143 -5.03317e-20)
(0.993364 0.00562831 8.63033e-21)
(1.01856 -0.0136739 -1.66134e-21)
(0.1044 -0.0348934 4.19613e-20)
(0.300843 -0.0374996 -5.82175e-20)
(0.603191 -0.0352365 -7.53383e-20)
(1.01523 0.0427714 1.11133e-20)
(-0.0588282 -0.0465047 0)
(1.00819 0.0129438 5.46056e-21)
(1.01589 -0.0347504 1.81076e-20)
(1.00834 -0.0461367 -1.74602e-20)
(1.2143 0.285668 0)
(1.47985 -0.168161 9.13064e-20)
(1.03533 0.0264505 -1.15982e-21)
(-0.0368739 -0.0820388 -4.20912e-20)
(0.697986 -0.0314036 0)
(1.00272 0.0137294 -2.1815e-21)
(1.0505 0.0368445 3.30873e-21)
(1.03023 -0.295092 -7.18615e-21)
(1.0998 -0.0457411 -1.33086e-21)
(1.16971 0.0210984 0)
(1.25177 -0.151523 -1.79993e-20)
(-0.188685 -0.129853 -1.03607e-19)
(1.21754 0.136947 1.57729e-20)
(1.09555 0.205859 -8.40475e-21)
(1.04735 -0.0106201 8.21667e-21)
(-0.0472735 -0.111691 2.01643e-20)
(-0.0385359 0.0999184 -9.5549e-20)
(1.04286 0.350426 0)
(0.918579 0.214721 0)
(1.16172 0.0629906 -5.39147e-21)
(1.04538 0.032607 8.21118e-21)
(0.999055 -0.00722251 0)
(1.03604 0.285852 5.96322e-20)
(0.975394 0.0357278 -1.66835e-20)
(1.10933 0.124514 0)
(1.04127 0.0277309 0)
(1.06259 0.1713 0)
(1.01468 0.0155112 0)
(0.993251 -0.00157725 1.73016e-21)
(-0.041522 0.0551488 5.12903e-20)
(0.998971 0.0257892 3.84995e-21)
(1.4816 -0.125107 -1.03601e-19)
(1.06118 0.00666954 -3.20309e-21)
(0.260786 -0.23197 0)
(1.01346 -0.0167393 0)
(0.941288 -0.0165549 -2.81669e-21)
(0.691063 -0.000585537 -8.32249e-20)
(0.125253 0.0309648 6.61537e-20)
(1.03804 0.00396574 1.0357e-21)
(0.803483 -0.277526 0)
(0.761814 -0.0929517 0)
(0.96727 -0.00871376 0)
(0.548939 0.519734 4.29493e-20)
(-0.0426579 0.105548 -4.28302e-20)
(0.995868 0.00676226 -1.90378e-21)
(-0.0689298 -0.109901 8.1178e-20)
(0.999149 0.000358887 1.92753e-21)
(1.16067 0.289483 5.89588e-21)
(1.15964 -0.128069 5.99323e-21)
(0.582494 -0.230368 9.04675e-21)
(0.998363 -0.00175939 2.93737e-21)
(1.01529 -0.0125148 0)
(0.602662 0.283744 0)
(1.02285 -0.0111836 2.3963e-21)
(-0.388718 0.00670734 0)
(0.873678 0.0208173 3.09412e-21)
(0.60985 -0.412582 -3.75462e-21)
(0.30858 0.0506066 -1.47313e-19)
(1.14288 -0.229875 1.87748e-20)
(1.05835 0.352891 7.59051e-21)
(0.945827 0.0251482 0)
(1.05343 -0.00155215 1.00369e-22)
(0.939876 0.0237989 0)
(1.03861 -0.00780477 -1.24913e-22)
(0.539689 -0.0149229 0)
(0.710313 0.132237 0)
(0.981981 -0.00416663 -6.17493e-21)
(1.455 0.0539487 -1.82666e-20)
(1.03881 -0.0154595 1.5859e-21)
(0.514351 -0.477449 0)
(1.10477 -0.198065 3.27918e-22)
(0.806544 0.385731 5.84492e-20)
(-0.0168994 0.0143442 1.67751e-21)
(1.12184 -0.0790113 5.0341e-21)
(1.13843 -0.0697758 -1.11166e-20)
(0.986717 0.0108506 7.4292e-22)
(0.97742 0.0323867 -2.83215e-21)
(0.107979 0.0177671 5.39784e-20)
(-0.0707312 0.0185073 -7.01015e-20)
(-0.365501 -0.0307022 0)
(-0.188492 -0.0197004 0)
(1.20034 -0.586053 3.63276e-20)
(1.02334 -0.0138947 -1.26744e-21)
(0.923131 -0.462954 -5.08653e-20)
(1.00339 0.0230691 -1.23143e-20)
(1.44765 0.11122 4.74378e-20)
(0.626259 0.43145 0)
(0.246519 0.416581 -9.64614e-20)
(0.597506 0.486862 0)
(0.339803 -0.124277 0)
(1.13871 -0.435434 0)
(-0.123257 0.140897 -1.58511e-21)
(1.1368 0.0581567 0)
(0.967825 0.0796654 1.97044e-20)
(0.601658 0.694467 2.09938e-20)
(1.0113 0.100841 -1.02598e-20)
(-0.0332044 -0.228103 -1.45743e-19)
(0.964947 0.0586967 2.28861e-20)
(0.518909 0.153301 -1.75856e-20)
(1.17059 -0.00461044 0)
(1.41228 0.301728 5.77491e-20)
(1.2533 0.551091 2.48179e-20)
(0.273456 -0.0466692 -3.21688e-20)
(1.24129 0.0187349 4.66019e-20)
(0.99996 -0.0127311 3.30991e-21)
(0.986293 0.0206645 -9.38535e-22)
(0.00403788 -0.0550438 0)
(0.622478 -0.623936 -2.65066e-20)
(0.612947 0.211831 0)
(0.295903 -0.120428 0)
(-0.0543569 0.129583 0)
(0.0153266 -0.207102 -5.8175e-20)
(1.1292 -0.0742302 -5.80943e-21)
(0.019984 0.139851 0)
(-0.0596861 0.17509 0)
(1.40232 -0.0253744 -8.87083e-20)
(-0.0319495 -0.161635 6.48135e-20)
(0.114687 0.235901 -9.01831e-20)
(0.539357 0.00752016 0)
(0.163482 -0.264464 7.3787e-20)
(1.18394 -0.232763 0)
(1.01749 -0.2741 0)
(0.0708709 -0.19397 1.41885e-19)
(1.12536 0.0135886 -3.10762e-23)
(1.16292 0.326599 1.7175e-20)
(0.347567 0.0250377 6.25852e-20)
(0.390696 -0.496124 -3.02393e-20)
(1.50893 -0.0700175 0)
(1.38955 0.124427 3.06679e-20)
(1.33018 0.156624 -3.76296e-20)
(0.100502 0.0931314 -2.1267e-20)
(-0.182572 0.0517335 0)
(1.0441 -0.0353732 -1.58746e-20)
(1.14108 -0.187803 -9.27604e-21)
(0.561619 -0.382272 0)
(1.08984 -0.144284 -2.26727e-20)
(0.0881247 -0.128728 0)
(0.85249 0.0147367 0)
(1.23396 0.184255 1.4597e-20)
(1.01139 0.0332491 2.17194e-22)
(1.09226 0.734694 -1.38314e-21)
(0.216847 -0.361417 1.17439e-19)
(1.00745 0.0410236 -8.23423e-22)
(1.18777 0.000478099 2.89325e-21)
(-0.0839815 0.211047 4.54063e-20)
(0.804439 0.736957 1.1589e-20)
(1.38778 -0.319711 -1.40589e-20)
(0.475959 0.28832 3.86622e-20)
(1.00173 0.019546 0)
(0.566751 -0.258259 -8.03289e-21)
(0.907717 -0.620921 3.38743e-21)
(0.934823 0.648961 -3.89933e-20)
(0.657351 -0.0227841 -7.77807e-20)
(1.06023 -0.0179355 -6.25673e-21)
(1.09257 -0.0664928 5.65147e-21)
(1.05451 0.038604 5.93205e-21)
(1.14425 0.122823 -2.12062e-22)
(1.10025 -0.112306 0)
(1.07839 0.0648019 2.10976e-20)
(0.945304 0.467357 0)
(1.01576 0.0562111 -5.01782e-21)
(1.1888 0.0522961 -3.56889e-21)
(0.835413 0.269644 0)
(0.617447 0.112641 1.40508e-19)
(0.905107 0.714723 -7.67677e-22)
(1.1099 0.270374 -1.31901e-20)
(1.03434 0.032534 9.61835e-21)
(0.415488 0.497004 0)
(1.32031 -0.419032 0)
(1.0667 -0.320075 1.88585e-21)
(1.31879 0.487492 0)
(0.0140665 0.0696978 -6.12712e-20)
(1.31376 -0.377345 -2.63678e-20)
(1.19126 0.492262 0)
(0.449542 0.226371 1.52174e-19)
(1.21255 0.306658 -1.60677e-19)
(0.790872 -0.600909 -2.14937e-20)
(1.06934 0.039878 3.39117e-21)
(1.04198 0.143086 1.13603e-19)
(1.07221 0.206706 2.89194e-20)
(1.09685 0.701868 -5.89573e-21)
(0.876954 -0.415766 5.65352e-20)
(1.36667 0.0471545 5.2684e-20)
(1.10255 0.000673562 -5.98783e-22)
(0.0196597 -0.116427 1.17267e-19)
(1.07805 -0.669489 3.80094e-20)
(0.853018 -0.688919 4.19815e-20)
(0.240992 -0.31046 0)
(0.984234 -0.137342 6.13959e-20)
(0.362149 0.31697 -3.95313e-19)
(-0.118505 0.00183982 3.46855e-20)
(0.462602 0.0429644 3.39356e-20)
(0.779319 -0.0557759 -9.04101e-20)
(1.09827 0.523845 0)
(1.00108 0.208831 6.33319e-20)
(1.03939 -0.0260222 1.80904e-21)
(0.915325 0.44883 -7.53654e-20)
(0.772019 -0.698771 -6.47088e-21)
(0.904144 0.0183167 -4.35109e-20)
(0.988706 0.488082 0)
(0.997382 0.0680415 8.80154e-21)
(1.39045 -0.462996 1.64928e-20)
(1.28118 -0.312199 1.15115e-20)
(-0.0882243 -0.088065 3.08148e-20)
(0.188659 0.0162022 -1.65228e-20)
(0.96169 -0.110094 -5.20496e-20)
(0.35418 0.527626 0)
(0.932078 0.0297876 3.46716e-20)
(1.19813 0.630918 1.11892e-19)
(-0.0965137 -0.0883909 2.20208e-19)
(-0.118789 0.187284 -3.94815e-20)
(-0.282461 -0.13172 5.49066e-20)
(1.07788 0.0127439 -2.18871e-21)
(1.17336 -0.446251 0)
(1.05262 -0.689837 -2.94251e-20)
(0.699886 0.359103 0)
(0.161065 -0.0888359 -1.62672e-19)
(1.0231 0.00866619 2.47795e-21)
(-0.115265 -0.147258 -3.75133e-20)
(1.0105 0.0601357 -1.35406e-20)
(0.173428 0.03126 7.95012e-20)
(1.01415 0.11243 0)
(1.25566 0.195502 3.22516e-20)
(0.224079 0.0764198 -3.85126e-20)
(-0.396034 -0.137868 -3.65744e-20)
(-0.377006 0.0632492 0)
(0.111905 -0.0263998 0)
(1.21684 0.159687 -1.13024e-20)
(0.456144 -0.0077643 1.87654e-19)
(1.26821 -0.68414 -3.59606e-20)
(1.03498 -0.326056 5.93252e-21)
(1.03253 0.241927 -1.60435e-20)
(0.351952 -0.530204 1.26032e-19)
(1.5887 0.172262 -4.75673e-20)
(0.149305 -0.16277 4.66084e-20)
(0.207676 0.309734 1.76551e-19)
(0.1737 -0.0934602 -1.71638e-19)
(0.936698 -0.467292 -3.89076e-20)
(1.52548 0.337042 5.0012e-20)
(0.548591 -0.646672 4.29445e-20)
(1.12387 -0.0938126 -6.38515e-21)
(0.621294 0.0917222 8.85271e-20)
(1.31031 0.266117 -6.82983e-20)
(0.664968 0.645603 -3.28116e-20)
(1.36194 -0.590631 0)
(1.49651 0.490092 4.50255e-20)
(1.04253 -0.494231 -1.26303e-20)
(1.43852 0.584618 -1.46163e-19)
(1.06234 0.0258075 0)
(-0.0472946 0.187571 0)
(1.27889 0.715534 0)
(1.02408 0.0183446 -4.49921e-21)
(0.70802 -0.286075 -1.861e-19)
(0.462969 -0.0672162 0)
(-0.0416424 0.233209 -3.84311e-20)
(1.05977 -0.218559 8.41737e-20)
(-0.209325 0.0374046 0)
(0.313746 0.0391213 1.11639e-20)
(1.04043 0.040896 0)
(1.52468 0.208883 0)
(1.0585 0.0349144 -3.63099e-21)
(0.349853 -0.272314 0)
(1.02582 0.191448 2.58021e-20)
(1.40129 0.238087 0)
(-0.156661 0.137554 -2.99359e-21)
(0.793659 -0.382738 0)
(1.54486 0.254922 -7.34441e-20)
(1.28738 0.342951 -1.31254e-20)
(0.846816 0.643414 -7.86795e-21)
(1.05627 0.163655 -7.00204e-20)
(1.01447 -0.201209 -4.07929e-20)
(1.50108 0.219354 4.26209e-20)
(1.2272 -0.0507273 0)
(0.552708 -0.061527 0)
)
;

boundaryField
{
    FrontBack
    {
        type            empty;
    }
    Top
    {
        type            noSlip;
    }
    In
    {
        type            fixedValue;
        value           uniform (1 0 0);
    }
    Bottom
    {
        type            noSlip;
    }
    Out
    {
        type            zeroGradient;
    }
    circle
    {
        type            noSlip;
    }
}


// ************************************************************************* //
