/*--------------------------------*- C++ -*----------------------------------*\
| =========                 |                                                 |
| \\      /  F ield         | OpenFOAM: The Open Source CFD Toolbox           |
|  \\    /   O peration     | Version:  2412                                  |
|   \\  /    A nd           | Website:  www.openfoam.com                      |
|    \\/     M anipulation  |                                                 |
\*---------------------------------------------------------------------------*/
FoamFile
{
    version     2.0;
    format      ascii;
    arch        "LSB;label=32;scalar=64";
    class       volScalarField;
    location    "582";
    object      yPlus;
}
// * * * * * * * * * * * * * * * * * * * * * * * * * * * * * * * * * * * * * //

dimensions      [0 0 0 0 0 0 0];

internalField   uniform 0;

boundaryField
{
    FrontBack
    {
        type            empty;
    }
    Top
    {
        type            calculated;
        value           nonuniform List<scalar> 
15
(
142.2889985044239
133.5768938628711
138.0625489758857
144.3974578142872
159.7626626536253
131.366789008076
140.1276104934114
135.3480000149184
153.4551117073989
135.7241923750856
136.084877646243
136.7748258421892
125.2633319411757
132.9125997699037
123.9569024955482
)
;
    }
    In
    {
        type            calculated;
        value           uniform 0;
    }
    Bottom
    {
        type            calculated;
        value           nonuniform List<scalar> 
15
(
155.5678959301023
158.1184916315049
141.0940400503993
142.0493206622492
141.1813144057168
148.4344473040915
142.7067985611754
143.1489040840958
143.4212851308864
134.0639534286343
125.7293365579323
141.5596525847784
122.4055062543985
123.4853787775429
124.1333387013504
)
;
    }
    Out
    {
        type            calculated;
        value           uniform 0;
    }
    circle
    {
        type            calculated;
        value           nonuniform List<scalar> 
32
(
55.99961951563619
21.92251621468538
65.22164035341092
25.79036139026131
20.21852485716496
56.23287389568104
56.59815022824155
23.75513086639784
22.17232657979085
65.46421561959764
39.77542108183653
62.90781053854871
50.64931833016355
17.598017034282
22.74301430364462
18.12566876085428
39.35328572312999
59.82532724483833
61.06638160085971
25.23329592982253
65.79730245417326
63.75658758251815
63.10100197304218
59.86272732672965
64.16348581035034
46.01534627219966
66.4635014156745
32.14086481539838
37.91633590650883
55.688170490217
21.20877147618783
43.08964349666203
)
;
    }
}


// ************************************************************************* //
