/*--------------------------------*- C++ -*----------------------------------*\
| =========                 |                                                 |
| \\      /  F ield         | OpenFOAM: The Open Source CFD Toolbox           |
|  \\    /   O peration     | Version:  2412                                  |
|   \\  /    A nd           | Website:  www.openfoam.com                      |
|    \\/     M anipulation  |                                                 |
\*---------------------------------------------------------------------------*/
FoamFile
{
    version     2.0;
    format      ascii;
    arch        "LSB;label=32;scalar=64";
    class       volScalarField;
    location    "48.3";
    object      p;
}
// * * * * * * * * * * * * * * * * * * * * * * * * * * * * * * * * * * * * * //

dimensions      [0 2 -2 0 0 0 0];

internalField   nonuniform List<scalar> 
808
(
0.123892
0.0440945
-0.00944762
0.122546
-0.277382
0.0408366
0.0367532
0.0319207
-0.146119
-0.00849868
0.0142317
-0.173518
0.0298662
0.0374512
-0.298296
0.0264995
-0.335308
0.0354785
0.0497277
0.0319617
0.056155
0.377826
0.0867335
0.00687043
0.457523
-0.169593
-0.0729811
0.0163758
0.0441261
0.0381817
0.027704
0.0368609
0.0384318
0.0313631
-0.0537718
0.618731
0.0392143
0.0448585
0.0413667
0.0303218
-0.0259928
-0.06676
0.0535921
0.0401653
-0.21265
0.103146
0.0434708
-0.0119791
0.0360811
-0.181519
0.037378
0.0249317
0.0622482
0.0266922
-0.0724599
0.0338028
0.0126386
0.0205349
-0.0152492
0.0331419
-0.391299
-0.0110694
0.0407108
-0.134817
0.0375623
0.06298
-0.262029
0.0290762
0.0382115
-0.336817
0.0397933
-0.387177
0.0368113
0.0447846
0.162567
0.0485358
0.0278714
-0.0671517
0.0345442
0.317221
-0.116415
0.0371515
0.053747
0.262601
0.0587612
0.00993816
-0.42768
-0.0941109
0.0452073
-0.203985
0.0511482
-0.100807
0.260184
0.168262
0.0547184
-0.150824
0.0217257
-0.136136
-0.0941491
-0.168487
0.0409491
0.0316265
0.0553061
0.0186679
-0.00986906
0.0746656
-0.265798
-0.00201019
0.0360787
0.00810449
-0.0105907
0.33305
0.0396832
0.0430424
0.0335423
0.442907
0.0379014
-0.319472
0.0384367
0.069637
-0.237283
0.0568633
0.0373528
0.0687288
0.121446
-0.0393043
0.106713
0.0166778
0.0353396
0.0818038
-0.283327
0.032135
-0.0149857
0.131333
0.0388989
0.0353326
0.0819991
0.0375085
0.0445057
0.034013
-0.276121
0.0531665
0.0311254
0.0385151
-0.0200214
0.0714697
0.102486
0.156116
-0.000446006
0.035021
0.0390636
0.345112
0.0498985
0.53444
-0.306015
-0.0850686
0.0400115
-0.232826
0.0768488
-0.103919
-0.372783
-0.281842
-0.334537
0.0424846
0.0766593
0.0392392
0.0440318
-0.355978
0.037247
0.0364768
0.0539514
0.1682
0.0486809
0.100989
0.0467187
0.0767336
0.0844817
-0.152452
0.0437351
-0.425357
0.0347474
-0.130047
0.0388056
0.253597
-0.414411
0.131048
0.0388757
-0.0881705
0.0430968
-0.0556589
-0.288776
-0.0236674
0.037847
0.0833351
0.040407
-0.259557
0.0396719
0.0347123
0.000152283
0.0921865
0.0768998
0.0301017
0.0374505
-0.414815
0.372689
-0.249088
-0.35672
0.0167633
-0.0289012
0.039968
-0.0281584
-0.492311
-0.184614
0.0431133
-0.0544633
0.0388388
-0.401459
-0.030201
-0.0512706
0.0327275
-0.0477715
-0.0778885
0.0396555
0.0358157
0.0122737
0.0402926
0.138352
-0.19178
-0.00692722
0.0362678
0.12926
0.033505
0.0348294
0.0288876
-0.113449
-0.0226463
0.0116454
-0.0057571
-0.0449146
0.0186082
-0.0158187
-0.0075635
-0.0404887
0.00758174
0.00137108
0.00871012
0.000965065
-0.00100622
-0.0265898
0.0962662
-0.38096
0.0251633
0.0358836
-0.00965008
0.0309193
0.0286055
0.0358897
-0.00448828
0.0355153
0.13558
0.0375198
0.00374627
0.0245007
-0.0666822
0.0318938
0.0312602
0.0132787
0.0565718
0.00465108
-0.013113
-0.0539596
-0.490233
0.278789
0.0526011
-0.020557
0.0324408
0.0241683
0.0359236
-0.0900582
0.255636
0.0366198
-0.0364701
-0.0530424
0.0938358
-0.152866
0.0448568
0.0187889
-0.0194327
0.000290811
0.028757
0.043675
0.0405934
-0.0109334
-0.0134572
0.0109957
0.0230283
-0.0202347
0.0699537
0.0468225
0.02375
0.00516214
0.0282073
-0.0368178
0.0290092
-0.573152
-0.0818192
0.00739518
-0.120875
-0.166317
-0.4246
0.0678938
0.0313502
-0.356914
0.128765
0.151652
0.0439618
0.0476849
0.00982759
0.010021
-0.264974
0.070175
0.00632976
0.0489295
0.0427539
-0.00964243
0.0569462
-0.0421534
0.0325189
-0.00239432
-0.31701
-0.144511
0.0219178
-0.124176
-0.0589006
0.0323176
0.237823
0.0566112
-0.133481
0.539411
-0.0496555
0.011207
0.0467921
-0.0220657
-0.0353093
-0.0327405
0.0570644
0.0477872
0.0603512
-0.0277515
-0.237135
-0.0503331
0.116939
0.00314347
-0.306109
-0.366681
-0.259974
-0.366105
-0.0681464
0.0437976
0.0562993
0.0668748
0.00779871
0.0191423
0.0539016
0.0185243
-0.570983
-0.0733902
0.0478004
0.0275373
0.0144023
-0.0308449
0.0178549
0.115803
-0.421081
-0.0256478
0.000606407
-0.035302
0.0614626
-0.327823
0.0225383
-0.294413
0.0203704
0.0199054
0.0282204
0.0370057
0.0383998
-0.00116445
-0.426068
0.0293487
0.0541269
0.00830094
0.111296
0.0248952
0.038957
0.0449574
0.0164873
0.0728873
0.0308401
0.0239356
0.0399284
-0.0188573
-0.197952
0.0731885
-0.0390324
-0.0116983
0.0206657
0.411664
-0.209429
-0.016486
0.00416909
0.0287253
0.0146534
0.0476887
0.10459
0.0119368
-0.101171
-0.00925836
0.0375437
-0.00153811
-0.00457248
-0.00970021
-0.00858789
0.0261316
0.115819
0.0470505
0.0219638
0.0284602
0.0319196
0.00246594
0.0478816
-0.428738
0.0648028
0.0651113
-0.00868766
-0.211072
-0.332204
0.0175701
-0.110944
-0.0333409
0.0502001
-0.304377
-0.241759
0.221883
-0.406023
-0.518278
0.00134741
-0.151718
-0.0242137
-0.213377
0.34408
0.0287225
-0.338953
0.0298068
0.000629696
0.564451
0.0317029
0.0138473
0.0575365
0.0473366
0.0162186
-0.465098
-0.274372
0.0581175
0.0684017
0.0372008
-0.304723
-0.374836
-0.228444
0.0490318
0.0923888
0.107468
0.0131961
0.0524441
0.0927967
0.0994203
0.0423009
-0.0774636
-0.26874
0.0720615
-0.0190842
0.0414461
0.0243412
0.0849675
-0.0372242
0.020108
-0.550475
0.440659
-0.0540474
-0.323799
0.0183639
-0.0331419
-0.310802
-0.300686
0.12122
-0.412268
-0.00576442
0.863615
0.0344532
-0.447185
0.0304703
-0.0654281
-0.0095175
-0.507127
-0.333188
-0.364277
0.0356461
0.0222301
-0.449388
0.00942242
-0.00220242
0.108267
-0.405653
0.0419984
-0.576367
-0.30427
-0.36601
-0.10216
-0.0457044
0.0228523
0.120213
0.122917
0.0078757
-0.320332
0.297264
0.02943
0.013684
-0.525528
-0.576882
-0.415717
-0.0182828
-0.434037
0.00761005
0.166951
0.155372
0.00164078
-0.263432
0.0125455
-0.34788
-0.265006
0.0098917
0.0264682
-0.336989
0.011236
0.0466586
-0.454011
-0.364031
-0.0315625
0.112597
0.046506
-0.400431
-0.29391
-0.00607141
-0.037961
0.0532771
0.112698
0.021606
-0.128621
-0.267971
0.11265
0.0482147
-0.0141752
0.0369488
0.0705562
-0.309447
-0.00128937
-0.297623
0.0736619
-0.498482
0.0779868
0.00151946
-0.344293
-0.438334
0.00792731
-0.526158
-0.540094
0.0408708
-0.0765414
-0.297931
0.037452
-0.329685
0.0220557
0.0910099
0.0663982
-0.52814
0.0482609
0.0705046
-0.447584
-0.0107611
-0.33992
0.0393581
-0.351167
-0.495739
0.0836393
0.277785
0.43668
-0.0448967
0.0056515
0.00103455
-0.429017
0.645532
0.0384444
-0.204882
0.0398716
-0.0936436
0.0744025
0.488839
-0.348706
-0.0220307
-0.026082
0.0298157
0.0371422
-0.43484
-0.309598
-0.329248
-0.381448
-0.314325
0.0256604
-0.400292
-0.0256807
-0.248095
-0.312848
0.509268
0.591062
-0.297169
0.0861363
-0.3
0.00386495
-0.178845
0.404213
-0.0644733
-0.4
-0.201727
-0.498919
-0.00722291
-0.183399
-0.0139885
-0.287949
-0.243912
0.00354179
0.0041801
-0.410976
0.437596
0.677929
-0.39657
-0.294887
-0.41331
-0.0428606
-0.281121
-0.296932
-0.184171
-0.39906
0.75432
-0.316723
0.742681
-0.483068
0.313739
-0.386551
0.0234187
0.184175
-0.485259
0.208316
-0.253334
-0.28961
-0.319722
0.873147
-0.305647
0.201054
0.13286
0.637266
0.117637
-0.405181
-0.254494
-0.00934845
0.0176518
0.087774
0.515336
0.022174
-0.00478508
-0.292232
0.115226
-0.157257
-0.141778
0.0258107
-0.456858
-0.189921
-0.157892
-0.456861
0.027189
0.104114
0.0226192
0.0908638
0.0975098
-0.307144
-0.354566
-0.0413038
0.0276134
-0.457604
-0.500873
0.176347
0.204706
0.0966363
0.670585
-0.115296
-0.457212
-0.374779
-0.273482
-0.0916166
0.0903431
0.764886
-0.439131
0.360515
0.0223499
-0.410639
0.167006
-0.0746219
0.369154
-0.140854
0.0356804
-0.421787
-0.108625
0.175277
0.814016
0.323854
0.761677
-0.349281
-0.259285
-0.499617
0.172562
0.279151
0.076862
0.385573
0.116388
0.4941
0.280943
-0.0866717
-0.231033
0.00153166
-0.463751
0.88585
0.402532
0.64952
0.512025
-0.262498
-0.369435
-0.295874
-0.337442
0.0634443
-0.458036
0.0780242
0.600492
-0.420022
0.0240754
-0.337111
0.196282
-0.300873
-0.348049
-0.0332313
-0.256329
-0.390206
-0.348076
-0.428699
-0.02748
-0.507438
-0.169268
-0.402594
0.15851
0.651032
-0.203954
-0.415009
0.829005
-0.41209
0.267279
-0.219694
0.378123
0.0895156
-0.325618
-0.381968
0.444468
-0.321693
-0.309862
0.166492
-0.268128
0.0218804
-0.279866
-0.114727
0.00783245
0.562153
0.779737
-0.285301
0.214905
-0.417447
0.823246
0.0242113
-0.295642
0.0210121
0.762176
0.220063
-0.304744
-0.28861
0.442896
-0.195284
0.0488204
0.353485
0.266034
0.283258
-0.23632
-0.314564
0.68685
)
;

boundaryField
{
    FrontBack
    {
        type            empty;
    }
    Top
    {
        type            zeroGradient;
    }
    In
    {
        type            zeroGradient;
    }
    Bottom
    {
        type            zeroGradient;
    }
    Out
    {
        type            fixedValue;
        value           uniform 0;
    }
    circle
    {
        type            zeroGradient;
    }
}


// ************************************************************************* //
