/*--------------------------------*- C++ -*----------------------------------*\
| =========                 |                                                 |
| \\      /  F ield         | OpenFOAM: The Open Source CFD Toolbox           |
|  \\    /   O peration     | Version:  2412                                  |
|   \\  /    A nd           | Website:  www.openfoam.com                      |
|    \\/     M anipulation  |                                                 |
\*---------------------------------------------------------------------------*/
FoamFile
{
    version     2.0;
    format      ascii;
    arch        "LSB;label=32;scalar=64";
    class       volScalarField;
    location    "622.5";
    object      yPlus;
}
// * * * * * * * * * * * * * * * * * * * * * * * * * * * * * * * * * * * * * //

dimensions      [0 0 0 0 0 0 0];

internalField   uniform 0;

boundaryField
{
    FrontBack
    {
        type            empty;
    }
    Top
    {
        type            calculated;
        value           nonuniform List<scalar> 
15
(
142.2899518717314
133.5851753659989
138.0652485735476
144.4054603428618
159.766872158918
131.3675279876397
140.1346006830089
135.3551716643013
153.4551084206407
135.7269329372496
136.0906594130724
136.7715406395376
125.2669376215663
132.9136612103222
123.9555703176326
)
;
    }
    In
    {
        type            calculated;
        value           uniform 0;
    }
    Bottom
    {
        type            calculated;
        value           nonuniform List<scalar> 
15
(
155.5672032491913
158.1192493601573
141.0870906679444
142.0427154253103
141.1781748788087
148.426816264134
142.701629630005
143.1466992251465
143.4216672700321
134.0600562901695
125.7263303261434
141.5563378568971
122.4048186197776
123.4858758499962
124.1303298653675
)
;
    }
    Out
    {
        type            calculated;
        value           uniform 0;
    }
    circle
    {
        type            calculated;
        value           nonuniform List<scalar> 
32
(
56.06892812187618
22.07575002732732
65.25984468522667
24.94256854228734
19.8850475097608
56.18728173705778
56.64766837849762
23.78422828387393
22.27176443342817
65.50113861933835
39.84417772391144
62.95027995865395
50.56890781651744
16.81242772375091
23.05351691901253
17.94011443679315
39.25783253847651
59.76167014005333
61.0264990260192
24.63164567444544
65.75910876439714
63.79427693584909
63.05209591439888
59.90319984444337
64.12580790921774
45.96033362479573
66.42168772906604
32.06755151153764
37.98426606839469
55.73478448437861
21.06179918604138
43.1394427627183
)
;
    }
}


// ************************************************************************* //
