/*--------------------------------*- C++ -*----------------------------------*\
| =========                 |                                                 |
| \\      /  F ield         | OpenFOAM: The Open Source CFD Toolbox           |
|  \\    /   O peration     | Version:  2412                                  |
|   \\  /    A nd           | Website:  www.openfoam.com                      |
|    \\/     M anipulation  |                                                 |
\*---------------------------------------------------------------------------*/
FoamFile
{
    version     2.0;
    format      ascii;
    arch        "LSB;label=32;scalar=64";
    class       volScalarField;
    location    "26";
    object      p;
}
// * * * * * * * * * * * * * * * * * * * * * * * * * * * * * * * * * * * * * //

dimensions      [0 2 -2 0 0 0 0];

internalField   nonuniform List<scalar> 
808
(
0.116875
0.0189532
0.063545
0.116757
-0.230759
0.0169252
0.00700912
0.0271104
-0.132072
-0.0311715
0.0505507
-0.147853
0.0264003
0.0133692
-0.184873
0.0228474
-0.181747
0.015693
0.0497995
0.00799766
0.0473879
0.396491
0.0855089
-0.00608294
0.474555
-0.146105
-0.0634093
0.00771318
0.0124524
0.0244557
0.0119081
0.017148
0.0278026
0.00965882
-0.0915167
0.635993
0.0179704
0.0313892
0.0216372
0.0233396
-0.0585781
-0.0638969
0.0442975
0.0312984
-0.175937
0.102894
0.0264515
0.00736582
0.0208606
-0.173559
0.0116129
0.0129603
0.055563
0.00509236
-0.0580488
0.0182011
0.0117149
0.0478918
-0.0276977
0.0120023
-0.294694
-0.001026
0.0331523
-0.190951
0.0356254
0.0553833
-0.289848
0.0296246
0.0485268
-0.280282
0.0268347
-0.31347
0.0221003
0.0201673
0.184378
0.0251605
-0.00268873
-0.0360789
0.0149316
0.335227
-0.102176
0.0211905
0.0397391
0.274321
0.0313384
-0.0221339
-0.356418
-0.0767863
0.0289545
-0.14367
0.03719
-0.108198
0.272359
0.174421
0.0519279
-0.292802
0.0275871
-0.118728
-0.116031
-0.258808
0.0169381
0.00440098
0.0391966
-0.0147719
-0.0931574
0.0707681
-0.206135
-0.0148994
0.0154552
0.0259907
-0.0547227
0.352703
0.0225476
0.0109487
0.0282205
0.46142
0.0160915
-0.267866
0.0236006
0.055645
-0.269478
0.0433313
0.0165123
0.0563049
0.129021
-0.0229153
0.104274
0.0161534
0.0265136
0.0794075
-0.330791
0.02697
-0.050632
0.145905
0.025393
0.0148583
0.0492537
-0.00143823
0.0237207
0.0104268
-0.237783
0.0453015
0.0738196
0.0256081
-0.00339225
0.00796364
0.0944582
0.156448
-0.189832
-0.014337
0.0241035
0.363974
0.0305313
0.551896
-0.249706
-0.0689312
0.0186569
-0.182499
0.0561847
-0.0896631
-0.299882
-0.244185
-0.312797
0.0209327
0.0715639
0.0281
0.0227999
-0.327709
0.0182228
0.036741
0.0392373
0.177403
0.00770212
0.120546
0.0197425
0.0686438
0.0832604
-0.160883
0.0267023
-0.339412
0.0356423
-0.104505
0.0189281
0.264867
-0.178525
0.131115
0.0277521
-0.159532
0.0353932
-0.1111
-0.236836
-0.0693516
0.024157
0.0795761
0.0193807
-0.214558
0.0236135
0.0301028
0.00986145
0.0969699
0.0647385
0.0274527
0.0301225
-0.311705
0.390675
-0.222349
-0.295616
0.00946867
0.0576769
0.0234877
0.00777029
-0.387461
-0.33544
0.0202063
0.0221022
0.0209502
-0.321913
-0.00604941
0.0141281
0.0242711
0.0191071
-0.0550485
0.0285739
0.0283717
0.00601563
0.0297106
0.139939
-0.34872
-0.00345568
0.0129033
0.132744
0.0147749
0.0165299
0.0110628
-0.087389
0.0401546
0.0138846
0.00488959
0.00960634
0.0212342
0.00833482
0.00531882
0.00454256
0.00844151
0.00302296
-0.00364371
0.00853741
0.00856792
-0.00655887
0.0232677
-0.308716
-0.000558211
0.000168266
-0.10225
0.0041622
0.0143015
0.0274245
9.52588e-05
0.0216108
0.145976
-0.00909467
0.0163955
0.015335
0.0267582
0.0437692
0.011442
-0.0148967
0.0226243
-0.00819471
0.0700013
0.0252889
-0.383542
0.296049
0.0257184
-0.102798
0.018782
0.0273253
0.0173462
-0.244919
0.276779
0.0120416
0.0591988
-0.00390153
0.0843695
-0.234636
0.0163245
0.041105
-0.0204364
0.0126954
0.0628599
0.0247452
0.0259311
0.00490772
0.0159497
-0.00655185
0.0241304
0.0613332
0.0737863
-0.00733549
0.00620428
-0.00115747
0.0185798
0.0135107
0.0246937
-0.498296
-0.0757383
0.080876
-0.0187922
-0.18538
-0.207822
0.00186107
0.0219947
-0.299796
0.127
0.15679
0.0220476
0.0193803
-0.00476868
0.00532287
-0.217933
0.0343821
-0.00305396
0.0338574
0.0344323
0.0168594
0.0311352
0.0171101
-0.0104861
0.0221413
-0.26706
0.0699286
0.0363635
0.0204425
-0.00547424
0.0170283
0.250336
0.0146347
-0.168503
0.556913
0.105606
0.00553955
0.0322436
-0.0904547
-0.0251056
0.0173431
0.0331841
-0.0112448
0.0243529
-0.053139
-0.200231
0.0343253
0.122349
-0.0270369
-0.253704
-0.303387
-0.337087
-0.306233
0.0508453
0.0258772
0.0101743
-0.00752706
-0.0420581
0.00899317
0.0250858
0.000707663
-0.491889
0.0830566
0.018581
0.0404178
-0.195031
0.0656458
-0.00109277
0.111485
-0.343178
0.0582966
-0.00381325
0.0411934
0.0870006
-0.275684
0.0233161
-0.257888
0.00371113
0.0823891
0.0441931
0.0154873
0.0344435
-0.174956
-0.329812
0.00422571
0.0037599
-0.191137
0.021127
0.00599732
0.0191128
-0.0155586
0.00363316
-0.312048
0.0333296
0.0195423
0.0236557
-0.311166
-0.21587
0.0846341
-0.00843429
-0.0756377
-0.0468163
0.428188
-0.189273
0.0152561
-0.103561
0.0181388
0.03142
0.027432
0.073704
-0.00612684
0.0535077
-0.0508331
-0.0144358
-0.00489294
-0.00679537
-0.0121738
-0.0109498
0.0305463
0.113431
-0.00278148
0.0221783
0.00902258
0.0445383
-0.0231279
0.0313631
-0.36924
-0.0321669
0.0309357
0.0260937
-0.155356
-0.300786
-0.0204954
-0.0847607
0.0100938
0.0271486
-0.260931
-0.244034
0.26683
-0.304571
-0.44284
-0.152568
-0.107893
-0.0113061
-0.323305
0.35993
-0.0826542
-0.288139
0.00964251
0.0950923
0.573406
0.0113999
0.00750002
0.0728772
-0.0970175
-0.00843647
-0.312597
-0.215245
0.00679472
0.0618752
-0.0166387
-0.256705
-0.305826
-0.163491
0.0192999
0.0433934
0.106922
-0.0133707
-0.0785833
0.0932389
-0.0314265
0.0203854
-0.181783
-0.250913
0.00600962
-0.0295619
0.0193804
0.024019
0.0779436
-0.0323688
0.0312298
-0.449621
0.458421
-0.260755
-0.271742
-0.0181855
0.00935979
-0.260828
-0.245901
0.118738
-0.32172
-0.0902303
0.874446
0.0187681
-0.340243
0.0107613
-0.0138965
0.0121218
-0.449065
-0.250189
-0.301908
0.000857402
-0.151259
-0.3456
0.00175256
-0.0138485
0.132183
-0.309193
0.0462856
-0.487521
-0.271883
-0.331836
0.0157295
0.0336323
0.014662
0.120775
0.126846
-0.010886
-0.272322
0.309765
-0.03537
-0.00281375
-0.423115
-0.483775
-0.324107
0.0143629
-0.334663
-0.0207668
0.0445983
0.00742279
-0.186752
-0.228538
0.0214759
-0.293204
-0.220411
0.012077
0.00284438
-0.277576
0.00204245
0.052723
-0.368566
-0.317886
-0.0977623
0.122862
0.0265859
-0.316803
-0.244657
-0.328931
-0.0413038
0.0619187
0.118227
0.00488451
-0.359708
-0.245397
0.123701
0.0244899
-0.0548208
0.04302
0.0374914
-0.280405
0.0442544
-0.267306
0.0478746
-0.223739
0.0672628
0.000503787
-0.310911
-0.398027
0.000388831
-0.463071
-0.446863
0.0486841
-0.0248413
-0.243596
-0.00187434
-0.282701
0.0266963
0.107444
0.060922
-0.223676
-0.0139951
0.0956988
-0.393932
0.0214627
-0.284639
0.0211491
-0.312739
-0.450152
0.0985067
0.301182
0.454546
0.0204669
0.00232945
0.00127747
-0.326428
0.6634
0.0242129
-0.155891
0.0165013
-0.0721185
0.0796486
0.511104
-0.316822
-0.0382562
-0.0272117
0.027762
0.0194059
-0.394573
-0.260335
-0.298163
-0.243225
-0.272886
0.00495675
-0.354813
-0.0167387
-0.213486
-0.257987
0.546345
0.618027
-0.227181
0.111809
-0.25071
-0.0195302
0.0540243
0.443078
0.0198681
-0.307191
0.074262
-0.44903
-0.00334772
-0.152714
0.0186115
-0.264541
-0.213583
0.00188601
0.00333712
-0.309336
0.447307
0.697623
-0.328859
-0.24949
-0.319078
-0.0449313
-0.255855
-0.241941
-0.123715
-0.308501
0.782675
-0.289337
0.748559
-0.403022
0.332331
-0.304742
0.0181289
0.205122
-0.441614
0.218215
-0.210812
-0.258466
-0.286382
0.891597
-0.257614
0.211607
0.148209
0.648957
0.124087
-0.241713
-0.217781
-0.15731
0.0169947
0.12622
0.51987
0.0152082
0.000758896
-0.243712
0.160881
-0.122106
-0.292988
0.0417859
-0.189615
-0.161215
-0.107001
-0.355509
0.0152819
0.104611
0.00907517
0.098072
0.109375
-0.279353
-0.302405
0.0271518
0.0333989
-0.407215
-0.453283
0.215376
0.22061
0.0912919
0.697797
-0.0807514
-0.244312
-0.32972
-0.249699
-0.0603595
0.118355
0.785106
-0.392984
0.375052
0.00417062
-0.368258
0.178853
-0.0308375
0.386459
-0.11026
0.0284446
-0.316506
-0.0814984
0.191386
0.822047
0.340409
0.785429
-0.339128
-0.244645
-0.406009
0.202179
0.292938
0.0796439
0.41234
0.131022
0.511383
0.308214
0.0307894
-0.187963
0.023101
-0.2376
0.900354
0.420562
0.680971
0.528912
-0.216837
-0.330541
-0.246745
-0.282031
0.0646846
-0.401617
0.09959
0.622413
-0.353955
0.00920993
-0.28501
0.209955
-0.279424
-0.312713
-0.150548
-0.228796
-0.257085
-0.292527
-0.325441
-0.116169
-0.405355
-0.135181
-0.259468
0.174704
0.657617
-0.168887
-0.308847
0.851723
-0.306962
0.287617
-0.187849
0.385448
0.088712
-0.346044
-0.339945
0.477765
-0.275188
-0.270336
0.188257
-0.226032
-0.00727041
-0.247728
-0.0734587
0.0436328
0.576805
0.794111
-0.246603
0.229223
-0.246519
0.839525
0.00100318
-0.260955
-0.00742096
0.772745
0.231989
-0.26845
-0.239851
0.458591
-0.16566
0.0713167
0.385942
0.277823
0.300473
-0.20193
-0.237512
0.703667
)
;

boundaryField
{
    FrontBack
    {
        type            empty;
    }
    Top
    {
        type            zeroGradient;
    }
    In
    {
        type            zeroGradient;
    }
    Bottom
    {
        type            zeroGradient;
    }
    Out
    {
        type            fixedValue;
        value           uniform 0;
    }
    circle
    {
        type            zeroGradient;
    }
}


// ************************************************************************* //
