/*--------------------------------*- C++ -*----------------------------------*\
| =========                 |                                                 |
| \\      /  F ield         | OpenFOAM: The Open Source CFD Toolbox           |
|  \\    /   O peration     | Version:  2412                                  |
|   \\  /    A nd           | Website:  www.openfoam.com                      |
|    \\/     M anipulation  |                                                 |
\*---------------------------------------------------------------------------*/
FoamFile
{
    version     2.0;
    format      ascii;
    arch        "LSB;label=32;scalar=64";
    class       surfaceScalarField;
    location    "26";
    object      phi;
}
// * * * * * * * * * * * * * * * * * * * * * * * * * * * * * * * * * * * * * //

dimensions      [0 3 -1 0 0 0 0];

oriented        oriented;

internalField   nonuniform List<scalar> 
1171
(
-0.945448
0.945448
0.776443
-1.0872
0.310761
-0.191653
-0.733977
0.92563
0.0545524
-0.0687617
-0.279178
0.34794
-0.776443
0.086597
0.689846
0.926336
-0.211395
-0.714941
0.836553
-1.06647
0.229913
-0.35791
-0.0402369
0.398147
-0.00636539
0.606823
-0.600457
-0.577799
0.938468
-0.360668
-0.426672
1.01934
-0.182788
0.21544
0.100906
-0.316346
0.976897
0.0424442
0.248134
-0.0326937
1.01433
-0.0374358
0.688894
-0.880547
-0.784315
0.608372
0.175943
0.221526
-0.799325
0.555623
-0.912871
0.357248
-1.08049
0.672582
0.407907
-0.644432
0.638067
0.0286659
-0.247341
0.218676
0.0464907
-0.634217
0.587727
0.467026
-0.507263
-0.835498
0.880257
-0.044759
0.987057
0.0272758
0.906764
-1.06525
0.15849
1.00853
-0.0214761
-0.698455
-0.0858592
1.28147
-0.858341
-0.423126
0.173036
-0.0830909
-0.409148
0.492239
-0.273464
0.188247
0.0852166
-0.605604
-0.4816
0.982313
-0.0755495
-0.0299152
0.892618
-0.862702
0.516757
0.76471
0.523732
0.018568
0.448458
-0.793483
-0.105999
0.899482
0.573339
0.245099
-0.818438
0.0723036
0.576272
-0.648576
-0.510106
-0.570383
-0.381543
-0.68371
0.025662
0.248826
-0.274488
-0.959731
-0.032786
0.992517
0.375653
0.0224936
0.831793
0.0945431
-0.601626
-0.0428064
0.0335347
-0.827017
0.0906121
0.942203
-1.03282
-0.40426
0.0310284
0.373231
-0.714297
-0.245435
-0.746418
0.83703
0.750181
0.188287
-0.581889
0.997225
-0.816956
-0.180269
-0.190464
0.0802638
0.1102
-0.460167
-0.0470954
-0.287824
1.03801
0.000700347
0.429665
-0.430365
-0.518616
1.09196
0.715519
-0.821518
0.39874
-0.0711305
-0.32761
0.77302
-0.77302
-0.879284
0.0417691
-0.320947
-0.701762
0.671846
-0.0354824
-0.147061
0.182544
0.894485
-0.00186765
1.05318
-0.808078
0.226328
-0.323377
0.0970487
0.95397
-0.122177
-0.670746
-0.0525239
0.72327
0.14803
-0.229207
0.0811771
0.796629
-1.00802
-0.437588
0.308631
0.128957
0.683444
-0.636953
0.872101
-0.397186
-0.474915
0.490558
-0.694109
0.0348971
0.659212
0.135533
0.660146
0.046965
-0.707112
0.138574
-0.096805
-0.508125
0.103865
0.0361908
-0.902198
0.866007
-0.533311
-0.758008
0.0595525
0.501381
-0.0529234
0.276577
-0.83394
0.557362
0.424561
0.575439
0.598049
-0.564515
-0.399441
-0.00512213
0.404563
0.541557
0.231463
-0.669718
0.742022
0.0922332
0.883226
0.00627994
-0.677026
-0.764387
0.800577
0.607623
0.101893
0.349325
-0.451218
-0.154436
0.554225
0.0220473
0.86829
-0.811716
-0.056574
0.661589
0.335636
-0.434505
0.685373
-0.583481
0.408922
0.146701
-0.0527076
-0.752875
-0.212539
0.965414
-0.123972
-0.649048
-0.613615
0.36148
0.252135
0.659959
-0.653679
0.312457
1.03232
0.0208602
-0.764387
-0.172864
-0.0176
0.715519
0.787255
-0.787255
0.842646
-0.828392
-0.0142538
-0.453663
0.878225
-0.192174
-0.31595
0.764316
-0.671841
-0.0924749
-0.923484
0.170609
0.111881
-0.713507
0.821518
-0.975954
-0.211566
0.202236
0.0093298
0.111538
-1.00824
0.896707
0.544771
-0.021039
-0.288716
0.594257
-0.305541
-0.663676
0.775215
-0.156997
0.639562
-0.901368
0.261806
1.13156
-0.729173
-0.402388
0.734548
-0.0686539
0.00393211
-0.00424124
0.000309139
-0.800814
-0.860496
0.126519
-0.701762
0.574306
-0.543278
0.235323
0.629797
-0.86512
0.77864
0.166807
0.4906
0.5094
-0.0674166
-0.717625
0.785042
0.960749
-0.0924584
-0.734548
0.800577
0.18247
-0.429811
-0.0314111
0.0195361
0.011875
0.671303
-0.427909
-0.243393
0.689846
-0.0608489
-0.220933
0.565956
0.105347
-0.0212192
0.000654427
0.0205648
0.00641215
-0.00248005
0.148634
-0.219765
-0.944252
0.0240719
-0.143675
-0.0629321
0.129815
0.804131
0.741499
-0.16606
0.626469
-0.391145
-0.163678
0.390006
0.642816
0.0470294
0.230526
-1.05892
-0.975954
0.32273
0.671846
-0.164956
0.0178951
-0.828203
1.04467
-0.216468
0.478817
-0.105586
0.797354
0.305891
0.259982
-0.0118478
-0.680646
0.680646
0.22698
0.672502
-0.0275588
0.457223
0.46468
0.000491366
-0.0319024
0.536515
0.00825514
-0.663676
0.570288
0.194028
-0.0075698
0.00332856
-0.642816
0.16976
0.874911
0.0393511
-0.727421
0.688069
0.760455
-0.820902
0.060447
-0.77864
-0.0357153
0.0504044
-0.0146892
0.0871288
-0.117924
-0.101414
0.219338
-0.00733222
-0.013887
0.777466
-0.738115
0.946097
-0.0204676
-0.311216
-0.563783
0.874998
-0.0014339
0.0014339
0.197114
0.483523
0.438748
-0.922271
-0.196932
-0.551607
0.748539
-0.0198729
0.202416
0.379364
-0.231334
0.99387
-0.510347
0.821537
0.931607
-0.492859
0.18719
0.775215
0.592426
0.243571
0.636686
-0.649048
0.319354
-0.0390161
0.0235617
0.0154544
0.94408
-0.000154949
-0.943925
-0.554991
0.533515
0.546337
-0.554991
-0.592426
0.533515
0.0137262
0.911333
0.0347646
-0.541557
0.45207
0.0894871
0.532706
0.653067
-1.18577
0.548727
0.445142
0.645487
0.556194
-1.20168
0.562402
0.369205
0.45207
-0.528358
-0.479034
-0.673323
-0.642045
-0.271571
-0.00797687
0.00797687
0.652527
0.515777
-1.15782
0.693319
-0.343994
-1.08381
0.354638
-0.694771
0.449336
-0.073997
-0.936421
1.01042
0.452783
-0.121582
1.06566
-1.05763
-1.07478
0.157494
0.917284
0.258006
-0.260118
0.00211196
0.724934
-0.800484
0.975126
-0.97986
0.00473358
-0.0262878
-0.785429
-0.209014
0.919259
-0.710245
-1.05357
1.02728
-0.65744
0.483615
0.173825
-0.597902
-0.128456
0.726358
0.0037683
-0.0052022
0.423279
0.0825074
-0.942287
0.85978
-0.812736
0.745319
1.10442
0.0970792
-1.2015
0.0296455
-0.0217065
0.426269
-0.362451
0.039074
0.92522
-0.999217
-0.61837
-0.681197
-0.104231
-0.1634
-0.927207
-0.0526527
0.395634
0.230835
-0.112484
0.37049
-0.708055
0.579599
0.474915
-1.058
-0.956493
-0.0451607
0.00823596
0.621709
-0.629945
0.0832106
-0.610134
0.578413
0.182042
0.0863457
0.979316
1.18478
0.915011
-0.967664
0.0472122
-0.0472122
-0.0709978
-0.0116925
-0.248425
0.338132
-0.0154016
0.199133
1.06253
0.0146696
-0.0220018
0.657002
0.342998
0.796491
-0.605604
-0.761049
-0.6301
-0.488756
0.488756
-0.209954
-0.110993
0.647353
-0.924421
0.277068
-0.458781
-0.543096
0.329166
-1.01288
-0.947643
0.952377
-0.694482
0.59025
0.661524
0.20197
-0.863494
-0.456275
-0.189962
0.864294
-0.674332
-0.114883
0.012496
0.00161871
-0.0141147
-0.0684014
0.0567089
0.976519
0.548164
-0.216906
-0.331257
0.550276
0.753225
-0.526245
0.0154523
-0.288916
-0.0513688
0.782064
-0.730695
-0.351352
-0.070714
0.146397
-1.07478
0.130858
-0.72245
0.125685
0.726437
-0.852122
-0.899175
0.176725
0.720392
-0.791106
0.232319
-0.350242
-0.560707
0.104432
0.368119
0.706117
-0.0207438
-0.00497457
0.00497457
-0.00732245
0.00371424
-0.0427303
-0.016255
0.0309246
-0.329873
0.342878
0.743752
-0.82098
0.0772286
-0.686266
0.81195
0.805639
-0.085247
-0.702677
-0.196498
-1.1321
0.0211368
0.0260754
-0.381242
-0.911691
-0.868812
0.445686
-0.173231
0.242269
-0.0690374
-0.290964
-0.0902775
0.46789
0.711555
-0.0508622
-0.0120699
0.97035
0.539758
0.148728
-0.688485
-0.231292
-0.0596718
-0.00212015
0.0146162
0.742598
-0.955138
0.00461505
-0.00461505
-0.723464
0.785737
-0.0622728
-0.343776
-0.143878
-0.697263
0.146771
0.63827
-0.0555881
-0.887225
-0.407969
0.270995
0.136974
0.750183
-0.672954
0.359135
0.247116
-0.606251
-0.169092
-0.702769
-0.149353
-0.183706
-0.261198
0.470008
-0.517103
0.169401
0.75826
-0.927661
0.490558
-0.224765
0.0515339
-0.0874345
-0.173763
0.593028
-0.0940025
-0.499026
-0.288451
0.309353
-0.0209024
0.555846
0.137473
0.102869
-0.314727
0.172718
0.14201
-0.047052
-0.125812
-0.364651
0.134486
-0.0685728
-0.0659137
0.952395
-0.204757
-0.139019
0.552208
0.351478
-0.568384
0.399838
-0.399838
-0.197205
-0.388074
-0.20901
-0.388074
-0.755816
-0.852398
0.180556
-0.453182
0.74822
0.04975
0.126345
0.579772
0.109915
0.120697
0.0096607
-0.130358
-0.182187
0.647688
-0.980229
0.416447
-0.0574956
0.0729255
-0.0154299
-0.759579
-0.177846
-0.572576
0.721304
-0.520616
-0.0664543
-0.107309
-0.343011
-0.0792437
0.0792437
0.0511889
-0.000784466
0.141834
0.116457
-0.682192
0.109615
-0.0339339
0.473513
0.526487
0.848188
0.016382
0.0234189
-0.039801
-0.300817
-0.586408
-0.509169
0.11676
-0.121226
0.00446556
-0.166527
-0.409953
-0.161923
0.800193
-0.592762
-0.166817
0.0138095
-0.00707844
0.255169
-0.481423
-0.200293
-0.194356
-0.0254087
-0.467742
0.427964
0.039778
-0.049142
0.295308
-0.865691
-0.531169
0.618006
-0.888074
0.718982
0.435517
-0.0311382
0.0541576
-0.0230195
0.138996
-0.634262
-0.0100704
0.644332
-0.892111
0.654005
-0.725002
-0.0278522
0.00735228
-0.00735228
-0.299275
0.414073
0.0121963
-0.00773994
0.024122
0.586879
0.505824
-0.562398
0.0117962
-0.000938701
-0.00403586
0.0054792
-0.0054792
-0.458276
0.595749
0.0162847
-0.0162847
-0.782417
-0.00846317
0.0122315
-0.494766
0.604382
0.572006
-0.634279
0.0705138
-0.0705138
0.000142517
-0.032045
0.00806037
-1.09232
0.689932
-0.527313
-0.0052022
0.609305
0.00303224
-0.612337
-0.713105
0.120343
-0.313432
-0.01296
0.326392
-0.0257802
-0.0250819
-0.608828
-0.025434
0.0260754
0.00549067
-0.000875623
-0.00294386
0.00294386
-0.21744
0.151526
-0.478325
0.134726
0.661765
-0.108714
0.00659328
-0.00659328
0.508411
-0.110933
0.00878619
0.0187231
0.000276998
0.609951
-0.720884
-0.757002
0.617983
-0.11324
0.334951
0.794356
-0.00732245
-0.0831398
0.0864684
-0.637933
0.543001
-0.27071
-0.1038
-0.0304146
-0.0263822
0.00716392
0.472935
-0.0853633
-0.413662
0.717114
0.00249768
0.00230533
-0.00230533
-0.212569
-0.100983
-0.56934
0.61909
-0.132552
0.508893
-0.176035
0.864929
0.824413
0.00549067
-0.721052
0.60348
0.0357198
0.0117864
-0.0475061
0.568841
0.100681
-0.0115996
0.0645898
-0.0529902
0.00865572
-0.00865572
-0.740301
0.0233016
-0.0450291
0.0637522
-0.0850363
0.0850363
-0.0009387
-0.000729169
0.769303
0.105608
-0.314895
-0.0950572
-0.519479
0.0495293
-0.0656308
0.0656308
-0.0396585
0.0826873
-0.0826873
0.025898
-0.025898
-0.3588
-0.0757051
0.237933
0.0706989
0.0522317
-0.737368
-0.0640513
0.159051
0.0234188
-0.235424
0.0825781
-0.0825781
-0.467293
-0.0498108
0.227357
-0.00868144
0.00254681
-0.670763
0.657037
0.00865224
-0.0483107
0.0398335
-0.0718785
-0.0121736
-0.159144
0.171317
-0.147986
-0.202256
-0.0801327
0.0801327
0.0535808
-0.0535808
-0.0271224
-0.0934972
0.12062
-0.0397721
-0.191402
0.00231856
-0.00635442
-0.123022
0.274548
-0.0256628
0.481359
0.0100286
0.0105362
-0.0499775
0.0499775
-0.735073
0.31433
-0.12714
-0.206391
-0.0228164
-0.0168846
0.0194314
0.1901
0.0292378
-0.00218069
0.00245769
0.0865718
0.0301882
0.0568725
0.102179
-0.02594
0.0138701
-0.00230972
0.00498463
0.00446366
-0.000564752
-0.0038989
-0.00324403
0.0125263
0.0268481
-0.0268481
0.0477052
-0.0441651
0.0441651
-0.189733
0.0155208
0.0319955
-0.075499
0.0172423
0.0788189
-0.0788189
0.229878
-0.232833
0.0848472
-0.0658956
-0.166938
-0.0142699
0.0142699
0.408272
0.250941
-0.522478
-0.0805861
-0.0406395
0.542998
6.1371e-05
-0.053902
-0.457234
0.110286
-0.150785
0.167869
-0.0170848
-0.0486306
0.0486306
0.904642
-0.588676
-0.0030405
-0.000203533
-0.00579265
-0.288839
-0.000109221
0.00490364
-0.0461562
-0.630045
0.56929
-0.662031
0.0145018
0.0870249
0.0156533
0.0240795
-0.156577
-0.331876
0.256377
-0.0538551
0.0267327
0.173321
0.136033
0.248662
0.261289
-0.245635
0.00358803
-0.115518
-0.219351
0.0664333
-0.00956086
0.158229
-0.134149
-0.0686058
0.155178
-0.414915
0.118886
-0.101644
0.0585186
-0.472181
0.172773
0.181065
-0.249671
0.0103456
-0.180155
0.180046
0.00375927
0.151418
-0.0278804
0.0471397
0.461271
0.0125782
0.0123665
0.000255613
0.03737
-0.236435
-0.202919
0.589949
0.165737
0.0616204
0.0725636
-0.0642608
0.0472636
-0.0947698
-0.0305546
0.164458
-0.149956
0.0195304
-0.00939492
-0.107056
-0.028737
0.0334005
0.251821
-0.0217174
-0.0246148
-0.307842
-0.00956112
0.220139
0.137609
0.17672
0.0565852
0.0949568
0.0632502
0.523629
-0.00620862
0.107661
0.0401154
0.0685199
-0.108635
-0.271538
-0.194195
0.0272569
-0.22036
0.280585
)
;

boundaryField
{
    FrontBack
    {
        type            empty;
    }
    Top
    {
        type            calculated;
        value           uniform 0;
    }
    In
    {
        type            calculated;
        value           uniform -1;
    }
    Bottom
    {
        type            calculated;
        value           uniform 0;
    }
    Out
    {
        type            calculated;
        value           nonuniform List<scalar> 10(1.19421 1.06106 1.15236 1.00754 1.20926 1.01125 1.1683 1.00188 0.597043 0.597084);
    }
    circle
    {
        type            calculated;
        value           uniform 0;
    }
}


// ************************************************************************* //
