/*--------------------------------*- C++ -*----------------------------------*\
| =========                 |                                                 |
| \\      /  F ield         | OpenFOAM: The Open Source CFD Toolbox           |
|  \\    /   O peration     | Version:  2412                                  |
|   \\  /    A nd           | Website:  www.openfoam.com                      |
|    \\/     M anipulation  |                                                 |
\*---------------------------------------------------------------------------*/
FoamFile
{
    version     2.0;
    format      ascii;
    arch        "LSB;label=32;scalar=64";
    class       volVectorField;
    location    "26";
    object      U;
}
// * * * * * * * * * * * * * * * * * * * * * * * * * * * * * * * * * * * * * //

dimensions      [0 1 -1 0 0 0 0];

internalField   nonuniform List<vector> 
808
(
(0.895423 -0.011143 0)
(1.01971 -0.0354063 0)
(1.14252 -0.0224285 0)
(1.06779 0.0106694 -2.46403e-21)
(1.48581 -0.284424 0)
(0.954941 -0.0240111 0)
(1.13238 -0.0545465 -2.02185e-21)
(1.14886 -0.0485943 0)
(1.36197 -0.226231 2.59975e-20)
(1.23213 -0.0865454 -8.28328e-21)
(1.12662 0.020262 9.31061e-21)
(1.39193 -0.252811 0)
(1.00711 -0.050713 0)
(0.744493 -0.0255337 0)
(0.86907 0.0796867 1.32636e-20)
(1.09324 -0.0435424 0)
(0.758261 0.0116385 -3.9302e-21)
(0.994403 -0.0399927 -7.4646e-23)
(1.12349 -0.00908844 0)
(1.11403 0.00221849 0)
(1.16512 0.00137834 -1.29932e-20)
(0.929203 0.121093 1.15836e-19)
(1.07523 0.0144504 -1.57371e-20)
(1.17526 -0.0283248 0)
(0.947257 0.175129 0)
(1.34245 0.0830238 -2.36619e-20)
(1.28722 -0.169302 8.24693e-21)
(0.952058 -0.024466 -3.66446e-21)
(1.07665 -0.0285594 0)
(1.03885 0.035574 -3.42131e-22)
(0.971645 -0.0242389 3.41846e-24)
(1.1221 -0.0123513 0)
(1.065 0.0277783 0)
(1.06485 -0.0228658 2.82315e-21)
(1.30623 -0.0627169 8.42983e-21)
(0.742394 -0.123788 1.12156e-19)
(0.876929 -0.0308703 -7.56674e-21)
(1.0305 0.020732 1.60195e-21)
(1.20514 0.0527129 -2.9905e-21)
(1.1081 0.0283488 0)
(1.25958 -0.0537626 -1.56231e-20)
(1.27819 -0.12607 0)
(1.013 0.000117831 -9.42727e-21)
(1.11214 -0.0381376 1.02506e-20)
(1.24037 0.0213142 0)
(1.01053 0.0168853 -2.23741e-20)
(0.997769 0.0352732 2.37067e-21)
(1.25938 -0.24787 6.25343e-21)
(1.17904 0.046731 -6.50221e-21)
(1.41685 -0.170612 -3.75588e-20)
(1.12144 -0.0691659 4.40539e-21)
(1.14783 -0.068378 0)
(1.12144 0.0010107 8.40926e-21)
(1.1402 0.00157677 0)
(1.30852 0.241016 2.70411e-21)
(1.0757 0.0352428 -2.56295e-21)
(1.20953 0.0151243 0)
(1.19845 0.0238396 5.07011e-21)
(1.23739 -0.0871115 8.89154e-21)
(1.14147 0.0256464 -4.21951e-22)
(-0.397254 0.281008 0)
(1.2189 -0.215126 -6.77626e-21)
(1.19923 0.00345847 0)
(1.43205 -0.0559123 -2.90872e-20)
(1.12751 -0.0122405 -1.11318e-20)
(1.04419 -0.0287266 -9.21958e-21)
(1.39089 -0.113365 3.23855e-20)
(0.659112 0.0201224 0)
(1.11306 -0.0350819 0)
(1.45875 -0.35554 0)
(0.901295 0.0326052 -2.24131e-22)
(1.27121 -0.139326 -4.16082e-20)
(1.01729 0.0566817 0)
(1.05303 -0.0309302 -3.24028e-21)
(1.13112 -0.34002 -5.68167e-20)
(1.10898 -0.0497119 -1.28122e-20)
(1.13743 0.0193896 2.13805e-22)
(1.30841 0.490992 2.44841e-20)
(1.10391 -0.0477472 0)
(1.00959 0.273886 -1.93212e-19)
(1.3508 0.059763 1.35102e-20)
(0.743917 0.0176667 0)
(0.84183 0.0264865 -1.1207e-20)
(0.96986 -0.112439 4.27887e-21)
(1.09809 -0.0451275 1.02314e-20)
(1.18123 0.0121994 1.18145e-21)
(1.30257 -0.237482 0)
(1.33741 0.282786 0)
(1.0854 0.00314933 -1.33323e-20)
(1.35867 0.116022 2.68644e-20)
(1.07803 -0.016974 1.20367e-20)
(1.32613 -0.114137 -1.46678e-21)
(0.96479 0.0250306 1.8375e-20)
(1.00421 -0.0220142 0)
(1.11434 0.020701 1.90669e-21)
(1.36506 -0.0177828 -8.3546e-20)
(0.757954 0.0191473 -3.40188e-21)
(1.3688 -0.0130264 0)
(1.32917 -0.0775728 0)
(1.44508 -0.0803993 -4.96165e-20)
(1.10511 -0.0530695 -3.5303e-21)
(1.11919 0.00976857 -5.73829e-23)
(0.947121 0.020399 1.07546e-20)
(1.17242 0.00457029 -2.51365e-22)
(1.29168 0.0334001 -2.24618e-20)
(1.00429 0.0060014 1.54742e-20)
(1.46054 -0.00300008 0)
(0.892044 0.0216787 0)
(1.09594 0.0263565 5.33197e-21)
(1.20971 -0.218065 -7.0862e-21)
(1.24904 0.0229208 8.41899e-21)
(1.04379 0.0436698 -1.27546e-19)
(1.15594 0.0349373 -1.99399e-21)
(1.27405 0.0734591 1.10376e-21)
(0.79541 0.0169631 0)
(0.918048 -0.0518363 7.72165e-20)
(1.14267 0.0177008 -5.10431e-21)
(1.45483 -0.265457 -1.86656e-20)
(1.13232 -0.0318163 -7.6646e-21)
(0.928679 0.0184491 2.37671e-21)
(-0.417892 0.0742083 0)
(0.862679 -0.0165358 2.41805e-21)
(0.797881 0.0216393 0)
(1.06044 0.00392104 -9.02124e-23)
(1.0113 0.0284983 0)
(1.29972 0.321928 4.49849e-21)
(1.03689 -0.0527634 -3.12293e-20)
(1.40335 0.0564955 -6.38821e-22)
(1.15035 -0.0587445 0)
(1.09427 -0.0210303 0)
(0.679324 -0.0434044 0)
(1.14212 -0.0374865 -4.03216e-21)
(1.2419 -0.0452336 8.76325e-21)
(1.06467 0.111446 -3.67533e-20)
(0.855856 -0.026532 0)
(1.10008 0.0214337 -1.33277e-21)
(1.13094 0.186146 3.05428e-21)
(1.18885 0.0883235 2.70904e-23)
(0.995404 0.0300151 4.01052e-21)
(1.12196 0.00708736 4.81052e-23)
(-0.0338628 -0.00378171 0)
(1.09565 -0.0202205 -1.33609e-20)
(1.05874 0.0628669 3.9825e-21)
(0.723827 0.0238141 -4.05064e-21)
(1.25131 0.168444 3.99823e-21)
(1.14767 0.201685 4.92857e-22)
(1.04627 0.0172303 1.66664e-20)
(0.991587 0.0267814 0)
(1.23215 -0.0510473 -3.28728e-20)
(1.10077 0.0847109 0)
(0.947212 0.0319144 8.34189e-21)
(0.966894 0.274389 1.54351e-19)
(0.969408 0.0343442 0)
(0.818147 0.088819 0)
(-0.116072 -0.0393473 -6.1415e-20)
(1.33071 0.137213 -9.23429e-21)
(0.679509 -0.0197669 0)
(1.40735 0.0829399 0)
(1.1722 0.130425 0)
(1.34165 0.117879 1.02392e-20)
(-0.0471747 -0.154957 0)
(-0.0636332 -0.0011435 2.90107e-20)
(1.05333 -0.0479288 9.06234e-20)
(1.00419 0.0365507 1.05106e-21)
(0.861285 0.000538077 0)
(1.03779 -0.038037 1.14548e-20)
(0.888344 0.021584 0)
(0.804473 -0.0431405 -9.79147e-20)
(1.04055 0.0453548 1.05574e-20)
(1.13599 -0.0261839 3.60631e-21)
(1.09263 0.0105629 6.32398e-21)
(1.01281 0.0671988 -1.3198e-20)
(0.886587 0.174392 -4.90642e-22)
(1.14355 -0.352061 5.60053e-22)
(0.914224 -0.0267132 0)
(1.06788 0.00177101 -1.33551e-20)
(0.87428 0.00837789 -1.24924e-20)
(1.38955 -0.164605 2.22696e-21)
(0.69086 0.0305924 0)
(1.06431 -0.14533 0)
(1.14352 -0.0232891 4.8804e-21)
(1.37776 0.214677 7.34597e-21)
(1.11166 0.0155585 4.60838e-21)
(1.03601 0.0196488 1.95546e-20)
(0.599925 0.067647 -5.0234e-20)
(0.812978 0.00274578 2.20037e-20)
(1.14035 -0.0199321 5.66949e-21)
(1.38512 -0.0470476 -5.17831e-21)
(1.12469 -0.0262112 -6.63451e-21)
(1.3216 -0.0270605 4.43743e-21)
(-0.118776 -0.00766617 4.42869e-20)
(1.26412 -0.0081475 0)
(0.628214 -0.0140794 0)
(1.06416 -0.0245821 -6.31442e-21)
(1.0962 0.0130724 6.21799e-21)
(0.000148969 0.0454052 0)
(0.882396 -0.024897 4.58994e-22)
(1.16065 -0.0421492 -3.26328e-21)
(0.964918 0.0372366 1.94285e-21)
(1.07761 0.041291 -8.28827e-21)
(1.00415 0.0187362 2.64874e-21)
(1.06577 -0.0397857 2.8786e-21)
(1.05369 0.0260413 0)
(0.350686 -0.0461919 0)
(1.0464 -0.0641409 0)
(1.11458 0.10503 -2.3942e-20)
(-0.0422834 -0.168555 4.73473e-20)
(1.10007 0.0439223 -1.47825e-23)
(1.04878 -0.0755583 0)
(0.756492 0.019461 -7.77405e-21)
(1.06838 0.0599956 1.99056e-21)
(-0.00788629 -0.0408585 -1.53635e-19)
(0.909358 0.0214964 -6.33909e-20)
(0.634541 -0.015652 0)
(0.809061 0.0911071 0)
(0.934046 0.0438104 7.69143e-21)
(1.03564 -0.116481 5.93681e-21)
(1.26754 0.393633 -5.79838e-21)
(1.02742 0.0816177 -1.34264e-22)
(1.23244 -0.00108466 -2.93495e-21)
(0.976503 0.116666 0)
(1.35024 0.418038 -2.75851e-20)
(0.674277 -0.026581 0)
(0.799253 -0.0247061 -3.72475e-21)
(1.05014 -0.0272643 4.02694e-23)
(0.597661 0.0128009 0)
(1.10056 -0.00617405 0)
(0.139153 0.0427858 -5.38048e-20)
(1.18962 -0.051144 -1.2072e-21)
(0.714123 -0.0175511 1.9183e-21)
(0.99013 -0.0021653 0)
(0.549361 -0.01847 0)
(0.751109 -0.0206964 -3.07412e-21)
(0.536603 -0.016238 -3.11435e-22)
(1.34669 0.0605096 2.43927e-22)
(1.18882 -0.0886394 -3.90934e-21)
(0.697695 0.0192689 -2.50123e-21)
(1.13843 -0.0108359 3.73208e-22)
(1.04863 0.0844767 1.26509e-22)
(0.551107 0.0154587 6.79308e-21)
(1.25098 0.0274123 9.18323e-22)
(1.19213 0.00609121 0)
(0.863146 0.17009 0)
(0.490498 0.0198552 0)
(1.05882 -0.0197876 0)
(1.15601 0.0367983 5.96549e-22)
(1.00141 0.0625111 0)
(1.20449 -0.0138998 0)
(1.01873 0.0874086 0)
(1.18022 0.193113 0)
(-0.026946 -0.0617974 4.78662e-20)
(1.21321 0.0761576 -3.58526e-22)
(1.17818 0.126829 0)
(1.30839 0.0505975 1.07916e-20)
(1.18742 0.0743263 7.5226e-22)
(1.12225 0.0323725 2.29772e-21)
(1.17248 -0.112526 4.65346e-21)
(1.17125 0.0479205 0)
(0.580055 -0.0170548 6.95425e-21)
(1.04981 0.044471 1.28363e-20)
(1.30105 -0.112688 0)
(1.14412 0.01132 -2.32041e-21)
(1.24041 0.0703807 2.83649e-21)
(0.542188 -0.124989 -5.50365e-22)
(1.11772 0.0183802 7.61576e-21)
(1.16339 -0.0382713 -5.85417e-21)
(1.06307 -0.0221885 0)
(1.25147 0.14321 -7.32392e-21)
(1.20552 0.0509368 8.50196e-22)
(0.689437 0.166374 1.5326e-20)
(0.714982 -0.165345 0)
(-0.0217051 -0.0232368 0)
(0.973562 0.109566 -1.8504e-20)
(1.10945 -0.0247059 0)
(1.35529 -0.087942 3.34546e-20)
(1.25636 0.0305475 4.30278e-22)
(1.12517 0.00929442 5.62773e-21)
(1.23755 0.0408626 -2.64905e-21)
(1.38113 0.00579583 1.19351e-19)
(1.02442 -0.330948 5.73642e-20)
(1.16265 -0.0510808 4.32753e-22)
(0.846882 -0.0850438 0)
(0.79981 -0.108775 0)
(0.905689 0.00450578 -2.81845e-20)
(1.31633 -0.0638567 -5.5587e-20)
(1.13417 -0.0862655 0)
(0.680022 0.234765 1.16624e-20)
(0.349459 -0.175191 0)
(0.722638 -0.159437 1.73354e-21)
(0.869603 0.19278 -1.38879e-20)
(0.815687 0.0270734 -4.79588e-21)
(1.22154 -0.0948485 0)
(1.27182 -0.0129675 -5.01915e-22)
(1.13772 -0.0576879 4.6398e-21)
(0.729466 -0.0342124 1.06538e-21)
(1.17625 -0.0946288 -4.41849e-21)
(0.683845 -0.038586 0)
(1.09138 0.0736982 0)
(1.2104 -0.139052 -5.09556e-22)
(0.894037 -0.10569 -1.75118e-21)
(1.33473 0.0881307 -1.23606e-21)
(1.1232 -0.0674837 -3.44388e-21)
(0.94078 -0.118563 3.28236e-22)
(1.07652 -0.0460728 0)
(0.42173 -0.140804 1.40713e-20)
(1.33128 0.106126 -1.65189e-20)
(0.822245 0.0713147 -1.82754e-20)
(0.115389 -0.344954 5.82053e-22)
(1.43443 -0.1188 2.60978e-20)
(0.8115 0.0391849 4.63563e-20)
(1.31645 -0.132566 3.54355e-22)
(1.11286 -0.0486558 5.83083e-22)
(-0.0531081 -0.174043 -8.11262e-21)
(1.00023 -0.00622752 0)
(1.03325 -0.0886092 -1.61769e-20)
(0.85459 -0.0341619 8.3624e-21)
(1.10689 -0.0420913 3.84888e-21)
(0.863001 0.0296369 -2.32792e-21)
(0.513591 -0.021865 4.04523e-22)
(1.42592 -0.38562 -1.57989e-20)
(1.08573 0.0542931 0)
(1.00555 0.0270271 4.61058e-22)
(1.12501 0.0327595 -2.81706e-21)
(1.26592 -0.0850579 0)
(0.699427 -0.140035 -6.99319e-21)
(1.12693 0.0541794 3.12153e-21)
(0.65254 0.146009 6.46321e-21)
(1.16777 -0.0568301 7.25261e-21)
(0.858408 -0.163403 3.5719e-21)
(-0.0373718 -0.112663 0)
(0.0923078 -0.0143843 -2.51493e-21)
(1.10972 0.0212921 0)
(0.879567 -0.104341 -9.03526e-21)
(0.86594 -0.0960036 0)
(1.13787 -0.00530148 4.29146e-21)
(1.01704 0.0271223 0)
(1.1562 -0.143871 0)
(1.40265 -0.108401 2.1792e-20)
(0.800268 -0.0942565 0)
(0.993621 0.0564112 3.30181e-20)
(1.11021 -0.0140694 4.3941e-23)
(1.04095 0.0418141 3.38532e-21)
(1.33596 -0.0264768 -1.84527e-20)
(1.23637 0.132438 -1.99504e-21)
(1.23702 0.0144986 6.01377e-21)
(1.11646 0.0658862 0)
(1.16647 -0.0740677 0)
(1.11318 0.0768351 1.70551e-21)
(1.2483 -0.0286254 0)
(1.38229 0.207435 -2.04928e-20)
(0.737954 0.148573 3.40919e-21)
(1.02673 0.0181327 2.42367e-20)
(1.22173 0.0274521 -1.56145e-22)
(-0.00815131 -0.0431303 0)
(-0.0370966 -0.106365 0)
(0.127147 0.0487987 -4.71728e-20)
(-0.0396098 -0.162446 0)
(0.554896 0.222713 -9.40109e-21)
(1.18697 0.0507664 -2.28831e-21)
(1.13613 -0.0671495 -4.69859e-21)
(1.24026 -0.165417 -6.82215e-21)
(1.24176 -0.051697 0)
(0.68141 -0.0157513 -1.65462e-21)
(1.16042 0.0856796 0)
(1.11914 0.0488899 -4.09934e-22)
(0.510281 -0.111087 0)
(0.569372 0.0922526 -7.05792e-22)
(1.17447 0.0744506 0)
(1.15984 0.0220274 0)
(0.675624 0.181539 4.90782e-20)
(0.4375 0.0828606 -7.73752e-22)
(0.956675 0.119977 -2.90183e-22)
(1.00961 0.0178681 -9.3441e-21)
(0.210046 -0.113846 0)
(1.16117 0.0846376 -3.00817e-20)
(1.22034 0.00341342 -6.0082e-23)
(1.10635 0.0752632 3.70683e-21)
(0.471024 -0.0646696 1.12077e-20)
(-0.0520704 -0.142264 -9.63973e-20)
(1.20204 0.0626299 0)
(-0.0322094 0.0301672 0)
(1.22846 0.0201805 3.10511e-21)
(0.32515 -0.137773 -1.20617e-20)
(1.12493 0.00315055 -1.5916e-20)
(1.11079 -0.0490686 0)
(1.10951 -0.0427723 3.03224e-21)
(1.3195 -0.239737 3.14021e-20)
(0.556335 -0.0521 -9.82955e-21)
(1.15 -0.0451693 -6.41883e-22)
(1.15136 -0.0780413 -1.25596e-22)
(0.551349 -0.170667 2.91112e-20)
(1.17117 -0.116643 -9.67794e-21)
(1.13386 0.025509 0)
(1.20861 0.0854562 0)
(1.1941 -0.110355 4.40979e-21)
(1.20047 0.0218649 5.42994e-23)
(0.808233 -0.106469 -9.36634e-20)
(1.19575 -0.114392 -1.34919e-20)
(1.14465 0.0400442 6.72086e-21)
(0.515969 -0.00105008 1.39603e-20)
(0.498104 0.17307 -9.46811e-20)
(0.0786868 0.177187 4.85785e-20)
(1.1672 0.184142 -6.39788e-21)
(1.24635 -0.50088 5.97733e-21)
(1.30778 0.0566632 -1.18743e-20)
(1.22336 -0.0652445 -5.22583e-21)
(0.942646 -0.241487 9.48923e-20)
(-0.188597 0.177889 0)
(1.16989 0.0320381 -1.17889e-21)
(-0.188236 0.109305 -2.29792e-20)
(1.22217 0.0521586 -2.68711e-21)
(1.24951 -0.04175 5.21534e-21)
(1.08903 0.0344687 0)
(0.557582 -0.198842 0)
(1.16676 -0.0467356 0)
(1.2471 0.0251086 5.25099e-21)
(1.23839 -0.0117419 -1.86041e-20)
(1.16158 -0.055568 -3.19205e-21)
(0.452186 0.0168474 0)
(0.602275 0.0115585 0)
(0.604121 -0.00346132 4.47783e-22)
(0.424746 -0.0154722 0)
(1.21608 -0.0121267 0)
(1.02319 -0.0139186 2.45669e-20)
(0.444981 -0.378946 0)
(0.945419 0.040446 0)
(1.09288 -0.0091844 0)
(1.16631 0.187427 -1.23502e-20)
(1.22955 0.0163141 3.47619e-21)
(0.969778 -0.0323605 7.87955e-21)
(1.30964 -0.4056 -1.12038e-19)
(0.680669 -0.27745 2.01874e-20)
(1.2767 0.151 3.51919e-21)
(1.18219 -0.0187163 0)
(-0.262454 0.0824625 0)
(-0.224556 0.0984138 0)
(1.17856 -0.031051 -5.29e-21)
(1.33312 -0.290799 -2.73713e-20)
(1.29071 0.039896 0)
(1.08798 0.05691 -7.74782e-21)
(0.500573 0.0149239 0)
(1.52545 -0.160056 7.89439e-20)
(0.40763 0.511188 1.27263e-19)
(0.294507 -0.0599752 0)
(1.11424 -0.280933 1.20279e-19)
(0.23114 0.32086 0)
(0.00649709 -0.25546 1.35872e-20)
(1.25355 0.0478833 0)
(-0.125202 0.133776 4.13666e-21)
(0.983551 -0.0495795 0)
(1.32511 -0.13241 -1.5801e-20)
(-0.143774 -0.0768885 -8.08629e-21)
(1.13446 -0.0311152 8.95486e-22)
(1.10841 -0.0084209 -1.55657e-20)
(0.580434 -0.531001 -9.15307e-20)
(1.1981 0.0715903 -1.28542e-21)
(1.19889 -0.124403 3.28107e-21)
(1.17265 0.245395 -2.60846e-20)
(1.20317 -0.275314 -1.03664e-20)
(1.17618 -0.0188672 -1.45536e-22)
(-0.15928 0.164354 -5.02777e-20)
(-0.0133289 0.0321742 -6.27094e-21)
(1.37777 0.130135 2.94121e-21)
(1.05787 -0.0478227 0)
(0.580475 0.0953844 4.17023e-21)
(1.41873 -0.446681 8.51689e-20)
(0.961425 -0.086982 -6.31601e-20)
(1.39169 0.159871 5.61676e-20)
(1.07504 -0.0383089 3.70042e-21)
(1.13616 -0.0619183 1.01172e-20)
(1.0624 -0.00712441 0)
(1.1725 -0.0165118 0)
(1.30726 -0.132845 6.62937e-21)
(1.08852 -0.0185731 -4.55267e-21)
(1.20257 -0.27229 1.12122e-20)
(1.11994 0.0538802 -5.65876e-21)
(1.4211 0.0118428 -4.71189e-20)
(0.422304 0.0192379 0)
(1.17234 -0.13012 1.75925e-21)
(1.26672 0.051993 0)
(1.14054 0.0484648 -3.90176e-21)
(1.14419 0.0293287 0)
(1.04051 -0.00819768 1.29368e-20)
(1.23761 0.0483888 9.78498e-21)
(1.06567 -0.062438 0)
(0.0540872 -0.0301393 1.61665e-19)
(0.885491 -0.220573 -7.44298e-20)
(1.33459 0.0852378 -3.29931e-20)
(-0.106127 -0.0984692 3.91169e-20)
(1.18046 0.0193143 1.73291e-22)
(0.640567 -0.0169121 -4.26889e-21)
(-0.0969847 -0.0795664 -4.07839e-20)
(-0.016692 -0.0428094 -2.46497e-20)
(1.02115 -0.0288244 0)
(-0.0310121 -0.0423233 0)
(1.16524 0.110069 0)
(0.112752 -0.115817 0)
(1.12013 -0.0321266 0)
(0.138121 0.0273733 0)
(1.1226 0.0318664 0)
(1.10748 0.041567 0)
(1.37329 0.0402645 -6.04417e-22)
(0.584579 -0.290224 -2.22863e-20)
(-0.163167 0.0374887 0)
(1.17157 -0.0898328 6.57441e-20)
(1.33913 0.129553 -3.37686e-23)
(1.28904 0.118657 0)
(-0.0391233 -0.0437556 0)
(1.16476 0.0180843 -4.61524e-22)
(1.17686 -0.00269511 -5.39052e-22)
(1.15953 0.384312 0)
(0.283583 -0.0987493 6.37619e-20)
(1.12169 0.0658322 1.5799e-21)
(0.238693 -0.0526165 -5.47405e-20)
(-0.0586003 0.0384589 -2.81468e-20)
(-0.0326233 0.0479103 7.41759e-20)
(0.062015 0.0982049 -9.54887e-21)
(0.931908 0.0250838 4.01727e-21)
(1.14898 0.0421867 -6.42965e-21)
(1.02463 -0.00760066 0)
(1.07086 -0.0681984 -2.15206e-20)
(1.21237 0.0276401 -3.7363e-21)
(-0.0112816 -0.0582176 9.78671e-20)
(0.981712 -0.0734954 -5.98231e-20)
(0.764287 0.0179372 -4.7402e-21)
(1.20795 0.123372 3.99578e-22)
(0.0740461 -0.032561 3.49335e-20)
(0.249019 -0.0389665 -4.94679e-20)
(0.425562 -0.0713246 -5.7822e-20)
(1.25164 0.00303676 3.54763e-21)
(-0.0572187 -0.0419631 0)
(1.06633 0.106182 -1.64356e-21)
(1.10468 -0.170003 8.49493e-21)
(1.17854 -0.20659 -8.19128e-21)
(1.26782 0.101269 0)
(1.52685 -0.220797 7.64882e-20)
(1.16297 0.0340734 -3.70374e-21)
(-0.0182652 -0.0627526 -3.41693e-20)
(0.24881 0.0562629 0)
(0.910279 0.0426488 -2.8399e-21)
(1.12368 0.0200003 6.14629e-22)
(0.724298 0.00189188 2.72491e-20)
(1.17066 0.0173042 9.94846e-22)
(1.11763 0.0548843 0)
(1.16135 -0.171691 -1.53023e-20)
(-0.0656737 -0.129904 -7.248e-20)
(1.30635 -0.0108032 2.24044e-20)
(1.09808 0.173615 -8.68886e-21)
(1.11288 0.0594674 6.47183e-21)
(-0.0443202 -0.0758137 1.60894e-20)
(-0.0184253 0.013432 -5.5215e-20)
(0.831247 0.115169 0)
(0.669507 0.180295 0)
(1.14926 0.103286 -2.10922e-20)
(1.05057 0.0690696 1.44886e-20)
(1.11472 0.0486448 0)
(0.648307 0.033881 6.10896e-20)
(0.710161 0.0790298 -9.92576e-21)
(1.0971 0.109389 0)
(1.10045 0.0614018 0)
(1.24634 0.0804007 0)
(1.16154 -0.0113545 0)
(1.18022 0.131155 3.31509e-21)
(-0.0426848 0.0425951 3.07386e-20)
(1.23179 -0.028398 8.59292e-21)
(1.43718 -0.190629 -8.82606e-20)
(1.17759 0.0897412 -4.87791e-21)
(-0.0592111 0.142865 0)
(1.16719 -0.117977 0)
(0.617063 -0.0179153 -5.27854e-22)
(0.523679 0.00708631 -5.31795e-20)
(0.0698488 0.0352755 4.34889e-20)
(0.929847 0.0235097 -2.28741e-22)
(0.752338 -0.275865 0)
(0.688189 -0.0931752 0)
(1.12327 0.0499221 0)
(0.534361 0.506813 1.36227e-20)
(-0.0100308 -0.0122821 -2.67662e-20)
(1.1613 0.105415 3.34386e-22)
(-0.0251686 -0.108198 6.56354e-20)
(1.16805 -0.0382495 1.94255e-21)
(1.16531 0.312181 4.97531e-20)
(1.11387 -0.0861382 8.13571e-21)
(0.215598 0.107506 6.60507e-20)
(1.15086 0.159575 -2.35124e-22)
(1.00476 -0.105037 0)
(0.551642 0.267715 0)
(0.83943 -0.0900666 4.4149e-21)
(-0.190158 -0.00308368 0)
(0.602931 0.0289521 2.34071e-21)
(0.611492 -0.423755 -3.30474e-21)
(0.234058 0.0482613 -1.02686e-19)
(1.12828 -0.230167 3.13496e-20)
(1.03254 0.357169 1.08121e-20)
(0.979509 0.0146175 0)
(1.17475 0.0655263 4.08361e-22)
(0.629272 0.0179486 0)
(0.982149 -0.0258755 -5.53584e-22)
(0.447047 -0.0221099 0)
(0.711406 0.119106 0)
(1.00788 -0.0205629 -5.03787e-21)
(1.42374 0.179947 -9.73117e-21)
(1.15632 -0.0521959 8.4762e-22)
(0.52868 -0.499749 0)
(1.13729 -0.154766 2.00447e-21)
(0.799693 0.368543 7.38659e-20)
(-0.0370576 0.0210685 1.04411e-21)
(1.24242 0.000413751 8.06304e-21)
(1.22499 0.0493836 -7.20675e-21)
(1.23305 -0.0580255 7.64673e-22)
(0.793196 0.00813144 -4.90342e-21)
(0.0624762 0.0175146 3.33274e-20)
(-0.0162375 -0.0860471 -5.44129e-20)
(-0.197138 0.0203097 0)
(-0.198607 0.151163 0)
(1.19768 -0.62233 3.32305e-20)
(1.15885 -0.0254614 1.42014e-22)
(0.898643 -0.470312 -4.50566e-20)
(1.05433 -0.000742498 3.12127e-21)
(1.34845 0.202535 2.81947e-20)
(0.596912 0.415044 0)
(0.243502 0.407235 -1.20719e-19)
(0.59089 0.468773 0)
(-0.0659785 0.0610916 0)
(1.13213 -0.485428 0)
(-0.0393378 -0.0544545 -4.42965e-23)
(1.1907 -0.00580248 0)
(0.714667 0.0498617 5.66097e-21)
(0.587551 0.681696 1.99136e-20)
(1.22293 0.0406909 -4.06322e-21)
(-0.0307756 -0.145832 -1.13486e-19)
(0.314844 -0.202852 1.72298e-20)
(0.444493 0.142369 -1.23332e-20)
(1.20427 0.102531 0)
(1.34748 0.356679 2.7619e-20)
(1.21193 0.559966 1.55543e-21)
(0.158051 -0.0165067 -1.96999e-20)
(0.974396 0.119212 2.65087e-20)
(0.936795 -0.0339052 8.51371e-22)
(0.902534 0.0279631 -2.15189e-22)
(-0.0100382 -0.0432448 0)
(0.653716 -0.665821 -2.99799e-20)
(0.612382 0.189018 0)
(0.115316 -0.138321 0)
(-0.0419153 0.03248 0)
(0.0189341 -0.160075 -4.36042e-20)
(1.25056 0.00876258 -9.27071e-21)
(-0.037621 0.0187459 0)
(-0.0250475 0.00190098 0)
(1.44823 0.124528 -5.36246e-20)
(-0.0393743 -0.107321 5.11116e-20)
(0.113453 0.226789 -1.03791e-19)
(0.380272 0.0130003 0)
(0.171504 -0.288042 8.15215e-20)
(1.10266 -0.242948 0)
(1.00159 -0.28987 0)
(0.0198953 -0.13531 1.08003e-19)
(1.15158 0.0456182 -1.82459e-22)
(1.11828 0.337791 3.11208e-20)
(0.257874 0.0267923 4.20601e-20)
(0.408321 -0.526426 -3.60169e-20)
(1.23578 0.0925678 0)
(1.19774 0.191833 1.93239e-20)
(1.20329 0.212121 -2.37381e-20)
(0.101773 0.078835 -2.38119e-20)
(-0.0609896 -0.084652 0)
(1.072 -0.0563063 -1.96287e-20)
(1.10686 -0.226277 -1.54438e-20)
(0.587172 -0.416826 0)
(1.09903 -0.152368 -2.60039e-20)
(-0.148523 0.125745 0)
(0.55589 0.0289487 0)
(1.39783 0.0538231 3.40782e-20)
(0.995779 0.0414108 5.11304e-22)
(1.06725 0.735267 -2.11989e-20)
(0.228167 -0.387227 1.3094e-19)
(1.12563 0.0445573 9.33759e-22)
(1.206 0.0833242 -2.18051e-21)
(-0.0406868 0.000468891 2.64998e-20)
(0.77832 0.724169 3.41608e-20)
(1.36105 -0.372626 -1.35283e-20)
(0.0838227 0.19206 8.22283e-20)
(1.10552 0.0254644 0)
(0.0772878 0.0467772 -4.95279e-21)
(0.908543 -0.643071 2.98069e-21)
(0.890127 0.634706 -1.23658e-20)
(0.558065 -0.0365634 -6.48631e-20)
(1.14829 -9.44337e-05 -5.83613e-21)
(1.07646 -0.082944 6.97185e-21)
(1.16287 0.0325664 2.24837e-21)
(1.10428 0.122651 6.33467e-21)
(1.13426 -0.125623 0)
(0.888868 0.107003 1.25462e-20)
(0.87635 0.454406 0)
(1.23066 0.0094731 -2.47145e-21)
(1.16584 0.1186 2.69018e-21)
(0.741674 0.261562 0)
(0.511883 0.108448 9.79239e-20)
(0.884841 0.702914 -1.07691e-21)
(1.07126 0.287491 -2.39004e-20)
(1.04197 -0.00935548 1.23738e-20)
(0.411968 0.47876 0)
(1.30785 -0.478122 0)
(0.558258 0.0963201 4.05441e-21)
(1.2512 0.50015 0)
(-0.0219465 0.0381611 -3.74655e-20)
(1.29378 -0.418472 -9.46994e-21)
(1.15611 0.504152 0)
(0.451951 0.203909 1.73059e-19)
(1.10967 0.31346 -1.07287e-19)
(0.822676 -0.652086 -2.56005e-20)
(1.15877 0.027227 -2.43904e-22)
(0.901075 0.149242 7.19568e-20)
(1.08427 0.168206 5.8778e-20)
(1.06059 0.696378 2.6478e-21)
(0.910719 -0.447234 6.52276e-20)
(1.40969 0.200418 2.96289e-20)
(1.13321 0.0115264 -1.1758e-21)
(0.00145712 -0.076485 9.4592e-20)
(1.09259 -0.710746 2.83334e-20)
(0.879406 -0.730058 5.22818e-20)
(0.254345 -0.348863 0)
(0.973353 -0.151424 7.38444e-20)
(0.359856 0.29394 -4.49126e-19)
(-0.0706197 0.0013891 2.81362e-20)
(0.223142 0.0216508 1.88784e-20)
(0.686875 -0.0603576 -7.6409e-20)
(1.07039 0.522007 0)
(0.987976 0.218111 8.55832e-20)
(1.08554 0.0329436 4.29172e-21)
(0.902369 0.433522 -9.52357e-20)
(0.790596 -0.734833 -8.1037e-21)
(0.927417 0.0164503 -5.00815e-20)
(0.970732 0.481652 0)
(1.11236 -0.0365783 1.33427e-21)
(1.39266 -0.519241 1.36724e-20)
(1.23546 -0.344789 9.77693e-21)
(-0.264642 0.187629 2.84147e-20)
(0.194989 -0.0123388 -1.84187e-20)
(0.97778 -0.122649 -5.93432e-20)
(0.348072 0.513581 0)
(0.913942 0.00882789 3.99035e-20)
(1.14514 0.630555 6.79367e-20)
(-0.0390911 -0.0970832 1.55691e-19)
(-0.0608758 -0.0313169 -2.19107e-20)
(-0.0853009 -0.145319 4.07841e-20)
(1.09853 0.026772 -5.87447e-21)
(1.14253 -0.466456 0)
(1.07695 -0.744836 -4.10863e-20)
(0.694651 0.338751 0)
(0.0686415 -0.0998374 -1.16475e-19)
(1.13934 0.0431565 3.52235e-21)
(-0.0397123 -0.145717 -3.0306e-20)
(1.04714 0.0575149 -1.19657e-20)
(0.104775 0.0209315 4.86785e-20)
(0.829176 0.123209 0)
(1.36079 0.0176289 4.606e-20)
(0.0231433 0.00956171 -2.14362e-20)
(-0.238483 0.117142 -3.37461e-20)
(-0.23243 0.108254 0)
(0.0801106 -0.0230512 0)
(1.31982 0.00946912 -1.38791e-20)
(0.385255 -0.012163 1.5774e-19)
(1.27902 -0.735188 -2.44771e-20)
(0.848098 0.0882215 3.38437e-20)
(1.0656 0.24819 -3.41347e-20)
(0.372818 -0.571747 1.40122e-19)
(1.52653 0.285713 -2.85895e-20)
(0.0818101 -0.103278 3.69201e-20)
(0.206455 0.291115 2.00306e-19)
(0.103839 -0.0650728 -1.37628e-19)
(0.9488 -0.501645 -4.35739e-20)
(1.43758 0.387507 2.91175e-20)
(0.573964 -0.687853 4.85867e-20)
(1.1078 -0.0811352 -7.07834e-21)
(0.266198 -0.0120977 6.37394e-20)
(1.16324 0.288388 -4.24874e-20)
(0.655899 0.628711 -4.31817e-20)
(1.35074 -0.630144 0)
(1.40053 0.516066 3.00967e-20)
(1.06176 -0.536414 -1.28633e-20)
(1.37382 0.601888 -8.31299e-20)
(1.16918 0.0175257 0)
(-0.0474487 0.0317334 0)
(1.2389 0.722583 0)
(1.15534 -0.0289246 -9.72446e-21)
(0.746732 -0.312273 -2.09079e-19)
(0.477135 -0.0954077 0)
(-0.0532374 0.0159076 -2.24692e-20)
(1.02348 -0.249963 9.95166e-20)
(-0.268469 0.165469 0)
(0.321358 0.0112572 1.24427e-20)
(1.13638 0.0255894 0)
(1.39455 0.275246 0)
(1.17899 0.0261002 2.61192e-22)
(0.363784 -0.306466 0)
(1.01065 0.148248 4.09111e-20)
(1.29129 0.286925 0)
(-0.0838854 -0.018977 2.41818e-22)
(0.816481 -0.407378 0)
(1.49902 0.343771 -4.33196e-20)
(1.23118 0.364929 5.0607e-21)
(0.833144 0.635513 -1.04207e-20)
(1.00726 0.157042 -9.44402e-20)
(0.971244 -0.209209 -4.84986e-20)
(1.43478 0.29707 2.54924e-20)
(0.952524 0.0820548 0)
(0.564001 -0.0826086 0)
)
;

boundaryField
{
    FrontBack
    {
        type            empty;
    }
    Top
    {
        type            noSlip;
    }
    In
    {
        type            fixedValue;
        value           uniform (1 0 0);
    }
    Bottom
    {
        type            noSlip;
    }
    Out
    {
        type            zeroGradient;
    }
    circle
    {
        type            noSlip;
    }
}


// ************************************************************************* //
