/*--------------------------------*- C++ -*----------------------------------*\
| =========                 |                                                 |
| \\      /  F ield         | OpenFOAM: The Open Source CFD Toolbox           |
|  \\    /   O peration     | Version:  2412                                  |
|   \\  /    A nd           | Website:  www.openfoam.com                      |
|    \\/     M anipulation  |                                                 |
\*---------------------------------------------------------------------------*/
FoamFile
{
    version     2.0;
    format      ascii;
    arch        "LSB;label=32;scalar=64";
    class       volVectorField;
    location    "1194";
    object      U;
}
// * * * * * * * * * * * * * * * * * * * * * * * * * * * * * * * * * * * * * //

dimensions      [0 1 -1 0 0 0 0];

internalField   nonuniform List<vector> 
808
(
(0.7562468552891538 -0.01749831791527187 0)
(1.031336391754125 -0.01257189390126996 0)
(1.114528478022372 -0.004377077169451318 -1.799051774784472e-20)
(1.085118450618193 0.01260879830565034 0)
(1.364636397023221 0.01650733696568778 -3.918999757749357e-19)
(1.038685783007688 -0.009317402139777921 -7.164255655308734e-20)
(1.013517971588233 -0.02082909506280389 -2.327542679582e-20)
(1.078691565863004 -0.005215926422682688 8.984413090956314e-21)
(1.254342520424416 -0.01889945379432271 6.375692798865398e-20)
(1.084520289754946 0.01035838829596019 0)
(1.013383094751499 -0.008425728687552756 0)
(1.306392871001141 -0.05192738256518323 -3.569881134091153e-19)
(1.085963622328904 -0.001775656699626397 2.03393400624263e-20)
(0.6750921288637171 0.006404946068560973 0)
(1.285088428402928 -0.1140077744672359 0)
(1.081411139285123 9.461887342056007e-05 -3.820111677322279e-20)
(1.232015046835329 -0.1455038546866113 -9.85126091158984e-20)
(1.0739621184451 6.515958252677986e-05 3.168087757901076e-20)
(0.9930795178815156 0.00504640136622525 0)
(1.026336309898021 0.009379920309313641 0)
(1.038608342666436 -0.01013568252318101 0)
(0.9874502301745581 0.04433062383533708 0)
(1.051137565100741 -0.00596500844667279 5.510827446802749e-20)
(1.053347278204643 0.009131122567532943 0)
(0.9325568749510813 0.1970412793721781 4.613641606886206e-19)
(1.167592252494793 -0.08602692538170018 0)
(1.18579993265198 -0.01786245740714495 1.594230305841199e-19)
(1.077433759094798 0.009393377134303448 5.19220445305192e-20)
(1.083988768489342 0.002252179898622628 5.051617191495521e-21)
(1.071959458000359 0.03090829589867501 0)
(1.075554658367786 0.00266472020418316 -1.17255322672121e-20)
(1.032964173071207 0.006657317371693097 -1.971907695412073e-19)
(1.059853405974494 0.01487713896526894 -2.394293975141979e-20)
(1.089154177425528 0.005334920540583755 -2.928535884765423e-20)
(1.119609819567739 0.03919956051130336 0)
(0.7552100042873734 -0.1239704844876713 -4.533330099383647e-19)
(0.954578457724425 -0.005857847426630126 0)
(1.068940775321527 0.02239504999469603 0)
(1.068833692458093 0.007356190609794048 0)
(1.073612683064721 0.00899692913744549 -2.838726741601949e-20)
(1.091905524569216 0.02440649095222737 1.120614344018745e-19)
(1.150444654099021 0.004215074124595061 2.195896273590529e-19)
(1.095945829350767 -0.002380365604054414 0)
(1.015876755395536 -0.008966019266928135 0)
(1.133978783684593 -0.09680430504358987 -1.646121748904745e-19)
(1.044102057004836 -0.0116076816560364 -7.911511948494401e-20)
(1.058289080231765 0.02663258579149715 -2.837019750808297e-20)
(1.231636154602263 -0.1115275828968854 -5.633778619809618e-20)
(1.067731673272813 0.01221626759913715 -4.274736630256785e-20)
(1.257441771534862 0.01904263242161236 0)
(0.9962342127764992 -0.01850033285570012 2.089549547252755e-21)
(1.044575044013919 -0.00188365761064415 0)
(1.087608806735997 -0.002184711725852432 0)
(0.9988743689343192 0.006548760216119004 -1.839229913346542e-20)
(1.250729018400834 0.03507429133413718 -2.313741946605744e-19)
(1.063768530373328 0.01825499169569136 6.166662761956706e-20)
(0.9913984819047764 0.008517410438077903 0)
(1.02092052624016 -0.009293930012936494 2.350922876282433e-20)
(1.107113095696034 2.005831718528486e-05 -1.206344833495386e-19)
(1.061386266473437 0.03098845056424699 0)
(-0.07766814670754128 0.004533892976497523 7.005526363737039e-20)
(1.155108001112398 -0.05124594000834713 -1.928069394817342e-19)
(1.006289320947814 -0.007940313404300176 -2.583282485340653e-20)
(1.183750100802879 0.07011095400965574 -1.238523650341625e-19)
(0.9983782865076035 -0.009631122651371076 2.994180922957468e-20)
(1.084174974952121 -0.005536121419575826 0)
(1.245147978074481 0.1001608584711189 0)
(0.6960462605196706 0.003205985051426326 -7.49628529421685e-20)
(0.9899037297292224 -0.01357470651637957 -3.119573591272762e-20)
(1.461654917354143 -0.01669752896492121 4.512985144850585e-19)
(1.06052663415411 0.007579321275082746 -6.821899742043086e-20)
(1.368800628790488 0.09937836586611168 2.932895422170321e-19)
(1.054720073996422 0.006875198978676313 -1.87690010564254e-22)
(1.081269339051694 -0.01389664105403601 -5.003207784271069e-22)
(1.165450406052551 -0.2362604049249455 0)
(1.02186808204961 -0.01440849125785044 0)
(1.017231286273521 0.01755445734877393 -3.154040677509111e-20)
(1.384898767422013 0.3491059671506903 4.141638930491447e-19)
(1.097007953623263 -0.04221978746403229 9.311153438152831e-20)
(1.045161464950933 0.2091980409833825 2.554899059584357e-19)
(1.126196233045787 -0.06124863490686244 1.147955130644833e-19)
(0.922041238839957 0.005128985713160629 0)
(0.9754559743054758 0.01853662356957489 0)
(1.004146858743253 -0.04903471854225885 2.61278838455761e-21)
(1.010413680074433 -0.01290699644259184 7.453211593795272e-21)
(1.029922732931622 0.0260475552992232 1.408220429386412e-20)
(1.53111766132361 0.03763845587874542 3.28778375456338e-19)
(1.288756427095224 0.07227016381738585 5.463812784306766e-19)
(1.072367419777929 0.003001027934326563 -9.300383178090204e-20)
(1.200539141107084 -0.09274014904707571 0)
(1.033679868382983 0.001800294670372237 1.355592446574042e-19)
(1.164246497731528 0.0230946566072013 -3.247206400516466e-19)
(1.001425258255084 0.03227545761386622 0)
(0.9996267209362267 0.00203405366193367 0)
(1.044498764714694 -5.498903365505919e-05 7.685044275863636e-20)
(1.208820800821567 0.1107301438992604 4.132552941977569e-19)
(1.011056014951788 0.006985687480064353 0)
(1.092208414142123 -0.07068632688905689 -1.050244775470181e-19)
(1.149572635409832 0.03832705658873346 0)
(1.210706718200732 0.09751363178170218 -1.952212356059602e-19)
(1.108033292274482 -0.02859148750227346 -7.62909906831276e-20)
(1.027363452642301 0.01160898999457887 0)
(1.085132462661306 -0.004658380015693834 0)
(1.019106985398457 0.0256360205506061 8.189256835293191e-20)
(1.071771612157358 0.0539874450482942 -9.427618153522413e-21)
(1.103822827378724 -0.004199216673768062 6.205760042608955e-20)
(1.111509775499163 -0.09635076732181276 1.52553301096961e-19)
(0.9612337628411022 0.002493697237240512 0)
(1.066266968795392 0.03115919843759746 3.879641097160996e-20)
(1.169190600942428 -0.07586787690834751 2.356319631966936e-19)
(1.051625914819883 0.04504776829820873 -2.92959682778538e-20)
(1.022472847855727 0.06714663617340957 3.759580425833477e-20)
(1.090490058580669 0.02608198855630648 0)
(1.014467100577487 0.01816153002781144 0)
(1.029002465300524 0.00943450042179891 7.916322503566747e-20)
(0.948724848432411 -0.03377223203329367 0)
(1.052916245709919 -0.005696220752492051 -7.972893951067133e-21)
(1.342802515829596 0.06085986803996941 -1.598900079021108e-19)
(1.080038980468854 -0.01321322801717286 2.58901372998531e-20)
(0.7439849943796643 -0.001754405157524991 0)
(0.5554144124603227 0.1697965536023882 -8.518496754343935e-20)
(0.7060861108460808 -0.002541965952636447 0)
(0.6989363485446264 0.01464281467808682 0)
(1.077649485125948 0.003612349439017771 -6.847822050315024e-22)
(0.9906384124997223 0.01452504816814841 0)
(1.278045658641336 0.1232685185299507 2.468796513865385e-19)
(1.012359343409802 -0.02781754328510128 -7.980243937307763e-21)
(1.04384879213664 0.02224938580471834 1.711384810817737e-21)
(1.058586342503638 -0.01166499686260254 0)
(1.126608199325941 -0.009158117462266101 -4.946463786245822e-20)
(1.261340427828521 0.1415336465702013 -2.256606965074833e-19)
(1.089260219257677 -0.01124841382309593 -8.522808721328043e-20)
(1.069653543244901 0.02635208858909909 -1.110949094574072e-19)
(1.040700853999802 0.0467206255576155 6.817943967030315e-20)
(1.022465165533937 -0.003743079923453047 -3.449267147636422e-20)
(1.061071665152197 0.02349178836476345 6.14113980937141e-21)
(1.129618409687223 -0.004584387586080398 1.074247008971251e-20)
(1.040215038744559 -0.01539077051777126 -4.778693458261171e-22)
(1.087621560515318 0.03477338515956179 0)
(1.028133049863076 0.01342952014039113 0)
(0.7662104491230441 -0.05737135240458723 -1.823309744448612e-19)
(1.030141836931273 -0.001693906093603998 -6.982778893196152e-20)
(1.131616982451078 -0.005906381474704974 -1.2985624472611e-20)
(0.7034571197922 0.006578304601980832 7.439297465701532e-20)
(1.174990507179787 0.02073755871671899 -1.90527448232002e-19)
(1.129923332474074 0.003662829379847471 5.35529267600628e-21)
(1.128968995244934 -0.01002166732863635 3.495309531214323e-20)
(1.000940693188848 -0.002934848871003272 -7.745493913375295e-20)
(1.099435831105744 -0.06894901456586028 0)
(0.9852069405326915 0.001326593227193478 0)
(1.05793780659362 0.007085050877063783 0)
(1.005224396165455 0.1877473296354098 -2.487329225588655e-19)
(0.779291533382566 0.01240625936313742 0)
(0.8568410234517551 0.1003335172709682 -8.479427605831364e-20)
(0.07400349475722946 0.04012156092563778 -3.038108931257979e-19)
(1.17299420903331 -0.02941165974626784 -2.219115359252308e-20)
(0.6713337689637746 -0.007303629965749989 2.434655611263135e-20)
(1.171000157638974 -0.1027390245268039 6.933849448061873e-20)
(1.123039631303092 -0.006760925240172241 -5.933097956520525e-21)
(1.155890584283796 -0.04789837593088016 2.15644171158699e-20)
(0.1082319496383875 -0.2199424159953405 0)
(0.2522425831710872 0.08969489643692757 0)
(1.255388844958761 0.1143270336777287 1.946454246991662e-19)
(1.021323476324696 0.01979594595102151 0)
(0.7378052509671935 -0.006300520607268822 0)
(1.075401980213467 -0.01184761471592971 2.702917823611458e-20)
(0.9749317559988777 0.002779614634807548 0)
(1.291428369955193 0.1331081808112544 -1.586731339172538e-19)
(1.05748305432246 0.01123212341134724 0)
(0.9937459349377739 -0.007565700437584817 0)
(1.065032733497891 0.008219739981705391 0)
(1.006157442838322 0.0208075579155113 1.743961939095878e-20)
(0.9327963373623205 0.01471181110123334 1.065387804051769e-20)
(1.177581636266326 -0.1998149077752889 0)
(1.00519623175972 -0.00519382644186741 7.790691302496932e-20)
(1.05912940099859 0.006374224114348526 0)
(0.7746777417780437 -0.003295228576853359 0)
(1.216829237739368 0.02980001734517622 1.679180920659719e-20)
(0.7049789827915854 0.001328092120525758 0)
(1.436631485953777 0.09003398080879084 -5.350303605002629e-20)
(0.994566141977861 -0.006877625826978547 1.706656307044777e-20)
(1.273818082741982 -0.0004554603332908979 -2.917703561681023e-19)
(1.059614250964417 0.008839779958835076 1.399474216842746e-19)
(1.000907369054155 -0.01359972570005972 0)
(1.217600031540864 -0.1460589982559319 2.036643006426097e-19)
(0.7331954547871854 0.01379129066286788 0)
(1.098413331455389 -0.00512282989093278 0)
(1.151395779958387 0.06888758176204907 2.041248914331841e-20)
(1.007112646259672 -0.006935548759524685 -3.025727477055153e-20)
(1.119721750497608 0.05247422238938122 -1.767973343856703e-19)
(0.1017282129674797 -0.08308152845054409 0)
(1.071811334609507 0.03813673755059789 0)
(0.661699268192337 -0.002929782789026809 -6.814263262727395e-22)
(1.012153276075394 -0.0194122271229823 9.797488625139384e-20)
(1.061456546502326 0.000698066656551714 0)
(1.07802992551731 -0.1244074660802212 3.721706722199436e-19)
(1.00277246682267 -0.006217947695136361 -3.476549484066251e-21)
(1.002479027355493 -0.005359645896079518 7.702330879888221e-22)
(1.093920603127388 -0.009336246341940045 0)
(1.020666108538723 0.02056934064525319 -6.248832175510492e-20)
(1.106583953064595 -0.001605995736278986 6.718262687724545e-22)
(1.074226619134873 -0.01135725521715423 6.582084175179899e-20)
(1.085827823276385 0.02235618784203347 0)
(1.331799313993079 0.1658546699647699 0)
(1.001995891120837 0.0001012998680541563 4.414767657537415e-20)
(1.321514321053796 -0.1237872928710862 1.538696789184269e-19)
(0.0523443628201463 -0.1894494043199305 -2.556783555375581e-19)
(1.071328050890773 -0.005527041591120084 0)
(1.117241684832561 -0.0007389311495215355 1.21412319715241e-20)
(0.7268802961180699 0.01785083162040484 0)
(1.062895866724164 0.004784644504721305 0)
(0.8716547389093591 0.1670460501056282 4.779567147535886e-19)
(1.269477047565709 0.133235443156019 1.901804237416037e-19)
(0.6543333890135693 -0.003101944982751858 -6.312002715777774e-20)
(1.041682129259038 -0.003101000152815577 -7.087458381346571e-21)
(1.054787023774282 -0.0002872328700243864 6.64494069503421e-20)
(1.363429670966621 0.1255757283664412 6.824801264583311e-19)
(1.333979172611196 0.2525173520594287 0)
(1.060349931167654 0.000320200135223914 0)
(0.9989886017779673 -0.007234690479613577 1.537440878668937e-20)
(0.9935258717862315 -0.01085509148656286 5.332251055821923e-21)
(1.381822866256655 0.2003956378649855 4.233788220634381e-19)
(0.6817058231707303 0.0005437881739271816 9.856750074756695e-20)
(1.005568434463127 -0.00208996409321645 -5.975802584654561e-20)
(1.098150565393906 0.0130174339459259 2.544841512184439e-20)
(0.6694746337743024 0.005003659235956242 0)
(1.066090468463071 -0.01201205231674163 0)
(1.005087233713869 0.1490465879409402 -1.230420952334712e-19)
(1.089426823659324 -0.008708903498141612 -2.446682051836366e-20)
(0.9821277109750282 7.378041396705711e-06 3.280702624770467e-20)
(0.9912104881376448 0.006039644837943832 0)
(0.6383013582357913 -0.001098701170048939 0)
(0.9768261114111068 -0.001178451072173892 0)
(0.6421315542522581 -0.001496075315091359 2.685546214457214e-21)
(1.090508420898956 -0.05658782153971434 1.195185079740999e-19)
(1.113557147073149 -0.0006705608247485917 1.223873497753544e-21)
(0.9579367522860646 -0.0009120629093492816 3.911396502941007e-20)
(1.015886690851266 0.01015463669139559 1.686728383632907e-20)
(1.066484882980122 0.00131139331508052 -2.44010413578729e-21)
(0.6347036454558056 0.008866713397340856 -3.644810250175175e-20)
(1.00304731454496 0.008777856498602814 -9.237675501707833e-22)
(1.035488012150367 0.008751860398653683 5.240994852705443e-21)
(0.987479270843295 -0.01272377404093391 0)
(0.6099974987277037 -0.0004930382114177699 0)
(1.068633058787415 0.02265914886140407 0)
(1.016930734572624 -0.01580593051716788 1.050511496393009e-20)
(1.023312950464094 -0.00853176873152494 0)
(0.9912426099060184 0.01428910553248707 -9.609197732292202e-21)
(1.011175504545784 0.001775523525213422 0)
(1.127541053043857 -0.002376558849508114 -1.156590546011046e-20)
(0.03989122902073272 -0.1427655883096806 -4.183853385088611e-20)
(1.036374565490047 -0.01733245261030578 -6.808382055129666e-22)
(1.042033466400874 0.004577163635571099 0)
(1.081878901386432 0.06570025766507494 8.44055642642206e-20)
(0.9687397714793019 -0.002348354621166237 3.112825592366989e-20)
(1.020584418318869 0.01686727422089594 -2.376485072010647e-20)
(1.001537265180319 -1.079940331671369e-05 2.499529857966485e-20)
(1.040421087736462 -0.006059823223549475 0)
(0.6408925057245419 -0.004004881119676875 0)
(1.025798578021834 0.02454249434833355 -7.244357071797047e-20)
(1.082587472079201 -0.003693890480443524 4.809967176210206e-20)
(1.017068128583436 0.003799423952790878 0)
(0.9791710724626815 -0.00291515385773236 -1.945648706526923e-21)
(0.8720051184729153 0.01957072698344125 -1.074076570571369e-20)
(1.014030051829821 0.002702741381515896 -1.013803776430377e-20)
(1.025781459570377 0.005070436709415828 1.830842481945304e-20)
(0.9827896609365016 0.004471379761373502 0)
(1.002395693972222 0.01094328487678784 3.517271186557325e-20)
(1.108209110480406 -0.001244969508258853 0)
(0.9246677610619507 0.0004009886333494253 -3.218918826122144e-20)
(0.9596740701992225 0.004769553340574515 0)
(0.91632838050882 0.2110911034036906 5.189562490002908e-20)
(1.010733568107126 0.06675340827281963 0)
(0.9930093424766193 0.004231049699316287 -2.279547132187064e-20)
(1.056849571832477 -0.05421379411432577 -2.887707035099692e-20)
(0.9913821502904173 0.0002543659366894188 3.39233628564957e-20)
(1.011914868056653 0.005053147683585477 0)
(0.9778931173408386 -2.831373612451731e-05 -3.160927978321218e-20)
(1.168713919544045 0.1026240040794169 -3.403796542627854e-19)
(1.069987675472175 -0.2652468534958058 0)
(0.993060372228883 0.001381721438033337 -2.224844361927773e-20)
(0.9788069864557908 0.003963390251267527 5.056782140313318e-21)
(0.9636744329011686 0.005834996494380398 1.008531737684537e-21)
(0.7459178229486911 -0.001060377615688788 0)
(1.121780545661733 -0.08200454434670454 0)
(1.004912764584986 0.004242649108865611 -2.210063636446987e-20)
(0.9029170045103148 0.008178066187930107 -9.666662938651962e-21)
(0.8548121794997591 0.01477494867772517 3.5178162082254e-21)
(1.013735367037411 -0.001579480498806622 0)
(0.9503601815669788 0.006475857297653988 1.448341823994992e-20)
(1.005637279055281 -0.0002642415966173679 -2.311241716548487e-20)
(1.020638619051321 -0.001314716398332581 -2.584354765080496e-20)
(1.113698106961194 -0.001677847221197216 -4.938695616665759e-21)
(1.119246557294161 0.0007832197560484506 0)
(1.014493795346759 -0.01038563879420975 0)
(1.020211277577884 0.002911471047607655 0)
(0.9437074768080265 -0.0001605980250091108 -2.104607718560441e-20)
(1.017863384082763 0.01359414142695853 5.32612876535659e-20)
(1.081224971675259 -0.000182688481477972 -2.22154659419991e-20)
(1.04003533820893 -0.004898270969263211 0)
(1.106161724380303 -0.005431301694347787 1.844490971564612e-21)
(0.9953996481525275 0.002703607177525399 -2.214988791189199e-20)
(0.9868196920943187 0.006159412049989252 0)
(1.011698379117321 0.003176949163655904 4.656903597991213e-20)
(1.367859048263125 -0.3146230251787792 -1.134326882066584e-18)
(1.122883492226814 -0.04349862148799939 -1.081053475903154e-19)
(0.9654556558367717 0.002491793715807923 4.684260424010372e-20)
(0.7737423147524831 0.008407768908552188 -3.092496979483559e-20)
(1.221671365037022 0.05410261760212483 0)
(1.225500122189169 -0.1320322200676846 -1.462152360425264e-19)
(1.078241172776554 0.003972562619593942 0)
(1.008381547593196 0.001538382311963393 2.249031110061517e-20)
(-0.1676698760698767 -0.1295975773754414 0)
(0.9939666527386979 -0.004646296146543033 0)
(1.012452783254678 -0.02316862768953743 4.63153688152611e-20)
(0.7062547437405771 -0.01945561545419482 0)
(1.096790033973683 -0.01482047626995167 2.112860581578071e-21)
(1.043880212424296 -0.01214135421343504 1.811362335955729e-20)
(0.6331531269566911 0.004135288885194905 0)
(1.449787424106687 -0.1223871385925678 0)
(0.9867485013486986 0.001279167619293311 -1.085087858863871e-20)
(1.069815481787851 -0.01500634097179825 0)
(1.037948516497269 0.000387696028306097 2.154684269109001e-20)
(1.082153803593848 0.006461872229783124 0)
(1.009890277252594 0.005369387822300476 -1.042213447658852e-21)
(1.005857566156987 0.002966282023936587 0)
(1.012594346871775 -0.01179574642211199 3.030663439184148e-22)
(1.003709058008363 -0.02086467522694136 0)
(1.034684644281458 0.003535768889904409 1.702768383785451e-20)
(-0.1848987809494186 0.03022834335622128 2.635169964752747e-19)
(0.8058661450666239 0.0237380325254005 5.219203994738652e-20)
(1.005737332312281 0.001857973799784516 0)
(1.132503765604111 0.01925892220997584 -1.155944828592716e-20)
(1.12271515986865 0.01713115319515015 8.306950719321066e-21)
(1.0544548602181 -0.01302891791293246 -1.276898193915606e-19)
(0.9987852747898792 0.01034893397506889 1.288709894681306e-21)
(1.077314000916742 0.006291685528589207 0)
(1.186084116985132 0.0542372907679844 0)
(0.8354668479741284 -0.07670912721620358 4.587465216755289e-19)
(1.09841138701173 -0.003734120601685321 0)
(1.032974608343469 0.007346866370743505 -7.390731548408372e-21)
(1.042523086362816 0.005154333614878701 6.131407569136289e-21)
(1.055051102639887 -0.06143518612605684 -7.531224005412335e-21)
(1.139774641858392 -0.0006249732330525768 1.663740607352374e-19)
(1.08577238479438 -0.008661480153414506 0)
(0.9946855099412999 0.001253919681555782 0)
(0.9959157463791116 -0.02544530919868097 -2.299337755933405e-21)
(0.9904295859074359 0.002794079573472615 0)
(1.030796888303201 -0.03877402305337361 6.363430941136561e-20)
(1.292389912364873 -0.09180164904601811 0)
(1.045180815219123 -0.00908159479546098 -2.395664864405921e-21)
(0.9861586062019927 0.01701475563428971 -8.469015179254169e-20)
(1.033545657675455 0.04089553917733916 -2.426235944530977e-21)
(-0.08524370814677422 0.1466393280568783 -1.643190391086877e-19)
(-0.0667288326277788 -0.3039559136588358 -1.376729679080389e-19)
(0.8895858898906186 0.1419349589041455 0)
(0.2952561655280534 -0.02415799435609179 -3.316988194675924e-19)
(1.007425340024857 -0.004696518188902328 -1.582703088105663e-20)
(1.063826991332375 0.002663246926431496 -2.119887260961981e-20)
(0.9917441986117581 -0.01854839970829256 2.9385645114946e-20)
(1.021090296460972 -0.03042776326274283 2.540275463759098e-21)
(1.009356561758111 -0.03240916891685539 -6.532590156343923e-20)
(0.9888095957042847 0.004807589614614631 -3.466648539201482e-20)
(0.9928641497553727 0.004847284423734045 0)
(1.025351787981623 -0.002193242331054904 -3.547487203109825e-21)
(1.939385391230139 -0.1554621872470658 1.079745108140148e-18)
(1.044999654289026 -0.002168747947270892 0)
(0.9952415973095103 0.00839064819098244 1.558643930799631e-20)
(1.003036024893754 -0.0001659037066186936 4.072052109674937e-20)
(1.162059344478526 0.1377173275455863 0)
(0.9971993055876305 0.0001305289398415573 5.72437424787856e-21)
(0.9485770435020532 -0.002052323014551352 0)
(1.037835826762012 0.04177339944905706 0)
(1.30916061332448 0.1664961074096436 2.368019742977171e-19)
(1.086292272805217 -0.00601876657471459 2.274766123619059e-20)
(1.018281224277493 0.03031509622412153 4.698576868472627e-20)
(1.088032499353202 -0.008421655588539819 -2.195548639641003e-20)
(1.046111495352807 -0.003949674916801445 -6.048037731489449e-21)
(-0.3841756283069013 -0.04951723669064224 0)
(0.9989014010821141 0.01449381603617417 0)
(0.1065251383374648 0.05691731238823151 -8.652958873467938e-20)
(1.007164163328146 0.02194642729296585 -4.180141487521656e-20)
(0.9943374857982534 -0.008997698407183979 0)
(1.001170663321306 0.005757570938053218 -5.043048671171441e-21)
(1.081671730730464 -0.04237633737103801 0)
(0.9950672276109127 -0.01656781678631436 -7.751096391390304e-21)
(1.095956527749804 -0.05952687978039174 0)
(1.445094858127825 0.1791816479618841 0)
(1.054466511923243 -0.01215037268295494 0)
(0.9901817841661253 -0.02337100906279507 -3.946524865112019e-20)
(0.9957600010278104 -0.04844077689738475 -2.62937094147471e-21)
(1.015128775515778 -0.01769156364408365 -1.714955527269659e-20)
(0.9972335203509203 0.01662657432217428 -5.698599161044318e-20)
(0.995336248001108 0.01066766555002748 -1.519005397091961e-20)
(0.9939043183967355 -0.0282484525978695 0)
(1.003224313039173 0.02441410200368061 1.973457136928636e-20)
(1.055720584944857 -0.04440310790923447 0)
(1.111328977272759 -0.03549349563398339 2.649351666964029e-19)
(0.9957509553669908 0.01713396839723019 4.69227290849822e-20)
(0.6150893932818213 -0.008674106922744871 0)
(1.134182602490976 0.143365654395899 -5.063516945550018e-21)
(0.8606525297689355 -0.0989246800342815 0)
(1.137809041173854 0.07333906598883552 -2.674203058313792e-19)
(1.317407882881914 -0.3892264695882208 1.305251254145192e-19)
(1.071272264855417 0.06077893827443579 -1.286673908712622e-20)
(1.010119963914317 -0.03205925569066204 0)
(0.9562802019794385 -0.2165672228314161 0)
(0.5029823266407418 0.1450757267870761 0)
(1.015039354598244 0.008780983485410444 1.314248289347632e-21)
(0.6858652423434975 -0.03080456883723728 0)
(0.9993864259715693 0.01792672719628676 3.598724277704605e-20)
(1.024337106247186 -0.005394843065319612 -2.810523530512964e-20)
(1.079040647573747 -0.008109006972783729 2.815089838422294e-21)
(1.041885515207516 -0.01630586413124367 3.30425401348916e-20)
(1.042343113115515 0.01157402863127565 0)
(1.064957855055312 0.0268906459166198 -9.518255007696496e-21)
(1.049587807391466 0.03512547521873312 -1.839331160983228e-20)
(0.9827898521602924 -0.0226358230363504 0)
(0.6249373578276389 0.005107858353557766 9.177434123465931e-20)
(0.894155872257237 -0.005878493022169842 -8.852713921588158e-20)
(0.9093803980818387 0.005326775719862723 1.44587499373125e-20)
(0.629556361690336 -0.006400658649387899 1.404576790373682e-20)
(0.9791367381359253 0.001442947657279009 2.583322264055736e-20)
(1.004454283270615 -0.01746763401134072 -3.641173917817174e-20)
(0.9754225595982721 -0.0317996566806391 -3.553741496182968e-20)
(1.085514507460117 0.001609910239378119 0)
(1.020177912276225 0.004535830639799484 1.019801465678635e-20)
(1.13227253582336 0.04910185667153336 1.294718198167783e-19)
(1.032613244610335 0.04016830425655897 0)
(1.022423011818969 0.00253468452807762 0)
(1.58649963273727 -0.1669627184066516 4.430653341603296e-19)
(1.051383628682561 -0.04556608179927753 0)
(1.016569793694876 0.007623149673867558 -3.842991221497799e-20)
(1.085921358102937 0.001894638233256174 0)
(0.4812853043332146 -0.02980505307063742 0)
(-0.003942145808059367 0.02628982614977269 0)
(0.9907831862869598 -0.02445728352947669 1.213483379615867e-20)
(1.302390364294432 -0.09510523907874385 3.780422096377982e-19)
(1.03521871613617 0.03566920360641826 0)
(1.022223713664222 0.003388621622494562 -2.261570711319263e-20)
(0.9622110587981675 -0.1615098772361975 2.027293210756046e-21)
(1.254803715856341 0.07955486716238805 0)
(0.5967428886162212 0.72849351659523 0)
(1.314559389778588 0.1513989308661655 1.117825114333538e-19)
(1.680164834206612 -0.02450558244216089 0)
(1.050251057997447 0.1075260555135447 0)
(0.7074947480051813 -0.02355455457139752 3.091625507103608e-21)
(1.051259159893031 0.04372645185429631 0)
(0.742942982106403 0.121112068702073 1.196654389388168e-19)
(0.9967597453197677 -0.0165676016323962 3.564864646005003e-19)
(1.035423449119111 -0.04265796030747909 2.793689858504163e-20)
(-0.3821138578193823 -0.003931677579291743 0)
(1.072026864807942 -0.01649091875789905 0)
(1.090657534585377 -0.004129708498677666 0)
(0.6493528179543552 -0.5053336239313949 -2.458294960455145e-19)
(0.9903608847094657 -0.001701593092925429 0)
(1.09229262960492 -0.02120571408990597 3.798383385151012e-22)
(1.186949761732941 0.1214594681654012 -1.98049179445901e-19)
(1.090805498693505 -0.04774440502721204 0)
(1.005928539756593 -0.02140491608240947 0)
(0.7957744002756812 -0.1773933429317479 -1.650235190028719e-19)
(0.884675308627115 -0.1259391091392079 1.549637168260793e-19)
(1.028541801210838 0.01406476536063642 -2.274877982837756e-20)
(1.023105724272565 -0.008980601193642751 -4.664601275207442e-20)
(0.880136368464786 0.01558941765418087 7.73494495637559e-23)
(1.507524876451156 -0.1933798884743209 0)
(1.305622522238323 0.1217012860628929 3.093588298934203e-20)
(1.244679470598012 -0.07304250086282457 -3.145939302264213e-21)
(1.095704626905786 -0.01841255591065895 -3.850550794721404e-20)
(1.037778517217603 -0.01112786348171408 2.43650058654055e-20)
(1.092840230069448 -0.03906290674572625 9.03430911837427e-20)
(1.031702051569605 0.02011022421636371 0)
(1.045200393037419 -0.03735882417903306 0)
(1.115953224475552 -0.008947401079752984 0)
(1.089299325323281 -0.03551891234835296 0)
(0.9980289549940728 0.01124891026356059 0)
(1.147402083886035 0.0799751572197214 9.59133316432142e-20)
(1.33789537586545 -0.1479290550512636 0)
(1.035063756184418 -0.02392721687871492 -2.001213702093137e-22)
(1.050676654815219 0.05003993167220522 0)
(1.010246640416005 0.01465980636545659 -3.994809334836813e-20)
(1.033949789021603 -0.007509509448095565 9.03777164970115e-21)
(1.088923436957563 0.01346055644208934 -3.288022423821168e-20)
(1.085573366434661 -0.02834004523156384 0)
(1.072054284923154 0.005011184138404454 0)
(1.109330934849883 0.09492893303977039 -1.429429603387106e-18)
(0.9356959026449314 -0.1506582258425319 -7.051220810928835e-20)
(1.167047105818232 0.1111536103192885 1.12317636411741e-19)
(-0.4848374180405243 0.006238077126614582 -2.909286125036615e-19)
(1.018395280993333 0.02851699473639918 -8.93703253188182e-20)
(1.004005351658552 0.003026592288876933 0)
(-0.2871876111900413 0.02159209726513802 3.553186310975421e-19)
(-0.04609743931542945 0.2904560761629256 7.984043114896699e-21)
(0.9952229928484539 -0.006255268880269713 9.999140648297998e-20)
(0.1897151328535976 -0.04145527339332309 1.40727886597367e-19)
(1.088922462277227 0.08050300028954574 1.464279908128636e-20)
(0.09420080851690688 -0.1115868553931139 -5.55396165216506e-20)
(1.108185986082519 0.00297234194841754 0)
(1.105263362211194 0.2589164803885329 0)
(1.021576372909489 0.02155608235084031 -1.749220205445785e-20)
(1.071282486219112 0.05108555637327081 0)
(1.027130193507187 0.02549514570116842 -9.381962207205495e-21)
(1.264906386734386 -0.5496190997249453 8.077236850446735e-19)
(-0.1169725181710265 -0.2097712292162551 2.215342410405989e-19)
(1.299003243946438 0.1188162946917799 -6.380510261137363e-19)
(1.121465693970908 -0.003756698007680192 0)
(1.122876149232433 0.09614968029450818 0)
(0.5295423359000989 0.08281858168473578 2.552623946903756e-19)
(1.023809756041794 -0.02061269771853801 9.26905904760871e-20)
(1.006426241351252 -0.02385220431384036 0)
(1.210090305688256 0.2704801191268733 -9.467836976764424e-20)
(1.264227951904438 0.1387656108409995 -1.614565355765524e-19)
(1.026663770267364 0.003260742490045926 1.52264659559765e-20)
(1.302565734975145 -0.08465215335631221 -5.03541145718427e-19)
(0.2918118243561791 -0.01365155504080858 2.647175353400897e-19)
(0.8243055130495038 -0.1445025433776836 6.639157254625085e-19)
(1.044380550459625 0.04928456412829527 1.058363729890413e-19)
(1.039506922690419 -0.001827197603311446 1.889954048140369e-21)
(1.001515620923106 0.01960474091422001 3.01599171235909e-20)