/*--------------------------------*- C++ -*----------------------------------*\
| =========                 |                                                 |
| \\      /  F ield         | OpenFOAM: The Open Source CFD Toolbox           |
|  \\    /   O peration     | Version:  2412                                  |
|   \\  /    A nd           | Website:  www.openfoam.com                      |
|    \\/     M anipulation  |                                                 |
\*---------------------------------------------------------------------------*/
FoamFile
{
    version     2.0;
    format      ascii;
    arch        "LSB;label=32;scalar=64";
    class       volVectorField;
    location    "612";
    object      U;
}
// * * * * * * * * * * * * * * * * * * * * * * * * * * * * * * * * * * * * * //

dimensions      [0 1 -1 0 0 0 0];

internalField   nonuniform List<vector> 
808
(
(0.7562468174162605 -0.01749925690811168 0)
(1.031316194059344 -0.0125634420531905 0)
(1.114847645800281 -0.003979734086372969 -1.801403544037269e-20)
(1.085118893132057 0.0126075804734423 0)
(1.364476934267226 0.01658674693053718 -3.920391857112313e-19)
(1.038679354197337 -0.009316431119795514 -7.157101367963716e-20)
(1.013493201310515 -0.02077640644343134 -2.323095430803509e-20)
(1.078654853199482 -0.005175813063115767 8.974647378721506e-21)
(1.254198139695018 -0.01886734286541323 6.37766436227772e-20)
(1.084479371531449 0.01029681288426837 0)
(1.013587858151247 -0.008668483563196262 0)
(1.306248402964158 -0.05186540703123629 -3.570965181727206e-19)
(1.085946451737404 -0.001746850131135242 2.032765537441206e-20)
(0.67508223172507 0.006408307777035349 0)
(1.285468748004216 -0.1143808694807556 0)
(1.08142484020023 0.0001202564751844409 -3.815562127678114e-20)
(1.232495316864668 -0.1460769036437563 -9.883663147639319e-20)
(1.073983243543229 6.925412718135088e-05 3.164060219533643e-20)
(0.9931679442505116 0.005247359351849508 0)
(1.026364345786897 0.009342438185629203 0)
(1.039087173669292 -0.01035884821484802 0)
(0.9874486693804712 0.04434420405407394 0)
(1.05113444638776 -0.005979933073865406 5.502930771988172e-20)
(1.053337513135959 0.009078006075086575 0)
(0.9325918182687559 0.1971450321117994 4.614600340632679e-19)
(1.167599679603725 -0.0863928312424483 0)
(1.185699444155704 -0.01785408180653556 1.594678060759006e-19)
(1.077427605749954 0.009386496767495917 5.190800107006389e-20)
(1.08402511623979 0.002227591882990765 5.048113227373259e-21)
(1.071978045932671 0.03091403231106087 0)
(1.07557487868871 0.002644841521367474 -1.172088820538164e-20)
(1.032977457506922 0.00661949633327332 -1.972131162794357e-19)
(1.05984459675895 0.01488620982943407 -2.395186732762609e-20)
(1.089156601152931 0.005308364485451872 -2.927658829869663e-20)
(1.119528405274064 0.03907316593605576 0)
(0.7552089980204544 -0.1238207313021287 -4.533732966851303e-19)
(0.954550891710232 -0.005851108163782483 0)
(1.068953808916344 0.02241071465055383 0)
(1.068836197921159 0.007356429220280358 0)
(1.073605599492984 0.008990426420497305 -2.837654774872716e-20)
(1.091872334967334 0.02430233241720718 1.120533365670111e-19)
(1.150351507908749 0.004182761338625598 2.196125959843133e-19)
(1.095922954425746 -0.002394524490782186 0)
(1.015903739653484 -0.008970979872817801 0)
(1.133746533978671 -0.09714581569553563 -1.647851942912556e-19)
(1.044100972116592 -0.01161725824739103 -7.899217183618782e-20)
(1.058308917490501 0.02663595545288977 -2.837355629235692e-20)
(1.231531733159944 -0.1114739715863398 -5.635861033022973e-20)
(1.067744732031542 0.01223026410454784 -4.274119201333288e-20)
(1.257256788806545 0.01906077397950842 0)
(0.9962573634186647 -0.01842458265867008 2.082920255165986e-21)
(1.044564166758413 -0.001914751144577944 0)
(1.087594813362862 -0.002203616594113623 0)
(0.9987630104753799 0.006546427864986898 -1.841782127793597e-20)
(1.250847935602977 0.0350718291248914 -2.312110504676507e-19)
(1.063791071721116 0.01827779538633511 6.165773946461106e-20)
(0.9911949848584102 0.00842193959402523 0)
(1.020850377117627 -0.009581403645837622 2.350585812250176e-20)
(1.107057658485239 -2.036915419510645e-05 -1.206545656455772e-19)
(1.061429893546523 0.030994866896308 0)
(-0.07601899851345949 0.002796192612965346 6.980722793258021e-20)
(1.155038665363698 -0.05122939018678013 -1.928620166265175e-19)
(1.006028717041549 -0.008105248054825032 -2.583046694646953e-20)
(1.183534111124427 0.06989095087877065 -1.237764617980917e-19)
(0.998396125030501 -0.009709178333322662 2.989456065387031e-20)
(1.084144751615047 -0.005540693960816056 0)
(1.244755893139097 0.1000518408159903 0)
(0.6960420358406355 0.003206394211041322 -7.496708556601404e-20)
(0.989981233998706 -0.01368362960380122 -3.114596986712523e-20)
(1.461510662278137 -0.01659882243264075 4.514578484038065e-19)
(1.060537928101864 0.007575818518889724 -6.821707869423228e-20)
(1.368600189404338 0.09952017016832952 2.934878909375995e-19)
(1.054717866005519 0.006868631132774293 -1.874401282272206e-22)
(1.08127457958178 -0.0139119737675596 -5.108694373451977e-22)
(1.165353820834654 -0.2361816330434612 0)
(1.021918088241018 -0.01437690651935808 0)
(1.017291804735341 0.01753471048119584 -3.154411852298856e-20)
(1.385048943365894 0.3492060756758646 4.140854841951824e-19)
(1.096990694775013 -0.04218981923011089 9.29965916605905e-20)
(1.045201853245366 0.2092705882068927 2.557306249630087e-19)
(1.126185489366336 -0.06143648006244932 1.147324294179955e-19)
(0.9220541643051174 0.005131158045270521 0)
(0.9754678568007299 0.01854164066294839 0)
(1.004145233567254 -0.04902967295665849 2.612507609185319e-21)
(1.010482595190497 -0.01290059440802849 7.434727876408956e-21)
(1.029988610924111 0.02598174778960384 1.408357667244893e-20)
(1.530964424181404 0.03774900846416141 3.289051437102935e-19)
(1.288883257258718 0.07229843513246086 5.459966253295021e-19)
(1.072389741490689 0.002986138471946751 -9.301759064236808e-20)
(1.200669563383727 -0.09308509843411314 0)
(1.033689280508792 0.001773576990841712 1.355748679735998e-19)
(1.164123371589233 0.02304623459747679 -3.247559319405785e-19)
(1.001427129489219 0.03227613872208287 0)
(0.9996269031816648 0.00203199619836137 0)
(1.044487853833213 -8.070769027745482e-05 7.675551563758005e-20)
(1.208464331062358 0.1102203346841094 4.124174298982621e-19)
(1.011055816142993 0.006983171485984672 0)
(1.092015841549826 -0.07089388330839243 -1.050186016945948e-19)
(1.149452729751832 0.03822162646996382 0)
(1.210316855797808 0.09730917064110332 -1.949152760047053e-19)
(1.108025389242923 -0.0285747815075062 -7.621084143986616e-20)
(1.027407363195667 0.01159004741840676 0)
(1.085160431442674 -0.00466336620055178 0)
(1.019180963145099 0.02559350230805241 8.188834418474897e-20)
(1.071945592263259 0.05381479124480788 -9.400578603019015e-21)
(1.10381397499272 -0.004214087252967502 6.199143321551162e-20)
(1.111240146571487 -0.09662653764450356 1.528050506811098e-19)
(0.9609414343633419 0.00201712474534943 0)
(1.066305995767414 0.03117487140534585 3.879537819663491e-20)
(1.169116138558054 -0.07582904629663802 2.356981233591251e-19)
(1.051777901944785 0.04492303146235681 -2.92908696239152e-20)
(1.022476955442177 0.06715908561448271 3.762155347259892e-20)
(1.090523062630165 0.02609596567938901 0)
(1.014095516459646 0.01814949437548457 0)
(1.029000506663456 0.0094376769308901 7.916769643832154e-20)
(0.9487295066053907 -0.0337425978344898 0)
(1.052954315088633 -0.005703644680276588 -7.973932150269529e-21)
(1.342611559392435 0.06096326640150058 -1.599941239189719e-19)
(1.08004017444607 -0.01322738737102474 2.584036000381034e-20)
(0.7439991608222362 -0.00175866064657955 0)
(0.5516219809855237 0.1672765004107876 -8.400699701038908e-20)
(0.7060632308422421 -0.002543252144970481 0)
(0.6989607947437769 0.0146460713090677 0)
(1.077659185941731 0.003599623494575326 -6.848893247363376e-22)
(0.9906374532354632 0.01452205107076718 0)
(1.278161363698764 0.1233053441852635 2.467185370985962e-19)
(1.012358139701223 -0.02782534823129072 -7.982039722807084e-21)
(1.043408274871435 0.02236700792218288 1.668623097275712e-21)
(1.058567174486359 -0.01168824079023261 0)
(1.126592894490062 -0.009167090778815369 -4.941191708915513e-20)
(1.26033619729796 0.1411440228037414 -2.248126971005308e-19)
(1.089231473491565 -0.01124955218478076 -8.511877343482534e-20)
(1.069654970588016 0.02624819353846337 -1.110863848908828e-19)
(1.040707310288022 0.046718693930096 6.803759141980039e-20)
(1.022444718184468 -0.003732632148683849 -3.44672402218703e-20)
(1.061108071213646 0.02349291160698846 6.141939907306326e-21)
(1.129560793180173 -0.004990799572503918 1.073826088129213e-20)
(1.040354917172066 -0.01525399006014173 -4.768725111723638e-22)
(1.087648263530144 0.03478112298174409 0)
(1.028171576879329 0.01340172237044891 0)
(0.7671124421147162 -0.05698656286220851 -1.825592972266933e-19)
(1.030141738453809 -0.001720605145422843 -6.984163516102269e-20)
(1.132080644294853 -0.005615466678804366 -1.300327474237232e-20)
(0.7034647491968555 0.006577405622738498 7.439089774782017e-20)
(1.175070956670533 0.02072043758486659 -1.903644025654666e-19)
(1.129277946421104 0.002959653756286565 5.392873934375816e-21)
(1.128972510336431 -0.01002653932689868 3.495692200215456e-20)
(1.000940997774745 -0.002937023911123134 -7.747577800265206e-20)
(1.098840175053147 -0.06904068552123191 0)
(0.9850112016784065 0.0009287967492134899 0)
(1.0579500751816 0.007086628633032929 0)
(1.005248902877111 0.1878099088830799 -2.489506019683796e-19)
(0.7793142058588757 0.01240554827028445 0)
(0.8568401180629391 0.1004382454021847 -8.484384494797112e-20)
(0.07481905004765961 0.04055235438842032 -3.043804009150417e-19)
(1.173094277394039 -0.0294848667355296 -2.217232329238429e-20)
(0.6713321743433237 -0.007306469143690433 2.433943383345134e-20)
(1.170870399675718 -0.1031671384976241 6.938577895806266e-20)
(1.123271170271473 -0.006793924631878953 -5.9455478449889e-21)
(1.155972401592198 -0.04802241620261844 2.154613105458506e-20)
(0.1077229609613981 -0.2185626820716257 0)
(0.2541598618568277 0.0901577609529499 0)
(1.254814559951577 0.1143162216544735 1.946062190089937e-19)
(1.021357584289745 0.01980046025286334 0)
(0.737790990029809 -0.006305905897783336 0)
(1.075387749286178 -0.01186942793449289 2.699607024814105e-20)
(0.9749629068896508 0.002778479080871566 0)
(1.290656420576579 0.133139191743016 -1.583319587000391e-19)
(1.057485262150771 0.01124385034803937 0)
(0.9936950280426838 -0.007649907747329912 0)
(1.065047538403842 0.008199977166250184 0)
(1.006158187200137 0.02080752399735696 1.732943737758468e-20)
(0.9318371814065102 0.01410226282731172 1.061550316607201e-20)
(1.177495051666437 -0.1997515833640165 0)
(1.00518786085529 -0.005196708852609656 7.778503008177857e-20)
(1.059133764895668 0.006359866266151552 0)
(0.7746735484199373 -0.003299488389458698 0)
(1.216644589020148 0.0297785008350093 1.679360210492063e-20)
(0.7049885202704512 0.00132573945270836 0)
(1.436464501921918 0.09020142592983516 -5.354276194565576e-20)
(0.9944588885745929 -0.006915519393497683 1.704397300447517e-20)
(1.273974530385434 -0.0004619371750509858 -2.915661780776579e-19)
(1.059644490987306 0.008822956839836731 1.399681392094912e-19)
(1.000906520240675 -0.0136028317058281 0)
(1.217979461675122 -0.1469336281828894 2.035470353943903e-19)
(0.7331949165958047 0.01379168725503939 0)
(1.098383306239401 -0.005132932204293412 0)
(1.151264315818618 0.06862614868796466 2.043812935427889e-20)
(1.007109291634168 -0.006992731276877526 -3.023444817801378e-20)
(1.119661113656164 0.05227168396230022 -1.767122212700473e-19)
(0.1044039411407606 -0.08273300692744695 0)
(1.071854532665523 0.03798564998639853 0)
(0.6616832890417588 -0.002930276253460251 -6.861142024690769e-22)
(1.012149553717752 -0.01942652136689648 9.799954106030011e-20)
(1.061488187468711 0.0006884488290985649 0)
(1.078762969732946 -0.12448566295582 3.723722917047626e-19)
(1.002754715472981 -0.00621966053762183 -3.481705451973669e-21)
(1.002389170204661 -0.005350217647745277 7.956650132585498e-22)
(1.093923452378991 -0.009334864717486638 0)
(1.020670279780229 0.0205549252422725 -6.238269034098185e-20)
(1.106598976848519 -0.001613032033368635 6.719312316995532e-22)
(1.074172650504731 -0.01134470540568855 6.573243219058166e-20)
(1.085829850504747 0.02236531971051862 0)
(1.331657582318442 0.1661665972616693 0)
(1.001996723982483 0.0001005929926929752 4.415843360322484e-20)
(1.321837822508003 -0.123760229398505 1.536980610284811e-19)
(0.05291330660795959 -0.1878857620391391 -2.563224325651827e-19)
(1.071335721555911 -0.005538353972801279 0)
(1.117495049720308 -0.0003011663446669905 1.216207409618396e-20)
(0.7268948472108437 0.01785548511251522 0)
(1.063001956362404 0.004302826065903753 0)
(0.871835267074625 0.1672072004863373 4.785532139291167e-19)
(1.268966750528625 0.1326153833017798 1.894675516362429e-19)
(0.6543241660262306 -0.003103127516126781 -6.301035869227229e-20)
(1.041834939204768 -0.003638601963602001 -6.945788475615848e-21)
(1.05479935369707 -0.0002897552976661127 6.644030972175175e-20)
(1.363147635967758 0.1258198369773987 6.829291631049092e-19)
(1.334108524686531 0.2525879102558389 0)
(1.060274707405042 0.0001896606103657985 0)
(0.9986694836926836 -0.007344862183949651 1.5392477592871e-20)
(0.9936496671359619 -0.011199587020119 5.204258301531316e-21)
(1.381960012563033 0.2004551695528907 4.232472211568748e-19)
(0.6816952754269151 0.0005552677060702027 9.848207423390094e-20)
(1.005568389356749 -0.002079314358561175 -5.971632938732409e-20)
(1.098135546058635 0.01301340995308317 2.543454480552509e-20)
(0.6694751015635684 0.005006491323449051 0)
(1.066090129838041 -0.01201265681037443 0)
(1.003251348219934 0.1476251734247241 -1.219536937237078e-19)
(1.088848326794239 -0.008368420190014639 -2.440812614351717e-20)
(0.9821266010346072 1.958537116981843e-08 3.279289940573542e-20)
(0.9912104189654168 0.006039118396764186 0)
(0.6383070254765751 -0.001103827518851491 0)
(0.9768373230922347 -0.001182929493607342 0)
(0.6421251767358326 -0.001498785499518237 2.691589982285616e-21)
(1.090452653662291 -0.05673863857344224 1.195047024867793e-19)
(1.113533103875623 -0.0004973052963977591 1.227783344636469e-21)
(0.9579454396564545 -0.0009154553079121958 3.911962183723989e-20)
(1.015816625237182 0.01019481116475075 1.682179500635366e-20)
(1.06631519089512 0.001582003203806366 -2.416889236792036e-21)
(0.6347074180117563 0.008864850328297773 -3.645337489142287e-20)
(1.002801522615762 0.008977749990374874 -9.279720396828279e-22)
(1.035380199310149 0.00912616560415881 5.212566217854892e-21)
(0.9876182000934697 -0.01266861654320329 0)
(0.6100056309967624 -0.0004943524855608423 0)
(1.06862624191654 0.02267531018325341 0)
(1.016886359026062 -0.01573475562460871 1.051887741496247e-20)
(1.023196988896406 -0.008105141481034736 0)
(0.991224758581416 0.01439680447186677 -9.570508999968546e-21)
(1.011360681299248 0.002067547182043167 0)
(1.127291689377323 -0.002943789068145029 -1.156960426127824e-20)
(0.03988164293116622 -0.1424259003717428 -4.230147027325635e-20)
(1.036459744235083 -0.0171472371325207 -6.90912366356251e-22)
(1.042284127141529 0.004749637460046977 0)
(1.082196894546504 0.06541536765100021 8.431752352922329e-20)
(0.9689008470566483 -0.002296888912812535 3.112921034077679e-20)
(1.020611573494944 0.0168986712204119 -2.376256929062057e-20)
(1.001639875818912 0.000268675873841288 2.50022005511446e-20)
(1.040532089387245 -0.005855673905590618 0)
(0.6408979001712087 -0.004001526305689777 0)
(1.025803307528624 0.02454002590751487 -7.227735480261264e-20)
(1.082042429549226 -0.003083406840278796 4.798510743253104e-20)
(1.017014929143161 0.003493508887082089 0)
(0.9792684465771656 -0.003001701962780905 -1.942061671356131e-21)
(0.8728963159482844 0.02055480215121199 -1.110393315809348e-20)
(1.014027241982882 0.002730455100224983 -1.015319188743731e-20)
(1.026094259780745 0.004749810681471933 1.82324634494808e-20)
(0.9824161700435529 0.004215912568092235 0)
(1.002314379162985 0.01073378474111986 3.514576025759353e-20)
(1.107916162033642 -0.001585590107407308 0)
(0.9245614987398585 -0.0001164787401560025 -3.236572311515178e-20)
(0.9599852306663588 0.00536871554391793 0)
(0.9166462811321521 0.2113914936558604 5.19802339059535e-20)
(1.010736942460449 0.06676456837602417 0)
(0.9930199798329954 0.004148076889063339 -2.281696488557286e-20)
(1.056461236161962 -0.05427093000992049 -2.882233358564279e-20)
(0.9912726070684268 0.00012100369055852 3.398470714790674e-20)
(1.012058195718299 0.00472920332334762 0)
(0.9779037359079158 -0.000135961621012447 -3.167850260165275e-20)
(1.168527766353769 0.1020515341783026 -3.395652831583518e-19)
(1.069915002201224 -0.2651528427734924 0)
(0.9931153662203337 0.001489162074712056 -2.219611711328157e-20)
(0.9793466035500231 0.004485596985005137 5.05807565912021e-21)
(0.9634899003676697 0.005844667685869312 1.011585545166714e-21)
(0.745921648275663 -0.001063567377101111 0)
(1.121161445950195 -0.08222927358818587 0)
(1.005249936912481 0.004242652443604967 -2.201131036719967e-20)
(0.9021596366524518 0.007260305046458412 -9.66245239136947e-21)
(0.8552740090325156 0.01576934696700712 3.736763257149463e-21)
(1.013532076318064 -0.0006876822763080022 0)
(0.9498665937720607 0.005831109633448196 1.456248676277876e-20)
(1.005652755227669 -0.0002648384974085862 -2.310995818607455e-20)
(1.020490276401763 -0.0009508051726490177 -2.585208119883206e-20)
(1.113466574971157 -0.001895791089140626 -4.934038965731699e-21)
(1.119039179095855 0.0007576882035909293 0)
(1.014529128483457 -0.009958997196824857 0)
(1.02045966602013 0.003107067797687003 0)
(0.9442004009283138 0.0002273776843089353 -2.11511204561538e-20)
(1.017865425827213 0.01357431508957626 5.318139845715188e-20)
(1.080778455374832 0.0006693648205977908 -2.215941752940249e-20)
(1.03986194151441 -0.004039905067889778 0)
(1.106047868901932 -0.00567910547313896 1.841125279141949e-21)
(0.9955338871441942 0.00270532117040291 -2.212362778877945e-20)
(0.9868307958143854 0.006407135564091455 0)
(1.01178872745786 0.00312153291349962 4.656268805390748e-20)
(1.367766665442298 -0.3145774187306229 -1.134411287975926e-18)
(1.122926709226185 -0.0436346026894275 -1.080460444419149e-19)
(0.9658323516166488 0.002531563121826174 4.707485518918671e-20)
(0.7748483372588585 0.009787779748235033 -3.107645210838955e-20)
(1.22144351570969 0.05403947796372095 0)
(1.22531886540563 -0.1327471747995243 -1.461871336132424e-19)
(1.078117735782535 0.004547335146029567 0)
(1.00845947472608 0.001601485014488434 2.243741270807686e-20)
(-0.1658447437177288 -0.1262020683699876 0)
(0.9939668952099805 -0.00464664576762791 0)
(1.012453854329227 -0.02317227439698545 4.63275228244481e-20)
(0.7062344768042325 -0.019453789064213 0)
(1.096791116625043 -0.01483294488081717 2.114970442982788e-21)
(1.043945177406598 -0.01220462788856784 1.79837278554526e-20)
(0.6331458857491966 0.004138834240534603 0)
(1.449652072883602 -0.1223111898728268 0)
(0.9867951466566975 0.001294542068820992 -1.084127173207661e-20)
(1.069809757123602 -0.01499694802722921 0)
(1.037968542880029 0.0003927475337250754 2.155257391406828e-20)
(1.082485600388979 0.006246470733352653 0)
(1.009669842103307 0.005563629645602431 -1.038782684661655e-21)
(1.005880178232534 0.002957727278741865 0)
(1.012966329335095 -0.01258810000703782 3.891419556997945e-22)
(1.003628096510686 -0.02084196961740665 0)
(1.034505211094059 0.004148091897056637 1.707083620540521e-20)
(-0.1869619520238654 0.03133328970377254 2.633001214203987e-19)
(0.8072761722007695 0.02468535531375781 5.241507936115683e-20)
(1.005747057986869 0.001881706310298455 0)
(1.132736510140712 0.02017570767367519 -1.172039540432733e-20)
(1.122736005065608 0.01786671773161631 8.362551240364903e-21)
(1.054418222377671 -0.01304959324617637 -1.275302884066817e-19)
(0.998785496260435 0.01034857086912796 1.329201770367052e-21)
(1.077376824121504 0.006633150883632692 0)
(1.185884469571041 0.05413001532309712 0)
(0.8354656098364759 -0.07661263212136216 4.587988110859245e-19)
(1.099108395677513 -0.00469031814882032 0)
(1.032885911769097 0.007362405669966954 -7.384469530446634e-21)
(1.042542962431704 0.005156206080788737 6.128386753490444e-21)
(1.05478372052974 -0.06156143892226924 -7.523209505425118e-21)
(1.139838015482191 -0.0006711535470703082 1.662324491122492e-19)
(1.085339482686165 -0.008783844580913596 0)
(0.9947507181475287 0.00123685775034201 0)
(0.9958983608644298 -0.02526121322586384 -2.290976584370512e-21)
(0.9905143884158539 0.002741508251577348 0)
(1.030648898811235 -0.03881317242417416 6.35784848724765e-20)
(1.292644810568575 -0.09181544067089076 0)
(1.045601047405119 -0.01015402771937231 -2.146355844025856e-21)
(0.9861574231068658 0.01700620658201284 -8.45322710171112e-20)
(1.033711935398973 0.04082984988032925 -2.426468908490778e-21)
(-0.0859881570192758 0.1471570658410782 -1.638293377359494e-19)
(-0.06617439167698878 -0.3033915827041548 -1.381920377502035e-19)
(0.8875016571601967 0.1412779263336487 0)
(0.2956761581859355 -0.02204775457855988 -3.306152299094651e-19)
(1.007909255304936 -0.005862120204218015 -1.601501818752038e-20)
(1.063832727449813 0.002656506714499747 -2.119712127710246e-20)
(0.9918637501574361 -0.01846458242067751 2.926096662523056e-20)
(1.021003650073221 -0.03013216345600614 2.531066030219676e-21)
(1.009238524848945 -0.03240201731652195 -6.526676513459875e-20)
(0.9887985538534078 0.004810451304237228 -3.465861405230185e-20)
(0.9928787140759308 0.004787559270238144 0)
(1.025350497288084 -0.002159222943767327 -3.554070248164446e-21)
(1.939295609484281 -0.1553993742331664 1.079823123124426e-18)
(1.045517948945009 -0.003005862155105143 0)
(0.9952224218819457 0.008323351484169636 1.55646585125084e-20)
(1.002990917173974 -0.0001506088786594882 4.073845214470795e-20)
(1.162860727256414 0.136453317638895 0)
(0.9973267871294966 5.673356919297934e-05 5.23915378758768e-21)
(0.9485271945271904 -0.00237348378794129 0)
(1.037836299485351 0.04177227635248339 0)
(1.308366293596004 0.1668214951375069 2.362472897153478e-19)
(1.086501284331576 -0.006757740665719741 2.27008755387544e-20)
(1.018394551615943 0.03046209735128993 4.701065854196019e-20)
(1.087975069553003 -0.009080180640260607 -2.191096584064308e-20)
(1.04612747211442 -0.003488791799429948 -5.505078061172743e-21)
(-0.3841354576439359 -0.04864903623591976 0)
(0.9987924838317812 0.01453419420080672 0)
(0.1064361196873878 0.0572856165780894 -8.608875600919956e-20)
(1.007124345995776 0.02210604672306916 -4.175007000053038e-20)
(0.9938154736735059 -0.007637329162789298 0)
(1.001100245448839 0.005784900430246297 -5.048387398527125e-21)
(1.0816415228544 -0.04235251152321667 0)
(0.9951936733708445 -0.01658894657600668 -7.73179031315703e-21)
(1.095206941263837 -0.05905232028581594 0)
(1.444855238982768 0.179463582037094 0)
(1.05441874077984 -0.01212673437954707 0)
(0.9902052080836311 -0.02321955512255977 -3.929965077379722e-20)
(0.9946173917202535 -0.04834984806018419 -2.546872421068119e-21)
(1.015441991121922 -0.01745723389760584 -1.700412754410396e-20)
(0.9972902796482399 0.0166581245290857 -5.698200680748264e-20)
(0.9952754887400729 0.01065576032659489 -1.516882369646053e-20)
(0.9938227463924582 -0.02812582754507106 0)
(1.00326292327229 0.02454168672085344 1.973236665542286e-20)
(1.054841817688698 -0.04463520073034303 0)
(1.111283516325682 -0.03549344271710309 2.649979546142298e-19)
(0.9957339612402948 0.01717882518938786 4.691701670725673e-20)
(0.6150942756166018 -0.008672720374558981 0)
(1.133860662763972 0.1415988384914136 -5.238900430913357e-21)
(0.8609232640238134 -0.1001986971400295 0)
(1.137868412359939 0.0733502140346711 -2.671310308586387e-19)
(1.317277706692237 -0.3891173585926424 1.305127126647538e-19)
(1.071738047043167 0.06063176741687807 -1.290537431651099e-20)
(1.009987806617103 -0.03195661974860019 0)
(0.9562328732583091 -0.2164702502127229 0)
(0.5013713299238952 0.1437150190663846 0)
(1.014773022088639 0.008806273071325225 1.30872454807369e-21)
(0.6861391215360056 -0.03055445317698354 0)
(0.9993123226970613 0.01802244918124154 3.594269129201091e-20)
(1.023943820037174 -0.005321579720435395 -2.809706299737824e-20)
(1.079053357230177 -0.008108698684219838 2.81422638218236e-21)
(1.041146444008314 -0.01495843729569031 3.329294096108902e-20)
(1.042345967614913 0.01151937065922002 0)
(1.064687464174814 0.02744668986466609 -9.566775085742285e-21)
(1.049674215737689 0.03500561714821489 -1.839508620050728e-20)
(0.982728565856141 -0.02257807377791501 0)
(0.6249399131337802 0.005110083188650182 9.178006583612047e-20)
(0.8941572109910186 -0.005875570150145458 -8.853268931265516e-20)
(0.909379541608172 0.005330847635481062 1.445237277685933e-20)
(0.6295536292875958 -0.006397111513071443 1.404362924993919e-20)
(0.9789761530855804 0.001422481220858875 2.591143299984098e-20)
(1.004456357327502 -0.0174756305639096 -3.642159931889191e-20)
(0.9743579187045509 -0.03038489069031081 -3.580138359030485e-20)
(1.08550803860416 0.001598500606239378 0)
(1.020131012746339 0.004487680349011603 1.022935432611785e-20)
(1.132322402253915 0.04909611229754823 1.293406328528617e-19)
(1.03281659992092 0.04018608998157458 0)
(1.022388934868805 0.00253672410969718 0)
(1.586340670144113 -0.1668811833703679 4.431048025018798e-19)
(1.050200674652235 -0.04476297425509437 0)
(1.016682222210002 0.007394048690360588 -3.835023758779683e-20)
(1.086331609213625 0.001217209382112975 0)
(0.480752641250556 -0.03137832484042304 0)
(-0.007330967914500169 0.02573958641718597 0)
(0.9906959431613317 -0.0244559959713521 1.212046070132685e-20)
(1.302262745002635 -0.09504241685550481 3.781347913456947e-19)
(1.035421198451815 0.03591520422432033 0)
(1.022231945438763 0.003372679403514292 -2.261060504052495e-20)
(0.9630147338012762 -0.1618646357872886 2.382665277963864e-21)
(1.25450930255108 0.07954260199069682 0)
(0.5968420860774402 0.7286957343149826 0)
(1.314393587074553 0.1517925535800002 1.120450614176222e-19)
(1.680023493354522 -0.02442692674831681 0)
(1.050977298767503 0.1069416016950094 0)
(0.7078155009806217 -0.02321612674843205 2.99407078653048e-21)
(1.051614890065414 0.04393330571357244 0)
(0.7401743867161746 0.1195274473085821 1.186397415308057e-19)
(0.9967602811645292 -0.01656645341862021 3.56549400581584e-19)
(1.035084793476405 -0.04258895137794007 2.788452167594972e-20)
(-0.3816942212748339 -0.002591114690873968 0)
(1.071980671957018 -0.01648760568189521 0)
(1.091411456693 -0.004610827399282448 0)
(0.64926170359185 -0.5050967056163376 -2.459811507581666e-19)
(0.9905318798873826 -0.001703712767249051 0)
(1.092251519045337 -0.0212212682891808 3.729797688515361e-22)
(1.187035652421269 0.1214890707260902 -1.979228773735351e-19)
(1.090345832332616 -0.04716846968489653 0)
(1.005857967521018 -0.02142174356881104 0)
(0.798445801864643 -0.1778133329152422 -1.658093125768503e-19)
(0.8859272220441132 -0.1259952795813671 1.553938621584197e-19)
(1.028243089126791 0.01383192090221225 -2.274564025006611e-20)
(1.023105632891569 -0.008997508815169683 -4.665962632121608e-20)
(0.8796297504583714 0.01543593689562534 4.116748132980025e-23)
(1.507381859590851 -0.1932848223196567 0)
(1.305136737637933 0.1219475738365 3.106998101200914e-20)
(1.244911539664181 -0.07319985038823586 -3.127217056964904e-21)
(1.095714080387858 -0.01841542373120043 -3.8423624991846e-20)
(1.038329705216597 -0.01103292961263686 2.417717988635655e-20)
(1.092839148319967 -0.03906845763910681 9.020267907654111e-20)
(1.031738614638792 0.02004547015581517 0)
(1.044924534791316 -0.03711190090734637 0)
(1.115949577956428 -0.008952094982689786 0)
(1.088820786279648 -0.0345545411559766 0)
(0.998004704366972 0.01124547024991904 0)
(1.147345010427451 0.07956280915606956 9.582693145344895e-20)
(1.338207609573887 -0.1477035830080239 0)
(1.035227798841329 -0.02352250303362658 -1.965056164954276e-22)
(1.051051584197783 0.05005391509792342 0)
(1.010230554826701 0.01468064983226608 -3.994338644481614e-20)
(1.033945547847167 -0.007555259750891186 9.028307223392893e-21)
(1.088926181872373 0.01345238826388817 -3.288382436633511e-20)
(1.085568816010485 -0.02844029191304307 0)
(1.072396385328233 0.004494221458796425 0)
(1.109406416635074 0.09498976833641964 -1.43011497169365e-18)
(0.9356775025619537 -0.1505803195982771 -7.052259932018724e-20)
(1.167123437386225 0.1103299496139754 1.119864197036815e-19)
(-0.4855027694020285 0.00792681828816676 -2.910997576444028e-19)
(1.01849990057679 0.02850004745567674 -8.936570283348699e-20)
(1.003946578293168 0.002483696899407664 0)
(-0.2896066402796467 0.02437235503266847 3.553553825535392e-19)
(-0.04709164018539075 0.292367324778417 7.983496160841535e-21)
(0.9952241373685893 -0.006258697450525333 1.000186684688677e-19)
(0.1900956832404575 -0.0411048452454831 1.414542393836517e-19)
(1.089711658947781 0.08028572139562111 1.468551923449462e-20)
(0.09421033042292262 -0.1113811378776329 -5.551644741581606e-20)
(1.108151104693251 0.002977989398233386 0)
(1.105372712586151 0.2592095235280197 0)
(1.02161857282558 0.02158778343959255 -1.749327665340545e-20)
(1.071929717084995 0.05145962648226401 0)
(1.027086141478091 0.02572479346454879 -9.410217662409132e-21)
(1.264781988861185 -0.5495430679158214 8.076669483456736e-19)
(-0.1156749504832461 -0.2069906897233355 2.219009099775602e-19)
(1.298652176431694 0.1189678752886873 -6.383502312579196e-19)
(1.121558683440274 -0.003712439982722788 0)
(1.123571558712359 0.09564394694640366 0)
(0.5297597485452846 0.08309355392078697 2.558842016708143e-19)
(1.023780494673976 -0.02066706416453045 9.259405737862506e-20)
(1.00636369550947 -0.02389196899507962 0)
(1.210189401078615 0.2705546744970694 -9.465106628024252e-20)
(1.263792823918286 0.1392925841254736 -1.617394687526881e-19)
(1.026665558150429 0.003228888579748598 1.520714573405445e-20)
(1.302540251319176 -0.08461728254474157 -5.036749501580511e-19)
(0.2914857863223808 -0.01335603526880898 2.632232585562196e-19)
(0.8242251293080095 -0.1443993211377702 6.630626506098861e-19)
(1.045481916054749 0.05000035160910224 1.057893439457391e-19)
(1.039699046903273 -0.002551144986530072 1.877760740855965e-21)
(1.00153352104972 0.01966450670451335 3.015733481833807e-20)