/*--------------------------------*- C++ -*----------------------------------*\
| =========                 |                                                 |
| \\      /  F ield         | OpenFOAM: The Open Source CFD Toolbox           |
|  \\    /   O peration     | Version:  2412                                  |
|   \\  /    A nd           | Website:  www.openfoam.com                      |
|    \\/     M anipulation  |                                                 |
\*---------------------------------------------------------------------------*/
FoamFile
{
    version     2.0;
    format      ascii;
    arch        "LSB;label=32;scalar=64";
    class       volScalarField;
    location    "47.4";
    object      p;
}
// * * * * * * * * * * * * * * * * * * * * * * * * * * * * * * * * * * * * * //

dimensions      [0 2 -2 0 0 0 0];

internalField   nonuniform List<scalar> 
808
(
0.137055
0.0375238
-0.032759
0.13656
-0.201333
0.0414137
0.0362832
0.0367401
-0.0914478
0.00944316
0.0170896
-0.11122
0.0346478
0.0353277
-0.396075
0.0322123
-0.440841
0.0334146
0.00603192
0.035194
-0.00306924
0.361838
0.0653777
0.0251676
0.438975
-0.183071
-0.0313323
0.00847163
0.0390884
0.0233231
0.0292736
0.0442429
0.0309626
0.019694
-0.0371535
0.624391
0.0291344
0.0283463
0.0395371
0.0224096
-0.0119762
-0.0295978
0.0399174
0.0372872
-0.138403
0.0810971
0.0300075
0.0309142
0.0324149
-0.125294
0.0370663
0.044196
0.0449062
0.0176034
-0.12027
0.0312177
0.016945
0.0185387
0.00953145
0.0300966
-0.315524
0.0264357
0.0423008
-0.111807
0.0288198
0.0484048
-0.183962
0.0240592
0.0200407
-0.255926
0.035739
-0.292858
0.03991
0.0386229
0.200656
0.0233786
0.0199198
-0.127137
0.0310042
0.289427
-0.120002
0.0264682
0.0416078
0.28334
0.0290757
0.00233197
-0.333808
-0.147074
0.0497012
-0.247014
0.0622628
-0.0649395
0.238827
0.147211
0.0404256
-0.118217
0.0177122
-0.104254
-0.0656844
-0.123538
0.0320215
0.0274157
0.0623653
0.00716812
-0.0420744
0.054905
-0.165604
-0.00777207
0.032682
0.0507657
-0.0394001
0.311181
0.0379161
0.0518033
0.0274284
0.448369
0.0379264
-0.23623
0.028946
0.0790293
-0.172364
0.0438705
0.036751
0.0800915
0.0992174
-0.0885561
0.127286
0.0500373
0.0570019
0.0643161
-0.159278
0.032199
-0.00837998
0.103332
0.0324726
0.0331116
0.0400719
0.0117269
0.0415086
0.03465
-0.383445
0.068227
-0.0291992
0.0352615
-0.0635189
0.0891006
0.115282
0.17143
0.0551298
0.0180328
0.0355416
0.322198
0.0537424
0.522489
-0.379223
-0.124739
0.0349137
-0.228057
0.0182188
-0.134361
-0.296826
-0.374745
-0.218976
0.0426792
0.060365
0.0289279
0.0457906
-0.220175
0.0348664
0.0303923
0.0619798
0.144375
0.0282223
0.139753
0.0331004
0.0899331
0.065401
-0.10713
0.0387596
-0.32517
0.0342557
-0.187376
0.0405868
0.273911
-0.438894
0.110878
0.0279779
-0.0829147
0.0352211
-0.0447103
-0.392151
-0.0248904
0.0295042
0.102213
0.0415876
-0.382108
0.0306277
0.0445045
0.00692741
0.0681283
0.0879904
0.03625
0.031275
-0.30577
0.362468
-0.343857
-0.297178
0.0170695
-0.0367487
0.0370979
-0.0159027
-0.383886
-0.111694
0.0307473
-0.073549
0.0355923
-0.300162
-0.0857116
-0.0255733
0.0504378
-0.045798
-0.136104
0.0399004
0.0380334
0.00901167
0.0317387
0.117682
-0.149456
0.0500636
0.0312159
0.108211
0.0347964
0.0394189
0.0237486
-0.0989347
-0.0203024
0.014216
-0.00475639
-0.0261595
0.015553
-0.00892887
-0.0144811
-0.00868464
0.0106536
-0.00654313
0.0158982
-0.00850634
-0.00933832
-0.00142969
0.0797477
-0.295441
0.00847743
0.0162356
-0.0583167
0.0275054
0.0306477
0.0484429
0.00554785
0.0365844
0.11065
0.0751238
-0.02114
0.0107961
0.0284342
0.0125414
0.0285272
0.0253154
0.0759833
0.0314101
-0.0271478
-0.0392089
-0.382748
0.255367
0.0130475
0.0360558
0.0289318
-0.00485912
0.019954
-0.0791317
0.288771
0.0501355
-0.0455607
-0.00347574
0.105904
-0.0523815
0.0306174
-0.0118276
0.0307317
-0.00815158
0.0258932
0.0395619
0.0289149
0.0279881
0.0085653
0.00965614
0.0386045
-0.0496811
0.0469449
0.0619676
0.011754
0.0203767
0.0390079
-0.00202872
0.00804762
-0.467902
-0.100395
-0.0413363
-0.0507587
-0.121992
-0.35927
0.0544766
0.0394202
-0.30122
0.145782
0.171467
0.0351024
0.0356978
0.0405305
0.00794529
-0.191654
0.0547433
0.0120416
0.0319281
0.00470164
-0.0104566
0.0446243
0.0155037
0.0293567
-1.03011e-06
-0.330925
-0.132755
0.0229206
-0.048087
0.00475565
0.0219184
0.215884
0.0245164
-0.102744
0.545683
-0.0403431
0.00722314
0.0375106
0.0135746
-0.0714865
0.0220675
0.0366798
0.061543
0.0702482
-0.0121518
-0.31936
0.0225096
0.0938932
-0.0277939
-0.340962
-0.29081
-0.185378
-0.289443
-0.0451821
0.0441737
0.0563967
0.0803584
0.0109932
0.0154517
0.0568871
0.0196153
-0.465753
-0.0719237
0.0561343
0.0114053
-0.16718
-0.0876537
-0.0152873
0.130775
-0.28977
-0.016506
-0.0254354
-0.00342088
-0.0956001
-0.318849
0.0388988
-0.385212
0.0333189
-0.0691156
0.00911387
0.0325129
0.0396958
0.0959902
-0.31958
0.0274771
0.0461986
0.0225655
0.0574487
0.0229454
0.0480902
0.0443844
0.0235641
0.0777736
0.0596794
0.0315278
0.0243141
-0.0894963
-0.0808964
0.0353589
0.0194083
-0.0735044
0.0185211
0.433461
-0.175171
-0.0121264
-0.236472
0.0336658
0.0375144
0.0358919
0.0621417
0.023861
-0.0322705
-0.0233932
0.033956
0.00067636
-0.0038037
-0.00871821
-0.00902851
0.0232539
0.134452
0.00475396
0.0191178
0.019625
-0.00773877
-0.0406551
0.0371152
-0.338563
0.0760319
0.0763256
-0.0245241
-0.224543
-0.302253
0.024056
-0.0549284
-0.0534286
0.0429174
-0.0496156
-0.168187
0.164811
-0.295702
-0.416626
-0.227762
-0.187737
-0.0875315
-0.187357
0.351271
0.0321224
-0.333603
0.0271229
-0.0422912
0.595208
0.0260119
0.0393251
0.0165494
0.129736
0.0179275
-0.322722
-0.411083
0.0708303
0.0844186
0.00926439
-0.227682
-0.259436
-0.298113
0.031928
0.0373955
0.0870234
0.0131258
0.0519338
0.0732566
0.149456
0.045613
-0.0858569
-0.368296
0.0632789
-0.0719208
0.0408989
0.00110782
0.0989466
-0.0561825
-0.0179859
-0.439668
0.455446
-0.0829713
-0.333971
0.0011505
-0.0652135
-0.355567
-0.353665
0.138732
-0.310614
-0.155726
0.866264
0.0283624
-0.343762
0.0324843
-0.163041
-0.00349566
-0.407921
-0.425408
-0.263363
0.014687
-0.139087
-0.344155
-0.00683051
-0.00336145
0.0625417
-0.270118
0.0202073
-0.467704
-0.397966
-0.466019
-0.272668
-0.0872037
0.029324
0.0995001
0.142974
-0.0192209
-0.31311
0.315188
0.0377269
0.0120876
-0.416248
-0.467277
-0.295358
0.0127722
-0.331301
0.0728551
0.0551167
0.0677483
-0.101419
-0.186283
0.0134169
-0.294524
-0.392653
0.0112679
0.0212961
-0.0876777
0.00143632
0.023867
-0.352676
-0.304302
-0.0285888
0.0794829
0.0495058
-0.303024
-0.37775
-0.0354299
-0.282513
0.0234696
0.089066
0.0223528
-0.0774318
-0.367029
0.0825433
0.0545887
-0.169946
0.0243265
0.0439028
-0.403421
0.00539359
-0.212128
0.0538696
-0.510878
-0.0358317
-0.0011979
-0.444681
-0.541964
0.0102203
-0.426638
-0.431447
0.019811
-0.146714
-0.364366
0.0150141
-0.29938
0.0420118
0.0506584
0.0867947
-0.407007
0.101769
-0.0768078
-0.539313
-0.029303
-0.369142
0.0321145
-0.26285
-0.597736
0.118714
0.242015
0.440423
-0.0187694
0.00940971
-0.001838
-0.324295
0.635048
0.030382
-0.275107
0.0484861
-0.0203281
0.102984
0.461021
-0.446983
-0.0178932
-0.0385089
0.0428841
0.0254105
-0.538294
-0.326633
-0.316612
-0.488418
-0.232735
0.0226317
-0.309977
0.043518
-0.328693
-0.395022
0.464998
0.558442
-0.467805
0.134641
-0.355259
0.00930258
-0.214185
0.355951
-0.155266
-0.300084
-0.138056
-0.597292
-0.0292552
-0.252079
-0.0715526
-0.379153
-0.344898
0.00312184
0.00822912
-0.310469
0.47661
0.659955
-0.263371
-0.382962
-0.293471
-0.0488703
-0.369437
-0.373279
-0.234053
-0.297105
0.72329
-0.408194
0.764006
-0.381844
0.340667
-0.279871
0.00389254
0.145058
-0.586595
0.264945
-0.346186
-0.378376
-0.407916
0.85822
-0.343449
0.225234
0.167611
0.658435
0.143086
-0.54709
-0.378826
-0.0674016
0.0142787
0.0311685
0.554733
0.0293089
-0.029883
-0.36958
0.0545811
-0.0945849
-0.158034
0.0147355
-0.56987
-0.112388
-0.230834
-0.350124
0.014768
0.124484
0.0215133
0.062074
0.127734
-0.403507
-0.43817
-0.0501386
0.00204617
-0.550184
-0.599597
0.122276
0.17098
0.111077
0.639524
-0.0529803
-0.319017
-0.457155
-0.36054
-0.0338688
0.0401683
0.747504
-0.534318
0.401841
0.0147881
-0.514088
0.135344
-0.14027
0.403741
-0.197027
0.0205169
-0.322544
-0.039806
0.228349
0.826329
0.342674
0.737499
-0.276877
-0.362114
-0.393615
0.125128
0.252266
0.0555667
0.348716
0.176958
0.496156
0.24057
-0.0621069
-0.157773
0.0466368
-0.489809
0.879394
0.415374
0.61322
0.506366
-0.337069
-0.285239
-0.364657
-0.317549
0.0446448
-0.365826
0.134228
0.575347
-0.282545
0.0366998
-0.304403
0.169663
-0.390056
-0.446361
-0.0655257
-0.35234
-0.480254
-0.363425
-0.328406
-0.0388544
-0.397829
-0.0977897
-0.217346
0.12282
0.679605
-0.274708
-0.299496
0.80642
-0.301879
0.305367
-0.291382
0.424396
0.110953
-0.205395
-0.477944
0.402253
-0.24002
-0.389485
0.212635
-0.342527
0.00720464
-0.366168
-0.181491
0.0166588
0.581677
0.780208
-0.368942
0.242466
-0.365574
0.815179
0.017864
-0.377807
0.00248198
0.773983
0.192141
-0.387819
-0.371146
0.470705
-0.262334
0.000525974
0.309406
0.240867
0.307939
-0.308663
-0.412365
0.685736
)
;

boundaryField
{
    FrontBack
    {
        type            empty;
    }
    Top
    {
        type            zeroGradient;
    }
    In
    {
        type            zeroGradient;
    }
    Bottom
    {
        type            zeroGradient;
    }
    Out
    {
        type            fixedValue;
        value           uniform 0;
    }
    circle
    {
        type            zeroGradient;
    }
}


// ************************************************************************* //
