/*--------------------------------*- C++ -*----------------------------------*\
| =========                 |                                                 |
| \\      /  F ield         | OpenFOAM: The Open Source CFD Toolbox           |
|  \\    /   O peration     | Version:  2412                                  |
|   \\  /    A nd           | Website:  www.openfoam.com                      |
|    \\/     M anipulation  |                                                 |
\*---------------------------------------------------------------------------*/
FoamFile
{
    version     2.0;
    format      ascii;
    arch        "LSB;label=32;scalar=64";
    class       surfaceScalarField;
    location    "47.4";
    object      phi;
}
// * * * * * * * * * * * * * * * * * * * * * * * * * * * * * * * * * * * * * //

dimensions      [0 3 -1 0 0 0 0];

oriented        oriented;

internalField   nonuniform List<scalar> 
1171
(
-0.945492
0.945492
0.76334
-1.06154
0.298201
-0.307842
-0.815665
1.12351
0.0545081
-0.0709028
-0.269345
0.340248
-0.76334
0.0729811
0.690359
0.899219
-0.180692
-0.718528
0.826511
-1.01245
0.18594
-0.343803
-0.0427927
0.386596
-0.0032214
0.594795
-0.591573
-0.581746
1.05426
-0.472511
-0.414706
0.985505
-0.158993
0.343252
0.0645323
-0.407784
1.01002
-0.0245122
0.403813
-0.0605617
1.02905
-0.0190343
0.717474
-1.02532
-0.784328
0.609141
0.175187
0.340718
-0.922465
0.562772
-0.917333
0.35456
-1.07731
0.661873
0.415439
-0.638515
0.635294
0.0408685
-0.263676
0.222807
-0.0213654
-0.637517
0.658882
0.456273
-0.499065
-0.874096
0.920076
-0.0459805
1.03586
-0.00680631
0.926843
-1.08591
0.159072
1.07009
-0.0342289
-0.698427
-0.085901
1.25364
-0.860617
-0.393021
0.195991
-0.0726875
-0.401004
0.473691
-0.276793
0.178362
0.0984314
-0.589192
-0.472349
0.981666
-0.0548233
-0.00804951
0.842827
-0.834777
0.506014
0.747625
0.522107
0.0179897
0.438283
-0.772109
-0.111088
0.883198
0.60559
0.24061
-0.8462
-0.0568888
0.665723
-0.608834
-0.505228
-0.572084
-0.395365
-0.69055
0.0199075
0.245212
-0.26512
-0.93088
-0.0335568
0.964437
0.361798
0.0247978
0.867959
0.0312607
-0.595971
-0.042545
0.0499063
-0.822016
0.195125
0.942509
-1.13763
-0.405607
0.0115887
0.394018
-0.708447
-0.222433
-0.759367
0.954492
0.568097
0.48616
-0.573583
0.988727
-0.816933
-0.171795
0.19344
-0.238021
0.0445811
-0.447996
-0.0510693
-0.345498
0.913595
-0.00722048
0.421543
-0.414323
-0.507331
1.11292
0.69951
-0.810598
0.370396
-0.0581148
-0.312281
0.77553
-0.77553
-0.979842
0.0449335
-0.314278
-0.682831
0.674781
-0.0394004
-0.143519
0.18292
0.871237
-0.0284104
1.05101
-0.810395
0.214881
-0.313135
0.0982538
0.995556
-0.127597
-0.676793
-0.0492239
0.726017
0.152212
-0.23875
0.0865375
0.807861
-0.988553
-0.450383
0.314806
0.135577
0.627455
-0.648821
0.890774
-0.404073
-0.486702
0.49541
-0.696084
0.0395213
0.656563
0.149356
0.664887
0.0439868
-0.708874
0.139115
-0.0941819
-0.523015
0.117408
0.0346711
-0.899248
0.864576
-0.572985
-0.757111
0.0586845
0.488229
-0.0499461
0.272453
-0.831825
0.559373
0.424045
0.575955
0.598535
-0.548629
-0.363175
-0.0133144
0.376489
0.554392
0.221138
-0.674054
0.617165
0.0872252
0.880843
0.00376202
-0.680555
-0.763953
0.798624
0.615663
0.124586
0.336267
-0.460853
-0.160143
0.492587
0.173135
0.726349
-0.815844
0.0894949
0.646219
0.342508
-0.428089
0.714444
-0.589858
0.409515
0.153258
-0.062228
-0.559247
-0.219664
0.778911
-0.121049
-0.654481
-0.614529
0.368966
0.245563
0.655996
-0.652234
0.300847
1.03579
0.015218
-0.763953
0.0352037
0.158236
0.69951
0.778616
-0.778616
0.840563
-0.825947
-0.0146162
-0.457175
0.88122
-0.194305
-0.32871
0.759601
-0.668166
-0.0914351
-0.832047
0.2728
0.111146
-0.707116
0.810598
-0.970741
-0.177447
0.13543
0.0420171
0.115124
-0.981917
0.866793
0.537813
-0.0157062
-0.295512
0.599608
-0.304096
-0.648427
0.763551
-0.160936
0.796945
-0.592826
-0.20412
1.05353
-0.512498
-0.541033
0.716388
-0.0714142
-0.0447894
0.0467956
-0.00200626
-0.799656
-0.741548
-0.0741166
-0.682831
0.575425
-0.563837
0.0150228
0.606554
-0.621576
0.778569
0.166923
0.494597
0.505403
-0.0823071
-0.575489
0.657796
0.725473
0.000875718
-0.716388
0.798624
0.177149
-0.440825
0.0200363
-0.0458085
0.0257722
0.675697
-0.453685
-0.222012
0.690359
0.0500482
0.055397
0.531868
0.143829
0.00568116
0.00480426
-0.0104854
-0.00462286
-0.0401665
0.146968
-0.205083
-0.939552
0.05387
-0.140928
-0.0304788
0.129659
0.767423
0.74413
-0.168175
0.417158
-0.402135
-0.166564
0.381445
0.633209
0.0571498
0.232721
-1.05867
-0.970741
0.311852
0.674781
-0.164251
0.0207317
-0.821293
0.950269
-0.128976
0.490085
-0.0960677
0.793162
0.303916
0.320863
0.0829503
-0.680509
0.680509
0.230262
0.652936
-0.0134273
0.43497
0.460264
0.0617978
-0.0417614
0.545871
-0.00805769
-0.648427
0.566935
0.192666
0.052339
-0.00554335
-0.633209
0.145658
0.804611
-0.0173478
-0.721773
0.739121
0.755071
-0.824611
0.0695395
-0.778569
-0.0432522
0.0559609
-0.0127087
0.0826673
-0.141873
-0.113803
0.255676
-0.0107028
0.0163839
0.728028
-0.745376
0.875754
0.247753
-0.468065
-0.526533
0.994598
0.000961044
-0.000961044
0.122116
0.343673
0.813292
-1.15696
-0.18808
-0.561598
0.749678
-0.0135522
0.196472
0.392531
-0.240319
1.1321
-0.788429
0.784619
1.01101
-0.197717
0.198226
0.763551
0.604558
0.265208
0.654868
-0.654481
0.319491
0.0291634
-0.0348739
0.00571045
0.76277
0.21614
-0.97891
-0.585524
0.551295
0.542825
-0.585524
-0.604558
0.551295
-0.0465986
1.09794
-0.222189
-0.554392
0.482419
0.0719736
0.510382
0.697335
-1.20772
0.332905
0.799197
0.75714
0.403522
-1.16066
0.2345
0.776508
0.482419
-0.523591
-0.60753
-0.644457
-0.221717
0.0137282
-3.32953e-06
3.32954e-06
0.446
0.657048
-0.878765
0.715765
-0.379498
-0.958963
0.446466
-0.676979
0.454547
0.0488653
-0.844263
0.795398
0.448618
-0.0314521
0.794222
-1.22743
-0.930852
0.0525344
0.878317
0.54461
-0.184983
-0.359627
0.800187
-0.85501
1.13531
-0.857999
-0.277314
-0.163618
-0.652226
-0.103609
0.724005
-0.620396
-1.00225
0.838631
-0.436715
0.755744
-0.319028
-0.979158
0.264736
0.714422
0.00488654
-0.00392549
0.425711
0.0921185
-1.03376
0.941644
-0.714089
0.631782
0.931898
0.198741
-1.13064
0.0010459
0.00824527
0.368244
-0.356317
0.0431819
0.92841
-0.879545
-0.731405
-1.00886
0.356631
-0.0829011
-0.99467
0.136671
0.640835
-0.223677
0.333447
0.211162
-0.578549
0.843284
0.486702
-0.875715
-0.803508
0.294434
0.0497775
0.655
-0.704777
-0.199272
-0.681627
0.581577
0.173494
-0.0764511
0.870673
0.891166
1.04057
-0.903898
0.0477362
-0.0477362
-0.116953
-0.537646
0.352663
0.327097
-0.0152452
0.370911
0.671401
-0.0339035
0.0232007
0.657924
0.342076
0.798513
-0.589192
-0.753245
-0.488637
-0.505314
0.505314
-0.20253
-0.111748
0.721931
-0.960132
0.238201
-0.530037
-0.568807
0.361266
-1.05182
-1.00189
0.724581
-0.51279
0.869421
0.706211
0.148076
-0.854287
-0.807666
-0.164084
0.801203
-0.637119
0.330494
-0.0286219
0.0052125
0.0234094
-0.185249
-0.352397
1.0832
0.799774
-0.479096
-0.320678
0.440148
0.727467
-0.497205
0.0059077
-0.282701
0.206023
0.731447
-0.93747
-0.345605
-0.0969235
0.12174
-0.959
-0.0199095
-0.812056
-0.00481228
0.757619
-0.752807
-0.806042
-0.00601447
0.650198
-0.747122
0.235642
-0.377515
-0.54906
-0.258606
0.375992
0.740203
-0.0257596
0.0147355
-0.0147355
0.00480093
0.0537326
-0.0245692
-0.0219981
-0.0119053
-0.772737
0.309639
0.830486
-0.78888
-0.041606
-0.676716
0.671903
0.723558
-0.0733605
-0.68883
-0.117212
-1.17449
0.0201452
0.027591
-0.566714
-0.792439
-0.890281
0.49726
-0.203396
0.15648
0.0469154
-0.507801
-0.058913
0.527757
0.712433
-0.0400447
0.00956592
1.21761
0.487552
0.24102
-0.728572
-0.561818
0.0540174
-0.01696
-0.0116619
0.651351
-0.871015
0.00650172
-0.00650172
-0.71231
0.675139
0.0371717
-0.228371
-0.0900949
-0.690352
0.121548
0.536248
-0.0568043
-0.854436
-0.126443
0.165868
-0.0394251
0.7359
-0.777506
0.334471
0.270214
-0.604685
-0.141088
-0.670132
-0.0826752
-0.224758
-0.00489555
0.462438
-0.513507
0.195876
0.701699
-0.897575
0.49541
-0.0725682
-0.130828
0.344263
-0.349159
0.600006
-0.090486
-0.50952
-0.281354
0.299481
-0.0181272
0.613436
0.102329
0.053427
-0.306037
0.162193
0.143844
-0.154011
0.189215
-0.206169
-0.190252
0.224674
-0.0344217
0.764709
-0.441655
0.213284
0.549393
0.213407
-0.692504
0.437466
-0.437466
-0.215267
-0.413494
-0.223098
-0.413494
-0.633378
-0.847479
0.179313
-0.0889921
0.727151
0.0361689
0.1535
0.586704
0.110318
0.120525
0.00710234
-0.127628
0.0768762
0.737733
-1.00509
0.478559
0.00746559
0.0763081
-0.0837737
-0.71048
-0.169494
-0.578854
0.819873
-0.544648
-0.039493
-0.309666
-0.327526
-0.08447
0.08447
0.0450843
0.0108766
0.14067
0.345695
-0.766936
0.188082
-0.0274083
0.468138
0.531862
0.685209
0.0477928
-0.0274767
-0.0203162
-0.290904
-0.563531
-0.596751
0.108756
-0.114778
0.00602191
-0.080646
-0.419196
-0.00849288
0.544741
-0.546544
-0.163936
-0.277514
0.114137
0.158515
-0.461048
-0.195427
-0.194591
-0.010492
-0.503715
0.429155
0.07456
-0.186564
0.290232
-0.862316
-0.533687
0.621617
-0.831358
0.69027
0.443216
-0.0400273
0.0707277
-0.0307005
-0.105603
-0.637847
0.0175055
0.620342
-0.891745
0.618593
-0.735546
-0.280511
0.00915811
-0.00915811
-0.30013
0.423502
-0.0552579
0.0540335
-0.00624071
0.589903
0.678405
-0.58891
0.008225
0.0130776
0.00165788
0.003352
-0.003352
-0.525488
0.627817
0.0106051
-0.0106051
-0.763253
-0.0119102
0.0167967
-0.572089
0.760172
0.618639
-0.581468
0.0696874
-0.0696874
-0.0560126
0.0142512
0.00188096
-0.892041
0.351008
-0.478573
-0.00392549
0.573172
0.0315049
-0.604677
-0.690166
0.143622
-0.322813
-0.0137466
0.336559
-0.0345923
-0.00545245
-0.597543
-0.0403043
0.027591
0.00598072
0.000521005
-0.00322586
0.00322586
-0.401423
0.367001
-0.443028
0.138961
0.659552
-0.141868
-0.009523
0.009523
0.50766
-0.249886
0.00819707
0.0184329
-0.000573493
0.463061
-0.712947
-0.516014
0.729298
-0.0550707
0.325645
0.748671
0.00480093
-0.123428
0.117884
-0.6498
0.554222
-0.392567
-0.116994
-0.0159657
-0.0251357
-0.0494748
0.452206
-0.0930502
-0.41647
0.66186
-0.00334867
0.0092776
-0.0092776
-0.127826
-0.0557278
-0.576097
0.612266
-0.15383
0.506557
-0.228188
0.945662
0.731719
0.00598072
-0.855567
0.787116
0.126034
-0.181023
0.0549888
0.542734
0.0918205
-0.0137252
0.0754264
-0.0617012
0.0104994
-0.0104994
-0.784074
0.0219512
-0.0464886
0.0649215
-0.0902028
0.0902028
0.0130776
-0.00472206
0.693605
0.111006
-0.322955
-0.0962405
-0.51445
-0.15148
-0.0705398
0.0705398
-0.0763288
0.0806931
-0.0806931
0.0295031
-0.0295031
-0.347265
-0.0808239
0.245673
0.069133
0.0449529
-0.746689
-0.0687145
0.165535
0.0116146
-0.268074
0.0796876
-0.0796876
-0.45984
-0.0536667
0.239068
-0.0162601
0.00275485
-0.603499
0.650098
-0.0144708
-0.061858
0.0444974
-0.0302462
-0.0110057
-0.155534
0.16654
-0.153701
-0.223814
-0.0851838
0.0851838
0.0581865
-0.0581865
-0.0330695
-0.0959981
0.129068
0.0535751
-0.1831
-0.0316344
0.0332923
-0.306074
0.673075
-0.0262835
0.454098
0.00258224
-0.0130677
-0.0549617
0.0549617
-0.71804
0.328326
-0.1301
-0.215177
-0.0235723
-0.020943
0.0236979
0.215339
0.0403369
0.00351446
-0.00408795
0.0791404
0.0296153
0.0532767
0.112258
0.0168008
-0.0072349
0.00277588
0.00489547
0.0064816
0.0143694
-0.020851
0.00380001
-0.000766428
0.0304758
-0.0304758
0.0544834
-0.0391833
0.0391833
-0.194124
-0.00817219
0.0156646
-0.0771392
0.0190038
0.0748205
-0.0748205
0.289899
-0.253048
0.0993467
-0.0700272
-0.183021
-0.0195213
0.0195213
0.401703
0.254859
-0.513829
-0.0818941
-0.0328835
0.540664
0.0980725
-0.0830909
-0.434569
0.0773513
-0.159328
0.176328
-0.0169997
-0.0452052
0.0452052
0.826022
-0.5963
-0.018898
0.022698
-0.00573275
-0.281243
-0.00100543
0.00501894
-0.0479828
-0.614199
0.568117
-0.667787
0.014644
0.238406
0.0155781
0.0254586
-0.165061
-0.338939
0.2618
-0.0607801
0.0277106
0.164917
0.134564
0.219431
0.274534
-0.258956
0.00700261
-0.116325
-0.228924
0.0717347
-0.018458
0.169893
-0.144434
-0.0696665
0.148807
-0.397572
0.131728
-0.112725
0.0611553
-0.477625
0.181347
0.170646
-0.240312
0.00274803
-0.174667
0.173661
0.00486715
0.14394
-0.0285782
0.0545666
0.453093
0.0109546
0.0392618
-0.0123631
0.0397858
-0.245924
-0.203363
0.588933
0.176791
0.0622768
0.0862652
-0.0608633
0.0157961
0.0391927
-0.0301263
0.172419
-0.157775
-0.010213
0.0143943
-0.105676
-0.030727
-0.0174479
0.255277
0.0086467
-0.0144501
-0.319882
-0.0136246
0.213827
0.148644
0.179682
0.0571682
0.102784
0.0504633
0.53944
-0.0180751
0.0964676
0.0485843
0.0614617
-0.110046
-0.258969
-0.205812
0.0227917
-0.222348
0.29709
)
;

boundaryField
{
    FrontBack
    {
        type            empty;
    }
    Top
    {
        type            calculated;
        value           uniform 0;
    }
    In
    {
        type            calculated;
        value           uniform -1;
    }
    Bottom
    {
        type            calculated;
        value           uniform 0;
    }
    Out
    {
        type            calculated;
        value           nonuniform List<scalar> 10(1.09004 1.03397 1.25199 1.0337 1.10086 0.998225 1.10305 1.09884 0.652733 0.636591);
    }
    circle
    {
        type            calculated;
        value           uniform 0;
    }
}


// ************************************************************************* //
