/*--------------------------------*- C++ -*----------------------------------*\
| =========                 |                                                 |
| \\      /  F ield         | OpenFOAM: The Open Source CFD Toolbox           |
|  \\    /   O peration     | Version:  2412                                  |
|   \\  /    A nd           | Website:  www.openfoam.com                      |
|    \\/     M anipulation  |                                                 |
\*---------------------------------------------------------------------------*/
FoamFile
{
    version     2.0;
    format      ascii;
    arch        "LSB;label=32;scalar=64";
    class       volScalarField;
    location    "485";
    object      p;
}
// * * * * * * * * * * * * * * * * * * * * * * * * * * * * * * * * * * * * * //

dimensions      [0 2 -2 0 0 0 0];

internalField   nonuniform List<scalar> 
808
(
-0.03581178161251758
0.04488716826335931
-0.01158966734834951
0.03512261132930239
-0.3033962810105557
-0.05483361818438686
-0.0147117543543332
-0.02398843011488182
-0.1999121151080337
-0.08559653127676643
-0.009885541588320352
-0.2575155189877747
-0.03059967149043183
-0.01312347536425977
-0.1202820291647412
-0.01407591955722313
-0.1380559036479824
-0.01359911057663635
-0.01235421698769993
-0.05687824202353622
-0.006210698689690351
0.1181936535222028
-0.0610713756009915
-0.07332084674484689
0.1764321921992754
-0.09966701671849149
-0.1550957680266417
-0.02031831833947573
-0.01736724941637051
-0.02589415567901866
-0.02019594844129287
-0.05979223238271086
-0.02287284171859495
-0.01681929671429312
-0.1011986169489375
0.3439440722407761
-0.03873396335857168
-0.01665369667029877
-0.02323411217963287
-0.02655076196845467
-0.09192994529558057
-0.1289632154720229
-0.05098524848615849
-0.0208039055835166
-0.05432729646804544
-0.04010050622696706
-0.01226469705503178
-0.187455996904767
-0.02754038416417289
-0.2072943980455115
-0.0163246571372035
-0.0688800740959517
-0.05971314208565949
-0.01443653244649545
-0.1907654809728753
-0.02890824347668446
-0.01050173678438897
-0.01383003495948874
-0.1023181291247243
-0.0405902181950524
-0.1017898475638464
-0.1284631575424362
-0.01356407259689166
-0.1308905811646161
-0.01711765476606244
-0.05078964392783337
-0.167835992281107
-0.03561563148105722
-0.01483731818703668
-0.4456984193169716
-0.0269127942460225
-0.3071147032934232
-0.02197558346950396
-0.02057272628641065
-0.06738130310787198
-0.01740869029773227
-0.04343737496035879
-0.3591074191163691
-0.03562891209099588
0.04197445994484594
-0.09042855337649876
-0.01723414533391999
0.05686691957977549
0.04349306835194928
-0.01664229825646639
-0.05321118386634694
-0.5482723942661777
-0.2232348396574932
-0.05332846417822922
-0.1116216885873746
-0.0579497118171968
-0.1349576441699501
0.040549134491513
-0.02403519833791225
-0.06076563064120302
-0.1214930630969348
-0.03845408872339493
-0.0517775716753032
-0.1182292358028886
-0.1413139150960307
-0.05226108380599438
-0.04830423094030097
-0.05555965237878119
-0.04569489979707245
-0.05789914019015247
-0.07344688688609792
-0.04082494034664513
-0.01104266631911569
-0.04099578064550974
-0.1265742768930298
-0.05115262605442826
0.08323268746839504
-0.04305662190219998
-0.007873869188604787
-0.02777465909792308
0.1800984822112344
-0.03977531329588296
-0.2730689602490398
-0.02040123708781263
-0.05479802510080078
-0.03046966774790496
-0.04802543248373092
0.01266072977907935
-0.05002621073636163
-0.03423910032634148
-0.214471239047247
-0.04282221161380603
-0.004852302037693131
-0.07765143264966781
-0.06775390313383009
-0.1509734477472927
-0.02105616750141089
-0.07654446979878714
-0.04134055848474559
-0.02281010362454627
-0.01652248244121916
-0.006279227624024448
-0.007506384172799412
-0.05307689937486706
-0.05087820244879313
-0.2078648043701374
-0.05803822393734401
-0.008523766968935609
-0.02270750814833512
-0.1451835043811209
-0.002118433013233272
-0.07772258078487294
-0.02368226128538506
-0.001000731273068031
-0.01013186960733009
-0.03383054590245706
0.09545373788843238
-0.03973857436591943
0.2526596478943517
-0.2611622751493554
-0.1306448025415879
-0.03729340534844797
-0.09121996603988662
-0.009060385285502915
-0.1120193315751384
-0.1824096655877479
-0.2122506488160428
-0.1842339648188455
0.05542509698167385
-0.06202916308052115
-0.02033143834627096
-0.06786964757674757
-0.1750326162918357
-0.02384751236563482
-0.0186451309231494
-0.05324873976296526
-0.01823526362841085
-0.006114930883936335
-0.1104801849116824
-0.02292308352314576
-0.04659588390780037
-0.06899455073790188
-0.1639135527928008
-0.03367006630152418
-0.3949511370254348
-0.01779253145800365
-0.2228417219870581
-0.04537868421646347
0.03059413790536948
-0.1047040450612686
-0.01438444151326239
-0.04177889072868982
-0.1062031465601658
-0.01774483449843422
-0.09729938913876511
-0.203856830405278
-0.0730259127977647
-0.02381035873496544
-0.04979244655950971
-0.04376376942163812
-0.2026539357576246
-0.02195329887860992
-0.01902336836146626
-0.0113715599043626
-0.05485594332231413
-0.05199431000237078
-0.0225083675410927
-0.0207784597263368
-0.2453832402307562
0.1279402050916539
-0.2010129703178562
-0.2061334701403363
-0.01175880258780517
-0.01158462822003208
-0.06762403040283942
-0.009500261146923809
-0.5110153051038985
-0.1255550971310148
-0.0190813359657731
-0.001610512168186646
-0.02423346377993038
-0.2863082134688626
-0.2739021331155659
-0.007276559212727901
-0.01788427003842215
-0.002354821533167652
-0.3444100407021627
-0.02833652483580561
-0.02921984147793261
-0.01255528838017667
-0.01971848236730787
0.05080531263795181
-0.1142077610961134
-0.01374991809190999
-0.0207612218058248
-0.04315405412832127
-0.01823769978654578
-0.01620411000342294
-0.02337857465601205
-0.0668852708296739
-0.01174704704929314
-0.01903440303103825
-0.008653636271225411
-0.001074721533349187
-0.02950416846048123
-0.001664438749802694
-0.002232713394173928
-0.006068593190637711
-0.0255890705023788
-0.008063046586317024
0.00163327577555666
-0.004102388277798768
0.001113024621977319
0.002432956555419938
-0.00854009162916354
-0.1386582786374112
-0.003015511506603905
-0.0007995659710039713
-0.04812985623695144
-0.02143453385780734
-0.02480327850446898
-0.01426648625573257
-0.006097227978639291
-0.02093932767054782
-0.03754944659390756
-0.01430890297818637
-0.01269548922346764
-0.01200587113378957
0.005837868198596884
-0.01009039624672345
-0.01249699821968842
-0.01124427154358566
-0.01062865656611977
-0.009994535070964011
-0.01109316277673294
-0.01402696462903349
-0.3071772537645068
0.06092912125506604
-0.01515796956718176
-0.01670531077962382
-0.01288894328542156
-0.0125520073335247
-0.008584737742945795
-0.09907283878072302
0.009013033893141481
-0.01400183901948169
-0.01466505188437883
-0.01082451425938791
-0.0532554912016637
-0.00909404270734903
-0.01397354717711048
-0.009140150742289115
-0.00149476328206213
-0.009867756301667436
-0.01051338248982666
-0.02483665216392951
-0.01623147888718013
-0.01210233376897126
-0.0133040844948302
-0.008825577257322212
-0.01322104727739255
-0.01128898363688659
-0.05744341197771297
-0.0128996248418351
-0.01172203639758474
-0.00876630244769672
-0.01499635513305069
-0.01414387830613434
-0.01574176930876655
-1.380852406261786
-0.09841607999599503
-0.01261300213150499
0.02236809328264333
-0.1658732937025889
-0.09356647176835808
-0.0113897682076462
-0.01410480116128513
-0.2567838413630696
-0.03081127328955489
-0.02046632913484403
-0.01108117913956147
-0.01983348407075328
-0.01124355458075608
-0.03069200410977356
-0.4157720100270646
-0.01217369616951295
-0.01409292879480778
-0.004834785836202673
-0.01039761511271805
-0.009230180073465192
-0.01430430572124005
-0.009696901066577002
-0.02633191573458992
-0.01131384187673408
-0.1608315676959926
0.01746379275805099
-0.007750331687753347
0.002867564722008796
0.01251769281570323
-0.04746007179729153
0.02976944114817466
-0.01272303596493793
-0.1361489962837486
0.2819409430905171
-0.007485654801884409
-0.01312799898066184
-0.008386258818852214
-0.03335982109942306
-0.1225462062605009
-0.01330867445261408
-0.01234911562782583
-0.01713499840990448
-0.01363610901698595
-0.04102469199215424
-0.2141802182007526
-0.01127005486498946
-0.04132541182410607
-0.03975695652919101
-0.1670582452587508
-0.1628261058567102
-0.1487913848546811
-0.259363344523819
-0.006285860717469246
-0.02125109728132834
-0.01474432952460818
-0.01298224499152613
-0.03289427045038093
-0.02438144735995459
-0.01443428701767071
-0.01505027567289898
-1.083205557360442
-0.004404745852671263
-0.01378026618517626
-0.01837678577630423
-0.01769850273024493
0.004062380907580531
-0.01390115167361243
-0.02784300927418517
-0.1669869729609635
-0.01354611653656683
-0.0219224326739282
-0.01405338944451532
0.002166170833680283
-0.1787276909737278
-0.01336222067252162
-0.1457184182879911
-0.01600596416538647
0.009908075625594388
-0.01442682654849921
-0.02322427661126942
-0.0158766934549174
0.005653955184466245
-0.2771577655308521
-0.02564904601504871
-0.01621699233407124
-0.008929078202660956
-0.009578529302295883
-0.03051488288489256
-0.01431758146923896
-0.02051896383225082
-0.02130008220271322
0.009896430621507678
-0.1011032111476685
-0.02207972017016178
0.00925186511879825
-0.05112865282279946
0.1589508514100837
-0.1029612527753415
-0.3224255284228386
-0.03006676078795058
-0.0254324854992733
0.1488091847911622
0.09109484936371384
-0.003307035652990543
0.05054274537435441
-0.01572662932930859
-0.0143995050923301
0.002264730953557024
0.01175677865440635
-0.06711994596324916
-0.00526965769220715
-0.05757885839882158
-0.02244860018963076
-0.01569990422894251
-0.03651812013624682
-0.03292358493344497
-0.006653124272029663
-0.01484070225081872
-0.03931501422097395
0.03583400431071938
-0.03883802790703734
-0.01351395289374293
-0.1163472840447658
-0.03180423193396009
-0.03862644589312753
-0.678562421775794
0.01695471856282937
-0.01113606955185568
-0.005252738787766178
0.1678301630756021
-0.08741772096741285
-0.03508853119753014
-0.2474424368514814
-0.01636204637475188
-0.01656881566331708
0.06182787696001874
-0.1855716066586956
-0.2250834646022176
-0.1967268453531292
-0.6873415376347496
0.008752434470952919
-0.01824147441006161
-0.01611917132868305
-0.08223942560922805
0.1176254508602383
-0.02140147806969902
-0.2510709789221493
-0.03508417158711747
-0.006459882112134697
0.2762586092688257
-0.01118207652016365
-0.09396817858814138
-0.1488141567405143
-0.004740096816618582
-0.04052647475840351
-0.04499520786073913
-0.2043923471744087
-0.008862097498830983
-0.04227174748653305
-0.002881243267900659
-0.5521350501024579
-0.2007670876274822
-0.175434122884151
-0.02285212571798606
-0.007159261087982993
-0.0599872000682036
-0.05828894928645432
-0.01546309845378583
-0.06757522093088147
0.00337249196974843
-0.01831154740387273
-0.09574682106614092
-0.2674127957532002
-0.008270000021130241
-0.02601835613107808
-0.02204148888583575
-0.07426641282958563
-0.09127484648955805
-0.08779958632218667
-0.01133757597132613
-0.9267418849206813
0.1604317437243078
-0.08090105651412226
-0.2578229015644762
-0.04261015258714157
-0.01012696899510209
-0.2482105703404695
-0.1838632674070826
-0.03336458023612991
-0.1238076198942815
-0.01825268909756884
0.5622361925066053
-0.02396895412022236
-0.226503325128882
-0.02617007045270164
-0.004969293969854289
-0.01173899423355836
-1.256784686464571
-0.1845097942272856
-0.2342815418603395
0.005411858691067941
-0.03707533571815721
-0.2490407325585617
-0.06542551677632498
-0.05098338431047885
-0.1415982210766999
-0.1928240834563317
-0.06782363891793254
-1.231304538187469
-0.1473029841976658
-0.5211672431337647
0.07830806121692248
-0.00707167858412174
-0.02196399089346366
-0.04259277224835283
-0.04082702602352469
-0.0286979250139678
-0.1322919635074019
0.07965718757811803
-0.003699284217495567
-0.009693434985070026
-0.5791253662026954
-0.864539060705895
-0.1860524245183797
-0.008038264039023028
-0.1337878859373366
0.0009293214205211941
-0.0007820989442458377
-0.002046994639788714
-0.06027873835699236
-0.2394340875889812
-0.01345484510674772
-0.1211611725470327
-0.154409202298407
-0.01322103966185009
-0.03588579585383229
0.02225736057713915
-0.05733334148523303
-0.06972990293160015
-0.5032433887780995
-0.2482951071381641
-0.08125602227074238
-0.07246976111890321
-0.01989317391457677
-0.1194191308985636
-0.1560368801980797
-0.07688607203422514
0.02556040614859453
-0.08441154468701691
-0.04805608834294713
-0.01493658621176452
-0.1103958924924542
-0.2726420557209162
-0.05675579359203782
-0.01852201822499419
0.001370184922963379
-0.01012111850245487
-0.01110090839941545
-0.2208433647057186
-0.01472622087803526
-0.2229230818291044
-0.0105967566697712
-0.06539080960823397
-0.003467763073437828
-0.02319077107593053
-0.3783413394815013
-0.9081342279363697
-0.01130910649221121
-1.051604608958087
-0.6139379336274601
-0.01078453849202024
-0.6526697530787126
-0.1763640584745192
-0.00539450416302317
-0.1297667287016093
-0.01715204138255666
-0.1214985880986088
-0.06757672175500851
-0.07486867706256953
-0.005368003220362795
-0.002940829074562456
-1.333279166550793
-0.0110760741388578
-0.1891164981238813
0.0005517577778829132
-1.015825025928264
-1.23066214628171
-0.08187064081689492
0.02007348172879569
0.1642609246078674
-0.004858234719161279
-0.02301165538389701
-0.004279616126522967
-0.2511699995460261
0.3661415699846753
-0.04092205823906771
-0.2102356826600321
-0.01500187730743046
-0.6594734156016101
-0.07531447524182745
0.1915457093922462
-0.2866036356682455
-0.04984459791244611
-0.06878716522423338
-0.01583573559151622
-0.02169795170375676
-0.5755235656013291
-0.145444788041672
-0.0875597883201039
-0.1261228923610341
-0.5580830822140113
-0.04423465878569665
-0.9112933952340885
-0.000791918590092832
-0.2376297099166962
-1.044652550610738
0.1703879283545817
0.2927406148310849
-0.1793226181996894
-0.1940692707908705
-0.2062676970277369
-0.0682880444971615
0.02345016493738336
0.05079090039417264
0.004368647738237304
-0.1627040827763987
0.02497434303472091
-1.352241467295239
-0.0851282599658162
-0.4720316237611077
-0.3287214369114349
-0.2057604689123815
-0.1756480411618399
-0.01693143758302696
-0.01543464823387618
-0.1032754021510458
0.1699170039183074
0.3858515098795733
-0.221798899609312
-0.1445923326178076
-0.2406823642360967
-0.06246299980671646
-0.1533457494711363
-0.1637618190627089
-0.1254669936254335
-0.1187580363811364
0.4674913466761554
-0.270081207840275
0.4297901113382053
-0.6003303979846523
0.07023439043709866
-0.2027950171578914
-0.06608501471762493
-0.07377838276709633
-0.876764895696899
-0.2235159676713944
-0.1892288421067789
-0.3464099346110175
-0.4570103963190119
0.5705973920604256
-0.204728573999987
-3.561615383189834e-05
-0.07108738910281899
0.342742370289685
-0.0377804512513492
-0.126202671522346
-0.1783826940964249
-0.06402520487006674
-0.01648568629535291
-0.1932910080770508
0.1917043968150487
-0.0127093478434836
-0.09617303684003267
-0.1682627814732339
-0.3122320420058891
-0.3141328606412007
-0.06813999462855261
-0.01017873737674651
-0.07576191871140146
-0.6580019124927777
-0.6664028200232655
-0.3373076742317089
-0.05767169540491058
-0.05218955606105441
-0.02539834152599831
-0.06750796495988784
-0.05810382581972937
-0.3586528246782976
-0.9536253588719281
-0.009834396933501219
-0.08284665620347408
-1.13407229425063
-1.028988684243828
-0.1033587000258534
-0.03832638992886262
-0.07021995363929759
0.3913722784499005
-0.3454763112326455
-0.05163341065435737
-0.5965153489208832
-0.1261338107313285
-0.2538947283844781
-0.2090501251893501
0.4744393521396192
-0.6260662595236819
0.07212920274119426
-0.0295311509460061
-0.5568393733118792
-0.0513198024819398
-0.3592260166406763
0.1060328742518009
-0.1897817378504994
-0.05977327540406022
-0.1349969109324859
-0.3641819298067652
-0.08965174697134494
0.5135748850598737
0.08505563421897071
0.4714791845125954
-0.1150712538178177
-0.1994117373224643
-0.5221059174619539
-0.1295918304942442
0.02704748738448394
-0.0534474159256511
0.1034432522637219
-0.3100629260056676
0.2361329965043234
0.009151934472039892
-0.003302937313911377
-0.515238162824008
-0.1862956718658633
-0.09088237375189918
0.58124026285262
0.1381894815891613
0.3471504008369134
0.2257456496981899
-0.5589887814664909
-0.2133446669017328
-0.2190035650200744
-0.2389878962605835
-0.06022631425105125
-0.6966523853050333
-0.1954778569271639
0.3066170999953286
-0.209677700141472
-0.01107611839496452
-0.1723397541927296
-0.009344040054990659
-0.1592385772613938
-0.4344141510517395
-0.07706237988155897
-0.1971253333470522
-0.07272216844913666
-0.09547899496086747
-0.1428911670219531
-0.07368389483351231
-0.4542248869450335
-0.4170022916371788
-0.02708697682105428
-0.07413759877845336
0.3257213943775943
-0.2463449302309741
-0.1832971690798651
0.5260711705388926
-0.2058565765295587
0.01710935795979732
-0.4479744890180291
0.04480858098929287
-0.0623794013272542
-0.1553896621817286
-0.5811535449910206
0.162805770985229
-0.5828837877732148
-0.5323436787877828
-0.1068818902946183
-0.5051281069451284
-0.03736419261890429
-0.1439569684526955
-0.4079143415855592
-0.01634322883191413
0.2859255936625985
0.4893185415515913
-0.1590180483022831
-0.008539337468589599
-0.06924428365993858
0.5253448791056495
-0.03341915352411645
-0.4375899605511861
-0.03270802321510202
0.459957360559804
-0.01464374584356513
-0.5416112014283058
-0.2425240693477282
0.17525826537782
-0.3091366150881826
-0.1778221499058369
0.05254353058895867
0.03377526596664259
0.05393954963794166
-0.2980640059952758
-0.1567315041654412
0.4126986784512522
)
;

boundaryField
{
    FrontBack
    {
        type            empty;
    }
    Top
    {
        type            zeroGradient;
    }
    In
    {
        type            zeroGradient;
    }
    Bottom
    {
        type            zeroGradient;
    }
    Out
    {
        type            fixedValue;
        value           uniform 0;
    }
    circle
    {
        type            zeroGradient;
    }
}


// ************************************************************************* //
