/*--------------------------------*- C++ -*----------------------------------*\
| =========                 |                                                 |
| \\      /  F ield         | OpenFOAM: The Open Source CFD Toolbox           |
|  \\    /   O peration     | Version:  2412                                  |
|   \\  /    A nd           | Website:  www.openfoam.com                      |
|    \\/     M anipulation  |                                                 |
\*---------------------------------------------------------------------------*/
FoamFile
{
    version     2.0;
    format      ascii;
    arch        "LSB;label=32;scalar=64";
    class       volScalarField;
    location    "6.7";
    object      p;
}
// * * * * * * * * * * * * * * * * * * * * * * * * * * * * * * * * * * * * * //

dimensions      [0 2 -2 0 0 0 0];

internalField   nonuniform List<scalar> 
808
(
0.0955203
0.00815262
0.0339457
0.0950746
-0.263962
0.0062511
0.00782692
0.0203451
-0.161324
-0.0532399
0.0382126
-0.178311
0.0205093
0.000830556
-0.332881
0.0195764
-0.350037
0.0167492
0.0311897
-0.00790585
0.0434936
0.357105
0.0509804
-0.0205841
0.433137
-0.200525
-0.0894817
0.0118239
0.0180552
0.0130171
0.0177743
-0.0026938
0.0221155
0.0120939
-0.110978
0.59986
0.00490911
0.0136124
0.01567
0.0195552
-0.0803918
-0.0878729
0.0197691
0.0275674
-0.207565
0.0697036
0.0160601
-0.0209316
0.0091275
-0.201649
0.0166054
-0.00718472
0.0291629
0.00435128
-0.108729
-0.000772579
0.00656053
0.0370462
-0.0520168
-0.00759218
-0.319166
-0.0273533
0.0332034
-0.213105
0.0297831
0.0305976
-0.314288
0.0228085
0.0353039
-0.314133
0.0136862
-0.351062
0.0180454
0.0242048
0.155611
0.019736
-0.025794
-0.0945185
0.00898681
0.291065
-0.138325
0.0180204
0.0190016
0.246823
0.0249246
-0.0383837
-0.392998
-0.128783
0.0185579
-0.229802
0.0156019
-0.131821
0.238953
0.141729
0.0269664
-0.309949
0.0218505
-0.13856
-0.138167
-0.279429
0.00991845
-0.0168984
0.0285868
-0.0290047
-0.109977
0.0409869
-0.241713
0.0160093
-0.0051643
-0.00192455
-0.0716866
0.313521
-0.0075317
0.0456345
0.013775
0.426432
0.00269967
-0.30138
0.0261018
0.0404746
-0.288946
0.0256834
-0.0169404
0.0359306
0.0975967
-0.0730163
0.0853462
0.0506175
0.00206686
0.0532855
-0.35337
0.0215277
-0.0693803
0.103166
0.0215693
-0.000857396
0.0486237
0.0102619
-0.0144299
-0.0044428
-0.321898
0.022564
0.0393487
0.0100918
-0.0530658
0.0597194
0.0750561
0.133688
-0.0340944
0.0115934
0.00668746
0.319906
0.0256833
0.511568
-0.31771
-0.121991
0.0101701
-0.249003
0.0423227
-0.14123
-0.340732
-0.317067
-0.341972
0.00352258
0.0440611
0.0246669
0.0120285
-0.35793
0.013448
0.030353
0.0258611
0.134072
0.0616598
0.0922183
0.0162761
0.0440137
0.05826
-0.186984
0.0243133
-0.379679
0.0297031
-0.165045
0.00860783
0.237258
-0.361497
0.0999203
0.0106523
-0.178018
0.0233641
-0.128895
-0.31675
-0.0857239
0.0218935
0.0615373
0.0123045
-0.305569
0.0204798
0.0305058
0.00694203
0.0605322
0.0421021
0.021516
0.0145335
-0.354304
0.352729
-0.294129
-0.337545
0.00546258
0.0284185
-0.00402595
0.0109614
-0.430396
-0.348573
0.0195321
0.00655439
0.024132
-0.360926
-0.0605625
0.00762552
0.029269
0.00263077
-0.110264
0.0248881
0.0268624
0.00871071
0.0155794
0.112922
-0.362515
0.0392745
0.0189676
0.0980631
0.0217825
0.0217641
0.0155972
-0.118929
0.022887
0.00540018
-0.00093423
0.00418287
0.0133759
0.00393178
0.00017052
0.00216587
0.00404227
0.00220863
0.000228402
0.0023492
0.0023732
0.00141549
0.0467959
-0.34848
0.00600584
0.000635119
-0.119391
0.00539322
0.000190199
0.0244484
0.000776862
0.0270871
0.102653
0.032117
0.0117642
0.0120328
0.0743407
0.019397
0.0170559
0.0148644
0.0423074
0.0131123
0.0425608
0.0265185
-0.429662
0.255871
0.0165444
-0.0555469
0.0171949
0.017024
0.0116425
-0.254796
0.247403
0.0244819
0.0271201
0.0170064
0.0620338
-0.155417
0.0196342
0.058142
0.0867911
0.0265744
0.0464576
0.021888
0.0297117
0.0181011
0.0240485
0.0323341
0.0237328
0.0333239
0.0387207
0.0287501
0.0277227
0.0145932
0.0200976
0.0241629
0.0192977
-0.533898
-0.114898
0.0378255
0.0924889
-0.210745
-0.346103
0.0270898
0.0230675
-0.347617
0.103314
0.129805
0.0131435
0.01879
0.0356968
0.00871473
-0.25
0.0269177
0.00121623
0.0271654
0.0173494
0.021159
0.0268564
0.0422077
-0.00438295
0.0230659
-0.313316
0.0747515
0.0285499
0.0594173
0.070083
0.00042005
0.209892
0.0228867
-0.192461
0.521277
0.0581961
0.00073491
0.0255309
-0.0741193
-0.0697044
0.0386934
0.0277122
0.0103575
0.0320017
-0.0573052
-0.275204
0.0432818
0.0920536
-0.044321
-0.302526
-0.342151
-0.374983
-0.349736
0.0580732
0.0261512
0.0290039
0.0201877
-0.0251552
0.0112246
0.0291214
0.00271527
-0.528751
0.0561486
0.032523
0.0265138
-0.190264
0.0764536
0.0095577
0.0867803
-0.382554
0.0508923
-0.0169913
0.0475555
0.0789478
-0.316566
0.0292958
-0.327666
0.0123682
0.0968518
0.0255833
0.00813252
0.0314849
0.00462109
-0.371012
0.00122495
0.0192222
0.0556558
0.0339648
-0.00262302
0.0261018
-0.00090548
0.00445826
0.014798
0.00873066
0.0153687
0.00313228
-0.296248
-0.0944328
0.0416336
-0.0367153
-0.0931105
-0.0170898
0.397075
-0.177834
0.00830932
0.0270774
0.0195574
0.0291132
0.030251
0.0799297
-0.0192659
0.0456179
-0.067027
-0.00213935
0.000138869
-0.00379736
-0.00406689
0.00388598
0.0222147
0.0976277
0.117486
0.0165496
0.0111586
-6.64448e-05
-0.0429478
0.0185258
-0.401893
0.0674614
0.0429635
0.0130679
-0.0827218
-0.358069
-0.0137773
-0.114622
-0.0151705
0.0250676
-0.270602
-0.27103
0.205229
-0.346483
-0.479409
-0.097489
0.0428171
-0.0368123
-0.344657
0.326786
-0.0274408
-0.344748
0.00260906
0.0543023
0.545364
0.00998256
-0.0166289
0.0253765
-0.015959
-0.012854
-0.337533
-0.319196
0.0482425
0.0404809
0.0741834
-0.287599
-0.34317
-0.254783
0.0175006
0.0428588
0.075425
-0.0319298
-0.0165811
0.0656266
0.0487863
0.0187734
-0.196339
-0.315971
0.0402169
-0.0573751
0.0174817
-0.0101657
0.055196
-0.0652127
0.0159948
-0.493223
0.425971
-0.264149
-0.324263
-0.02973
0.0142539
-0.320499
-0.300283
0.0995841
-0.363473
-0.120463
0.840013
0.00652171
-0.384611
0.000222531
-0.0402019
0.0151685
-0.479592
-0.338496
-0.338296
0.010373
-0.169714
-0.389541
-0.0240302
-0.0285561
0.0809096
-0.34951
0.0116698
-0.527304
-0.3419
-0.402187
0.0185955
0.0128618
0.00683387
0.0863805
0.10136
-0.0254068
-0.31032
0.277784
0.0759733
0.0134323
-0.467381
-0.524632
-0.364057
0.0362454
-0.377933
0.0708212
0.0775379
0.0550178
-0.197223
-0.260057
0.0140962
-0.329207
-0.311737
0.00691248
-0.0193529
-0.299963
-0.0172248
0.020617
-0.408419
-0.371229
-0.112803
0.0832928
0.0222782
-0.35795
-0.314763
-0.3237
-0.0916416
0.0204354
0.0847987
0.0050845
-0.361991
-0.312117
0.0829122
0.0258
-0.088652
0.0276056
0.0357158
-0.347909
0.0209458
-0.297667
0.0367885
-0.385425
0.0587542
0.00595438
-0.381151
-0.471994
7.25128e-05
-0.495292
-0.488203
0.031804
-0.093115
-0.304387
0.00628601
-0.317557
0.0281489
0.0599296
0.0383929
-0.373265
0.0547363
0.0753285
-0.469515
0.016118
-0.355082
0.0327197
-0.337651
-0.525784
0.0702735
0.253276
0.421331
0.00869338
0.00344219
0.00389331
-0.3699
0.6245
0.0101009
-0.235737
0.0224232
-0.0939756
0.0554778
0.465851
-0.385754
-0.0517839
-0.0539732
0.0310246
0.00960315
-0.468388
-0.300984
-0.368086
-0.375298
-0.3003
-0.00427411
-0.382065
0.0501035
-0.284512
-0.331027
0.492113
0.570367
-0.342524
0.083241
-0.307455
-0.0372265
0.0022904
0.386623
-0.000354056
-0.350368
0.0574507
-0.525278
-0.0380172
-0.214828
-0.0396885
-0.327739
-0.292106
0.00477586
0.000948659
-0.350409
0.421106
0.65645
-0.367871
-0.322245
-0.365506
-0.0693005
-0.320234
-0.309317
-0.208138
-0.350188
0.736016
-0.354606
0.719458
-0.44159
0.302849
-0.34446
-0.0106823
0.156587
-0.516001
0.196517
-0.298505
-0.326949
-0.35502
0.851516
-0.309199
0.187135
0.120029
0.617694
0.10034
-0.412038
-0.302379
-0.168507
0.0102571
0.0663649
0.49551
0.0124737
-0.0373815
-0.310411
0.0976435
-0.152589
-0.299546
0.0251961
-0.405212
-0.18477
-0.176029
-0.398961
-0.00534953
0.0800044
-0.000820801
0.0566423
0.0825002
-0.346888
-0.375202
0.0024316
-0.00477448
-0.482118
-0.528794
0.1563
0.175375
0.0683462
0.650828
-0.109894
-0.368646
-0.400053
-0.3127
-0.0899672
0.0642317
0.744668
-0.467391
0.347535
-0.00878774
-0.443267
0.137734
-0.0954167
0.357517
-0.174917
0.00317981
-0.361157
-0.106103
0.166679
0.790262
0.310293
0.741906
-0.39443
-0.310053
-0.447393
0.148324
0.250381
0.045094
0.363383
0.108574
0.474979
0.257971
0.0135269
-0.218011
-0.00559866
-0.372678
0.863006
0.387858
0.631333
0.490297
-0.284981
-0.380696
-0.309371
-0.326211
0.0332026
-0.432663
0.074103
0.577854
-0.399114
0.00847536
-0.323367
0.16926
-0.340616
-0.38353
-0.163187
-0.301902
-0.372827
-0.369808
-0.369462
-0.130182
-0.449042
-0.161875
-0.353441
0.12898
0.629803
-0.23707
-0.351611
0.809227
-0.349827
0.259266
-0.251726
0.361928
0.0650761
-0.380817
-0.413402
0.424948
-0.304588
-0.338089
0.160579
-0.29299
-0.0230824
-0.312691
-0.137594
0.0215854
0.544701
0.758037
-0.31323
0.202289
-0.354413
0.801408
-0.0115531
-0.32903
-0.0207675
0.74005
0.190781
-0.337075
-0.308396
0.428473
-0.227589
0.019664
0.332532
0.237126
0.272216
-0.268346
-0.354859
0.66657
)
;

boundaryField
{
    FrontBack
    {
        type            empty;
    }
    Top
    {
        type            zeroGradient;
    }
    In
    {
        type            zeroGradient;
    }
    Bottom
    {
        type            zeroGradient;
    }
    Out
    {
        type            fixedValue;
        value           uniform 0;
    }
    circle
    {
        type            zeroGradient;
    }
}


// ************************************************************************* //
