/*--------------------------------*- C++ -*----------------------------------*\
| =========                 |                                                 |
| \\      /  F ield         | OpenFOAM: The Open Source CFD Toolbox           |
|  \\    /   O peration     | Version:  2412                                  |
|   \\  /    A nd           | Website:  www.openfoam.com                      |
|    \\/     M anipulation  |                                                 |
\*---------------------------------------------------------------------------*/
FoamFile
{
    version     2.0;
    format      ascii;
    arch        "LSB;label=32;scalar=64";
    class       volScalarField;
    location    "23.1";
    object      p;
}
// * * * * * * * * * * * * * * * * * * * * * * * * * * * * * * * * * * * * * //

dimensions      [0 2 -2 0 0 0 0];

internalField   nonuniform List<scalar> 
808
(
0.123931
0.0140744
0.010363
0.124071
-0.187892
0.0163567
0.00642004
0.0259237
-0.0949314
-0.0136513
0.0252818
-0.1087
0.022123
0.0109236
-0.304833
0.0210277
-0.32078
0.0199707
0.0200294
0.0108582
0.0128343
0.38361
0.0675384
0.00406866
0.461445
-0.185917
-0.0380099
0.00602451
0.0190668
0.0134061
0.015534
0.0226673
0.0205072
0.0119206
-0.0691459
0.637638
0.0112094
0.01935
0.0204939
0.0156681
-0.0411335
-0.0415372
0.0313862
0.0188568
-0.191597
0.0846332
0.0185018
0.0319146
0.0132343
-0.132128
0.0090603
0.0251956
0.0400086
0.00818585
-0.0918169
0.00976696
0.00759834
0.0258777
-0.00683159
0.00554191
-0.268335
0.0215787
0.0282655
-0.153494
0.0202329
0.041894
-0.213381
0.0198138
0.0169453
-0.237292
0.021193
-0.265828
0.0215147
0.0183705
0.205008
0.00719157
-0.00906089
-0.0741646
0.00719022
0.315269
-0.129839
0.0163794
0.0337741
0.286028
0.0109326
-0.0297738
-0.307356
-0.111863
0.028705
-0.213801
0.0438955
-0.0814946
0.256182
0.156524
0.0364263
-0.195427
0.0169175
-0.125344
-0.0898331
-0.178754
0.0107917
0.000616309
0.0423934
-0.0251309
-0.100058
0.0540419
-0.213214
0.0256347
0.00907892
0.0510131
-0.0801229
0.335772
0.0164152
0.0426479
0.0194785
0.462101
0.013486
-0.221226
0.0155947
0.0604699
-0.222824
0.0322595
0.0133524
0.062278
0.109608
-0.0556439
0.115964
0.040962
0.0415076
0.0636766
-0.211387
0.0214702
-0.0412958
0.123464
0.021196
0.00938333
0.0423496
0.006421
0.0197759
0.0101366
-0.293974
0.0535841
0.00914954
0.018557
-0.0353953
0.0944134
0.101302
0.164372
-0.0206088
0.0312848
0.0161115
0.347338
0.0318821
0.542689
-0.278609
-0.108146
0.0144509
-0.226637
0.0268195
-0.129428
-0.259837
-0.28835
-0.229364
0.019191
0.0569186
0.0173508
0.0227252
-0.231884
0.0144967
0.0232629
0.0421729
0.157672
0.0872871
0.141925
0.0154503
0.0762921
0.0665791
-0.122106
0.0228429
-0.290415
0.0248965
-0.148632
0.0173592
0.275348
-0.32499
0.11366
0.0167598
-0.134887
0.0240205
-0.0868812
-0.278078
-0.0639659
0.0171444
0.0902008
0.0173903
-0.285976
0.0153825
0.0278843
0.00510947
0.0768159
0.0703164
0.0248409
0.0209743
-0.264402
0.381941
-0.277246
-0.259357
0.00899675
0.00949528
0.0168924
0.0054284
-0.337722
-0.205382
0.0148539
0.000363481
0.0190429
-0.271108
-0.0406784
0.0031374
0.0385626
0.0146379
-0.0908274
0.0265977
0.0272396
0.00371093
0.022435
0.12192
-0.221027
0.0663003
0.0167803
0.114542
0.0195428
0.0221651
0.0130501
-0.108287
0.0142186
0.00897245
0.000727296
-0.0029913
0.0124751
-0.000409692
-0.00148802
0.00601249
0.00539798
-0.00112628
0.0044328
-0.00340784
-0.0023782
0.00803476
0.0654966
-0.263842
0.00298011
0.00727467
-0.122739
0.010095
0.00553758
0.029146
0.0016499
0.0229234
0.124911
0.0687368
0.00736822
0.00949551
0.0528698
0.0190366
0.0190827
0.0363621
0.0519162
0.0324981
0.010539
0.0156393
-0.335119
0.27828
0.0111637
-0.0297
0.0170995
0.0101149
0.011373
-0.176883
0.294657
0.0340444
0.00243787
0.0290822
0.0905637
-0.133237
0.0220574
0.0462505
0.0842986
0.0312761
0.0357982
0.0233581
0.028781
0.0277733
0.0268061
0.045295
0.0259249
-0.00359361
0.0542123
0.0656897
0.0490026
0.0229127
0.0248524
0.0278108
0.0131356
-0.441377
-0.106386
-0.0053917
0.0129647
-0.143012
-0.301402
0.0461323
0.0240146
-0.26199
0.136424
0.167831
0.0156779
0.0160145
0.0604954
0.00294336
-0.177856
0.0306746
0.00252526
0.0229309
0.0108197
0.0157623
0.0284316
0.0521752
-0.00184701
0.0272899
-0.262605
-0.0952193
0.0226459
-0.0237605
0.0398351
0.00709471
0.2333
0.0299333
-0.13254
0.558727
0.0244028
0.00443422
0.0251475
-0.0536105
-0.0544723
0.0493816
0.0284602
-0.000881842
0.0378896
-0.0521418
-0.257273
0.0583808
0.103179
-0.0640643
-0.261943
-0.260491
-0.223344
-0.257262
0.0422482
0.0253014
0.0167611
0.000917642
-0.0289728
0.00776309
0.0328483
0.0055122
-0.436346
0.0237062
0.0372135
0.0170763
-0.240285
-0.00184056
0.0179397
0.119474
-0.274425
0.0276305
-0.0498628
0.0387305
-0.0254154
-0.259381
0.0250535
-0.304528
0.0054206
0.00227638
0.0175156
0.00893176
0.0172743
-0.0287195
-0.281245
0.00482787
0.0097779
0.0163498
0.00592453
-0.00691852
0.0292268
-0.00655546
-0.010068
-0.0421759
0.0517815
0.00959505
0.0156679
-0.221592
-0.129634
0.059711
0.0250309
-0.130144
-0.0221054
0.439909
-0.250162
0.00112263
-0.141157
0.0153351
0.0395235
0.0224169
0.00848317
0.000136632
-0.0282367
-0.0612876
-0.00124319
-0.00412421
-0.00660589
-0.0117948
-0.0113985
0.0183184
0.12374
0.0365816
0.0126738
0.0114682
0.0172779
-0.0787041
0.0221111
-0.319432
0.0358406
0.0582358
-0.00254071
-0.220915
-0.259872
-0.0135169
-0.0514014
-0.0773835
0.026746
-0.168141
-0.18512
0.225316
-0.257752
-0.388543
-0.265638
-0.127476
-0.11207
-0.219269
0.362587
-0.0242775
-0.264389
0.00715141
0.0060375
0.593415
0.0108523
0.0266678
0.0436505
0.00555137
-0.0112957
-0.309868
-0.287901
0.0606275
0.0706422
0.077208
-0.214205
-0.241815
-0.237432
0.0113361
0.0067938
0.0898249
-0.0151929
-0.0149113
0.0758836
0.0403785
0.0249323
-0.155999
-0.296907
0.00935336
-0.108194
0.0192781
0.00340529
0.0859581
-0.055616
0.000705966
-0.396193
0.465388
-0.202178
-0.26228
-0.0335312
-0.00859008
-0.270137
-0.266105
0.129223
-0.274466
-0.213711
0.875584
0.0118289
-0.296014
0.00393849
-0.15469
-0.0172488
-0.391929
-0.285197
-0.246073
0.0131441
-0.229397
-0.298729
-0.0170882
-0.0259325
0.101714
-0.246871
0.0269938
-0.432132
-0.318709
-0.378702
-0.24225
-0.021688
0.00411365
0.103434
0.138339
-0.0481528
-0.256773
0.320356
0.0931053
0.0191766
-0.371493
-0.428983
-0.267669
-0.000888781
-0.288082
0.104535
0.0246667
0.0172179
-0.198876
-0.180827
0.0103741
-0.25723
-0.295916
0.0067431
-0.00685759
-0.180326
-0.0135864
0.0325177
-0.31816
-0.265793
-0.0777939
0.0996078
0.0256309
-0.270308
-0.287994
-0.183883
-0.292132
0.0357524
0.0984101
0.00895378
-0.200214
-0.2932
0.100984
0.0297709
-0.230369
0.0247505
0.0346513
-0.325691
0.0166621
-0.211913
0.0338077
-0.348767
-0.0103341
-0.0021403
-0.357452
-0.448122
0.00335947
-0.407204
-0.392616
0.0257868
-0.0730174
-0.273132
0.00890638
-0.254668
0.0295304
0.0791752
0.0746958
-0.33977
0.0903721
-0.00591545
-0.447852
0.00458007
-0.274693
0.0190185
-0.258751
-0.50252
0.118696
0.27585
0.454328
0.00421291
0.00225809
-0.00142849
-0.279859
0.654868
0.0155139
-0.219374
0.0320555
-0.025126
0.0961311
0.490971
-0.3621
-0.0465455
-0.044041
0.032765
0.0141154
-0.444326
-0.256835
-0.255836
-0.319563
-0.2249
0.000939427
-0.301201
0.0647019
-0.265905
-0.310377
0.512781
0.593684
-0.321811
0.139353
-0.270858
-0.0169813
-0.177801
0.407153
-0.123715
-0.264082
-0.120012
-0.502626
-0.0277047
-0.194381
-0.0190018
-0.305757
-0.27593
-0.000551579
0.00347657
-0.26502
0.472645
0.683801
-0.248208
-0.296681
-0.265054
-0.0589231
-0.297964
-0.280276
-0.193674
-0.263179
0.758487
-0.332751
0.763086
-0.350513
0.346817
-0.251428
-0.00128768
0.178584
-0.49299
0.25601
-0.281466
-0.306742
-0.333978
0.879649
-0.266235
0.225982
0.168247
0.661861
0.139736
-0.357154
-0.286314
-0.154352
0.00981426
0.0874921
0.546952
0.0138456
-0.0260711
-0.28146
0.11791
-0.0866294
-0.235946
0.0217394
-0.366117
-0.112866
-0.15562
-0.306229
0.00188568
0.116798
-0.00691967
0.0753261
0.12549
-0.326335
-0.354131
-0.0667528
0.00781575
-0.460088
-0.506053
0.177294
0.197566
0.0990712
0.674085
-0.0456074
-0.315777
-0.378877
-0.292858
-0.0275615
0.0850714
0.771433
-0.444833
0.400664
-0.0135197
-0.419453
0.15651
-0.0746573
0.406783
-0.159628
0.0124358
-0.27584
-0.0393857
0.224868
0.830077
0.349885
0.766612
-0.263563
-0.293782
-0.354402
0.169729
0.274162
0.0611334
0.386043
0.170339
0.510504
0.27985
-0.0702546
-0.146728
0.0488258
-0.329184
0.894664
0.42607
0.653103
0.523581
-0.264144
-0.259451
-0.276581
-0.259802
0.0467731
-0.349478
0.133915
0.603667
-0.273088
0.015781
-0.257479
0.189823
-0.319351
-0.360506
-0.137284
-0.284256
-0.311381
-0.272767
-0.283808
-0.0993001
-0.353552
-0.0928906
-0.270408
0.149776
0.676746
-0.218307
-0.260869
0.833963
-0.26142
0.309433
-0.231422
0.416575
0.102316
-0.231564
-0.390534
0.446585
-0.228521
-0.31703
0.215274
-0.272115
-0.0234234
-0.290461
-0.116756
0.0215936
0.587993
0.793005
-0.287296
0.244192
-0.291055
0.832518
-0.0120204
-0.308247
-0.0277386
0.779735
0.211897
-0.315715
-0.278276
0.474686
-0.208736
0.0395483
0.354376
0.259726
0.313368
-0.249025
-0.331693
0.701205
)
;

boundaryField
{
    FrontBack
    {
        type            empty;
    }
    Top
    {
        type            zeroGradient;
    }
    In
    {
        type            zeroGradient;
    }
    Bottom
    {
        type            zeroGradient;
    }
    Out
    {
        type            fixedValue;
        value           uniform 0;
    }
    circle
    {
        type            zeroGradient;
    }
}


// ************************************************************************* //
