/*--------------------------------*- C++ -*----------------------------------*\
| =========                 |                                                 |
| \\      /  F ield         | OpenFOAM: The Open Source CFD Toolbox           |
|  \\    /   O peration     | Version:  2412                                  |
|   \\  /    A nd           | Website:  www.openfoam.com                      |
|    \\/     M anipulation  |                                                 |
\*---------------------------------------------------------------------------*/
FoamFile
{
    version     2.0;
    format      ascii;
    arch        "LSB;label=32;scalar=64";
    class       volScalarField;
    location    "38";
    object      p;
}
// * * * * * * * * * * * * * * * * * * * * * * * * * * * * * * * * * * * * * //

dimensions      [0 2 -2 0 0 0 0];

internalField   nonuniform List<scalar> 
808
(
0.116135
0.0323256
0.075688
0.115588
-0.274947
0.0292909
0.0231168
0.0333107
-0.161839
-0.0338901
0.074415
-0.183903
0.0351615
0.0248345
-0.134873
0.032642
-0.123762
0.0215867
0.0601679
0.0157401
0.0584862
0.395683
0.0969356
-0.00451507
0.473108
-0.122024
-0.081326
0.0124451
0.015081
0.0348088
0.0173956
0.0217382
0.0356084
0.0169722
-0.0941983
0.626321
0.0321516
0.0430374
0.0301124
0.0313905
-0.0571926
-0.0769174
0.0575186
0.0497924
-0.141524
0.113431
0.0351441
-0.014544
0.0328535
-0.203766
0.0306279
0.0116137
0.0688835
0.00436463
-0.0482181
0.0308461
0.0135168
0.0663408
-0.0363061
0.0250985
-0.312508
-0.0181581
0.0371062
-0.19484
0.0504439
0.0685772
-0.335155
0.0364323
0.0761664
-0.328205
0.0366847
-0.368897
0.0288647
0.0298372
0.162477
0.0427847
0.0133986
-0.0290355
0.0307273
0.338018
-0.0778697
0.028912
0.0477898
0.261173
0.0486273
-0.00429496
-0.41439
-0.0677256
0.0366303
-0.110825
0.0394351
-0.120693
0.275533
0.18177
0.0633534
-0.317384
0.0337802
-0.0999941
-0.124946
-0.2837
0.0309615
0.0179935
0.0442714
0.00487903
-0.0524553
0.0834697
-0.170014
-0.0308256
0.028781
0.00278252
-0.0205823
0.354253
0.0343753
0.00209642
0.0355345
0.452768
0.0264267
-0.315779
0.0359163
0.0587649
-0.204143
0.0571449
0.0268869
0.0581011
0.138904
-0.0145302
0.0985552
-0.00284989
0.020851
0.0912666
-0.414793
0.0352424
-0.0412567
0.154016
0.0352647
0.0266417
0.0413433
-0.00529388
0.0341398
0.0205118
-0.232753
0.0450254
0.0791228
0.0364177
0.00745001
-0.0126035
0.0940352
0.151424
-0.195545
-0.0401886
0.0356511
0.364515
0.037345
0.548319
-0.269929
-0.0519074
0.0300002
-0.155298
0.0611473
-0.0691401
-0.358266
-0.248271
-0.373389
0.0306008
0.0840914
0.040785
0.0310362
-0.406236
0.028983
0.0495128
0.0438701
0.184648
-0.010445
0.099215
0.0299865
0.0681662
0.0947706
-0.18227
0.0349659
-0.400622
0.0503618
-0.0910522
0.0286029
0.253926
-0.123461
0.142161
0.0419417
-0.154087
0.0523582
-0.109993
-0.24915
-0.0533807
0.0361464
0.0753112
0.0290658
-0.198519
0.0363536
0.0386401
0.0140064
0.106934
0.0666866
0.0341106
0.0378771
-0.373051
0.387245
-0.212264
-0.353691
0.0125794
0.0653208
0.0346106
0.0052834
-0.454071
-0.3998
0.0317787
0.00944566
0.0285577
-0.380363
0.000269965
0.0138374
0.0181351
0.00440929
-0.0485669
0.0367198
0.0359023
0.0112511
0.0366003
0.150832
-0.43915
-0.0410611
0.0169728
0.143059
0.019809
0.0220782
0.015743
-0.0632557
0.0442203
0.0167002
0.0106675
0.0107569
0.0266054
0.010998
0.0101776
0.00595042
0.0109489
0.0074701
-0.0102555
0.0146588
0.0217954
-0.0203438
0.00961601
-0.370155
-0.00657411
0.00171558
-0.0407451
0.00762584
0.0278704
0.0363216
-0.00217671
0.0279351
0.153838
-0.0368984
0.0245774
0.0231453
-0.0128376
0.0632014
0.00944456
-0.0295226
0.0273055
-0.0344192
0.0555301
0.000820925
-0.451547
0.298672
0.0375986
-0.117281
0.0176487
0.0446634
0.0217758
-0.237134
0.256548
0.0114085
0.0506735
-0.022978
0.0848311
-0.251056
0.0200118
0.0245138
-0.0811073
-0.0131458
0.0600679
0.031526
0.0253685
-0.0141021
0.00497691
-0.0591672
0.0301332
0.042631
0.0847305
-0.0350744
-0.0222636
-0.0223993
0.0256275
0.00392383
0.0367902
-0.565683
-0.0543694
0.0731265
-0.0424923
-0.205021
-0.175627
-0.0190333
0.0331409
-0.361832
0.12248
0.147796
0.0360267
0.0309288
-0.0517504
0.00958063
-0.261546
0.0421437
-0.00711294
0.0463019
0.0472268
0.0117652
0.0393428
-0.0212202
0.00114518
0.0152088
-0.307456
0.0570704
0.0456107
-0.00147709
-0.057333
0.0315448
0.254459
0.00241457
-0.177659
0.547252
0.123458
0.0113025
0.0438046
-0.0929134
-0.0124404
-0.00187605
0.0434064
-0.000726254
0.0279092
-0.0357762
-0.186809
0.0183367
0.1326
0.00377658
-0.28517
-0.364633
-0.4493
-0.373941
0.031404
0.0336371
0.0131143
0.0201553
-0.0230394
0.0137899
0.0352364
-0.00114486
-0.558886
0.0827954
0.020568
0.0571256
-0.0260476
0.0499694
-0.0255582
0.108727
-0.416484
0.0547228
0.0297927
0.0214602
0.0814442
-0.323152
0.0278687
-0.259598
0.0138633
0.0595913
0.062319
0.0302017
0.0543166
-0.154877
-0.391567
0.0185313
0.0153778
-0.203677
0.0234798
0.0225089
0.0239507
-0.00240917
0.020253
-0.269155
0.0224589
0.0321059
0.0337705
-0.256846
-0.273727
0.0925035
-0.0434016
0.0030656
-0.0268786
0.41289
-0.0969181
0.0240774
-0.0907515
0.0268072
0.0319158
0.0380363
0.0680977
-0.00041665
0.0638385
-0.0260078
-0.00768078
-0.00450006
-0.00649197
-0.0122803
-0.0092025
0.0357975
0.109159
0.0079632
0.0288049
0.0121277
0.0541463
0.0142118
0.0451615
-0.42569
-0.00392776
0.0350465
0.0311731
-0.153482
-0.358695
-0.00654512
-0.116512
0.0515744
0.0351622
-0.35474
-0.285054
0.277459
-0.364474
-0.507483
-0.0381803
-0.123807
0.0438161
-0.382882
0.350909
-0.0728407
-0.346544
0.0233026
0.123001
0.552224
0.0178372
-0.00175823
0.0810886
-0.0952034
0.00684992
-0.320322
-0.205123
-0.0069993
0.0602833
-0.0476884
-0.303253
-0.368971
-0.135933
0.0328286
0.0440803
0.117211
-0.000625916
-0.0649382
0.104473
-0.0363184
0.02803
-0.169086
-0.249581
0.0322145
0.0218829
0.0302663
0.0376386
0.0765252
-0.0151158
0.0395428
-0.520175
0.446022
-0.231303
-0.316679
0.00537515
0.00924989
-0.293702
-0.269413
0.113827
-0.383501
0.00502237
0.866134
0.0327718
-0.402912
0.024651
0.0671474
0.0284175
-0.512717
-0.276557
-0.35779
-0.00142125
-0.0511475
-0.40941
0.018292
0.00493805
0.138198
-0.379142
0.0584148
-0.556736
-0.273754
-0.334427
0.0575651
0.0512258
0.028256
0.131036
0.118328
0.0222929
-0.319658
0.295962
-0.0855459
-0.016001
-0.492549
-0.553431
-0.388921
0.0159132
-0.39711
-0.0730129
0.0411037
0.00997676
-0.129866
-0.272103
0.029782
-0.351078
-0.198834
0.0152184
0.0187385
-0.358264
0.0194609
0.0646502
-0.431542
-0.396823
-0.0888447
0.13039
0.0361902
-0.378671
-0.250725
-0.320223
0.0573893
0.073059
0.127538
0.00320619
-0.417781
-0.241949
0.131888
0.0334566
0.0438363
0.0528411
0.0430841
-0.28233
0.0542917
-0.316035
0.0528047
-0.192299
0.0866231
0.00549706
-0.313412
-0.399667
-0.000715516
-0.526584
-0.516017
0.0628209
-0.0140738
-0.259752
-0.00206484
-0.336466
0.0322802
0.114939
0.0544665
-0.173075
-0.0463506
0.119968
-0.387394
0.019598
-0.335718
0.0285705
-0.368851
-0.449133
0.0802497
0.305545
0.446464
0.0296354
0.00354869
0.0048253
-0.390212
0.659697
0.037899
-0.134566
0.0182605
-0.118111
0.0693025
0.513139
-0.320539
-0.0212675
-0.0119599
0.0273271
0.0260412
-0.396943
-0.299076
-0.375167
-0.250443
-0.323876
0.0187206
-0.412125
-0.0676164
-0.203208
-0.248825
0.555136
0.622597
-0.195839
0.082979
-0.273963
-0.00995217
0.111075
0.452386
0.0935627
-0.366913
0.0484983
-0.445369
0.0128259
-0.146508
0.0259739
-0.26799
-0.199032
0.0068021
0.00407724
-0.367214
0.42205
0.697025
-0.407771
-0.252304
-0.389255
-0.029952
-0.258274
-0.25191
-0.0930765
-0.367598
0.787921
-0.290878
0.731757
-0.466989
0.315042
-0.367374
0.0331832
0.210138
-0.441331
0.182655
-0.185928
-0.253811
-0.282589
0.890775
-0.2889
0.197374
0.129232
0.632548
0.111271
-0.220746
-0.20391
-0.119749
0.0213979
0.134454
0.49395
0.0186508
0.0155687
-0.253483
0.171262
-0.15868
-0.300262
0.0559442
-0.14169
-0.210064
-0.0970447
-0.421903
0.0304268
0.0969153
0.0254646
0.107654
0.0964435
-0.277608
-0.2943
0.0568233
0.0463882
-0.401775
-0.450436
0.224132
0.225362
0.0889934
0.702437
-0.117681
-0.226132
-0.323514
-0.250079
-0.0938847
0.124943
0.784668
-0.389563
0.348882
0.0230901
-0.368327
0.185208
-0.0218304
0.364043
-0.0928352
0.0423715
-0.375517
-0.123984
0.158516
0.80951
0.327222
0.787824
-0.442663
-0.239468
-0.472526
0.208699
0.295865
0.0899532
0.416854
0.0933353
0.503229
0.313354
0.036165
-0.232582
-0.00128355
-0.2386
0.896088
0.40926
0.687622
0.52309
-0.208586
-0.419238
-0.263329
-0.334041
0.0752276
-0.459793
0.0650887
0.624333
-0.447441
0.00784165
-0.338693
0.215896
-0.283581
-0.312737
-0.126129
-0.226855
-0.277789
-0.363702
-0.385247
-0.0961797
-0.474431
-0.179354
-0.29843
0.180801
0.637474
-0.157874
-0.370395
0.853877
-0.366491
0.263856
-0.181428
0.355861
0.0809194
-0.447815
-0.337419
0.485037
-0.325956
-0.264798
0.160236
-0.218818
0.0153912
-0.250784
-0.065273
0.0528506
0.561134
0.78671
-0.251943
0.214285
-0.247075
0.835677
0.0185096
-0.255576
0.0181831
0.760583
0.237335
-0.263424
-0.250994
0.439589
-0.157465
0.0779222
0.39277
0.281496
0.285274
-0.193301
-0.202192
0.696639
)
;

boundaryField
{
    FrontBack
    {
        type            empty;
    }
    Top
    {
        type            zeroGradient;
    }
    In
    {
        type            zeroGradient;
    }
    Bottom
    {
        type            zeroGradient;
    }
    Out
    {
        type            fixedValue;
        value           uniform 0;
    }
    circle
    {
        type            zeroGradient;
    }
}


// ************************************************************************* //
