/*--------------------------------*- C++ -*----------------------------------*\
| =========                 |                                                 |
| \\      /  F ield         | OpenFOAM: The Open Source CFD Toolbox           |
|  \\    /   O peration     | Version:  2412                                  |
|   \\  /    A nd           | Website:  www.openfoam.com                      |
|    \\/     M anipulation  |                                                 |
\*---------------------------------------------------------------------------*/
FoamFile
{
    version     2.0;
    format      ascii;
    arch        "LSB;label=32;scalar=64";
    class       surfaceScalarField;
    location    "38";
    object      phi;
}
// * * * * * * * * * * * * * * * * * * * * * * * * * * * * * * * * * * * * * //

dimensions      [0 3 -1 0 0 0 0];

oriented        oriented;

internalField   nonuniform List<scalar> 
1171
(
-0.945067
0.945067
0.766343
-1.07632
0.309974
-0.129143
-0.689842
0.818985
0.0549328
-0.0758024
-0.280654
0.356456
-0.766343
0.0828323
0.68351
0.909745
-0.209387
-0.700358
0.841274
-1.08014
0.238862
-0.35635
-0.0488837
0.405234
-0.0156554
0.607951
-0.592296
-0.598178
0.895069
-0.296891
-0.432153
1.02605
-0.184777
0.209174
0.102253
-0.311427
0.978354
0.0476969
0.239193
-0.0300186
1.01503
-0.0366738
0.698356
-0.827499
-0.77616
0.598755
0.177404
0.172038
-0.770216
0.551418
-0.911058
0.35964
-1.07935
0.670193
0.409152
-0.643585
0.627929
0.024774
-0.243806
0.219032
0.0497591
-0.630686
0.580927
0.462551
-0.511434
-0.84527
0.88653
-0.0412601
0.984821
0.0302071
0.902128
-1.06681
0.164683
0.996292
-0.0114715
-0.696812
-0.0793476
1.30642
-0.862954
-0.443462
0.151022
-0.0968304
-0.39717
0.494
-0.273978
0.191597
0.0823808
-0.600319
-0.475998
0.995834
-0.0937058
-0.0305158
0.894094
-0.863578
0.52675
0.779667
0.511121
0.00757245
0.454978
-0.790723
-0.108174
0.898897
0.551111
0.255561
-0.806672
0.0827077
0.568097
-0.650805
-0.508127
-0.571218
-0.380019
-0.686793
0.0186258
0.255131
-0.273757
-0.958442
-0.0318213
0.990263
0.372846
0.032388
0.813395
0.0963498
-0.594855
-0.0487298
0.0350304
-0.825753
0.0419007
0.968436
-1.01034
-0.400383
0.0286563
0.371727
-0.708807
-0.249635
-0.738031
0.779932
0.800894
0.0941751
-0.584723
0.988619
-0.80919
-0.179429
-0.270471
0.187288
0.0831837
-0.45803
-0.0534045
-0.263753
1.06465
0.0208156
0.413219
-0.434035
-0.534908
1.08602
0.7115
-0.819674
0.400328
-0.058059
-0.342269
0.795058
-0.795058
-0.831799
0.0470913
-0.327745
-0.699762
0.669246
-0.0428475
-0.152359
0.195206
0.893038
0.00105628
1.05342
-0.797856
0.226887
-0.326149
0.0992613
0.927016
-0.113621
-0.662357
-0.050856
0.713213
0.146482
-0.227987
0.0815043
0.788292
-0.997679
-0.433197
0.307415
0.125783
0.681804
-0.632045
0.877514
-0.402008
-0.475506
0.497495
-0.695004
0.0344579
0.660546
0.120345
0.645133
0.0517196
-0.696853
0.146408
-0.0993165
-0.505184
0.104801
0.0343641
-0.893461
0.859096
-0.528433
-0.751387
0.0545753
0.49935
-0.044372
0.278084
-0.834987
0.556903
0.423849
0.576151
0.59738
-0.562349
-0.421144
0.0258827
0.395261
0.555651
0.239408
-0.672034
0.754742
0.10218
0.871125
0.00557867
-0.667936
-0.76058
0.794944
0.594277
0.0922482
0.337522
-0.42977
-0.15556
0.570572
-0.00247439
0.897469
-0.826796
-0.0706734
0.659142
0.329477
-0.439404
0.662667
-0.570419
0.408423
0.142994
-0.049665
-0.776467
-0.220305
0.996772
-0.13288
-0.662178
-0.614937
0.360465
0.254472
0.654372
-0.648793
0.313608
1.02766
0.0257602
-0.76058
-0.127165
-0.143306
0.7115
0.781249
-0.781249
0.838885
-0.822515
-0.0163698
-0.453548
0.877397
-0.189954
-0.31523
0.764152
-0.674692
-0.0894608
-0.940815
0.164348
0.119361
-0.714216
0.819674
-0.975234
-0.250997
0.225443
0.0255536
0.112889
-1.01824
0.905353
0.540254
-0.0291334
-0.290123
0.593838
-0.303715
-0.668918
0.781807
-0.154818
0.600434
-0.926922
0.326488
1.09799
-0.748666
-0.349326
0.731584
-0.0691805
0.0135634
-0.0122659
-0.00129757
-0.800117
-0.835622
0.14578
-0.699762
0.570492
-0.541835
0.302919
0.611167
-0.914086
0.77695
0.168117
0.491609
0.508391
-0.103403
-0.732724
0.836127
1.04903
-0.151563
-0.731584
0.794944
0.184751
-0.428557
-0.0396763
0.0315081
0.00816813
0.666678
-0.427101
-0.239577
0.68351
-0.0698786
-0.235188
0.561026
0.105652
-0.0271237
-0.000396929
0.0275207
0.0082145
0.00534894
0.179432
-0.237491
-0.936067
0.00941444
-0.141123
-0.0715642
0.126685
0.822265
0.741164
-0.165013
0.721778
-0.418859
-0.166102
0.392989
0.643158
0.0403526
0.234234
-1.05675
-0.975234
0.328474
0.669246
-0.173315
0.0209561
-0.83168
1.07243
-0.240753
0.474817
-0.103089
0.789916
0.304996
0.267337
-0.0281436
-0.680353
0.680353
0.230761
0.668136
-0.0442813
0.457501
0.449719
-0.0105233
-0.0291529
0.5187
0.0215546
-0.668918
0.565883
0.198269
-0.00964105
-0.00262482
-0.643158
0.174782
0.897651
0.0392333
-0.740846
0.701612
0.757818
-0.820311
0.0624931
-0.77695
-0.0430563
0.059746
-0.0166896
0.088942
-0.120588
-0.100353
0.220942
-0.00641125
-0.0207125
0.788832
-0.749598
0.924849
-0.105863
-0.241451
-0.570491
0.811942
-0.000861592
0.000861592
0.251326
0.551238
0.32977
-0.881008
-0.19374
-0.550011
0.743751
-0.0181986
0.213405
0.377259
-0.230777
0.94219
-0.390951
0.823894
0.934605
-0.604835
0.187305
0.781807
0.59703
0.235158
0.651373
-0.662178
0.319647
-0.0797104
0.1021
-0.0223891
0.943452
-0.00581937
-0.937633
-0.560356
0.548884
0.546452
-0.560356
-0.59703
0.548884
0.00976986
0.815546
0.109303
-0.555651
0.463592
0.092059
0.559846
0.643748
-1.20359
0.603527
0.338663
0.591786
0.609136
-1.20092
0.656967
0.277638
0.463592
-0.538427
-0.459887
-0.665505
-0.693628
-0.315755
-0.00976986
0.00976986
0.638105
0.473365
-1.16699
0.648846
-0.311324
-1.08934
0.340673
-0.691731
0.442096
-0.101226
-0.920152
1.02138
0.451041
-0.170627
1.11408
-0.979482
-1.11045
0.197921
0.912533
0.285876
-0.352574
0.0666983
0.706159
-0.799865
0.921839
-0.963617
0.0417781
-0.0119453
-0.814851
-0.229499
0.920881
-0.691382
-1.03771
1.02576
-0.706034
0.446358
0.259677
-0.514683
-0.241046
0.755729
0.00461634
-0.00547794
0.421079
0.0576424
-0.916957
0.859314
-0.836703
0.7333
1.13982
0.0811381
-1.22096
0.0293671
-0.0493416
0.444603
-0.365315
0.0391665
0.924559
-1.02578
-0.620547
-0.614705
-0.200146
-0.162152
-0.878111
-0.085506
0.379546
0.342231
-0.139126
0.425002
-0.812349
0.571303
0.475506
-1.09078
-0.95657
-0.141025
0.0284092
0.664241
-0.69265
0.143267
-0.592137
0.577666
0.180151
0.148108
0.965971
1.22368
0.88675
-0.972256
0.0497137
-0.0497137
-0.0710184
-0.0408074
-0.311767
0.331855
-0.00338086
0.197458
1.10924
0.0252252
-0.0316365
0.656079
0.343921
0.796605
-0.600319
-0.757503
-0.69847
-0.507624
0.507624
-0.211833
-0.115912
0.640164
-0.90201
0.261846
-0.463999
-0.544982
0.310304
-0.997097
-0.903761
0.945539
-0.77678
0.576634
0.655353
0.203053
-0.858407
-0.438793
-0.195799
0.862088
-0.66629
-0.205477
0.0212526
0.000720596
-0.0219732
-0.228582
0.187775
0.950468
0.518752
-0.150725
-0.368027
0.58545
0.753166
-0.522405
0.01757
-0.291548
-0.145817
0.789434
-0.643617
-0.341743
-0.0819611
0.143391
-1.09379
0.156157
-0.698956
0.133662
0.708051
-0.841712
-0.894671
0.195715
0.708323
-0.790284
0.229126
-0.349714
-0.648974
0.210181
0.36927
0.681017
-0.0183498
-0.00968724
0.00968724
-0.0101668
-0.000766958
-0.0789435
-0.013643
0.0388683
-0.306742
0.343027
0.711455
-0.8044
0.0929458
-0.650292
0.783954
0.802328
-0.094005
-0.69398
-0.200691
-1.1295
0.021458
0.0282557
-0.452559
-0.923479
-0.877886
0.434424
-0.129399
0.222195
-0.0927965
-0.305314
-0.147245
0.444197
0.711012
-0.0668051
-0.00475904
0.883609
0.549515
0.113065
-0.66258
-0.219522
-0.0857922
0.000781116
0.0204714
0.748687
-0.968992
0.00352952
-0.00352952
-0.717544
0.805186
-0.0876421
-0.358648
-0.171727
-0.687705
0.201838
0.634289
-0.0612549
-0.883504
-0.512517
0.281459
0.231057
0.725506
-0.63256
0.362254
0.237356
-0.59961
-0.174792
-0.679982
-0.16173
-0.168029
-0.310679
0.465362
-0.518767
0.163805
0.763122
-0.926928
0.497495
-0.284383
0.154984
-0.0477152
-0.262964
0.588994
-0.0907815
-0.498212
-0.292943
0.313335
-0.0203921
0.523251
0.125594
0.122346
-0.317675
0.175015
0.14266
0.0407399
-0.167905
-0.42099
0.00697536
-0.00247506
-0.0045003
0.980051
-0.189052
-0.169596
0.548582
0.387628
-0.538353
0.414381
-0.414381
-0.205841
-0.403458
-0.217112
-0.403458
-0.786535
-0.852312
0.177621
-0.500819
0.766157
0.0471585
0.113034
0.567983
0.111181
0.125956
0.00781038
-0.133766
-0.21936
0.605126
-0.934193
0.363702
-0.113777
0.0853551
0.0284223
-0.760295
-0.177021
-0.564388
0.677454
-0.51538
-0.130821
-0.132142
-0.34565
-0.0786346
0.0786346
0.0591836
0.000562383
0.147414
0.0542902
-0.636285
0.0718972
-0.0116779
0.474005
0.525995
0.855646
0.0118947
0.0333686
-0.0452634
-0.303319
-0.580185
-0.471579
0.119467
-0.123653
0.00418545
-0.176806
-0.406011
-0.205354
0.839643
-0.587314
-0.172981
0.0564662
-0.0201644
0.30539
-0.566104
-0.204023
-0.213751
-0.0237403
-0.464365
0.422781
0.0415844
-0.0447097
0.294881
-0.866099
-0.519448
0.620283
-0.889807
0.715015
0.408159
-0.0340841
0.056411
-0.0223269
0.151394
-0.633295
-0.00748671
0.640782
-0.888632
0.652071
-0.72309
0.0113458
0.00856305
-0.00856305
-0.300105
0.389157
0.0554461
-0.0189606
0.0308554
0.575927
0.517306
-0.587979
0.0125475
-0.0047245
-0.00496274
0.0060188
-0.0060188
-0.434699
0.560293
0.0178249
-0.0178249
-0.779317
-0.0100088
0.0146251
-0.479184
0.551081
0.553187
-0.640829
0.073121
-0.073121
0.00617072
-0.0353237
-0.000346442
-1.07212
0.722795
-0.527495
-0.00547794
0.604926
0.00561247
-0.610538
-0.710144
0.12283
-0.311967
-0.0118285
0.323795
-0.0354433
-0.0313618
-0.606341
-0.0269539
0.0282557
0.00514356
-0.00161405
-0.00252274
0.00252274
-0.1354
0.130899
-0.484831
0.136735
0.65987
-0.0945972
0.0104078
-0.0104078
0.508463
-0.141102
0.00942464
0.0196926
0.00054086
0.608696
-0.749798
-0.771677
0.602081
-0.138339
0.345996
0.809034
-0.0101668
-0.0838897
0.0812649
-0.648787
0.533785
-0.294295
-0.105218
-0.0286748
-0.0269071
0.0197256
0.471274
-0.0876287
-0.410584
0.716071
0.00375107
-0.000155129
0.000155129
-0.228937
-0.0811095
-0.568702
0.615861
-0.134437
0.506209
-0.150603
0.848959
0.800841
0.00514356
-0.677232
0.565653
0.0428448
0.0273078
-0.0701526
0.557371
0.104166
-0.0117812
0.0661798
-0.0543986
0.00925844
-0.00925844
-0.750823
0.0234073
-0.0480974
0.06779
-0.0846976
0.0846976
-0.0047245
0.000241044
0.786923
0.110728
-0.312993
-0.0930182
-0.515947
0.099311
-0.0658549
0.0658549
-0.0390926
0.0850666
-0.0850666
0.0264772
-0.0264772
-0.359256
-0.0801483
0.235494
0.0719206
0.0492111
-0.755539
-0.0712637
0.158182
0.0265695
-0.23524
0.0846625
-0.0846625
-0.464304
-0.0544624
0.225623
-0.00659164
0.00262083
-0.667454
0.657684
0.00137341
-0.0404661
0.0510188
-0.0863424
-0.0119456
-0.162802
0.174747
-0.146625
-0.203089
-0.0800783
0.0800783
0.0528238
-0.0528238
-0.0257287
-0.0934703
0.119199
-0.0501829
-0.193682
0.00942566
-0.0143884
-0.0493522
0.180252
-0.0258109
0.501729
0.011128
0.0163927
-0.0504419
0.0504419
-0.730576
0.313456
-0.126151
-0.205813
-0.0221734
-0.0186434
0.0212642
0.188578
0.0323639
-0.00152366
0.00206452
0.0887004
0.0307668
0.0581199
0.100062
-0.0378169
0.0330578
-0.00368464
0.00105138
0.00267676
-0.0035876
0.000910839
-0.00456937
0.014879
0.0261269
-0.0261269
0.0475364
-0.0457788
0.0457788
-0.1903
0.0174441
0.0302432
-0.0764729
0.0172188
0.080731
-0.080731
0.230162
-0.233526
0.086901
-0.065521
-0.168005
-0.0130565
0.0130565
0.407718
0.252828
-0.525358
-0.0809136
-0.0427391
0.544453
0.000835834
-0.0515258
-0.449663
0.117371
-0.1495
0.167227
-0.0177276
-0.0499643
0.0499643
0.926404
-0.587186
0.000871331
-0.0054407
-0.006063
-0.292933
-0.000404099
0.0046193
-0.0503075
-0.627623
0.570409
-0.652861
0.0142234
0.0366245
0.0154131
0.0239646
-0.155563
-0.329445
0.252972
-0.0524255
0.0266969
0.173701
0.139634
0.296769
0.260814
-0.245401
0.00106272
-0.119232
-0.217642
0.065496
-0.00737601
0.158628
-0.134663
-0.0693425
0.158043
-0.415505
0.11992
-0.102701
0.0600208
-0.470604
0.171847
0.184002
-0.253344
0.0133554
-0.183598
0.183194
0.00393147
0.154111
-0.0279539
0.0456334
0.462829
0.0130704
0.00060645
0.00488517
0.0408829
-0.235369
-0.203662
0.589303
0.163449
0.0621746
0.0689169
-0.0643884
0.0414534
-0.111606
-0.0308813
0.163897
-0.149673
0.020332
-0.0135171
-0.110359
-0.0294865
0.0533899
0.253188
-0.0415037
-0.044889
-0.306179
-0.0139178
0.223168
0.138121
0.175335
0.0559269
0.0933881
0.0658254
0.510102
-0.0027738
0.110684
0.0382574
0.070693
-0.10895
-0.272529
-0.194048
0.0260428
-0.217416
0.280136
)
;

boundaryField
{
    FrontBack
    {
        type            empty;
    }
    Top
    {
        type            calculated;
        value           uniform 0;
    }
    In
    {
        type            calculated;
        value           uniform -1;
    }
    Bottom
    {
        type            calculated;
        value           uniform 0;
    }
    Out
    {
        type            calculated;
        value           nonuniform List<scalar> 10(1.19531 1.09827 1.12539 0.99563 1.25288 0.971266 1.11147 1.00898 0.620222 0.62057);
    }
    circle
    {
        type            calculated;
        value           uniform 0;
    }
}


// ************************************************************************* //
