/*--------------------------------*- C++ -*----------------------------------*\
| =========                 |                                                 |
| \\      /  F ield         | OpenFOAM: The Open Source CFD Toolbox           |
|  \\    /   O peration     | Version:  2412                                  |
|   \\  /    A nd           | Website:  www.openfoam.com                      |
|    \\/     M anipulation  |                                                 |
\*---------------------------------------------------------------------------*/
FoamFile
{
    version     2.0;
    format      ascii;
    arch        "LSB;label=32;scalar=64";
    class       volVectorField;
    location    "38";
    object      U;
}
// * * * * * * * * * * * * * * * * * * * * * * * * * * * * * * * * * * * * * //

dimensions      [0 1 -1 0 0 0 0];

internalField   nonuniform List<vector> 
808
(
(0.896544 -0.0122304 0)
(1.0096 -0.0365583 0)
(1.06022 -0.063679 0)
(1.06672 0.0126642 -2.41822e-21)
(1.50185 -0.261726 0)
(0.944786 -0.0189638 0)
(1.10942 -0.056215 -5.80749e-21)
(1.15944 -0.0540614 0)
(1.37887 -0.212701 3.09882e-20)
(1.2251 -0.0657375 -9.9107e-21)
(1.05135 0.0884653 1.24505e-20)
(1.41143 -0.226915 0)
(1.01677 -0.0530667 0)
(0.734109 -0.0290299 0)
(0.848284 0.0869057 9.89251e-21)
(1.09551 -0.0452334 0)
(0.725401 -0.0109219 -2.69541e-21)
(0.999687 -0.0411676 -1.01066e-22)
(1.06175 -0.0618153 0)
(1.1007 0.00707107 0)
(1.11765 0.0543782 -1.73738e-20)
(0.928934 0.119611 1.15988e-19)
(1.07363 0.0131006 -1.8228e-20)
(1.16615 -0.012567 0)
(0.946638 0.165519 0)
(1.3541 0.0917824 -1.88393e-20)
(1.2933 -0.142782 1.2355e-20)
(0.956314 -0.0160348 -6.26803e-21)
(1.07154 -0.0259939 0)
(1.04036 0.0270316 -4.52149e-22)
(0.959592 -0.00827231 4.71899e-24)
(1.11206 -0.00330354 0)
(1.0851 0.015352 0)
(1.05974 -0.0110529 4.78518e-21)
(1.29659 -0.0271756 8.53141e-21)
(0.745119 -0.132584 1.0961e-19)
(0.866955 -0.0323429 -1.28629e-20)
(1.03542 0.00746431 2.27218e-21)
(1.20522 0.0535749 -4.4746e-21)
(1.13205 0.0311765 0)
(1.24556 -0.0250958 -1.48144e-20)
(1.27619 -0.102804 0)
(1.01123 -0.00558272 -1.19289e-20)
(1.0992 -0.0296495 1.55825e-20)
(1.26863 0.0340809 0)
(1.01028 0.014548 -2.44773e-20)
(1.00058 0.0338512 3.25474e-21)
(1.26764 -0.229478 1.73456e-20)
(1.17523 0.0460161 -1.02894e-20)
(1.42911 -0.127589 -4.47699e-20)
(1.097 -0.0808548 1.09241e-20)
(1.14188 -0.0568603 0)
(1.11814 0.000315368 1.06887e-20)
(1.14481 0.0425592 0)
(1.29993 0.235323 1.95845e-21)
(1.07203 0.0287148 -4.11045e-21)
(1.1924 0.0654982 0)
(1.19735 0.0936376 5.79437e-21)
(1.2339 -0.0649468 1.06387e-20)
(1.13132 0.0199374 -1.3686e-21)
(-0.321638 0.498467 0)
(1.22224 -0.206601 -1.01512e-20)
(1.19745 0.0519269 0)
(1.41492 0.00449438 -3.02447e-20)
(1.11935 0.0292962 -1.62125e-20)
(1.04038 -0.0282884 -1.17384e-20)
(1.46048 -0.0501002 3.5711e-20)
(0.677305 0.0220957 0)
(1.08183 0.00163302 0)
(1.49916 -0.343886 0)
(0.900765 0.0326744 -3.08991e-22)
(1.33844 -0.117281 -4.89976e-20)
(1.01612 0.0588084 0)
(1.04944 -0.0153939 -4.99494e-21)
(1.14377 -0.338684 -5.16273e-20)
(1.08741 -0.0419107 -2.14284e-20)
(1.11977 0.0167148 -2.04138e-22)
(1.30461 0.483557 2.44994e-20)
(1.09351 -0.0459044 0)
(1.00473 0.26455 -1.94297e-19)
(1.34517 0.0668864 1.00525e-20)
(0.745846 0.0133514 0)
(0.848981 0.0174942 -1.44557e-20)
(0.972739 -0.115047 4.02827e-21)
(1.07298 -0.0338873 1.6589e-20)
(1.15722 0.01678 5.11491e-22)
(1.35773 -0.226461 0)
(1.32995 0.273063 0)
(1.07521 0.00779665 -1.67938e-20)
(1.33856 0.118868 2.19356e-20)
(1.07145 -0.0103256 1.23651e-20)
(1.32632 -0.0811459 -1.6542e-21)
(0.965318 0.023726 1.87598e-20)
(1.00376 -0.0223902 0)
(1.11112 0.0187066 2.34205e-21)
(1.43252 0.0830655 -8.62272e-20)
(0.779738 0.0156792 -4.21134e-21)
(1.37494 0.00127835 0)
(1.32108 -0.0454005 0)
(1.45628 -0.0262146 -5.61288e-20)
(1.09347 -0.052241 -6.20913e-21)
(1.10272 0.0145459 -1.53718e-22)
(0.939121 0.0197426 1.18113e-20)
(1.14694 0.00917733 2.39996e-22)
(1.23621 0.0383678 -1.31081e-20)
(1.003 0.0023561 1.7833e-20)
(1.44294 -0.0139422 0)
(0.931504 0.0265443 0)
(1.0873 0.0227229 8.94832e-21)
(1.21953 -0.205145 -4.59511e-21)
(1.20724 0.0347074 3.46995e-21)
(1.03796 0.0382304 -1.27572e-19)
(1.14866 0.0319904 -3.52352e-21)
(1.31695 0.0832497 -3.21444e-22)
(0.816425 0.0123044 0)
(0.919918 -0.0564307 7.54198e-20)
(1.13288 0.0156084 -8.12885e-21)
(1.49864 -0.245285 -2.22683e-20)
(1.12805 -0.0206188 -1.13868e-20)
(0.926226 0.0206523 2.0861e-21)
(-0.228565 0.286557 0)
(0.858359 -0.0166689 2.36244e-21)
(0.788485 0.0212815 0)
(1.05481 0.00725453 -9.30041e-23)
(1.00999 0.0283049 0)
(1.29297 0.314778 3.75216e-21)
(1.03901 -0.0486421 -2.97928e-20)
(1.43957 0.0430679 -3.02814e-21)
(1.14791 -0.0457643 0)
(1.09242 -0.0198762 0)
(0.831461 0.0180244 0)
(1.14926 -0.030573 -5.56474e-21)
(1.22141 -0.0257476 7.91495e-21)
(1.06341 0.108093 -3.81485e-20)
(0.865212 -0.0323218 0)
(1.08985 0.0204287 -2.16099e-21)
(1.13196 0.246292 2.75992e-21)
(1.15538 0.122072 5.1737e-22)
(0.9924 0.0266358 5.83936e-21)
(1.10751 0.0122398 1.28861e-22)
(-0.0585062 -0.0458887 0)
(1.09105 -0.0112849 -1.36338e-20)
(0.981957 0.0719249 3.9306e-21)
(0.719788 0.0237911 -5.87524e-21)
(1.24432 0.161266 4.21349e-21)
(1.18958 0.283844 -7.2524e-22)
(1.04412 0.019588 1.66668e-20)
(0.992595 0.0296672 0)
(1.25643 -0.13498 -3.16347e-20)
(1.16004 0.133398 0)
(0.94583 0.030936 1.22055e-20)
(0.965501 0.267577 1.55101e-19)
(0.96427 0.0331858 0)
(0.819787 0.0795682 0)
(-0.12783 -0.0932025 -6.57768e-20)
(1.32033 0.128448 -7.55693e-21)
(0.670656 -0.0182224 0)
(1.3855 0.0901264 0)
(1.15668 0.162066 0)
(1.3311 0.119917 7.76845e-21)
(-0.0489435 -0.208127 0)
(-0.0717957 -0.0594233 2.99482e-20)
(1.17585 0.00390158 1.1038e-19)
(0.996953 0.0337441 1.72402e-21)
(0.859905 0.000183727 0)
(1.04303 -0.033633 1.65783e-20)
(0.878928 0.0217179 0)
(0.929306 -0.015238 -1.19213e-19)
(1.04139 0.0420002 1.63677e-20)
(1.14393 -0.00642218 4.98606e-21)
(1.08537 0.0148889 7.56385e-21)
(1.01259 0.0646725 -1.38134e-20)
(0.952743 0.255028 7.21952e-22)
(1.15121 -0.348327 3.40449e-22)
(0.91042 -0.0238628 0)
(1.06458 0.00662959 -1.31835e-20)
(0.873911 0.00635767 -1.40834e-20)
(1.39582 -0.135196 2.5115e-21)
(0.687719 0.031295 0)
(1.12852 -0.135349 0)
(1.16304 -0.0115644 8.09704e-21)
(1.36852 0.204202 6.07205e-21)
(1.1013 0.0166999 6.02638e-21)
(1.03485 0.0238081 1.86136e-20)
(0.575641 0.098165 -3.88897e-20)
(0.812846 0.00215386 2.41907e-20)
(1.13595 -0.0234275 8.72576e-21)
(1.36232 0.0139758 -5.04873e-21)
(1.13618 -0.00445227 -9.56724e-21)
(1.29903 0.0107848 4.32651e-21)
(-0.128672 -0.051594 4.69407e-20)
(1.23626 0.0194663 0)
(0.633132 -0.00911991 0)
(1.06328 -0.0174793 -5.81186e-21)
(1.08598 0.0161761 9.58133e-21)
(-0.0158999 0.0169049 0)
(0.886657 -0.0258033 7.02787e-22)
(1.19065 -0.0429665 -4.12903e-21)
(0.979541 0.0354868 2.57873e-21)
(1.07539 0.0365256 -8.96491e-21)
(0.999075 0.0198843 2.41433e-21)
(1.0842 -0.0379738 3.64228e-21)
(1.06947 0.0178976 0)
(0.412786 -0.0367336 0)
(1.04539 -0.066335 0)
(1.11879 0.0935808 -2.25764e-20)
(-0.0349912 -0.23476 5.64479e-20)
(1.11802 0.0459392 -2.02919e-23)
(0.943257 -0.163682 0)
(0.751219 0.0200428 -1.13988e-20)
(0.998338 0.133488 2.44706e-21)
(-0.00176034 -0.0433696 -1.79732e-19)
(1.04775 0.0854314 -7.45666e-20)
(0.634631 -0.00920314 0)
(0.785928 0.207929 0)
(0.928855 0.0418 1.01832e-20)
(1.10555 -0.102 7.03483e-21)
(1.26305 0.386946 -7.05265e-21)
(0.976767 0.188587 -1.38876e-22)
(1.27975 0.0443449 -1.67758e-21)
(0.984323 0.236547 0)
(1.34485 0.410153 -2.51833e-20)
(0.678941 -0.0280151 0)
(0.807025 -0.0240161 -4.75869e-21)
(1.06631 -0.0190015 -4.91002e-22)
(0.610185 0.00999823 0)
(1.1005 -0.00617347 0)
(0.342836 0.174191 -6.58266e-20)
(1.23491 -0.0562537 4.50206e-21)
(0.729363 -0.0135693 2.61857e-21)
(0.990277 -0.00255237 0)
(0.551112 -0.0151091 0)
(0.759412 -0.0182038 -4.02907e-21)
(0.551256 -0.011169 -2.53255e-22)
(1.34355 0.0471216 1.72059e-22)
(1.09018 -0.181672 -3.20255e-21)
(0.71751 0.0174573 -3.08258e-21)
(1.16418 0.0145189 7.85474e-22)
(0.991805 0.207693 1.30842e-22)
(0.563836 0.0124158 8.39311e-21)
(1.25302 0.102184 1.37839e-21)
(1.18915 0.0513038 0)
(0.85791 0.325694 0)
(0.50105 0.0194522 0)
(1.09387 -0.0119515 0)
(1.13234 0.0254542 2.34731e-21)
(0.985827 0.137841 0)
(1.24203 0.00606014 0)
(0.98525 0.140541 0)
(1.20478 0.25432 0)
(-0.029525 -0.0785327 5.74244e-20)
(1.17194 0.100724 -1.45421e-21)
(1.18078 0.207589 0)
(1.22354 0.078373 -3.04276e-21)
(1.17554 0.107234 1.22954e-21)
(1.11925 0.0253909 4.45328e-21)
(1.17514 -0.16937 6.00014e-21)
(1.11741 0.0408968 0)
(0.582262 -0.0162538 8.98763e-21)
(1.04799 0.0416695 1.3435e-20)
(1.29028 -0.175666 0)
(1.06428 0.040166 -2.8624e-21)
(1.27117 0.107844 3.7134e-21)
(0.57119 -0.225925 4.61598e-21)
(1.12177 -0.00472278 1.08633e-20)
(1.10941 -0.0587594 -8.13059e-21)
(1.07299 -0.0593087 0)
(1.25365 0.19309 -6.69618e-21)
(1.22761 0.060741 5.02517e-21)
(0.739464 0.248797 1.30466e-20)
(0.697078 -0.302963 0)
(-0.016719 -0.0240902 0)
(0.971208 0.105891 -1.85482e-20)
(1.0848 -0.00203205 0)
(1.36766 -0.114143 3.53634e-20)
(1.30831 0.0353654 2.11899e-23)
(1.06774 0.0262667 7.81564e-21)
(1.27484 0.0487196 -3.64356e-21)
(1.37981 0.100068 1.1926e-19)
(1.03318 -0.334957 5.21262e-20)
(1.1809 -0.0543849 1.23339e-21)
(0.764363 -0.148909 0)
(0.792946 -0.199712 0)
(0.906008 0.00542965 -2.83967e-20)
(1.3834 -0.127399 -6.61685e-20)
(1.09939 -0.131038 0)
(0.79664 0.329448 9.42175e-21)
(0.47154 -0.210782 0)
(0.808868 -0.261709 -3.25775e-21)
(0.871085 0.284612 -1.15035e-20)
(0.813361 0.0236071 -6.29446e-21)
(1.23141 -0.137683 0)
(1.23199 -0.0496655 -2.4718e-23)
(1.0935 -0.142115 4.14797e-21)
(0.819029 -0.0477104 1.0452e-20)
(1.14089 -0.141864 -5.82175e-21)
(0.693615 -0.0762689 0)
(1.09025 0.0704993 0)
(1.26333 -0.214373 -4.964e-21)
(0.960495 -0.169996 3.29092e-21)
(1.32555 0.123092 -7.52546e-21)
(1.11278 -0.0911134 -4.99336e-21)
(0.889832 -0.227691 9.92156e-23)
(1.04783 -0.054559 0)
(0.445635 -0.146381 1.59743e-20)
(1.32068 0.101166 -1.19353e-20)
(0.767139 0.11255 -1.60635e-20)
(0.251061 -0.488475 -4.88193e-21)
(1.43469 -0.0613329 2.82821e-20)
(0.817968 0.0717276 3.55107e-20)
(1.31122 -0.206404 4.80144e-21)
(1.10785 -0.0588141 1.2682e-21)
(-0.0425066 -0.246239 -9.71162e-21)
(0.999503 -0.00551154 0)
(1.03351 -0.0896983 -1.55186e-20)
(0.84589 -0.0354888 1.42153e-20)
(1.09847 -0.0327286 5.93314e-21)
(0.927312 0.0458662 -3.71984e-21)
(0.53501 -0.0253526 1.18336e-21)
(1.44763 -0.374216 -1.69704e-20)
(1.05406 0.0511279 0)
(1.01485 0.0184134 1.56167e-21)
(1.11428 0.0236073 -3.83895e-21)
(1.21 -0.132265 0)
(0.75879 -0.246221 -5.32147e-21)
(1.11669 0.0550323 3.99663e-21)
(0.703952 0.245155 -7.46805e-21)
(1.16128 -0.0669931 2.29007e-21)
(0.872712 -0.277012 2.47024e-21)
(-0.037664 -0.186791 0)
(0.239202 -0.242377 2.1567e-21)
(1.09063 -0.00356456 0)
(0.844378 -0.215478 -4.58301e-21)
(0.891049 -0.176586 0)
(1.13464 -0.01202 8.3049e-21)
(1.01694 0.0266799 0)
(1.18225 -0.229728 0)
(1.39444 -0.0624622 2.17032e-20)
(0.805904 -0.101213 0)
(0.896003 0.18564 3.79451e-20)
(1.11804 0.0014737 2.11435e-23)
(1.02468 0.0319171 4.61344e-21)
(1.36849 -0.0391698 -2.0028e-20)
(1.22987 0.127996 -2.34516e-22)
(1.19407 0.0711746 -2.17187e-21)
(1.08573 0.0781838 0)
(1.14336 -0.0659138 0)
(1.09938 0.0911863 1.958e-21)
(1.24216 -0.0448522 0)
(1.38017 0.196143 -1.83371e-20)
(0.767006 0.26457 5.38292e-21)
(1.02611 0.0152479 2.64538e-20)
(1.18011 0.0245254 3.2202e-23)
(-0.00451008 -0.0829118 0)
(-0.0416295 -0.141172 0)
(0.254568 0.107938 -6.20891e-20)
(-0.0100277 -0.219338 0)
(0.626825 0.371296 -5.49954e-21)
(1.18572 0.0526719 -3.13028e-21)
(1.10987 -0.0816979 -7.12167e-21)
(1.20406 -0.199057 -7.85355e-21)
(1.23357 -0.078151 0)
(0.705879 -0.0162095 -2.44349e-21)
(1.14469 0.0972302 0)
(1.11858 0.0535933 -1.51192e-21)
(0.541743 -0.113391 0)
(0.586358 0.19132 -7.71689e-22)
(1.18129 0.0791311 0)
(1.18664 0.0149776 0)
(0.515661 0.267446 2.8995e-20)
(0.549057 0.147325 -3.03236e-23)
(1.04618 0.203716 -2.49102e-21)
(1.00822 0.0174607 -9.0881e-21)
(0.297474 -0.105648 0)
(1.08257 0.203702 -3.024e-20)
(1.19921 -0.0269111 5.49292e-21)
(1.09823 0.193697 5.07786e-21)
(0.419516 -0.101473 9.28754e-21)
(-0.0503404 -0.219902 -1.13698e-19)
(1.22359 0.0642198 0)
(-0.029267 0.0204911 0)
(1.24343 -0.00831763 5.93046e-21)
(0.377981 -0.176561 -9.99562e-21)
(1.12185 -0.0325732 -2.23113e-20)
(1.09748 -0.052007 0)
(1.04759 -0.0289932 4.48969e-21)
(1.36482 -0.309092 3.02222e-20)
(0.624205 -0.0384761 -1.16501e-20)
(1.13988 -0.0527313 -3.11855e-21)
(1.11875 -0.0751071 -3.80987e-22)
(0.68122 -0.335739 2.80447e-20)
(1.13322 -0.135369 -1.19037e-20)
(1.12267 0.0155416 0)
(1.22084 0.0963502 0)
(1.17044 -0.138702 2.12706e-21)
(1.20342 -0.00848432 -4.96426e-21)
(0.839771 -0.194643 -9.2399e-20)
(1.19615 -0.0965018 -9.81907e-21)
(1.14903 0.0322932 1.11483e-20)
(0.520235 -0.00109525 1.81999e-20)
(0.584507 0.351731 -6.77528e-20)
(0.323519 0.170352 5.00072e-20)
(1.16196 0.178374 -6.23149e-21)
(1.26695 -0.502228 8.66135e-21)
(1.20378 0.0582527 -3.0099e-21)
(1.19889 -0.0876993 -2.5207e-21)
(0.951108 -0.247929 9.18773e-20)
(-0.119718 0.21145 0)
(1.13715 0.104609 -1.7695e-21)
(-0.0805675 0.0703219 -2.3997e-20)
(1.24074 0.0410891 -5.13223e-21)
(1.27264 -0.0397048 4.61251e-21)
(1.08481 0.0251262 0)
(0.502034 -0.250946 0)
(1.15398 -0.0324112 0)
(1.24299 -0.0619705 6.22824e-21)
(1.20253 0.0068558 -8.33652e-21)
(1.14797 -0.0633733 -8.25934e-22)
(0.470849 0.0171071 0)
(0.625387 0.00952187 0)
(0.628261 -0.00114025 2.67418e-22)
(0.443506 -0.0160031 0)
(1.23122 -0.0547453 0)
(1.02279 -0.0111918 2.34079e-20)
(0.48555 -0.417195 0)
(0.970658 0.0471489 0)
(1.07069 0.0245298 0)
(1.16086 0.181062 -1.51309e-20)
(1.19132 0.0069 -3.81006e-21)
(0.963023 -0.0331979 1.06724e-20)
(1.3522 -0.405976 -1.28729e-19)
(0.728931 -0.347231 1.88981e-20)
(1.24478 0.197663 4.09644e-21)
(1.11474 -0.00554913 0)
(0.113764 0.0355666 0)
(-0.136266 0.255979 0)
(1.17291 -0.0352435 -1.03308e-21)
(1.35165 -0.279343 -3.98712e-20)
(1.24388 -0.0333568 0)
(1.08031 0.0605654 -9.98256e-21)
(0.625877 0.078362 0)
(1.53612 -0.120752 9.22839e-20)
(0.405478 0.50605 1.31528e-19)
(0.352522 -0.0562121 0)
(1.15756 -0.280592 1.38226e-19)
(0.134565 0.450186 0)
(0.263635 -0.397624 1.0357e-20)
(1.18479 -0.00543922 0)
(0.0253911 0.291383 1.0264e-20)
(0.983914 -0.0501182 0)
(1.34251 -0.16811 -1.62385e-20)
(-0.152481 -0.120215 -9.93633e-21)
(1.12861 -0.0375666 2.68163e-21)
(1.02302 0.0374482 -1.92447e-20)
(0.590501 -0.547147 -8.85404e-20)
(1.20832 0.105151 -1.88789e-21)
(1.19981 -0.108837 1.72321e-21)
(1.16442 0.23652 -2.81984e-20)
(1.21936 -0.347868 -1.07183e-20)
(1.17469 -0.0323291 1.01417e-21)
(-0.143336 0.403915 -4.52165e-20)
(-0.0543846 -0.0026353 -6.34583e-21)
(1.40295 0.168334 4.74848e-21)
(1.0557 -0.042061 0)
(0.722014 0.160335 8.6838e-21)
(1.45332 -0.441171 1.00881e-19)
(1.04529 -0.0713813 -7.54872e-20)
(1.37669 0.151268 4.51769e-20)
(1.06002 -0.0315459 6.50837e-21)
(1.10115 -0.0263836 1.05478e-20)
(1.0623 -0.00815217 0)
(1.15238 -0.00406826 0)
(1.26815 -0.176738 3.24779e-21)
(1.0878 -0.0180001 -4.5114e-21)
(1.24229 -0.321412 1.14772e-20)
(1.12059 0.0578029 -7.73424e-21)
(1.38064 0.0677898 -4.18833e-20)
(0.430646 0.00525307 0)
(1.09272 -0.149509 8.07244e-21)
(1.19584 0.0298204 0)
(1.14244 0.0454553 -6.2671e-21)
(1.14043 0.0265646 0)
(1.03782 -0.00656547 1.27706e-20)
(1.23202 0.048943 5.07382e-21)
(1.02891 -0.104599 0)
(0.0654344 -0.0295152 1.86472e-19)
(0.888976 -0.227713 -7.20668e-20)
(1.35848 0.189327 -3.0662e-20)
(-0.100408 -0.161149 4.48225e-20)
(1.15449 0.0143347 -3.57357e-23)
(0.701425 -0.0399384 -5.98087e-21)
(-0.102777 -0.149544 -4.67352e-20)
(-0.0096078 -0.0996713 -2.6976e-20)
(1.0227 -0.0269734 0)
(-0.032559 -0.04837 0)
(1.12436 0.0828577 0)
(0.114103 -0.127947 0)
(1.11342 -0.0354326 0)
(0.162436 0.0326344 0)
(1.11563 0.0203152 0)
(1.05788 -0.0159882 0)
(1.3732 0.00654426 1.03994e-23)
(0.607181 -0.300139 -2.56297e-20)
(-0.178411 0.0131339 0)
(1.25806 -0.058338 7.85962e-20)
(1.31748 0.191045 -6.44927e-22)
(1.24054 0.150502 0)
(-0.0409664 -0.0477859 0)
(1.15972 0.0144315 -4.60536e-21)
(1.17002 -0.00706354 1.22095e-21)
(1.15405 0.377135 0)
(0.368999 -0.0981305 7.73011e-20)
(1.12027 0.0625377 1.90137e-21)
(0.260667 -0.0539211 -6.25694e-20)
(-0.0558163 0.0281208 -2.83428e-20)
(-0.0289464 0.0469116 7.47531e-20)
(-0.0515163 -0.0485291 -2.06065e-20)
(0.879812 0.084101 5.62864e-21)
(1.14844 0.0285699 -1.2721e-20)
(1.02554 -0.00794769 0)
(1.07181 -0.0604214 -1.99068e-20)
(1.17778 0.00221816 4.09526e-21)
(-0.0126588 -0.0933565 1.14449e-19)
(0.981818 -0.0729416 -5.73865e-20)
(0.828319 0.0543329 -1.23682e-20)
(1.23546 0.216329 3.64615e-21)
(0.0871811 -0.0338904 4.11252e-20)
(0.27225 -0.0384378 -5.73174e-20)
(0.510951 -0.0544409 -7.0164e-20)
(1.27023 -0.053555 4.99555e-21)
(-0.0604084 -0.0448704 0)
(1.12501 0.142007 -7.13004e-21)
(1.11579 -0.2035 8.32572e-21)
(1.19079 -0.215419 -8.02836e-21)
(1.23578 0.197826 0)
(1.53625 -0.189176 9.06392e-20)
(1.18381 0.0309456 -4.86129e-21)
(-0.0215897 -0.0892327 -4.06737e-20)
(0.245181 0.0299437 0)
(0.926873 0.0469689 -3.70686e-21)
(1.10721 0.0206051 1.99349e-21)
(0.889441 -0.0381448 3.16058e-20)
(1.16656 0.0106891 2.68617e-21)
(1.11471 0.0508172 0)
(1.21989 -0.161462 -1.78501e-20)
(-0.0339143 -0.18573 -9.14781e-20)
(1.28217 0.0165966 1.92911e-20)
(1.09491 0.166988 -8.54565e-21)
(1.10733 0.0640875 8.84552e-21)
(-0.0471325 -0.0910679 1.92603e-20)
(-0.0127478 -0.00736378 -5.65854e-20)
(0.948111 0.236483 0)
(0.544617 0.126384 0)
(1.14486 0.098961 -2.39163e-20)
(1.04974 0.0685124 1.57904e-20)
(1.11708 0.0543438 0)
(0.821543 0.189691 7.18493e-20)
(0.722279 0.0673062 -9.83229e-21)
(1.09542 0.105808 0)
(1.09615 0.0655087 0)
(1.16334 0.0749544 0)
(1.12793 -0.0555792 0)
(1.13609 0.165761 3.68031e-21)
(-0.0412595 0.0401795 3.09498e-20)
(1.23536 -0.0802086 1.04887e-20)
(1.48835 -0.155396 -1.04239e-19)
(1.12236 0.101726 -5.48336e-21)
(-0.0739519 0.201665 0)
(1.15623 -0.155359 0)
(0.639627 -0.01946 -1.38149e-21)
(0.534975 0.00446448 -5.35365e-20)
(0.0754411 0.0337568 4.37073e-20)
(0.947669 0.0174829 -1.233e-21)
(0.785182 -0.282585 0)
(0.729884 -0.093922 0)
(1.06235 0.0447467 0)
(0.53262 0.503661 1.13965e-20)
(-0.00316773 -0.0445202 -2.85396e-20)
(1.1799 0.160955 2.87071e-21)
(-0.0280212 -0.160487 7.85969e-20)
(1.19873 -0.0378892 2.33917e-21)
(1.15837 0.303964 5.37859e-20)
(1.11334 -0.0769936 7.48815e-21)
(0.203986 0.236265 5.96025e-20)
(1.18967 0.241287 -1.7487e-21)
(0.918469 -0.129488 0)
(0.553627 0.267632 0)
(0.832259 -0.14157 3.66739e-21)
(-0.196783 -0.0211785 0)
(0.606232 0.0291513 3.06386e-21)
(0.629327 -0.436292 -4.02559e-21)
(0.239666 0.0477578 -1.0226e-19)
(1.13576 -0.226097 2.53839e-20)
(1.02806 0.348902 1.09449e-20)
(0.981725 0.0101954 0)
(1.10237 0.174675 5.13659e-22)
(0.649146 0.0165749 0)
(1.00689 -0.0246337 -3.30649e-22)
(0.497519 -0.0171061 0)
(0.713369 0.108243 0)
(1.00305 -0.0242488 -7.83681e-21)
(1.41479 0.169961 -7.28139e-21)
(1.18518 -0.0624497 5.79267e-22)
(0.54153 -0.513603 0)
(1.13845 -0.147156 1.07174e-21)
(0.79825 0.358611 7.44269e-20)
(-0.0319065 0.0190156 1.05413e-21)
(1.24088 -0.00370164 4.98993e-21)
(1.22368 0.0437565 -3.27083e-21)
(1.27915 -0.0662888 8.42825e-22)
(0.80722 0.00491238 -6.78411e-21)
(0.0684624 0.0161349 3.36215e-20)
(-0.0144241 -0.147005 -6.32758e-20)
(-0.185738 0.0376415 0)
(-0.216289 0.191511 0)
(1.2257 -0.630244 3.7999e-20)
(1.15365 -0.0302691 -9.89623e-22)
(0.928522 -0.481504 -5.31798e-20)
(1.08022 -0.0194607 1.44335e-20)
(1.34653 0.193497 2.66451e-20)
(0.596585 0.413733 0)
(0.241687 0.400645 -1.22669e-19)
(0.588746 0.456993 0)
(-0.106245 0.0811178 0)
(1.14924 -0.486923 0)
(-0.0340092 -0.123454 2.50522e-22)
(1.17358 0.00771706 0)
(0.538213 -0.0905704 1.30372e-20)
(0.584056 0.673679 1.96338e-20)
(1.14296 -0.0258397 -9.21918e-21)
(-0.0224654 -0.190468 -1.35791e-19)
(0.298015 -0.373134 1.03759e-20)
(0.448738 0.142556 -1.22327e-20)
(1.20049 0.0953418 0)
(1.34503 0.350662 2.60559e-20)
(1.208 0.552923 1.42671e-22)
(0.171009 -0.0243418 -1.99735e-20)
(0.978416 0.10331 2.49966e-20)
(0.959123 -0.0351229 1.81774e-21)
(0.916324 0.018588 -1.97353e-22)
(-0.00315148 -0.0468744 0)
(0.665543 -0.682279 -2.79279e-20)
(0.613221 0.176672 0)
(0.213326 -0.146024 0)
(-0.0362316 0.00658575 0)
(0.0550771 -0.202164 -5.2842e-20)
(1.24849 0.00635473 -5.75691e-21)
(-0.0348686 -0.0123648 0)
(-0.0167523 -0.0411815 0)
(1.44114 0.115377 -4.24661e-20)
(-0.037015 -0.132191 6.09624e-20)
(0.112446 0.219647 -1.04487e-19)
(0.393557 0.00605124 0)
(0.174783 -0.300538 7.96846e-20)
(1.1539 -0.243205 0)
(1.00988 -0.29198 0)
(0.0548393 -0.165865 1.30176e-19)
(1.14767 0.0431396 -2.9647e-22)
(1.11198 0.329226 3.18407e-20)
(0.265755 0.0252644 4.20458e-20)
(0.416757 -0.540617 -3.05336e-20)
(1.23087 0.0873786 0)
(1.2036 0.183015 1.90306e-20)
(1.20686 0.205491 -2.33757e-20)
(0.101461 0.0684163 -2.37872e-20)
(-0.0608547 -0.156915 0)
(1.07453 -0.0503085 -1.89684e-20)
(1.11258 -0.224261 -1.25864e-20)
(0.595068 -0.431393 0)
(1.10076 -0.152819 -2.40087e-20)
(-0.164469 0.160211 0)
(0.552927 0.00929142 0)
(1.32282 0.0958885 2.18537e-20)
(1.01544 0.0462008 6.35951e-22)
(1.0631 0.726958 -2.26025e-20)
(0.232797 -0.399412 1.24412e-19)
(1.15075 0.0535167 1.94507e-21)
(1.1999 0.0800489 -3.78366e-21)
(-0.0327029 -0.0538881 2.7339e-20)
(0.775711 0.719048 3.59768e-20)
(1.38483 -0.360328 -1.4698e-20)
(0.296926 0.535934 8.40304e-20)
(1.08766 0.00846533 0)
(0.0558471 0.105982 -3.59154e-21)
(0.933917 -0.657494 3.63087e-21)
(0.889357 0.632048 -1.03453e-20)
(0.613102 -0.0285421 -7.63561e-20)
(1.143 -0.000762643 -1.16389e-20)
(1.07679 -0.077448 6.36555e-21)
(1.1587 0.014963 5.21497e-21)
(1.10247 0.119971 7.54521e-21)
(1.13654 -0.11329 0)
(0.898279 0.0986561 1.24279e-20)
(0.878286 0.453418 0)
(1.2043 -0.0568853 -5.33724e-21)
(1.16255 0.114873 4.66798e-21)
(0.746434 0.261318 0)
(0.518914 0.107928 9.75022e-20)
(0.881409 0.695265 -1.23282e-21)
(1.06511 0.279879 -2.44532e-20)
(1.03969 -0.00520465 1.20653e-20)
(0.410157 0.466374 0)
(1.33183 -0.474564 0)
(0.611281 0.203013 3.46323e-21)
(1.25095 0.49622 0)
(-0.0148057 0.0226649 -3.77696e-20)
(1.31354 -0.414065 -2.02988e-20)
(1.15206 0.496096 0)
(0.452978 0.189922 1.73364e-19)
(1.11298 0.311195 -1.0622e-19)
(0.836157 -0.665549 -2.27625e-20)
(1.14581 0.00824276 2.75541e-21)
(0.908349 0.147224 7.1643e-20)
(1.08006 0.162738 6.11686e-20)
(1.05794 0.690678 3.23506e-21)
(0.923796 -0.456842 6.07596e-20)
(1.39722 0.195181 2.47436e-20)
(1.13004 0.00692431 -1.95061e-21)
(0.0116114 -0.0912025 1.12564e-19)
(1.1152 -0.721686 3.97676e-20)
(0.896007 -0.744131 4.4402e-20)
(0.259473 -0.368699 0)
(0.975641 -0.155099 7.05343e-20)
(0.358716 0.279662 -4.50024e-19)
(-0.00471841 0.00850677 3.80077e-20)
(0.227739 -0.00459081 1.86034e-20)
(0.737667 -0.0575132 -8.91427e-20)
(1.06638 0.513984 0)
(0.983373 0.211322 8.65498e-20)
(1.0835 0.0291265 4.91155e-21)
(0.899052 0.424358 -9.5957e-20)
(0.810513 -0.751468 -6.44128e-21)
(0.929146 0.00933471 -4.93959e-20)
(0.967454 0.472655 0)
(1.09352 -0.149256 1.06129e-20)
(1.41763 -0.516763 1.65205e-20)
(1.2482 -0.340579 1.18226e-20)
(-0.260633 0.267499 2.97504e-20)
(0.196601 -0.0302956 -1.83329e-20)
(0.983685 -0.126414 -5.83265e-20)
(0.344904 0.502966 0)
(0.915892 0.000186403 3.9357e-20)
(1.14418 0.626576 6.55356e-20)
(0.0244166 -0.121388 1.97143e-19)
(-0.0588188 -0.0969219 -2.27547e-20)
(-0.0882855 -0.216733 4.81149e-20)
(1.09768 0.0242597 -6.81941e-21)
(1.17699 -0.473621 0)
(1.09651 -0.755846 -3.16701e-20)
(0.693222 0.328054 0)
(0.148851 -0.11278 -1.48295e-19)
(1.16027 0.0378724 3.91225e-21)
(-0.0429184 -0.214518 -3.66424e-20)
(1.04682 0.0551992 -1.15399e-20)
(0.11406 0.00897599 4.91693e-20)
(0.840104 0.119076 0)
(1.31659 0.0818838 4.09425e-20)
(0.0191797 -0.0244839 -2.1125e-20)
(-0.252043 0.175771 -3.53384e-20)
(-0.253226 0.214795 0)
(0.0980693 -0.0227682 0)
(1.27461 0.0508636 -1.37781e-20)
(0.422586 -0.00921694 1.84793e-19)
(1.30614 -0.743821 -3.7171e-20)
(0.880294 0.213557 4.12268e-20)
(1.05888 0.240526 -3.53349e-20)
(0.381279 -0.590884 1.35496e-19)
(1.52136 0.277347 -2.71871e-20)
(0.120074 -0.123177 4.41598e-20)
(0.205527 0.276519 2.0085e-19)
(0.140467 -0.0724659 -1.64052e-19)
(0.960477 -0.509822 -4.16219e-20)
(1.43535 0.380893 2.79492e-20)
(0.587709 -0.70543 4.52653e-20)
(1.10738 -0.0709566 -6.6609e-21)
(0.440509 0.0137694 8.13883e-20)
(1.16924 0.284519 -4.25794e-20)
(0.65284 0.618667 -4.40196e-20)
(1.38461 -0.636196 0)
(1.40171 0.511379 2.97333e-20)
(1.07782 -0.543095 -1.36325e-20)
(1.37227 0.596599 -7.97083e-20)
(1.1447 0.0123386 0)
(-0.0412264 -0.00392816 0)
(1.23554 0.716186 0)
(1.13068 -0.0891256 -1.15424e-20)
(0.755811 -0.32346 -2.04344e-19)
(0.479872 -0.108555 0)
(-0.0516682 -0.0344787 -2.31903e-20)
(1.02763 -0.249793 9.35331e-20)
(-0.203971 0.252831 0)
(0.322499 -0.00400475 1.23837e-20)
(1.11986 0.0168049 0)
(1.39602 0.267888 0)
(1.15681 0.00816264 -2.95076e-21)
(0.3683 -0.32299 0)
(1.00806 0.142121 4.19375e-20)
(1.29265 0.280992 0)
(-0.0832618 -0.0795126 1.06069e-21)
(0.824342 -0.4188 0)
(1.49401 0.336825 -4.14652e-20)
(1.22426 0.356345 6.15516e-21)
(0.829427 0.625284 -1.05896e-20)
(1.00234 0.152111 -9.55222e-20)
(0.97236 -0.212117 -4.57722e-20)
(1.43096 0.288793 2.43344e-20)
(0.941329 0.0609347 0)
(0.565739 -0.0947827 0)
)
;

boundaryField
{
    FrontBack
    {
        type            empty;
    }
    Top
    {
        type            noSlip;
    }
    In
    {
        type            fixedValue;
        value           uniform (1 0 0);
    }
    Bottom
    {
        type            noSlip;
    }
    Out
    {
        type            zeroGradient;
    }
    circle
    {
        type            noSlip;
    }
}


// ************************************************************************* //
