/*--------------------------------*- C++ -*----------------------------------*\
| =========                 |                                                 |
| \\      /  F ield         | OpenFOAM: The Open Source CFD Toolbox           |
|  \\    /   O peration     | Version:  2412                                  |
|   \\  /    A nd           | Website:  www.openfoam.com                      |
|    \\/     M anipulation  |                                                 |
\*---------------------------------------------------------------------------*/
FoamFile
{
    version     2.0;
    format      ascii;
    arch        "LSB;label=32;scalar=64";
    class       volVectorField;
    location    "1099";
    object      U;
}
// * * * * * * * * * * * * * * * * * * * * * * * * * * * * * * * * * * * * * //

dimensions      [0 1 -1 0 0 0 0];

internalField   nonuniform List<vector> 
808
(
(0.7562513420611429 -0.01749710952011297 0)
(1.031448519559159 -0.01260953415492847 0)
(1.112778556877404 -0.006033211587665417 -1.770201714442274e-20)
(1.085117969143109 0.01260956152694434 0)
(1.364950796038216 0.01566394594291532 -3.897436937980313e-19)
(1.038721116629296 -0.009335726284618697 -7.20074495403643e-20)
(1.013762562642649 -0.02105081468816687 -2.350934916961055e-20)
(1.078920223339733 -0.005377651585299122 9.010951381750842e-21)
(1.254851010252365 -0.01942624019639606 6.350487790360962e-20)
(1.084805146292201 0.01047799744914961 0)
(1.011727051634255 -0.007619466138912878 0)
(1.306775683674717 -0.05256062032251865 -3.548209812229606e-19)
(1.086099474986137 -0.00192073031783983 2.036450550785637e-20)
(0.6751486095500223 0.00638450766689251 0)
(1.282109809074539 -0.1132012151467347 0)
(1.081408129520033 -8.709581742099022e-05 -3.832885362075727e-20)
(1.228896114343111 -0.1434130891580415 -9.652243722656659e-20)
(1.073910476309307 -9.857977700280569e-06 3.179236246120347e-20)
(0.9921360715379398 0.004073581468015924 0)
(1.02627286055878 0.00956958886717915 0)
(1.035848383310281 -0.009739782765423246 0)
(0.9874752893793302 0.04439578897108714 0)
(1.05113983225109 -0.005917001831650997 5.567504009924365e-20)
(1.053456897497035 0.009299863277673109 0)
(0.9325370775095653 0.1968515943895684 4.607034973734252e-19)
(1.166682245844749 -0.08464398988090475 0)
(1.186157739620805 -0.0181832058748782 1.583682437781536e-19)
(1.077433807421742 0.009459673750328452 5.197624559508894e-20)
(1.083794959257072 0.002330645684937507 5.062930047342267e-21)
(1.071853565962825 0.03088558451129546 0)
(1.075429237847447 0.002761769089769814 -1.174185557925699e-20)
(1.032960641172198 0.006816807755556273 -1.954416067812784e-19)
(1.059919325920637 0.01478889626275461 -2.380076372294612e-20)
(1.089089794159801 0.005486438370208411 -2.930810450319443e-20)
(1.120244346429143 0.03949914449401438 0)
(0.7551692317318289 -0.1242648402478053 -4.53618305451488e-19)
(0.9547177718285865 -0.005878001126805623 0)
(1.068861093881633 0.02230715460441281 0)
(1.068816873198483 0.007337220154800364 0)
(1.073665816327534 0.00898343163172197 -2.836126461268046e-20)
(1.092239025893236 0.02473164754397812 1.113833786363605e-19)
(1.150871201738668 0.004081592293378617 2.181704407123571e-19)
(1.096019849813245 -0.002307688098771075 0)
(1.015670275536736 -0.008996623253918893 0)
(1.134338994371287 -0.09488554555316693 -1.631819901805784e-19)
(1.044101387379387 -0.01158240058734382 -7.999126408255965e-20)
(1.058186269922435 0.02662102068779817 -2.796607423314455e-20)
(1.231866269007718 -0.1119096278208082 -5.61490227170646e-20)
(1.067642257873211 0.01213323274901029 -4.238952362553679e-20)
(1.258220229995783 0.01840968877382956 0)
(0.9962575044118842 -0.01890585092230688 2.121203463902897e-21)
(1.044647118195634 -0.001808732849224881 0)
(1.087642356008162 -0.002100352114389167 0)
(0.9993384995482936 0.00673478733454717 -1.832535633325353e-20)
(1.250339301527783 0.03476199999644396 -2.329070712255711e-19)
(1.063627543381681 0.01814320201306984 6.115031902554729e-20)
(0.9921170701283833 0.009318766904335214 0)
(1.020448502782207 -0.007729573238657187 2.368229983681459e-20)
(1.107401881822835 1.536770581376818e-06 -1.19701445157299e-19)
(1.061183409814908 0.03099872063487106 0)
(-0.08477991566691738 0.01037793386603742 7.252062172132408e-20)
(1.155287848398006 -0.05147984983402969 -1.912618481884485e-19)
(1.00713021683096 -0.006947306922188742 -2.601550501892498e-20)
(1.185259482437053 0.07050845029755151 -1.235768435699938e-19)
(0.9981315290515727 -0.009333615609449189 3.015711977738593e-20)
(1.084297703039074 -0.005506132262153187 0)
(1.247304578367952 0.09954878631652256 0)
(0.6960675254419497 0.003198245723152676 -7.475884236834949e-20)
(0.9893624365095005 -0.01330385677890286 -3.142193473858576e-20)
(1.461743384756109 -0.01757387827881211 4.488313108434688e-19)
(1.060480936268627 0.007597953714079285 -6.765257377289897e-20)
(1.369283877273516 0.09789523696490339 2.910363773709003e-19)
(1.054747514461329 0.006892245040633564 -1.902297144659753e-22)
(1.081205398023876 -0.01384618136932976 -4.298417143297112e-22)
(1.165593287794579 -0.2365137554792932 0)
(1.021703101443606 -0.01463629383813359 0)
(1.01699624011235 0.01771102554409039 -3.12377983840386e-20)
(1.384723025573711 0.3486482422867405 4.155340124584975e-19)
(1.097139679940018 -0.04237270628677681 9.371191955120324e-20)
(1.04516878400041 0.2090730722249085 2.53228022947445e-19)
(1.125782177744376 -0.06044183132600527 1.152749802945519e-19)
(0.9219761139124997 0.005126357375334348 0)
(0.975389318827853 0.01851504416815726 0)
(1.004132915588318 -0.04898883178385637 2.710303420074401e-21)
(1.010067322328639 -0.0130423628409427 7.540793565813359e-21)
(1.029746990265979 0.02642855107635776 1.39764661143801e-20)
(1.531168402226201 0.03662249776387863 3.271274290267311e-19)
(1.288476690886806 0.07184027229623764 5.498542762801151e-19)
(1.07229381632128 0.003074036100668945 -9.211353967265335e-20)
(1.199103551987051 -0.09177271982773511 0)
(1.033671795156782 0.001907969526026836 1.343562615113667e-19)
(1.164881014825699 0.02294759320032264 -3.225955624547195e-19)
(1.0014284302589 0.03230516426510618 0)
(0.9996260651948811 0.002037677957888415 0)
(1.044510309776812 4.79651765412409e-05 7.748310606780182e-20)
(1.21161284102347 0.1122156565022357 4.153704517748192e-19)
(1.011068159827337 0.006993385983486965 0)
(1.092636758114052 -0.06946457368372723 -1.050319452295527e-19)
(1.15032822472029 0.03843338007352274 0)
(1.213085877466275 0.09742921122319211 -1.956358234976454e-19)
(1.108105024652261 -0.02870318185131174 -7.670765209024126e-20)
(1.027211262216916 0.0117307751649663 0)
(1.085023914550627 -0.004628633888461299 0)
(1.0188562610266 0.02592835177597895 8.12729299744132e-20)
(1.071338294348719 0.05506569600249724 -9.547316679447605e-21)
(1.103843665633937 -0.004140680208409221 6.250909063603818e-20)
(1.111986996563316 -0.09462581021828036 1.506984739691491e-19)
(0.9627759554816311 0.00439650558251962 0)
(1.06607518209309 0.031115485769492 3.84450701164792e-20)
(1.169350350581531 -0.07617382208001548 2.337491833834568e-19)
(1.051119140388575 0.04587618822250221 -2.91638190132597e-20)
(1.022523574679558 0.06720825284162479 3.740309180270152e-20)
(1.090318088662775 0.02602821254986616 0)
(1.01639709495036 0.01767735399716682 0)
(1.029006567598038 0.009411162829793382 7.894777500366453e-20)
(0.9486797590214525 -0.03371385915784468 0)
(1.05276145968993 -0.005628633476108336 -7.867647464540217e-21)
(1.343306492429091 0.0597169802086722 -1.585727124964407e-19)
(1.079986315436686 -0.01314891230824337 2.610419970981088e-20)
(0.7439382908546289 -0.001734228009793123 0)
(0.5756350370156075 0.1835942906420511 -9.428409080619872e-20)
(0.7061804819976282 -0.002528311466426707 0)
(0.698821294606142 0.01462858106021082 0)
(1.077623618498099 0.003663685831953622 -6.776993526466115e-22)
(0.9906440001636287 0.01452801378022649 0)
(1.277835313362135 0.1229347205104144 2.484455389727263e-19)
(1.012347881514355 -0.02779804698367375 -7.871858158502739e-21)
(1.04564588235503 0.02096954342766135 1.805105273152472e-21)
(1.058670320982439 -0.01163987120297399 0)
(1.126658449407657 -0.009120593850060523 -4.982439353928794e-20)
(1.266846308921338 0.1410966435327929 -2.287756931113881e-19)
(1.089358620317546 -0.01119616276294248 -8.555890903534382e-20)
(1.069836836289705 0.02676060029004308 -1.104224023095128e-19)
(1.04071810068602 0.04673544736185909 6.930433790962376e-20)
(1.022566181234017 -0.003772997565419341 -3.456522155886195e-20)
(1.060910145413347 0.02351454575321902 6.060058544631498e-21)
(1.131061169855205 -0.001692766014455572 1.061152948281726e-20)
(1.039516782896986 -0.0157619286646837 -4.812222121706082e-22)
(1.087481377698752 0.03473728125827435 0)
(1.028008743617044 0.01358145627610857 0)
(0.7648821276816031 -0.06217566194859174 -1.811595045840973e-19)
(1.030166130496073 -0.001607226313578768 -6.902053346157607e-20)
(1.129795614501839 -0.00640718945404499 -1.275800427182002e-20)
(0.7034249646059967 0.006579027326291538 7.377526754687914e-20)
(1.174702933503094 0.0205630051199387 -1.918684146844827e-19)
(1.133536442356957 0.00662486553848595 5.139104380467168e-21)
(1.12896242181936 -0.01000715846876674 3.471865542368452e-20)
(1.00093847064816 -0.002932203730612737 -7.559925138748566e-20)
(1.102106277424433 -0.06703279898625696 0)
(0.9866593979130874 0.003444105119825801 0)
(1.057872213108833 0.007070674634128458 0)
(1.005227582293134 0.1876774088969879 -2.46777465799285e-19)
(0.7791963407547094 0.01241354772141803 0)
(0.8568721444692851 0.1001945394647848 -8.437679882737067e-20)
(0.07393007562759135 0.03775558705044595 -3.004816978343962e-19)
(1.172415557126778 -0.02944074796041374 -2.233613227575177e-20)
(0.6713309202228266 -0.007296494436706776 2.439241178914809e-20)
(1.17055704744927 -0.1007995994803597 6.890559228141583e-20)
(1.122564523486549 -0.005638430727172101 -5.799086448331765e-21)
(1.155228553424872 -0.04764446245948923 2.170522077218773e-20)
(0.106431577648108 -0.2234832838044692 0)
(0.2431717201535259 0.08391925957802143 0)
(1.258557733942662 0.1130565010742603 1.933303678578815e-19)
(1.02116401329126 0.01978361057317996 0)
(0.7378495870625997 -0.006272115728559739 0)
(1.075403390954832 -0.01169984682223791 2.713145134939565e-20)
(0.974798433536661 0.002798804015200352 0)
(1.295317094026766 0.1310343649816731 -1.583437023513799e-19)
(1.057454701244497 0.01114667793359324 0)
(0.9938442558106245 -0.007162698780442519 0)
(1.064994157965427 0.008306624165933656 0)
(1.006166309868027 0.02081925849384467 1.827050131194165e-20)
(0.9369361821113654 0.01657007655243829 1.10057953633664e-20)
(1.177715098029413 -0.2000419826820342 0)
(1.005215245072282 -0.00518228082538086 7.849777796089992e-20)
(1.059121956373122 0.006422934840764812 0)
(0.7746813823676667 -0.003279372327565796 0)
(1.217741194674297 0.02936998708016219 1.668637172887975e-20)
(0.7049443980631066 0.001343601788695987 0)
(1.436816274764521 0.08848660607896526 -5.295185574222123e-20)
(0.9950505851423442 -0.006505537053242381 1.705325100790171e-20)
(1.273219727418268 -0.0009278217691955758 -2.935763079356634e-19)
(1.059507209326082 0.00893519941093825 1.386073435816715e-19)
(1.00091079795815 -0.01357943045462033 0)
(1.214825902586548 -0.142030484762178 2.042318703983361e-19)
(0.7331945006037222 0.01378867464379841 0)
(1.098521372000498 -0.005052531520378687 0)
(1.152646902821523 0.06966451192626091 2.007472779733795e-20)
(1.007031949992303 -0.006638060993657956 -3.027524659159444e-20)
(1.120434936856197 0.05318091918675215 -1.762579511271453e-19)
(0.09492064985367593 -0.08626283517584199 0)
(1.071877550116745 0.03886245950797892 0)
(0.6617653928654557 -0.002919930066930531 -6.434372821585727e-22)
(1.012163418486125 -0.01937913549360065 9.657928136040825e-20)
(1.061330756466209 0.0007630298861643345 0)
(1.075258911569469 -0.1261261498864104 3.716332231252014e-19)
(1.002834305321654 -0.006199022467907828 -3.437142678778074e-21)
(1.002944646920018 -0.005227145917468133 6.954037917166658e-22)
(1.09391979986683 -0.009323234648884109 0)
(1.020660607081866 0.02058998704576646 -6.327063191388084e-20)
(1.106534795723874 -0.001576107180362233 6.648783354955547e-22)
(1.07448512972512 -0.01133146554496107 6.60885343130771e-20)
(1.085791933723687 0.02229239631205793 0)
(1.331580963667176 0.1631618728243001 0)
(1.002003782315614 0.0001626415007420358 4.414101176811611e-20)
(1.319875056847577 -0.1252184617005046 1.553736394292218e-19)
(0.04381705723076956 -0.1915044368433576 -2.49329958541965e-19)
(1.071265200285692 -0.005456887198499987 0)
(1.115368970810786 -0.003130243518825545 1.193060558620782e-20)
(0.726802683227769 0.01782435874024568 0)
(1.061802513619402 0.007640844366290748 0)
(0.8694921334214321 0.1655886910885175 4.727458922004321e-19)
(1.273724393622879 0.134434092812501 1.927730041715472e-19)
(0.6543567476481275 -0.003097297180280183 -6.362522388506691e-20)
(1.040774318365909 0.0002985665264271006 -7.184710804943443e-21)
(1.054738114524653 -0.0002651554933403261 6.605351243332493e-20)
(1.364421761979651 0.1233442462751195 6.764694080351252e-19)
(1.333822981603473 0.2521459124982537 0)
(1.060338262840081 0.002139167462351864 0)
(1.000314324712929 -0.006354548942190333 1.503370503036777e-20)
(0.9929711962219662 -0.00822257942009174 5.44683849571761e-21)
(1.381646415750586 0.1999863963644825 4.250080004262684e-19)
(0.6817720097204769 0.0004909219595620717 9.884093297598947e-20)
(1.005589208447145 -0.002149063404856037 -5.98749319205992e-20)
(1.098214959185609 0.01305218447092044 2.550914051641075e-20)
(0.6694681543873349 0.004984768312675406 0)
(1.066091062002607 -0.01201161331803748 0)
(1.013541138837308 0.1532910238725561 -1.302485820818981e-19)
(1.091715251876312 -0.008706973489085161 -2.482784137241421e-20)
(0.9821049920143401 4.89598796834274e-05 3.286158250936041e-20)
(0.9912109580758998 0.006035992331994173 0)
(0.6382547375326723 -0.001077221625000021 0)
(0.9767650979864594 -0.00117127509726523 0)
(0.6421451765446672 -0.001474312370518562 2.663912486388359e-21)
(1.090346360471213 -0.05581268286133889 1.195674751571774e-19)
(1.113131214702145 -0.002088865627723966 1.192704350182728e-21)
(0.957906648938082 -0.0008901686251636186 3.901238186529223e-20)
(1.016360862350876 0.01001798422879316 1.71106147722279e-20)
(1.067075546494206 0.001053152862347588 -2.527892331999764e-21)
(0.6346984594304008 0.008874608866505712 -3.635344076825537e-20)
(1.004442589131957 0.00821153081768964 -8.659514679013531e-22)
(1.036259315425176 0.007108838832060279 5.361607294644305e-21)
(0.986655002996662 -0.01186454494812399 0)
(0.6099616229578253 -0.0004805664902096777 0)
(1.068713510209631 0.02257137604674283 0)
(1.017008839546563 -0.01624707189876594 1.041211535360866e-20)
(1.023752489012914 -0.0100242556475817 0)
(0.9915794632304121 0.01375188053212589 -9.787724281819492e-21)
(1.010138076184191 0.0008421219913042129 0)
(1.129555082030768 0.000681063243017578 -1.149729131542623e-20)
(0.03859006712522139 -0.143951259078493 -3.947959242670758e-20)
(1.03573901950696 -0.01818780491885122 -6.231351465402294e-22)
(1.041140023390939 0.004262463595546996 0)
(1.080929024103883 0.06754724646696983 8.466346471514068e-20)
(0.967882271400087 -0.002419539405979493 3.110212130173689e-20)
(1.020401661916992 0.01672820000591827 -2.351127774228707e-20)
(1.001690136887776 -0.001509484775281739 2.475258073926104e-20)
(1.039755124721289 -0.00714506547330451 0)
(0.6408765977620898 -0.00403064931385966 0)
(1.025801404539858 0.02454403801342718 -7.374890352350785e-20)
(1.085503917901508 -0.005878296586137463 4.880743163846598e-20)
(1.016664466818695 0.005587121251349176 0)
(0.9789857730572062 -0.002212842611208245 -1.955271303608064e-21)
(0.8659383571422854 0.01404524378331853 -9.392828491811069e-21)
(1.014032609992245 0.002591717474678253 -9.940290211562362e-21)
(1.024027204620344 0.005995992848582052 1.862434498183529e-20)
(0.9842837881671821 0.005077216396231044 0)
(1.003462363356157 0.01181318112143482 3.461969890537824e-20)
(1.1097712044961 0.0001726016419638405 0)
(0.9264341484600676 0.004133166754061495 -3.120775625961929e-20)
(0.9575285138814104 0.001577924629062763 0)
(0.9129083289134786 0.2086004780832837 5.118954523917059e-20)
(1.010776780699177 0.06680143627464333 0)
(0.9926654217294528 0.004662572098473606 -2.267093413718137e-20)
(1.058580442684122 -0.05326641163278058 -2.879223764451295e-20)
(0.9921968282770897 0.0007861292904537485 3.337488470791329e-20)
(1.010617540578128 0.006527990160675122 0)
(0.9781797598698266 0.0005099787158339998 -3.102379219422696e-20)
(1.170856295016413 0.1047536783866713 -3.430692369970757e-19)
(1.07007078440351 -0.2654777334055291 0)
(0.9930150781251992 0.0008165060232385789 -2.245409949374737e-20)
(0.9759006671333479 0.001713898472359238 4.992878935667569e-21)
(0.9639068758210967 0.004766104362564172 9.943355885817466e-22)
(0.7459143127812581 -0.001047676870985959 0)
(1.124043686439089 -0.07941129372546449 0)
(1.003373383102075 0.003620306612526953 -2.246979345629592e-20)
(0.9068459875481502 0.01202335637726749 -9.744139695574358e-21)
(0.8509531659676931 0.008347846932634358 2.675614915564957e-21)
(1.014379722353337 -0.005997045617947022 0)
(0.9540526534916621 0.01014066063494623 1.410606680242953e-20)
(1.005570238479103 -0.0002525773329230641 -2.297234750930918e-20)
(1.022054666591764 -0.002929404539178064 -2.558689860491704e-20)
(1.114716789787033 -0.001078695769910113 -4.94111053630064e-21)
(1.119705686493135 0.0001166566072058656 0)
(1.013700188871985 -0.01064071675691634 0)
(1.019545588200051 0.001300878337246857 0)
(0.9418383098338813 -0.0008410422611100744 -2.033923537876075e-20)
(1.017853086672532 0.01364255918613089 5.384059549476475e-20)
(1.084016010405087 -0.004199160292697553 -2.255660787202118e-20)
(1.040560567087977 -0.008238165545226966 0)
(1.107028655112748 -0.003998900648911678 1.853402392798785e-21)
(0.9946948131373629 0.002468455502235004 -2.224869969759194e-20)
(0.9858567021147465 0.004169503353386201 0)
(1.011084018919406 0.003303865714279295 4.654766263081386e-20)
(1.367597502516281 -0.3147252823546849 -1.131834619305041e-18)
(1.122393160255758 -0.04307540596742618 -1.08556055559745e-19)
(0.9647793629207393 0.0034941337542739 4.532322430939749e-20)
(0.7681926185327731 0.002761964741637037 -3.092014100608296e-20)
(1.22291046300477 0.05371294517350548 0)
(1.225021570837022 -0.1284432009702665 -1.464664317818543e-19)
(1.079754930826065 0.0004152192093969724 0)
(1.008105369710628 0.001124218536228828 2.269821568909175e-20)
(-0.1799001982123744 -0.1404402046877611 0)
(0.9939661457902129 -0.004649004734019481 0)
(1.012431382520171 -0.02313913392271604 4.500544685273874e-20)
(0.7063575117732349 -0.01945965406990838 0)
(1.096787550480931 -0.01477914269721433 2.122667279470083e-21)
(1.042948728735354 -0.00980628014374468 1.813873871557968e-20)
(0.6331933620325164 0.004121310290316095 0)
(1.44986044610942 -0.1229491747466565 0)
(0.9864202719921882 0.001315005600668811 -1.08110505408665e-20)
(1.069818192691091 -0.01505560887200151 0)
(1.037846171584946 0.0003844205570047316 2.125427417895904e-20)
(1.081059669587239 0.006290954451752821 0)
(1.011102640511387 0.00300618722761322 -1.063287847104618e-21)
(1.005781124044945 0.00304863780957658 0)
(1.010409544399717 -0.006394357910213443 -3.178662218450556e-22)
(1.004127400241079 -0.02087826611610451 0)
(1.035633599480446 -0.0005638547531311578 1.691513610301162e-20)
(-0.1769434593663029 0.02749482571017629 2.665183396483147e-19)
(0.7996467570250584 0.02068098929242445 5.222571282065319e-20)
(1.005602999923562 0.001795680936295871 0)
(1.13005930432685 0.01444091774167004 -1.114921771132599e-20)
(1.120807965009983 0.01233267512979719 8.285981051743782e-21)
(1.054572656251971 -0.01290598209820955 -1.286993928722269e-19)
(0.9987824715843937 0.01035734849392688 9.894398759908649e-22)
(1.077958030436822 0.003213762147240279 0)
(1.187301555409093 0.05416324777432696 0)
(0.8354153763955109 -0.07682953074758625 4.590687774848764e-19)
(1.094305465432019 0.0001288759308983791 0)
(1.033460462134111 0.007352452344088582 -7.454598755458017e-21)
(1.042442113577317 0.005174763222399733 6.027092349101052e-21)
(1.055906937422563 -0.06049569417763411 -7.546048385631316e-21)
(1.139456609697978 -0.0006383954965785525 1.67549626141867e-19)
(1.086959143445747 -0.006623962606619383 0)
(0.9943641093082947 0.001421084426780603 0)
(0.9962793907202078 -0.02631147828162885 -2.336121341084173e-21)
(0.9901056387160264 0.003123881937408905 0)
(1.031377053128436 -0.03830347255648391 6.385480801403271e-20)
(1.291201222327724 -0.09264791100417705 0)
(1.042837388526714 -0.003184365372850479 -3.666960974107577e-21)
(0.9861666495664109 0.0170307563754862 -8.585427888567918e-20)
(1.032877595283715 0.04148257920703122 -2.406244456261118e-21)
(-0.08034584677836186 0.1500732915614916 -1.674995710703709e-19)
(-0.0694990551694662 -0.3036128897937719 -1.343087068623237e-19)
(0.896711667138742 0.1410819269459852 0)
(0.2911065405710978 -0.03339896933248863 -3.317227266453743e-19)
(1.005546035398786 2.018885969743892e-06 -1.401435889602829e-20)
(1.063818659328562 0.002698422582623184 -2.108609855495822e-20)
(0.9913191268495323 -0.01934023210511246 2.993390732856396e-20)
(1.022229568363563 -0.03156527354070302 2.580573335140127e-21)
(1.009913940262224 -0.03217977870310208 -6.558465940994237e-20)
(0.9888586046038028 0.004805837570339304 -3.469855215705317e-20)
(0.9929111816315254 0.005114756815514573 0)
(1.025232907112761 -0.002335164119501516 -3.507849929711922e-21)
(1.938635823721077 -0.1558635523130126 1.077367043422594e-18)
(1.04318974725871 0.0001170192143377789 0)
(0.9955132275022338 0.00860132767934626 1.550834030301817e-20)
(1.003303181855533 -0.0002823783773755068 4.04565397617022e-20)
(1.159765435590966 0.1461060046232552 0)
(0.9978754752679675 -0.002319142016848232 7.841113962185973e-21)
(0.9494311778911342 7.549760651492034e-05 0)
(1.03783550119968 0.04176972792679079 0)
(1.311237428009488 0.1627682784269866 2.366810401853187e-19)
(1.084064241373454 -0.002207342186316285 2.29490391574232e-20)
(1.017503938276656 0.02976474590431134 4.643314692537089e-20)
(1.086985940709558 -0.003938257732237841 -2.213592227463153e-20)
(1.047589544471755 -0.008572512890421161 -8.435759065386998e-21)
(-0.3849014663229936 -0.05258849399055159 0)
(0.9994375590616895 0.01405787007591358 0)
(0.1092638039147378 0.05507433707970365 -8.93690807937222e-20)
(1.007157695933436 0.02107505573708181 -4.158134179068908e-20)
(0.9982223238464573 -0.01706297215947364 0)
(1.001446528793609 0.005582784126433566 -4.984046189764133e-21)
(1.081845297805943 -0.04247141050322694 0)
(0.9944086751018806 -0.016789796930797 -7.842687781441661e-21)
(1.099627406426042 -0.0602057494062642 0)
(1.445777478017159 0.1766734498363002 0)
(1.054711877125609 -0.01221334924538364 0)
(0.9902822598466734 -0.02419941605786021 -4.019859641097746e-20)
(0.9999968878119639 -0.04613107304230774 -3.079326661271871e-21)
(1.01408170753501 -0.01921948967659909 -1.818084247468504e-20)
(0.9969182319626754 0.01654519684326763 -5.643045814710179e-20)
(0.9956873498330553 0.01056245418444525 -1.511396063321618e-20)
(0.9944417216735235 -0.0286546822924483 0)
(1.00284312825735 0.02386138621143427 1.954953876700104e-20)
(1.057467363836816 -0.04049945987506429 0)
(1.111455792611792 -0.03562240370968786 2.625967922524483e-19)
(0.9957574900237206 0.01687341728141795 4.648493927916419e-20)
(0.6150609754072232 -0.008682589410395188 0)
(1.138500605198331 0.1532994308917252 -3.359339513642494e-21)
(0.8546291605581878 -0.09109388356331248 0)
(1.13767646142759 0.07318212351579721 -2.698453049227878e-19)
(1.317544277972932 -0.3895934046129335 1.301414341666792e-19)
(1.069317220031379 0.06225748178966377 -1.263743496052064e-20)
(1.01088676661114 -0.03226644485027345 0)
(0.9563298410841443 -0.2167238684928007 0)
(0.5161303855309239 0.1555575714388118 0)
(1.016168755431292 0.009290709044954404 1.299743378488593e-21)
(0.6883217824949953 -0.02973517803473952 0)
(0.9996076894773465 0.01730338754839261 3.579984587432518e-20)
(1.026270161322885 -0.005086259686649303 -2.786177874986993e-20)
(1.078983619503418 -0.00809784975651358 2.777588659188846e-21)
(1.046780829072923 -0.02303489141532939 3.115889684148136e-20)
(1.042414192816419 0.01178138086584185 0)
(1.06487858026096 0.02377545120790999 -9.163012044626179e-21)
(1.049401709029368 0.03577406414151399 -1.825473198505538e-20)
(0.9831891422570183 -0.02281737928582272 0)
(0.6249185134875683 0.005099296030080535 9.172966822590669e-20)
(0.894150566225294 -0.005900545589850094 -8.84838644549763e-20)
(0.9093818249784885 0.005295878314211 1.448872218128597e-20)
(0.6295808303971749 -0.006420892724665924 1.405569852693902e-20)
(0.9800422095020903 0.001311251250174085 2.528793179090165e-20)
(1.004440018625228 -0.01744814775854463 -3.5794887328375e-20)
(0.9808733705397575 -0.03715750396165365 -3.354147749391323e-20)
(1.085558074544109 0.00165208412161542 0)
(1.020232813285554 0.004844512098249411 1.01005666018384e-20)
(1.13213931190685 0.04900321806034261 1.305583873177676e-19)
(1.031630108123818 0.0404347204497745 0)
(1.022581140461713 0.00253702286068157 0)
(1.586534036134363 -0.1674696565585532 4.417967469898619e-19)
(1.056958232616102 -0.0478380209741568 0)
(1.016739202906778 0.008973030883650439 -3.820217585796025e-20)
(1.083818485318216 0.005017592038428569 0)
(0.4850992487338153 -0.01888231902198226 0)
(0.009203556209904141 0.0255995584477437 0)
(0.9911817598430998 -0.02433796269216805 1.220321166985397e-20)
(1.302664229907264 -0.09560302169764599 3.758131741962633e-19)
(1.033785965914867 0.03482594464911146 0)
(1.022232981700539 0.003479218189367739 -2.244899904463563e-20)
(0.9543408885205046 -0.1602567422655566 -3.606300624451356e-22)
(1.256218105359982 0.0787772517191962 0)
(0.59653226819048 0.7279445070289235 0)
(1.314222511012245 0.1482917031363977 1.094951308719457e-19)
(1.679987670669957 -0.02513033958491269 0)
(1.049143386774 0.1134619343075935 0)
(0.708669655822972 -0.02273707650215718 3.622197449615352e-21)
(1.049125408834706 0.04336469625206385 0)
(0.7550459408115298 0.1265083675696789 1.265670080781085e-19)
(0.9967651561471289 -0.01653461736899038 3.56898258704959e-19)
(1.037282603906056 -0.04247764474437035 2.78494216458077e-20)
(-0.3829636472037623 -0.01642892868707128 0)
(1.072231811644478 -0.01646137949457627 0)
(1.086853276176922 -0.00327839169745393 0)
(0.649547008932687 -0.5059425398008377 -2.458217498383805e-19)
(0.9896477299961877 -0.001470933618901459 0)
(1.092452507433418 -0.02125529028467645 4.551115349811058e-22)
(1.186796156748188 0.1212293159790755 -1.992998977290904e-19)
(1.093971825615346 -0.0495515268217928 0)
(1.006190210435858 -0.02124218674894333 0)
(0.7821944130936821 -0.1780963760089655 -1.6294974491633e-19)
(0.8799444033187088 -0.1281285385298696 1.515954300302313e-19)
(1.030530057977393 0.01482629043283569 -2.227824414966234e-20)
(1.023111668903779 -0.008928078901379749 -4.593557693661155e-20)
(0.8810974559466798 0.01414250486203934 2.541199943213348e-22)
(1.507569734455695 -0.1939709838711043 0)
(1.307843327237169 0.1190789885972516 3.024377181379878e-20)
(1.243201773312846 -0.07310295237478501 -3.2381617117811e-21)
(1.095682738794646 -0.01844668564479052 -3.890774713723756e-20)
(1.035503922289638 -0.01255357803067125 2.57577352162734e-20)
(1.092840389751772 -0.03905077763537695 9.13436103283217e-20)
(1.031648644757182 0.02043218961140379 0)
(1.047175322166683 -0.03798420406401191 0)
(1.115959144824046 -0.008935798536118696 0)
(1.092803245193923 -0.0398357223008553 0)
(0.9981583648446249 0.01120158768867933 0)
(1.148568105643247 0.08162810688821684 9.589342695514178e-20)
(1.337251396899787 -0.1505481362087674 0)
(1.035196653572575 -0.02595505817408213 -2.192750547442199e-22)
(1.048848775737594 0.05060617419374647 0)
(1.010288107011003 0.01450719489275079 -3.957434726409707e-20)
(1.033911252904212 -0.007347440017833379 9.104613301554718e-21)
(1.088920091713208 0.01348321469057422 -3.265968285110878e-20)
(1.085415098599473 -0.02797652463523402 0)
(1.070752774943424 0.006418818593227027 0)
(1.107881235040726 0.09433466617048315 -1.421872716667308e-18)
(0.9356874363625542 -0.1507379490715957 -7.060098313583174e-20)
(1.168373152800743 0.1151703739860657 1.138456381363141e-19)
(-0.4782407074541251 -0.005718153508873614 -2.900943395022312e-19)
(1.017958991228642 0.02874931063335961 -8.869282102898379e-20)
(1.004691612149792 0.00481602701560194 0)
(-0.2711123907997224 0.007077861024255881 3.552396304008815e-19)
(-0.04026103501462728 0.2857692403763725 7.807655308763499e-21)
(0.9952170795570792 -0.006249833647583807 9.806258625976947e-20)
(0.1871907177449711 -0.04335893640036761 1.358095133248873e-19)
(1.085547916584373 0.08292823309689201 1.438683227893007e-20)
(0.09404869530892346 -0.112061345342 -5.541521592562723e-20)
(1.108345579017765 0.002967672331952177 0)
(1.103279733121019 0.2563332809426505 0)
(1.021333907657427 0.02144364670678322 -1.735257506569408e-20)
(1.067388127919967 0.05039577481588962 0)
(1.026967569849438 0.02433074637153445 -9.063867045292647e-21)
(1.264943805055462 -0.549745390014434 8.066710821270732e-19)
(-0.1196193300464395 -0.2257427527210268 2.177769976334335e-19)
(1.300506680946545 0.1170587478849486 -6.326376199054339e-19)
(1.121409463498216 -0.003425055098319781 0)
(1.120757625924083 0.09993788814349133 0)
(0.527322335604906 0.08072544122174009 2.504495297815426e-19)
(1.023844987414345 -0.02036245628405492 9.331437486304761e-20)
(1.006616048385775 -0.02358886728496716 0)
(1.209985059979956 0.2702237815563692 -9.51621133084759e-20)
(1.264707990014476 0.1347481577050631 -1.584220716802987e-19)
(1.026630960054387 0.003355183823814542 1.536428592866391e-20)
(1.301812743908983 -0.08486813507015672 -5.017039749116753e-19)
(0.2956182732322803 -0.01627436036757088 2.742444785687798e-19)
(0.8260981863732821 -0.1457682893229066 6.712313150641317e-19)
(1.040122231315177 0.04814615997541223 1.065858067463047e-19)
(1.038620673370964 0.001628224830744937 1.866166115568655e-21)
(1.001331418459895 0.01932386341536168 2.983925701629715e-20)