/*--------------------------------*- C++ -*----------------------------------*\
| =========                 |                                                 |
| \\      /  F ield         | OpenFOAM: The Open Source CFD Toolbox           |
|  \\    /   O peration     | Version:  2412                                  |
|   \\  /    A nd           | Website:  www.openfoam.com                      |
|    \\/     M anipulation  |                                                 |
\*---------------------------------------------------------------------------*/
FoamFile
{
    version     2.0;
    format      ascii;
    arch        "LSB;label=32;scalar=64";
    class       volScalarField;
    location    "95.5";
    object      p;
}
// * * * * * * * * * * * * * * * * * * * * * * * * * * * * * * * * * * * * * //

dimensions      [0 2 -2 0 0 0 0];

internalField   nonuniform List<scalar> 
808
(
-0.0329178946677563
0.04367282222472059
-0.0110499765853918
0.03805584427798096
-0.294767751994105
-0.05584887065405462
-0.01579773733813272
-0.02412214409645023
-0.1937854374546668
-0.08234011756717843
-0.01073988116759635
-0.2504594576648445
-0.03071151949639102
-0.01423824119478661
-0.1229643495065797
-0.01425158894547403
-0.1392429338375746
-0.01377677058533268
-0.01280458637333788
-0.05442612061062059
-0.00811430809175811
0.1164409618150284
-0.06374949958237598
-0.07014789801429142
0.1741130128146985
-0.1007191705009959
-0.149862023466516
-0.0204910013482157
-0.01762832687500943
-0.0255313941274502
-0.02041128954209186
-0.05714218246972875
-0.02272012759446359
-0.0169490628992706
-0.09799126422852436
0.3450604427073624
-0.04014489595793052
-0.01637069400345971
-0.02236783818872541
-0.02647030067032127
-0.08879524141759929
-0.1244489035039191
-0.05307595087893029
-0.02152333263610957
-0.05465387972909037
-0.0428354866263113
-0.0118464027638869
-0.1815146934652873
-0.0263828178109889
-0.2009611376776335
-0.01735056072746853
-0.0656875303004288
-0.06205968618925665
-0.01472549176545309
-0.1964179098114409
-0.02760230131091825
-0.01074498318910636
-0.01480108397619617
-0.09846504239075085
-0.03882087327306741
-0.1119347431887122
-0.1236267100315829
-0.01462221379507746
-0.1271446907345375
-0.01764446195907642
-0.05284998809170188
-0.161347257738254
-0.03535115026587423
-0.0154194367674074
-0.4353368952498841
-0.02600691482828213
-0.2964940671715454
-0.02122336960288837
-0.02122483356387801
-0.06243198713771248
-0.01826723257580886
-0.04152609626550188
-0.3672143321400398
-0.03669138644466311
0.03832268663613295
-0.09257942591723103
-0.01669591377696813
0.0573253749020859
0.04632804702081294
-0.01762092719655192
-0.05114106514537942
-0.5355530577101619
-0.2297279454556528
-0.05093796017618988
-0.1139838560495519
-0.05523003564185727
-0.1304010939970847
0.03792426900464464
-0.02695274202452965
-0.06317922219250584
-0.1191150575448043
-0.03818209778148119
-0.05216558203612081
-0.1141942659965166
-0.1375956682990067
-0.05326548220070885
-0.04626092053443458
-0.05319306815830708
-0.04379056374886826
-0.05669141980629323
-0.07592850748538868
-0.03972575569609116
-0.01064512949357073
-0.03939631375447906
-0.121515391548918
-0.04942558100118585
0.08093596653079296
-0.04157548459210347
-0.007694202172440458
-0.0274988854255305
0.1810737509568939
-0.03774855738859765
-0.264094107968583
-0.02084463445559622
-0.05228857827995171
-0.04329503744108131
-0.04985152267304706
0.01438878192696111
-0.04730423863797308
-0.03711637015944858
-0.2208026141485827
-0.03959641917407315
-0.00423817774344693
-0.07414610601141172
-0.07016925949433517
-0.148859953110868
-0.02128703877124384
-0.07388585530952747
-0.04468037046522155
-0.02311860191892585
-0.01463322878984067
-0.006002769651852417
-0.007569122212654427
-0.05157420491441363
-0.04855076422769304
-0.2166954898339225
-0.05504535805367787
-0.008108856169253064
-0.02167667044069358
-0.1498777952613081
-0.002294528919995757
-0.07485251042744143
-0.02053737088905164
-1.3919248984513e-05
-0.01050479404787123
-0.03264956751478962
0.09276741630353449
-0.03758124789204
0.2513141667935631
-0.2613776526310997
-0.134590101943234
-0.03817806121053873
-0.09091061348705071
-0.009129105039520583
-0.1153535776943923
-0.1660925909960464
-0.2166199843704849
-0.1763944195072987
0.05729967412227438
-0.06425200321588904
-0.02065988120091628
-0.06581903991815923
-0.1693079976955797
-0.02284641344792225
-0.01869166693484259
-0.05063782052095209
-0.02122281530517491
-0.007756305528320557
-0.1053294355983478
-0.02371460696084833
-0.04369912113156162
-0.07149377670513954
-0.1586016339225692
-0.03291184162731151
-0.382370418568173
-0.01793078886388166
-0.2287317778349291
-0.04310535897491184
0.03346211342280411
-0.1064726408873506
-0.01702753529570189
-0.04366559711864767
-0.1038577016992886
-0.01788359176343185
-0.09461112564825701
-0.2041003981736964
-0.07069652022792025
-0.02423852407205596
-0.04658758568357903
-0.041635538667637
-0.2016345422467453
-0.02250684255763409
-0.01939305007433536
-0.01124223998423765
-0.05792598829701617
-0.04931526427032643
-0.02268065531788202
-0.02057083729342201
-0.2317812141708775
0.1266578679830558
-0.2085643946607619
-0.1866413174162757
-0.0117147182674789
-0.01121131627237805
-0.06626196289757022
-0.01044307425660402
-0.4895036106245229
-0.1258104438501731
-0.01974158334084715
-0.0004292284000635943
-0.02355995278871723
-0.2755064616440122
-0.2810001878599359
-0.007534597858997266
-0.01761666174507235
-0.001583002532682343
-0.3521881471580086
-0.02862849952142737
-0.02942010830537303
-0.01268947505006805
-0.01938331548510092
0.04811823135780423
-0.1250717572508194
-0.01434057944956774
-0.02096948561642013
-0.04594893420304041
-0.01842478530661008
-0.01643602453883121
-0.02356190332530688
-0.06827459195016299
-0.0109270395379149
-0.0188895271231042
-0.00899061353791827
-0.001293903887013535
-0.02929435338702118
-0.002157713924465415
-0.001925067024268708
-0.005650395082382023
-0.02548676104407553
-0.008090115362321668
0.001592997852771915
-0.004169582042646695
0.001344189496299513
0.00233329999724466
-0.00895617756139569
-0.1287651442046313
-0.002902231288111848
-0.0002406507604222593
-0.04721509663407022
-0.02141805594481387
-0.02347647424874411
-0.01402733670470208
-0.006239033925071791
-0.021164113817703
-0.04069261965566296
-0.01518757775510868
-0.01268515665276363
-0.01140388183034124
0.007055745576843665
-0.0096001601119702
-0.01308764828426242
-0.01147300012915667
-0.01002062221363253
-0.01025545040747454
-0.01134079207821631
-0.01350259382693145
-0.2894801855456991
0.05843455660541814
-0.015397727498413
-0.01503282391633537
-0.01235455098008059
-0.01217511506045904
-0.008245320544333315
-0.0986726099456826
0.01338977679572071
-0.01431688789949192
-0.01362442499049473
-0.01052467171662253
-0.05047330054528316
-0.008352302171874236
-0.0137559345571804
-0.01017100104194009
-0.002133221319992672
-0.01169766002492093
-0.01132067361462805
-0.02415315151629621
-0.01540430381208044
-0.01241562251149011
-0.01351349390550241
-0.009570711261158214
-0.01275895078540524
-0.01094025348320648
-0.06036969326746136
-0.0135767311162933
-0.01222344252230981
-0.009247300870327329
-0.01544324243603968
-0.01393440226486279
-0.01565323524771907
-1.363117826949436
-0.1010586120210218
-0.0119116701373583
0.02524587864526447
-0.1604579406555626
-0.09307105503154875
-0.01234659616896498
-0.01423265828776674
-0.2340628458570218
-0.02775973080193996
-0.01723684700631672
-0.01254628450386518
-0.02059717097648118
-0.01044047344091525
-0.03082142135958957
-0.4064484232168514
-0.01206564449339421
-0.01408022118838754
-0.004364745386834647
-0.01100742888874813
-0.009886610780825941
-0.01379252370577991
-0.007247701551023527
-0.02751840092175684
-0.01185973828060242
-0.1741488693668241
0.02074147914522136
-0.007270811235642876
0.004157221490248895
0.01192443714797348
-0.04932735124473815
0.02709651834676645
-0.01306682054985212
-0.1320059913638461
0.283028981332098
-0.00823150686954722
-0.01365782711863238
-0.007870804609374378
-0.03313458792663608
-0.1265543451462705
-0.01292869676670911
-0.01187561178031739
-0.01762582449637659
-0.01349358674083902
-0.04181965021368685
-0.2214857461331372
-0.008956335740632537
-0.04421267938269099
-0.03810566854478847
-0.1818851278956838
-0.1499040361818902
-0.1526788937646874
-0.2288542963566792
-0.002565079559723657
-0.02058626872470177
-0.01549845436962619
-0.01405721260682674
-0.03392966930344028
-0.02454096767444956
-0.01389818307916747
-0.01488048879719487
-1.066125234252503
-0.003196786285125867
-0.01326145337546093
-0.01795300015798259
-0.0213260236194396
0.004641951628872454
-0.01451151606545821
-0.02484854565610608
-0.1519691393853329
-0.01359138232840532
-0.02083950656969007
-0.01467713343976501
8.49764284009453e-05
-0.178134761431838
-0.01243326533238558
-0.1583688990805824
-0.01535055140758099
0.004311939223937476
-0.01391477293279537
-0.02444703277559775
-0.01640485383895126
0.007374677032525056
-0.2640613598094434
-0.02692327908394805
-0.01696797513640323
-0.01625209329184397
-0.01118127236632704
-0.0290682898586261
-0.01363109537036485
-0.02125751882281253
-0.02033934029941248
0.009354527637126693
-0.09683651177249886
-0.02098458378726754
0.009674964889824094
-0.05901215063543144
0.1839232801064144
-0.107332505183742
-0.3149229127472492
-0.02947345029394308
-0.02602012652624131
0.1517368262075061
0.09148396804439239
-0.003897045461813029
0.0538700639618961
-0.01502335698546124
-0.01309096458181667
0.002797354012446748
0.007065956768772174
-0.06429350904739525
-0.004425010931132773
-0.05555629135011092
-0.02337952345435625
-0.0156825060600979
-0.03650845661157768
-0.03293447316523358
-0.006700701427906922
-0.01454911900954184
-0.03616129404227099
0.03024198350760036
-0.03860070170193194
-0.0139619688659799
-0.1205156145023939
-0.03071057281141274
-0.04030298409186131
-0.6662545275808265
0.01396825877402271
-0.01047481467909643
-0.005788337844394749
0.1872603149054923
-0.1041497203754254
-0.03615058289873865
-0.2406977343656946
-0.01505712270275501
-0.01595764182907869
0.08151292254014572
-0.1791272995271587
-0.2328780849176458
-0.1838426401339342
-0.6737279032726552
0.009979398313387426
-0.01774255996507578
-0.01521763409074799
-0.09762357666779962
0.118938620661082
-0.02187861242825338
-0.2367092550499282
-0.03656439553532997
-0.00705864243222901
0.2801862051945494
-0.01074404292502708
-0.09013802939179527
-0.1540907698259688
-0.004213945330792204
-0.04195294663274473
-0.04775592180971511
-0.19418254860228
-0.007703456846800379
-0.03925557584331029
-0.003806121308567593
-0.5418938961280485
-0.192095614686232
-0.1798107793691647
-0.02375707939927828
-0.009397259196045707
-0.06268288505162849
-0.05595687285212474
-0.0156331272695342
-0.07017606407710569
0.005085251279977799
-0.01743129589158851
-0.09443415903597768
-0.279237433076281
-0.009877216409790709
-0.02464113594806489
-0.02113472247733134
-0.07699761312391093
-0.08835514187902439
-0.09037108861490996
-0.01137402042778998
-0.903955067463488
0.1625951338826903
-0.08275402808639111
-0.24940438970893
-0.04099654707115644
-0.009021427877438573
-0.2492822868264052
-0.1994975190160131
-0.03024223211449925
-0.1132586275384359
-0.01806810572211454
0.5631597049052527
-0.02548111743483326
-0.2111617776807231
-0.02476315135062501
-0.003792920053130584
-0.01079268568700342
-1.24211832690941
-0.1802595110113705
-0.2251963646135479
0.005207785398409688
-0.03996289852721355
-0.2326377387000592
-0.0676220204967891
-0.05252644900516177
-0.1473492913488384
-0.1789693477655852
-0.07061765489785385
-1.210724165108712
-0.1619174623444677
-0.5458473414505398
0.08025796330034593
-0.005997327076049062
-0.02076393202932728
-0.04531228329596872
-0.03743205259726728
-0.02744358466521184
-0.1286533468749237
0.08195517736438319
-0.00411021694810783
-0.009940588222805347
-0.5588527152564279
-0.845489252610813
-0.1728398315530737
-0.007559367275666983
-0.1216807037067009
0.0004649336219507614
-0.0003793481826955002
-0.002967637004794005
-0.06195151752473197
-0.2317652140710474
-0.01328570225297126
-0.1091065064260658
-0.1573356258383222
-0.01307264100006954
-0.03407067921909051
0.03036708451561249
-0.05926583468216513
-0.07275713222514134
-0.4900900822700391
-0.2203720945345456
-0.07922106933724488
-0.076435596258596
-0.01917127400250094
-0.1101453330783809
-0.1672469257313129
-0.08278841722352985
0.02678343886769029
-0.08805361608377017
-0.05107960772174248
-0.01493320430417321
-0.1156681187900031
-0.2833900097173443
-0.06029151443376841
-0.01788365995689819
0.001249242376696617
-0.01022293470071076
-0.01041401932748222
-0.2398137505004663
-0.0139883809744844
-0.2151015609194285
-0.01076567893978554
-0.07430887905580617
-0.004178699556634287
-0.0232778214658152
-0.3956455975870416
-0.9333445781618189
-0.01122444750354139
-1.037298948236185
-0.5983583645069865
-0.01054224126943517
-0.6627312534298411
-0.1894485273745175
-0.00496624774524769
-0.1219911692027786
-0.01701395918437709
-0.1265402807872874
-0.064162158526495
-0.07950276663295883
-0.005570865219953506
-0.003395077691164594
-1.348880607965512
-0.01148130027633311
-0.185810042383759
0.001133676006177735
-1.003640858432146
-1.253150184563788
-0.07741661330834766
0.01553534113128066
0.1646992992328931
-0.004840822286377455
-0.02294723405066569
-0.004355290787148726
-0.2364804286966646
0.3653467854166413
-0.04264814281682536
-0.2155074936885925
-0.01529433079307655
-0.6494432026202278
-0.07136812337604645
0.1881565416806956
-0.3068219963922113
-0.05119320774618778
-0.07086811358613851
-0.01580022768962208
-0.02133778017802845
-0.5980116690262477
-0.1554191543994925
-0.0966249177178917
-0.116853980923264
-0.5482717422107911
-0.04578481727135129
-0.8993346229360237
-0.0004639545425493124
-0.2458242383574216
-1.057266668202902
0.1648109811823957
0.289073660051579
-0.1705174641325798
-0.1877083794053078
-0.2163910365854212
-0.06559182960848711
0.02564033383834622
0.04465826659286191
0.004782284034503716
-0.1518548658859137
0.02637438552387381
-1.370991871534489
-0.0878842092093106
-0.4815315376975906
-0.3364769423186527
-0.2222598861013896
-0.1818718711849208
-0.0169813763541919
-0.0153516276639449
-0.09176654538568961
0.1745566549953263
0.3841450611101608
-0.2046621697799239
-0.1571034749600446
-0.2195375403577877
-0.06407354524173241
-0.1643016731986731
-0.1743269808356208
-0.1285228890847354
-0.109443619121611
0.4639589469333913
-0.2858046550368507
0.4331999892828556
-0.5865757000730106
0.07379797705392191
-0.1863244382609709
-0.06849158433539515
-0.07872317849155804
-0.8981641672465581
-0.2158201830648835
-0.1939861498393449
-0.3571782919651954
-0.4689096480197606
0.5695043387765497
-0.2158309690866355
0.003365066300849122
-0.06655799791995841
0.3457480248655368
-0.03416316493369277
-0.1199883847990021
-0.1829878679372034
-0.0646094874194862
-0.01631295107878527
-0.2003192048372084
0.1971101333009037
-0.01261165330903634
-0.09954372886602261
-0.178015066968951
-0.320307759484344
-0.3063220645224843
-0.08472284626605459
-0.009574215814151446
-0.08082516034807401
-0.6480366430137879
-0.6766380840388254
-0.3225777644121189
-0.05972719105854406
-0.04880148392264982
-0.02418330398863114
-0.07094619588787512
-0.05413668213607292
-0.3707473067611903
-0.966250659455234
-0.00862170630425905
-0.08612185630744974
-1.149597960182005
-1.04712191122779
-0.1099168397878857
-0.04252500598608625
-0.06721072523448408
0.3881843632583454
-0.337726921258608
-0.05111430646914657
-0.6080655648730223
-0.1387736625235976
-0.2468673436174022
-0.2155814810544301
0.4730576139774278
-0.639943235992081
0.07725044872512631
-0.02815361758438082
-0.5731444912267412
-0.05528916977998169
-0.3675898865315859
0.1104240708619979
-0.1948608858150218
-0.06203623716106883
-0.1241081468035706
-0.3560322872028356
-0.08329065675414146
0.5156036587147352
0.08756387467573656
0.4692110775341378
-0.1228654692526436
-0.2087935526924621
-0.5064361352245842
-0.1357537637664064
0.0235326397406174
-0.05624300261029437
0.09899225857406092
-0.3020760548338307
0.2365023046348625
0.004186939280412178
-0.002532356050374115
-0.5057182264329264
-0.1803066833311354
-0.1010448687566698
0.5811763205408824
0.1400451966675925
0.343006553261472
0.2249955867151097
-0.5691543314508539
-0.2040720257294165
-0.2212519581833856
-0.2252873085638739
-0.06290836688531344
-0.6849113494483918
-0.1885775532120456
0.3039187311068653
-0.1985414659032964
-0.01128069366697985
-0.1599035054680912
-0.01250995054740709
-0.172408791546623
-0.4500857327336563
-0.07628608220021969
-0.2087936368063554
-0.07741421357641891
-0.1100504772531187
-0.1303646217338018
-0.07220455826059863
-0.4375864710743633
-0.4084802774432222
-0.02311956943189169
-0.07854893893358457
0.3298987331947554
-0.2539329976524352
-0.1696721491188885
0.5238322853418201
-0.1917279574207078
0.02186140357024528
-0.4577593081671739
0.05078762970470464
-0.05877271445812868
-0.1517987540317138
-0.5953489535427858
0.1579254093018598
-0.5726999474571939
-0.5436342999358288
-0.1009001425350866
-0.5152654043903263
-0.03574438078156993
-0.157216512715387
-0.4166316950018777
-0.01601111096979744
0.2885760403422878
0.4899239168251517
-0.1690913404676722
-0.004820265465870748
-0.08389362705407792
0.5249533366743424
-0.03178893245013098
-0.4483938200435726
-0.03141749666036694
0.461876419345913
-0.01812153439494232
-0.5533563630271482
-0.2407637218786846
0.1786116808569334
-0.3174663604346787
-0.1838055133594926
0.04722644168149793
0.03060796073181789
0.05718130355382502
-0.3065861571533707
-0.1600675345359249
0.4128264955844941
)
;

boundaryField
{
    FrontBack
    {
        type            empty;
    }
    Top
    {
        type            zeroGradient;
    }
    In
    {
        type            zeroGradient;
    }
    Bottom
    {
        type            zeroGradient;
    }
    Out
    {
        type            fixedValue;
        value           uniform 0;
    }
    circle
    {
        type            zeroGradient;
    }
}


// ************************************************************************* //
