/*--------------------------------*- C++ -*----------------------------------*\
| =========                 |                                                 |
| \\      /  F ield         | OpenFOAM: The Open Source CFD Toolbox           |
|  \\    /   O peration     | Version:  2412                                  |
|   \\  /    A nd           | Website:  www.openfoam.com                      |
|    \\/     M anipulation  |                                                 |
\*---------------------------------------------------------------------------*/
FoamFile
{
    version     2.0;
    format      ascii;
    arch        "LSB;label=32;scalar=64";
    class       volScalarField;
    location    "1928.5";
    object      yPlus;
}
// * * * * * * * * * * * * * * * * * * * * * * * * * * * * * * * * * * * * * //

dimensions      [0 0 0 0 0 0 0];

internalField   uniform 0;

boundaryField
{
    FrontBack
    {
        type            empty;
    }
    Top
    {
        type            calculated;
        value           nonuniform List<scalar> 
15
(
142.2798675718668
133.5568818688474
138.0604332373256
144.3838567678814
159.7578418482524
131.3661207254798
140.1122174725637
135.3383250694768
153.4457336723461
135.7285589255894
136.0777388087978
136.7803156468551
125.2475113739078
132.9060847149299
123.9550517158303
)
;
    }
    In
    {
        type            calculated;
        value           uniform 0;
    }
    Bottom
    {
        type            calculated;
        value           nonuniform List<scalar> 
15
(
155.5680731282389
158.1143885967258
141.1065190093093
142.0708756713305
141.1882056348427
148.4536603962689
142.7159026793896
143.1609620492648
143.4215446169822
134.0681010797394
125.7368924750529
141.5633551284945
122.4095855698059
123.4872979507195
124.1421798034455
)
;
    }
    Out
    {
        type            calculated;
        value           uniform 0;
    }
    circle
    {
        type            calculated;
        value           nonuniform List<scalar> 
32
(
56.03266325361786
21.69627324187895
65.1922526338183
26.43408759972858
20.38592359305116
56.29835364424904
56.60055000063259
23.87868965863408
22.0518881188131
65.42644092228146
39.83243612651024
62.89048335406743
50.65190510080096
17.42196324861168
22.53590207103676
18.95544441949462
39.32568406123874
59.84547733142779
61.11954517695445
26.44876273572505
65.83743248909678
63.71175980976682
63.1296495167452
59.80996420912715
64.20880040938539
46.09986100412055
66.49931819984808
32.25958370188594
37.82189029108792
55.62462515458769
21.44694390042752
43.01943932671112
)
;
    }
}


// ************************************************************************* //
