/*--------------------------------*- C++ -*----------------------------------*\
| =========                 |                                                 |
| \\      /  F ield         | OpenFOAM: The Open Source CFD Toolbox           |
|  \\    /   O peration     | Version:  2412                                  |
|   \\  /    A nd           | Website:  www.openfoam.com                      |
|    \\/     M anipulation  |                                                 |
\*---------------------------------------------------------------------------*/
FoamFile
{
    version     2.0;
    format      ascii;
    arch        "LSB;label=32;scalar=64";
    class       volScalarField;
    location    "1743.5";
    object      p;
}
// * * * * * * * * * * * * * * * * * * * * * * * * * * * * * * * * * * * * * //

dimensions      [0 2 -2 0 0 0 0];

internalField   nonuniform List<scalar> 
808
(
-0.03576815291172329
0.04506017796726221
-0.01192081721639044
0.03517076659697923
-0.3034490291754033
-0.05461704748859233
-0.01452468350996937
-0.02387355351955758
-0.1998451503229266
-0.08549067089370023
-0.009396290298957024
-0.2574605948816154
-0.03056977736647511
-0.01293644944683088
-0.1222587764846391
-0.01400162099038424
-0.1409659129900246
-0.0135600530284236
-0.01254148938023759
-0.05688331825326583
-0.005873850588586376
0.1182212266190094
-0.06092507699578349
-0.07326858703524509
0.1763437321888985
-0.09931342343724842
-0.1550293111074906
-0.02030912904769848
-0.01738724068557503
-0.02604011648984334
-0.02016437812927943
-0.05977568921871552
-0.0229832471810271
-0.0168438639634772
-0.1009223527567605
0.3441501396507855
-0.03856167642283664
-0.01684147267067802
-0.02328782257096401
-0.02659167034076756
-0.09172705903084993
-0.1287886024906589
-0.05080684826266411
-0.02061689039787019
-0.05499520226100468
-0.03996737935777642
-0.0123806674161708
-0.1872909829415932
-0.02757177049946254
-0.2071317322859123
-0.01606884186555615
-0.06883076406261038
-0.05954129551997336
-0.01485635918545789
-0.1905260937360499
-0.02897182062948925
-0.010695245939555
-0.01444815482648053
-0.1022179762573373
-0.04065670226899449
-0.09592883102462493
-0.1284011195783523
-0.01339093608595358
-0.1298849213731952
-0.01691183244289969
-0.05062133161788739
-0.1665439730998671
-0.03568377658462994
-0.01489280319926966
-0.4457494203344861
-0.0270017540831825
-0.3077930054783991
-0.02202260465589843
-0.02032133003796032
-0.06698443467668205
-0.01736527718919141
-0.04349984907047164
-0.3599126675737837
-0.03543695402069595
0.04178500372116948
-0.09059893356691366
-0.01730178270710814
0.05678925413840026
0.04364190929557245
-0.01657255471519867
-0.05323583186015857
-0.5486197258693368
-0.2230706355308953
-0.05335232365926169
-0.1116313299696056
-0.05792456809480874
-0.1346899622486161
0.0406315843906362
-0.02392576178819872
-0.06059082398057635
-0.1187829529215066
-0.03851011902346076
-0.05212884709893136
-0.1179441911063647
-0.1395443275842447
-0.05207739423896549
-0.04838072584153027
-0.05555969823143865
-0.04575288123103863
-0.05791370844345747
-0.07328883381793529
-0.04161789444057742
-0.01130379690896608
-0.04108361837608303
-0.126483943247003
-0.05126025989684811
0.08323796143970062
-0.04313775353252639
-0.008189225029047214
-0.02785571643891985
0.1801994179671588
-0.03982270962091005
-0.2732994696066869
-0.02028491743345521
-0.05478208596913927
-0.02668502636334667
-0.04784503075599545
0.01262795370780183
-0.04999456665108059
-0.0341115231185135
-0.2144694489010331
-0.04275661996836042
-0.005156858192869158
-0.07759240643320028
-0.06759452408666602
-0.1457446534361044
-0.02089083598826889
-0.07642321424777566
-0.04126909806716449
-0.02272059293128018
-0.01657328294490867
-0.006461978988072646
-0.007327743866601258
-0.05314837566477405
-0.0509098693122664
-0.2108220622387538
-0.05800088892495952
-0.008577546300792552
-0.02278184423285612
-0.1449569150287253
-0.002500539508557021
-0.07767434385392229
-0.0235800169048063
-0.001214414184027886
-0.01060372838373006
-0.03391147820433472
0.09542011311831476
-0.03974865728749567
0.2526636374780586
-0.2668875877312717
-0.1304208013107009
-0.03711949207654405
-0.09123380799225206
-0.009262336628731768
-0.1118353988404978
-0.186172145440294
-0.215758256888397
-0.1820062796333325
0.05542890874169126
-0.06186443636293434
-0.02029241569106731
-0.06790137233997602
-0.1706467600288049
-0.02391766118794464
-0.01845931623075204
-0.05324318130075888
-0.01814820698743078
-0.006003137225369858
-0.1101868468204135
-0.02275431158767452
-0.04655049627131428
-0.06883096651281155
-0.1635800083826182
-0.0337504907944435
-0.3960273454413623
-0.0178125592275509
-0.2226198694826107
-0.04540464639958816
0.03070767174151697
-0.1055344182313394
-0.01423343919072909
-0.04160706115783317
-0.1054657059803604
-0.01767940810048902
-0.09679741201150448
-0.2060893296649256
-0.07287832617244693
-0.02369396206419682
-0.04973989571782321
-0.04380028268398829
-0.2046294538832424
-0.02183652665698807
-0.01894987176623168
-0.01136622504588547
-0.0546847448193059
-0.0519646304651778
-0.02238164408003101
-0.02087119599489992
-0.2477897039263481
0.1279617333099529
-0.2007928781584315
-0.2071799692639637
-0.01179524837631512
-0.01161512558500628
-0.06769773291467875
-0.009584286728256652
-0.5148446665469613
-0.12154086634575
-0.01893289546488976
-0.001063707884221046
-0.02430154917216352
-0.2869346147323112
-0.274234739517032
-0.007044995986993407
-0.01753913599671991
-0.001891327001208866
-0.3447449452852748
-0.02824996815434399
-0.02913652225811044
-0.01248872002637604
-0.01979074207042643
0.05094595447395503
-0.1072940626488575
-0.01387756566470538
-0.02073591838469599
-0.04302586554583322
-0.01818915856865618
-0.01612063871674244
-0.02337062210678339
-0.06693665451746932
-0.01186228362390152
-0.01908369189947259
-0.008501760102524855
-0.0007507968139225122
-0.02957457691347033
-0.001550960540069927
-0.002300113667098831
-0.00606176693894975
-0.02563064012305568
-0.007983259815624715
0.001538391401953816
-0.004199057050115317
0.001198420427137408
0.002543335955060897
-0.008615870031703159
-0.14312208958767
-0.00303150134095729
-0.001440447002745682
-0.04850948968498353
-0.0215429180571918
-0.02490426363894774
-0.01440373924875048
-0.006099575703495547
-0.02085596586669899
-0.03745943965970594
-0.01394594592588711
-0.0128504946148899
-0.01184719658393101
0.007270093221098762
-0.01030604505033241
-0.01185646420119194
-0.0113284262288887
-0.010814905687032
-0.01013768388938459
-0.01168444094187863
-0.01414860672538845
-0.31150556889499
0.06095678246342556
-0.01555411742061132
-0.0163911164463998
-0.01310304847613345
-0.01222167826789074
-0.008806742064266309
-0.09742744525940787
0.009460772062836149
-0.01367831365438737
-0.01472047344979985
-0.01079169897755038
-0.05321639000686332
-0.01011488985309539
-0.01378447267939789
-0.009436228530654504
-0.0004515904936575596
-0.00986799307407177
-0.01135676255636701
-0.02490719492580688
-0.01618555818476316
-0.01183911800121037
-0.01337755249990841
-0.007571074989078666
-0.01266264829386925
-0.01172772853429046
-0.05727595866356346
-0.01302297724396362
-0.01126818951694221
-0.008678594210147035
-0.01484748705672346
-0.01389578314059393
-0.01571951400410218
-1.378638961328499
-0.09831445001598112
-0.01331862443717974
0.02394392091177004
-0.165327053525317
-0.0924901430314797
-0.0114376083031873
-0.01404981563883517
-0.2523035436832399
-0.03073777246039612
-0.02035235987627819
-0.01090753195541834
-0.01961712555160749
-0.01082161928409705
-0.03070112961094557
-0.4155602130684611
-0.01237015704856268
-0.01410520059125967
-0.004904693662910999
-0.0107504023984421
-0.009965397555670314
-0.01435220580527762
-0.008635825184671344
-0.02607531556769155
-0.011330099106182
-0.1626364969367643
0.01721250675899964
-0.007736897104579842
0.003248615702507727
0.01353225846905258
-0.04726615903007521
0.02987049387167482
-0.01300636022600982
-0.1354418663326853
0.2820570923291522
-0.007203893859553181
-0.01324894719058678
-0.008437100710735291
-0.03298956484063111
-0.12236100790962
-0.01276052567919281
-0.0123789113083402
-0.01682887706740633
-0.01361092862525714
-0.04095289595609778
-0.2140057755958497
-0.01142883696977628
-0.04118669367546991
-0.0399845075916099
-0.1653467209556634
-0.165729508022114
-0.1379801332125354
-0.2516616518539126
-0.007366631525651577
-0.02131135449991061
-0.01415229361645679
-0.01260904156487233
-0.03283868110204476
-0.0244059298842657
-0.01449944300214273
-0.01501188067832232
-1.082199007429804
-0.006039462317008447
-0.0136231752130754
-0.018500362096524
-0.02096334133394662
0.00109946677705949
-0.01429767364674799
-0.02778016287816326
-0.1618492030218364
-0.01359780183595591
-0.02230541755733593
-0.01376643664139615
0.0006858372099779333
-0.1796080292735498
-0.01331879978638487
-0.1409932895788751
-0.01612003468199511
0.007646015824680434
-0.01466180067675387
-0.02306363411040092
-0.01557499186593258
0.004835845685422838
-0.279059072244662
-0.02544983003513119
-0.01592640872480519
-0.002444014832203826
-0.009314583029175089
-0.0306085833900712
-0.01441891943260162
-0.02032839860079734
-0.02141954810866036
0.01372567459368359
-0.1010370566196433
-0.02216779064830195
0.009159357183001407
-0.05110254126599729
0.1588866387633841
-0.1028095470820919
-0.3213746057869408
-0.03086097654057234
-0.02538673552573345
0.1492014489704747
0.08173543945199309
-0.003327691258460156
0.04916768310413567
-0.01565155395242321
-0.01469811636710016
0.002199249811056239
0.01186524919635896
-0.06709227261031589
-0.005883029290793579
-0.05769006466312975
-0.0221071164101319
-0.01572551713889067
-0.03653454156896751
-0.03291432442566808
-0.006638051872034837
-0.01509492834873015
-0.03924643482854327
0.03791000930862218
-0.03890562050685428
-0.01361793884754874
-0.1161438982107312
-0.03210679166096537
-0.03845697148363635
-0.6778502529185408
0.01977515286329771
-0.01082964851631755
-0.005432741966132818
0.1583351563726345
-0.08329624020076873
-0.03489979036694542
-0.2472641958953828
-0.01675342599082343
-0.01663855885982119
0.06285002889507779
-0.1847964259436676
-0.2283293622449168
-0.1987491802236667
-0.6870796498112169
0.003391846887526387
-0.01866686569594367
-0.01691364200578768
-0.07792803253714846
0.1177251585244864
-0.02095787785639711
-0.2417755614927908
-0.03488860431319423
-0.006452227153575907
0.2776466557904539
-0.01133003192034102
-0.09387228291581429
-0.1487791393367448
-0.004407740277557654
-0.04033301071395069
-0.04934166255256327
-0.2067576143959913
-0.008829325253862401
-0.04222113840545936
-0.002416376122190281
-0.5514203242111121
-0.199825516712433
-0.1755757960436221
-0.02265267105068492
-0.006826864111500544
-0.05985354168580125
-0.05832112416573744
-0.01439452023079389
-0.06742315085035816
0.003050605610511088
-0.01842340469188402
-0.0946789974295363
-0.2666413503139717
-0.007333752367090709
-0.02648279785585885
-0.02214825697029186
-0.07409027615786871
-0.09122173194448911
-0.08766431444039348
-0.01182083824729241
-0.9282978716001897
0.1607177033518515
-0.07897910613294727
-0.2569174831852349
-0.04265839352166923
-0.01052766463337467
-0.2534071094979255
-0.183963256852355
-0.03328979838386762
-0.1286904139583572
-0.01930619886220108
0.5629161112014612
-0.02379376318481337
-0.2302205608699539
-0.02623216599425877
-0.0057184551164359
-0.01202132976507409
-1.253741669068769
-0.1829620138405597
-0.2338974096619259
0.005383341659831306
-0.03718680631825854
-0.2541940323281126
-0.06529147012400847
-0.05086569943403236
-0.1419188884455468
-0.190982178710621
-0.06765643780734336
-1.230739275553354
-0.1421287507796259
-0.5185000024693704
0.07837096499508396
-0.006842770598728761
-0.02203654731708921
-0.04245603447277686
-0.04073115572385066
-0.02891198646614849
-0.1313512696420728
0.07982257026148158
-0.002389296034430038
-0.009789132833120733
-0.5817849406439739
-0.8652077059740435
-0.1862382814709586
-0.008315574622224337
-0.1389034521219943
0.001113447990710248
-0.0005677654051235246
-0.001797139930836271
-0.05987460105455877
-0.2392663854142403
-0.01340513597851557
-0.1251678826632915
-0.1555924348278878
-0.01324520468846767
-0.03599104286887977
0.02193574939498086
-0.05717550894490148
-0.06954777031581046
-0.5039556823562541
-0.2357683701380356
-0.0809071464657035
-0.07237723687812787
-0.01998309849849033
-0.1245957992914485
-0.1518410133913527
-0.07426553502493442
0.02310043998844457
-0.0842080820470737
-0.04791514933455566
-0.01489619983906044
-0.1061051862634999
-0.2716838819142616
-0.05661823749112663
-0.01854924398708838
-1.601108793087366e-05
-0.009999582690226541
-0.01118193822928799
-0.2161920752327967
-0.01529648148809727
-0.2225700538820165
-0.01032124072527299
-0.06671974104935674
-0.003917172421475692
-0.02320277229991615
-0.3767813812946688
-0.9077875110475694
-0.01134630237627207
-1.049643991140093
-0.6147652328840254
-0.0106607482454017
-0.6562635816567182
-0.176189857770079
-0.005945551638698529
-0.131274859239704
-0.01691951471663697
-0.1215283888870207
-0.06751173556280272
-0.07753136909398402
-0.005072317145010644
-0.002442985968688665
-1.336774281474842
-0.01118503681449151
-0.1826021912423813
0.000490070467200495
-1.012301900072074
-1.232160370192358
-0.08174358923780972
0.01972473400144103
0.1643140504774125
-0.004609379678356252
-0.02305301169757102
-0.004190168423288151
-0.2539556618437024
0.3661636740522861
-0.04075187294734791
-0.2102175995114207
-0.01487331124196096
-0.6558507983750389
-0.07522786956383824
0.1910171095005848
-0.2828880102900649
-0.0496719860465662
-0.06859243286767137
-0.01590800714839143
-0.02178110386761583
-0.5739149049481567
-0.1440953287870817
-0.08522782925795268
-0.1291279110466477
-0.5565922049260841
-0.04403140251677817
-0.9087106482451032
0.0001819737000244734
-0.2372536355050856
-1.048326477338585
0.1677804605855399
0.291746345968779
-0.1847395763722554
-0.1932186777840296
-0.2076436461744563
-0.06821593695747052
0.02231845572950445
0.04838931305761022
0.003551247448613755
-0.1680399473584578
0.02552869883275307
-1.354916797163615
-0.08492700543648078
-0.4725118956347638
-0.3298214085142366
-0.2027388077166448
-0.1758921434554702
-0.01690613001187017
-0.01547551923134192
-0.1078461935136227
0.171358690356766
0.3855385452982755
-0.2138368397616467
-0.1386534993681221
-0.2369296699746899
-0.06233099606639173
-0.149231702971641
-0.162302177274854
-0.1253794804095739
-0.1242456319636423
0.4660198741938197
-0.2680552466405176
0.431347006870279
-0.6006493517944591
0.07056827783889881
-0.2049446775911462
-0.06590494080751712
-0.07402475097518089
-0.8769773520264867
-0.2203808282221563
-0.1899656469408331
-0.3457493411044901
-0.4566281444591336
0.5706229246201913
-0.2070805270762623
9.199967139010364e-05
-0.07083268863800099
0.3437991641795548
-0.03767743115011476
-0.1323697533052432
-0.1789002357668261
-0.06340402673820481
-0.0165553470958161
-0.1946648351892959
0.1940480255154511
-0.01287630076185824
-0.09594762246021428
-0.1685692960639653
-0.3149386061624063
-0.3139068709235346
-0.06364166352859836
-0.01033424918592112
-0.07855749550133723
-0.6551247403516239
-0.6692827525795492
-0.339470525021787
-0.05749655869405073
-0.05210036967625339
-0.02555017675569887
-0.06734674739209869
-0.05803249482664866
-0.3576834778722355
-0.9564079810258189
-0.01048143011001594
-0.08265147966611384
-1.136543842392241
-1.03042669426468
-0.1048752407307067
-0.03838293469586798
-0.07015579434918498
0.3904030881959585
-0.3447310537732792
-0.05014625098625457
-0.597510927307392
-0.1213014156054351
-0.2535680366341285
-0.2098686085087043
0.4741534360498196
-0.6265523563802321
0.07349326764594555
-0.02964070109469218
-0.556480262417936
-0.05128218418600452
-0.3608594601928483
0.1069862358870776
-0.1896080270187447
-0.0595945285599466
-0.1392066436482966
-0.3625104350826073
-0.08797921806166163
0.514519565437375
0.08527165906007636
0.4708297782122711
-0.1022841274627037
-0.1993016232621405
-0.5234615663525157
-0.1305780605785504
0.02702853161754446
-0.05330026354717323
0.1027044175359341
-0.3072674464939089
0.2362282794960908
0.008512656095308551
-0.003294418241373533
-0.5142121514881144
-0.1860250767447217
-0.08100725039589493
0.5815549154535895
0.1383706809833641
0.3454380243871836
0.2258110288036349
-0.5605436978859574
-0.2004462599337465
-0.2224307851586536
-0.2345445161039262
-0.06006581506975477
-0.6954986182121803
-0.1939858616323258
0.3061309152820237
-0.1992670935859669
-0.01124703937054262
-0.1721507880557339
-0.009265569903171051
-0.156263032511152
-0.4334998521607301
-0.07657550933829406
-0.1983238530580775
-0.07091647514712708
-0.08657820857926836
-0.1466911177037435
-0.07326317350636818
-0.4563433680176404
-0.4156124482179366
-0.02623175419709723
-0.07415592119479014
0.3275173907646614
-0.2460190778362622
-0.1856207488182026
0.5253431611447549
-0.2088724645813209
0.01789518786481927
-0.4481788460483273
0.04714597433373884
-0.06230956143373573
-0.1457376015193816
-0.5812608627167769
0.1614118725314033
-0.5816255449549532
-0.5328952593478546
-0.1058017585789238
-0.5062075955068011
-0.03747124686484638
-0.1384950854353624
-0.4093424454071963
-0.01632246123509456
0.2866405787236396
0.4895683574688848
-0.157894846293238
-0.008314480273652084
-0.07506260890896242
0.525321647966801
-0.03352212116483471
-0.4374269194673466
-0.03288974388001594
0.4607249517380929
-0.0145940440867264
-0.5417940113953877
-0.2472837937454181
0.1759407422412604
-0.3090167666804567
-0.1779986566478365
0.05131329893652842
0.03383895232129056
0.05417242261750393
-0.2977920908398948
-0.157889655633813
0.4127617902762966
)
;

boundaryField
{
    FrontBack
    {
        type            empty;
    }
    Top
    {
        type            zeroGradient;
    }
    In
    {
        type            zeroGradient;
    }
    Bottom
    {
        type            zeroGradient;
    }
    Out
    {
        type            fixedValue;
        value           uniform 0;
    }
    circle
    {
        type            zeroGradient;
    }
}


// ************************************************************************* //
