/*--------------------------------*- C++ -*----------------------------------*\
| =========                 |                                                 |
| \\      /  F ield         | OpenFOAM: The Open Source CFD Toolbox           |
|  \\    /   O peration     | Version:  2412                                  |
|   \\  /    A nd           | Website:  www.openfoam.com                      |
|    \\/     M anipulation  |                                                 |
\*---------------------------------------------------------------------------*/
FoamFile
{
    version     2.0;
    format      ascii;
    arch        "LSB;label=32;scalar=64";
    class       volScalarField;
    location    "1874";
    object      yPlus;
}
// * * * * * * * * * * * * * * * * * * * * * * * * * * * * * * * * * * * * * //

dimensions      [0 0 0 0 0 0 0];

internalField   uniform 0;

boundaryField
{
    FrontBack
    {
        type            empty;
    }
    Top
    {
        type            calculated;
        value           nonuniform List<scalar> 
15
(
142.2791558112253
133.5559168781725
138.0605020517628
144.3834394857158
159.757840193697
131.3661404247553
140.1114662083759
135.3381341651833
153.4448172277968
135.7291683871537
136.077629009879
136.7804144842412
125.2464547734892
132.9055612161816
123.9547188755425
)
;
    }
    In
    {
        type            calculated;
        value           uniform 0;
    }
    Bottom
    {
        type            calculated;
        value           nonuniform List<scalar> 
15
(
155.568011039833
158.1141249432142
141.1069322072806
142.0721570070982
141.18852865919
148.4546118414022
142.7162341886924
143.1618319900769
143.4216438132603
134.0681131686082
125.7372949787006
141.5633419993407
122.4099166661117
123.4875368963854
124.1427029201039
)
;
    }
    Out
    {
        type            calculated;
        value           uniform 0;
    }
    circle
    {
        type            calculated;
        value           nonuniform List<scalar> 
32
(
56.04266908787589
21.68922280068123
65.1933944544321
26.41128149666614
20.36709760829024
56.29976619328539
56.60574781259968
23.89333882035565
22.05081347284492
65.42668530901398
39.84461848967104
62.89316181348051
50.64403298171256
17.33298853167106
22.54661218681689
19.01292729258367
39.31349202628923
59.8409217274492
61.12041630735496
26.49513952573376
65.83728378987232
63.71143569711659
63.12737023207253
59.80919466689932
64.20917052627054
46.1020667842892
66.49840392752725
32.26307478710777
37.82006771110688
55.62348666940525
21.45405214293369
43.01801448511105
)
;
    }
}


// ************************************************************************* //
