/*--------------------------------*- C++ -*----------------------------------*\
| =========                 |                                                 |
| \\      /  F ield         | OpenFOAM: The Open Source CFD Toolbox           |
|  \\    /   O peration     | Version:  2412                                  |
|   \\  /    A nd           | Website:  www.openfoam.com                      |
|    \\/     M anipulation  |                                                 |
\*---------------------------------------------------------------------------*/
FoamFile
{
    version     2.0;
    format      ascii;
    arch        "LSB;label=32;scalar=64";
    class       volVectorField;
    location    "0.5";
    object      cellDisplacement;
}
// * * * * * * * * * * * * * * * * * * * * * * * * * * * * * * * * * * * * * //

dimensions      [0 1 0 0 0 0 0];

internalField   nonuniform List<vector> 
256
(
(-0.0158147 0.000533051 0)
(-0.0155416 -0.00186823 0)
(-0.0143062 -0.00388621 0)
(-0.0122583 -0.0051358 0)
(-0.00980743 -0.00547827 0)
(-0.00721094 -0.00493309 0)
(-0.00468768 -0.00368499 0)
(-0.00224029 -0.00191053 0)
(-0.0468487 0.00104078 0)
(-0.0460899 -0.00568918 0)
(-0.0426726 -0.0113442 0)
(-0.037403 -0.0151181 0)
(-0.030876 -0.0165379 0)
(-0.0238612 -0.0156502 0)
(-0.0168021 -0.0127274 0)
(-0.0099553 -0.008269 0)
(-0.0762249 0.000989165 0)
(-0.0748701 -0.00949333 0)
(-0.0698661 -0.0184051 0)
(-0.0619811 -0.0245339 0)
(-0.0522951 -0.0273096 0)
(-0.0417334 -0.0266745 0)
(-0.0310679 -0.0230315 0)
(-0.020498 -0.0168267 0)
(-0.104135 0.000402456 0)
(-0.102262 -0.0134077 0)
(-0.0958338 -0.0251712 0)
(-0.086025 -0.03359 0)
(-0.0739074 -0.0379101 0)
(-0.0606526 -0.038072 0)
(-0.0470516 -0.0343646 0)
(-0.0335065 -0.0273318 0)
(-0.130762 -0.000719739 0)
(-0.128261 -0.0174624 0)
(-0.120829 -0.0318626 0)
(-0.10948 -0.0424391 0)
(-0.095565 -0.0484646 0)
(-0.0802398 -0.0497667 0)
(-0.0644929 -0.0466838 0)
(-0.0486382 -0.0396237 0)
(-0.156237 -0.00241023 0)
(-0.153168 -0.0218152 0)
(-0.144799 -0.0385606 0)
(-0.132377 -0.0512689 0)
(-0.117143 -0.0590955 0)
(-0.10038 -0.0619028 0)
(-0.0829969 -0.0598722 0)
(-0.0654608 -0.0534893 0)
(-0.180621 -0.00472764 0)
(-0.176938 -0.0264951 0)
(-0.167938 -0.0454895 0)
(-0.154675 -0.0602198 0)
(-0.138549 -0.0699577 0)
(-0.120748 -0.074458 0)
(-0.102314 -0.0739667 0)
(-0.0836252 -0.0688675 0)
(-0.203991 -0.00775119 0)
(-0.199795 -0.031714 0)
(-0.190179 -0.0527194 0)
(-0.176383 -0.0694767 0)
(-0.159655 -0.0811708 0)
(-0.141247 -0.0876319 0)
(-0.122095 -0.0889506 0)
(-0.102671 -0.0856132 0)
(-0.226455 -0.0116026 0)
(-0.221662 -0.0375127 0)
(-0.211644 -0.0604975 0)
(-0.19745 -0.0791907 0)
(-0.180383 -0.0929344 0)
(-0.161581 -0.101453 0)
(-0.142063 -0.104923 0)
(-0.122255 -0.103787 0)
(-0.247985 -0.0164057 0)
(-0.242672 -0.0441651 0)
(-0.232242 -0.0689217 0)
(-0.217821 -0.0895685 0)
(-0.200563 -0.105376 0)
(-0.181603 -0.116176 0)
(-0.161917 -0.122001 0)
(-0.141913 -0.123397 0)
(-0.268623 -0.0224139 0)
(-0.262701 -0.0517731 0)
(-0.251974 -0.0782916 0)
(-0.23741 -0.100805 0)
(-0.220058 -0.118794 0)
(-0.201061 -0.13195 0)
(-0.181273 -0.140416 0)
(-0.161238 -0.144629 0)
(-0.288241 -0.0298488 0)
(-0.281752 -0.0607122 0)
(-0.270728 -0.0887976 0)
(-0.256029 -0.113234 0)
(-0.238692 -0.133403 0)
(-0.219597 -0.149145 0)
(-0.199763 -0.160382 0)
(-0.179529 -0.167727 0)
(-0.306657 -0.0391164 0)
(-0.299517 -0.071199 0)
(-0.288159 -0.100778 0)
(-0.273386 -0.127049 0)
(-0.255967 -0.149551 0)
(-0.23682 -0.167957 0)
(-0.216644 -0.182326 0)
(-0.196045 -0.192963 0)
(-0.323291 -0.0505335 0)
(-0.315408 -0.0835612 0)
(-0.303684 -0.114449 0)
(-0.288705 -0.142553 0)
(-0.271128 -0.167423 0)
(-0.251652 -0.188761 0)
(-0.230963 -0.206458 0)
(-0.209474 -0.220778 0)
(-0.337174 -0.0643474 0)
(-0.328475 -0.097983 0)
(-0.316273 -0.129944 0)
(-0.300924 -0.159764 0)
(-0.282899 -0.18702 0)
(-0.26265 -0.211444 0)
(-0.240758 -0.232805 0)
(-0.217525 -0.251195 0)
(-0.345447 -0.0799882 0)
(-0.335943 -0.113463 0)
(-0.323204 -0.145844 0)
(-0.307352 -0.176822 0)
(-0.288541 -0.206096 0)
(-0.266951 -0.233386 0)
(-0.242789 -0.258428 0)
(-0.21629 -0.280981 0)
(-0.00226899 -0.00184024 0)
(-0.0041771 -0.00359892 0)
(-0.00554921 -0.00538436 0)
(-0.00639144 -0.00736394 0)
(-0.00659945 -0.00949512 0)
(-0.0060939 -0.0116644 0)
(-0.00482636 -0.0135929 0)
(-0.00290782 -0.0151027 0)
(-0.00991203 -0.00822214 0)
(-0.0146919 -0.013191 0)
(-0.0180104 -0.0184615 0)
(-0.0196624 -0.024064 0)
(-0.01957 -0.0300594 0)
(-0.0175113 -0.0359587 0)
(-0.0134952 -0.0412444 0)
(-0.00780442 -0.045146 0)
(-0.0200881 -0.0169146 0)
(-0.0268349 -0.0248694 0)
(-0.0311003 -0.0331775 0)
(-0.0328489 -0.0421219 0)
(-0.0318207 -0.0514387 0)
(-0.0278229 -0.0604916 0)
(-0.0209261 -0.0683097 0)
(-0.0116692 -0.0739402 0)
(-0.0325681 -0.0278676 0)
(-0.0402275 -0.0383721 0)
(-0.0446919 -0.0495324 0)
(-0.0457805 -0.0613285 0)
(-0.0432868 -0.0734551 0)
(-0.0370303 -0.0849917 0)
(-0.0272187 -0.0948263 0)
(-0.0145994 -0.101632 0)
(-0.0469003 -0.0408038 0)
(-0.0546711 -0.0536894 0)
(-0.0584872 -0.067252 0)
(-0.0583378 -0.0815797 0)
(-0.0539246 -0.0960089 0)
(-0.0451691 -0.109522 0)
(-0.0324226 -0.120696 0)
(-0.0166452 -0.128232 0)
(-0.0628062 -0.055681 0)
(-0.0697747 -0.0705509 0)
(-0.0723274 -0.0863344 0)
(-0.0703578 -0.102703 0)
(-0.0636535 -0.118962 0)
(-0.0522229 -0.133853 0)
(-0.0365633 -0.145976 0)
(-0.017815 -0.153857 0)
(-0.0798107 -0.0722482 0)
(-0.0853153 -0.0889839 0)
(-0.0859321 -0.106536 0)
(-0.0816993 -0.124625 0)
(-0.0723946 -0.142232 0)
(-0.0581542 -0.158089 0)
(-0.0396329 -0.170622 0)
(-0.0181 -0.178532 0)
(-0.0975939 -0.0905187 0)
(-0.100901 -0.108749 0)
(-0.0991017 -0.12789 0)
(-0.0921759 -0.14723 0)
(-0.0800256 -0.16576 0)
(-0.0629069 -0.182061 0)
(-0.0415762 -0.194711 0)
(-0.0174408 -0.202386 0)
(-0.115671 -0.110327 0)
(-0.116258 -0.129945 0)
(-0.111525 -0.150227 0)
(-0.101582 -0.170483 0)
(-0.0863915 -0.189491 0)
(-0.0663309 -0.205898 0)
(-0.0423086 -0.218263 0)
(-0.0157387 -0.225448 0)
(-0.133696 -0.131808 0)
(-0.130945 -0.152466 0)
(-0.122902 -0.173651 0)
(-0.109627 -0.194366 0)
(-0.0912555 -0.213458 0)
(-0.0682803 -0.229516 0)
(-0.0416585 -0.2413 0)
(-0.0128689 -0.24769 0)
(-0.151104 -0.155007 0)
(-0.144581 -0.176509 0)
(-0.132775 -0.198175 0)
(-0.115966 -0.218957 0)
(-0.094295 -0.237635 0)
(-0.0684457 -0.252962 0)
(-0.0394103 -0.263717 0)
(-0.00859081 -0.269115 0)
(-0.167245 -0.180114 0)
(-0.156427 -0.202184 0)
(-0.140574 -0.223927 0)
(-0.119983 -0.244264 0)
(-0.0950424 -0.262009 0)
(-0.0664429 -0.276047 0)
(-0.0352058 -0.285458 0)
(-0.00264271 -0.289629 0)
(-0.181061 -0.207425 0)
(-0.165555 -0.229655 0)
(-0.14532 -0.250949 0)
(-0.120896 -0.270176 0)
(-0.0927734 -0.286373 0)
(-0.0616682 -0.298669 0)
(-0.0285812 -0.306376 0)
(0.00547913 -0.309103 0)
(-0.191193 -0.237252 0)
(-0.170485 -0.259077 0)
(-0.14575 -0.279137 0)
(-0.117594 -0.296486 0)
(-0.0865393 -0.310434 0)
(-0.0533758 -0.320392 0)
(-0.018843 -0.325974 0)
(0.016116 -0.326957 0)
(-0.195005 -0.269524 0)
(-0.168817 -0.289927 0)
(-0.139816 -0.307571 0)
(-0.108505 -0.322004 0)
(-0.0753441 -0.332883 0)
(-0.0408675 -0.339957 0)
(-0.00567369 -0.343053 0)
(0.0296312 -0.342116 0)
(-0.187707 -0.300828 0)
(-0.157317 -0.317778 0)
(-0.125412 -0.331667 0)
(-0.0922991 -0.342363 0)
(-0.0582973 -0.349761 0)
(-0.023734 -0.353791 0)
(0.0110579 -0.354414 0)
(0.0457433 -0.351623 0)
)
;

boundaryField
{
    walls
    {
        type            cellMotion;
        value           uniform (0 0 0);
    }
    cylinder
    {
        type            cellMotion;
        value           nonuniform List<vector> 
16
(
(-0.345447 -0.0799882 0)
(-0.335943 -0.113463 0)
(-0.323204 -0.145844 0)
(-0.307352 -0.176822 0)
(-0.288541 -0.206096 0)
(-0.266951 -0.233386 0)
(-0.242789 -0.258428 0)
(-0.21629 -0.280981 0)
(-0.187707 -0.300828 0)
(-0.157317 -0.317778 0)
(-0.125412 -0.331667 0)
(-0.0922991 -0.342363 0)
(-0.0582973 -0.349761 0)
(-0.023734 -0.353791 0)
(0.0110579 -0.354414 0)
(0.0457433 -0.351623 0)
)
;
    }
    outlet
    {
        type            cellMotion;
        value           nonuniform List<vector> 0();
    }
    inlet
    {
        type            cellMotion;
        value           uniform (0 0 0);
    }
    frontAndBack
    {
        type            empty;
    }
    procBoundary2to0
    {
        type            processor;
        value           nonuniform List<vector> 
16
(
(-0.000543551 -0.0158442 0)
(-0.001066 -0.0469821 0)
(-0.00103687 -0.0763958 0)
(-0.000455685 -0.104379 0)
(0.000647866 -0.13101 0)
(0.00234461 -0.156531 0)
(0.0046487 -0.180894 0)
(0.0076936 -0.204283 0)
(0.0115276 -0.226697 0)
(0.0163761 -0.248229 0)
(0.0223735 -0.268809 0)
(0.0298727 -0.288405 0)
(0.0391551 -0.306768 0)
(0.0506192 -0.323374 0)
(0.0644004 -0.337203 0)
(0.0799882 -0.345447 0)
)
;
    }
    procBoundary2to3
    {
        type            processor;
        value           nonuniform List<vector> 
16
(
(-0.0150727 0.00289375 0)
(-0.0450603 0.00776459 0)
(-0.0738038 0.0116089 0)
(-0.101459 0.0145221 0)
(-0.128025 0.0165599 0)
(-0.153639 0.0177256 0)
(-0.178308 0.0180107 0)
(-0.20218 0.0173497 0)
(-0.225255 0.0156589 0)
(-0.247535 0.0127896 0)
(-0.268983 0.00853716 0)
(-0.289535 0.00259861 0)
(-0.309019 -0.00546202 0)
(-0.326908 -0.0160745 0)
(-0.34209 -0.0295942 0)
(-0.351623 -0.0457433 0)
)
;
    }
}


// ************************************************************************* //
