/*--------------------------------*- C++ -*----------------------------------*\
| =========                 |                                                 |
| \\      /  F ield         | OpenFOAM: The Open Source CFD Toolbox           |
|  \\    /   O peration     | Version:  2412                                  |
|   \\  /    A nd           | Website:  www.openfoam.com                      |
|    \\/     M anipulation  |                                                 |
\*---------------------------------------------------------------------------*/
FoamFile
{
    version     2.0;
    format      ascii;
    arch        "LSB;label=32;scalar=64";
    class       surfaceScalarField;
    location    "0.5";
    object      meshPhi;
}
// * * * * * * * * * * * * * * * * * * * * * * * * * * * * * * * * * * * * * //

dimensions      [0 3 -1 0 0 0 0];

internalField   nonuniform List<scalar> 
480
(
0.00311309
-0.0032606
0.00306673
-0.000809606
0.00303481
0.00177754
0.00300868
0.00392585
0.00276451
0.00510258
0.00222736
0.00515192
0.0014918
0.00437618
0.00355205
0.00112638
0.00920274
-0.00576931
0.0090416
-0.00136535
0.00899774
0.00328643
0.00896818
0.00714612
0.00830085
0.00930637
0.00686881
0.00961568
0.00491083
0.00857974
0.00732156
0.00393744
0.0149322
-0.00750265
0.0147817
-0.00157832
0.0148052
0.00458773
0.0147736
0.00966638
0.0138471
0.0126365
0.0118841
0.0134013
0.00916175
0.0124474
0.0110602
0.00784321
0.0202593
-0.00854882
0.0203261
-0.00149371
0.0204382
0.00570962
0.0203892
0.0116205
0.0193702
0.0152202
0.0172168
0.0164853
0.0141407
0.0158543
0.0146269
0.012772
0.0254173
-0.00905047
0.0256881
-0.0011747
0.0258815
0.00664186
0.0258443
0.0130311
0.0248882
0.0171144
0.0228394
0.0189021
0.0197976
0.0187293
0.0178286
0.0186454
0.0306143
-0.00906154
0.0308959
-0.000734668
0.0311506
0.00740297
0.0311858
0.0140235
0.0304604
0.018418
0.0287768
0.0206463
0.0260968
0.0209672
0.020444
0.0253483
0.035735
-0.00855671
0.0359711
-0.000122164
0.0362982
0.00799688
0.0365024
0.0145961
0.0361737
0.0191471
0.0350477
0.0217187
0.0328694
0.0223939
0.0221198
0.0325904
0.0407065
-0.00770762
0.0409427
0.000555578
0.0414039
0.0083863
0.0419081
0.0147692
0.0420852
0.0192911
0.0415103
0.0219687
0.039841
0.0228391
0.0228428
0.0401386
0.045564
-0.00668227
0.0458439
0.00123262
0.0465528
0.00854895
0.0474317
0.0144482
0.0480411
0.0186998
0.0479721
0.0213604
0.0469563
0.0224558
0.0227769
0.0479975
0.0503013
-0.0055285
0.0506259
0.00175135
0.0516484
0.00822241
0.0528926
0.013405
0.0539741
0.0173845
0.0545784
0.0201327
0.0544757
0.0215061
0.0222034
0.0565773
0.0549415
-0.00443618
0.055306
0.00191087
0.0565745
0.00746556
0.0582816
0.0120433
0.0600835
0.0157381
0.0616603
0.0184303
0.0629468
0.0200188
0.021036
0.0664468
0.0596665
-0.00324197
0.0602295
0.00200507
0.0617926
0.00661612
0.0640918
0.0105516
0.0667474
0.0138005
0.0695785
0.0162744
0.0726239
0.017912
0.0190326
0.0775868
0.0645386
-0.00180157
0.0655306
0.00222434
0.0676533
0.00580575
0.0706761
0.00890485
0.0742947
0.0115419
0.0784622
0.0136718
0.0831112
0.0152239
0.0163316
0.0894111
0.0692471
-0.000190396
0.0708213
0.00251745
0.0736457
0.00496954
0.0775498
0.00715674
0.0822988
0.00905404
0.0878168
0.0106416
0.0938971
0.0118439
0.0127922
0.101306
0.0732246
0.00149505
0.0753259
0.00280221
0.0788032
0.00402123
0.0835704
0.00513808
0.0894324
0.00613074
0.0962548
0.00699324
0.103773
0.00768407
0.00827603
0.112214
0.0721869
0.0749193
0.0790043
0.0842958
0.0906115
0.0977482
0.105449
0.113542
0.00142204
-0.00299438
0.00193579
-0.0047353
0.00234053
-0.00649223
0.00276115
-0.00769703
0.00310783
-0.00846618
0.00314492
-0.00832809
0.00318542
-0.00708057
-0.00503088
0.00467129
-0.00719049
0.00611327
-0.00998927
0.00718379
-0.0128072
0.00831066
-0.0145799
0.00922326
-0.0155366
0.00941305
-0.0150594
0.00956229
-0.0128013
-0.00909141
0.00882982
-0.0122623
0.0108821
-0.0156035
0.0124144
-0.018893
0.0139316
-0.0207932
0.0151399
-0.0214916
0.0155216
-0.0204474
0.0157877
-0.0172328
-0.0121574
0.0138366
-0.017617
0.016242
-0.0211238
0.0180239
-0.0244701
0.0196302
-0.026062
0.0208887
-0.02618
0.0214002
-0.0244369
0.0217537
-0.0204254
-0.0143384
0.0196066
-0.0230023
0.0221307
-0.0263517
0.0239302
-0.0293426
0.0254148
-0.0304131
0.0265428
-0.0298306
0.0270614
-0.027328
0.0274813
-0.0225643
-0.0157029
0.0260202
-0.0279421
0.0284409
-0.0308744
0.0300577
-0.0332848
0.0312562
-0.0336295
0.0321107
-0.0322405
0.032502
-0.0289716
0.0329023
-0.0235707
-0.0162267
0.032839
-0.0319693
0.035016
-0.0344019
0.0363281
-0.0361124
0.0371305
-0.0357137
0.0376064
-0.0335543
0.0377616
-0.0296204
0.0379516
-0.0236915
-0.0159934
0.0398835
-0.03479
0.0416984
-0.0366647
0.0426662
-0.037691
0.043009
-0.0365864
0.0430447
-0.0337103
0.042907
-0.029242
0.0428325
-0.0230204
-0.0152336
0.0471934
-0.03633
0.0485415
-0.0376953
0.0490435
-0.038022
0.0488664
-0.0362318
0.0484514
-0.0327152
0.0480076
-0.0278935
0.047729
-0.0216464
-0.0140598
0.0551479
-0.0367338
0.0557255
-0.0374652
0.0555671
-0.0370233
0.05476
-0.034636
0.0538556
-0.0306815
0.0530699
-0.025715
0.0525386
-0.0196494
-0.0124991
0.0640805
-0.0359695
0.0633968
-0.0359958
0.0622239
-0.034624
0.0606673
-0.0316695
0.0591925
-0.0275516
0.0580028
-0.0226788
0.0571392
-0.0170374
-0.0106281
0.0740337
-0.0334495
0.0716986
-0.0329338
0.0691365
-0.030745
0.0666535
-0.027364
0.06448
-0.0232955
0.0627765
-0.0187871
0.0615646
-0.0138057
-0.0082852
0.0845964
-0.0282198
0.0805503
-0.0274938
0.0764692
-0.0250389
0.0728043
-0.0217107
0.0697583
-0.0179893
0.0674484
-0.0140775
0.0658773
-0.00991131
-0.00545658
0.0951103
-0.0199672
0.08942
-0.0191721
0.0838641
-0.0169896
0.0789374
-0.0143516
0.0749246
-0.0115431
0.0719247
-0.00864503
0.0699717
-0.00562874
-0.00253838
0.104511
-0.00893183
0.0970476
-0.00815672
0.0901136
-0.00687216
0.0841039
-0.00549462
0.0792452
-0.00408367
0.0756529
-0.00264023
0.0734287
-0.00117089
0.000298724
0.104114
0.0953487
0.0876901
0.0813403
0.0764209
0.073016
0.0711814
)
;

boundaryField
{
    walls
    {
        type            calculated;
        value           uniform 0;
    }
    cylinder
    {
        type            calculated;
        value           nonuniform List<scalar> 
16
(
1.60363e-11
-1.96897e-11
-6.53098e-12
1.18837e-11
-3.34639e-11
2.42432e-11
3.75408e-11
-1.90042e-11
1.90047e-11
-3.75398e-11
-2.42425e-11
3.34647e-11
-1.1882e-11
6.53197e-12
1.96897e-11
-1.60353e-11
)
;
    }
    outlet
    {
        type            calculated;
        value           nonuniform List<scalar> 0();
    }
    inlet
    {
        type            calculated;
        value           uniform 0;
    }
    frontAndBack
    {
        type            empty;
    }
    procBoundary2to0
    {
        type            processor;
        value           nonuniform List<scalar> 
16
(
0.00346705
0.0103052
0.016733
0.0226012
0.0281501
0.0335196
0.0385302
0.0432718
0.0479432
0.0524808
0.0568113
0.0610169
0.06519
0.0692226
0.0726758
0.0709266
)
;
    }
    procBoundary2to3
    {
        type            processor;
        value           nonuniform List<scalar> 
16
(
-0.00299224
-0.00894102
-0.0146522
-0.0200197
-0.0252838
-0.0305717
-0.0356745
-0.040647
-0.0456505
-0.0505779
-0.0553459
-0.0599989
-0.0645883
-0.0689617
-0.0726034
-0.0709174
)
;
    }
}


// ************************************************************************* //
