/*--------------------------------*- C++ -*----------------------------------*\
| =========                 |                                                 |
| \\      /  F ield         | OpenFOAM: The Open Source CFD Toolbox           |
|  \\    /   O peration     | Version:  2412                                  |
|   \\  /    A nd           | Website:  www.openfoam.com                      |
|    \\/     M anipulation  |                                                 |
\*---------------------------------------------------------------------------*/
FoamFile
{
    version     2.0;
    format      ascii;
    arch        "LSB;label=32;scalar=64";
    class       pointVectorField;
    location    "0.5";
    object      pointDisplacement;
}
// * * * * * * * * * * * * * * * * * * * * * * * * * * * * * * * * * * * * * //

dimensions      [0 1 0 0 0 0 0];

internalField   nonuniform List<vector> 
578
(
(0 0 0)
(0 0 0)
(0 0 0)
(0 0 0)
(0 0 0)
(0 0 0)
(0 0 0)
(0 0 0)
(0 0 0)
(-0.0307356 0.00307267 0)
(-0.0311185 -0.00149256 0)
(-0.0296991 -0.00570603 0)
(-0.0267011 -0.00888981 0)
(-0.0226154 -0.0105898 0)
(-0.0179533 -0.0106685 0)
(-0.013139 -0.00925704 0)
(-0.00840566 -0.00664161 0)
(-0.00594113 -0.0049335 0)
(-0.0605193 0.0053622 0)
(-0.061049 -0.00328636 0)
(-0.0584166 -0.0112409 0)
(-0.0530194 -0.0173662 0)
(-0.0456705 -0.0208952 0)
(-0.0372132 -0.0215634 0)
(-0.0283773 -0.0195371 0)
(-0.0195818 -0.0152215 0)
(-0.0149191 -0.012396 0)
(-0.088939 0.00688861 0)
(-0.0894096 -0.00537735 0)
(-0.0857455 -0.0166268 0)
(-0.0784626 -0.0254387 0)
(-0.0685845 -0.0308543 0)
(-0.0571742 -0.0325127 0)
(-0.045146 -0.0305562 0)
(-0.0330465 -0.0254076 0)
(-0.0264416 -0.0220455 0)
(-0.116127 0.00769583 0)
(-0.116388 -0.00779865 0)
(-0.11183 -0.0219832 0)
(-0.103075 -0.0332777 0)
(-0.0912764 -0.0406174 0)
(-0.0776208 -0.0435738 0)
(-0.0631356 -0.0422453 0)
(-0.0484488 -0.0370272 0)
(-0.0401631 -0.0336979 0)
(-0.142195 0.00779053 0)
(-0.142137 -0.0106052 0)
(-0.136794 -0.0274323 0)
(-0.126902 -0.0410434 0)
(-0.113672 -0.0503317 0)
(-0.0983629 -0.054827 0)
(-0.082057 -0.0545804 0)
(-0.0654313 -0.0499474 0)
(-0.0557053 -0.0471775 0)
(-0.167228 0.00714868 0)
(-0.166768 -0.0138666 0)
(-0.160737 -0.0330969 0)
(-0.149975 -0.048894 0)
(-0.135715 -0.0601485 0)
(-0.119236 -0.0663714 0)
(-0.101641 -0.0675738 0)
(-0.0836376 -0.0640803 0)
(-0.0726842 -0.0623429 0)
(-0.1913 0.00571727 0)
(-0.19036 -0.0176774 0)
(-0.183736 -0.0391111 0)
(-0.172319 -0.0569845 0)
(-0.157343 -0.0702175 0)
(-0.14008 -0.0783208 0)
(-0.121633 -0.081274 0)
(-0.102716 -0.0793796 0)
(-0.0906967 -0.0790813 0)
(-0.214493 0.0034088 0)
(-0.212996 -0.0221512 0)
(-0.205841 -0.0456171 0)
(-0.193936 -0.0654781 0)
(-0.178493 -0.0807027 0)
(-0.160745 -0.0908113 0)
(-0.141777 -0.0957598 0)
(-0.12231 -0.095846 0)
(-0.10934 -0.0973338 0)
(-0.236828 0.000103687 0)
(-0.234711 -0.0274279 0)
(-0.227073 -0.0527799 0)
(-0.214809 -0.0745504 0)
(-0.199077 -0.0917751 0)
(-0.181059 -0.103996 0)
(-0.16182 -0.111155 0)
(-0.142074 -0.11355 0)
(-0.128202 -0.117108 0)
(-0.258299 -0.00438067 0)
(-0.255511 -0.033696 0)
(-0.247413 -0.0607929 0)
(-0.234879 -0.0844012 0)
(-0.218983 -0.103642 0)
(-0.200845 -0.118083 0)
(-0.18149 -0.12765 0)
(-0.161619 -0.132629 0)
(-0.146837 -0.138498 0)
(-0.278861 -0.0102903 0)
(-0.275342 -0.0411936 0)
(-0.266802 -0.0698981 0)
(-0.25405 -0.0952852 0)
(-0.238065 -0.116562 0)
(-0.219873 -0.133329 0)
(-0.200447 -0.145483 0)
(-0.18048 -0.153301 0)
(-0.164663 -0.161671 0)
(-0.298376 -0.017967 0)
(-0.294053 -0.050226 0)
(-0.28505 -0.0803756 0)
(-0.272088 -0.107466 0)
(-0.256033 -0.13081 0)
(-0.237787 -0.150016 0)
(-0.218226 -0.164957 0)
(-0.19802 -0.175855 0)
(-0.180892 -0.186877 0)
(-0.31648 -0.0278081 0)
(-0.311227 -0.0611098 0)
(-0.3017 -0.0925001 0)
(-0.288493 -0.121207 0)
(-0.272308 -0.146642 0)
(-0.253907 -0.168421 0)
(-0.234037 -0.186374 0)
(-0.213303 -0.200629 0)
(-0.194404 -0.214449 0)
(-0.332374 -0.0401516 0)
(-0.326093 -0.074115 0)
(-0.315966 -0.106488 0)
(-0.302404 -0.136677 0)
(-0.285924 -0.164186 0)
(-0.267095 -0.188656 0)
(-0.246521 -0.209859 0)
(-0.224699 -0.227798 0)
(-0.203296 -0.244571 0)
(-0.34409 -0.0549405 0)
(-0.336764 -0.0889611 0)
(-0.325978 -0.121819 0)
(-0.311943 -0.153099 0)
(-0.294936 -0.182428 0)
(-0.27527 -0.209487 0)
(-0.253301 -0.234015 0)
(-0.229358 -0.255853 0)
(-0.204146 -0.275601 0)
(-0.349376 -0.0630174 0)
(-0.341517 -0.0969589 0)
(-0.330369 -0.129966 0)
(-0.316039 -0.161722 0)
(-0.298666 -0.191921 0)
(-0.278416 -0.220271 0)
(-0.255485 -0.2465 0)
(-0.230094 -0.270355 0)
(-0.202486 -0.291606 0)
(0 0 0)
(0 0 0)
(0 0 0)
(0 0 0)
(0 0 0)
(0 0 0)
(0 0 0)
(0 0 0)
(0 0 0)
(-0.0307356 0.00307267 0)
(-0.0311185 -0.00149256 0)
(-0.0296991 -0.00570603 0)
(-0.0267011 -0.00888981 0)
(-0.0226154 -0.0105898 0)
(-0.0179533 -0.0106685 0)
(-0.013139 -0.00925704 0)
(-0.00840566 -0.00664161 0)
(-0.00594113 -0.0049335 0)
(-0.0605193 0.0053622 0)
(-0.061049 -0.00328636 0)
(-0.0584166 -0.0112409 0)
(-0.0530194 -0.0173662 0)
(-0.0456705 -0.0208952 0)
(-0.0372132 -0.0215634 0)
(-0.0283773 -0.0195371 0)
(-0.0195818 -0.0152215 0)
(-0.0149191 -0.012396 0)
(-0.088939 0.00688861 0)
(-0.0894096 -0.00537735 0)
(-0.0857455 -0.0166268 0)
(-0.0784626 -0.0254387 0)
(-0.0685845 -0.0308543 0)
(-0.0571742 -0.0325127 0)
(-0.045146 -0.0305562 0)
(-0.0330465 -0.0254076 0)
(-0.0264416 -0.0220455 0)
(-0.116127 0.00769583 0)
(-0.116388 -0.00779865 0)
(-0.11183 -0.0219832 0)
(-0.103075 -0.0332777 0)
(-0.0912764 -0.0406174 0)
(-0.0776208 -0.0435738 0)
(-0.0631356 -0.0422453 0)
(-0.0484488 -0.0370272 0)
(-0.0401631 -0.0336979 0)
(-0.142195 0.00779053 0)
(-0.142137 -0.0106052 0)
(-0.136794 -0.0274323 0)
(-0.126902 -0.0410434 0)
(-0.113672 -0.0503317 0)
(-0.0983629 -0.054827 0)
(-0.082057 -0.0545804 0)
(-0.0654313 -0.0499474 0)
(-0.0557053 -0.0471775 0)
(-0.167228 0.00714868 0)
(-0.166768 -0.0138666 0)
(-0.160737 -0.0330969 0)
(-0.149975 -0.048894 0)
(-0.135715 -0.0601485 0)
(-0.119236 -0.0663714 0)
(-0.101641 -0.0675738 0)
(-0.0836376 -0.0640803 0)
(-0.0726842 -0.0623429 0)
(-0.1913 0.00571727 0)
(-0.19036 -0.0176774 0)
(-0.183736 -0.0391111 0)
(-0.172319 -0.0569845 0)
(-0.157343 -0.0702175 0)
(-0.14008 -0.0783208 0)
(-0.121633 -0.081274 0)
(-0.102716 -0.0793796 0)
(-0.0906967 -0.0790813 0)
(-0.214493 0.0034088 0)
(-0.212996 -0.0221512 0)
(-0.205841 -0.0456171 0)
(-0.193936 -0.0654781 0)
(-0.178493 -0.0807027 0)
(-0.160745 -0.0908113 0)
(-0.141777 -0.0957598 0)
(-0.12231 -0.095846 0)
(-0.10934 -0.0973338 0)
(-0.236828 0.000103687 0)
(-0.234711 -0.0274279 0)
(-0.227073 -0.0527799 0)
(-0.214809 -0.0745504 0)
(-0.199077 -0.0917751 0)
(-0.181059 -0.103996 0)
(-0.16182 -0.111155 0)
(-0.142074 -0.11355 0)
(-0.128202 -0.117108 0)
(-0.258299 -0.00438067 0)
(-0.255511 -0.033696 0)
(-0.247413 -0.0607929 0)
(-0.234879 -0.0844012 0)
(-0.218983 -0.103642 0)
(-0.200845 -0.118083 0)
(-0.18149 -0.12765 0)
(-0.161619 -0.132629 0)
(-0.146837 -0.138498 0)
(-0.278861 -0.0102903 0)
(-0.275342 -0.0411936 0)
(-0.266802 -0.0698981 0)
(-0.25405 -0.0952852 0)
(-0.238065 -0.116562 0)
(-0.219873 -0.133329 0)
(-0.200447 -0.145483 0)
(-0.18048 -0.153301 0)
(-0.164663 -0.161671 0)
(-0.298376 -0.017967 0)
(-0.294053 -0.050226 0)
(-0.28505 -0.0803756 0)
(-0.272088 -0.107466 0)
(-0.256033 -0.13081 0)
(-0.237787 -0.150016 0)
(-0.218226 -0.164957 0)
(-0.19802 -0.175855 0)
(-0.180892 -0.186877 0)
(-0.31648 -0.0278081 0)
(-0.311227 -0.0611098 0)
(-0.3017 -0.0925001 0)
(-0.288493 -0.121207 0)
(-0.272308 -0.146642 0)
(-0.253907 -0.168421 0)
(-0.234037 -0.186374 0)
(-0.213303 -0.200629 0)
(-0.194404 -0.214449 0)
(-0.332374 -0.0401516 0)
(-0.326093 -0.074115 0)
(-0.315966 -0.106488 0)
(-0.302404 -0.136677 0)
(-0.285924 -0.164186 0)
(-0.267095 -0.188656 0)
(-0.246521 -0.209859 0)
(-0.224699 -0.227798 0)
(-0.203296 -0.244571 0)
(-0.34409 -0.0549405 0)
(-0.336764 -0.0889611 0)
(-0.325978 -0.121819 0)
(-0.311943 -0.153099 0)
(-0.294936 -0.182428 0)
(-0.27527 -0.209487 0)
(-0.253301 -0.234015 0)
(-0.229358 -0.255853 0)
(-0.204146 -0.275601 0)
(-0.349376 -0.0630174 0)
(-0.341517 -0.0969589 0)
(-0.330369 -0.129966 0)
(-0.316039 -0.161722 0)
(-0.298666 -0.191921 0)
(-0.278416 -0.220271 0)
(-0.255485 -0.2465 0)
(-0.230094 -0.270355 0)
(-0.202486 -0.291606 0)
(0 0 0)
(0 0 0)
(0 0 0)
(0 0 0)
(0 0 0)
(0 0 0)
(0 0 0)
(0 0 0)
(-0.00774776 -0.00669347 0)
(-0.010605 -0.0101436 0)
(-0.0124122 -0.0138087 0)
(-0.0130722 -0.0177408 0)
(-0.0124655 -0.0217974 0)
(-0.0105056 -0.0256277 0)
(-0.00728024 -0.0287963 0)
(-0.00309513 -0.0308052 0)
(-0.0178794 -0.0157861 0)
(-0.0226676 -0.0224174 0)
(-0.0254196 -0.0294515 0)
(-0.0259948 -0.0369218 0)
(-0.0242033 -0.0444947 0)
(-0.019961 -0.0515179 0)
(-0.0134922 -0.0571863 0)
(-0.0054055 -0.060651 0)
(-0.0299388 -0.0269997 0)
(-0.0357285 -0.036485 0)
(-0.0386244 -0.0465413 0)
(-0.0384554 -0.0570918 0)
(-0.0350119 -0.0676066 0)
(-0.0282692 -0.0771743 0)
(-0.0186183 -0.0847043 0)
(-0.00694831 -0.0891199 0)
(-0.0436083 -0.0401802 0)
(-0.0495406 -0.0522146 0)
(-0.051846 -0.0649284 0)
(-0.0503545 -0.0781034 0)
(-0.0448732 -0.0910102 0)
(-0.0354771 -0.102531 0)
(-0.0227328 -0.111374 0)
(-0.00776781 -0.116344 0)
(-0.0585617 -0.0551828 0)
(-0.0638396 -0.0694631 0)
(-0.0649014 -0.0844775 0)
(-0.0615904 -0.0998278 0)
(-0.0537613 -0.114606 0)
(-0.0416083 -0.127536 0)
(-0.0258693 -0.137218 0)
(-0.00786869 -0.142437 0)
(-0.0744541 -0.0718693 0)
(-0.0783647 -0.0881126 0)
(-0.0776035 -0.105063 0)
(-0.0720473 -0.122148 0)
(-0.0616227 -0.138306 0)
(-0.0466538 -0.152161 0)
(-0.0280323 -0.162274 0)
(-0.00722959 -0.16748 0)
(-0.0909361 -0.0901318 0)
(-0.0928404 -0.108053 0)
(-0.0897513 -0.126588 0)
(-0.0815931 -0.144983 0)
(-0.0683838 -0.16206 0)
(-0.0505748 -0.176397 0)
(-0.0291888 -0.186588 0)
(-0.00579663 -0.191548 0)
(-0.107638 -0.109894 0)
(-0.106974 -0.129221 0)
(-0.101119 -0.148978 0)
(-0.0900604 -0.168264 0)
(-0.073924 -0.185828 0)
(-0.0532844 -0.200259 0)
(-0.0292646 -0.210226 0)
(-0.0034847 -0.214726 0)
(-0.124174 -0.131148 0)
(-0.120433 -0.151592 0)
(-0.111429 -0.172205 0)
(-0.0972274 -0.191975 0)
(-0.078071 -0.209617 0)
(-0.054645 -0.22377 0)
(-0.0281395 -0.233198 0)
(-0.000169771 -0.237036 0)
(-0.140111 -0.153961 0)
(-0.132824 -0.175223 0)
(-0.120334 -0.196313 0)
(-0.102795 -0.216131 0)
(-0.0805715 -0.23342 0)
(-0.0544454 -0.246899 0)
(-0.0256256 -0.255477 0)
(0.00432994 -0.258479 0)
(-0.154865 -0.178469 0)
(-0.143608 -0.200224 0)
(-0.127336 -0.221359 0)
(-0.106326 -0.240745 0)
(-0.0810541 -0.257191 0)
(-0.0523692 -0.26957 0)
(-0.0214534 -0.276999 0)
(0.0102616 -0.279005 0)
(-0.167593 -0.204863 0)
(-0.151982 -0.226707 0)
(-0.131698 -0.247359 0)
(-0.107171 -0.265735 0)
(-0.0789739 -0.280801 0)
(-0.0479634 -0.29166 0)
(-0.0152262 -0.297659 0)
(0.017976 -0.29849 0)
(-0.177087 -0.233375 0)
(-0.156782 -0.254737 0)
(-0.132386 -0.27422 0)
(-0.104441 -0.290898 0)
(-0.0735745 -0.303993 0)
(-0.0406011 -0.312873 0)
(-0.00644229 -0.317117 0)
(0.0278539 -0.316561 0)
(-0.181376 -0.263975 0)
(-0.156207 -0.283966 0)
(-0.127899 -0.301336 0)
(-0.0969734 -0.315483 0)
(-0.0640078 -0.325941 0)
(-0.0296673 -0.332362 0)
(0.00532678 -0.334537 0)
(0.040206 -0.332421 0)
(-0.177181 -0.294576 0)
(-0.1478 -0.311792 0)
(-0.116464 -0.325947 0)
(-0.0835674 -0.336787 0)
(-0.0495198 -0.344123 0)
(-0.0147687 -0.34782 0)
(0.0202188 -0.347812 0)
(0.0549631 -0.344103 0)
(-0.172929 -0.310049 0)
(-0.141706 -0.325506 0)
(-0.109118 -0.337828 0)
(-0.0754799 -0.346897 0)
(-0.0411146 -0.352625 0)
(-0.00635332 -0.354957 0)
(0.0284692 -0.353871 0)
(0.0630174 -0.349376 0)
(0 0 0)
(0 0 0)
(0 0 0)
(0 0 0)
(0 0 0)
(0 0 0)
(0 0 0)
(0 0 0)
(-0.00774776 -0.00669347 0)
(-0.010605 -0.0101436 0)
(-0.0124122 -0.0138087 0)
(-0.0130722 -0.0177408 0)
(-0.0124655 -0.0217974 0)
(-0.0105056 -0.0256277 0)
(-0.00728024 -0.0287963 0)
(-0.00309513 -0.0308052 0)
(-0.0178794 -0.0157861 0)
(-0.0226676 -0.0224174 0)
(-0.0254196 -0.0294515 0)
(-0.0259948 -0.0369218 0)
(-0.0242033 -0.0444947 0)
(-0.019961 -0.0515179 0)
(-0.0134922 -0.0571863 0)
(-0.0054055 -0.060651 0)
(-0.0299388 -0.0269997 0)
(-0.0357285 -0.036485 0)
(-0.0386244 -0.0465413 0)
(-0.0384554 -0.0570918 0)
(-0.0350119 -0.0676066 0)
(-0.0282692 -0.0771743 0)
(-0.0186183 -0.0847043 0)
(-0.00694831 -0.0891199 0)
(-0.0436083 -0.0401802 0)
(-0.0495406 -0.0522146 0)
(-0.051846 -0.0649284 0)
(-0.0503545 -0.0781034 0)
(-0.0448732 -0.0910102 0)
(-0.0354771 -0.102531 0)
(-0.0227328 -0.111374 0)
(-0.00776781 -0.116344 0)
(-0.0585617 -0.0551828 0)
(-0.0638396 -0.0694631 0)
(-0.0649014 -0.0844775 0)
(-0.0615904 -0.0998278 0)
(-0.0537613 -0.114606 0)
(-0.0416083 -0.127536 0)
(-0.0258693 -0.137218 0)
(-0.00786869 -0.142437 0)
(-0.0744541 -0.0718693 0)
(-0.0783647 -0.0881126 0)
(-0.0776035 -0.105063 0)
(-0.0720473 -0.122148 0)
(-0.0616227 -0.138306 0)
(-0.0466538 -0.152161 0)
(-0.0280323 -0.162274 0)
(-0.00722959 -0.16748 0)
(-0.0909361 -0.0901318 0)
(-0.0928404 -0.108053 0)
(-0.0897513 -0.126588 0)
(-0.0815931 -0.144983 0)
(-0.0683838 -0.16206 0)
(-0.0505748 -0.176397 0)
(-0.0291888 -0.186588 0)
(-0.00579663 -0.191548 0)
(-0.107638 -0.109894 0)
(-0.106974 -0.129221 0)
(-0.101119 -0.148978 0)
(-0.0900604 -0.168264 0)
(-0.073924 -0.185828 0)
(-0.0532844 -0.200259 0)
(-0.0292646 -0.210226 0)
(-0.0034847 -0.214726 0)
(-0.124174 -0.131148 0)
(-0.120433 -0.151592 0)
(-0.111429 -0.172205 0)
(-0.0972274 -0.191975 0)
(-0.078071 -0.209617 0)
(-0.054645 -0.22377 0)
(-0.0281395 -0.233198 0)
(-0.000169771 -0.237036 0)
(-0.140111 -0.153961 0)
(-0.132824 -0.175223 0)
(-0.120334 -0.196313 0)
(-0.102795 -0.216131 0)
(-0.0805715 -0.23342 0)
(-0.0544454 -0.246899 0)
(-0.0256256 -0.255477 0)
(0.00432994 -0.258479 0)
(-0.154865 -0.178469 0)
(-0.143608 -0.200224 0)
(-0.127336 -0.221359 0)
(-0.106326 -0.240745 0)
(-0.0810541 -0.257191 0)
(-0.0523692 -0.26957 0)
(-0.0214534 -0.276999 0)
(0.0102616 -0.279005 0)
(-0.167593 -0.204863 0)
(-0.151982 -0.226707 0)
(-0.131698 -0.247359 0)
(-0.107171 -0.265735 0)
(-0.0789739 -0.280801 0)
(-0.0479634 -0.29166 0)
(-0.0152262 -0.297659 0)
(0.017976 -0.29849 0)
(-0.177087 -0.233375 0)
(-0.156782 -0.254737 0)
(-0.132386 -0.27422 0)
(-0.104441 -0.290898 0)
(-0.0735745 -0.303993 0)
(-0.0406011 -0.312873 0)
(-0.00644229 -0.317117 0)
(0.0278539 -0.316561 0)
(-0.181376 -0.263975 0)
(-0.156207 -0.283966 0)
(-0.127899 -0.301336 0)
(-0.0969734 -0.315483 0)
(-0.0640078 -0.325941 0)
(-0.0296673 -0.332362 0)
(0.00532678 -0.334537 0)
(0.040206 -0.332421 0)
(-0.177181 -0.294576 0)
(-0.1478 -0.311792 0)
(-0.116464 -0.325947 0)
(-0.0835674 -0.336787 0)
(-0.0495198 -0.344123 0)
(-0.0147687 -0.34782 0)
(0.0202188 -0.347812 0)
(0.0549631 -0.344103 0)
(-0.172929 -0.310049 0)
(-0.141706 -0.325506 0)
(-0.109118 -0.337828 0)
(-0.0754799 -0.346897 0)
(-0.0411146 -0.352625 0)
(-0.00635332 -0.354957 0)
(0.0284692 -0.353871 0)
(0.0630174 -0.349376 0)
)
;

boundaryField
{
    walls
    {
        type            fixedValue;
        value           uniform (0 0 0);
    }
    cylinder
    {
        type            solidBodyMotionDisplacement;
        value           nonuniform List<vector> 
34
(
(-0.349376 -0.0630174 0)
(-0.349376 -0.0630174 0)
(-0.341517 -0.0969589 0)
(-0.341517 -0.0969589 0)
(-0.330369 -0.129966 0)
(-0.330369 -0.129966 0)
(-0.316039 -0.161722 0)
(-0.316039 -0.161722 0)
(-0.298666 -0.191921 0)
(-0.298666 -0.191921 0)
(-0.278416 -0.220271 0)
(-0.278416 -0.220271 0)
(-0.255485 -0.2465 0)
(-0.255485 -0.2465 0)
(-0.230094 -0.270355 0)
(-0.230094 -0.270355 0)
(-0.202486 -0.291606 0)
(-0.202486 -0.291606 0)
(-0.172929 -0.310049 0)
(-0.172929 -0.310049 0)
(-0.141706 -0.325506 0)
(-0.141706 -0.325506 0)
(-0.109118 -0.337828 0)
(-0.109118 -0.337828 0)
(-0.0754799 -0.346897 0)
(-0.0754799 -0.346897 0)
(-0.0411146 -0.352625 0)
(-0.0411146 -0.352625 0)
(-0.00635332 -0.354957 0)
(-0.00635332 -0.354957 0)
(0.0284692 -0.353871 0)
(0.0284692 -0.353871 0)
(0.0630174 -0.349376 0)
(0.0630174 -0.349376 0)
)
;
        solidBodyMotionFunction oscillatingRotatingMotion;
        oscillatingRotatingMotionCoeffs
        {
            origin          ( 0 0 0 );
            axis            ( 0 0 1 );
            omega           1.5;
            amplitude       ( 0 0 30 );
        }
    }
    outlet
    {
        type            fixedValue;
        value           nonuniform List<vector> 0();
    }
    inlet
    {
        type            fixedValue;
        value           uniform (0 0 0);
    }
    frontAndBack
    {
        type            empty;
    }
    procBoundary2to0
    {
        type            processor;
    }
    procBoundary2to3
    {
        type            processor;
    }
}


// ************************************************************************* //
