/*--------------------------------*- C++ -*----------------------------------*\
| =========                 |                                                 |
| \\      /  F ield         | OpenFOAM: The Open Source CFD Toolbox           |
|  \\    /   O peration     | Version:  2412                                  |
|   \\  /    A nd           | Website:  www.openfoam.com                      |
|    \\/     M anipulation  |                                                 |
\*---------------------------------------------------------------------------*/
FoamFile
{
    version     2.0;
    format      ascii;
    arch        "LSB;label=32;scalar=64";
    class       volScalarField;
    location    "1688";
    object      p;
}
// * * * * * * * * * * * * * * * * * * * * * * * * * * * * * * * * * * * * * //

dimensions      [0 2 -2 0 0 0 0];

internalField   nonuniform List<scalar> 
808
(
-0.03381094522699042
0.04437835156810444
-0.01170813638924664
0.03715641391913899
-0.2976599713043661
-0.05514542099493654
-0.01510562230560389
-0.02387101063435972
-0.1957065638045413
-0.0832653626638212
-0.009720431987488867
-0.2526930985752724
-0.03059861667127671
-0.01354462686547638
-0.1245542606439189
-0.01406565389034041
-0.1425020799115269
-0.01363129666566407
-0.01295221502357267
-0.05524753820135937
-0.007021117755397012
0.1170496246125345
-0.06262324186958343
-0.07112203087156362
0.1747328231473879
-0.09980916638008377
-0.1514891575269632
-0.0204085584225873
-0.01754736422559143
-0.02587035148442508
-0.02027817499685901
-0.05799616720089541
-0.02293485946554383
-0.01692860082086082
-0.09866072460697044
0.3449890449025375
-0.03937687204047255
-0.01674236552434982
-0.02275147827954124
-0.02656054750113063
-0.08954478894822555
-0.1256892102720487
-0.05208429723579478
-0.02096401204329392
-0.05551284694137345
-0.04171241960602001
-0.01216245266887475
-0.183224474362208
-0.0268313719225527
-0.2028230507482182
-0.01657937152682758
-0.06667153758703827
-0.06099722417266581
-0.01521798852641528
-0.1942148834790445
-0.02814410612838465
-0.01093153588066332
-0.01530074042917897
-0.0995925588646807
-0.03951111293052045
-0.1006502000979577
-0.1251272078807811
-0.01398423653751969
-0.126968380290919
-0.01713105444541165
-0.05188279711076359
-0.161794222785828
-0.0355424948779207
-0.01520854848645595
-0.4387938779538244
-0.02645205591069016
-0.3009260007929783
-0.02155938999775322
-0.02059545921648923
-0.06348085653454903
-0.01784919919177659
-0.04225318505473281
-0.365765885877945
-0.0360055399184348
0.03923665881341926
-0.09200979039338282
-0.01698545998601479
0.05704925142859429
0.04561053247867038
-0.01712791820829289
-0.0518604760068886
-0.5402034874452001
-0.2273782848867241
-0.05176544986787265
-0.1131144385336326
-0.05609438680287888
-0.1315255354538707
0.038909675845891
-0.02581759393241576
-0.06209055331196356
-0.1161207165298431
-0.03835707341141646
-0.05238241745581224
-0.1151254775106482
-0.1363829323356947
-0.0526091748739843
-0.0470509585554607
-0.05397943439300967
-0.04450613469324935
-0.05710866701752161
-0.074845848422106
-0.04127888996160983
-0.01116097768344851
-0.04006326843581427
-0.1230450311026983
-0.0501438207817579
0.08169259472135683
-0.04219590307862929
-0.008219899726975491
-0.02771382258619283
0.1808987189975752
-0.03849360656000377
-0.2673464449087161
-0.02047858718110709
-0.0530980082877807
-0.03234276354880046
-0.04894089734859208
0.01375779387271264
-0.04816009123793209
-0.03596248298552667
-0.2187425928817388
-0.04056619810927903
-0.004862430259944916
-0.07521703328038234
-0.06910545387396629
-0.1423793145021186
-0.02092558494940956
-0.07459645722087083
-0.04346986221338964
-0.02284241966700017
-0.0153397278470889
-0.006341927422022413
-0.007288235826298798
-0.05218738701458495
-0.04937009984382126
-0.2180286822291443
-0.05598074058322476
-0.008370608959396163
-0.02214216852509976
-0.1479942311389055
-0.002797306800731139
-0.07573221129901195
-0.02142675980210836
-0.0008145834917050717
-0.01107007346971435
-0.03317346296055686
0.09359156702628417
-0.03831518544752041
0.2517529329394355
-0.2688494065615407
-0.1329277152323429
-0.03758007849141477
-0.09094191323888773
-0.009416072193910829
-0.1139310036288455
-0.1768737181621206
-0.2198576877396602
-0.1759089288834962
0.05667446632511051
-0.0632398569639938
-0.02044394968821078
-0.06654972526239462
-0.165065607013829
-0.02329968335337706
-0.01838140412923261
-0.05149508028272516
-0.02010165820608896
-0.007028924436615446
-0.1065930967283988
-0.02315502131646377
-0.04459131092663753
-0.0703995207548441
-0.1598934192843264
-0.03329569904011216
-0.3880208566341297
-0.01786291332798971
-0.226467291774685
-0.0438984592347416
0.0326817589882127
-0.1064751815264509
-0.01590788670146288
-0.04274649921076738
-0.1035958076748946
-0.01769261666477517
-0.09479428359867836
-0.2077935074159923
-0.07126402252298301
-0.02388179099854271
-0.04756963900898558
-0.04239753481578123
-0.2044857000545924
-0.02210544144389994
-0.01911594288838038
-0.01127897200745389
-0.05664492456633925
-0.05015997885734252
-0.02239579556530134
-0.02077934620348751
-0.2397298390124487
0.1271036427902627
-0.2057253232560453
-0.1939636293527671
-0.01178284040430692
-0.01136613509972572
-0.06683376435317245
-0.0102578809929441
-0.5019614005566821
-0.1202922373278067
-0.01925680742201158
-2.678081652705138e-05
-0.02389791533514245
-0.2798912080079875
-0.2791888548688887
-0.00712264217751285
-0.01714743143672356
-0.001177099242873664
-0.3501619481829626
-0.02836606625992017
-0.02919657949588645
-0.01254060693108492
-0.01960652122086589
0.0492367170604063
-0.1122060978792395
-0.01428951121161107
-0.02084070186424909
-0.04481744910970697
-0.01826601548381073
-0.01620765204765761
-0.02347100057425129
-0.06778178714246287
-0.01136528716457178
-0.01901085109535664
-0.008657404085321953
-0.0007577388791790366
-0.02946844221636099
-0.001823967869173459
-0.002117411366670444
-0.005783743735549601
-0.02558224510432516
-0.007964770789331542
0.001469308061151059
-0.004284727254438785
0.001393267081807147
0.002518729323541628
-0.008953334116058963
-0.1384615953006207
-0.002960139272343056
-0.001345092076360775
-0.04807390116279544
-0.02157681627513318
-0.02407880993177917
-0.01427225958188617
-0.00619641056929114
-0.02093463849101177
-0.03951424722640461
-0.0143195891469972
-0.01290126451201131
-0.01137877359787134
0.008828329858197695
-0.01007996432973365
-0.01194901968430109
-0.01153587320192481
-0.0105058259776402
-0.01037387319291779
-0.01216188459544574
-0.01384664392986877
-0.3014236661668582
0.05929369448998933
-0.01586531208640905
-0.01511844385348458
-0.01283549365846816
-0.01180835435347269
-0.008675150313201976
-0.09650269951751292
0.01260025297058593
-0.01369695904209198
-0.01403762019332432
-0.01059104872046437
-0.05133770807783812
-0.0101203008961913
-0.01353026997605817
-0.01022946958115853
-0.000358083480144417
-0.01106950183280856
-0.0122290408376919
-0.02449756962094617
-0.01556439151977516
-0.01193829065359181
-0.01355662020878548
-0.007561367085668101
-0.01208920550656264
-0.01168429946991083
-0.05913550384199584
-0.01346850349184775
-0.01137100350303833
-0.008957619522406032
-0.01505449781271404
-0.01364968273204223
-0.01561553667617653
-1.365735901833379
-0.0999696928526134
-0.01321324508528581
0.02641785793533544
-0.1614884039328495
-0.09145893319764868
-0.01207109443116264
-0.01406845960101417
-0.2347134306535031
-0.02866169106017583
-0.01813565163839331
-0.01175969845551742
-0.01997940931855647
-0.0101500315507928
-0.03078097248985557
-0.409191394940051
-0.01239835660203875
-0.01410233997641019
-0.004634004815050182
-0.01131184104836156
-0.0107504446578197
-0.01404688358897989
-0.00660407235552342
-0.02669676173943454
-0.01173028682259576
-0.171083077460471
0.01902158144829415
-0.007423152251470764
0.004172115922924579
0.01349336158059086
-0.04838137320233427
0.02812735971744854
-0.01337850623509377
-0.1323814249150949
0.2828417192279972
-0.007488288617564424
-0.01364869397998124
-0.008130916439597562
-0.03262058982775332
-0.1249340180475879
-0.01220075232994866
-0.01208743440612266
-0.01691253434617156
-0.01352379171281809
-0.04141562680530638
-0.218809962270119
-0.009976036730236934
-0.0430374431512793
-0.03896921163843668
-0.1748420216731194
-0.1584382583410754
-0.1354666229897792
-0.2270902029177151
-0.005258927993304025
-0.02091150469445902
-0.01435445111227983
-0.01309878549530147
-0.03344822687569394
-0.02450956256257017
-0.01419585821249579
-0.01488290639886198
-1.070256746265912
-0.005871405452634947
-0.01322541656709338
-0.01827755192029773
-0.02457327582351291
0.0001702882137243054
-0.0148868167895153
-0.02574725322421778
-0.1495061602329453
-0.01361175962559536
-0.02177675124051973
-0.01401289622084546
-0.001456150008017955
-0.1777951851740805
-0.01273020401297742
-0.1473522839524754
-0.01576743164850929
0.002862875293588497
-0.01442772248786889
-0.02375479201862864
-0.01572263299966065
0.005221779664309657
-0.2710674903442158
-0.02615642929798741
-0.01622981084387422
-0.005058977884118267
-0.01018084932744314
-0.02969589468207601
-0.01402799190120072
-0.02067274168264682
-0.02085397550553732
0.01450561908178027
-0.09814427203673776
-0.02150218571251928
0.009390651634883137
-0.05641772956344992
0.175563025526933
-0.1056758412508827
-0.315870700689185
-0.03082374585632289
-0.02571653713653563
0.1513426691153936
0.07818166691159517
-0.003723001372449676
0.05051980233085676
-0.01519188672922565
-0.01386260085766797
0.002512064969654635
0.008918589821715433
-0.06518907855172654
-0.005645291127774396
-0.05638021424108404
-0.02251068231823587
-0.01572578613619892
-0.03653537877043909
-0.03291586702387056
-0.006659412395664797
-0.01501383195460055
-0.03710295662164217
0.03533310343711273
-0.03878018452513703
-0.0139475035566795
-0.1188394237791929
-0.03148846644528037
-0.03945486013734405
-0.6692546595905722
0.0195953258468507
-0.01029825519684228
-0.005856215927611741
0.1668420764431637
-0.09139014753708477
-0.03547117898093717
-0.2426515406981537
-0.01607638627266978
-0.01627621204065026
0.0764671633612462
-0.1802241214221764
-0.2350294547413773
-0.191061323143336
-0.6777976263221733
0.002401371141344611
-0.01809542381451897
-0.01664819074990912
-0.08651619260872417
0.1186510496701285
-0.02097788262518518
-0.2287446620872983
-0.03573883855590923
-0.006753814791558049
0.2808856551341455
-0.01110029926838071
-0.09126290131021231
-0.1523195605883402
-0.003453118302336373
-0.041146549465989
-0.05240384457638215
-0.2004576708048092
-0.008057335973773854
-0.04017919827936168
-0.002719779001507259
-0.5442169003401616
-0.193384132580078
-0.1784713504616244
-0.02311080913543593
-0.008071834504663948
-0.06157129661858626
-0.056773934513857
-0.01390107243134898
-0.06906767626348344
0.004804655282273923
-0.0179052434768172
-0.09336315289077798
-0.2743024192744304
-0.007882856993708137
-0.02574993041047554
-0.0216108093808959
-0.07580105734003946
-0.08924336331872797
-0.08926510762936063
-0.01203311212968967
-0.913594122182314
0.1622994203708991
-0.07945464089853164
-0.2489677595088915
-0.04160308813414958
-0.009944790225587244
-0.2549709957569809
-0.1960292943746665
-0.03116364066659459
-0.1237335739245839
-0.01955866869352548
0.5638126086084853
-0.02467601279042356
-0.2214823159625883
-0.02533300261090459
-0.005324873247124639
-0.01155285025462521
-1.242551722405373
-0.1797549308492491
-0.22751697679223
0.00523312940328987
-0.03879019623441735
-0.2453408089938001
-0.06665154784275647
-0.05178965214996581
-0.1459518144728628
-0.1807956405276538
-0.06941926440944712
-1.21662210816518
-0.1498758526071081
-0.5343141500949019
0.07982108890360176
-0.006001033279559765
-0.021289348803464
-0.04419023072320938
-0.03841033041401951
-0.02817887503117564
-0.1287996269575098
0.08143941564828291
-0.002158833783690721
-0.009977989605112444
-0.569251358993425
-0.8526544279950823
-0.1776831717423833
-0.008152972791405503
-0.1329601325867528
0.0006922494653210657
-0.0001346102488096462
-0.0022734745505636
-0.06064351006828436
-0.2340332532054189
-0.01327323465936339
-0.1191309533777832
-0.1578184303720465
-0.01315875350032092
-0.03483048066037726
0.02714703342595305
-0.05834762792367018
-0.07146655841194392
-0.4954068683834798
-0.2127589021148601
-0.07940332331372808
-0.07499499363612835
-0.01956251043340181
-0.1206232604389597
-0.1572418912428624
-0.07719954339143563
0.0231419272475449
-0.08654172565610455
-0.0498599783863938
-0.0148779043850311
-0.1082567043431541
-0.2785208614166049
-0.05891972825065009
-0.01815686856385173
-0.0005438564473942666
-0.01002898019518714
-0.01078012082570769
-0.2272219140766251
-0.01505071779346778
-0.2171617759103021
-0.01031638558076086
-0.07295867343588394
-0.004416418084893039
-0.02325874018750426
-0.3879536888820884
-0.9249241228433713
-0.01130643292275878
-1.039162881663236
-0.6046253791156911
-0.01045994391095553
-0.6646610177365216
-0.1854803112915885
-0.005903858728743526
-0.1268382521451712
-0.0166776111791989
-0.1249422679227445
-0.06519430251148693
-0.08140349560353183
-0.005103477957221861
-0.002327500979534209
-1.348916546733948
-0.01149151354161397
-0.1781920377112662
0.0008369884323463464
-1.00257962117521
-1.248192057148484
-0.07869483906265945
0.01650482960328967
0.1646296711845857
-0.004492887588890675
-0.02302921355757009
-0.004199412703840588
-0.2452621423445651
0.3656300089482272
-0.04178262692846973
-0.2136849991343115
-0.01496769878284289
-0.6475367224468958
-0.07254144907213579
0.1884852197373513
-0.295176133179525
-0.05044995741246694
-0.06984412218128228
-0.01584173060663432
-0.02158663114066474
-0.5886486747334394
-0.1495770091724562
-0.08985869589384626
-0.1228017889283311
-0.5493433621714738
-0.04492748556118057
-0.8995448957455406
0.000638217030478562
-0.242603940268973
-1.058500130679741
0.1628678355324596
0.2888305742611871
-0.1803656599972086
-0.188568807195978
-0.2151040637414861
-0.06638281029701892
0.02304074176492462
0.04318896828341127
0.003239291543545671
-0.1628692660510724
0.02623791098967258
-1.368872703997985
-0.08663803900432868
-0.4791712622827978
-0.3355631740641122
-0.2126846560352936
-0.1800815188203527
-0.01692202699994421
-0.015439035875023
-0.10204885468263
0.175102070667133
0.3842453814071173
-0.1997022265599084
-0.1443722241230709
-0.2203801419743358
-0.06328431486492299
-0.1546203385245156
-0.16883590859308
-0.1273026811838124
-0.1202894885143804
0.4630002106218435
-0.2779244425984411
0.434304182299331
-0.5915220155931636
0.07310946538028487
-0.1941381195735876
-0.06739281265954869
-0.07747606938119711
-0.8917199478555382
-0.2138493315160356
-0.1933152923849681
-0.3527513577419557
-0.4645408398088018
0.5698833876341568
-0.2145641181614422
0.002433355210009561
-0.06767504037336516
0.3462764482856555
-0.03520160405803363
-0.1299212853065128
-0.1820483544723403
-0.06348333872865983
-0.01647257675447571
-0.2000290130142523
0.1986953524440164
-0.01288504675584367
-0.09807313086694318
-0.1753747930950839
-0.3215959261394984
-0.3085517063686121
-0.07184942206263013
-0.01000730494007007
-0.08251947400544692
-0.6471753742418853
-0.6774875607667512
-0.3304820667932665
-0.05874750903735527
-0.04978866206861818
-0.02482466935764007
-0.06956388065841494
-0.05533630799632244
-0.3654608653402064
-0.9662046093738582
-0.009995465594315573
-0.08473217172433874
-1.148196082778187
-1.043434343032912
-0.1099814493672151
-0.04124012802264245
-0.06811250740284609
0.3878212989884965
-0.3391927527860545
-0.04897482966933155
-0.6058058492218202
-0.1276512678285003
-0.248696288608726
-0.214653191939036
0.4730859442089373
-0.6362279847984972
0.07752869643042726
-0.02878344948896982
-0.5674724916221079
-0.05393328710165179
-0.3672471549442611
0.1103535325187868
-0.1929048630746543
-0.06098715926263704
-0.1336386514730475
-0.3563029201763489
-0.08297618649256813
0.5162835369246939
0.08705223874282102
0.469004954518853
-0.1027835743784923
-0.2055783469748497
-0.5134887313515578
-0.1351834447905791
0.02465012593234616
-0.05507736823585761
0.09936601963310088
-0.3006864910907016
0.23651492511152
0.004874442652657984
-0.002835709336537276
-0.5073606624904113
-0.1818782184985994
-0.08454276501076745
0.5816351111832255
0.139700089438095
0.3418884866572828
0.2253310915344995
-0.5681292037603283
-0.1916904504835432
-0.2256429285156364
-0.2212768060008151
-0.06175663913260487
-0.6870945478136559
-0.1886969368246972
0.3041006237714564
-0.1888264989972452
-0.01146016507104024
-0.1629885349568057
-0.0113518251738742
-0.1638459526576592
-0.4438173643916491
-0.07582442079635283
-0.2067633216271508
-0.07220889890021488
-0.09302690673142242
-0.1398937302906452
-0.07210254869372489
-0.4460416701909283
-0.4092753308048144
-0.02325221924600227
-0.07713645617561389
0.3310986133497918
-0.2509886953128304
-0.1772259904754858
0.523510084634101
-0.2005391292528268
0.02143357318411359
-0.454911617825183
0.05217716401510666
-0.05985916773309339
-0.1391125366970603
-0.5909932560799066
0.1574980210850883
-0.5742262513658809
-0.5408197865556944
-0.1013087766129483
-0.5135707973254184
-0.03644167045898424
-0.1450574064128695
-0.4158835724106175
-0.01609736337723692
0.2887355978330478
0.4900801055144374
-0.1638902385304619
-0.005715962362084336
-0.08588581936480121
0.5250419483321249
-0.03248552753299572
-0.4446881520969116
-0.03211476311173408
0.4623445512682996
-0.01690805853322108
-0.5498616373362485
-0.2479744467021741
0.1784954731871257
-0.3146046804917672
-0.1821231801455606
0.04717195416028072
0.03173542381733568
0.05645353471638028
-0.3034394022356354
-0.1603707041113025
0.4128714688944831
)
;

boundaryField
{
    FrontBack
    {
        type            empty;
    }
    Top
    {
        type            zeroGradient;
    }
    In
    {
        type            zeroGradient;
    }
    Bottom
    {
        type            zeroGradient;
    }
    Out
    {
        type            fixedValue;
        value           uniform 0;
    }
    circle
    {
        type            zeroGradient;
    }
}


// ************************************************************************* //
