/*--------------------------------*- C++ -*----------------------------------*\
| =========                 |                                                 |
| \\      /  F ield         | OpenFOAM: The Open Source CFD Toolbox           |
|  \\    /   O peration     | Version:  2412                                  |
|   \\  /    A nd           | Website:  www.openfoam.com                      |
|    \\/     M anipulation  |                                                 |
\*---------------------------------------------------------------------------*/
FoamFile
{
    version     2.0;
    format      ascii;
    arch        "LSB;label=32;scalar=64";
    class       volScalarField;
    location    "210";
    object      p;
}
// * * * * * * * * * * * * * * * * * * * * * * * * * * * * * * * * * * * * * //

dimensions      [0 2 -2 0 0 0 0];

internalField   nonuniform List<scalar> 
808
(
-0.03292855936636604
0.04386142530839866
-0.01140693434051352
0.0380493914464406
-0.294889464291466
-0.05560423829595078
-0.01557383983007501
-0.023997010569248
-0.1937789367817238
-0.08228662959546855
-0.01019779674363294
-0.2504663459452057
-0.03068417972822427
-0.01402998636467725
-0.1249230568169786
-0.01418639506595826
-0.1421027963752214
-0.01373560610328478
-0.01302569779859574
-0.05448370242312001
-0.007789297265147955
0.1163875512481741
-0.0636396756155137
-0.0701516776157282
0.1739267054958891
-0.1004315502410052
-0.1498574617970493
-0.02048004169598835
-0.01764745214150861
-0.02569884606015583
-0.02038089125740996
-0.05717802648280408
-0.02284456339367816
-0.01697719355359119
-0.09775569979665645
0.345197316338049
-0.03996254005061976
-0.01658095929569527
-0.02245836982753741
-0.02651947041835856
-0.08864224372810495
-0.1243318384843234
-0.05291221305505216
-0.02130223097650909
-0.05548697034258156
-0.04274310102750092
-0.01198452875036434
-0.1814073513135081
-0.0264565456809856
-0.2008577294163151
-0.01704763417587061
-0.06569414587316992
-0.06191112939189232
-0.0151642124498559
-0.1962602511922099
-0.02771200600066796
-0.01094451662578644
-0.01542677875727495
-0.09841973563625131
-0.0389364209647052
-0.1069809074297265
-0.1236253413308172
-0.01444196021746133
-0.1261801381123353
-0.01741364202927007
-0.05269570394946135
-0.1601488097320281
-0.03543222129692412
-0.01540464405224085
-0.4354652418948723
-0.02613372428222548
-0.297264579873791
-0.02130362783595494
-0.0209402801423831
-0.06208486549989824
-0.01818546112988463
-0.04163883702612008
-0.3681905616141259
-0.03647232768309894
0.03803178182005845
-0.09275549229557363
-0.01678820850075454
0.0572246291191284
0.04641631928949728
-0.01750574873709386
-0.05121503740126108
-0.536001008153053
-0.2296636117141545
-0.05101401825330459
-0.1140481391238177
-0.05525753540612016
-0.1301878325385377
0.03793140356239781
-0.02690141892061145
-0.06303031026059068
-0.1164670608150414
-0.03824908958217212
-0.05250682354556623
-0.113958204279949
-0.1358950416054715
-0.05305064051798451
-0.04638933989692277
-0.05324387861247078
-0.04389774155896915
-0.05675129439250677
-0.07580014180586737
-0.04074112763281978
-0.01093787458105923
-0.03953260519750623
-0.1214849640075513
-0.04958455598623861
0.08085853436109709
-0.04170405505653944
-0.008050943113141152
-0.02759478751457437
0.1811023615010445
-0.03784643846554808
-0.2643947544701998
-0.0207086296438878
-0.05232410335779678
-0.03766604727076373
-0.04967689045641919
0.01430838392238432
-0.04732558434119558
-0.03703868974516953
-0.2209082994168261
-0.03958777006400358
-0.004552789591292784
-0.07414343710690853
-0.07003676489605945
-0.1435695819805771
-0.02110324002272259
-0.07381818902924997
-0.04467758065702811
-0.02301668827927518
-0.0147335072735618
-0.006190939591030807
-0.007371619005313684
-0.05169244455017413
-0.04863534253676532
-0.2198081752477562
-0.05506254265964078
-0.00820382392752819
-0.02179104645602086
-0.1497187455121115
-0.002681748859185075
-0.07485834183200518
-0.02049205708824185
-0.0003680797784333239
-0.01102003509251054
-0.03277371888088811
0.09264373927615367
-0.03764087123237825
0.2512311694679252
-0.2667507457486453
-0.1344204183579619
-0.03797854053079906
-0.09097398427575892
-0.00935117686649866
-0.1152092547124438
-0.1702726220154611
-0.2200465352554829
-0.1742076751036324
0.05725649383842813
-0.06410722909444029
-0.02060906911179982
-0.06590031446734852
-0.1648359844789095
-0.02295874972380037
-0.01851131323738089
-0.05068530965224183
-0.02119985990419916
-0.007553529407827201
-0.1050891013169165
-0.02351840249128078
-0.04370742066465736
-0.0713609860442722
-0.1583262622920239
-0.0330260532736199
-0.3835730289898668
-0.01794751383061583
-0.2285945453624744
-0.04318293850956734
0.03351516890284928
-0.1070571937273732
-0.01691346939549807
-0.04350180952142668
-0.1031277139209784
-0.0178092340889385
-0.09414550196326565
-0.2069376345611705
-0.070603358692646
-0.02410520047752936
-0.04659158756419367
-0.04172279688785529
-0.2036880876219027
-0.02236995789738601
-0.01930627968320149
-0.01123942073354852
-0.05780394312295565
-0.04933835522946242
-0.02254036685990346
-0.02067784208667243
-0.2343812701523067
0.1265988851328938
-0.2084167114247333
-0.1876019704877848
-0.01175530757170302
-0.01122986779809177
-0.0663807078712685
-0.01053542065217468
-0.4936109544902051
-0.1217853628478812
-0.01956874363248667
0.0001380713739902662
-0.02365833178958652
-0.2762022043379133
-0.2814698024860487
-0.007292768312230853
-0.01725063766758324
-0.001110096294948066
-0.3526658309195345
-0.02853248627082662
-0.02933078046354893
-0.01261640227906292
-0.01947198127186768
0.04822011971045333
-0.1173935328823434
-0.01444357658129002
-0.0209407422098437
-0.04586611230846938
-0.01837228707924879
-0.01634574414104053
-0.02355166225845737
-0.06833317589234313
-0.01106121997087141
-0.01894627437535586
-0.008825040051839119
-0.0009461398667221
-0.02937521760804643
-0.002025124645828696
-0.001995404188643349
-0.0056540075626285
-0.0255341542318079
-0.008004523675787582
0.001490993386017719
-0.004268229716914876
0.00143419434111437
0.002446156027323688
-0.009063145862658436
-0.1335451815256664
-0.002917882520581924
-0.0009295922900346014
-0.04767721004354049
-0.02152967711570461
-0.02362595657899151
-0.01417662784035839
-0.006241732217934488
-0.02107345706273999
-0.04066463664095135
-0.01475714408355283
-0.01285267767208108
-0.01124277868839786
0.008622649088887111
-0.009841312773072833
-0.01239110719436971
-0.01158157711212479
-0.01024446979846612
-0.01040201187611735
-0.01198639388421511
-0.01363900633992285
-0.2940852337470021
0.05838203106565935
-0.01580700017654133
-0.01471367534009085
-0.01258803715801572
-0.01182465720541898
-0.008484260312871764
-0.09701982226481351
0.01378791414370425
-0.01394555490292348
-0.01367363196754613
-0.01051572835262172
-0.05048763805531208
-0.009533680530567754
-0.01354370750578165
-0.01043973394965015
-0.001021511602740731
-0.01166393285423478
-0.01216760456074221
-0.0242543292535929
-0.01535987288684568
-0.01213553851970235
-0.0136018901376392
-0.008245521782001998
-0.01216484139557396
-0.01139784621460115
-0.06024544485599304
-0.01366769130124355
-0.01171085539183458
-0.009144769487885385
-0.0152771932196749
-0.01368195553693739
-0.01561440147306912
-1.36091139347549
-0.1009796928634388
-0.01271258623309939
0.02676381508354457
-0.1599693607355003
-0.09206105570107845
-0.01237925512287768
-0.01415243384489705
-0.229637030743498
-0.02774188435524933
-0.01718083265479322
-0.01236608332337504
-0.02034927402569673
-0.01002024780030702
-0.03082994242334918
-0.4063007995668588
-0.0122871590846771
-0.0140936514443079
-0.004456559397103706
-0.01138548442008454
-0.01068869271765185
-0.0138639677804396
-0.006175998483401906
-0.02723525562254007
-0.01190559707538769
-0.1751176156425761
0.02032914962132837
-0.007273803067771588
0.004442213989866912
0.01289975094401041
-0.04913978449403443
0.02712593463170558
-0.0133933580964285
-0.1313493911098462
0.2830757694573338
-0.007874605309944507
-0.013780602321439
-0.007946497865987626
-0.03273589078581026
-0.1264211879455172
-0.01235650027352202
-0.01192190025291796
-0.01723398129495743
-0.01348868656043803
-0.04176742051317341
-0.2213926241583417
-0.009121424191632027
-0.04412143280601248
-0.03838605000703792
-0.1802732069920965
-0.1532401571169451
-0.141028227192411
-0.220118741815685
-0.003672155326494684
-0.02067771146093602
-0.01484347508043904
-0.01361693945916238
-0.03386873155553428
-0.02456616800732334
-0.0140004848344518
-0.01484270880004512
-1.065180179083275
-0.004928491921260253
-0.01311424849261702
-0.01809526108292222
-0.02463849281998145
0.001386170788854177
-0.01494244564966827
-0.0248407491438558
-0.1467561201168828
-0.01364889767071938
-0.02129379192927253
-0.01442620650855428
-0.001893790041064812
-0.1778849540314168
-0.01244899589695798
-0.1534475463870038
-0.01551353432276996
0.001710341214045895
-0.01417490061323435
-0.02426793634407489
-0.01603982204790422
0.006161986995156785
-0.2661165723925526
-0.02670470710196401
-0.01661419557754118
-0.009822688155345817
-0.01079571140237851
-0.02921125044257654
-0.01377198209986388
-0.0210326355885167
-0.02050646644684512
0.01290175441645999
-0.09682932824899865
-0.02112299139454405
0.009560402889200958
-0.05957212176269538
0.1842269643961217
-0.1072582866307501
-0.3138969904612602
-0.03037002529972975
-0.02596596763129319
0.1520749298765436
0.08183426454366848
-0.003906769689746554
0.05223815677720314
-0.01499472395312072
-0.01341948327930012
0.002706753582878583
0.00725018272614921
-0.06431986582094118
-0.005127531942348489
-0.05572205518976826
-0.0229911536498414
-0.01571073044708277
-0.03652614377612405
-0.03292461466216308
-0.006684214790440987
-0.01482537136030637
-0.03614914314132023
0.03269520428610483
-0.03867912182815972
-0.01406536537757757
-0.1203789806076206
-0.03105452298886163
-0.04013446347280263
-0.6655976617207171
0.01748484893948588
-0.01019323625675994
-0.005966146518373658
0.1767722437920426
-0.09906062776951846
-0.03595093933905599
-0.2405763520416256
-0.01551784847170794
-0.01605520610538343
0.08291655023621838
-0.1784174380782546
-0.2364135679153105
-0.1860570649102446
-0.6735471877685499
0.004700929510943603
-0.01774918403985793
-0.01606298717114399
-0.09223578887445522
0.118969564034026
-0.02135297074946288
-0.2293613386890238
-0.036359298751408
-0.006947178971717908
0.2815603615430359
-0.01090407384496978
-0.09009769655481684
-0.1541521251862321
-0.0035384656144967
-0.04175604413552779
-0.05215667545813617
-0.1968035001622802
-0.007715366929207585
-0.03925955071745001
-0.003170100976177438
-0.5412247672370161
-0.1910331670095314
-0.1800068024308308
-0.02352073111833541
-0.008905810828962303
-0.06258827695902507
-0.05604092974332914
-0.01439393363448771
-0.07005929094744857
0.00531090928590273
-0.01758509408220185
-0.09335018985739131
-0.2785805310636122
-0.008772452687199768
-0.02515659175564842
-0.02128561958896456
-0.07685204774407468
-0.08835591445809861
-0.09025948645710338
-0.01186684966348948
-0.9057119370336029
0.1628223139101488
-0.08077929962486538
-0.2478135719178825
-0.04108941917348463
-0.009446071290120496
-0.2539841742924785
-0.2011310344947158
-0.03022378455991284
-0.1184212607306383
-0.01917452601210745
0.5637796008848267
-0.02530059932536693
-0.2151241901352753
-0.02487156247915292
-0.004637647904826148
-0.01114241317833328
-1.239029049811228
-0.1792246951176626
-0.2247969883463876
0.005179308182409534
-0.03974925934382419
-0.2380871061060752
-0.06750688074151895
-0.05241593780606409
-0.1477949374392155
-0.1771073867540618
-0.07048622555947957
-1.210256113941794
-0.1568087397691419
-0.5434536623252194
0.08040106613925581
-0.005752709816797191
-0.02088487005922978
-0.04521645390851073
-0.03739372417678048
-0.02770989572563301
-0.1279729309305646
0.082058356567569
-0.002821632106736313
-0.01002466722218506
-0.5617451872911972
-0.8463040298640523
-0.1732523745010258
-0.007895114529099212
-0.1270713376042241
0.0004522753273246749
-0.0001083087255332682
-0.002714487148183945
-0.06139559820358106
-0.2316462487021853
-0.01323751172528326
-0.1138802758518814
-0.1585597108993676
-0.01310228678912499
-0.03422842881057614
0.02998944834793519
-0.05911922074188245
-0.07261707806399188
-0.4909190110674772
-0.207836215245881
-0.07891853664598697
-0.07641876081169176
-0.01930028235170589
-0.1155814545924974
-0.1627020327840167
-0.08041800793077929
0.02436668284740479
-0.08790447611693906
-0.05099091899048495
-0.01489171164589382
-0.1114784536001787
-0.2825287613480133
-0.06021944951128959
-0.01794391204339151
-0.0001152285792528945
-0.0101040321205583
-0.01052675650189769
-0.2353435215213006
-0.01459499742560139
-0.2147863626183813
-0.01046509721982703
-0.07561563439386701
-0.0043507089860984
-0.02328957958770118
-0.3942784764404131
-0.9333071864126234
-0.01126561634103424
-1.035342873455522
-0.599322816507129
-0.01042384506877083
-0.6666466323638036
-0.1897819855684618
-0.005564956968891445
-0.12366518683823
-0.01676311698197315
-0.1266704375524567
-0.06415335099074003
-0.08285218701655159
-0.005262624929681127
-0.002321682043123085
-1.352727845313061
-0.0115779822347418
-0.1802340007805245
0.001045205317820006
-1.000039827179665
-1.254981363505659
-0.07734777482216357
0.01507146811598251
0.1646770363023282
-0.004582551686350512
-0.02299328914301211
-0.004260049380926197
-0.2394745897170778
0.3652829570159864
-0.04247973849104605
-0.2155589022848813
-0.01514564264026191
-0.6457321589096223
-0.07133966383067424
0.187498323327096
-0.3033083673934646
-0.05102645017865927
-0.07069543183846252
-0.01585981998051499
-0.02143998108895911
-0.596658512562378
-0.1534333999368117
-0.09356013948353024
-0.1192556503149629
-0.5467925922426313
-0.04557943734299836
-0.8967183861899999
0.0003757126174081182
-0.2455444476701273
-1.061279775406678
0.161959877756319
0.2879329789727473
-0.1761703593715764
-0.1868898585218865
-0.2190151423037063
-0.06557219679547653
0.02426024342095561
0.0420234037250655
0.003729649785215765
-0.1572563096987377
0.02662028036112479
-1.374009186462464
-0.0877139972554145
-0.4821794276710422
-0.3377589205859211
-0.2193358493149459
-0.1821750014491804
-0.01695394829570548
-0.01539733395878583
-0.09656002849656005
0.1759886488127238
0.3837270777116396
-0.1972417183986643
-0.1509553885692465
-0.2151092026175638
-0.063958245137617
-0.1599262486125496
-0.1728127600264388
-0.1284863657353098
-0.115093127849161
0.4623290282802257
-0.2839310074180769
0.4347455353214987
-0.5870025074000416
0.07407496905837457
-0.1880808373175663
-0.06833545332179462
-0.07908424820136582
-0.8986605460445424
-0.2126169344136119
-0.1947623283394541
-0.356631796206142
-0.4686725911223089
0.5694406720534048
-0.2181792924996357
0.003433503668507844
-0.06635693790487275
0.3467758982407435
-0.03411853118668198
-0.1262781144372392
-0.1835557455098263
-0.06397785504833563
-0.0163917101963982
-0.2018791850815133
0.1994857693955153
-0.01279238864499561
-0.09936040548796309
-0.1784407371052558
-0.3232762349559014
-0.3061551795623177
-0.07924691754586961
-0.009755294110001403
-0.08316511231749683
-0.6451063924358519
-0.6798020540681925
-0.3249267913914169
-0.05956643821121854
-0.04876887634899359
-0.02438726353213721
-0.07084169004328623
-0.05412516028450172
-0.3698971128571732
-0.969329357268121
-0.009366311848087198
-0.08597318341136981
-1.152376391948283
-1.048849865332133
-0.1116234512236497
-0.04267924485913553
-0.0672015733649331
0.3870715167125551
-0.3370198653038337
-0.04961211832919286
-0.6092716336721254
-0.1337975178129407
-0.2465948559730806
-0.2165584555754647
0.4726650117100908
-0.6406451123967509
0.0786020390842128
-0.0283128765970124
-0.5730016394605076
-0.05533444682451281
-0.3694325844650744
0.1113473771265871
-0.1947575420159969
-0.06187848498211232
-0.128475121648057
-0.3543606457987779
-0.08161643645541444
0.5165075929243585
0.08771982161201144
0.4684338696385026
-0.1107820609354134
-0.2088326427607809
-0.507952516517601
-0.1369024220184184
0.02342201879910364
-0.05613459579087964
0.09811252181009236
-0.2992286390485407
0.2365205617464411
0.003414164686438709
-0.002571807887454439
-0.5047225764141755
-0.1800900878398437
-0.09153489903385308
0.5814178232602392
0.1401639936600515
0.3411087504568849
0.2249803708391537
-0.5709301836550281
-0.1933277071943945
-0.2254093849295191
-0.2197887106291179
-0.06278133791474615
-0.6837905354016783
-0.1870920027589802
0.3033238312497537
-0.1890868429513028
-0.01146291889332177
-0.1592734941682652
-0.0125051285574413
-0.169415282318714
-0.4493618394805107
-0.07581488708081263
-0.2101392148701191
-0.07438323295484306
-0.1003059446888307
-0.1343874068780483
-0.0718279895429508
-0.4398998733807647
-0.4071037133531529
-0.02224278846309407
-0.07866110947739988
0.331698581574789
-0.2537059137397306
-0.1719780321748063
0.5229784136534115
-0.1948405259499848
0.02261117622731098
-0.4581207607680792
0.05315665090833566
-0.05876019894088244
-0.1418578194289538
-0.595661151526918
0.1563565054419885
-0.5714646417152264
-0.5443755315630304
-0.09984298248093322
-0.5165459092017862
-0.03590009016925631
-0.1517006279443531
-0.4182633461353755
-0.01599365253146663
0.2892499818943406
0.4901035988547417
-0.167734185585438
-0.00465160607013296
-0.09197704847397341
0.5248443380721799
-0.03194225181068765
-0.4483759229493469
-0.03164675303187304
0.4625987156237763
-0.01815195859986641
-0.5537149017446347
-0.245669769343261
0.1792530523361617
-0.3174702238253269
-0.1840995115984138
0.04582491367495598
0.03058912899210294
0.05735539204265712
-0.3064319696790105
-0.1612437917215696
0.4128111296971753
)
;

boundaryField
{
    FrontBack
    {
        type            empty;
    }
    Top
    {
        type            zeroGradient;
    }
    In
    {
        type            zeroGradient;
    }
    Bottom
    {
        type            zeroGradient;
    }
    Out
    {
        type            fixedValue;
        value           uniform 0;
    }
    circle
    {
        type            zeroGradient;
    }
}


// ************************************************************************* //
