/*--------------------------------*- C++ -*----------------------------------*\
| =========                 |                                                 |
| \\      /  F ield         | OpenFOAM: The Open Source CFD Toolbox           |
|  \\    /   O peration     | Version:  2412                                  |
|   \\  /    A nd           | Website:  www.openfoam.com                      |
|    \\/     M anipulation  |                                                 |
\*---------------------------------------------------------------------------*/
FoamFile
{
    version     2.0;
    format      ascii;
    arch        "LSB;label=32;scalar=64";
    class       volScalarField;
    location    "1993.5";
    object      p;
}
// * * * * * * * * * * * * * * * * * * * * * * * * * * * * * * * * * * * * * //

dimensions      [0 2 -2 0 0 0 0];

internalField   nonuniform List<scalar> 
808
(
-0.03570811926566479
0.04504876395985027
-0.01192424104414827
0.03523173703645269
-0.3032893417391604
-0.05462265615632605
-0.01453270333608236
-0.02386827959319841
-0.1997253294990909
-0.08542054519305306
-0.009386840876510996
-0.2573247972778789
-0.03056823442049528
-0.01294530444509217
-0.1223917529583997
-0.01399954635074113
-0.1411092799301349
-0.01355948594829974
-0.01255641769664374
-0.05683361343796943
-0.005890176972691143
0.1181944728987381
-0.06096474694459931
-0.0732027029355858
0.1763012233305448
-0.09931408571097511
-0.1549254123803766
-0.02031092672403239
-0.01739124344956076
-0.02603855732445792
-0.02016545484892772
-0.05972126734779912
-0.02298424363236467
-0.01684624196835006
-0.1008448949538897
0.3441837567752939
-0.03857680875163528
-0.01684330748352848
-0.02327196867291696
-0.0265910133136184
-0.0916544973895087
-0.1286923886775567
-0.050834368997656
-0.02061841635090268
-0.05503417914283621
-0.04000867725292344
-0.01237662966944693
-0.1871706496922029
-0.0275491812878561
-0.207003697230745
-0.01607237310622646
-0.06876480462069086
-0.05957379010090368
-0.01487947809026996
-0.1906153306912187
-0.02894769450664022
-0.01070751765526781
-0.01448958921282394
-0.1021373188731764
-0.0406233225193594
-0.09590144880633993
-0.1283048583715651
-0.01339921433545044
-0.1297630253940296
-0.01690927021602544
-0.05064868468589918
-0.1663652925669481
-0.03568095474491806
-0.01490108344563242
-0.4455594674298604
-0.02698673073700987
-0.3076252833336133
-0.02200871942697751
-0.0203187997186767
-0.06687223764053317
-0.01737500832150712
-0.04346306324476139
-0.3600929771575534
-0.03544449426831263
0.04171351093184304
-0.09064304469397456
-0.01729316288003643
0.05679580406070752
0.0437051417152836
-0.01658325919593366
-0.05319360968841392
-0.5484012249214004
-0.2231785016868522
-0.05330479203097218
-0.1116717184149209
-0.05786856591183301
-0.134588388004744
0.04059029826519445
-0.02397142775814869
-0.06062440159012742
-0.1186061610310305
-0.03850678449696887
-0.05215004340593057
-0.1178512068547618
-0.1393885327148981
-0.05208413445787073
-0.04834208790737567
-0.05551166917772409
-0.04571569017240371
-0.05788543332794682
-0.07332442570472274
-0.04164070624810882
-0.01130796121873893
-0.041054599411188
-0.1263826758459051
-0.05122745505844576
0.08319996939943278
-0.04311081300062392
-0.008197288618607201
-0.02785311562722768
0.1802258357041938
-0.03978325879753111
-0.2731407385514878
-0.02028468256852895
-0.05473058632753287
-0.02669976571492358
-0.04786754777348516
0.01266190446439508
-0.04993832332160492
-0.03415561653594305
-0.2145815757283444
-0.04268957615129547
-0.005155598194589711
-0.07752030595027186
-0.06762885391866691
-0.1454650035859138
-0.02088483212683274
-0.07636321186962569
-0.04132385794958016
-0.02271947224204957
-0.01653683777059037
-0.006461954070952253
-0.007320582591353011
-0.05312057087261558
-0.05086385954089921
-0.2111249953238084
-0.05793924938545814
-0.00857186051866122
-0.02276365715942302
-0.1450293262148314
-0.002520295190391708
-0.07761456476302755
-0.02351283877396327
-0.001213528457470343
-0.01063077546957077
-0.03389059257963672
0.09537326655553044
-0.03970520676968443
0.2526431450433668
-0.2671537999267635
-0.1304799251907319
-0.0371246095275359
-0.09122532848887722
-0.009271049583695522
-0.1118853343943218
-0.1860397188204296
-0.216001272267198
-0.1817568559912435
0.05546742172390096
-0.06189490957637298
-0.02029355688858475
-0.06786097150311471
-0.1703370439757325
-0.0238999518796323
-0.01844926612530444
-0.05319017251674427
-0.01819602564328902
-0.006025819928337561
-0.1100754459416637
-0.02275790415842603
-0.0464903333805578
-0.06886673024688572
-0.1634622676591035
-0.03373797840645679
-0.3958436883973469
-0.0178130757830562
-0.2227141269379006
-0.04535941919006332
0.03077012752921074
-0.1055917770105144
-0.01427235398092708
-0.04163116440812521
-0.1053823303683244
-0.01767585696054229
-0.09671880393222138
-0.2062266122315593
-0.07282291373493185
-0.02369366832734515
-0.0496737610172885
-0.04375843271271012
-0.2046829062324712
-0.02183835241749225
-0.01895033958217048
-0.01136321728179752
-0.0547303190200124
-0.05190928614215973
-0.0223764082370529
-0.02087027671388468
-0.2476502285347395
0.1279433048256784
-0.2009174581420951
-0.2068475180209571
-0.01179562444747027
-0.01160798553388795
-0.06767292406560371
-0.009604282113432866
-0.5146255692651954
-0.1213580353314293
-0.01893513801763688
-0.00101702315500892
-0.02429032082851009
-0.2867593295672102
-0.2743755966223996
-0.007039045342041744
-0.01751593429380002
-0.001856053665486436
-0.344898387915878
-0.02824883466742872
-0.0291340313594956
-0.01248752630221924
-0.01978653185112231
0.05090583055566065
-0.107195965662033
-0.01389170643069273
-0.02073690616462389
-0.04306847815265923
-0.01818851344366567
-0.01611900424087826
-0.02337226804110869
-0.06696231514379242
-0.01185131911471917
-0.01908266019308416
-0.008500665336149809
-0.0007401901547495774
-0.02957316384581518
-0.001554328516156793
-0.002297412775445979
-0.006053880560676401
-0.02563018123315042
-0.007980047784146625
0.001533506047057914
-0.004204605955742013
0.00120651113536838
0.002546408988337623
-0.008624838376626448
-0.1431417085489836
-0.003030000179478875
-0.001459117277628232
-0.04850316725442081
-0.02154710630594871
-0.02488151244256468
-0.01440352026416878
-0.006102080296025031
-0.02085403050289227
-0.0375098878195333
-0.01394223487370337
-0.0128562302399626
-0.01182889683908077
0.007358242949534468
-0.01030545234538832
-0.01183637859602511
-0.01133588340035459
-0.01080998876447511
-0.01014823052238104
-0.01171421529285494
-0.01414297549119381
-0.3113769680395684
0.06091580013391987
-0.01557502069426921
-0.01634652198765682
-0.01310181139677836
-0.0121987592312293
-0.008809698638413552
-0.0973372375426728
0.009564727031954136
-0.01366701812356883
-0.01470291979160941
-0.01078413577812746
-0.05315865239791936
-0.01015456150399531
-0.01377058397478486
-0.00946414238390595
-0.000414351742678494
-0.009898213825745869
-0.01140462550817303
-0.02489581180172322
-0.01616589971795146
-0.01183202768292481
-0.01338314766117283
-0.007528270512176942
-0.01262802017697843
-0.01173941291626274
-0.05731911658818109
-0.01303633601297543
-0.01125413562137198
-0.008682517423117344
-0.01484698516627748
-0.01387942220928085
-0.01571521906925626
-1.378217753165885
-0.09835546036256511
-0.01333693060384041
0.0240573336709569
-0.1651974213277356
-0.09243527843695762
-0.01145400914210352
-0.01404758284284515
-0.2516654286498393
-0.03067351613487358
-0.02028327534681912
-0.01092363273781608
-0.01961813748644384
-0.01078889965721525
-0.03070311905055887
-0.4153772622632226
-0.01237518652178083
-0.01410542631942714
-0.004897569344152465
-0.01077582344767711
-0.01000959879614503
-0.01434315186608403
-0.008543235243514928
-0.02608238835553239
-0.01133985227550695
-0.1629101208976912
0.01723282036834062
-0.007725886896989719
0.003291225809293611
0.01357304550054515
-0.04728902154004003
0.02982904498217316
-0.01302420423095093
-0.1353268738014698
0.2820864015283708
-0.007196883041321623
-0.01326325493582312
-0.008428179005275944
-0.03296896380240991
-0.1224229186250464
-0.01272608043133396
-0.01236976500133303
-0.01681851449144545
-0.01360505828300002
-0.0409632415971212
-0.2141282118007503
-0.01139277916269828
-0.04123048707894383
-0.03995912287512302
-0.1655180861830574
-0.1656230319614046
-0.1375297904758331
-0.2507619858868668
-0.007345258842259867
-0.02129985456861066
-0.01413556073990971
-0.01260890747477016
-0.03285329363610796
-0.02440889201043921
-0.01449077761959586
-0.01500697832047096
-1.081843181813675
-0.006087495782228428
-0.01360474193164368
-0.01849710472928594
-0.02115492845900237
0.0009790052805348337
-0.01432558859028035
-0.02771746762254631
-0.1613320537515215
-0.01359630219821553
-0.02230062980567728
-0.01376004426427622
0.0005863619702101245
-0.1795799509675529
-0.01329862627410269
-0.1410021514640859
-0.01611127454414923
0.007454136067932974
-0.01466180684466182
-0.02307571960645394
-0.01556655360963949
0.004823360834360152
-0.2789032885616146
-0.02546114380269915
-0.01592308559639051
-0.002269818116386824
-0.009326000345990206
-0.03058279210736699
-0.01440879035390949
-0.02032989951407354
-0.02140488780080608
0.01387753417953493
-0.1009508831860366
-0.02214941539493349
0.00916448561567766
-0.05122863931979849
0.159312367760946
-0.102879370551668
-0.321187529979736
-0.03087991054234737
-0.025394619905959
0.1492765171743426
0.08135567082848937
-0.003338661618545237
0.04915991458080376
-0.01563354451865203
-0.01468405232664953
0.002207935421151705
0.01181068048756395
-0.06703388163151013
-0.005894215373060347
-0.0576520301881619
-0.02210502433081326
-0.0157261583150277
-0.03653502064293361
-0.03291399035324545
-0.006637955530575147
-0.01509992167338849
-0.03918057461193507
0.03793172336969416
-0.03890346279343464
-0.01362957751829152
-0.1162077355710706
-0.03209506942771358
-0.03847719638515278
-0.6775923838905239
0.01988052876294572
-0.01080308675644868
-0.005449202132483055
0.1582560103668974
-0.08338939984073075
-0.03490861329057168
-0.2471287145826748
-0.01674480899588321
-0.01662849715444625
0.06323555715010705
-0.1846403216989181
-0.2286119628837422
-0.1986068660397703
-0.6868185016830026
0.003200354383362799
-0.01868555371707292
-0.01692941527470606
-0.07801677270433198
0.1177580064064855
-0.02094178393344492
-0.2410901334652785
-0.03490402722201607
-0.006455158449459048
0.2777836832473349
-0.01132836061703374
-0.09379249276786746
-0.1488705967634857
-0.004362923055560373
-0.04034809476235146
-0.04957100002809137
-0.2066551089543472
-0.008804129666584072
-0.04215851642275745
-0.002407087502123242
-0.5511989389283293
-0.1996088706856543
-0.175658054047919
-0.02265678854715709
-0.006845401005428106
-0.05989413410628488
-0.05827446056282192
-0.01434357748420014
-0.0674613379570409
0.003090758979207263
-0.01841001246762919
-0.09459875933025988
-0.2668196256222579
-0.007316073282718118
-0.02647399443113804
-0.02213396001715082
-0.0741296068013774
-0.09116081634274087
-0.08770252502957314
-0.01184179024609806
-0.9279550168586416
0.1607741961075294
-0.07891749647925933
-0.2566639702816052
-0.04262631814132102
-0.01052474290147713
-0.2536312662740389
-0.1842541896667997
-0.03322417576673219
-0.1287160230921243
-0.01934241077178682
0.5629667812880771
-0.02381068125853808
-0.2301066971998074
-0.02620579962026802
-0.005732252263920012
-0.01201528762863525
-1.253338204756347
-0.1828209116159357
-0.2337034860974702
0.005378606190047414
-0.03722950144038928
-0.2541255297019237
-0.06532312694968442
-0.050886283790881
-0.1420346642085843
-0.1906375217650968
-0.06769725566848964
-1.230340929665636
-0.1421557446184198
-0.5188267748583988
0.07840616923394213
-0.006811744351958551
-0.02201517598026974
-0.042496868121405
-0.040659810566696
-0.02889533975538149
-0.1312573189011278
0.07987641237051435
-0.002337000861792559
-0.009796970253332565
-0.581535963107124
-0.8648917295497508
-0.1860118054380435
-0.008317626407150613
-0.1389106583570937
0.001109304455364424
-0.0005453119517370621
-0.001799487046369744
-0.05987329786870076
-0.2391129820554296
-0.01339899042654849
-0.1251252391286199
-0.1556886487833386
-0.01324298156334637
-0.03595835810986975
0.02205433788840496
-0.05720124914886753
-0.06959214050157134
-0.5037457676006817
-0.2347249989086558
-0.08084731606383255
-0.07244232986796324
-0.01997179990109414
-0.1246587677287074
-0.1518429239047526
-0.07424130658837286
0.0230194128188117
-0.08426258710230893
-0.04796125461961241
-0.0148940025139824
-0.1060021174713927
-0.2718331538775866
-0.05667360250104213
-0.01853681166766635
-7.121640253017204e-05
-0.009994395422016385
-0.01117159187672276
-0.2163230189912075
-0.01530779003568475
-0.2224051854811387
-0.01030970346307115
-0.06690918342830028
-0.003944924882997193
-0.02320436417819815
-0.3770241423303539
-0.9082286094624574
-0.01134628506753275
-1.049295102498491
-0.6145178542592716
-0.01064906398276013
-0.6566032042597078
-0.1764332455116314
-0.005962409587312471
-0.1312124062643338
-0.01690398389588167
-0.1216183801378008
-0.06744114212616062
-0.07773123256727102
-0.005061811494625969
-0.002422613845265549
-1.337210837546168
-0.01119611177290085
-0.1822472913922407
0.0004998665486660953
-1.011921279888596
-1.232634365566398
-0.08165177775488422
0.01963003164387656
0.1643285895272927
-0.004597597652602632
-0.02305336109284021
-0.004187284233658222
-0.253811190612805
0.3661540608606343
-0.04077300028247497
-0.2103091985160627
-0.01487027836145925
-0.6555044383696971
-0.07514678048070822
0.19093552989204
-0.2830857181147944
-0.0496873391138774
-0.06861950292338735
-0.01590689637569198
-0.02177681328438675
-0.5742496433907233
-0.1441815423120201
-0.08526923953728513
-0.1290818550462576
-0.5563443343574527
-0.04404812770918933
-0.9083758798935146
0.00022902421195063
-0.2373830815551125
-1.048716104287349
0.1675668404857196
0.2916391968834469
-0.1847963327710338
-0.1930609908187398
-0.2078838461174309
-0.06815782376167971
0.02229282740252137
0.04817467994624636
0.003515154698579556
-0.1680783688865233
0.02555771686153164
-1.355374625837898
-0.08496556554913151
-0.4727031749041698
-0.3300083740799091
-0.2029002130417332
-0.1760135083494332
-0.01690543182692894
-0.01547553143800457
-0.1078390124266796
0.1715110566566131
0.3854974652088052
-0.2131602245351026
-0.1386001931981685
-0.2363593874180228
-0.06235263169624591
-0.1492411459662432
-0.1624424516275621
-0.1254280618077354
-0.1243200676221664
0.4658944998328864
-0.2682479525581585
0.431481661178252
-0.6004113668233539
0.07065232371144758
-0.2047262195539711
-0.06593825757776015
-0.07412255259012204
-0.8773741057949529
-0.2200981043316868
-0.1900812620447929
-0.3459126449778701
-0.4568245495122164
0.570608166822374
-0.2073518234490626
0.000164598454199622
-0.07073407824533985
0.3439048622694347
-0.03760179722284217
-0.13250103028295
-0.1789998892268922
-0.06337742161817099
-0.01655458242862756
-0.1948504631337026
0.1942541322005415
-0.01288125907004521
-0.0959962679621912
-0.1687802275898297
-0.3152023712173648
-0.3137503904921135
-0.06370510864633473
-0.01032870574081779
-0.07873886089913873
-0.6548125853929152
-0.6695937423498225
-0.3392975217999392
-0.05752368713072517
-0.05202930137979103
-0.02553193454842275
-0.06739938510298576
-0.05795187855951416
-0.3578568438360189
-0.9567582398517307
-0.01048760208063777
-0.08269971891640422
-1.136933574647024
-1.030818277835918
-0.1050584627972364
-0.03845874275008579
-0.07009278645393065
0.3903057652198395
-0.3445530359712023
-0.05008697987362609
-0.597762567758043
-0.1213076713708196
-0.2534213664482746
-0.2100207350811297
0.4741194058431791
-0.6268238620295967
0.07365095244994606
-0.02961713054639431
-0.5567586202791552
-0.05134974189964045
-0.3610809456624665
0.107112621440098
-0.1896896618469547
-0.05962521061564804
-0.1391937772335529
-0.3622843269658123
-0.08778538487408991
0.5146022337778676
0.08533149817777266
0.470763439943016
-0.1018262576901718
-0.1994652930073084
-0.5232361109137994
-0.1307308008056866
0.02696691641679539
-0.05334200704850593
0.1025940803486032
-0.3069945333577047
0.2362432091716414
0.008397330808361971
-0.003278585317580054
-0.513990001720801
-0.1858995095978857
-0.08086395614637649
0.5815716092516372
0.1384170452683784
0.345290351246679
0.2258042113211407
-0.5607946327540468
-0.1997194990199239
-0.2226369254166417
-0.2340172558351806
-0.06010490123096038
-0.6952312719808033
-0.1937901987149862
0.3060642642736817
-0.1985932976169935
-0.01125770112648567
-0.1718984657682988
-0.0093168053332775
-0.1563647629255918
-0.4337417853201771
-0.07653019575261547
-0.1985986192018593
-0.07091110114349249
-0.08649887297671707
-0.1466310684698776
-0.07320997831431719
-0.4561346690128776
-0.4153921367629403
-0.02613758447484568
-0.07423396385298656
0.3276768308129993
-0.246139695050992
-0.1854651548581157
0.5252741655609859
-0.2087439617786002
0.01802081004540674
-0.4483631441726751
0.04736228881628467
-0.06223534233062651
-0.1452114336340737
-0.5815214032842128
0.1612647741879576
-0.5813813318355647
-0.5331224109568083
-0.1056408429783967
-0.5064371618748282
-0.03744237459841131
-0.1384809021612227
-0.4095613850728683
-0.01631423500524744
0.286724858900868
0.4895945141133054
-0.1580258524343622
-0.008231976499976562
-0.07544361810550977
0.5253174832675257
-0.03349291051195533
-0.4376133122989427
-0.03287073114969649
0.4607980321546979
-0.01465212091403192
-0.5420130605002009
-0.247469555857739
0.1760363541595827
-0.3091601272406484
-0.178112284305354
0.05116537999254162
0.03378728963189968
0.05424639328992513
-0.2979321494901588
-0.1579978554467075
0.4127709745647557
)
;

boundaryField
{
    FrontBack
    {
        type            empty;
    }
    Top
    {
        type            zeroGradient;
    }
    In
    {
        type            zeroGradient;
    }
    Bottom
    {
        type            zeroGradient;
    }
    Out
    {
        type            fixedValue;
        value           uniform 0;
    }
    circle
    {
        type            zeroGradient;
    }
}


// ************************************************************************* //
