/*--------------------------------*- C++ -*----------------------------------*\
| =========                 |                                                 |
| \\      /  F ield         | OpenFOAM: The Open Source CFD Toolbox           |
|  \\    /   O peration     | Version:  2412                                  |
|   \\  /    A nd           | Website:  www.openfoam.com                      |
|    \\/     M anipulation  |                                                 |
\*---------------------------------------------------------------------------*/
FoamFile
{
    version     2.0;
    format      ascii;
    arch        "LSB;label=32;scalar=64";
    class       volScalarField;
    location    "46";
    object      p;
}
// * * * * * * * * * * * * * * * * * * * * * * * * * * * * * * * * * * * * * //

dimensions      [0 2 -2 0 0 0 0];

internalField   nonuniform List<scalar> 
808
(
0.145325
0.0377548
0.0144822
0.145306
-0.163613
0.0384864
0.0329786
0.0542799
-0.0758562
0.00367403
0.0389369
-0.0886762
0.0447582
0.0344524
-0.355774
0.0412694
-0.375988
0.0364565
0.0304678
0.0340689
0.0639032
0.365226
0.069616
0.0351331
0.437177
-0.115729
-0.0146608
0.0212887
0.026798
0.0253689
0.0210939
0.045327
0.0309614
0.0182401
-0.053889
0.630923
0.0339199
0.0268885
0.0481607
0.0323285
-0.0250723
-0.0144477
0.0459879
0.0367728
-0.0157412
0.0842345
0.0331413
0.0517029
0.0447828
-0.11302
0.0318688
0.0496978
0.0495091
0.0254656
-0.138428
0.0420793
0.0251185
0.0455721
0.0108942
0.039874
-0.282489
0.0423104
0.0585141
-0.147064
0.0517873
0.0563814
-0.200962
0.040007
0.0209715
-0.212722
0.0516033
-0.237481
0.0506473
0.0409924
0.219754
0.0310451
0.0155537
-0.139896
0.0342515
0.285703
-0.073518
0.0371905
0.0516571
0.292723
0.023435
0.00104364
-0.283037
-0.167024
0.0578171
-0.19213
0.0665585
-0.0584855
0.236811
0.147969
0.0454247
-0.232969
0.0426788
-0.0190572
-0.0701602
-0.192607
0.0362509
0.0267949
0.0690025
0.00283611
-0.103358
0.059369
0.00720481
-0.0152687
0.0423426
0.0683676
-0.0442402
0.314262
0.0478971
0.082048
0.0376593
0.456833
0.0422149
-0.194651
0.0402549
0.0848847
-0.369631
0.0495764
0.0439284
0.0865994
0.104064
-0.105096
0.136535
0.0873907
0.0603002
0.0707132
-0.200292
0.0551701
-0.0195594
0.104885
0.0405626
0.0408512
-0.0478868
-0.00861603
0.0488995
0.03682
-0.442719
0.0772687
-0.00918855
0.0492867
-0.0679997
0.0044777
0.123271
0.180941
0.108288
-0.00560884
0.0464126
0.320452
0.059
0.523169
-0.371113
-0.121105
0.0401088
-0.0940017
-0.0297035
-0.120178
-0.252738
-0.419122
-0.198597
0.0490073
0.0675937
0.0432832
0.0508965
-0.192862
0.0467201
0.0586945
0.0681596
0.145477
0.00467367
0.158764
0.0401443
0.098043
0.0707659
-0.104333
0.0497789
-0.263427
0.0490277
-0.201238
0.0462676
0.28576
-0.257724
0.1152
0.0384816
-0.12903
0.040067
-0.0763432
-0.387373
-0.0442774
0.0361666
0.111024
0.0450596
-0.43431
0.0341242
0.0579795
0.0252683
0.0683887
0.093958
0.05629
0.0359654
-0.228045
0.365771
-0.395119
-0.263134
0.0252635
0.0316394
0.0480188
0.0261334
-0.311369
-0.245089
0.0356397
0.0025505
0.0429042
-0.240387
-0.102756
0.0261289
0.0619729
-0.00751195
-0.157333
0.0509017
0.0524919
0.0130323
0.0390785
0.122203
-0.29404
0.0773977
0.0251512
0.111529
0.0318272
0.0370582
0.0202865
-0.0319461
0.0525175
0.0278859
0.0165569
0.0323932
0.0315342
0.020098
-0.00551006
-0.00267112
0.0205346
-0.00202665
0.0113944
-0.025254
-0.00999451
0.0275084
-0.0242362
-0.253047
-0.00152134
-0.039902
-0.12325
-0.00364435
0.0431656
0.0232017
0.00848629
0.0420192
0.113089
0.0435583
0.0155043
0.0113718
0.0305402
0.0330825
0.0033176
-0.00141829
0.0395554
0.0539562
-0.055556
0.0266809
-0.307931
0.256473
0.000479297
0.0379868
0.0346788
0.00347515
0.0239245
-0.225425
0.3055
0.0564461
0.0385724
0.0204954
0.113006
0.0468466
0.00627252
-0.0378733
0.0015721
-0.0344625
-0.0629871
0.0488422
0.0391766
0.0820017
0.0544577
0.0103182
0.0070067
-0.00857473
0.0499798
0.00649587
0.00884915
0.0570895
0.0357758
0.0479624
0.0233675
-0.419517
-0.0762372
-0.0216486
0.0233989
-0.127538
-0.111367
-0.0153386
0.0362702
-0.269838
0.155178
0.181163
0.0392202
0.0372268
0.037453
0.0129832
-0.155569
0.0350472
0.00498883
0.0410243
-0.0523259
-0.103423
0.0416245
0.0239164
0.0323941
-0.0603951
-0.308782
0.0280957
0.0607808
0.120568
0.138397
0.0300026
0.215018
-0.0511719
-0.120614
0.552515
0.00524936
0.015759
0.040206
0.0148834
-0.0719107
0.0997857
0.0379283
0.0296972
0.0476841
0.00575294
-0.348795
0.0517703
0.0970401
-0.0182245
-0.322933
-0.259317
-0.280188
-0.251899
0.0445161
0.0496047
0.0316681
-0.0175503
0.0236378
0.0175796
0.0483358
0.00436008
-0.413394
0.0572873
0.0713027
0.0355932
-0.440765
0.00826751
-0.0232994
0.138989
-0.221991
0.0634882
0.0177492
0.0873841
-0.0253094
-0.291609
0.0707429
-0.437637
0.048694
-0.0915933
0.0345172
0.0359895
0.0242849
0.0909553
-0.247765
0.0372536
0.0346775
-0.044575
-0.000747698
0.0331456
0.0627666
0.0186621
0.0385787
0.0629437
0.0723285
0.0538153
0.0271702
-0.419655
-0.00636527
0.0254791
0.0426633
-0.102344
0.0296217
0.444171
-0.340772
0.0193637
-0.110959
0.060298
0.0475767
0.0383549
-0.141605
0.0336626
0.0880572
-0.0305963
0.0378478
-0.000356148
-0.00604732
-0.00691335
-0.00667055
0.0377171
0.144843
-0.119325
0.0320527
0.0260881
-0.0135853
-0.0301287
0.0423338
-0.297553
-0.0736362
0.0272054
-0.0124212
-0.197097
-0.358311
0.0278243
-0.031341
0.0165397
0.0486287
-0.00510384
-0.1663
0.175553
-0.217594
-0.365857
-0.397718
-0.0114223
-0.0452708
-0.357731
0.359096
0.0227386
-0.293116
0.0384548
-0.0147592
0.59836
0.00578521
0.0451725
0.00905722
-0.0168477
0.0243006
-0.136864
-0.43403
0.0936772
0.093039
-0.0159012
-0.19221
-0.204629
-0.284957
0.0364539
0.0106189
0.0899454
0.0154335
0.00907407
0.0788533
-0.0314107
0.0593644
-0.164489
-0.446672
-0.0221552
-0.0510055
0.0537085
0.00924919
0.106496
-0.0390175
-0.0459778
-0.370538
0.465702
-0.286142
-0.304953
-0.00541637
-0.0492276
-0.336753
-0.341177
0.147432
-0.251363
-0.177463
0.867727
0.0404227
-0.267058
0.0399933
-0.0258145
0.069187
-0.372167
-0.358074
-0.214728
-0.0139755
-0.312775
-0.270154
0.00714507
0.013579
0.0544865
-0.198495
0.027114
-0.408178
-0.457726
-0.527394
-0.151494
-0.0433037
0.0475888
0.102058
0.153156
-0.00159044
-0.289376
0.320835
0.0526682
0.026683
-0.345428
-0.404503
-0.223257
0.0797936
-0.260367
0.101641
-0.0729849
-0.0594101
-0.268771
-0.155146
0.0331998
-0.267475
-0.4376
0.0222674
0.027847
0.101658
0.0164523
0.0290425
-0.292574
-0.267434
-0.0748136
0.0717236
0.0505007
-0.252872
-0.405184
-0.339504
-0.236413
0.023917
0.0887556
0.0146923
-0.300185
-0.433591
0.0810796
0.050731
-0.135564
0.044359
0.022393
-0.468197
0.0445061
-0.186204
0.000962138
-0.231587
-0.0249352
0.00562379
-0.506823
-0.59857
0.00662551
-0.386348
-0.368001
0.0345128
-0.141456
-0.363953
-0.0390514
-0.276306
0.0619203
0.0434488
0.09105
-0.101986
0.0678344
-0.022605
-0.558431
-0.0386444
-0.323356
0.0434471
-0.240636
-0.643465
0.134773
0.239048
0.447948
0.0218194
0.0116186
0.00234676
-0.250267
0.637958
0.0400948
-0.277997
0.0487948
-0.00909928
0.117594
0.461244
-0.512328
0.000428821
-0.0188305
0.0543252
0.0288952
-0.596824
-0.304612
-0.291598
-0.384082
-0.205778
0.0312512
-0.282173
0.132296
-0.359852
-0.400219
0.47717
0.563769
-0.470143
0.155003
-0.3519
0.0164254
-0.000116521
0.366704
0.0279238
-0.248015
0.0561152
-0.630853
-0.0190551
-0.276024
-0.080025
-0.447589
-0.392594
0.00560521
0.0161261
-0.236637
0.480944
0.662976
-0.216549
-0.424233
-0.240545
-0.0193515
-0.437981
-0.384984
-0.202838
-0.24034
0.733575
-0.470212
0.763545
-0.326754
0.354412
-0.224914
0.0142924
0.138497
-0.63541
0.268541
-0.363003
-0.423361
-0.450629
0.863376
-0.33126
0.236115
0.182991
0.663224
0.153503
-0.454247
-0.438376
-0.177916
0.0287871
0.0310237
0.554322
0.0291455
-0.0255634
-0.390325
0.0620992
-0.0660437
-0.455302
0.0473999
-0.329709
-0.0959867
-0.230425
-0.278569
0.023825
0.133956
0.0403822
0.0603846
0.144945
-0.463365
-0.449094
0.0372175
0.00440497
-0.57521
-0.637283
0.12622
0.163999
0.118277
0.647086
-0.0263375
-0.0623831
-0.477918
-0.426767
-0.0083059
0.0326534
0.752347
-0.569066
0.410598
0.0314893
-0.564884
0.128371
-0.141991
0.414979
-0.201261
0.0274937
-0.247027
-0.022568
0.237993
0.826598
0.353606
0.744413
-0.270927
-0.441989
-0.32886
0.121416
0.245748
0.0603244
0.348747
0.184405
0.501463
0.238314
0.049918
-0.126375
0.0676956
-0.330448
0.882421
0.426115
0.62377
0.508452
-0.346459
-0.246044
-0.372564
-0.284103
0.0488534
-0.328623
0.148536
0.57794
-0.237043
0.030522
-0.27702
0.167385
-0.459244
-0.50028
-0.149221
-0.432996
-0.365209
-0.295127
-0.255092
-0.105931
-0.327472
-0.074962
0.0283867
0.11672
0.680689
-0.295474
-0.219471
0.813566
-0.224761
0.320005
-0.317454
0.426349
0.119461
-0.219146
-0.518653
0.409418
-0.208313
-0.414549
0.228802
-0.357305
0.00995832
-0.420188
-0.188138
0.0522524
0.588791
0.783749
-0.41068
0.257486
-0.307321
0.819037
0.0254408
-0.412063
0.00559485
0.776296
0.186922
-0.420805
-0.387884
0.480079
-0.285065
-0.0103886
0.312918
0.235127
0.322219
-0.332299
-0.404773
0.690685
)
;

boundaryField
{
    FrontBack
    {
        type            empty;
    }
    Top
    {
        type            zeroGradient;
    }
    In
    {
        type            zeroGradient;
    }
    Bottom
    {
        type            zeroGradient;
    }
    Out
    {
        type            fixedValue;
        value           uniform 0;
    }
    circle
    {
        type            zeroGradient;
    }
}


// ************************************************************************* //
