/*--------------------------------*- C++ -*----------------------------------*\
| =========                 |                                                 |
| \\      /  F ield         | OpenFOAM: The Open Source CFD Toolbox           |
|  \\    /   O peration     | Version:  2412                                  |
|   \\  /    A nd           | Website:  www.openfoam.com                      |
|    \\/     M anipulation  |                                                 |
\*---------------------------------------------------------------------------*/
FoamFile
{
    version     2.0;
    format      ascii;
    arch        "LSB;label=32;scalar=64";
    class       surfaceScalarField;
    location    "46";
    object      phi;
}
// * * * * * * * * * * * * * * * * * * * * * * * * * * * * * * * * * * * * * //

dimensions      [0 3 -1 0 0 0 0];

oriented        oriented;

internalField   nonuniform List<scalar> 
1171
(
-0.945021
0.945021
0.77559
-1.07978
0.304186
-0.436668
-0.680465
1.11713
0.0549787
-0.0657184
-0.276233
0.341951
-0.77559
0.0986686
0.676921
0.945754
-0.212485
-0.733269
0.870664
-1.03293
0.162268
-0.355512
-0.038764
0.394276
-0.0088972
0.609481
-0.600584
-0.388969
0.88014
-0.49117
-0.421231
1.04083
-0.17017
0.338915
0.0489777
-0.387893
1.01745
0.0233835
0.339959
-0.00104401
1.05844
-0.0409928
0.574691
-1.01136
-0.786143
0.600627
0.185516
0.435336
-0.824306
0.563281
-0.917079
0.353798
-1.07648
0.664523
0.411957
-0.640666
0.631769
0.0355089
-0.257093
0.221584
-0.011667
-0.601425
0.613092
0.462742
-0.501506
-0.839795
0.875952
-0.0361572
1.02211
0.0363304
0.913028
-1.06933
0.156304
1.05396
-0.031842
-0.705532
-0.0806109
1.24162
-0.836998
-0.404624
0.21416
-0.0839839
-0.41082
0.494804
-0.27453
0.181244
0.0932864
-0.599366
-0.48041
0.964708
-0.0516795
-0.00832106
0.859025
-0.850703
0.536996
0.704626
0.525497
0.0188709
0.443871
-0.779967
-0.106271
0.886239
0.585768
0.220593
-0.806361
0.0407566
0.536708
-0.577464
-0.504084
-0.572396
-0.381243
-0.68809
0.0249534
0.245574
-0.270528
-0.929501
-0.0227897
0.952291
0.375992
0.018284
0.856421
0.0893334
-0.597747
-0.0429187
0.0438039
-0.823771
0.176575
0.882238
-1.05881
-0.398547
0.00823668
0.39031
-0.696932
-0.232569
-0.651885
0.82846
0.569193
0.310946
-0.581713
0.9732
-0.809021
-0.164178
0.0623589
-0.130914
0.0685548
-0.454322
-0.0471841
-0.282313
0.851506
-0.0128327
0.443756
-0.430923
-0.442923
1.02869
0.706548
-0.812819
0.400884
-0.0823776
-0.318506
0.77799
-0.77799
-0.934093
0.0395418
-0.315775
-0.690447
0.682126
-0.0323219
-0.144311
0.176633
0.891879
-0.032854
1.02339
-0.802797
0.220356
-0.317501
0.0971453
0.997536
-0.141115
-0.677024
-0.030928
0.707952
0.147828
-0.235237
0.0874092
0.794915
-1.0074
-0.446438
0.313996
0.132442
0.605879
-0.617546
0.875218
-0.394
-0.481218
0.493975
-0.696708
0.0383373
0.65837
0.191175
0.650535
0.0601767
-0.710712
0.134715
-0.0951733
-0.518477
0.11993
0.0308061
-0.891721
0.860915
-0.552447
-0.759154
0.0536221
0.499533
-0.0556619
0.274993
-0.833697
0.558704
0.423232
0.576768
0.594776
-0.550972
-0.388051
-0.0388496
0.426901
0.566322
0.211668
-0.618651
0.659407
0.0887125
0.893584
-0.0014787
-0.675545
-0.762764
0.79357
0.619607
0.0800184
0.386691
-0.46671
-0.159248
0.473643
0.063065
0.900559
-0.574366
-0.326192
0.641103
0.332097
-0.429368
0.676086
-0.596067
0.410929
0.152352
-0.0558293
-0.678222
-0.0872489
0.765471
-0.12771
-0.65028
-0.612802
0.365204
0.247598
0.649134
-0.650613
0.309629
1.00141
0.0219788
-0.762764
0.0759336
-0.0135747
0.706548
0.769066
-0.769066
0.838099
-0.822257
-0.0158423
-0.455537
0.878768
-0.189183
-0.329294
0.762619
-0.670472
-0.0921472
-0.763186
0.0849636
0.114513
-0.71226
0.812819
-0.972067
-0.184492
0.207738
-0.0232453
0.135919
-0.973836
0.837917
0.551459
-0.025962
-0.29449
0.597479
-0.302989
-0.648571
0.78449
-0.159887
0.715805
-0.825213
0.109407
1.22269
-0.695116
-0.527572
0.713237
-0.0749189
-0.0124715
0.0287628
-0.0162912
-0.802073
-0.992003
0.311538
-0.690447
0.566402
-0.558165
-0.175646
0.761526
-0.58588
0.778606
0.166415
0.494022
0.505978
0.0369858
-0.605959
0.568974
0.68594
0.214619
-0.713237
0.79357
0.178595
-0.435688
-0.0355548
0.0158328
0.0197219
0.660153
-0.447691
-0.212462
0.676921
0.0356276
-0.276198
0.516493
0.143659
-0.0110155
0.00106946
0.00994604
0.00187499
-0.0143465
0.125322
-0.2077
-0.928953
0.0275755
-0.135383
-0.0591701
0.101588
0.746379
0.743071
-0.166303
0.40955
-0.585196
-0.164869
0.385224
0.626592
0.0503293
0.234643
-1.0569
-0.972067
0.32033
0.682126
-0.160798
0.0164875
-0.773954
0.971647
-0.197693
0.478787
-0.0884764
0.785996
0.303292
0.218222
0.121737
-0.680244
0.680244
0.225061
0.661178
-0.0217504
0.465506
0.473054
-0.00700956
-0.0285452
0.535891
0.0155684
-0.648571
0.567429
0.195189
0.0650919
-0.0363292
-0.626592
0.195015
0.776632
0.0275343
-0.756827
0.729293
0.752771
-0.823265
0.0704942
-0.778606
-0.0320168
0.0433014
-0.0112846
0.082921
-0.149715
-0.110199
0.259914
-0.00615828
-0.00485722
0.807552
-0.780018
0.78398
0.333153
-0.530861
-0.352924
0.883785
-0.00172529
0.00172529
0.168888
0.28906
0.88488
-1.17394
-0.200908
-0.561765
0.762672
-0.01986
0.196493
0.388203
-0.240375
0.962158
-0.673098
0.653813
0.980049
-0.0951687
0.19902
0.78449
0.61432
0.231327
0.644626
-0.65028
0.319756
-0.0902619
-0.00906614
0.099328
0.876063
-0.203174
-0.672889
-0.573327
0.541485
0.544463
-0.573327
-0.61432
0.541485
-0.0127716
0.88851
-0.104529
-0.566322
0.486997
0.0793248
0.531052
0.582512
-1.11356
0.484707
0.477451
0.524412
0.514735
-1.03915
0.441507
0.538542
0.486997
-0.51066
-0.501582
-0.737892
-0.570481
-0.0636864
-0.00222389
0.00222389
0.721106
0.519265
-1.08975
0.739713
-0.353022
-1.11397
0.418853
-0.661005
0.428436
0.0666117
-1.03018
0.963565
0.448581
0.172668
0.703395
-1.18275
-0.932593
-0.0780175
1.01061
0.283675
-0.149566
-0.134109
0.734742
-0.786421
0.970606
-1.08824
0.117636
0.133288
-0.707654
-0.0620685
0.872016
-0.809948
-0.756657
0.889945
-0.738355
0.618252
0.120103
-0.903665
0.319037
0.584628
0.00285167
-0.00457696
0.427345
0.21214
-1.05679
0.844652
-0.702372
0.739358
1.04018
-0.0114882
-1.02869
0.107589
-0.00756364
0.434464
-0.359048
0.0415471
1.00704
-0.940427
-0.570512
-0.704992
-0.00266202
-0.132317
-1.07828
-0.00996004
0.628947
-0.219397
-0.141127
0.424802
-0.516863
0.835901
0.481218
-0.857509
-0.768146
0.120364
-0.359277
0.830366
-0.471089
-0.114717
-0.92979
0.577576
0.175195
-0.313503
1.0169
0.811928
1.02046
-1.03042
0.0457806
-0.0457806
-0.101053
-0.314982
0.165416
0.34221
-0.02188
0.25385
0.902181
0.00962121
-0.0157795
0.657514
0.342486
0.797315
-0.599366
-0.752468
-0.674263
-0.505328
0.505328
-0.206896
-0.108878
0.658186
-1.00996
0.351776
-0.488513
-0.582559
0.35665
-1.04474
-0.990577
1.10821
-0.747505
0.744843
0.676068
0.20505
-0.881118
-0.554161
-0.161968
0.835177
-0.673209
0.0883956
8.60286e-05
0.00422427
-0.0043103
0.0144623
-0.329444
1.01484
0.537067
-0.279797
-0.25727
0.402958
0.73474
-0.509679
0.00878367
-0.283314
0.256936
0.684878
-0.941815
-0.368672
-0.0429645
0.118711
-0.878112
0.205223
-0.804911
0.076686
0.768105
-0.844791
-0.932362
0.127451
0.696479
-0.739444
0.22413
-0.373845
-0.436448
-0.117713
0.374684
0.729496
-0.0534098
0.00492367
-0.00492367
-0.00115443
-0.0653611
-0.0249008
-0.0216646
0.0312858
-0.655845
0.330114
0.742919
-0.857438
0.11452
-0.784068
0.860754
0.754235
-0.0577558
-0.775704
-0.156658
-1.22641
0.0208516
0.0249291
-0.398909
-0.837773
-0.809892
0.405269
-0.330811
0.436359
-0.105548
-0.701738
0.30283
0.590771
0.712493
-0.0342575
-0.0249125
0.995825
0.472163
0.200198
-0.672361
-0.476175
-0.225563
-0.00662503
0.00671105
0.746232
-0.833481
0.00771017
-0.00771017
-0.669193
0.696511
-0.0273182
-0.617302
-0.0751509
-0.703214
-0.110536
0.67951
-0.0518767
-0.865182
-0.0360538
0.386807
-0.350754
0.887976
-0.773456
0.328909
0.254742
-0.583651
-0.0915403
-0.742883
-0.101908
-0.19703
-0.14659
0.4672
-0.514384
0.13697
0.730469
-0.867439
0.493975
-0.231247
-0.0995635
-0.153779
0.00718928
0.593867
-0.08415
-0.509717
-0.283812
0.303721
-0.0199093
0.528545
0.211168
0.0113524
-0.309822
0.166185
0.143636
0.169627
-0.0936938
-0.210687
-0.0158479
0.336291
-0.320443
0.859036
-0.471392
-0.145909
0.551158
0.269975
-0.549772
0.427287
-0.427287
-0.206443
-0.417886
-0.221407
-0.417886
-0.623425
-0.848464
0.177992
-0.305976
0.748664
0.0357018
0.202165
0.527331
0.107182
0.11769
0.0100166
-0.127707
0.0808311
0.80833
-1.05076
0.697833
0.122204
-0.000726516
-0.121478
-0.730965
-0.175656
-0.505846
0.706043
-0.551004
0.0747727
-0.0675834
-0.340386
-0.08307
0.08307
0.0416391
0.0016623
0.138542
0.342665
-0.73071
0.224864
0.113138
0.470119
0.529881
0.75071
0.0217301
0.0373852
-0.0591154
-0.28795
-0.577232
-0.506478
0.111514
-0.116875
0.00536092
-0.103359
-0.413444
0.0333582
0.646152
-0.573457
-0.157508
-0.056141
0.0580824
-0.0444768
-0.282366
-0.19688
-0.18402
-0.0236804
-0.490455
0.408788
0.0816673
0.06367
0.291823
-0.86422
-0.525196
0.726983
-0.832056
0.740516
0.457942
-0.0506744
0.084899
-0.0342246
0.0872982
-0.63156
0.0104182
0.621142
-0.890485
0.619434
-0.720487
0.0574559
0.00670028
-0.00670028
-0.301038
0.471433
-0.0369688
-0.000674385
0.0224045
0.566197
0.476107
-0.802299
0.0151584
0.00867605
-0.00375238
0.0028063
-0.0028063
-0.492718
0.703886
0.0127793
-0.0127793
-0.76836
-0.00855062
0.0114023
-0.434691
0.659555
0.49321
-0.520528
0.0686641
-0.0686641
0.0483875
-0.0769326
0.012473
-1.02655
0.498975
-0.598266
-0.00457696
0.581583
0.0182376
-0.59982
-0.688001
0.114544
-0.321555
-0.0111209
0.332676
-0.0179587
-0.0162988
-0.59538
-0.0361801
0.0249291
0.00565119
0.00205898
-0.00120588
0.00120588
-0.61186
0.291416
-0.439003
0.135907
0.661408
-0.14503
-0.000699399
0.000699399
0.508457
0.142436
0.00842557
0.0182288
-0.00177066
0.630357
-0.487921
-0.814281
0.668372
-0.126833
0.327913
0.812215
-0.00115443
-0.136242
0.0999126
-0.677502
0.543774
-0.1999
-0.106418
-0.017804
-0.026083
0.0157207
0.488622
-0.0945125
-0.415204
0.707662
-0.000582408
0.00965034
-0.00965034
-0.268216
-0.269195
-0.57346
0.609162
-0.160873
0.502966
-0.228415
0.803105
0.935781
0.00565119
-0.727955
0.659583
-0.0608739
-0.108682
0.169556
0.732042
0.0874415
-0.0145241
0.0813413
-0.0668173
0.0133182
-0.0133182
-0.789002
0.0228835
-0.0433686
0.0615974
-0.0894133
0.0894133
0.00867605
-0.00185383
0.778159
-0.00152715
-0.321143
-0.0923005
-0.51707
-0.117015
-0.0715507
0.0715507
-0.0107279
0.08051
-0.08051
0.0320924
-0.0320924
-0.351697
-0.0776709
0.242401
0.0715954
0.0597094
-0.732067
-0.0604274
0.162926
0.0156695
-0.266325
0.080132
-0.080132
-0.462194
-0.0521905
0.234431
-0.0128463
0.00444531
-0.6249
0.637671
0.0983391
-0.109067
-0.070093
-0.00683963
-0.0118459
-0.155974
0.16782
-0.148533
-0.225313
-0.0852089
0.0852089
0.0565818
-0.0565818
-0.0304148
-0.0954062
0.125821
0.0570384
-0.186667
-0.0108481
0.00709575
-0.295298
0.586714
-0.0264882
0.364257
0.00599309
0.00395295
-0.0569407
0.0569407
-0.710069
0.32539
-0.126371
-0.213482
-0.0217548
-0.026442
0.0308873
0.206313
0.0536004
-0.00165301
-0.000117648
0.0818755
0.0296387
0.0546732
0.108253
-0.0243599
-0.000552641
0.00194017
0.00692587
0.00127837
0.0140337
-0.015312
-0.000974286
0.00541068
0.029082
-0.029082
0.0548994
-0.0408461
0.0408461
-0.192863
0.0108788
0.0213212
-0.0791545
0.0187742
0.0758457
-0.0758457
0.28798
-0.254506
0.105974
-0.0683778
-0.186128
-0.0174234
0.0174234
0.403958
0.254412
-0.516566
-0.0810888
-0.0357864
0.539865
-0.0130547
-0.0826414
-0.479855
0.0711616
-0.155948
0.174413
-0.0184653
-0.046207
0.046207
0.883377
-0.591358
-0.0124712
0.0114969
-0.00634322
-0.284534
-0.000377948
0.00420433
-0.0439399
-0.616097
0.569261
-0.636033
0.0136582
0.185515
0.01461
0.0248483
-0.162291
-0.337878
0.258723
-0.0579147
0.0274998
0.169838
0.133884
0.136835
0.27254
-0.25793
0.00333736
-0.114697
-0.224603
0.0695733
-0.0149001
0.171018
-0.146169
-0.0691293
0.151005
-0.38129
0.135195
-0.116421
0.0624201
-0.477624
0.178617
0.174662
-0.243791
0.00375767
-0.176261
0.175883
0.00428637
0.146718
-0.0280667
0.0534403
0.455016
0.0116586
0.032978
0.00225757
0.0355143
-0.243068
-0.205436
0.587152
0.171473
0.0629579
0.08189
-0.0629963
0.116633
0.0529231
-0.0302027
0.170521
-0.156862
0.0486987
-0.0053754
-0.104823
-0.0295426
0.048146
0.255716
-0.0219123
0.109794
-0.313789
-0.00541997
0.216209
0.150296
0.175094
0.0545967
0.0993328
0.0398773
0.52632
-0.0133719
0.100155
0.0451028
0.0638531
-0.108956
-0.262154
-0.204893
0.0187648
-0.221909
0.295024
)
;

boundaryField
{
    FrontBack
    {
        type            empty;
    }
    Top
    {
        type            calculated;
        value           uniform 0;
    }
    In
    {
        type            calculated;
        value           uniform -1;
    }
    Bottom
    {
        type            calculated;
        value           uniform 0;
    }
    Out
    {
        type            calculated;
        value           nonuniform List<scalar> 10(1.00912 1.04171 1.23947 0.918958 1.09725 1.10902 1.24037 1.07107 0.63373 0.639293);
    }
    circle
    {
        type            calculated;
        value           uniform 0;
    }
}


// ************************************************************************* //
