/*--------------------------------*- C++ -*----------------------------------*\
| =========                 |                                                 |
| \\      /  F ield         | OpenFOAM: The Open Source CFD Toolbox           |
|  \\    /   O peration     | Version:  2412                                  |
|   \\  /    A nd           | Website:  www.openfoam.com                      |
|    \\/     M anipulation  |                                                 |
\*---------------------------------------------------------------------------*/
FoamFile
{
    version     2.0;
    format      ascii;
    arch        "LSB;label=32;scalar=64";
    class       volVectorField;
    location    "46";
    object      U;
}
// * * * * * * * * * * * * * * * * * * * * * * * * * * * * * * * * * * * * * //

dimensions      [0 1 -1 0 0 0 0];

internalField   nonuniform List<vector> 
808
(
(0.897554 -0.00890983 0)
(1.01095 -0.0271596 0)
(1.22369 0.253011 0)
(1.06667 0.0114129 -3.06967e-21)
(1.46443 -0.290019 0)
(0.949654 -0.0345526 0)
(1.16507 -0.0584122 -6.95829e-21)
(1.12452 0.000676775 0)
(1.3497 -0.227156 1.62383e-20)
(1.23358 -0.0903595 2.09105e-21)
(1.07564 -0.219203 1.02254e-20)
(1.37424 -0.25711 0)
(1.02438 -0.0157739 0)
(0.743737 -0.0211005 0)
(1.1094 -0.122125 2.24878e-20)
(1.12586 -0.0265341 0)
(1.02017 -0.115443 -7.01087e-21)
(1.02959 -0.0458869 -1.70125e-22)
(1.18155 0.181991 0)
(1.11881 0.00908914 0)
(1.16232 -0.243551 -1.42739e-20)
(0.932207 0.132571 1.04886e-19)
(1.06977 0.00280124 -1.29941e-20)
(1.16647 -0.0144581 0)
(0.963478 0.19088 0)
(1.23592 -0.078569 -2.66359e-20)
(1.27149 -0.172406 -2.58217e-21)
(0.95516 -0.0254484 -8.51049e-21)
(1.1289 -0.0359794 0)
(1.04486 0.043122 -1.7656e-22)
(1.01942 -0.0436982 6.39146e-24)
(1.12134 6.3283e-06 0)
(1.02938 0.0167534 0)
(1.09365 -0.021147 6.3962e-21)
(1.29771 -0.0650917 4.51839e-21)
(0.742231 -0.10087 1.13286e-19)
(0.874939 -0.033864 -1.38096e-20)
(1.02096 0.0193331 1.26747e-21)
(1.1873 0.0252939 -7.22191e-21)
(1.0734 -0.00783578 0)
(1.26771 -0.0454912 -7.21226e-21)
(1.27133 -0.126061 0)
(0.996247 -0.00116665 -9.00522e-21)
(1.10681 -0.053898 1.24009e-20)
(1.05027 -0.0399293 0)
(1.00827 0.0116627 -1.80078e-20)
(0.999264 0.0121448 2.7312e-21)
(1.24542 -0.245891 -1.42955e-20)
(1.15111 0.033165 -1.52724e-20)
(1.40583 -0.186828 -2.34582e-20)
(1.15195 -0.0399723 1.17961e-20)
(1.14438 -0.0724758 0)
(1.11076 -0.0123843 8.12829e-21)
(1.09735 -0.068235 0)
(1.31958 0.182655 8.1308e-21)
(1.03884 0.0354214 -5.66867e-21)
(1.11345 -0.0831369 0)
(1.0312 -0.0675293 5.20256e-21)
(1.23553 -0.0867544 -2.24458e-21)
(1.11221 0.0478484 -2.10123e-21)
(-0.058744 -0.178854 0)
(1.20776 -0.210387 2.12174e-21)
(0.989344 -0.0423562 0)
(1.44953 -0.0778462 -2.14982e-20)
(1.05391 -0.0974692 -1.5531e-20)
(1.03382 -0.0291739 -9.8905e-21)
(1.36319 -0.156426 2.39512e-20)
(0.653084 0.0078298 0)
(1.11675 -0.115368 0)
(1.43474 -0.355622 0)
(0.899442 0.0210692 -4.62847e-22)
(1.23969 -0.149803 -3.10662e-20)
(1.00484 0.0388376 0)
(1.0351 -0.0520541 -6.39348e-21)
(1.11653 -0.32715 -6.47205e-20)
(1.15096 -0.0752836 -1.36773e-20)
(1.12719 0.042938 -2.01536e-22)
(1.35408 0.479262 2.77708e-20)
(1.09769 -0.0420319 0)
(1.0218 0.28574 -1.66687e-19)
(1.25267 -0.0238422 1.13049e-20)
(0.742907 0.0289493 0)
(0.851496 0.0427309 -1.391e-20)
(0.96814 -0.110693 4.68077e-21)
(1.09921 -0.0852737 9.38027e-21)
(1.17758 0.0280267 5.21085e-22)
(1.27379 -0.24099 0)
(1.37136 0.243108 0)
(1.07723 0.00784945 -2.65282e-20)
(1.39107 -0.0616223 2.40552e-20)
(1.08307 -0.00945547 2.09662e-20)
(1.31316 -0.121083 -9.02692e-22)
(0.968302 0.0270893 1.52365e-20)
(1.00376 -0.0261151 0)
(1.10073 0.00987476 1.68105e-21)
(1.37895 -0.0898431 -7.11411e-20)
(0.782432 0.0230227 -5.16335e-21)
(1.19559 -0.0192749 0)
(1.33369 -0.081086 0)
(1.42984 -0.136351 -3.54504e-20)
(1.10403 -0.0677046 -7.07251e-21)
(1.11845 0.0220604 -2.5185e-22)
(0.940058 0.0286329 1.77813e-20)
(1.17051 0.0526819 2.3695e-22)
(1.3288 0.0737902 -2.52502e-20)
(0.997892 0.00062656 1.27555e-20)
(1.35043 0.0332194 0)
(0.802863 -0.270635 0)
(1.06917 0.033188 1.28202e-20)
(1.19547 -0.212201 -1.1797e-20)
(1.25076 0.0675772 4.21114e-21)
(1.04846 0.0487151 -1.15928e-19)
(1.13096 0.0434978 -5.25291e-21)
(1.07314 -0.10898 1.10158e-20)
(0.800549 0.0136712 0)
(0.916982 -0.0411732 7.74449e-20)
(1.12319 0.0399112 -1.28193e-20)
(1.43019 -0.271023 -1.21138e-20)
(1.09984 -0.0409305 -1.23561e-20)
(0.928375 0.0162027 2.32104e-21)
(0.0942828 -0.0658865 0)
(0.849934 -0.0163211 1.41816e-21)
(0.773588 0.0271244 0)
(1.05344 0.00559829 -1.34631e-22)
(1.01373 0.0270166 0)
(1.32723 0.290433 1.43696e-20)
(1.03244 -0.0547132 -4.0443e-20)
(1.11542 -0.00983953 5.15662e-21)
(1.14643 -0.0455946 0)
(1.08708 -0.0265085 0)
(0.57498 -0.131312 0)
(1.09677 -0.0232882 -7.21497e-21)
(1.25178 -0.0399042 3.58527e-21)
(1.07094 0.111685 -2.82828e-20)
(0.852277 0.00572083 0)
(1.08241 0.0327561 -3.36877e-21)
(1.19455 0.0421149 -3.01991e-21)
(1.27399 0.00135687 1.90605e-21)
(0.97378 0.0274838 8.23417e-21)
(1.11489 0.0180484 2.11136e-22)
(0.0764028 0.0359495 0)
(1.0941 -0.0133639 -2.32369e-20)
(1.26326 0.266507 -7.84484e-22)
(0.709977 0.0210722 -7.79792e-21)
(1.26464 0.12362 -3.34247e-22)
(0.951082 -0.276191 2.87901e-22)
(1.04406 0.0163403 2.20095e-20)
(0.991114 0.0321059 0)
(1.06666 0.0921177 1.79873e-20)
(0.842022 -0.301958 0)
(0.930009 0.0242909 1.62949e-20)
(0.975888 0.292519 1.33994e-19)
(0.961579 0.0296209 0)
(0.821472 0.113615 0)
(-0.128026 -0.0336663 -9.45823e-20)
(1.3199 0.0676887 -1.66929e-20)
(0.662588 -0.0183755 0)
(1.37674 -0.0858814 0)
(1.22812 0.186081 0)
(1.30264 0.00992622 1.57599e-20)
(-0.0262537 -0.0711109 0)
(-0.0387362 0.0985314 4.82969e-20)
(0.967729 -0.091935 5.5306e-20)
(0.98746 0.0371243 2.69193e-21)
(0.852235 0.000628039 0)
(1.00797 -0.0162265 1.919e-20)
(0.874142 0.0284884 0)
(0.718422 -0.0726693 -5.97708e-20)
(1.00186 0.0240295 2.49375e-20)
(1.05994 -0.0586734 5.49571e-21)
(1.08492 0.0174022 1.17721e-20)
(1.01691 0.070463 -1.05567e-20)
(0.667922 -0.331288 -2.86617e-22)
(1.12972 -0.339185 9.58936e-22)
(0.898729 -0.0274532 0)
(1.0639 0.00478784 -1.86413e-20)
(0.871475 0.00833125 -1.05854e-20)
(1.38662 -0.177051 1.37056e-21)
(0.707001 0.0318038 0)
(1.03223 -0.148301 0)
(1.06608 -0.0121577 4.1215e-21)
(1.40822 0.154931 1.41357e-20)
(1.09742 0.0330406 9.72424e-21)
(1.03732 0.0276146 2.17322e-20)
(0.84027 -0.223906 -4.56695e-20)
(0.813248 0.00208048 1.90302e-20)
(1.12441 -0.0241238 8.64753e-21)
(1.41837 -0.0848172 -3.95283e-21)
(1.05947 -0.0453235 -8.41776e-21)
(1.34891 -0.0245363 3.38734e-21)
(-0.128601 -0.0500828 7.02781e-20)
(1.27541 0.0176542 0)
(0.609149 -0.0172284 0)
(1.0643 -0.0175337 -9.12148e-21)
(1.08423 0.0228236 1.51487e-20)
(0.245293 -0.0381235 0)
(0.868727 -0.0143914 7.19957e-22)
(1.05409 0.0233535 -6.46583e-21)
(1.02623 0.0360467 4.17116e-21)
(1.0756 0.0254798 -6.59364e-21)
(0.999749 0.0206586 2.63792e-21)
(1.01279 0.00508011 5.70357e-21)
(1.03783 0.0209731 0)
(0.302259 -0.0352965 0)
(1.04517 -0.0617833 0)
(1.26375 0.0369035 -4.33344e-20)
(-0.0283655 -0.088123 4.41703e-20)
(1.15465 0.022364 -3.86875e-23)
(1.14783 0.223499 0)
(0.727853 0.0156454 -1.5687e-20)
(1.13294 -0.271601 3.47485e-21)
(-0.0111502 -0.0386928 -1.23976e-19)
(0.88396 -0.0852475 -4.96533e-20)
(0.611676 -0.0148937 0)
(1.00811 -0.290252 0)
(0.946392 0.046666 1.52748e-20)
(1.00081 -0.117878 4.45068e-21)
(1.30933 0.377968 1.16429e-20)
(1.06374 -0.168931 -3.28078e-22)
(1.02122 -0.00546669 -6.54432e-21)
(1.01009 -0.333537 0)
(1.39371 0.397993 -6.48788e-20)
(0.677697 -0.0154257 0)
(0.819595 -0.0247061 -7.04808e-21)
(1.03252 -0.0163104 1.5481e-22)
(0.594442 0.0170566 0)
(1.10035 -0.00640256 0)
(0.286554 -0.194293 -5.19589e-20)
(0.919506 0.216379 -1.72067e-20)
(0.734246 -0.0191191 3.63708e-21)
(0.990895 -0.0034625 0)
(0.565578 -0.0198851 0)
(0.781221 -0.0218393 -6.36737e-21)
(0.538158 -0.0163535 -6.04308e-22)
(1.22999 -0.0220483 9.43222e-23)
(1.12216 0.124834 -8.04698e-21)
(0.740737 0.0146438 -4.12785e-21)
(1.05496 -0.00928047 1.15365e-21)
(0.956918 -0.0528142 3.09186e-22)
(0.576638 0.0113036 1.08337e-20)
(1.04897 -0.00722297 1.47866e-21)
(1.01995 0.107743 0)
(0.964862 -0.165822 0)
(0.531659 0.0168791 0)
(1.04586 0.00790209 0)
(1.23373 0.0830312 -2.10601e-21)
(0.934857 0.0735343 0)
(1.10612 0.0535104 0)
(1.09047 0.0797225 0)
(1.08544 -0.141486 0)
(-0.00818053 -0.0135823 3.94053e-20)
(1.32495 0.0662334 8.30501e-22)
(1.12659 -0.00706648 0)
(1.38601 0.134779 1.42767e-20)
(1.3072 -0.0218159 1.10295e-22)
(1.07166 0.0407351 7.19303e-21)
(1.22536 0.135041 2.73954e-21)
(1.22818 0.145008 0)
(0.602511 -0.011368 1.37148e-20)
(1.05216 0.0305702 1.02675e-20)
(1.03441 0.288467 0)
(1.12597 -0.141526 -4.01219e-21)
(1.19677 -0.130485 3.59056e-21)
(0.407079 0.087064 -4.41778e-21)
(1.12946 0.0647153 5.82117e-21)
(1.22233 -0.167096 -1.03383e-21)
(0.82033 -0.147554 0)
(1.2174 -0.143047 -2.1771e-20)
(0.887559 -0.164161 -9.70018e-21)
(0.935483 0.1036 -7.94723e-21)
(0.860923 0.300599 0)
(-0.0242493 -0.0191923 0)
(0.981982 0.117521 -1.66519e-20)
(1.19278 -0.0651492 0)
(1.21842 0.0570542 -9.98245e-21)
(1.08115 -0.0689039 2.2879e-21)
(1.23671 -0.200878 9.93928e-22)
(1.10498 -0.0881209 -2.85523e-21)
(1.40869 -0.074916 1.07488e-19)
(1.0122 -0.314556 6.5336e-20)
(1.18947 0.00831199 -1.01614e-21)
(0.998763 0.296702 0)
(0.779992 -0.0368637 0)
(0.908333 0.00694508 -3.81061e-20)
(1.05112 0.0496094 1.61826e-20)
(1.32065 -0.0370592 0)
(0.676992 -0.282221 -1.13002e-20)
(0.533625 -0.210541 0)
(0.822187 0.30771 -2.33328e-21)
(0.933102 -0.0356942 1.35136e-20)
(0.823715 0.0290559 -9.63773e-21)
(1.12689 0.145476 0)
(1.02208 -0.102009 -2.66859e-21)
(0.955723 0.0607315 8.62261e-21)
(0.802713 0.385602 -4.54228e-21)
(1.249 0.0264847 -2.73215e-21)
(1.00102 0.330884 0)
(1.08661 0.0575406 0)
(1.05394 0.274609 -7.87692e-22)
(0.861503 0.340424 2.35694e-21)
(1.09285 -0.144868 1.44436e-20)
(1.23539 -0.031377 -6.1037e-21)
(0.868593 0.126665 1.14083e-21)
(1.20288 -0.0576908 0)
(0.407902 -0.13701 1.18466e-20)
(1.27055 0.00953332 -1.46963e-20)
(1.07153 0.240399 8.2769e-21)
(0.342279 0.201425 4.67049e-21)
(1.43528 -0.145288 1.82684e-20)
(0.828313 -0.22869 4.65309e-20)
(1.16534 0.162438 8.18857e-22)
(1.19687 -0.0218572 -1.82531e-21)
(-0.0618793 -0.124797 -7.50684e-21)
(1.00141 -0.00632946 0)
(1.03675 -0.0870375 -1.73831e-20)
(0.843576 -0.0248469 1.52617e-20)
(1.09255 -0.0472948 7.59411e-21)
(0.762071 0.215372 -1.26097e-21)
(0.519774 -0.012179 1.42258e-21)
(1.40362 -0.384234 -1.48215e-20)
(1.15838 0.0559956 0)
(1.071 0.0405992 -2.41896e-21)
(1.13529 0.039795 -3.46641e-21)
(1.28676 -0.159669 0)
(0.897612 -0.0122327 2.67382e-20)
(1.14801 0.0428306 4.92449e-21)
(0.779033 0.0941228 1.3772e-20)
(1.148 -0.0040811 -1.4761e-20)
(1.00188 0.118621 -1.49456e-20)
(-0.0502154 5.0683e-05 0)
(0.421493 0.433633 -5.53403e-21)
(1.15379 0.0750339 0)
(0.857218 0.148171 -1.61725e-20)
(0.660572 0.115253 0)
(1.11018 -0.00416657 7.04163e-21)
(1.01457 0.0228201 0)
(1.18026 0.00473098 0)
(1.41498 -0.133419 1.69603e-20)
(0.793615 -0.0748839 0)
(1.23873 -0.281474 6.86733e-21)
(1.07287 -0.0154908 -1.44303e-22)
(1.07969 0.0669096 4.1655e-21)
(1.18663 0.010725 4.97291e-21)
(1.22856 0.0798984 -1.05293e-20)
(1.00015 0.0583992 3.05198e-20)
(1.24149 0.0624208 0)
(1.23788 -0.0778698 0)
(1.19143 0.046288 1.86297e-21)
(1.17572 0.00255652 0)
(1.49739 0.122845 -3.63876e-20)
(0.68019 -0.145815 1.85101e-21)
(1.02475 0.0108841 1.94787e-20)
(1.22746 0.122154 -8.01741e-23)
(-0.0206251 0.0444442 0)
(-0.0166287 -0.0268133 0)
(0.165889 -0.256553 -3.83295e-20)
(-0.0536938 -0.165106 0)
(0.699889 -0.289351 -1.05571e-20)
(1.18559 0.0276357 -4.9056e-21)
(1.17408 -0.137173 -5.89322e-21)
(1.32671 -0.00957584 2.52038e-21)
(1.16857 0.0101086 0)
(0.703404 -0.000840359 -3.15857e-21)
(1.23556 0.0187737 0)
(1.22975 0.0489352 1.92396e-21)
(0.493292 -0.109548 0)
(0.754488 -0.332788 -2.33577e-22)
(1.16862 -0.0201669 0)
(1.08077 0.0173721 0)
(1.05633 0.200908 8.12962e-20)
(0.775441 -0.347006 1.22761e-22)
(0.835246 -0.258776 -6.09544e-21)
(1.00976 0.0181362 -1.1931e-20)
(0.127333 -0.144295 0)
(1.11698 -0.157041 -2.47888e-20)
(1.13464 0.0794872 6.01105e-21)
(0.996086 -0.122891 -3.0462e-21)
(0.951583 -0.287042 -7.9006e-21)
(-0.0647575 -0.046987 -9.86221e-20)
(1.09783 -0.0133361 0)
(-0.0409263 0.062389 0)
(1.09365 0.0516329 1.61475e-20)
(0.800497 -0.234324 8.50453e-21)
(1.0609 0.0440966 -1.29589e-20)
(1.12361 -0.0431879 0)
(1.15003 -0.129182 4.71881e-21)
(1.03946 0.129698 -1.71709e-20)
(0.514804 -0.0539882 -7.36844e-21)
(1.1342 -0.0286451 -6.695e-21)
(1.19592 -0.0916975 -5.66446e-22)
(0.271787 0.53582 -1.1945e-20)
(1.34694 -0.120359 1.17695e-22)
(1.09163 0.0524956 0)
(1.14531 -0.0499509 0)
(1.21168 0.0108985 -3.33715e-21)
(1.08842 0.0755392 -5.43307e-21)
(0.300639 0.205808 6.63686e-21)
(1.18771 -0.114429 -2.71043e-20)
(1.06851 0.0315091 1.90286e-20)
(0.523835 -0.00591646 1.74824e-20)
(0.739638 -0.0344357 -1.49798e-19)
(-0.1244 0.330771 -5.17393e-21)
(1.18332 0.157886 -6.99186e-21)
(1.22438 -0.486697 2.24145e-21)
(1.36499 0.147181 -1.48921e-20)
(1.20319 -0.0199529 3.95464e-21)
(0.935867 -0.220903 9.75126e-20)
(0.336937 0.297076 0)
(1.06786 -0.0850375 -1.89848e-21)
(0.518945 0.549856 -1.06855e-20)
(1.08298 0.00338463 -1.39723e-20)
(1.01685 0.095669 1.05493e-20)
(1.10595 0.0411318 0)
(0.914667 -0.14267 0)
(1.16087 -0.0341946 0)
(1.08847 0.0909087 8.59188e-21)
(1.25333 0.0235307 -1.25621e-20)
(1.16051 -0.0419703 9.00466e-21)
(0.486044 0.017825 0)
(0.639855 0.0129249 0)
(0.644713 -0.00387258 1.6978e-22)
(0.466619 -0.0177862 0)
(1.05271 0.00564853 0)
(1.02052 -0.00624339 3.18121e-20)
(0.605374 0.182757 0)
(0.937579 -0.000477294 0)
(1.10986 -0.103337 0)
(1.18183 0.167962 5.30809e-21)
(1.19448 0.100106 3.17762e-21)
(0.959346 -0.0273208 9.41611e-21)
(1.28226 -0.401112 -9.15709e-20)
(0.683315 0.207419 1.04026e-20)
(1.34402 -0.0495594 4.38146e-21)
(1.27254 -0.230047 0)
(0.0332735 0.173805 0)
(-0.180038 -0.372421 0)
(1.14647 -0.0205637 9.83335e-21)
(1.31539 -0.287207 -5.89033e-21)
(1.19695 0.161605 0)
(1.12018 0.0342373 -1.32184e-20)
(0.157625 -0.0378702 0)
(1.50705 -0.180259 5.43535e-20)
(0.424752 0.538816 9.09787e-20)
(0.24052 -0.0361324 0)
(1.08826 -0.278861 9.82883e-20)
(0.962013 0.257959 0)
(0.212821 0.484443 1.42136e-20)
(1.24467 0.150834 0)
(0.0950843 -0.295568 -1.18897e-20)
(0.984683 -0.0507737 0)
(1.24558 0.0784916 5.18815e-21)
(-0.171847 -0.15953 -7.42106e-21)
(1.11037 -0.0158778 4.84045e-21)
(1.22643 -0.283401 9.47844e-22)
(0.56431 -0.495964 -9.49854e-20)
(1.19203 -0.0718559 -1.07071e-21)
(1.19358 -0.122245 9.18949e-21)
(1.19305 0.22254 -8.64247e-21)
(1.13795 0.162171 -4.19531e-21)
(1.12961 -0.00667951 2.21274e-21)
(-0.247994 -0.298584 -2.24765e-20)
(0.183793 0.00461188 -1.12197e-20)
(1.17867 -0.127253 6.73066e-22)
(1.05976 -0.0406433 0)
(0.565526 -0.45337 -2.69808e-21)
(1.39388 -0.441954 6.31202e-20)
(0.913144 -0.0864738 -4.36237e-20)
(1.46403 0.0335869 9.59725e-20)
(1.08053 -0.0530225 7.41328e-21)
(1.27889 -0.227125 1.68304e-21)
(1.06249 -0.00988856 0)
(1.17258 0.0169071 0)
(1.31051 0.00854586 5.83902e-22)
(1.08477 -0.0226823 -4.2467e-21)
(1.23527 0.0397277 4.19465e-21)
(1.08359 0.00568345 -1.30476e-20)
(1.47058 0.0156112 -4.4454e-20)
(0.625035 0.00352688 0)
(1.36667 -0.171366 -4.80778e-21)
(1.30531 0.209388 0)
(1.08926 0.0144368 -1.07751e-20)
(1.12535 0.011148 0)
(1.03894 -0.00758932 1.80574e-20)
(1.19631 0.0195128 9.70024e-21)
(1.21914 -0.228515 0)
(0.0482522 -0.0306717 1.33725e-19)
(0.884021 -0.198684 -7.64788e-20)
(1.4452 0.0298323 -3.3159e-20)
(-0.145118 -0.0939464 4.72082e-20)
(1.17214 0.0502431 8.89774e-23)
(0.883157 -0.274815 9.36265e-21)
(-0.121373 -0.024937 -4.9222e-20)
(-0.0409215 0.0799717 -3.43805e-20)
(1.0171 -0.0283939 0)
(-0.0205628 -0.016704 0)
(1.29983 0.269123 0)
(0.110775 -0.0873607 0)
(1.10535 -0.0224378 0)
(0.127614 0.0342096 0)
(1.07212 0.0556002 0)
(1.11433 0.361957 0)
(1.12002 0.0705154 -9.62467e-21)
(0.568288 -0.28157 -1.81572e-20)
(-0.273104 -0.14393 0)
(1.12518 -0.109226 4.53955e-20)
(1.2143 -0.0958501 -2.37564e-21)
(1.53188 0.226859 0)
(-0.0375594 -0.0358646 0)
(1.12961 0.00214812 -2.80829e-21)
(1.13145 -0.0056847 1.46898e-21)
(1.19128 0.384699 0)
(0.190179 -0.0875412 4.24316e-20)
(1.11064 0.0437031 1.08383e-21)
(0.22728 -0.0520157 -4.58004e-20)
(-0.0582965 0.0614238 -4.71617e-20)
(-0.0175586 0.0505989 1.17875e-19)
(0.932834 0.463825 1.49964e-20)
(1.19146 -0.333396 -8.81176e-21)
(1.08023 0.0387171 -2.09065e-20)
(1.02185 -0.00990461 0)
(1.06863 -0.0629023 -2.58852e-20)
(1.15524 0.131951 -3.41509e-21)
(-0.00790971 0.0140481 1.05631e-19)
(0.975161 -0.0656873 -6.20803e-20)
(0.534245 -0.247322 5.57641e-21)
(0.976648 -0.251073 -7.79238e-21)
(0.0663739 -0.0319531 2.78616e-20)
(0.236576 -0.0395798 -4.07076e-20)
(0.350396 -0.0667172 -3.84493e-20)
(1.05606 0.041496 1.98541e-20)
(-0.0520067 -0.0184091 0)
(0.726814 -0.241547 1.39981e-20)
(1.36928 -0.207563 -2.13891e-20)
(1.2287 -0.0303696 2.06219e-20)
(1.38137 0.0422559 0)
(1.50738 -0.231682 5.3377e-20)
(1.12165 -0.0180945 -6.36119e-21)
(-0.00463257 -0.00384226 -3.33029e-20)
(0.567801 -0.0429683 0)
(0.956769 0.0185187 -5.94811e-21)
(1.10585 0.0405831 3.06076e-21)
(0.326118 -0.0208517 -9.61494e-21)
(1.12838 -0.00197912 8.43176e-22)
(1.10838 0.0344757 0)
(1.13204 -0.176355 -1.2305e-20)
(-0.100078 -0.185361 -5.63493e-20)
(1.31448 -0.00275868 1.90885e-20)
(1.11297 0.165394 -9.42862e-21)
(1.12718 0.000909927 1.49225e-20)
(-0.0286626 -0.0200613 1.30167e-20)
(-0.0400312 0.0775588 -9.14376e-20)
(0.936793 -0.0530688 0)
(1.0431 0.446034 0)
(1.14661 0.0672018 -1.08567e-20)
(1.05312 0.060291 1.05726e-20)
(1.18101 0.0429469 0)
(0.630723 -0.169849 4.78534e-20)
(0.907856 0.0385131 -1.68944e-20)
(1.10001 0.0849374 0)
(1.12326 0.0123167 0)
(1.36003 0.360936 0)
(1.11613 0.113844 0)
(1.35754 0.0226556 -6.23475e-22)
(-0.0412233 0.0544863 5.15223e-20)
(1.05661 0.0462994 9.59522e-21)
(1.41021 -0.207867 -6.0846e-20)
(1.37585 0.11576 -1.38578e-21)
(-0.14962 -0.325889 0)
(1.19723 -0.306851 0)
(0.654303 -0.0141206 -1.77106e-21)
(0.65369 -0.00129809 -8.26483e-20)
(0.115244 0.0300913 6.55826e-20)
(0.986631 0.0320847 3.78608e-21)
(0.732413 -0.270311 0)
(0.665191 -0.0928107 0)
(1.2787 0.168868 0)
(0.560835 0.534882 3.93101e-20)
(-0.0329678 0.0713651 -3.99975e-20)
(1.04384 -0.104294 7.02213e-21)
(-0.0150916 -0.0108178 6.0461e-20)
(1.11242 0.0407546 5.30002e-21)
(1.18662 0.29849 1.64822e-20)
(1.11331 -0.0908849 1.17524e-20)
(0.053488 -0.287179 2.98958e-20)
(0.874807 -0.290046 5.30273e-21)
(1.30277 -0.329291 0)
(0.603521 0.287676 0)
(1.07014 -0.197323 -1.52767e-20)
(-0.224767 -0.165547 0)
(0.613454 0.0262297 4.70569e-21)
(0.595014 -0.410124 -2.3628e-21)
(0.29531 0.0497508 -1.45647e-19)
(1.11392 -0.221169 4.27008e-20)
(1.05466 0.370066 8.80618e-21)
(0.979474 0.0269223 0)
(1.08492 -0.138868 6.67577e-22)
(0.672832 0.0167453 0)
(0.987152 -0.00828984 -2.09961e-22)
(0.419738 -0.0197871 0)
(0.713959 0.148168 0)
(0.988639 -0.0220765 -7.7636e-21)
(1.46069 0.089756 -1.8327e-20)
(1.12485 0.0513246 5.62781e-21)
(0.513866 -0.481465 0)
(1.12767 -0.1511 5.27644e-21)
(0.814575 0.389545 6.45209e-20)
(-0.0150921 0.0189719 1.67235e-21)
(1.16858 0.00174863 1.93563e-21)
(1.17632 0.00657095 -6.91879e-21)
(1.0855 0.138417 1.64194e-21)
(0.797406 0.00828683 -6.33372e-21)
(0.102714 0.0152736 5.37031e-20)
(-0.0256804 0.028007 -6.03913e-20)
(-0.214431 -0.288518 0)
(-0.21875 -0.211539 0)
(1.17309 -0.607911 2.72812e-20)
(1.13377 -0.0222453 -2.15914e-21)
(0.876592 -0.458929 -3.4445e-20)
(0.801622 -0.0719706 -2.83021e-20)
(1.43264 0.138292 4.83017e-20)
(0.634807 0.441397 0)
(0.253173 0.432772 -1.05409e-19)
(0.607087 0.499112 0)
(0.234384 -0.211783 0)
(1.11557 -0.469851 0)
(-0.0699996 0.0663777 -1.35389e-21)
(1.18393 0.00719595 0)
(0.992493 0.368114 -1.84882e-20)
(0.615828 0.71593 2.19741e-20)
(1.15086 0.264743 -8.80117e-21)
(-0.0327596 -0.0706544 -8.88728e-20)
(0.732032 0.3647 2.20112e-20)
(0.509985 0.15405 -1.73274e-20)
(1.18004 0.0454779 0)
(1.40738 0.324137 5.5959e-20)
(1.256 0.565669 2.13891e-20)
(0.253525 -0.0402251 -3.28776e-20)
(1.17104 0.0341607 4.79499e-20)
(0.928782 0.00451528 1.87341e-21)
(0.956331 0.0455876 -1.30129e-21)
(-0.0138245 -0.0157936 0)
(0.636355 -0.632327 -3.27866e-20)
(0.617433 0.220572 0)
(0.0796217 -0.195279 0)
(-0.0578204 0.10729 0)
(-0.00164671 -0.150687 -3.24974e-20)
(1.18306 -0.00043146 -2.25875e-21)
(0.0207107 0.0871749 0)
(-0.0542737 0.115013 0)
(1.40799 0.0234907 -8.91368e-20)
(-0.0323098 -0.0439713 4.04319e-20)
(0.11785 0.248767 -9.7282e-20)
(0.505343 0.00162986 0)
(0.164852 -0.261248 8.31631e-20)
(1.07371 -0.241184 0)
(0.99334 -0.2739 0)
(-0.0011373 -0.0974759 8.23e-20)
(1.12466 0.0191147 -1.63452e-22)
(1.14409 0.336053 2.19736e-20)
(0.331278 0.022975 6.19627e-20)
(0.395538 -0.503044 -4.3779e-20)
(1.40948 -0.0395585 0)
(1.34 0.139799 3.09351e-20)
(1.30641 0.172588 -3.79676e-20)
(0.104328 0.105606 -2.3065e-20)
(-0.0864657 0.0071637 0)
(1.07166 -0.0444331 -2.01652e-20)
(1.09385 -0.213462 -2.09464e-20)
(0.57628 -0.383353 0)
(1.09455 -0.150294 -2.92694e-20)
(-0.104547 -0.275085 0)
(0.790437 -0.00619779 0)
(1.4882 0.114361 3.93756e-20)
(1.02635 0.015205 9.19318e-22)
(1.10524 0.754875 -5.48631e-21)
(0.219948 -0.3644 1.39614e-19)
(1.12351 -0.0392334 -6.15314e-22)
(1.188 0.0423332 1.04752e-21)
(-0.0686979 0.12011 4.32145e-20)
(0.818614 0.756804 1.64495e-20)
(1.34232 -0.369022 -1.2623e-20)
(0.378307 -0.187428 1.13408e-19)
(1.09264 0.0619054 0)
(0.387718 -0.411882 -8.03905e-21)
(0.88585 -0.625052 2.13124e-21)
(0.944289 0.663698 -3.56854e-20)
(0.529681 -0.0400754 -5.17366e-20)
(1.12277 -0.00857381 -1.01654e-20)
(1.07591 -0.0810044 9.22922e-21)
(1.09177 0.0608825 8.50706e-21)
(1.10683 0.108394 1.81959e-21)
(1.12635 -0.120775 0)
(1.03356 0.0712417 2.13613e-20)
(0.945787 0.475401 0)
(1.11436 0.138593 -6.24494e-21)
(1.15825 0.0839221 -1.29224e-21)
(0.824882 0.273265 0)
(0.599077 0.112358 1.38907e-19)
(0.919191 0.729765 -6.93355e-22)
(1.09149 0.283713 -1.68754e-20)
(1.04212 -0.00919822 1.56919e-20)
(0.423712 0.513456 0)
(1.28686 -0.467621 0)
(0.55135 -0.339787 1.41786e-21)
(1.31965 0.502585 0)
(0.0173579 0.0582901 -6.28171e-20)
(1.27305 -0.408796 8.34768e-21)
(1.19063 0.505358 0)
(0.456064 0.239551 1.64693e-19)
(1.20147 0.315346 -1.58378e-19)
(0.805636 -0.621268 -2.95663e-20)
(1.1001 0.0707681 2.4277e-21)
(1.0171 0.146474 1.11773e-19)
(1.09708 0.158296 3.99379e-20)
(1.10781 0.717575 -4.40755e-21)
(0.896023 -0.422181 7.11237e-20)
(1.41957 0.0977345 5.27224e-20)
(1.11239 -0.0034536 -1.41257e-21)
(-0.00966479 -0.0231015 7.1624e-20)
(1.06937 -0.690398 1.26137e-20)
(0.859671 -0.703362 6.33768e-20)
(0.246036 -0.306445 0)
(0.969337 -0.137727 7.71183e-20)
(0.368526 0.330746 -4.2761e-19)
(-0.158313 -0.302494 2.41925e-20)
(0.402492 0.0170267 3.49224e-20)
(0.660399 -0.061754 -6.19428e-20)
(1.10493 0.534513 0)
(1.00146 0.224141 7.20628e-20)
(1.08152 0.024592 3.24658e-21)
(0.930132 0.453254 -8.31854e-20)
(0.768758 -0.70954 -1.04582e-20)
(0.92448 0.0348338 -4.86714e-20)
(0.994841 0.496234 0)
(1.03158 0.22058 1.52073e-21)
(1.3685 -0.510047 9.74005e-21)
(1.21958 -0.333864 7.94437e-21)
(-0.235202 -0.544379 4.00553e-20)
(0.194212 0.0301995 -1.802e-20)
(0.975983 -0.10893 -5.86177e-20)
(0.364587 0.54831 0)
(0.918393 0.0291297 3.87816e-20)
(1.20486 0.646306 1.0803e-19)
(-0.0681028 -0.241498 1.19073e-19)
(-0.0857646 0.0849717 -3.60723e-20)
(-0.0921398 -0.097351 4.18863e-20)
(1.08887 0.00820765 -4.32887e-21)
(1.11805 -0.456857 0)
(1.05523 -0.720227 -5.45121e-20)
(0.708769 0.366591 0)
(0.0332424 -0.240028 -7.81402e-20)
(1.16343 0.00484455 8.22341e-21)
(-0.0312507 -0.0444596 -2.53344e-20)
(1.05005 0.0462297 -1.19439e-20)
(0.171478 0.0242334 8.14405e-20)
(0.973484 0.113429 0)
(1.42298 -0.0105598 4.34547e-20)
(0.156228 0.0341043 -3.9637e-20)
(-0.380727 -0.407641 -4.74971e-20)
(-0.225693 -0.380401 0)
(0.0669063 -0.00274655 0)
(1.37396 0.0369213 -9.98875e-21)
(0.364794 -0.0135722 1.26762e-19)
(1.25354 -0.716281 -6.82298e-21)
(0.726683 -0.168296 -7.92582e-21)
(1.08451 0.245562 -2.34664e-20)
(0.35939 -0.533763 1.45497e-19)
(1.58645 0.208122 -4.84299e-20)
(0.0392833 -0.05915 2.66795e-20)
(0.21255 0.330862 1.90741e-19)
(0.0599136 -0.0223044 -1.02654e-19)
(0.936999 -0.478689 -4.59037e-20)
(1.50786 0.358126 4.95968e-20)
(0.554843 -0.656849 5.31239e-20)
(1.10316 -0.0702199 -8.77029e-21)
(0.271224 -0.151833 4.16347e-20)
(1.28463 0.2768 -6.72637e-20)
(0.678159 0.660442 -3.62719e-20)
(1.32395 -0.617384 0)
(1.4888 0.509407 4.43515e-20)
(1.0434 -0.51617 -1.17168e-20)
(1.4413 0.604036 -1.40244e-19)
(1.1481 0.0644694 0)
(-0.0488909 0.121999 0)
(1.28937 0.736071 0)
(1.0723 0.126174 -1.12801e-20)
(0.73271 -0.283666 -2.11166e-19)
(0.475479 -0.0636124 0)
(-0.0510971 0.125873 -3.66059e-20)
(1.01116 -0.233882 1.09977e-19)
(-0.255845 -0.235932 0)
(0.323101 0.0488852 1.2176e-20)
(1.10211 0.0588171 0)
(1.49599 0.228671 0)
(1.14481 0.0678458 -2.5993e-21)
(0.35636 -0.269311 0)
(1.02184 0.14861 3.283e-20)
(1.38137 0.255397 0)
(-0.114498 0.0524264 -2.9887e-21)
(0.808387 -0.377893 0)
(1.55094 0.287038 -7.32467e-20)
(1.26498 0.353346 -1.01623e-20)
(0.859247 0.660042 -8.74921e-21)
(1.01863 0.153883 -7.98618e-20)
(0.958547 -0.195926 -5.29651e-20)
(1.50088 0.246891 4.27491e-20)
(1.14986 -0.0247908 0)
(0.56546 -0.0526344 0)
)
;

boundaryField
{
    FrontBack
    {
        type            empty;
    }
    Top
    {
        type            noSlip;
    }
    In
    {
        type            fixedValue;
        value           uniform (1 0 0);
    }
    Bottom
    {
        type            noSlip;
    }
    Out
    {
        type            zeroGradient;
    }
    circle
    {
        type            noSlip;
    }
}


// ************************************************************************* //
