/*--------------------------------*- C++ -*----------------------------------*\
| =========                 |                                                 |
| \\      /  F ield         | OpenFOAM: The Open Source CFD Toolbox           |
|  \\    /   O peration     | Version:  2412                                  |
|   \\  /    A nd           | Website:  www.openfoam.com                      |
|    \\/     M anipulation  |                                                 |
\*---------------------------------------------------------------------------*/
FoamFile
{
    version     2.0;
    format      ascii;
    arch        "LSB;label=32;scalar=64";
    class       surfaceScalarField;
    location    "629";
    object      phi;
}
// * * * * * * * * * * * * * * * * * * * * * * * * * * * * * * * * * * * * * //

dimensions      [0 3 -1 0 0 0 0];

oriented        oriented;

internalField   nonuniform List<scalar> 
1171
(
-0.9279286416952265
0.9279286417450917
0.7872779084410482
-1.09875334136878
0.3114754327366768
-0.1949670902888492
-0.7667521408290673
0.9617192311348159
0.07207136196568287
-0.1172209691649647
-0.2117734471416757
0.3289944169291674
-0.7872779197139003
0.06932566362870607
0.7179522560702676
0.8109293454197668
-0.1773978777828325
-0.6335314675581086
0.874315711175586
-1.04351044170031
0.1691947304775163
-0.2847487198849111
-0.09772127577884664
0.382469995254189
-0.03593441754468337
0.5483809977294354
-0.512446580093879
-0.5052915338803359
0.8278517071520176
-0.3225601733074439
-0.4019696942646614
1.045773757354044
-0.1714580460884757
0.3959152359809173
0.04817346570217508
-0.444088700402096
1.046406903126491
-0.0006331460433387815
0.4458832862621108
-0.0499680472985613
1.056996166838605
-0.01058926019802559
0.5777406387632336
-0.7727077350167245
-0.7244098389083716
0.5571797240808963
0.1672301149154433
0.2213064027148851
-0.7265979288533986
0.5503199721535662
-0.9226966764112746
0.3723767051452445
-1.094174918561683
0.6863945367220208
0.4077803817186123
-0.5953494737291118
0.5594150495646361
0.01809187263906618
-0.2568203117531044
0.238728440218894
-0.02455505074140924
-0.5226802053945685
0.5472352564763581
0.3999085973628937
-0.497629879499024
-0.9187432569795062
0.9414328240268015
-0.02268956707188869
1.067685967557555
-0.01068979883761956
0.9352028933943354
-1.116967974343298
0.1817650810314721
1.067323633994648
0.0003623378754214729
-0.6643152847953455
-0.06009455499136582
1.262119950684975
-0.864402531263549
-0.3977174194184455
0.1485803820915747
-0.1089480875171646
-0.3258899326958506
0.4348380198619202
-0.2857442363121533
0.1911128916711122
0.09463134412456173
-0.5833861878575497
-0.5153671482646472
1.01408790958022
-0.07888501535835664
0.009936741589505955
0.825435608768788
-0.8353723504088799
0.5718304457297945
0.6902895026093061
0.4394329070017952
-0.0304336608086355
0.4303422582913806
-0.8076765026436402
-0.1026093546369532
0.910285857365995
0.5027094272913943
0.2538043706610623
-0.7565137979420571
0.003803197535639627
0.5292808457336148
-0.533084042707394
-0.489871767413927
-0.6043031488743095
-0.4229087846717962
-0.6940591898559576
-0.02736366182343301
0.2702588034855138
-0.2428951426076185
-0.9248721372233919
-0.005183986746033925
0.9300561239088273
0.3079376071343666
0.07453238125987906
0.7623878892303884
0.04854146071476049
-0.5330658966878341
-0.06228357888317586
0.0463377661864296
-0.8540142677430778
0.07619006475148621
0.8620075955231028
-0.9381976602951094
-0.3474091720501228
-0.04120739255587372
0.3886165644552078
-0.6824150439878376
-0.2424570969509622
-0.6313752919221719
0.7075653588273053
0.6091223013797011
0.2187294127591596
-0.5428802471927572
0.9462132233001725
-0.7794204634125484
-0.1667927599308351
0.02226055936746699
-0.01468392363199982
-0.007576635119769186
-0.4029311105222452
-0.0946987687824737
-0.2418260149353415
0.8509483217447867
0.04661411116742683
0.3346642585989133
-0.3812783702570245
-0.4604897917504044
0.963199223499231
0.6800917138808591
-0.782701066087627
0.3187034657832536
-0.01638226274880535
-0.302321203180003
0.930670609561026
-0.9306706095793136
-0.7830499539257151
0.1109914338125579
-0.3227648847763438
-0.7500519209573608
0.7599886608737187
-0.09060061545725881
-0.1427432102211189
0.2333438249757562
0.8649670140013558
-0.0395314081147454
1.054385185383761
-0.8005808080557683
0.1860269884662074
-0.3155757427793541
0.1295487545105759
0.8592847085710476
-0.09689681835001628
-0.6117733479532813
-0.03937534931097512
0.6511486972319043
0.1238491281953411
-0.2310846094432792
0.1072354824488241
0.8056470737127143
-0.9830449480232136
-0.435245746338159
0.3295555048396154
0.1056902420652152
0.5317218390479731
-0.5562768874395737
1.022128941964921
-0.4562681817839801
-0.5658607601941911
0.599220158848312
-0.7193239583937702
0.06669962758039411
0.6526243304408511
0.1027709165634682
0.5705185954147856
0.0547156183972517
-0.6252342136582473
0.1943347321159986
-0.08334329720802108
-0.4931216068547097
0.1457124356256281
0.05037000192880482
-0.8868377336890295
0.8364677318333549
-0.4745067451265733
-0.713449391627081
0.04913410551779229
0.4365645086329926
-0.006222253827859528
0.2999203089043199
-0.8552596607620893
0.5553393520543779
0.4157177742106551
0.5842822258648113
0.5605794769480226
-0.5142417055230301
-0.3653175727997982
0.0352960276981647
0.3300215421035549
0.681359539753415
0.2493110693884629
-0.5665346118688659
0.5703378097935166
0.1106745756581589
0.8749727454467446
0.01027159308435606
-0.6220449426199371
-0.7493235369470492
0.7996935405224359
0.5311432417074019
0.07144472425365508
0.3012223662223536
-0.3726670902656866
-0.1676197285639875
0.4420423490647857
0.08723848733142291
0.8756766073934859
-0.7974847900091896
-0.0781918173041572
0.6355037717053204
0.3107094508576866
-0.4302947715359913
0.5755306001928588
-0.5040858750711057
0.4171538680469384
0.133166110477925
-0.0469112741459963
-0.5893519031466927
-0.1382770869157929
0.7276289900646006
-0.1496853734425923
-0.7809852391578685
-0.6110468953184134
0.3606535508834277
0.2503933432549341
0.6222926218616122
-0.6120210281233927
0.2383938060016536
1.011520742049785
0.04286444426295399
-0.7493235343557357
0.221502206903491
-0.1992416525111144
0.6800917124904129
0.8021471835282716
-0.8021471835988416
0.8377036239742924
-0.8333212940729525
-0.004382329821136171
-0.4453760855805109
0.8610938598439526
-0.147642913735285
-0.3454786958282804
0.7347225666246254
-0.6684786044947684
-0.06624396220024549
-0.7317465638356782
0.1423946608624646
0.1387643568129135
-0.6718302533634103
0.782701052648741
-0.9503207812737051
-0.3648913060695387
0.2885814951349531
0.07630980958975554
0.1459009580056146
-1.009548468511187
0.8636475105347641
0.4807492962083396
-0.04131638929126853
-0.3081732178698575
0.5864309932069945
-0.2782577751980348
-0.7383118282306984
0.8842127844698153
-0.1571278422081204
0.7347329672724233
-0.8383751645573936
0.1036421973084979
0.9780278920413905
-0.5418480627317208
-0.4361798293824297
0.7552359119603228
-0.06486522033694499
-0.03494672988678614
0.187882045579614
-0.1529353161746902
-0.7757329672682777
-0.8453520098391271
0.07859986262133276
-0.7500519213013157
0.5140997048513266
-0.5553071006066728
0.09005315717380319
0.7187606229064324
-0.8088137799398238
0.7537058506357567
0.1742228101471219
0.5028787338565712
0.4971212661188565
-0.05245676116936929
-0.6057420320003686
0.6581987936747684
0.8801003642988665
-0.004423753419882058
-0.7552359119430219
0.79969354061585
0.1910904814800526
-0.4479107900069997
0.01967015404122808
0.00113703903061158
-0.02080718893541742
0.5893511980276808
-0.4383880535831464
-0.1509631439545779
0.7179522627788679
0.01415122186034534
-0.1106190417531113
0.4376096263910139
0.1517415731805352
-0.01354404601646039
-0.006328707893311107
0.01987275322582676
-0.03380987173705036
-0.00113686570904249
0.2434643857810674
-0.2598466375491101
-0.9592750259291069
0.001972270003286685
-0.159581485323789
-0.1214269235631099
0.0946837683722515
0.7213732151426442
0.7290225617879855
-0.1447403362041195
0.6609552599951733
-0.5709021042198501
-0.2118620410136337
0.3978890296965006
0.6954473847932393
0.02250487796030805
0.2416155603311317
-1.074936851976749
-0.9503207829066977
0.301715356922807
0.7599886589915406
-0.2087283266810445
0.06598511935723815
-0.7233454861822465
0.9095107730473549
-0.1861652868554136
0.4163120840400804
-0.02769552623732459
0.7716025142198507
0.2806760430423156
0.372430039306326
0.07345323735715484
-0.6586942509375164
0.6586942509168709
0.2147591639556753
0.6955266957303343
-0.05493487744917726
0.3895991409365956
0.3799031459514142
-0.01365054090191482
0.03332068294508997
0.4493702619516619
0.03137903141913399
-0.7383118288031246
0.5341173991668986
0.2006051702805067
0.3056002067982148
-0.117718160195757
-0.6954473858932938
0.1798629313166841
0.7296478423329861
-0.01023972762777219
-0.8136616269613525
0.8239013545738401
0.6962909057097464
-0.7920714216832476
0.09578051602840468
-0.7537058581446318
-0.1503626122254602
0.2113601387647329
-0.06099752745526478
0.07730332731900869
-0.1794972870015776
-0.1128154777823083
0.2923127658388129
-0.00677583392068627
-0.006768219741191543
0.7065987848181001
-0.7168385201897547
0.8848210133371356
0.07689821244636813
-0.3161774657932459
-0.5171861262307802
0.83336359185899
0.1034675476799141
-0.1034675450652833
0.3238775285315663
0.4744903796937514
0.6161446227794074
-1.090635002400453
-0.1941279028973441
-0.5856725202571665
0.7798004231715898
0.01324202995260743
0.2201018029353757
0.3771429375238547
-0.253293796908228
1.013191092078731
-0.538700708781927
0.6647830357820151
0.9946229104549813
-0.3784782840646196
0.2295000203335805
0.8842127826982197
0.7127547378823714
0.2137091396643309
0.7277236879757052
-0.7809852396493591
0.3413057627947699
-0.2761300352389985
0.2448113100904289
0.03131872390189976
0.8471860930237607
-0.01026847910681165
-0.8369176136767121
-0.7021654818296253
0.702527822079116
0.5546239166141155
-0.7021654801595477
-0.7127547378900203
0.7025278239010883
-0.03481276361177186
0.9058357585709249
-0.02101474866807754
-0.6813595294622077
0.6123605310956273
0.06899899835967878
0.5387718031615236
0.5369449359327382
-1.07571673908068
0.4916250490354498
0.5215660442230717
0.5427754863602319
0.4594527610341391
-1.002228247337576
0.4976512488343973
0.4969716629708538
0.6123605239407203
-0.5255433489729761
-0.4651107184812423
-0.5565179519027963
-0.5191311451259071
-0.1196145451773691
-0.01220859167893073
0.01220859065380126
0.5129171716741361
0.5230053534850436
-1.042136498494179
0.5751361076298058
-0.2739137419676709
-0.8855023947885848
0.3436543315205609
-0.6330467538442309
0.3905896556882897
0.002483724448047171
-0.8296707542644705
0.8271870297545457
0.4208493367285518
-0.01739553156433222
0.8645816240019665
-0.9475527527993045
-0.8341924455638655
0.05449834367342659
0.7796941017897441
0.5638366896300531
-0.4387794930218361
-0.125057196564774
0.6500343441981561
-0.7289193600336246
0.8857110012559725
-0.8324645703742363
-0.05324643111117254
-0.009385708636609185
-0.7880990781573455
-0.109665066275207
0.7137916349168457
-0.604126568633453
-0.9360053674341047
0.9266196591210897
-0.7278349195016616
0.6918321056676883
0.03600281379938517
-0.8105072657152822
0.03900785587259865
0.7714994097522481
0.06169756690659507
0.04176997743767392
0.4330864186658237
0.0618417388783683
-0.851459008761837
0.7896172699964525
-0.6428667797598572
0.5904100215118645
0.8900708963190791
0.07008645881320728
-0.9601573550835605
0.05587844791944111
-0.04746553180106051
0.3774870795340282
-0.3813644694295397
0.06578872978240641
0.8423270966008657
-0.8398433691764625
-0.7336090589669881
-0.8114162523235668
0.02331717444212099
-0.1636996836094589
-0.8529193994206277
0.0204548350956191
0.62419272188457
0.03676253675668314
0.03263797835333304
0.5311987170809759
-0.8064659437749642
0.8454737960598231
0.5658607585687108
-0.8470662818288198
-0.8659189104723501
0.03991684431840306
-0.0368229083511847
0.8380850616124671
-0.8012621533172883
-0.02573236266680159
-0.7704319691967395
0.5443509411027323
0.1519399606959549
-0.0316191163540357
0.8962007410174204
0.9811180012538524
0.8621487961007321
-0.8416939582593744
0.1475110142420971
-0.1475110126028596
-0.1186672632748269
-0.4824599919870866
0.04368050258702374
0.2706037878795507
0.03111156869984159
0.3865812662294503
0.8704683767387225
0.004293448853898025
-0.01106929211093511
0.6586089743130513
0.3413910256681598
0.7835547669539953
-0.5833861856033306
-0.7780759313632936
-0.8115306360157719
-0.6798382615606487
0.6798382615535907
-0.1677506230132602
-0.1550142652372401
0.6018298198281175
-0.8122377848443332
0.2104079649879436
-0.4937351601103953
-0.5690136445248526
0.2782041099616815
-0.9722632992859767
-0.90190456790119
0.8486581446829463
-0.8140376082860854
0.8373547820062012
0.6487310563380557
0.1343127873263173
-0.7830438436434212
-0.775527821201819
-0.1459447627377128
0.7242358026055394
-0.578291039834221
0.03143618824614391
-0.014832075406608
0.01842859747327744
-0.003596523250590952
-0.3552668320902658
-0.1271931644035172
0.8800339275411304
0.7443112219429279
-0.2456232679846443
-0.4986879534535255
0.6192540207596835
0.6852913819330261
-0.4705322163713233
-0.0006247581422169114
-0.2851194764535006
0.02543738085554804
0.7463720368545536
-0.7718094178876064
-0.3235322448937657
-0.07252896798596464
0.07571165223743226
-0.9602016523457666
0.12328403702803
-0.677925000974466
0.05169411424149765
0.641080852142536
-0.6927749663940935
-0.7566667229135122
0.07874172193964811
0.5880300241485352
-0.6605589922210854
0.1568468028343976
-0.3363440880809663
-0.770628014005021
-0.00489980715060953
0.3712220922637863
0.6014265142433168
-0.02589591709811562
0.02287846827290305
-0.02287846766432192
-0.01853731199409105
-0.05035924406565189
-0.2257707982888213
0.02350708151327291
-0.01921360350857704
-0.7338654743124222
0.2792944966696399
0.6802790336811394
-0.6896223218382497
0.00934328796515739
-0.5965477914791755
0.6482419104222191
0.653040804707003
-0.06501078226809383
-0.6315744692152607
-0.1250922505088222
-1.050253113549606
0.01108483261248178
0.136426179247527
-0.7084280917280572
-0.7412395299266332
-0.7631490301183134
0.3654316088536561
-0.4126697700701399
0.4663615464472865
-0.0536917766842805
-0.6717941529134617
-0.03663393891170003
0.5016220812987606
0.7306803289261671
-0.233485546379411
0.1120586219919421
0.9651014563597375
0.4460444127400471
0.1342959691521269
-0.5803403818178896
-0.6780656715567088
0.00627151691801851
-0.04458745368419277
0.02975538957491593
0.6366503348945903
-0.7749274211139123
-0.002089458170116057
0.002089458407887086
-0.6009676917950224
0.6481684878300803
-0.04720079594593733
-0.645427689975087
-0.1131146915627501
-0.6715695053288194
0.05359719425946503
0.60460160511129
-0.1371205790119558
-0.8175142680744267
-0.5587462819368546
0.5655573924458255
-0.006811110566317055
0.6331106752268141
-0.6237673824755469
0.3223373083855737
0.2142050280792214
-0.5365423364657053
-0.1045891964389339
-0.6020706259977288
-0.09070433879963904
-0.1549232823361274
-0.5051490829219872
0.4041158895905455
-0.4988146566054779
0.1267589417479507
0.6782784340465962
-0.8050373758469016
0.5992201588528309
-0.3690796463848697
-0.04359011889086593
0.07950594564083034
-0.5846550255514379
0.5518411687757236
-0.04051444545262761
-0.5113267231677912
-0.3123755837612432
0.3049075564058584
0.007468026374308598
0.4542726010520517
0.1208635069443355
0.05097017831489511
-0.3159123498980104
0.1568135631428964
0.1590987865596494
0.2324311611950132
-0.01092894717664118
-0.2946628869999124
-0.3119371011175651
0.3620779451180342
-0.05014084618393173
0.788067074402367
-0.6270731574423399
-0.01835453224452115
0.4993204940043751
0.2805535655971333
-0.5261768351030535
0.5775022563812495
-0.5775022563825379
-0.289745967956975
-0.5864553984384425
-0.2955632050688473
-0.5864553982352146
-0.5947257508821939
-0.838512319526063
0.1700337189293936
-0.5833926635278742
0.8211415098550389
-0.003465928927887183
0.1189810762468019
0.4824454367327187
0.09670552665037264
0.1855027928190132
-0.03633966526989297
-0.1491631288929179
-0.01783526071977437
0.5941770928908907
-0.9462757897292967
0.4290896673689542
-0.001979545770060553
0.002697827948305559
-0.0007182830248653655
-0.6433018214040689
-0.1317108894274502
-0.4671202636998169
0.6014162312494169
-0.5037493468362885
-0.3243561378982103
-0.2602989032231775
-0.2712096300038551
-0.1119811573906956
0.111981156968481
0.1525105014409679
0.05884963265953116
0.1965876223732986
0.4554326065855655
-0.5732536767982798
0.1061334168487331
0.2428317628866179
0.4662564323995082
0.5337435668425407
0.6413802057537628
0.08554304747188098
-0.004311471963585342
-0.08123157805734524
-0.276865076285784
-0.5406491917165648
-0.5505030073535625
0.1141683662258488
-0.1261305711540832
0.01196220444450464
-0.1058082947789915
-0.3859931399125183
-0.0448324183122294
0.6494340046730882
-0.4986596341567424
-0.1446421872919118
-0.3390400628867926
0.2919496668275623
0.1235024270610205
-0.6075360439128605
-0.2040902793678381
-0.2618183523857985
0.001971696623850187
-0.4221957352037183
0.3227651710444275
0.09943056377464154
-0.09348724618016538
0.2916265431949212
-0.8959296901017775
-0.4580041018286914
0.6315987461903447
-0.7729621992571676
0.6683730027735788
0.3421336095965652
-0.1254582563719472
0.2252960984869027
-0.09983784125676404
0.02447453173630034
-0.5862781644840706
0.02927364294173092
0.557004521822495
-0.9007140415853405
0.5469796431703556
-0.6656469065032938
-0.09761764100474277
0.1094270698711391
-0.1094270668849837
-0.3165371059903304
0.3636036675614236
0.01388341720328524
0.02988631415348597
0.05565674523233321
0.5052473237823352
0.661545328579673
-0.7397371435042837
0.03102336384604249
0.02361694059688269
-0.0007384639398985877
-0.007085386192579937
0.007085385500200211
-0.4167468347857813
0.5376103434621694
0.01526941151987327
-0.0152694116556355
-0.7922322213290959
-0.0606739169389479
0.1223714910263373
-0.4556485045561427
0.5617819233923704
0.4511929937526762
-0.4983937931749526
0.1498738137158786
-0.1498738125391408
0.03485669462423778
-0.001536014988148441
-0.04171655974057137
-0.9766942484759404
0.5405144176075862
-0.4704386037197943
0.04176998055115071
0.5144780074624863
0.03107134615109435
-0.5455493533814708
-0.6159804154677996
0.1173207807182584
-0.3296368237111256
0.01343185092713931
0.3162049735728997
-0.1544822008960963
-0.07900333414462224
-0.5407995344796483
-0.04547863578616483
0.1364261776211651
-0.04063397259860269
0.03854452070775108
0.08122792384659509
-0.08122792743243723
-0.5373944354211728
0.487253600390131
-0.41444772310545
0.1613389345673994
0.622215832335613
-0.09789494437868351
-0.004449874471867146
0.004449874444711505
0.5329560700533391
-0.07633732915432691
0.0059595246806082
0.02699910750723817
0.0346845833018091
0.6853113490961337
-0.7616486781052202
-0.6560732773690585
0.6377187422575112
-0.1068349620292032
0.3129261901466778
0.7461679487706773
-0.01853731391828032
-0.2672027517337076
0.1494845842216711
-0.7446626418800756
0.4843559365113003
-0.4239985761838443
-0.1015024157336214
0.003551403897339721
-0.0143935981804404
0.01919559121291579
0.4112821746616958
-0.1216353472619211
-0.3896913745594415
0.628841594118927
0.01929399995503472
0.01072457103452673
-0.01072457095781707
-0.3551962436978839
-0.08196183323111729
-0.5605761470587307
0.5571102183327266
-0.2382737378138921
0.4647956383014138
-0.1511145605924721
0.7288551961664166
0.6729188184137576
-0.04063397179544944
-0.6157405016398946
0.5622997764156376
0.2892188806955261
-0.2868402361221959
-0.002378645731281725
0.5442314928436656
0.09338286531285261
-0.03897406556516352
0.1967782349920746
-0.1578041700011238
0.1202019864951646
-0.1202019894576517
-0.8587596138793451
0.002362804195595935
-0.1132443288717824
0.1402434377221918
-0.1319648337514831
0.1319648330641684
0.02361693472901607
-0.02298717937975662
0.6706486352832026
0.05899920648382342
-0.3230819686466452
-0.06291117176725791
-0.4712250857236414
-0.04982118194080523
-0.1516776053910225
0.1516776042428839
-0.04637488945009109
0.1432755190457937
-0.1432755181529128
0.1366176883362766
-0.13661769038807
-0.3156592899939123
-0.1146354816166093
0.226551954674663
0.1030035507542666
0.03485826601409456
-0.8211065541644673
-0.1977944902479434
0.1702968721976009
0.02079361525066225
-0.265348945178445
0.1257802727300882
-0.1257802719505607
-0.4140678728600326
-0.08474678588136124
0.2364810410029887
0.002247403152702531
0.04059395065175762
-0.5432382165233179
0.5780509801377043
-0.02729201197293351
-0.0190828794065291
-0.02859461725828977
0.02705860967843643
0.006598309160224099
-0.1843126303470539
0.1777143211077851
-0.108287160288153
-0.2280569287212892
-0.1447886042278984
0.1447886032799225
0.07293262300369038
-0.07293262340361557
-0.0194240295543622
-0.1086660336530143
0.1280900638845979
0.2419816060677578
-0.1828268298152569
-0.0274268431317284
0.02668838847936331
-0.1386275156866663
0.6258811171428035
-0.0390485229284222
0.4231544009248135
-0.04269431104872316
0.06256707385231369
-0.153428736605776
0.1534287350671006
-0.6363732721769808
0.3088696706350322
-0.07936964998268561
-0.2346486114298414
0.003564005535330729
-0.1217612592453011
0.1623552088153525
0.1951735549074838
0.09713921524636709
0.09605855170047826
-0.06137396816017658
0.07259903397106908
0.041569333245321
0.06387823949143098
0.1064186283162869
-0.09585800718286601
0.2079166114432901
0.01281402440989593
-0.1150716211767588
-0.1010618982176336
0.09770274823819416
0.003359151113758561
0.01289236926752996
-0.02340030401592266
0.03783487304554974
-0.03783487309728233
0.07501697584151747
-0.05481150243433656
0.05481150212946721
-0.2245509067151908
-0.0525045480322704
0.01145515722835935
-0.1030848686263378
0.01641570208612495
0.1083430482410466
-0.1083430477162126
0.2946041179887236
-0.2715439205132191
0.163256764407877
-0.05081218590640867
-0.2207317344498938
-0.017522986653288
0.01752298695331049
0.3673644110503449
0.285259926229881
-0.5275213296225774
-0.09399554632571448
-0.03213502468043731
0.5287033520706261
0.2133870055413635
-0.1700635365781062
-0.3807486943346884
0.07647886797097549
-0.1477823099770916
0.1873256961575447
-0.03954338643086237
-0.06677370844524202
0.06677370875898085
0.822646816738359
-0.5606616192633724
-0.004744333832453195
0.01763670193964971
-0.01998368370783263
-0.2867251524143128
-0.01749524709879094
-0.01282376346060702
-0.1318093706448547
-0.5720346324350801
0.5559718693406112
-0.569371005443038
-0.006889004975677131
0.1030224357418509
-0.001751124849054221
0.01681104423902037
-0.167765993725506
-0.3365693946264962
0.233484526096892
-0.0545217778555243
0.0350977500301916
0.1317312674119428
0.1731762889497165
0.336760083916672
0.2766613171688481
-0.2784124415231309
-0.06251737290114365
-0.1549938877245526
-0.2212167549172618
0.07483366474324146
-0.01095542629802925
0.2141027262478173
-0.1972916815180691
-0.08628658005659937
0.158885612684899
-0.3551659779654716
0.2086163535998839
-0.1922006513878726
0.08959745014329142
-0.4792888283544176
0.1745019348282792
0.1699295609467127
-0.2562161361305729
0.07265825237635894
-0.1943398549852316
0.176844607430156
0.01743722300009732
0.141448390673754
-0.03954210408735958
0.06614376036223665
0.4668123091740466
0.0203118869817555
-0.07765121830394982
0.05523256707638006
0.1258498445355241
-0.2607601388626463
-0.2308791584842782
0.5597203457602045
0.1577565926086036
0.07872444790288755
0.07553407849498141
-0.03091399156020437
-0.01067354798198466
0.008294896596252333
-0.03279239815374934
0.1711769501585301
-0.1780659546665349
-0.05845562436445605
0.02194404906985211
-0.1468003248067986
-0.05289146093069814
0.149460998725911
0.2770815711804235
-0.03861508459414296
0.01638506288166223
-0.255752444301714
-0.1315078832582223
0.2357182915013852
0.1790210376353008
0.1298486335204541
0.02190207943902612
0.08904154501627567
0.05218640072708164
0.4530609230159682
0.01617316894040823
0.09711735034491285
0.04374782442908715
0.07167713002317019
-0.1154249556441879
-0.24226140537764
-0.2009231113240995
-0.0198086206171876
-0.2022072600088681
0.2755610694725505
)
;

boundaryField
{
    FrontBack
    {
        type            empty;
    }
    Top
    {
        type            calculated;
        value           uniform 0;
    }
    In
    {
        type            calculated;
        value           uniform -1;
    }
    Bottom
    {
        type            calculated;
        value           uniform 0;
    }
    Out
    {
        type            calculated;
        value           nonuniform List<scalar> 10(1.034400535146477 1.064315152545656 1.021628670388276 1.019217292002268 0.9963976981666146 1.016102807984614 1.03592252479107 1.062748804633075 0.8672482199695628 0.8820186034948868);
    }
    circle
    {
        type            calculated;
        value           uniform 0;
    }
}


// ************************************************************************* //
