/*--------------------------------*- C++ -*----------------------------------*\
| =========                 |                                                 |
| \\      /  F ield         | OpenFOAM: The Open Source CFD Toolbox           |
|  \\    /   O peration     | Version:  2412                                  |
|   \\  /    A nd           | Website:  www.openfoam.com                      |
|    \\/     M anipulation  |                                                 |
\*---------------------------------------------------------------------------*/
FoamFile
{
    version     2.0;
    format      ascii;
    arch        "LSB;label=32;scalar=64";
    class       volScalarField;
    location    "45.1";
    object      p;
}
// * * * * * * * * * * * * * * * * * * * * * * * * * * * * * * * * * * * * * //

dimensions      [0 2 -2 0 0 0 0];

internalField   nonuniform List<scalar> 
808
(
0.127792
0.0336471
0.0452531
0.127572
-0.224373
0.0277542
0.0269929
0.0488247
-0.12736
-0.0224106
0.0462812
-0.144172
0.0458602
0.0265517
-0.21922
0.0312162
-0.226417
0.0208186
0.0346407
0.0212396
0.0393272
0.375625
0.0813067
0.0129808
0.448469
-0.102514
-0.0516946
0.015467
0.0166537
0.0241545
0.0188364
0.0294706
0.0299709
0.0102306
-0.086285
0.622171
0.0326309
0.0279293
0.0407647
0.0320384
-0.0499495
-0.0474633
0.050797
0.0413345
-0.0190589
0.0961165
0.0298527
0.0141839
0.0423441
-0.1691
0.0253069
0.0269156
0.0582414
0.00666115
-0.101868
0.0408976
0.0138847
0.0408451
-0.0200551
0.0346654
-0.351685
0.0075067
0.0465817
-0.184225
0.0457746
0.0623403
-0.294886
0.039234
0.0424985
-0.275049
0.0445239
-0.304904
0.0430192
0.0349881
0.18557
0.0398076
0.0122912
-0.0909741
0.0331635
0.306112
-0.0629384
0.030445
0.0488555
0.270679
0.0415363
-0.000488079
-0.353604
-0.126203
0.0470407
-0.141927
0.0494519
-0.0948034
0.250392
0.16122
0.0532616
-0.332941
0.0431281
-0.0149352
-0.105792
-0.278833
0.0262679
0.0204707
0.054594
0.00380133
-0.100138
0.0702455
0.00557817
-0.0359676
0.038786
0.0299436
-0.0308877
0.330038
0.0444802
0.0226571
0.033516
0.449677
0.0333935
-0.259525
0.0405979
0.069161
-0.351355
0.0529807
0.0364037
0.0698024
0.119409
-0.0681314
0.114247
0.0750393
0.0353842
0.0796773
-0.349402
0.0536916
-0.03706
0.126094
0.0422557
0.0348133
-0.0249717
-0.015445
0.0424943
0.0262147
-0.350422
0.0582759
0.0150556
0.0447848
-0.0361811
-0.072781
0.105925
0.162368
-0.111758
-0.0591279
0.0443442
0.336508
0.0474602
0.529265
-0.324636
-0.0865201
0.0307622
-0.0961127
-0.0151393
-0.0910444
-0.307274
-0.344778
-0.300156
0.0402006
0.0752264
0.0453948
0.0408247
-0.315035
0.041038
0.0516472
0.0548139
0.161609
-0.0855866
0.123653
0.0327052
0.0798838
0.0811194
-0.15508
0.0417088
-0.333585
0.0512159
-0.152746
0.0364625
0.265227
-0.0926017
0.126498
0.0401746
-0.157684
0.0449983
-0.108459
-0.314337
-0.0578146
0.0388867
0.0897359
0.0355408
-0.31766
0.0358738
0.0478054
0.0163188
0.0845351
0.0778676
0.0536085
0.0323955
-0.295868
0.370652
-0.320496
-0.313071
0.0105139
0.0566596
0.0441201
0.0258027
-0.382911
-0.388561
0.0333764
0.0227339
0.0368121
-0.310934
-0.0599159
0.027557
0.062194
-0.017828
-0.112855
0.0461856
0.0465926
0.0133045
0.0340999
0.134461
-0.473605
0.0128538
0.0174957
0.124579
0.0218602
0.0256586
0.0143137
-0.0200169
0.0675085
0.022929
0.0234329
0.0288478
0.0318748
0.0274632
0.00878683
-0.0227445
0.0144212
0.00632569
-0.00104762
-0.0136238
0.0124884
-0.00716635
-0.0486911
-0.316285
0.00112362
-0.0485993
-0.112906
-0.0192141
0.0449828
0.0167425
0.000520929
0.03461
0.130846
-0.0186764
0.0126208
0.0192813
0.0517581
0.0486937
0.00808537
-0.0121349
0.00806857
0.00797553
-0.0150496
0.00239495
-0.37778
0.272783
0.0125634
-0.0527923
0.0269109
0.0124192
0.0117076
-0.281105
0.275125
0.0311917
0.0396964
-0.0104303
0.0963833
-0.0704871
0.0133332
-0.0623969
-0.0308048
-0.0763306
-0.0345852
0.0391622
0.0158043
0.0305785
0.0352407
-0.0289891
0.0038286
0.0257306
0.0645753
-0.0473097
-0.0548815
0.0189346
0.0196808
0.0142246
0.0350862
-0.50151
-0.060277
0.0373597
-0.0328329
-0.179214
-0.00131139
-0.0432858
0.0270765
-0.32192
0.135347
0.159493
0.0365982
0.0330406
0.00451879
0.0098374
-0.214547
0.0207002
-0.00259664
0.0364118
-0.0177158
-0.0596857
0.0397883
0.00335692
0.00941014
-0.0448112
-0.314394
-0.0248095
0.0579721
0.133371
0.107149
0.0304527
0.229439
-0.0457121
-0.160116
0.543722
0.0948815
0.0170052
0.0373093
-0.0358615
-0.0465257
0.0668537
0.0366529
-0.00476064
0.022879
-0.00139065
-0.276866
0.0414503
0.111791
0.00125457
-0.30849
-0.320071
-0.450869
-0.319237
0.0304967
0.0417177
0.0312043
-0.0384649
-0.0051614
0.0110336
0.0300464
-0.00330893
-0.4934
0.0605521
0.0384131
0.0446527
-0.338933
0.0410006
-0.0547118
0.120571
-0.317242
0.0899695
0.0272456
0.0908357
0.037956
-0.316523
0.0688958
-0.366105
0.0506451
-0.0059142
0.0468028
0.0351484
0.0446096
-0.0621542
-0.31744
0.0275523
0.0167967
-0.180399
0.00878654
0.0327242
0.0457461
-0.000560495
0.04304
-0.139718
0.043075
0.059843
0.0282875
-0.469489
-0.0869543
0.050178
-0.00853533
-0.0738639
-0.00945514
0.422014
-0.178992
0.0331403
-0.0450297
0.0569881
0.0622022
0.0343955
-0.0119489
0.0143143
0.128839
-0.0305672
0.0115916
-0.00532315
-0.00709254
-0.00872107
-0.00630501
0.0385221
0.124293
-0.122685
0.0330623
0.0109457
0.0126486
0.00535663
0.0435925
-0.370077
-0.198763
-0.0102512
0.0109983
-0.0744797
-0.465968
0.00488843
-0.0802696
0.0473357
0.038
-0.0719672
-0.241424
0.230182
-0.283887
-0.443963
-0.230416
-0.0595583
0.0299225
-0.498301
0.349635
-0.0397638
-0.334579
0.0309843
0.074637
0.563787
-0.00490867
0.015368
0.038649
-0.122278
0.0158087
-0.155204
-0.308076
0.018831
0.0736561
-0.0564989
-0.255028
-0.28795
-0.205809
0.0269739
0.0166665
0.100875
0.00723312
-0.0436716
0.0899954
-0.138528
0.0465334
-0.192417
-0.373346
-0.0441249
0.0110462
0.0439843
0.0234506
0.0881335
-0.0247853
-0.0153165
-0.447204
0.450116
-0.323913
-0.326603
-0.00336968
-0.0116415
-0.323817
-0.307265
0.126828
-0.317454
-0.0811278
0.859249
0.0391091
-0.331622
0.0378084
0.0334377
0.0798919
-0.455117
-0.315792
-0.288889
-0.0259276
-0.222202
-0.337103
0.0177979
0.0165207
0.090303
-0.282576
0.041564
-0.487685
-0.389191
-0.454918
0.0260467
0.0130122
0.0527321
0.113619
0.130847
0.0145606
-0.313175
0.30051
0.00910053
-0.0134117
-0.419701
-0.483148
-0.301754
0.0925035
-0.326601
-0.00788097
-0.012638
-0.061464
-0.24366
-0.220023
0.0366282
-0.319183
-0.321619
0.0176234
0.0247937
-0.0302235
0.0232154
0.0443388
-0.36499
-0.347482
-0.0995776
0.0940542
0.0426371
-0.318015
-0.336539
-0.455494
-0.00493795
0.0462506
0.105166
0.000498399
-0.459668
-0.360294
0.101418
0.0307221
-0.00937404
0.0414799
0.0343645
-0.398667
0.0452106
-0.259787
0.0301268
-0.152313
-0.00294671
0.00960728
-0.434399
-0.521617
-0.000860676
-0.467338
-0.445846
0.0420041
-0.0755794
-0.314809
-0.0454177
-0.317455
0.0527781
0.0730221
0.0675263
-0.0645461
-0.040241
-0.000963775
-0.480202
-0.00878459
-0.349302
0.0344603
-0.32034
-0.564319
0.102233
0.267458
0.441994
0.034894
0.00299971
0.00621616
-0.318075
0.643282
0.0394495
-0.207358
0.0302661
-0.0802294
0.0905394
0.482983
-0.442266
-0.000130717
-0.00981778
0.0207626
0.0203637
-0.520275
-0.308611
-0.389251
-0.31665
-0.276904
0.025451
-0.360932
0.052976
-0.29235
-0.32627
0.519321
0.59196
-0.349623
0.111694
-0.31738
0.00114943
0.136594
0.412467
0.0848133
-0.304806
0.119013
-0.551166
-0.0029344
-0.221434
-0.0318859
-0.384172
-0.309504
0.00826612
0.00518509
-0.299498
0.439079
0.675824
-0.32059
-0.351556
-0.313179
-0.0139972
-0.37356
-0.322043
-0.141576
-0.302341
0.76162
-0.404024
0.736209
-0.402111
0.328662
-0.294342
0.0257276
0.168196
-0.557561
0.209351
-0.271967
-0.355974
-0.383511
0.873576
-0.313917
0.210581
0.150219
0.638722
0.126484
-0.307701
-0.336279
-0.184099
0.0246168
0.0813913
0.509556
0.0207545
-0.00629686
-0.328135
0.119173
-0.11865
-0.512554
0.0570086
-0.182369
-0.168503
-0.163524
-0.349921
0.0277339
0.110821
0.0419817
0.0794583
0.118008
-0.392488
-0.375862
0.0791663
0.024351
-0.498211
-0.558603
0.175497
0.187857
0.100001
0.674372
-0.0794395
0.0273578
-0.409207
-0.359035
-0.0576903
0.0736819
0.765027
-0.493498
0.368797
0.0328197
-0.486957
0.150107
-0.0831896
0.380746
-0.150205
0.0352727
-0.304666
-0.0864522
0.185343
0.808381
0.334625
0.764579
-0.410757
-0.363608
-0.403204
0.161319
0.263629
0.0731408
0.379566
0.123462
0.496273
0.27195
0.100966
-0.187706
0.0278373
-0.284387
0.883612
0.412324
0.657282
0.508986
-0.28152
-0.360996
-0.322885
-0.31792
0.0605852
-0.404641
0.0951603
0.597824
-0.358297
0.00967516
-0.316476
0.186372
-0.399952
-0.427479
-0.167896
-0.351182
-0.342821
-0.391011
-0.315766
-0.126232
-0.402058
-0.138617
-0.00819133
0.142528
0.647087
-0.234685
-0.285359
0.832157
-0.288492
0.283994
-0.260142
0.376214
0.0956248
-0.372916
-0.444667
0.447887
-0.277252
-0.350056
0.185785
-0.294412
0.0140197
-0.35292
-0.130091
0.0505429
0.566929
0.778591
-0.343209
0.231174
-0.36531
0.822144
0.0251517
-0.347577
0.0146467
0.759745
0.205771
-0.355503
-0.32534
0.451621
-0.230561
0.0268785
0.351982
0.251545
0.298619
-0.272127
-0.288313
0.687545
)
;

boundaryField
{
    FrontBack
    {
        type            empty;
    }
    Top
    {
        type            zeroGradient;
    }
    In
    {
        type            zeroGradient;
    }
    Bottom
    {
        type            zeroGradient;
    }
    Out
    {
        type            fixedValue;
        value           uniform 0;
    }
    circle
    {
        type            zeroGradient;
    }
}


// ************************************************************************* //
