/*--------------------------------*- C++ -*----------------------------------*\
| =========                 |                                                 |
| \\      /  F ield         | OpenFOAM: The Open Source CFD Toolbox           |
|  \\    /   O peration     | Version:  2412                                  |
|   \\  /    A nd           | Website:  www.openfoam.com                      |
|    \\/     M anipulation  |                                                 |
\*---------------------------------------------------------------------------*/
FoamFile
{
    version     2.0;
    format      ascii;
    arch        "LSB;label=32;scalar=64";
    class       volVectorField;
    location    "45.1";
    object      U;
}
// * * * * * * * * * * * * * * * * * * * * * * * * * * * * * * * * * * * * * //

dimensions      [0 1 -1 0 0 0 0];

internalField   nonuniform List<vector> 
808
(
(0.897093 -0.0110547 0)
(1.01137 -0.0265624 0)
(1.12875 0.167673 0)
(1.06682 0.0132363 -2.67629e-21)
(1.49262 -0.277843 0)
(0.942891 -0.0279451 0)
(1.14385 -0.0505938 -5.60812e-21)
(1.16205 -0.0252097 0)
(1.38055 -0.223481 2.5242e-20)
(1.23521 -0.0758129 -5.97614e-21)
(0.988414 -0.102946 8.07334e-21)
(1.40695 -0.244792 0)
(1.0348 -0.0454291 0)
(0.737772 -0.0319616 0)
(0.949955 -0.0272426 1.47061e-20)
(1.11849 -0.0444096 0)
(0.827192 -0.0689541 -3.59424e-21)
(1.02714 -0.0482711 -1.08149e-22)
(1.06194 0.0867499 0)
(1.10626 0.0149525 0)
(1.10258 -0.107681 -1.12686e-20)
(0.933073 0.124663 1.0904e-19)
(1.07139 0.00850523 -1.53018e-20)
(1.16455 -0.000748969 0)
(0.950127 0.169217 0)
(1.29451 0.000380987 -2.07466e-20)
(1.29145 -0.153934 5.84335e-21)
(0.931906 -0.0140214 -6.0412e-21)
(1.11073 -0.0338645 0)
(1.03489 0.0459042 -4.47205e-22)
(0.982362 -0.030767 4.98059e-24)
(1.11536 0.00710526 0)
(1.05703 -0.0113296 0)
(1.0615 -0.0164924 4.14595e-21)
(1.31274 -0.0340002 7.69924e-21)
(0.74297 -0.124971 1.10044e-19)
(0.871725 -0.0378432 -1.30614e-20)
(1.01636 -0.00310484 1.65705e-21)
(1.20216 0.0388148 -6.23638e-21)
(1.10518 -0.0187069 0)
(1.26007 -0.0166835 -1.32132e-20)
(1.27534 -0.107722 0)
(1.00506 -0.000615322 -1.02869e-20)
(1.08458 -0.0539123 1.34103e-20)
(1.14373 0.102095 0)
(1.00939 0.0115745 -2.06751e-20)
(0.990802 0.0158689 2.51926e-21)
(1.26344 -0.238228 3.80133e-21)
(1.15858 0.0294734 -1.38983e-20)
(1.43611 -0.153983 -3.64687e-20)
(1.11498 -0.0828797 1.01816e-20)
(1.14359 -0.0613244 0)
(1.11377 -0.00599256 9.24874e-21)
(1.08425 0.0221253 0)
(1.29644 0.205444 5.59403e-21)
(1.04858 0.0221263 -5.38342e-21)
(1.09225 -0.0110955 0)
(1.05162 0.0636262 6.22437e-21)
(1.24021 -0.0671679 6.41501e-21)
(1.10918 0.0345004 -1.84897e-21)
(-0.0587818 0.405638 0)
(1.21771 -0.212125 -4.80116e-21)
(1.03316 0.049961 0)
(1.45204 -0.00638548 -2.78193e-20)
(1.0424 -0.0235991 -1.46522e-20)
(1.03724 -0.0292193 -1.07663e-20)
(1.46743 -0.1083 3.49275e-20)
(0.670618 0.0155918 0)
(1.03868 -0.0932284 0)
(1.48433 -0.357551 0)
(0.901285 0.0277123 -3.95516e-22)
(1.30893 -0.138208 -4.04117e-20)
(1.01425 0.0442758 0)
(1.03151 -0.028182 -5.56983e-21)
(1.13877 -0.338095 -5.67616e-20)
(1.09902 -0.0945764 -1.90209e-20)
(1.10956 0.0352934 -1.78816e-22)
(1.32239 0.470215 2.62784e-20)
(1.08905 -0.0530664 0)
(1.0107 0.266889 -1.77233e-19)
(1.2709 0.0377949 9.31411e-21)
(0.736888 0.0239066 0)
(0.847364 0.0228437 -1.36318e-20)
(0.971654 -0.115952 4.24197e-21)
(1.06385 -0.0454986 1.48423e-20)
(1.15714 0.0331843 5.40858e-22)
(1.32798 -0.240299 0)
(1.34401 0.245385 0)
(1.07001 0.0153972 -2.13345e-20)
(1.32717 0.0281644 2.10395e-20)
(1.0764 -0.00431218 1.57633e-20)
(1.33109 -0.0941878 -1.37464e-21)
(0.966583 0.0252298 1.65686e-20)
(1.00362 -0.0232223 0)
(1.10458 0.0169908 1.97377e-21)
(1.49927 0.0349829 -9.53898e-20)
(0.786566 0.0173394 -5.21843e-21)
(1.26353 0.0355767 0)
(1.33771 -0.0488144 0)
(1.47275 -0.0909315 -5.17086e-20)
(1.10622 -0.0649907 -5.18047e-21)
(1.10176 0.0270971 -1.85407e-22)
(0.935201 0.0247558 1.42761e-20)
(1.14616 0.0512315 2.10233e-22)
(1.26807 0.0998574 -2.5615e-20)
(1.00046 0.00100389 1.49788e-20)
(1.31214 0.046447 0)
(0.83005 -0.281858 0)
(1.06867 0.0265953 1.18213e-20)
(1.21532 -0.207831 -7.54492e-21)
(1.2093 0.0878875 3.16189e-21)
(1.04041 0.0420421 -1.20221e-19)
(1.12949 0.0370435 -4.69836e-21)
(1.20684 -0.138696 2.59007e-21)
(0.809572 0.00556189 0)
(0.918375 -0.0520673 7.55041e-20)
(1.11929 0.0318245 -1.01655e-20)
(1.48517 -0.266987 -1.79022e-20)
(1.09918 -0.0154854 -1.27226e-20)
(0.925909 0.0208239 2.16319e-21)
(0.115321 0.323691 0)
(0.856294 -0.01453 1.88806e-21)
(0.773456 0.0244167 0)
(1.05093 0.00835561 -1.10083e-22)
(1.00993 0.0274572 0)
(1.30153 0.295525 1.00302e-20)
(1.03714 -0.0526594 -3.42593e-20)
(1.22161 -0.116398 1.55188e-21)
(1.14915 -0.0370131 0)
(1.08923 -0.0228618 0)
(0.757211 -0.105575 0)
(1.11216 -0.020167 -7.25976e-21)
(1.23572 -0.0189224 6.99327e-21)
(1.06538 0.107508 -3.23206e-20)
(0.865868 -0.0105739 0)
(1.07776 0.0279013 -2.84827e-21)
(1.24243 0.262808 -1.62141e-21)
(1.26869 0.124355 3.49676e-21)
(0.976842 0.0236018 7.3551e-21)
(1.10353 0.0190304 1.55429e-22)
(-0.0295786 -0.0897137 0)
(1.09265 -0.00762632 -1.74185e-20)
(1.19011 0.256611 1.33249e-21)
(0.716757 0.0214189 -7.26708e-21)
(1.24468 0.128854 1.32761e-21)
(1.15898 0.0421507 -4.98138e-21)
(1.04391 0.0179595 1.8848e-20)
(0.992567 0.0327659 0)
(1.18298 0.0987778 -1.57708e-20)
(0.969551 -0.168984 0)
(0.936455 0.0263808 1.52285e-20)
(0.970542 0.274521 1.4201e-19)
(0.957069 0.0297396 0)
(0.820593 0.0882058 0)
(-0.169516 -0.206803 -8.05598e-20)
(1.30346 0.085565 -1.23193e-20)
(0.659665 -0.0138862 0)
(1.31387 0.042517 0)
(1.23861 0.282778 0)
(1.29086 0.0682587 1.12747e-20)
(-0.031385 -0.199382 0)
(-0.0716162 -0.0780298 4.02174e-20)
(1.1075 -0.0611996 8.70293e-20)
(0.984703 0.034133 2.25782e-21)
(0.857233 0.00193054 0)
(1.01902 -0.00421194 1.95921e-20)
(0.870283 0.0262644 0)
(0.869784 -0.0769454 -9.40019e-20)
(1.01844 0.0300838 2.22935e-20)
(1.07176 -0.00520795 4.84642e-21)
(1.0819 0.0198419 9.58608e-21)
(1.01506 0.0657151 -1.19371e-20)
(0.865126 -0.0373955 4.95883e-21)
(1.14627 -0.346272 5.99095e-22)
(0.899054 -0.0271878 0)
(1.06277 0.00795091 -1.53109e-20)
(0.873591 0.00678176 -1.21017e-20)
(1.41057 -0.158596 2.08707e-21)
(0.700564 0.035913 0)
(1.08797 -0.148265 0)
(1.11162 0.041735 4.78448e-21)
(1.3792 0.166432 1.04358e-20)
(1.09346 0.0273372 7.85894e-21)
(1.03591 0.0296818 1.97129e-20)
(0.587994 -0.204204 -9.63074e-21)
(0.813557 0.000999479 2.12329e-20)
(1.13178 -0.0252647 8.73756e-21)
(1.41097 -0.0125776 -5.09487e-21)
(1.08526 -0.0088715 -9.05146e-21)
(1.33694 0.0140867 4.3662e-21)
(-0.15208 -0.200295 5.85752e-20)
(1.25398 0.0474558 0)
(0.620853 -0.00920057 0)
(1.06708 -0.012241 -7.06032e-21)
(1.07984 0.0220644 1.19557e-20)
(0.0652091 -0.0776668 0)
(0.875106 -0.0187489 7.41017e-22)
(1.13417 0.0423709 -5.71251e-21)
(1.01129 0.0537334 2.99149e-21)
(1.07244 0.0324263 -7.62949e-21)
(0.998066 0.0197207 2.53402e-21)
(1.06283 0.000781825 5.03903e-21)
(1.04469 0.012202 0)
(0.350191 -0.0463003 0)
(1.04244 -0.0640571 0)
(1.19094 0.0524816 -3.4624e-20)
(-0.0136192 -0.250213 5.13793e-20)
(1.15742 0.0382653 -2.02872e-23)
(0.998393 0.0813559 0)
(0.734584 0.015303 -1.43527e-20)
(1.03495 -0.133524 2.9971e-21)
(-0.0140178 -0.0428211 -1.51978e-19)
(1.07422 -0.0223814 -7.72499e-20)
(0.61271 -0.00886236 0)
(0.860825 -0.0798737 0)
(0.937836 0.0563768 1.28642e-20)
(1.06216 -0.119825 5.72058e-21)
(1.28107 0.373679 3.8202e-21)
(0.976305 0.0349402 -3.17065e-22)
(1.11528 0.103512 -7.96789e-21)
(1.04292 -0.072027 0)
(1.36336 0.392746 -4.84849e-20)
(0.686044 -0.0295985 0)
(0.816876 -0.022473 -6.04922e-21)
(1.03493 -0.000325553 -6.94352e-22)
(0.598612 0.0137117 0)
(1.10019 -0.00611134 0)
(0.467613 -0.0723015 -7.75809e-20)
(1.05093 0.28386 -7.41393e-21)
(0.730364 -0.0140154 2.54562e-21)
(0.990761 -0.0024102 0)
(0.554177 -0.0163573 0)
(0.771728 -0.0232566 -4.86679e-21)
(0.541199 -0.0107972 -5.14831e-22)
(1.2664 0.031539 6.23775e-23)
(0.99573 -0.0527138 -7.45393e-21)
(0.736358 0.0135034 -3.91425e-21)
(1.07601 0.0300718 1.43821e-21)
(0.879014 0.212292 2.98761e-22)
(0.576601 0.011196 1.0504e-20)
(1.07622 0.140178 2.30257e-21)
(1.05975 0.190922 0)
(0.953512 0.209042 0)
(0.518294 0.0185285 0)
(1.08057 0.00907699 0)
(1.16143 0.0856942 3.39473e-22)
(0.939814 0.245854 0)
(1.17703 0.0829394 0)
(1.09434 0.227972 0)
(1.21712 0.198486 0)
(-0.0160562 -0.051681 4.92067e-20)
(1.24566 0.162517 1.1166e-23)
(1.26851 0.210916 0)
(1.30927 0.166144 9.75537e-21)
(1.31662 0.0750435 -1.14542e-21)
(1.08318 0.0235084 7.73804e-21)
(1.29072 -0.0233672 1.86725e-21)
(1.18246 0.175799 0)
(0.593927 -0.0145753 1.11602e-20)
(1.04803 0.0339438 1.16101e-20)
(1.16208 0.153718 0)
(1.02617 -0.0826099 -3.70384e-21)
(1.28619 0.00311502 2.9467e-21)
(0.434313 -0.2696 -1.36172e-21)
(1.09388 0.0417444 8.34219e-21)
(1.12237 -0.202434 -3.1089e-21)
(0.888307 -0.268556 0)
(1.33992 0.0214612 -3.3703e-21)
(1.02395 -0.178794 -2.30408e-21)
(0.958771 0.321714 2.13086e-21)
(0.761165 -0.00245134 0)
(-0.0299249 -0.0229843 0)
(0.978364 0.109655 -1.74528e-20)
(1.1172 -0.0777485 0)
(1.34229 -0.01448 1.59748e-20)
(1.17587 -0.0855223 1.09861e-21)
(1.13407 -0.138717 2.9886e-21)
(1.21641 -0.0805283 -2.51741e-21)
(1.43549 0.0208647 1.38218e-19)
(1.0285 -0.33045 5.73093e-20)
(1.23358 -0.051213 -2.70725e-22)
(0.841259 0.158004 0)
(0.722229 -0.302626 0)
(0.90687 0.00775217 -3.2369e-20)
(1.17729 0.0893716 -1.08854e-20)
(1.21795 -0.17327 0)
(0.854636 0.0925232 -1.10562e-20)
(0.49134 -0.475743 0)
(0.908785 0.00168635 -1.20462e-20)
(1.02499 0.236239 1.19305e-20)
(0.815048 0.0250826 -7.83779e-21)
(1.26843 0.0241559 0)
(1.04236 -0.220072 -1.2814e-21)
(0.921671 -0.170862 8.622e-21)
(0.796239 0.320291 2.26306e-21)
(1.26248 -0.147098 -2.05004e-21)
(0.848069 0.306026 0)
(1.08694 0.062781 0)
(1.20822 -0.000311707 -8.28971e-21)
(0.949454 0.129282 1.21686e-20)
(1.20347 -0.107717 1.87937e-21)
(1.19739 -0.0563896 -3.97566e-21)
(0.810744 -0.164802 5.53604e-22)
(1.11195 -0.0956438 0)
(0.427646 -0.143331 1.4162e-20)
(1.27566 0.0567565 -1.17805e-20)
(0.962319 0.329906 -3.27019e-21)
(0.38897 -0.275812 1.4399e-21)
(1.45647 -0.0903035 2.50439e-20)
(0.701136 -0.119093 1.25182e-20)
(1.25322 -0.132632 8.34135e-21)
(1.1891 -0.0389636 -1.0051e-21)
(-0.0244817 -0.301109 -8.77347e-21)
(1.00043 -0.00519003 0)
(1.03549 -0.0901087 -1.6169e-20)
(0.846672 -0.0300637 1.44347e-20)
(1.08252 -0.0467089 6.61585e-21)
(0.815623 0.339451 -3.09083e-21)
(0.531577 -0.0195487 1.6081e-21)
(1.43573 -0.383596 -1.60484e-20)
(1.09276 0.0954233 0)
(1.03881 0.0339424 8.88102e-22)
(1.11171 0.0280954 -3.15242e-21)
(1.29597 -0.248507 0)
(0.922739 -0.289534 1.49758e-20)
(1.13902 0.0593653 4.19044e-21)
(0.763208 0.396618 5.3586e-21)
(1.17303 -0.0377406 -3.3718e-21)
(1.01732 -0.161871 -9.54463e-21)
(-0.0384181 -0.213811 0)
(0.272615 0.127093 3.56443e-21)
(1.09231 0.0578715 0)
(0.703422 -0.0393742 -2.34323e-20)
(0.619192 -0.241567 0)
(1.12544 -0.00238668 7.74252e-21)
(1.01644 0.0240037 0)
(1.26442 -0.241422 0)
(1.42186 -0.0952027 2.07744e-20)
(0.803335 -0.0942464 0)
(0.998081 -0.159169 3.2821e-20)
(1.06065 0.0178298 -3.92069e-22)
(1.05243 0.0605859 3.7883e-21)
(1.30195 0.0676605 -8.42188e-21)
(1.2185 0.106254 -6.16656e-21)
(1.0032 0.265649 1.96965e-20)
(1.17456 0.087915 0)
(1.19674 -0.139678 0)
(1.16631 0.0549703 1.57744e-21)
(1.21459 -0.0120027 0)
(1.43394 0.137382 -2.78857e-20)
(0.699014 0.188945 2.51523e-21)
(1.024 0.0134833 2.23498e-20)
(1.16614 0.117065 -8.19707e-24)
(-0.00890811 -0.0658127 0)
(-0.0284279 -0.107386 0)
(0.332029 -0.200884 -5.96932e-20)
(0.0156847 -0.307468 0)
(0.702629 0.0718272 -7.87342e-21)
(1.19549 0.0437403 -4.3879e-21)
(1.14367 -0.119202 -7.99714e-21)
(1.35046 -0.180359 7.27883e-24)
(1.23461 -0.0214017 0)
(0.706938 -0.00620622 -2.11795e-21)
(1.22947 0.0804673 0)
(1.19589 0.071452 -7.70596e-22)
(0.515691 -0.113368 0)
(0.593583 -0.176855 -5.8155e-22)
(1.2206 0.0495325 0)
(1.11157 -0.00983235 0)
(1.03552 0.406338 7.78056e-20)
(0.580396 -0.285515 2.52182e-22)
(1.00271 -0.0121593 -9.54991e-21)
(1.00777 0.0172686 -1.01679e-20)
(0.222021 -0.184606 0)
(1.00991 0.0388907 -4.01964e-20)
(1.12631 0.00762159 7.55593e-21)
(0.933775 0.180278 2.16309e-21)
(0.695569 -0.331048 2.01497e-21)
(-0.0381489 -0.257288 -1.09245e-19)
(1.18623 -0.016609 0)
(-0.0387208 0.0403163 0)
(1.14154 -0.0295006 1.59993e-20)
(0.696166 -0.374255 -2.16893e-21)
(1.03295 -0.02437 -1.73085e-20)
(1.10553 -0.0595094 0)
(1.06154 -0.124104 5.8276e-21)
(1.26328 -0.0148501 1.50619e-20)
(0.565934 -0.0560269 -9.47236e-21)
(1.14776 -0.0512375 -4.65158e-21)
(1.13434 -0.114038 -3.52039e-22)
(0.560013 0.136812 -2.70371e-21)
(1.19055 -0.18475 -7.83311e-22)
(1.08883 0.0380968 0)
(1.22312 0.00944994 0)
(1.22009 -0.0866162 7.30405e-22)
(1.10102 0.0275487 -6.8294e-21)
(0.621113 0.176367 -4.9806e-20)
(1.19525 -0.101566 -1.68825e-20)
(1.09757 0.0185756 1.94258e-20)
(0.519431 -0.00394697 1.6792e-20)
(0.937441 0.315082 -1.51779e-19)
(0.0333816 0.54853 2.08525e-20)
(1.16925 0.160804 -6.67075e-21)
(1.25605 -0.501194 6.12689e-21)
(1.24767 0.140455 -1.26136e-20)
(1.23695 -0.0485734 -8.65552e-22)
(0.949944 -0.240416 9.3366e-20)
(0.133224 0.557618 0)
(1.02185 0.0519205 -2.95627e-21)
(0.136461 0.514443 -1.16611e-20)
(1.15265 -0.0551044 -1.38452e-20)
(1.12781 0.132396 1.1814e-20)
(1.09489 0.0347116 0)
(0.866783 -0.318781 0)
(1.1558 -0.0245219 0)
(1.08061 -0.0445615 1.44128e-20)
(1.21479 0.041103 -1.06755e-20)
(1.17474 -0.0731867 2.69158e-21)
(0.479134 0.017004 0)
(0.635053 0.0112645 0)
(0.643467 -0.00253809 4.46216e-23)
(0.463691 -0.0191457 0)
(1.09779 -0.0938334 0)
(1.02284 -0.00639096 2.69179e-20)
(0.75632 -0.257292 0)
(0.973022 0.0175965 0)
(1.05717 -0.0621007 0)
(1.16695 0.174101 -2.71945e-21)
(1.15917 0.0494689 -2.0967e-21)
(0.964265 -0.0295661 9.96804e-21)
(1.32814 -0.41 -1.12303e-19)
(0.885794 -0.170987 3.35509e-20)
(1.40233 0.122931 -1.47461e-22)
(1.21618 -0.218415 0)
(0.0384607 0.34995 0)
(-0.0219868 -0.145924 0)
(1.17413 -0.0203375 2.27068e-21)
(1.34562 -0.286322 -2.52932e-20)
(1.16456 0.0963995 0)
(1.10152 0.0594137 -1.09562e-20)
(0.299705 0.169552 0)
(1.53922 -0.15246 7.82335e-20)
(0.412397 0.515813 1.127e-19)
(0.289156 -0.0609566 0)
(1.13096 -0.285127 1.20576e-19)
(0.797536 0.45947 0)
(0.273185 0.201988 -1.16656e-21)
(1.09286 0.115032 0)
(0.212979 -0.0204882 -2.93371e-21)
(0.984481 -0.0500155 0)
(1.34798 -0.0447612 -7.89077e-21)
(-0.123589 -0.291168 -9.08063e-21)
(1.12436 -0.0211167 3.74678e-21)
(1.13426 -0.19426 -1.30307e-20)
(0.583088 -0.535343 -9.00456e-20)
(1.28972 0.0340707 1.03494e-21)
(1.20199 -0.112685 4.64694e-21)
(1.17269 0.220423 -1.67145e-20)
(1.25681 -0.0729574 -2.20259e-20)
(1.16193 -0.0143922 1.64119e-21)
(-0.23961 0.237913 -1.97534e-20)
(-0.0152377 -0.112675 -8.58862e-21)
(1.37766 -0.0264221 1.52727e-21)
(1.05859 -0.0388884 0)
(0.580609 -0.301686 2.57145e-21)
(1.43788 -0.448754 8.42994e-20)
(0.991532 -0.0968753 -5.9939e-20)
(1.3943 0.078209 6.85328e-20)
(1.06517 -0.0376319 5.4301e-21)
(1.10518 -0.28405 3.97693e-21)
(1.0634 -0.00866801 0)
(1.155 0.0221544 0)
(1.3566 -0.136939 6.10822e-21)
(1.0857 -0.0196639 -4.32682e-21)
(1.37515 -0.240684 2.26986e-20)
(1.12108 0.0150045 -1.06167e-20)
(1.44592 0.0845898 -5.10714e-20)
(0.554284 -0.0073681 0)
(1.30645 -0.206626 -9.16066e-21)
(1.19009 0.16068 0)
(1.12912 0.0085432 -1.05513e-20)
(1.13013 0.0201117 0)
(1.03699 -0.00562203 1.48314e-20)
(1.20727 0.03987 6.281e-21)
(1.17661 -0.252664 0)
(0.0513571 -0.0324214 1.60963e-19)
(0.889218 -0.219319 -7.32329e-20)
(1.50159 0.210795 -3.93573e-20)
(-0.0910288 -0.283612 4.77857e-20)
(1.14623 0.032151 9.0964e-24)
(0.791132 -0.302616 -6.31926e-23)
(-0.129156 -0.244261 -4.986e-20)
(-0.0204859 -0.0839005 -3.09856e-20)
(1.02078 -0.0273499 0)
(-0.025773 -0.0314911 0)
(1.148 0.340094 0)
(0.112936 -0.118479 0)
(1.11218 -0.0324613 0)
(0.134829 0.0298018 0)
(1.07564 0.034812 0)
(1.0495 0.173681 0)
(1.17478 -0.0200723 -9.18339e-21)
(0.591981 -0.294004 -2.26218e-20)
(-0.281342 -0.199808 0)
(1.21691 -0.0894409 6.24039e-20)
(1.33338 0.166946 -4.3589e-21)
(1.42034 0.323119 0)
(-0.0423173 -0.0425788 0)
(1.14065 0.0134249 -4.96912e-21)
(1.15039 0.00746568 1.95018e-21)
(1.1676 0.373172 0)
(0.285431 -0.128909 5.87932e-20)
(1.11248 0.0549489 1.45485e-21)
(0.241229 -0.0544147 -5.47153e-20)
(-0.0578951 0.0425965 -4.01396e-20)
(-0.0160926 0.0481279 1.01675e-19)
(0.466354 0.414428 -1.94449e-20)
(1.05797 -0.26186 5.94798e-23)
(1.09294 0.0149177 -2.27246e-20)
(1.02464 -0.00854805 0)
(1.0705 -0.060279 -2.20471e-20)
(1.13825 0.0838218 2.2535e-21)
(-0.00796153 -0.0765381 1.1312e-19)
(0.98101 -0.069466 -5.85431e-20)
(0.605068 -0.333294 -3.10133e-21)
(1.15689 -0.0306722 -2.19132e-22)
(0.0689578 -0.0362252 3.44516e-20)
(0.248402 -0.0416935 -4.91473e-20)
(0.424213 -0.0858176 -5.3316e-20)
(1.08392 -0.10647 2.24109e-20)
(-0.0602647 -0.0313811 0)
(0.89439 -0.28206 3.47685e-21)
(1.24757 -0.339694 -1.18094e-20)
(1.24347 -0.327778 1.13873e-20)
(1.34751 0.213812 0)
(1.53213 -0.211638 7.39785e-20)
(1.16987 -0.0119775 -5.73285e-21)
(-0.0114769 -0.0660045 -3.83148e-20)
(0.425949 -0.0438584 0)
(0.956639 0.0391532 -4.38555e-21)
(1.09289 0.0352083 2.69322e-21)
(0.466639 0.186283 9.12389e-21)
(1.14591 0.0100291 2.20409e-21)
(1.10925 0.0428316 0)
(1.18712 -0.174631 -1.5181e-20)
(-0.0210172 -0.330763 -7.89298e-20)
(1.30656 0.0318701 2.37255e-20)
(1.10333 0.163268 -9.17115e-21)
(1.13557 0.0315836 1.21422e-20)
(-0.0380369 -0.0587996 1.63172e-20)
(-0.0283237 0.0202699 -7.59505e-20)
(1.09589 0.116332 0)
(0.87474 0.389437 0)
(1.1404 0.0797214 -1.65018e-20)
(1.05075 0.0642767 1.27692e-20)
(1.16946 0.0621803 0)
(0.867329 0.0110677 7.44397e-20)
(0.841462 0.0367845 -1.4199e-20)
(1.09622 0.0901243 0)
(1.11429 0.0498669 0)
(1.23021 0.256922 0)
(1.06005 0.0465308 0)
(1.29534 0.166437 2.2037e-21)
(-0.0399697 0.0481391 4.38414e-20)
(1.07192 -0.0698461 9.35968e-21)
(1.47843 -0.191671 -8.5955e-20)
(1.21759 0.187899 -3.71039e-21)
(-0.276213 -0.178362 0)
(1.23315 -0.248359 0)
(0.654748 -0.0159294 -1.84278e-21)
(0.612465 -0.00217908 -7.16016e-20)
(0.105799 0.0291352 5.71605e-20)
(0.974711 0.0211849 -4.30664e-22)
(0.761662 -0.279182 0)
(0.698086 -0.0974045 0)
(1.14576 0.194356 0)
(0.544331 0.514816 2.50838e-20)
(-0.0162789 -0.0203933 -3.45902e-20)
(1.14822 0.118826 1.10031e-20)
(-0.0173109 -0.139492 7.18895e-20)
(1.18852 0.0157886 4.20889e-21)
(1.16615 0.293897 3.18795e-20)
(1.11549 -0.0841174 9.09669e-21)
(-0.109773 0.0989708 2.7207e-20)
(1.06455 -0.149612 -6.99273e-22)
(1.24892 -0.27371 0)
(0.582099 0.277317 0)
(0.998448 -0.315187 -7.09986e-21)
(-0.16102 -0.282039 0)
(0.604744 0.0279959 3.75418e-21)
(0.617528 -0.428198 -3.40672e-21)
(0.277736 0.0477696 -1.27701e-19)
(1.12655 -0.227408 3.23361e-20)
(1.03769 0.350723 9.69763e-21)
(0.979804 0.0153988 0)
(1.01782 0.0438339 8.59593e-22)
(0.663242 0.0187144 0)
(0.999342 -0.0202708 -5.51795e-23)
(0.454324 -0.0239119 0)
(0.71212 0.118311 0)
(0.997983 -0.0200151 -7.85227e-21)
(1.42909 0.116368 -1.26036e-20)
(1.19193 -0.0181477 2.23154e-21)
(0.5327 -0.504064 0)
(1.13451 -0.148964 2.89214e-21)
(0.802543 0.362812 6.88805e-20)
(-0.01423 0.0203084 1.44309e-21)
(1.20786 0.0245757 1.44012e-21)
(1.19437 0.0335027 -4.12374e-21)
(1.22312 0.125947 1.06477e-21)
(0.802794 0.00557366 -5.24974e-21)
(0.0970388 0.0137506 4.6196e-20)
(-0.0145011 -0.138164 -6.34249e-20)
(-0.135314 -0.224489 0)
(-0.2917 -0.172121 0)
(1.20938 -0.626661 3.37536e-20)
(1.14694 -0.0239967 -1.60146e-21)
(0.908912 -0.47474 -4.58191e-20)
(0.853607 -0.279963 -9.20585e-21)
(1.38555 0.154741 3.88775e-20)
(0.615332 0.425451 0)
(0.245269 0.40888 -1.14746e-19)
(0.593886 0.464184 0)
(-0.0480294 -0.19933 0)
(1.14246 -0.485809 0)
(-0.0497297 -0.134693 -6.813e-22)
(1.17497 0.0233123 0)
(0.690733 0.189622 1.16977e-20)
(0.594835 0.684442 2.05635e-20)
(1.13375 0.104118 -1.61483e-20)
(-0.0230366 -0.183142 -1.11482e-19)
(0.342451 0.0411738 3.06172e-20)
(0.486929 0.148385 -1.51386e-20)
(1.18276 0.0701315 0)
(1.37174 0.327805 4.34925e-20)
(1.22603 0.54902 1.18739e-20)
(0.235398 -0.0388188 -2.8411e-20)
(1.08885 0.0394318 3.83255e-20)
(0.943691 -0.00505512 2.07739e-21)
(0.939615 0.0360993 -2.53692e-22)
(-0.0211889 -0.0379281 0)
(0.65754 -0.670185 -2.93301e-20)
(0.614295 0.186096 0)
(0.201197 -0.252687 0)
(-0.0479795 0.0418821 0)
(0.0593187 -0.278789 -4.24169e-20)
(1.21037 0.0154946 -1.67327e-21)
(0.000149332 0.000566461 0)
(-0.0355725 -0.0102912 0)
(1.41776 0.0537942 -6.36853e-20)
(-0.0387336 -0.108947 5.03567e-20)
(0.113982 0.226336 -1.00999e-19)
(0.471687 -0.00376428 0)
(0.171299 -0.290902 8.01805e-20)
(1.12055 -0.247656 0)
(1.0086 -0.288237 0)
(0.044208 -0.19515 1.05532e-19)
(1.13302 0.0347732 -2.39224e-22)
(1.12395 0.323144 2.59633e-20)
(0.313381 0.0214976 5.40138e-20)
(0.410264 -0.530014 -3.46059e-20)
(1.30249 0.0193394 0)
(1.28125 0.145717 2.61937e-20)
(1.26157 0.178872 -3.21569e-20)
(0.102352 0.0765987 -2.33299e-20)
(-0.0730538 -0.209572 0)
(1.07556 -0.0434548 -1.9546e-20)
(1.10736 -0.222386 -1.59204e-20)
(0.589535 -0.419923 0)
(1.09897 -0.155979 -2.58149e-20)
(-0.313606 -0.203248 0)
(0.689351 -0.020685 0)
(1.41229 0.162701 3.91331e-20)
(1.04359 0.0358581 7.2056e-22)
(1.07677 0.728963 -1.3926e-20)
(0.228968 -0.390013 1.28342e-19)
(1.1687 0.0167191 2.42905e-21)
(1.18741 0.0625377 -1.23353e-21)
(-0.0503017 -0.039809 3.62345e-20)
(0.793159 0.730815 2.65153e-20)
(1.3775 -0.371105 -1.36232e-20)
(0.606041 0.205214 1.34215e-19)
(1.0358 0.0366136 0)
(0.0506898 -0.269977 -3.89953e-21)
(0.918036 -0.64823 3.07268e-21)
(0.915609 0.643816 -2.27717e-20)
(0.569184 -0.0396099 -6.41245e-20)
(1.13207 0.00173897 -1.09902e-20)
(1.07755 -0.0777643 7.43853e-21)
(1.10313 0.0237853 9.12046e-21)
(1.10377 0.113102 4.40593e-21)
(1.13179 -0.11364 0)
(0.980034 0.0728368 1.79504e-20)
(0.915422 0.462633 0)
(1.04932 -0.00959168 -9.62637e-21)
(1.15541 0.0966969 1.52176e-21)
(0.794241 0.266668 0)
(0.572012 0.109267 1.21769e-19)
(0.894754 0.70231 -1.22884e-21)
(1.07427 0.276099 -1.99395e-20)
(1.04041 -0.00620764 1.34577e-20)
(0.413669 0.475327 0)
(1.322 -0.478162 0)
(0.329058 -0.00755971 3.09207e-22)
(1.28451 0.492592 0)
(0.0111531 0.0277655 -5.37465e-20)
(1.30364 -0.415831 -8.19028e-21)
(1.16474 0.489976 0)
(0.453643 0.199816 1.68531e-19)
(1.16248 0.308532 -1.36491e-19)
(0.829423 -0.656 -2.50212e-20)
(1.09754 0.0337766 3.141e-21)
(0.974325 0.14271 9.5621e-20)
(1.08624 0.157036 4.81444e-20)
(1.07856 0.695692 -6.74446e-22)
(0.91754 -0.448885 6.4328e-20)
(1.38514 0.140775 3.89756e-20)
(1.11947 0.00287089 -1.70114e-21)
(-0.00979424 -0.0714079 9.00127e-20)
(1.10216 -0.715124 2.94501e-20)
(0.886505 -0.734561 5.08606e-20)
(0.255537 -0.355236 0)
(0.974109 -0.149408 7.2181e-20)
(0.361277 0.289332 -4.37633e-19)
(-0.0224163 -0.276743 3.92029e-20)
(0.3352 -0.0138101 2.85253e-20)
(0.698298 -0.0637181 -7.58438e-20)
(1.07959 0.513593 0)
(0.991952 0.213151 7.72139e-20)
(1.08112 0.0257128 3.97636e-21)
(0.907972 0.427972 -8.88073e-20)
(0.798099 -0.74003 -7.72787e-21)
(0.923276 0.0167482 -4.84181e-20)
(0.975472 0.473583 0)
(1.0276 0.0399338 1.00011e-20)
(1.40498 -0.520304 1.36182e-20)
(1.24236 -0.342664 1.02698e-20)
(-0.265622 -0.246918 3.62312e-20)
(0.195606 -0.0183815 -1.80615e-20)
(0.985087 -0.120712 -5.7863e-20)
(0.350381 0.512854 0)
(0.91321 0.00852016 3.85783e-20)
(1.17272 0.629803 8.83288e-20)
(0.0761162 -0.30371 1.70323e-19)
(-0.0804066 -0.111471 -2.9959e-20)
(-0.0581884 -0.290431 4.62923e-20)
(1.09187 0.0154933 -5.43364e-21)
(1.1559 -0.471421 0)
(1.08696 -0.749342 -3.987e-20)
(0.697389 0.33592 0)
(0.156591 -0.295181 -1.21586e-19)
(1.18294 0.0412591 3.82526e-21)
(-0.0292001 -0.217632 -3.15923e-20)
(1.0477 0.0505899 -1.14181e-20)
(0.160804 0.0130998 6.99335e-20)
(0.924138 0.109605 0)
(1.39548 0.0899991 4.9924e-20)
(0.0775159 -0.0399362 -3.23863e-20)
(-0.349371 -0.262732 -4.29837e-20)
(-0.159917 -0.209271 0)
(0.0717187 -0.0174369 0)
(1.34222 0.0756405 -1.43861e-20)
(0.388699 -0.0152977 1.56259e-19)
(1.29231 -0.739968 -2.55624e-20)
(0.654818 0.13058 2.33936e-21)
(1.06762 0.237707 -2.81611e-20)
(0.375121 -0.576588 1.37843e-19)
(1.54152 0.227399 -3.92097e-20)
(0.0812687 -0.135047 3.44431e-20)
(0.207212 0.287493 1.95411e-19)
(0.0898687 -0.0712455 -1.30109e-19)
(0.95579 -0.503072 -4.29505e-20)
(1.4673 0.358658 4.04208e-20)
(0.578447 -0.692757 4.75349e-20)
(1.10586 -0.0657944 -7.35282e-21)
(0.444825 -0.148618 6.62827e-20)
(1.23571 0.27323 -5.76489e-20)
(0.660794 0.627279 -4.03984e-20)
(1.36659 -0.634977 0)
(1.44509 0.501377 3.81524e-20)
(1.06975 -0.537983 -1.29566e-20)
(1.40275 0.591162 -1.12603e-19)
(1.12233 0.0491154 0)
(-0.0437513 0.0232159 0)
(1.25601 0.716097 0)
(1.02778 0.0222594 -1.0686e-20)
(0.749007 -0.313043 -2.05145e-19)
(0.47718 -0.0991942 0)
(-0.0610895 -0.0255704 -3.07349e-20)
(1.0202 -0.244037 9.96207e-20)
(-0.163535 0.00975839 0)
(0.322466 0.00700336 1.22011e-20)
(1.09131 0.0402262 0)
(1.44688 0.235104 0)
(1.12506 0.0375451 -3.36321e-21)
(0.363948 -0.31113 0)
(1.01511 0.142279 3.62994e-20)
(1.3388 0.258823 0)
(-0.11694 -0.127457 -1.34422e-21)
(0.820829 -0.408417 0)
(1.51227 0.300082 -5.96691e-20)
(1.23938 0.343944 -3.33401e-21)
(0.837654 0.629258 -9.66992e-21)
(1.00874 0.151548 -8.54715e-20)
(0.966212 -0.208277 -4.84753e-20)
(1.45925 0.255833 3.48276e-20)
(1.03035 -0.0180749 0)
(0.565449 -0.0850513 0)
)
;

boundaryField
{
    FrontBack
    {
        type            empty;
    }
    Top
    {
        type            noSlip;
    }
    In
    {
        type            fixedValue;
        value           uniform (1 0 0);
    }
    Bottom
    {
        type            noSlip;
    }
    Out
    {
        type            zeroGradient;
    }
    circle
    {
        type            noSlip;
    }
}


// ************************************************************************* //
