/*--------------------------------*- C++ -*----------------------------------*\
| =========                 |                                                 |
| \\      /  F ield         | OpenFOAM: The Open Source CFD Toolbox           |
|  \\    /   O peration     | Version:  2412                                  |
|   \\  /    A nd           | Website:  www.openfoam.com                      |
|    \\/     M anipulation  |                                                 |
\*---------------------------------------------------------------------------*/
FoamFile
{
    version     2.0;
    format      ascii;
    arch        "LSB;label=32;scalar=64";
    class       surfaceScalarField;
    location    "22.2";
    object      phi;
}
// * * * * * * * * * * * * * * * * * * * * * * * * * * * * * * * * * * * * * //

dimensions      [0 3 -1 0 0 0 0];

oriented        oriented;

internalField   nonuniform List<scalar> 
1171
(
-0.945649
0.945649
0.782772
-1.09242
0.309646
-0.344953
-0.745851
1.0908
0.0543512
-0.0629563
-0.276801
0.339757
-0.782772
0.0905713
0.692201
0.945531
-0.212392
-0.733139
0.843833
-1.04293
0.199095
-0.357887
-0.0333576
0.391244
0.000533335
0.606021
-0.606555
-0.492918
0.948151
-0.455233
-0.420843
1.01784
-0.174007
0.255086
0.0874819
-0.342568
0.989216
0.0286245
0.289474
-0.0343878
1.02661
-0.0373897
0.649687
-0.994641
-0.791403
0.614343
0.17706
0.355906
-0.848823
0.560656
-0.915337
0.35468
-1.08044
0.671369
0.409076
-0.644022
0.644556
0.033355
-0.252626
0.219271
0.0258731
-0.633373
0.6075
0.469034
-0.502391
-0.834684
0.881034
-0.0463503
0.997648
0.0289577
0.915503
-1.06874
0.153235
1.0286
-0.0309512
-0.701656
-0.0897475
1.24337
-0.848904
-0.394464
0.193916
-0.0712698
-0.418491
0.48976
-0.273457
0.183981
0.0894752
-0.606684
-0.485735
0.967293
-0.0517897
-0.0197767
0.874966
-0.855189
0.508185
0.735183
0.534752
0.0275971
0.441437
-0.790593
-0.10509
0.895682
0.592891
0.229305
-0.822195
0.038798
0.594807
-0.633605
-0.509952
-0.570493
-0.387138
-0.681599
0.0305807
0.243201
-0.273782
-0.947721
-0.0317272
0.979448
0.376614
0.0146299
0.858168
0.0873635
-0.60616
-0.0378629
0.0359448
-0.826537
0.151363
0.906987
-1.05835
-0.405639
0.0261884
0.379451
-0.713608
-0.234113
-0.713341
0.864705
0.64136
0.306791
-0.578958
0.99704
-0.82216
-0.17488
-0.0105141
-0.110023
0.120537
-0.460177
-0.042214
-0.307338
0.948697
-0.0186961
0.444388
-0.425692
-0.483613
1.0765
0.715025
-0.820114
0.391661
-0.0794806
-0.312181
0.756437
-0.756437
-0.938846
0.0378062
-0.314607
-0.696669
0.676892
-0.0300162
-0.142149
0.172166
0.892024
-0.0170587
1.04223
-0.812924
0.224322
-0.319804
0.0954824
0.995716
-0.137548
-0.67996
-0.0485847
0.728545
0.149188
-0.231759
0.0825704
0.805255
-1.01765
-0.442999
0.310857
0.132142
0.664802
-0.638929
0.871952
-0.393928
-0.478024
0.484814
-0.694175
0.0363695
0.657806
0.17352
0.670547
0.0462671
-0.716815
0.132209
-0.0944031
-0.513064
0.107425
0.0362574
-0.906963
0.870705
-0.545891
-0.763714
0.0620588
0.501587
-0.0601509
0.274827
-0.832944
0.558117
0.424664
0.575336
0.598057
-0.562112
-0.372965
-0.0348657
0.407831
0.535534
0.220903
-0.658334
0.697132
0.0830969
0.895827
0.00446267
-0.684423
-0.766495
0.802752
0.621963
0.111087
0.362443
-0.47353
-0.155169
0.51516
0.0796474
0.832083
-0.716763
-0.11532
0.656323
0.340717
-0.429597
0.710203
-0.599116
0.409644
0.151012
-0.0572845
-0.676144
-0.16855
0.844694
-0.118389
-0.638048
-0.612524
0.363315
0.24921
0.661847
-0.657384
0.309741
1.02843
0.0137935
-0.766495
-0.088482
0.077968
0.715025
0.78568
-0.78568
0.844904
-0.831467
-0.0134369
-0.454224
0.878888
-0.193028
-0.320036
0.763883
-0.668779
-0.0951041
-0.843624
0.16748
0.106617
-0.712777
0.820114
-0.975283
-0.174085
0.17478
-0.000694277
0.117862
-0.990345
0.872482
0.549805
-0.0150536
-0.289347
0.595379
-0.306032
-0.65135
0.769212
-0.160313
0.731001
-0.833426
0.102425
1.17196
-0.679429
-0.492534
0.728396
-0.0700799
-0.00821196
0.00905505
-0.000843092
-0.801577
-0.929423
0.183572
-0.696669
0.574996
-0.548807
-0.00640659
0.71081
-0.704403
0.779932
0.165717
0.491187
0.508813
-0.0295648
-0.659673
0.689238
0.794715
0.0373678
-0.728396
0.802752
0.179822
-0.432448
-0.0269611
0.00903212
0.017929
0.673728
-0.435275
-0.238454
0.692201
-0.0261054
-0.198422
0.557392
0.116336
-0.013021
0.00132381
0.0116972
0.00424913
-0.0124611
0.122067
-0.201547
-0.945993
0.0380902
-0.143241
-0.0520187
0.124259
0.769166
0.742392
-0.167056
0.430933
-0.43734
-0.162094
0.386415
0.637556
0.054645
0.228635
-1.0601
-0.975283
0.316464
0.676892
-0.157973
0.0158232
-0.807256
0.993949
-0.186693
0.482916
-0.103465
0.800625
0.305825
0.257744
0.0317294
-0.680882
0.680882
0.223656
0.672026
-0.0111198
0.455508
0.478641
0.0106323
-0.0375935
0.552849
-0.00304387
-0.65135
0.572942
0.190941
0.00770957
0.00134548
-0.637556
0.170446
0.823503
0.0251159
-0.71736
0.692244
0.75978
-0.821981
0.0622016
-0.779932
-0.0308368
0.0430113
-0.0121745
0.0846635
-0.123748
-0.105515
0.229263
-0.0067377
-0.00628334
0.764994
-0.739878
0.886541
0.204263
-0.439772
-0.501168
0.94094
-0.00162104
0.00162104
0.139914
0.404401
0.676541
-1.08094
-0.198868
-0.556307
0.755175
-0.0200121
0.192178
0.38326
-0.234072
1.06006
-0.655663
0.762004
0.95357
-0.277029
0.190232
0.769212
0.595205
0.247498
0.633536
-0.638048
0.319118
-0.0304391
-0.0197056
0.0501447
0.881524
-0.0395617
-0.841962
-0.557815
0.526864
0.545776
-0.557815
-0.595205
0.526864
0.00646827
0.982784
-0.0962423
-0.535534
0.453826
0.0817085
0.513548
0.640936
-1.15448
0.498445
0.561618
0.645926
0.504056
-1.14998
0.437272
0.516298
0.453826
-0.516296
-0.518491
-0.682171
-0.532098
-0.122617
-0.00469696
0.00469696
0.653472
0.560068
-1.09217
0.737908
-0.375465
-1.07209
0.392658
-0.684633
0.45052
2.7419e-05
-0.982335
0.982308
0.453045
0.0127632
0.86876
-1.15311
-0.988965
0.0503766
0.938588
0.242424
-0.0624594
-0.179964
0.747209
-0.798999
1.01255
-1.02036
0.00781097
0.00569553
-0.722458
-0.129956
0.875831
-0.745875
-0.973575
0.97927
-0.636642
0.592156
0.0444859
-0.822348
0.15218
0.670169
0.00303812
-0.00465917
0.425839
0.140567
-1.005
0.864434
-0.758204
0.728639
1.03372
0.0899492
-1.12367
0.0447569
0.00594812
0.401883
-0.359469
0.0396653
0.951997
-0.95197
-0.618085
-0.769326
0.0468682
-0.144513
-1.01578
-0.00457803
0.534216
-0.103283
-0.0398805
0.282304
-0.550619
0.702798
0.478024
-0.969572
-0.883626
0.099158
-0.157642
0.655281
-0.497639
-0.0334711
-0.775728
0.578738
0.181042
-0.104663
0.973423
1.02965
0.976043
-0.980621
0.0451629
-0.0451629
-0.0815372
-0.201516
0.139057
0.342595
-0.0261312
0.231639
0.939952
0.00571188
-0.0124496
0.658262
0.341738
0.797012
-0.606684
-0.758279
-0.537201
-0.480513
0.480513
-0.207613
-0.106994
0.662357
-0.977008
0.314651
-0.475481
-0.548678
0.354123
-1.03572
-0.99499
1.0028
-0.64776
0.694629
0.674476
0.199383
-0.873858
-0.492715
-0.173208
0.850134
-0.676926
0.0550378
0.00279526
0.00275365
-0.00554891
0.0514921
-0.253008
1.01648
0.632496
-0.338126
-0.294369
0.452532
0.746618
-0.522962
0.0120909
-0.285548
0.137607
0.742014
-0.87962
-0.361247
-0.0610718
0.139721
-0.978901
0.136939
-0.777625
0.0826105
0.765903
-0.848514
-0.902822
0.125197
0.715371
-0.776443
0.233883
-0.357631
-0.422811
-0.0699034
0.368936
0.741034
-0.0308312
0.000846237
-0.000846237
-0.00337315
-0.00740424
-0.0230348
-0.016808
0.0225199
-0.526094
0.335717
0.765325
-0.853267
0.0879411
-0.744537
0.827147
0.787447
-0.0720762
-0.733552
-0.16927
-1.15765
0.0207575
0.0244054
-0.388488
-0.863507
-0.844002
0.449537
-0.222758
0.249219
-0.0264608
-0.529097
0.140609
0.517686
0.712613
-0.0366253
-0.0153934
1.0488
0.500825
0.208714
-0.709539
-0.396375
-0.132722
-0.00495381
0.00774907
0.726374
-0.894924
0.00618655
-0.00618655
-0.709846
0.725064
-0.0152182
-0.436256
-0.0967922
-0.708001
0.0433582
0.64588
-0.0508489
-0.881209
-0.101388
0.201461
-0.100073
0.839762
-0.751821
0.343916
0.261445
-0.605361
-0.137133
-0.731519
-0.116994
-0.209021
-0.0580295
0.472341
-0.514555
0.169859
0.737344
-0.907204
0.484814
-0.147133
-0.0756249
0.0124919
-0.0705214
0.596184
-0.0938784
-0.502305
-0.28394
0.304911
-0.0209709
0.588517
0.149391
0.0559278
-0.31122
0.169247
0.141973
-0.106474
0.0179916
-0.285277
0.0939817
0.0485808
-0.142563
0.898944
-0.347285
-0.088971
0.554808
0.267999
-0.606125
0.400886
-0.400886
-0.196505
-0.38615
-0.211604
-0.38615
-0.674133
-0.850551
0.181772
-0.208228
0.729088
0.0473764
0.166671
0.574363
0.108341
0.116271
0.0109327
-0.127204
-0.00676752
0.753214
-1.05602
0.554848
0.0173625
0.058849
-0.0762116
-0.749002
-0.177642
-0.570771
0.779485
-0.538141
0.0513096
-0.121831
-0.338312
-0.080728
0.080728
0.0427718
0.000239515
0.137029
0.267211
-0.755188
0.184417
-0.00234307
0.472139
0.527861
0.784567
0.0202155
0.0176656
-0.0378811
-0.294632
-0.586577
-0.523715
0.113419
-0.118328
0.0049088
-0.133499
-0.413914
-0.0400298
0.68591
-0.588961
-0.160041
-0.0587131
0.0183419
0.0988183
-0.296731
-0.196681
-0.178237
-0.0233107
-0.478346
0.429555
0.0487905
-0.00906111
0.294401
-0.864894
-0.539755
0.679142
-0.861603
0.72447
0.461456
-0.0325144
0.0587472
-0.0262328
0.0753264
-0.634392
-0.00589662
0.640289
-0.894385
0.643551
-0.725088
-0.0532148
0.00654043
-0.00654043
-0.299129
0.444808
-0.0429254
0.00281214
0.0174034
0.591132
0.526094
-0.641414
0.0118443
0.00407962
-0.00323339
0.00407399
-0.00407399
-0.506405
0.655796
0.0142364
-0.0142364
-0.780367
-0.00786318
0.0109013
-0.505527
0.689944
0.575626
-0.590844
0.0682157
-0.0682157
0.00128978
-0.0388833
0.0139411
-1.06701
0.57448
-0.532866
-0.00465917
0.60397
0.00679703
-0.610767
-0.708587
0.119626
-0.316595
-0.0133314
0.329927
-0.019461
-0.0171643
-0.606387
-0.0280052
0.0244054
0.0057548
0.000431751
-0.00292211
0.00292211
-0.417479
0.274917
-0.456684
0.133351
0.663661
-0.135175
0.00190742
-0.00190742
0.508509
-0.0144268
0.00816148
0.017865
-0.000585176
0.605585
-0.620012
-0.754469
0.665498
-0.0880577
0.324371
0.77994
-0.00337315
-0.0952127
0.0965581
-0.635651
0.553665
-0.266344
-0.104617
-0.0276488
-0.0257633
0.000857563
0.475597
-0.0860445
-0.416261
0.707411
0.00062297
0.0058759
-0.0058759
-0.190059
-0.150269
-0.571536
0.618913
-0.138029
0.509335
-0.217481
0.867168
0.878411
0.0057548
-0.770376
0.67999
0.013771
-0.0383097
0.0245387
0.656436
0.0943632
-0.0121771
0.0673396
-0.0551625
0.00925501
-0.00925501
-0.745184
0.0230527
-0.0426257
0.0604907
-0.0864637
0.0864637
0.00407962
-0.00146573
0.752874
0.0706284
-0.318059
-0.0958551
-0.521836
-0.0449421
-0.067001
0.067001
-0.0365913
0.0804357
-0.0804357
0.0269522
-0.0269522
-0.356594
-0.073003
0.24085
0.0700075
0.0529397
-0.7279
-0.0587121
0.160774
0.0190478
-0.244463
0.0804503
-0.0804503
-0.467833
-0.0467215
0.230592
-0.0113213
0.00283269
-0.656816
0.650348
0.0296122
-0.0662035
0.0226262
-0.0615095
-0.01222
-0.155703
0.167923
-0.14984
-0.207791
-0.0815196
0.0815196
0.0549485
-0.0549485
-0.029026
-0.094053
0.123079
-0.0160458
-0.188458
-0.00629535
0.00306196
-0.272461
0.547377
-0.0257794
0.417484
0.00742951
0.00426772
-0.0513868
0.0513868
-0.730985
0.318079
-0.127847
-0.208722
-0.0230365
-0.0175614
0.0203941
0.197219
0.0320435
-0.00185836
0.00127318
0.0837871
0.0296316
0.0553994
0.105374
-0.016057
0.000663604
-0.000310654
0.00646293
0.00540697
0.00526511
-0.0106721
-0.00179627
0.00805248
0.0279775
-0.0279775
0.0497782
-0.0421263
0.0421263
-0.190222
0.0107306
0.0295214
-0.0757459
0.0176972
0.0766667
-0.0766667
0.24601
-0.238091
0.0882509
-0.0670666
-0.171024
-0.0159975
0.0159975
0.407485
0.25032
-0.518687
-0.080506
-0.0378215
0.540836
0.00658039
-0.0631692
-0.463523
0.0934367
-0.153147
0.17011
-0.0169628
-0.0470351
0.0470351
0.873377
-0.591264
-0.00852988
0.0067336
-0.00573569
-0.284635
1.46298e-05
0.00494411
-0.0428889
-0.627578
0.568557
-0.665705
0.0145185
0.188641
0.0156142
0.0244346
-0.158883
-0.335175
0.259429
-0.0559971
0.0269711
0.172002
0.132909
0.186697
0.264721
-0.249107
0.00583872
-0.112633
-0.222054
0.067977
-0.0125776
0.161309
-0.136874
-0.0682209
0.152008
-0.404259
0.122229
-0.104532
0.0586305
-0.474891
0.175054
0.177227
-0.245448
0.00619413
-0.176659
0.176674
0.0037836
0.148224
-0.02789
0.0499195
0.458589
0.0119799
0.0222079
-0.00442202
0.0347274
-0.239017
-0.203032
0.590117
0.169009
0.0615834
0.0777672
-0.0637717
0.0688639
-0.0443252
-0.0302339
0.166536
-0.152018
0.0230655
-0.00546792
-0.104151
-0.0284349
0.0237291
0.252085
-0.00206708
0.00735448
-0.311257
-0.00643364
0.216893
0.140499
0.17758
0.0567772
0.0972996
0.0516966
0.539435
-0.0109827
0.103475
0.0428115
0.0657115
-0.108523
-0.268367
-0.197276
0.0262519
-0.222806
0.285005
)
;

boundaryField
{
    FrontBack
    {
        type            empty;
    }
    Top
    {
        type            calculated;
        value           uniform 0;
    }
    In
    {
        type            calculated;
        value           uniform -1;
    }
    Bottom
    {
        type            calculated;
        value           uniform 0;
    }
    Out
    {
        type            calculated;
        value           nonuniform List<scalar> 10(1.14437 1.02984 1.20066 0.99889 1.14499 1.0484 1.21354 1.02416 0.597391 0.597754);
    }
    circle
    {
        type            calculated;
        value           uniform 0;
    }
}


// ************************************************************************* //
