/*--------------------------------*- C++ -*----------------------------------*\
| =========                 |                                                 |
| \\      /  F ield         | OpenFOAM: The Open Source CFD Toolbox           |
|  \\    /   O peration     | Version:  2412                                  |
|   \\  /    A nd           | Website:  www.openfoam.com                      |
|    \\/     M anipulation  |                                                 |
\*---------------------------------------------------------------------------*/
FoamFile
{
    version     2.0;
    format      ascii;
    arch        "LSB;label=32;scalar=64";
    class       surfaceScalarField;
    location    "1201";
    object      phi;
}
// * * * * * * * * * * * * * * * * * * * * * * * * * * * * * * * * * * * * * //

dimensions      [0 3 -1 0 0 0 0];

oriented        oriented;

internalField   nonuniform List<scalar> 
1171
(
-0.9279403828127818
0.9279403827447056
0.7873708451598128
-1.098958032284711
0.3115871862956841
-0.193119742135841
-0.7652010784240405
0.9583208211655119
0.07205961942567858
-0.116774308243256
-0.2119995025322279
0.3287738132649632
-0.787370847948596
0.06944028427296373
0.7179305636421028
0.811508713747175
-0.1776355916365352
-0.6338731215722884
0.8744272619249305
-1.043857088535696
0.1694298265809101
-0.2851189764375835
-0.09728305049169519
0.3824020266803904
-0.0358981256727367
0.5486638362141771
-0.5127657105634758
-0.5028854628069291
0.8251279723503019
-0.322242510556793
-0.401893282584579
1.046017964403145
-0.1715907012769187
0.3945259558525585
0.04762580503725607
-0.4421517570363068
1.046229738213835
-0.0002117733274087745
0.4440955800330521
-0.04956961287705074
1.056911223423242
-0.01068148313345565
0.577727395642991
-0.7708471365356827
-0.7244672647516065
0.5570608409185519
0.1674064239465613
0.2212596734645563
-0.7241451373422131
0.5506443727965503
-0.922878699764724
0.3722343277982054
-1.09416103878465
0.6863898710625278
0.4077711677308202
-0.5954389610806646
0.5595408268690597
0.0182943555925841
-0.2570966097316343
0.2388022533104426
-0.02427604817927285
-0.5212130625744058
0.5454891148812007
0.4002202708715911
-0.4975033194871831
-0.9188032872857913
0.9414086886095774
-0.02260540157247162
1.067515586547372
-0.01060436161999774
0.9350418334602918
-1.116815825671686
0.1817739923121346
1.067076318702816
0.000439269756886701
-0.6644254151211081
-0.06004185712728546
1.262297327519072
-0.8642706230598416
-0.3980267043840972
0.1482730360687934
-0.108970847748609
-0.326434597953547
0.4354054453256505
-0.2857391798745449
0.1909527492767782
0.09478643073253439
-0.5834923592995312
-0.515465672971277
1.014020625244882
-0.07897880032932551
0.009947993013388532
0.8254378982703383
-0.8353858913501139
0.5718897825212303
0.6904075432770321
0.4396929854668639
-0.0301457115979459
0.4303659817250551
-0.8077132558713134
-0.1025455429848498
0.9102587991428525
0.5024650212936523
0.2536575146425266
-0.7561225361494313
0.005248071196374052
0.5272752110854537
-0.5325232798298644
-0.4898549235248109
-0.6043061117133961
-0.4228562746152266
-0.6939595583303977
-0.02709174758751869
0.2700208631662103
-0.2429291168275471
-0.9247446328775057
-0.005105458584929045
0.9298500913875748
0.3084276560690493
0.07397437365110957
0.7623052459238436
0.04920346544789742
-0.5331660745539953
-0.06227289009687572
0.04625709974035871
-0.853970350437966
0.07496691479996026
0.862887001158707
-0.9378539161428295
-0.347201220161459
-0.04157838361073225
0.388779602230562
-0.6822394568789812
-0.2425051710545346
-0.6319119938775767
0.7068789122301267
0.6103069821594204
0.2148209912526728
-0.5429114315838702
0.9459888290562021
-0.7793385789116498
-0.166650250345806
0.02101973543385284
-0.01875900071785492
-0.002260732525536026
-0.4030456578093564
-0.09445766240345813
-0.2411646783100634
0.8514716614633677
0.04616011029595302
0.3356303332664743
-0.3817904444456036
-0.4601755487232418
0.9626405707513989
0.6801750767425121
-0.7827206121384944
0.320209328887163
-0.01778406306328732
-0.302425270566361
0.9307038836959362
-0.9307038837295292
-0.782418060125875
0.1104946478665233
-0.3224941518728761
-0.7500217629075696
0.7599697586269982
-0.08994056560495525
-0.1431220755208321
0.2330626393078434
0.8650114021932419
-0.03957349665807278
1.05419624512631
-0.8005387295061323
0.1859905134431397
-0.3154346399756257
0.1294441276698865
0.8594144433804638
-0.09710919466441163
-0.6118299140635742
-0.0391216822484358
0.650951596257713
0.1238144200846699
-0.2311976658028398
0.1073832461508765
0.805706073728965
-0.9833416661346337
-0.4355210510764826
0.3297118442472936
0.1058092085129141
0.5312824997629156
-0.5555585552145956
1.022036180877378
-0.4562169148619639
-0.5658192661453921
0.5991798979685734
-0.7193880346730142
0.0668670640352353
0.6525209707412093
0.1032919063917146
0.5703431165453805
0.05507464807674195
-0.6254177643051468
0.1939807980625123
-0.08348614013441871
-0.4932659059562577
0.1460646805290456
0.05031470497888622
-0.8868010264937976
0.8364863215454703
-0.4735872791635741
-0.7134900071693934
0.04906458941430475
0.4369749374806022
-0.006608962690706644
0.2998136350349824
-0.8552274048409052
0.5554137697135294
0.4157137144410754
0.584286285770917
0.560481831141415
-0.51422472830176
-0.3663694304639393
0.03481156302658271
0.3315578629646387
0.6813809416010518
0.2493229401111915
-0.5655858546200352
0.5708339370655839
0.110540340148243
0.8751463582097978
0.01019106242952218
-0.6220209836704046
-0.7493035154313478
0.7996182172745852
0.5312214232154985
0.07056631560112157
0.3022369778353141
-0.3728032927281585
-0.1675804754899373
0.4414685636420951
0.08580663287870123
0.8766839902516335
-0.7988218198967297
-0.07786217043137394
0.6353698237443602
0.3106189971401828
-0.4301374085134605
0.5750468805763743
-0.5044805684358289
0.4172267082553283
0.133417665137037
-0.04686963572843886
-0.59221198996475
-0.1373341788897301
0.7295461689563266
-0.1497499988906181
-0.7809538829013268
-0.6109976622251814
0.3607997670721451
0.2501978939823927
0.6222054880801861
-0.6120144282186395
0.2388332531997167
1.011263784490436
0.04293245962508799
-0.7493035174929028
0.2293575162426805
-0.2083377825853165
0.6801750744098053
0.8019968541793714
-0.8019968543309335
0.8377364396470485
-0.8333212423013191
-0.004415197404490861
-0.4453927859860309
0.86110650562749
-0.1475343328911154
-0.3457315772478655
0.7346982363661639
-0.6684489282860316
-0.06624930806371747
-0.7315515120366636
0.1393395156528795
0.1386584062187036
-0.6718244805077336
0.7827206018537721
-0.9503010774017412
-0.3664303948750199
0.2914659373436342
0.07496444769282429
0.1459760740506515
-1.009614034615891
0.8636379605221722
0.4811805982014565
-0.04148761280750541
-0.3081942868056895
0.5865118058854022
-0.2783175188294119
-0.7383614552303261
0.8843375280825743
-0.1571331004982315
0.7335538027998798
-0.8426174412831651
0.1090636377214699
0.9769209035061878
-0.5416075679253819
-0.4353133358735073
0.7551272152792408
-0.0649601497264763
-0.03257154473190842
0.187241086632356
-0.1546695410152234
-0.77576289994618
-0.8461221991803952
0.08092112598853908
-0.7500217593223585
0.5138679258994774
-0.5554463181418408
0.09147328765292723
0.7201968550737722
-0.8116701424984208
0.7537187171810921
0.1742216596560681
0.5028808295275049
0.497119170452716
-0.04983270180327754
-0.6079127632434034
0.6577454679091522
0.8834090702230424
-0.006725080208329925
-0.7551272152715082
0.7996182172545508
0.1910053874027079
-0.4481020031322488
0.02031154200680837
0.002271709344416267
-0.02258324872597779
0.5888329204706736
-0.4384054729453711
-0.1504274463455369
0.7179305648922922
0.01296584571912807
-0.1125684008725755
0.4370066526626853
0.1518262727708257
-0.01476352369908943
-0.005406000494402721
0.02016952612272099
-0.03270071290609982
0.000129175011271976
0.2432313953300175
-0.261015462269711
-0.9591299543388141
0.001649747863995889
-0.1595117370392015
-0.1231989967337852
0.09446420725466609
0.7214758915129954
0.7290588865641364
-0.1447726029894164
0.6644643437625088
-0.5729910570085153
-0.2117344564306001
0.3977249718395415
0.6954289973960499
0.02250156738569744
0.2416302790492047
-1.074951520722586
-0.9503010802080546
0.3018186933018361
0.7599697636103097
-0.2086182562635892
0.06549617838688929
-0.7231256379662849
0.9103011603580947
-0.1871755226405148
0.4159883537605887
-0.02720876244327989
0.7715261696287402
0.2806119642596663
0.3719869572716314
0.07210861854531332
-0.658687273597913
0.6586872735871744
0.2146282760417632
0.6956305289248499
-0.05503176933130682
0.3906621065810659
0.3803736758027658
-0.01553997773608993
0.03585150651786822
0.4494059293830359
0.03177466466965739
-0.7383614545462123
0.5341326228521593
0.2005656147815607
0.3059454013636232
-0.1187043422002208
-0.6954289962625069
0.1802191271081085
0.7300820300836572
-0.01015795177541085
-0.8137265473811143
0.823884499185578
0.6962709703561393
-0.7921161837418226
0.0958452135981908
-0.7537187159641728
-0.1495714341484963
0.2107851019447708
-0.06121366789800386
0.07712130038986043
-0.1800314267252781
-0.111871371658773
0.2919028018565588
-0.009446624726599741
-0.005316883739969826
0.7064413329542821
-0.7165992793016798
0.8846225155653111
0.0736983083013201
-0.3122599724252935
-0.5193900293941148
0.8316500022540819
0.1026644517737071
-0.1026644463017593
0.3262774967212539
0.4781863818292081
0.6107951781533424
-1.088981560426342
-0.1941504874965564
-0.5856307045338233
0.7797811920459367
0.01230223246317653
0.2207604034050898
0.3772962393009495
-0.2534818198445947
1.012813171417872
-0.5346267895158497
0.6642961354708186
0.993776204468568
-0.3829810250706535
0.2297619057863228
0.8843375269963155
0.7127468270194721
0.2136657269997293
0.7277429645344873
-0.7809538845873533
0.3413127309861259
-0.2783564380481142
0.2469915950173712
0.03136483478884857
0.8502204245171013
-0.0154406403289787
-0.8347797837296009
-0.7020653470158537
0.7025046184061609
0.554607216193881
-0.70206534532362
-0.7127468271095944
0.7025046203434351
-0.03430334304241883
0.9036695666630757
-0.01904704928293589
-0.6813809481248564
0.6123298830105691
0.06905106503689119
0.5389050328308901
0.5376477009226363
-1.076552733613652
0.4920350342833925
0.5207781382882916
0.5440938341803587
0.4598082948043444
-1.003902128933681
0.4987667245030933
0.495009480647942
0.6123298877271849
-0.5256191082018534
-0.4654813882692618
-0.5559620365611835
-0.519283344143776
-0.1224205845869967
-0.01235193215582243
0.01235193151562462
0.511439519559847
0.5232148580368674
-1.042498202229746
0.5753963559190652
-0.2731593782242225
-0.8848464671300988
0.3432389030128051
-0.6328181801779106
0.3903130091473622
0.001239158453347876
-0.8308639183722812
0.8296247595530862
0.4208646093802859
-0.01874126250742833
0.8689616884532146
-0.9441719636529775
-0.8353143177707065
0.05649153584649531
0.7788227815359714
0.5547910042187314
-0.4367566728524917
-0.1180343307141904
0.6499334639908256
-0.7289122656846841
0.8834270513155209
-0.8317450682804066
-0.05168198342328622
-0.009666262974560233
-0.7891555563981125
-0.1099965247786306
0.7158134621177169
-0.6058169373984186
-0.9372832916464663
0.9276170283001103
-0.7344942158311641
0.6908342527564166
0.04365996298219169
-0.8056060163358361
0.03465597782555287
0.7709500384397021
0.06162362084265186
0.04104083791064418
0.4332313088076618
0.06074490866025975
-0.8503257836278983
0.7895808748693803
-0.6424549561041312
0.5926222577590088
0.8909924791379195
0.07040275425668792
-0.9613952337876787
0.05567816337166815
-0.04795330228830142
0.3795111587797601
-0.3812121891615295
0.06577754847314028
0.8419393111275028
-0.8407001513994246
-0.7319077037655052
-0.8077390706459148
0.01858351320035154
-0.1664441978815452
-0.8509476641802278
0.01920259594857504
0.625430582661659
0.03903376769367378
0.02395056456125559
0.5308404375165894
-0.8084165238786944
0.8430725034074054
0.5658192733835719
-0.849605177602118
-0.8668805365229267
0.03678903029747956
-0.03984767326639223
0.837037450614041
-0.7971897774652683
-0.02132290049260799
-0.7717553740283345
0.5443427434571143
0.1519282323490044
-0.02862093057142388
0.8975826205476317
0.9841085659150385
0.860930139450973
-0.8417275431514525
0.1473053877128978
-0.1473053886696468
-0.1185519049388695
-0.478378817401612
0.04162214772333502
0.27125010149491
0.03056859145715258
0.3849528078263803
0.8762597216956719
0.002909659134926063
-0.01235627947926533
0.6586191827659744
0.3413808172601652
0.7834927984258147
-0.5834923564978189
-0.7780371644072351
-0.8126304136839159
-0.6798992232820484
0.679899223199021
-0.1677863995117429
-0.1547077469312285
0.6014912279136077
-0.8119269110919966
0.2104356831023324
-0.4937182048240997
-0.5689701942799279
0.2782291590793984
-0.9721887212638577
-0.9009793783709054
0.8492973972856922
-0.8183528470185396
0.8369363609592234
0.6486244534875265
0.1345206884695614
-0.7831451418947126
-0.7689704528281071
-0.1459279580776889
0.7246709678168618
-0.5787430094430317
0.02471965696900085
-0.01518433605950422
0.01827448398290062
-0.003090147562074954
-0.3547471896494763
-0.1236316276278523
0.8797203877167569
0.7386416621901351
-0.241175249620498
-0.4974664106460507
0.620607339304602
0.6852792514812136
-0.4706509724359175
-0.0008070805782066639
-0.2849320948699144
0.02427761948702481
0.7438640515018987
-0.7681416714982412
-0.3235642689211199
-0.07162100783675004
0.0754624579579531
-0.9612771139908181
0.1264973324317169
-0.6774062224632554
0.05244959436105924
0.641250191193338
-0.69369978538467
-0.756993214187259
0.07958699166579547
0.5887424266516951
-0.6603634345895932
0.1560688889465994
-0.3361003112764354
-0.7715625219669687
0.002592069335961439
0.3712515695518808
0.6014136093739559
-0.02636673048596939
0.02446657323544885
-0.02446657500607164
-0.01775794445060885
-0.05249711252325012
-0.225859295835114
0.01909899658752014
-0.01618933333110693
-0.732528757287252
0.2793806923372419
0.6791261505572612
-0.690453663954001
0.01132751326408319
-0.5983726219115107
0.6508222225970118
0.6533597104775439
-0.06461727702626729
-0.6317544364335261
-0.1252387843400406
-1.049680238898824
0.01119850506958525
0.1361068806652989
-0.7082511358399499
-0.7417509766176789
-0.7634174357392868
0.3653907302404558
-0.412232454578087
0.4707392825597589
-0.05850683203190345
-0.6783958074693611
-0.02985532834681368
0.5004280465248299
0.7306788056006709
-0.2330485553902833
0.1098495618138392
0.9586850452960163
0.445681356091278
0.1339258979839193
-0.5796072539954009
-0.6785398635153629
0.0001440630990730451
-0.0444512559406044
0.02926691532344634
0.637411287855865
-0.774745471291467
-0.002757480378710069
0.002757478042062295
-0.6002637857762007
0.6485093335864918
-0.04824554700695547
-0.6545892884669964
-0.1134839707177763
-0.6717544755712366
0.04907562830515385
0.608669844298158
-0.1372691894615524
-0.81768243169386
-0.5550493614901819
0.5683232124647657
-0.01327384627515017
0.6344422757602406
-0.6231147576765349
0.322199186274283
0.2140917019831593
-0.5362908883199483
-0.1043396908730706
-0.6029019341317029
-0.09079784686169286
-0.154582430372815
-0.5059737200236628
0.4042530271641238
-0.4987106908014269
0.1262361426204341
0.6784522352457586
-0.8046883782111378
0.5991798979466484
-0.3734075130250106
-0.03882493428087093
0.0667333624144805
-0.5727070672048371
0.5518131641924625
-0.04033560404012807
-0.5114775602908551
-0.3121766394728769
0.3047547390220324
0.007421901932625345
0.4523051371029385
0.1230912118289511
0.0504577782055361
-0.3157366905273356
0.156644330472168
0.1590923602475965
0.2471382297529231
-0.01778071383663858
-0.2970232147395282
-0.3138715677675661
0.3680210373194543
-0.05414946368106399
0.7907934668833061
-0.6290465089363592
-0.02554277827257608
0.4994989653311028
0.2819144360422127
-0.5230896816949985
0.5774690729678801
-0.5774690729538599
-0.2897751268461681
-0.5864998468052532
-0.2955232370854129
-0.5864998466570073
-0.5960045033063226
-0.8384999756282271
0.1700510484189016
-0.5874243635516849
0.8212127258114201
-0.003633155660295448
0.1198053704033086
0.4816082345745266
0.09668271704598892
0.1852122951332437
-0.03614137777701761
-0.1490709206168028
-0.01910114719721594
0.5933928669925869
-0.945067793395662
0.425677765711485
0.0001711168397853554
0.0005481473106556901
-0.0007192700422064731
-0.6433602840752035
-0.1318724210431291
-0.465568339711667
0.5994942367291392
-0.5037644505509553
-0.3170170152933169
-0.2556900606116901
-0.2718566782868992
-0.112033168604656
0.1120331707368399
0.1529245599823742
0.05786054771744675
0.1964107999913441
0.4529585809832187
-0.5721105005263284
0.1065421642250349
0.2471627223214772
0.4661236406606595
0.5338763586340128
0.6430800427050569
0.08094186005866572
0.001293055595118963
-0.08223492526769892
-0.2768475803108961
-0.5408348508365922
-0.5468819946692098
0.1140887772641463
-0.1260619664611782
0.01197318909829835
-0.1060236830694541
-0.3860671828138009
-0.0447074201826561
0.6533772612983353
-0.4989158740005494
-0.1444444102273733
-0.3357760383270174
0.2904054516566941
0.12372921524362
-0.6028463750462728
-0.2039277791724212
-0.2617113529368067
0.0006958916765920904
-0.421629801841474
0.3217609927035281
0.09986880803046586
-0.08970286201077701
0.2916138409609541
-0.8959199507164946
-0.4580113492707044
0.6342761151804482
-0.7729164343485568
0.6685767434555293
0.3427088025757075
-0.126477512913028
0.2258300945130003
-0.09935258099207306
0.02770746660700373
-0.586214368517838
0.0292695132465904
0.5569448557188562
-0.900729857061025
0.5468068844697345
-0.6653587897675114
-0.09577039566767488
0.10897132166667
-0.1089713187413253
-0.3165437649835104
0.3637459832769442
0.01576517573401165
0.02413431744484756
0.05680754867128264
0.5048546879075261
0.6633037946968063
-0.7411659649398696
0.02640604249332198
0.02287976349670371
0.00158680035302102
-0.006559096381285584
0.006559097314944239
-0.4141336285568145
0.5372248328386334
0.01520520806174775
-0.0152052082664336
-0.7923132486166008
-0.05995663651688315
0.1215802509022401
-0.4519804326769195
0.5585225892784098
0.4496370727261532
-0.4978826209259882
0.1497341767238196
-0.1497341786265044
0.04157362502534932
-0.005722111591570175
-0.04095094538667157
-0.9773834863185117
0.5420701545619455
-0.4726404499587037
0.04104083054453694
0.5145162421300928
0.03091000018070951
-0.545426241768317
-0.6158657440728355
0.1169498714867827
-0.3298227015304447
0.01348253219219464
0.3163401684844169
-0.1536204678069946
-0.0794280994060762
-0.5407396820305311
-0.04547468126387663
0.1361068818990354
-0.04148121240433076
0.03872371635424662
0.08190720233732852
-0.08190720776325265
-0.5382029703228047
0.4840535053727263
-0.4143753747634562
0.1613294600951566
0.6221633382494115
-0.09799902486393991
-0.006192080151033124
0.006192083505606114
0.5329907018073925
-0.07200593349371454
0.006306878962838484
0.02713556366643942
0.03448172020254072
0.6879409252270337
-0.7599468581567216
-0.6619835749536891
0.636440797068718
-0.1088944686794025
0.3128076259479019
0.7460857077998055
-0.01775794456206992
-0.2668617509990718
0.1481574028918578
-0.7446754732244972
0.4843013354232885
-0.4221342561742598
-0.1013494904692729
0.003603065366999587
-0.01463746011061889
0.02039206157465205
0.4121483390917526
-0.1217001398926315
-0.3897774261521119
0.6290032434195378
0.01891103855805604
0.01013973418039384
-0.01013973567004662
-0.3576423452954181
-0.08524440159117309
-0.5606568972290088
0.5570237420188149
-0.2383488833033781
0.46481167431779
-0.1508081236693614
0.7285355215231597
0.6729798507212448
-0.04148120823311303
-0.6150515518029962
0.5604114499914133
0.2871508286671007
-0.2848561547601162
-0.002294677596814424
0.5467379285819188
0.09339937878860435
-0.03879793649102393
0.19722230964898
-0.158424374112531
0.1207051346794238
-0.1207051367749921
-0.8587453200028262
0.002428791561463627
-0.1129246627662535
0.1400602276551833
-0.1320374760420979
0.132037478510386
0.02287977116540367
-0.02395003325374653
0.6712703205225734
0.05881170981422364
-0.3232088440579777
-0.06285834074083782
-0.4712588676260814
-0.04862519300368523
-0.151817093339968
0.1518170958008163
-0.04066130581032844
0.1431746500454237
-0.1431746527728894
0.1369361708370732
-0.1369361708407
-0.3156122887103199
-0.1145251200141769
0.2266722081264638
0.1030396313543728
0.03486081561982252
-0.8211423450941616
-0.1972258257686599
0.1703694060826089
0.02063598226246399
-0.265560910194456
0.1257046854062231
-0.1257046878493618
-0.4140555331928758
-0.08465516037016217
0.2366249800144439
0.002177270329849764
0.040425985078709
-0.5434135528862583
0.5777168957192853
-0.02302165244234793
-0.01763966363253388
-0.02808830514777721
0.02236620322952269
0.006559518560030769
-0.184158995106707
0.1775994757694219
-0.1076965867046327
-0.2284037212880394
-0.1448884297451322
0.1448884324874666
0.07296192153855184
-0.07296191979430085
-0.01947421569838552
-0.1087114425248086
0.1281856576196372
0.240835837045227
-0.1827325074626441
-0.0233158707745553
0.02490269789456648
-0.137044525967992
0.6210980379639245
-0.03907126245867138
0.4214780673991002
-0.04138958141971247
0.06155911032340327
-0.1536394592632903
0.1536394611040329
-0.6360892675019602
0.309016737665288
-0.07925483533193986
-0.2348010550314509
0.003603387215557122
-0.1227416720880881
0.1631676558684295
0.1941255490446349
0.09777725988453657
0.09484830915042999
-0.06036658702667729
0.07253697624334425
0.04155180178648853
0.0638352335373745
0.10653417364693
-0.09617197309079549
0.2060215386567327
0.01289721889234966
-0.1123613218334523
-0.1025387946221675
0.0979239251596406
0.004614866838377078
0.01274002612828128
-0.0224785397683812
0.03784728270783593
-0.03784728239148431
0.07448063577644524
-0.05475237821106921
0.05475237826359444
-0.2245678510909016
-0.05080221930026636
0.01151862826436255
-0.1031505026115642
0.01623102194557487
0.1082773663701199
-0.1082773677726148
0.2939943613996813
-0.2715648285689964
0.1638682420496391
-0.05043807828584014
-0.2211267512032708
-0.01755400088449923
0.0175540001239284
0.3672511997148084
0.2852697694170662
-0.5273467500460958
-0.09399279861469591
-0.03206916758468978
0.5285806588838228
0.2127475299582337
-0.1690844821090061
-0.3820538465785623
0.07653725263779916
-0.1478735296677474
0.1874561553501426
-0.0395826247495716
-0.0667255593270418
0.06672555803041308
0.8226229604155516
-0.5606268084989242
-0.002448610407502328
0.01518863004621865
-0.02000430667928247
-0.2865801700802814
-0.01746995673600406
-0.01285096999591741
-0.1317296489612651
-0.5720004612210092
0.5559140303423998
-0.5689578052661092
-0.006928652699183815
0.1016116129815048
-0.001822373352107724
0.01670330154630425
-0.1678778426273915
-0.3367076553064991
0.2335571522266346
-0.05458884544420092
0.03511462803716173
0.1317843209934615
0.1729704252230945
0.3363276164234867
0.2768407813557175
-0.27866315576543
-0.06381507631876199
-0.1547958507322691
-0.2213185250115413
0.07488212089112728
-0.01104688734675379
0.2142892399658928
-0.1975859384631888
-0.08625126794961752
0.1587882425311558
-0.3548661071175023
0.2088624617965218
-0.192631438912417
0.08965169286324665
-0.47942911659858
0.1746051737684419
0.1698010486410912
-0.2560523174394345
0.0723697670946271
-0.1942070373554712
0.1767370803933002
0.01742731273923983
0.1413609315632322
-0.03954716834283904
0.06634586879811273
0.466644832626982
0.02029327843348393
-0.07551875471889141
0.05674561628957552
0.1254227676534156
-0.2609011549931793
-0.2308984545588924
0.5596994034093846
0.1578615273446899
0.07876345156645111
0.07586767439643925
-0.03095735317133575
-0.005274671698735496
0.002979993736554947
-0.03275920723087207
0.1712799030099967
-0.1782085558879365
-0.05512669199321053
0.02245408457272672
-0.1466421289561835
-0.05284609670941266
0.1508948488572671
0.277096263287235
-0.03934504251209808
0.01709151204071076
-0.2556124721686244
-0.1302303119273722
0.235578602726576
0.1793102420631237
0.1297065004022099
0.02165780736599508
0.08911439510723813
0.05198955270388903
0.45286513511893
0.01751207237085803
0.09695995057973533
0.04380609076740188
0.07161633065586631
-0.1154224203848089
-0.2420769821081374
-0.2009680469702247
-0.02015870301433798
-0.2023328535635695
0.2757711756930245
)
;

boundaryField
{
    FrontBack
    {
        type            empty;
    }
    Top
    {
        type            calculated;
        value           uniform 0;
    }
    In
    {
        type            calculated;
        value           uniform -1;
    }
    Bottom
    {
        type            calculated;
        value           uniform 0;
    }
    Out
    {
        type            calculated;
        value           nonuniform List<scalar> 10(1.036128870249589 1.06452414319605 1.021443424808668 1.019544863408163 0.9974559997229886 1.014292824762004 1.034654377925084 1.062688398944963 0.8672442031306065 0.8820230839343524);
    }
    circle
    {
        type            calculated;
        value           uniform 0;
    }
}


// ************************************************************************* //
