/*--------------------------------*- C++ -*----------------------------------*\
| =========                 |                                                 |
| \\      /  F ield         | OpenFOAM: The Open Source CFD Toolbox           |
|  \\    /   O peration     | Version:  2412                                  |
|   \\  /    A nd           | Website:  www.openfoam.com                      |
|    \\/     M anipulation  |                                                 |
\*---------------------------------------------------------------------------*/
FoamFile
{
    version     2.0;
    format      ascii;
    arch        "LSB;label=32;scalar=64";
    class       surfaceScalarField;
    location    "1510";
    object      phi;
}
// * * * * * * * * * * * * * * * * * * * * * * * * * * * * * * * * * * * * * //

dimensions      [0 3 -1 0 0 0 0];

oriented        oriented;

internalField   nonuniform List<scalar> 
1171
(
-0.9279397413625496
0.9279397413738476
0.7873884137225973
-1.09900862316363
0.3116202095160364
-0.1926118331426009
-0.7650296705566609
0.9576415035956429
0.07206025008283631
-0.1167511379167648
-0.2120600439968505
0.3288111816168161
-0.7873884037340683
0.06945571427578061
0.7179326894581409
0.8115844773945653
-0.1776950802617438
-0.6338893971869076
0.8744155510016972
-1.04392903458636
0.1695134835800614
-0.2851923719117895
-0.0972661740389537
0.382458545936762
-0.03593285772926953
0.5487246873620741
-0.5127918296223347
-0.5027929236638128
0.8248266090537102
-0.3220336852476777
-0.4019435058626609
1.046034834580682
-0.1716192771307817
0.3941652848435253
0.04772559033368509
-0.4418908756200876
1.046184402282676
-0.0001495666196979689
0.4438412648159202
-0.04967598776931981
1.056868585200171
-0.01068417917109995
0.577908804580345
-0.7705206354591566
-0.7244494535314949
0.5570106512297215
0.1674388022888934
0.220774978050304
-0.7235679039481833
0.550645669920295
-0.9228851149241146
0.3722394449779677
-1.094163280613243
0.6864051258218108
0.4077581547666072
-0.595462241317417
0.5595293778832464
0.01825364593960637
-0.257050476634229
0.2387968309434272
-0.02412064609319392
-0.5211654308065062
0.5452860762788519
0.4002744219011424
-0.4975405937850393
-0.9188231825163633
0.9414234918715093
-0.02260030933022451
1.067504880512485
-0.01063629340387093
0.935006427138709
-1.116784235532815
0.1817778083656235
1.067046572321363
0.0004583102087113922
-0.6644394754511511
-0.06000998610346747
1.262318820270762
-0.8642551526481181
-0.398063667635462
0.1482233919888517
-0.1090414765446087
-0.3264611323352845
0.435502608895139
-0.2857223842296909
0.1909943512400648
0.09472803291766761
-0.5835220206206826
-0.5154866094473657
1.014015168304878
-0.07900874306649118
0.009944953661170344
0.8254428207015289
-0.8353877743351189
0.5718879080423873
0.6904309165778386
0.439683205199238
-0.03015608396685921
0.4304305071159195
-0.8077437831018558
-0.1025349389760272
0.9102787220546074
0.502402568589829
0.2536587533261174
-0.756061321885905
0.005579089471101363
0.5270722288603612
-0.5326513186605419
-0.4898632970040477
-0.6042999790253496
-0.4228417056994737
-0.6939425291509598
-0.02706198097352347
0.270031114134549
-0.2429691330859178
-0.9247275300922151
-0.005093322847205864
0.9298208529626815
0.3085089844641023
0.07394956312052797
0.7622438046437016
0.04934066916190422
-0.5331680932482245
-0.06229415253353073
0.04622683722488791
-0.8539706146328065
0.07486047575103731
0.8630375603403402
-0.9378980360633292
-0.3471461635936227
-0.04158540902400869
0.3887315728536178
-0.6822010947881488
-0.2425264352957181
-0.6321618369811633
0.7070223134306083
0.6107614004203509
0.2140652072592638
-0.542947925648942
0.9459322959886337
-0.7792986215448824
-0.1666336744079355
0.02012382719582845
-0.0187144825843063
-0.001409344276027878
-0.4030920640169587
-0.09444853120330952
-0.241058423210269
0.8518198185040229
0.04623486177011921
0.3356829570438393
-0.381917818753069
-0.4602115956664641
0.962614163141542
0.6802076423419154
-0.782742575974688
0.3203838254650612
-0.01785274222114912
-0.3025310823917912
0.9307108380638145
-0.9307108380594726
-0.7822452818743089
0.1104609593621905
-0.3225210011160845
-0.7500112085323204
0.7599561610050151
-0.08989261853358843
-0.1431919098837658
0.2330845286132208
0.8650107729046489
-0.03956795265421399
1.054185038944351
-0.8005262865674482
0.1860343644384309
-0.3154734444098839
0.1294390798305922
0.8593724259264215
-0.09712862103782605
-0.6118079593249235
-0.03908212070535812
0.6508900800463558
0.1237833132317274
-0.2311636786975796
0.10738036552359
0.8057062709044739
-0.9834013531042715
-0.43548204393553
0.3296967866377192
0.1057852570939901
0.5313461823763925
-0.555466828315735
1.022014717292916
-0.4562087392088161
-0.5658059780557315
0.5991730024280477
-0.719393173918133
0.06687220333084895
0.6525209705412559
0.1033110991612281
0.5702637425855216
0.05514260793270796
-0.6254063505378223
0.1939793164213848
-0.08351835325872252
-0.493213339677199
0.1460671751285398
0.05030155088621443
-0.8867700521553503
0.8364685012539276
-0.4734398342083963
-0.7134763328216891
0.0490368541977505
0.4370478443853258
-0.006617339309383132
0.2998119589529063
-0.8552258396568668
0.5554138807525912
0.4157164762035434
0.5842835237631621
0.5604703593072082
-0.5142435206086563
-0.3666186912779028
0.03503471029376033
0.33158398136494
0.6813771107783808
0.2493337309263905
-0.5655275598868773
0.5711066423034328
0.1105867115738609
0.8751619769314041
0.01017993155360512
-0.6219878954907712
-0.7492840581007745
0.7995856039604614
0.5311816140793529
0.07040223520782124
0.3023208879537054
-0.3727231232390951
-0.1675654825674617
0.4416061483787851
0.08546609972471504
0.8766891742660136
-0.7994456034121419
-0.07724357083278899
0.6353474833936553
0.3105848102065362
-0.4301540483753494
0.5748838649964872
-0.5044816291633525
0.4172284019867104
0.1334172650329798
-0.04685361401465731
-0.5927021320520662
-0.137287312389597
0.7299894444169707
-0.1497600217229677
-0.7809508124358552
-0.6109912624568559
0.3607849686304307
0.2502062938682656
0.6221733029023759
-0.6119933737019708
0.2389185578252704
1.011240040670379
0.04294499498332598
-0.7492840573386857
0.2307471731161796
-0.2106233421094919
0.6802076460385166
0.8019581446398794
-0.8019581446116285
0.8377332137772152
-0.8333048689107171
-0.004428344858003136
-0.4453919469093024
0.8611084222819912
-0.1475018997664866
-0.3457114456792278
0.7346980670203432
-0.6684517553627815
-0.06624631166223312
-0.7318327154732273
0.1391305779775008
0.1386711612314128
-0.6718392577479451
0.7827425816797347
-0.9503080642512607
-0.366792258291656
0.2917117921874099
0.0750804674999784
0.1459719922365109
-1.009656196659708
0.8636842044146557
0.481235031602624
-0.04155182639858004
-0.30818911987574
0.5865084432382991
-0.2783193233878394
-0.7383847393225077
0.8843567334051337
-0.1571253250333636
0.7332113112039254
-0.843150955852456
0.1099396447961681
0.9767190318577024
-0.5414052345028852
-0.4353137973153117
0.7551045333318799
-0.06497725696038822
-0.03227862120692458
0.186968080686703
-0.1546894596922453
-0.7757704892871805
-0.8457985957683278
0.08076892614762766
-0.7500112095378393
0.5138231124731826
-0.5554085243900154
0.0922833321481747
0.7202129762300292
-0.8124963083847445
0.7537124108996107
0.1742273293016257
0.5028847160666189
0.4971152839358147
-0.04964489977278584
-0.6085635356174772
0.6582084350799748
0.8838273538429566
-0.007138178381002073
-0.7551045333336777
0.799585601827547
0.1910329525389874
-0.4480834310790075
0.01995564310386688
0.002505807255212196
-0.02246145034185141
0.5887491747497497
-0.4383410815542133
-0.1504080933189457
0.717932683628714
0.01263475083737994
-0.1125872858872194
0.4370014238949494
0.1517477490328405
-0.01505586198338176
-0.00537720439827014
0.02043306610392082
-0.03241470673049991
0.0001360686767397014
0.2433609942534708
-0.2612137356370842
-0.9590834664790022
0.001583845875590266
-0.1594978646535585
-0.1234312700752308
0.09443307844464151
0.7215557401145082
0.7290576847837137
-0.1447741604451803
0.6656750154381882
-0.5733916847513771
-0.2117237690724783
0.3977581364054193
0.6954397475925712
0.02249293604177081
0.2416461986563519
-1.074951074877963
-0.9503080600628746
0.301891640461907
0.7599561617308612
-0.2086465820684025
0.0654546704266786
-0.7231395874561198
0.9104659505678773
-0.1873263630705319
0.4159126884559934
-0.0271811136196854
0.7714912390445394
0.2806068272086157
0.3722088346280064
0.07163243972010654
-0.6586878694458659
0.6586878694435702
0.2146137930391873
0.6956649348887387
-0.05514113457973661
0.3908241013269635
0.3803614725364838
-0.0157146736796437
0.03567030374090359
0.4493390247549354
0.03189600093864205
-0.7383847386901077
0.5341242939887747
0.2005737678143183
0.3056205848588799
-0.1186524987498721
-0.6954397436584191
0.1802448229809684
0.730221128495527
-0.01014814950456434
-0.8137303575855052
0.8238785070770602
0.6962778058423975
-0.7921136957162054
0.09583588983895214
-0.7537124084513825
-0.1495141350757027
0.2107747088051695
-0.06126057382530089
0.07711488027961684
-0.1800119849742749
-0.1117764991599326
0.2917884837270989
-0.009733117906497918
-0.005322744312148532
0.7064091564036608
-0.7165573051136834
0.8847512794946997
0.07289022713901755
-0.3115978503371922
-0.5199804840116858
0.8315783342590209
0.1025906224626591
-0.1025906229809138
0.3267464877535781
0.4786549073267343
0.6099465155116761
-1.088601422765883
-0.1941501728838939
-0.5856181730390813
0.7797683459171306
0.01219756629609614
0.2208869618356174
0.3772494436473219
-0.2534661311315621
1.01296248952548
-0.5343075807527946
0.6644934592444621
0.9935523684848028
-0.3836058529011401
0.2297475400126268
0.8843567336188647
0.7127374583644412
0.2136744418064051
0.727749051955751
-0.7809508104664782
0.3413121212521888
-0.2790945822720334
0.2481675974031467
0.03092698622887469
0.8507237167953596
-0.0155426867729636
-0.8351810300671972
-0.7020532819982018
0.7025115934775588
0.5546080517688363
-0.7020532811435721
-0.7127374583554791
0.7025115948468321
-0.03418137523620134
0.9036271698459987
-0.01887588975351505
-0.6813771140200527
0.6123191564903592
0.06905795753759063
0.5389040982214865
0.5378079051173035
-1.076712003353469
0.4917798071111367
0.5211826830380929
0.5445821970620245
0.4597108725053757
-1.004293069558418
0.4985476570712115
0.495004712144951
0.612319158421642
-0.525635264592607
-0.4656191297700212
-0.5558843532043221
-0.5189394656090981
-0.122937982612991
-0.01240455957035908
0.01240455954102121
0.5110999046390061
0.5233390658516355
-1.042278531440641
0.5752130861931677
-0.2728921989981692
-0.8846202145882374
0.3432149816082768
-0.632780622194747
0.390254186250485
0.0009676769773979598
-0.8307359740011643
0.8297682970782772
0.4208685635589587
-0.01937825469672818
0.8701019709415834
-0.9437596862073515
-0.8353854276349713
0.05679308583594778
0.7785923418495693
0.5534343006691408
-0.4365138831695973
-0.1169204175969798
0.6499367158161236
-0.7289454571280267
0.8832936253780831
-0.8312998882220782
-0.051993737120137
-0.01004597151418102
-0.7893996306364969
-0.1101359152590375
0.7159941745488654
-0.6058582592919506
-0.9377618851032243
0.9277159126298515
-0.7353575446267366
0.6905115492727653
0.04484599537818829
-0.8045927931754517
0.03355109401507961
0.7710416991583273
0.06163218068954272
0.0409584468858693
0.4332292197083016
0.06046605646122656
-0.8501406974926821
0.7896746410590174
-0.6426349068573971
0.5929900038605973
0.8909904360256186
0.07066889202711939
-0.9616593279856477
0.05560501088880408
-0.04819775052263627
0.3797817265927462
-0.3812343456249263
0.06576089951989154
0.8417837186115514
-0.840816039322559
-0.7317025687474162
-0.8075758765392039
0.01817624632425576
-0.166957390853737
-0.8504427089735407
0.01914282297401095
0.6254179051962836
0.0402571117224779
0.02235933168904289
0.5310749716979961
-0.8092193572189154
0.8427704506109774
0.5658059847601822
-0.8501142242370856
-0.8670929902114273
0.03653417963966315
-0.03957790645146181
0.8366643055477728
-0.7970863990878446
-0.0206744077318623
-0.7712804758365709
0.5443377174705822
0.1519400917707384
-0.02744494815653522
0.8975469203233117
0.9845090012918565
0.8607769839562458
-0.8416341596520927
0.147309059433132
-0.1473090590868883
-0.1184653874480679
-0.4767807868316773
0.04026690640944539
0.2713310963549557
0.03056054410250724
0.3848435675442534
0.8768725124422428
0.003111143153525093
-0.01284425008874322
0.6586187683889251
0.3413812316090921
0.7834915310264274
-0.5835220187814157
-0.7780333542952486
-0.8126290853364462
-0.6799112880280506
0.679911288036355
-0.1678228639021833
-0.1546981312954377
0.6014816647491458
-0.8118376833266913
0.2103560185824358
-0.4937397865678025
-0.5689549691293921
0.2782171497042025
-0.9721596818017217
-0.9006790685047144
0.8486853336324907
-0.8189638939934524
0.8371401390099518
0.6486000858264878
0.1345416569312409
-0.7831417427665601
-0.7677830912886269
-0.1459615035256304
0.7247827200071526
-0.5788212165142
0.02380655530516298
-0.01503233617091349
0.01806827665370547
-0.003035940632465812
-0.3545126945732177
-0.1222680946826846
0.8796988139946289
0.7380081073114274
-0.2404301970137818
-0.4975779105423828
0.621087690724023
0.6853117486393511
-0.4706979539007516
-0.000781407108008789
-0.2849409776191232
0.0232432790952433
0.7438488530657535
-0.7670921320981837
-0.3235595970151453
-0.07152825480783803
0.07548203732732892
-0.9618832111699419
0.1267021822395836
-0.6772960270366242
0.05269648743440709
0.6411758104542592
-0.6938722979308329
-0.7569917363649925
0.07969570934388334
0.5888923167154514
-0.6604205715071108
0.156002630352358
-0.3360146128539837
-0.7717522510748753
0.00396915975364907
0.3712451267989286
0.6012971241598658
-0.02641325985566785
0.02440541297918125
-0.02440541253846779
-0.01778174987184156
-0.05271774444638012
-0.2263768368791116
0.01889539335188746
-0.01578427098090471
-0.7314951424717111
0.2793925935801995
0.6789341807844348
-0.6905164818245755
0.01158230103927951
-0.5984312808901053
0.6511277694348986
0.6534970200129222
-0.06460470207646996
-0.6317116524023809
-0.1252800824349419
-1.049624139281409
0.01121412102336177
0.1360949346502363
-0.7082518668523264
-0.7418475685194377
-0.7634963526484376
0.365432689177245
-0.4116949402036216
0.4709224566163898
-0.0592275159629123
-0.6787154411598405
-0.02953642571114271
0.5002215022673516
0.7306790092238147
-0.2331593357359556
0.1097280650361219
0.9579140542827472
0.4456859294384267
0.1337469082218456
-0.5794328376810252
-0.6784836547503997
-0.0002317848245330964
-0.04447397599949441
0.02944162379379147
0.6375126001259215
-0.7747999142479784
-0.002830570229359121
0.002830570602846343
-0.6001633499612586
0.6486449652948025
-0.04848161545086225
-0.6561243218070427
-0.1135596361650456
-0.6717811507786559
0.04898233225524379
0.6092261053817118
-0.1373165617318133
-0.8177426578670787
-0.5555710979657
0.568961328968809
-0.01339023171712785
0.6342970825500752
-0.6227147803759117
0.3221958156611649
0.2140407578803651
-0.5362365735295653
-0.1043349725494131
-0.6029789753954362
-0.09089332196697957
-0.1544774208658982
-0.5065887763999979
0.4042767634400242
-0.4987252945620425
0.1261549575699394
0.6784990937137115
-0.804654051231338
0.5991730024294478
-0.37401978548106
-0.03767516336700068
0.06457148005297081
-0.5711602580407447
0.5517779435247894
-0.04031655960035439
-0.5114613838690159
-0.3122073016561573
0.304796543690316
0.007410757624601974
0.451947840675251
0.1232652481054342
0.05051804080534824
-0.3157613485708217
0.1566773907513624
0.1590839577698465
0.2494049060796723
-0.01865774477289645
-0.2972707552988058
-0.3139763977308619
0.367902922070977
-0.05392652541463259
0.791195637737315
-0.6292742803411406
-0.02685004162401281
0.4995193854075769
0.2823642521264757
-0.5227944456153766
0.5774629992181836
-0.5774629992177092
-0.289779698694878
-0.5865063488208918
-0.2955187277522118
-0.5865063486804989
-0.5962266364038121
-0.8384965128575055
0.1700447540908593
-0.5890073851329416
0.8212216419807125
-0.003630579999786341
0.1198159353870619
0.4814811887795267
0.09668562733776861
0.185214723933086
-0.03612382586186848
-0.1490908977327661
-0.0200460438925658
0.5930561917933665
-0.944709192870697
0.4247287108590412
0.0001308909623390082
0.0002905353648090157
-0.0004214257734237942
-0.6434259180159233
-0.1319123921678831
-0.4654331498287084
0.5991800603067169
-0.5037491502176971
-0.3160171139822572
-0.2551431572783711
-0.2719705410628027
-0.1120025993413084
0.1120025989666595
0.1530255280944689
0.05774917125877271
0.1964288374446961
0.452264716248833
-0.5717637725392286
0.1063306223575471
0.2482984933471415
0.4661236148916638
0.5338763851336569
0.643508054256263
0.08053451116846662
0.001950346183894326
-0.08248485604569894
-0.2768639575210186
-0.5408787004091313
-0.5463171585815969
0.114127803736156
-0.1260928958578113
0.01196509207285398
-0.1060278695873191
-0.386028003574421
-0.04507676903895003
0.654302867609564
-0.4989928632599249
-0.1444330547408961
-0.334731581638102
0.2899059237154383
0.1241311808311509
-0.6029281127473645
-0.2039466997845609
-0.2617845315030558
0.000570795815585103
-0.4215072303556509
0.3216921019913084
0.09981512848955174
-0.08927082201309765
0.29162018552355
-0.8959201657476419
-0.4579675583467734
0.6342568242960455
-0.7729321642248953
0.6685971916678835
0.3426263566152516
-0.1265244517550363
0.2257916632672991
-0.09926721151421351
0.02841298980831164
-0.586204152147769
0.02923144539534627
0.5569727067246731
-0.9007237555944865
0.5468496647552032
-0.6653150521547515
-0.09602385838124144
0.1089389073799914
-0.10893890746118
-0.3165427527202627
0.3634354192699223
0.01634631281636514
0.02321629420254343
0.05731819598887875
0.5047683547781942
0.6638727104439963
-0.7411162802529757
0.02572209266204833
0.02253214801749205
0.001873265204184488
-0.006480324384608965
0.006480324164930193
-0.4134764051214214
0.5367416530503952
0.01523378063777114
-0.01523378062304553
-0.792350564549303
-0.05988564143359185
0.1215178236369496
-0.4514736961530322
0.5578043184139219
0.4494684613871735
-0.4979500792251702
0.1497475420793031
-0.1497475416491499
0.04248051990332245
-0.006810218295596341
-0.04089757816916458
-0.977370823796437
0.5420570283233276
-0.4727039151679641
0.04095844660275751
0.5145694169819933
0.03085647592251447
-0.5454258929480427
-0.6158886574797126
0.1168957954849754
-0.3298026224546267
0.01349779155456136
0.3163048311248784
-0.1535963358279785
-0.07956300104078583
-0.5407494088986049
-0.04545473849775963
0.1360949358306008
-0.04155573582050395
0.03872517153841033
0.08195333534768606
-0.08195333490614476
-0.5375326648398493
0.4836061469933132
-0.414399873157784
0.1613264516226325
0.6221650794070667
-0.09795164521630877
-0.006337135537138026
0.006337135072010552
0.5329958185046897
-0.0718531377719553
0.006348282944546439
0.02715603268337463
0.03447813106051325
0.688365129768936
-0.7602182676017046
-0.6626698106807234
0.6358197667561839
-0.1092685126271666
0.312868118954492
0.7460359297775199
-0.0177817500224775
-0.2667069778920548
0.1480544784788574
-0.7446723975543027
0.4842564022565081
-0.4221005453653972
-0.1013192333961061
0.003588314444222045
-0.01466726722202261
0.02084573613642007
0.4122574728709121
-0.1217005148806804
-0.3897608649730665
0.6290292339127912
0.0188848615562093
0.009981130358503707
-0.00998113010548644
-0.357673473577067
-0.08526794955635358
-0.5606438237733206
0.5570132437228087
-0.2383009479545305
0.4648079268745863
-0.1507533584116052
0.7286621636850712
0.6727519016619588
-0.04155574231176248
-0.6151025278526757
0.560164615755429
0.286522467013284
-0.284075513124349
-0.002446952687742757
0.5465489396583909
0.0934049404013685
-0.03877440170815403
0.1972191096624971
-0.1584447078735156
0.1207277588902054
-0.1207277588922449
-0.858734667380293
0.002438481675690968
-0.1129104860851194
0.1400665187431263
-0.1320123675236289
0.1320123670690484
0.02253213568660252
-0.02411888522589234
0.6713025472895542
0.05891858261991964
-0.3231893079110194
-0.06283869539664091
-0.4712654943293765
-0.04820912236735278
-0.1518018106272943
0.1518018101285164
-0.04000434187449475
0.1431942407401642
-0.1431942402215515
0.1369404787149407
-0.1369404789364192
-0.3156437166391704
-0.1145103317145162
0.2266437749289567
0.1030530075366647
0.03485615903762471
-0.8211539924855148
-0.1972022024708603
0.1703481747065581
0.02068477552997937
-0.2655045991055718
0.1257284893702967
-0.1257284889129671
-0.4140720234176818
-0.08465327200333235
0.2365853479927453
0.002211480212236037
0.04039760157635637
-0.5435247723341999
0.5777061475888805
-0.02301491098525541
-0.01698942964844991
-0.02778684285754611
0.02097661782193688
0.006553295703879445
-0.1841773935232883
0.1776240979226064
-0.1076340407002511
-0.2283805786570845
-0.1448682151324591
0.1448682146096714
0.07292845490629782
-0.07292845521984992
-0.01944646881141071
-0.1087076540479151
0.1281541230232758
0.2402299293943236
-0.1827682171562953
-0.02268614099207712
0.02455940438551856
-0.1362398530003026
0.6198459977413008
-0.03907414296594228
0.4215644607956219
-0.04123283817670149
0.06166590167679926
-0.1536314230751866
0.1536314226223039
-0.6360835981520058
0.3089767924955021
-0.07922925191248621
-0.2347762982283676
0.00361262578064878
-0.1228000013671448
0.1631976030221676
0.1940212715771488
0.09776721113686732
0.09473537852363746
-0.06025724773987993
0.07257171331399433
0.04155608951866238
0.06385200097426026
0.10649617532294
-0.09645522158405308
0.2061833001554435
0.01281166687730172
-0.1122394776853338
-0.1026555509315813
0.09783758296188134
0.004817968474759162
0.01255101051040695
-0.02234797449359733
0.03781450171577803
-0.03781450177310614
0.07441910789047991
-0.05478491423477429
0.05478491418779787
-0.2245569445373619
-0.05057357732220244
0.01154682308342322
-0.1031588529976288
0.01621273129463483
0.1083060888689863
-0.1083060886004193
0.2938364004283879
-0.2715158823257591
0.1638818421945725
-0.05039925272484008
-0.2211166286289922
-0.01750950324391242
0.01750950339202983
0.367255901224722
0.2852650696974652
-0.5273674841091118
-0.0939879421859538
-0.03210495807297603
0.5285823541737632
0.2124430960895436
-0.1689397711546209
-0.382160706848695
0.07654924441513923
-0.1478399899397553
0.1874300022576144
-0.03959001248474622
-0.06675000381818182
0.0667500040452521
0.8225851741982501
-0.5606015608964928
-0.002234055715103893
0.01478506711083932
-0.02000979120739728
-0.286610531719018
-0.01746574714897579
-0.01285584966529588
-0.1317475349775519
-0.5720171861853854
0.5559187642551973
-0.5688772940113674
-0.006933616013217805
0.1012299842762438
-0.001829603193643928
0.01669092836038254
-0.1678497901530301
-0.3366896638774677
0.2335308109651694
-0.0545604330740095
0.0351139598682067
0.1318215286151407
0.1729750205302066
0.3366344445245797
0.2768039074015192
-0.2786335103828005
-0.06393039251492487
-0.1547890006559377
-0.2212785175261922
0.07486542753283253
-0.01101342449982812
0.2142655949082344
-0.1975746664905365
-0.08624549965388123
0.1588172120707863
-0.3548365373054735
0.2088439559100435
-0.1926312247450671
0.08965849973819051
-0.4794193636457078
0.1745741494869281
0.1698448751909205
-0.2560903736852838
0.07238740504154763
-0.1942323766566499
0.1767666294789781
0.01742239725005447
0.1413948120100724
-0.03955114017382673
0.06633646083369255
0.4666593576649825
0.02030499770795467
-0.07573266542486429
0.05685189225601772
0.1253992522177042
-0.260868545194687
-0.2309044109120227
0.559698251147592
0.1578155399236371
0.07876981051673719
0.07584398812566648
-0.03097168308870722
-0.004277743284324541
0.001830793462553923
-0.03274328010117453
0.1712531561059923
-0.1781867720441218
-0.05488692913094445
0.02232534262680339
-0.1466524203328881
-0.05283756222279145
0.1512963524668654
0.2770945575088238
-0.03953435042431378
0.01669888223645835
-0.2555616958053769
-0.1301365780178507
0.2356057796828029
0.1793019577433466
0.1296748293328555
0.02163436497850666
0.08907998318832798
0.05198017221619651
0.4527881825821297
0.0176296524674394
0.09700640813005722
0.04375670312822385
0.07165610330089837
-0.1154128067051387
-0.2421024124540918
-0.2009363147532501
-0.02018031494366533
-0.2023248088939575
0.2757420080672675
)
;

boundaryField
{
    FrontBack
    {
        type            empty;
    }
    Top
    {
        type            calculated;
        value           uniform 0;
    }
    In
    {
        type            calculated;
        value           uniform -1;
    }
    Bottom
    {
        type            calculated;
        value           uniform 0;
    }
    Out
    {
        type            calculated;
        value           nonuniform List<scalar> 10(1.036362004121674 1.064539362710698 1.021503482976858 1.019730340138006 0.9975187779153639 1.013944177870018 1.034438970828328 1.062694755720574 0.867242697873145 0.8820250765550556);
    }
    circle
    {
        type            calculated;
        value           uniform 0;
    }
}


// ************************************************************************* //
