/*--------------------------------*- C++ -*----------------------------------*\
| =========                 |                                                 |
| \\      /  F ield         | OpenFOAM: The Open Source CFD Toolbox           |
|  \\    /   O peration     | Version:  2412                                  |
|   \\  /    A nd           | Website:  www.openfoam.com                      |
|    \\/     M anipulation  |                                                 |
\*---------------------------------------------------------------------------*/
FoamFile
{
    version     2.0;
    format      ascii;
    arch        "LSB;label=32;scalar=64";
    class       surfaceScalarField;
    location    "23.3";
    object      phi;
}
// * * * * * * * * * * * * * * * * * * * * * * * * * * * * * * * * * * * * * //

dimensions      [0 3 -1 0 0 0 0];

oriented        oriented;

internalField   nonuniform List<scalar> 
1171
(
-0.945776
0.945776
0.780588
-1.08746
0.306875
-0.298259
-0.797211
1.09547
0.0542242
-0.0646902
-0.275089
0.339779
-0.780588
0.0844157
0.696172
0.929387
-0.20156
-0.727827
0.83476
-1.03805
0.203292
-0.354637
-0.0347067
0.389343
0.00205149
0.601315
-0.603366
-0.551147
1.00645
-0.455302
-0.419327
1.00667
-0.171913
0.256669
0.0911164
-0.347785
0.988166
0.0185068
0.306591
-0.0499228
1.01971
-0.0315475
0.699356
-0.997615
-0.790536
0.616581
0.173955
0.329072
-0.880219
0.561041
-0.915628
0.354587
-1.08061
0.670673
0.409938
-0.643094
0.645146
0.0350019
-0.254635
0.219633
0.0225117
-0.642224
0.619713
0.46707
-0.501777
-0.839054
0.889449
-0.0503945
1.00181
0.0179049
0.921773
-1.07518
0.153408
1.03202
-0.0302108
-0.699187
-0.0913487
1.24984
-0.859015
-0.39083
0.192965
-0.0686468
-0.415293
0.483939
-0.274143
0.183016
0.0911264
-0.603928
-0.483535
0.975688
-0.0539147
-0.0208341
0.871619
-0.850785
0.501109
0.748736
0.532668
0.0271111
0.439959
-0.788328
-0.106419
0.894747
0.6031
0.232799
-0.835898
0.0159096
0.62792
-0.64383
-0.509817
-0.570795
-0.38914
-0.686042
0.028721
0.243408
-0.272129
-0.948525
-0.0350099
0.983535
0.372606
0.016737
0.862339
0.0670481
-0.605132
-0.0379624
0.0379058
-0.826234
0.158157
0.924726
-1.08288
-0.407646
0.0268533
0.380793
-0.717542
-0.230983
-0.745883
0.90404
0.630573
0.375875
-0.576255
1.00184
-0.824074
-0.177769
-0.0165604
-0.0852229
0.101783
-0.458185
-0.0435926
-0.328937
0.959511
-0.0169438
0.438102
-0.421158
-0.501422
1.10452
0.712709
-0.819128
0.383169
-0.0718518
-0.311318
0.75835
-0.75835
-0.956724
0.0393691
-0.314458
-0.695165
0.674331
-0.0320946
-0.142227
0.174322
0.886149
-0.01453
1.04992
-0.817122
0.222562
-0.318546
0.095984
0.993978
-0.131639
-0.679137
-0.0548133
0.73395
0.150336
-0.232818
0.0824827
0.809437
-1.011
-0.4445
0.311304
0.133196
0.669564
-0.647052
0.877408
-0.39731
-0.480097
0.488268
-0.694444
0.0370996
0.657345
0.158079
0.675189
0.04094
-0.716129
0.133637
-0.094268
-0.514649
0.107003
0.0373812
-0.908709
0.871327
-0.551108
-0.762676
0.0634895
0.49831
-0.0583504
0.27428
-0.832451
0.558171
0.42452
0.57548
0.599267
-0.561361
-0.366226
-0.0257264
0.391952
0.533836
0.224514
-0.672028
0.687938
0.0830172
0.893853
0.00619335
-0.68533
-0.766744
0.804125
0.620376
0.125311
0.344609
-0.46992
-0.15556
0.530304
0.0976156
0.789561
-0.793068
0.00350731
0.658894
0.342949
-0.429464
0.720681
-0.59537
0.409498
0.151543
-0.0586477
-0.631803
-0.2156
0.847404
-0.116673
-0.641676
-0.61294
0.364476
0.248464
0.663997
-0.657803
0.307684
1.03898
0.010943
-0.766744
-0.104035
0.0874742
0.712709
0.788823
-0.788823
0.845219
-0.832007
-0.0132119
-0.454517
0.879036
-0.194355
-0.320293
0.762842
-0.668369
-0.0944733
-0.882906
0.251103
0.105831
-0.710963
0.819128
-0.974689
-0.17496
0.158512
0.0164483
0.112645
-0.992768
0.880123
0.544291
-0.0116227
-0.289704
0.596031
-0.306328
-0.652207
0.764852
-0.160078
0.76072
-0.755166
-0.00555372
1.13912
-0.639945
-0.499176
0.730175
-0.0687491
-0.0159402
0.0152059
0.000734306
-0.800639
-0.855046
0.0578347
-0.695165
0.577356
-0.550503
0.0442426
0.66462
-0.708863
0.779956
0.16582
0.491496
0.508504
-0.0682971
-0.651048
0.719345
0.799179
-0.00961809
-0.730175
0.804125
0.179238
-0.433873
-0.0144534
-0.00528889
0.0197423
0.678887
-0.438061
-0.240826
0.696172
-0.0241168
-0.0943262
0.561726
0.11716
-0.00911737
0.00211339
0.00700399
0.00264684
-0.018587
0.129785
-0.201637
-0.9489
0.04621
-0.144775
-0.045175
0.13275
0.775584
0.743029
-0.167549
0.399058
-0.354815
-0.162859
0.38542
0.641264
0.0549087
0.228172
-1.06018
-0.974689
0.314256
0.674331
-0.159206
0.0169787
-0.821794
0.986365
-0.164571
0.48594
-0.105148
0.802578
0.305556
0.290383
0.0162079
-0.68086
0.68086
0.225358
0.669389
-0.00954981
0.447652
0.47439
0.0275652
-0.0420187
0.55443
-0.0101389
-0.652207
0.572467
0.190375
0.00665105
0.00855484
-0.641264
0.157929
0.828436
0.0210081
-0.712874
0.691866
0.759977
-0.822545
0.0625682
-0.779956
-0.0339171
0.0465071
-0.01259
0.0843718
-0.122292
-0.106134
0.228426
-0.00750376
-0.00161361
0.753073
-0.732064
0.915437
0.180033
-0.426349
-0.53892
0.965268
-0.000964826
0.000964826
0.132785
0.415275
0.651308
-1.06658
-0.194234
-0.557919
0.752153
-0.0183734
0.192695
0.384653
-0.234317
1.10707
-0.691797
0.79494
0.955783
-0.304476
0.190298
0.764852
0.592939
0.252815
0.636633
-0.641676
0.31914
-0.00062482
-0.0164334
0.0170582
0.856724
0.081348
-0.938072
-0.561391
0.53118
0.545483
-0.561391
-0.592939
0.53118
-0.00246461
1.0477
-0.132266
-0.533836
0.452312
0.0815235
0.510495
0.667046
-1.17754
0.469551
0.637521
0.700424
0.477087
-1.17751
0.39951
0.556273
0.452312
-0.52122
-0.542536
-0.663952
-0.453413
-0.0905456
-0.00427649
0.00427649
0.596586
0.582761
-1.03617
0.724315
-0.379707
-1.03207
0.392127
-0.691665
0.460682
0.000157937
-0.936636
0.936478
0.453326
-0.0288872
0.885611
-1.17223
-0.984757
0.0827013
0.902055
0.375042
-0.111509
-0.263533
0.767284
-0.821199
1.06165
-0.973568
-0.0880827
-0.0748729
-0.718195
-0.137896
0.819556
-0.68166
-1.04244
0.967564
-0.517212
0.632835
-0.115622
-0.851365
0.143285
0.70808
0.00361363
-0.00457846
0.425823
0.11058
-1.0005
0.889917
-0.76977
0.701473
1.00383
0.154744
-1.15857
0.0190729
0.00814322
0.383809
-0.358827
0.0402816
0.932625
-0.932467
-0.671332
-0.868091
0.149896
-0.120743
-1.00503
0.0314612
0.522766
-0.123709
0.17093
0.204112
-0.537438
0.680723
0.480097
-0.965523
-0.887692
0.160011
-0.0193379
0.579838
-0.5605
-0.0685519
-0.69067
0.579352
0.180625
-0.0423997
0.928011
1.05026
0.982593
-0.951131
0.0457398
-0.0457398
-0.0853258
-0.282449
0.170941
0.338141
-0.0238847
0.266267
0.859459
-0.00363576
-0.003868
0.658323
0.341677
0.797052
-0.603928
-0.762214
-0.479152
-0.480786
0.480786
-0.206494
-0.107964
0.684577
-0.961717
0.27714
-0.481247
-0.544949
0.351652
-1.03769
-0.975756
0.887673
-0.564426
0.714322
0.682852
0.180358
-0.86321
-0.594774
-0.172565
0.840103
-0.667539
0.116297
-0.00391872
0.00325049
0.000668229
-0.0534715
-0.228978
1.03623
0.716113
-0.402807
-0.313306
0.45258
0.744612
-0.519254
0.0110476
-0.28519
0.13283
0.758384
-0.891214
-0.354842
-0.0818319
0.139295
-1.00939
0.0713217
-0.781359
0.0629323
0.761397
-0.82433
-0.86715
0.0857917
0.697278
-0.77911
0.236419
-0.358712
-0.469909
-0.124865
0.36922
0.742861
-0.0221801
0.00331482
-0.00331482
-0.0021631
0.0240339
-0.0246588
-0.0161171
0.0124814
-0.593617
0.328229
0.798644
-0.828445
0.0298013
-0.706631
0.769563
0.773521
-0.0762428
-0.706591
-0.160559
-1.1452
0.0205963
0.0251436
-0.460787
-0.844487
-0.866995
0.476165
-0.161238
0.149001
0.0122372
-0.450926
-0.00986105
0.494703
0.712547
-0.0388383
-0.00633665
1.13426
0.511823
0.215491
-0.727314
-0.421161
-0.0297651
-0.00775975
0.00384103
0.693381
-0.908981
0.0060629
-0.0060629
-0.726784
0.717522
0.00926131
-0.250231
-0.0997111
-0.704122
0.108846
0.610498
-0.0522905
-0.876686
-0.139726
0.0852449
0.0544809
0.787604
-0.757802
0.348716
0.2646
-0.613316
-0.151106
-0.712054
-0.112276
-0.214961
-0.0308795
0.470424
-0.514017
0.191459
0.728426
-0.919885
0.488268
-0.107256
-0.0539821
0.176857
-0.207736
0.597752
-0.095328
-0.502424
-0.283396
0.30381
-0.0204142
0.611754
0.112561
0.061467
-0.310123
0.167911
0.142212
-0.193751
0.0897164
-0.273471
0.0168944
-0.00100938
-0.015885
0.866261
-0.272562
0.0223315
0.553797
0.258277
-0.661084
0.402024
-0.402024
-0.197206
-0.38533
-0.21087
-0.38533
-0.682409
-0.850181
0.181812
-0.101622
0.725623
0.0472492
0.147044
0.595817
0.108781
0.117185
0.010102
-0.127287
-0.0163771
0.72901
-1.02638
0.487461
-0.0170588
0.0729795
-0.0559207
-0.743781
-0.175919
-0.600942
0.816433
-0.534981
-0.0030546
-0.204682
-0.335202
-0.0811889
0.0811889
0.0438353
0.00267181
0.137781
0.238718
-0.758798
0.157856
-0.0334922
0.471432
0.528568
0.76294
0.0277688
0.00243995
-0.0302088
-0.294636
-0.582051
-0.562142
0.11258
-0.117699
0.00511933
-0.130017
-0.415621
-0.0563087
0.666807
-0.58122
-0.162561
-0.0882774
0.0342163
0.165744
-0.364676
-0.196392
-0.181914
-0.0197225
-0.481534
0.433948
0.0475861
-0.0926151
0.293829
-0.864623
-0.542175
0.65043
-0.861176
0.71007
0.455795
-0.0304779
0.0560482
-0.0255702
0.0117608
-0.635786
-0.00409912
0.639886
-0.894359
0.642896
-0.728222
-0.138708
0.00718272
-0.00718272
-0.299076
0.426396
-0.0425871
0.0161411
0.0116278
0.598196
0.579121
-0.575614
0.0108522
0.00557536
-0.00226054
0.00416891
-0.00416891
-0.509052
0.621613
0.0135697
-0.0135697
-0.778171
-0.00874101
0.0123546
-0.538134
0.695991
0.624629
-0.615367
0.0685505
-0.0685505
-0.0234055
-0.0186132
0.0107809
-1.04065
0.541471
-0.496815
-0.00457846
0.601034
0.0112983
-0.612333
-0.7086
0.12738
-0.317196
-0.0139938
0.33119
-0.0241128
-0.0147256
-0.606585
-0.0292014
0.0251436
0.00574858
0.000314313
-0.00327752
0.00327752
-0.322197
0.306312
-0.459203
0.134628
0.662424
-0.131497
-6.43218e-05
6.43218e-05
0.508531
-0.160564
0.00814754
0.0179608
-0.00040955
0.543119
-0.703683
-0.662191
0.684522
-0.0704191
0.324421
0.767809
-0.0021631
-0.0925145
0.101069
-0.631351
0.556181
-0.325425
-0.107566
-0.0272326
-0.0255688
-0.0136772
0.464251
-0.0855896
-0.416834
0.69554
0.000107577
0.00626371
-0.00626371
-0.149844
-0.0834788
-0.57301
0.620259
-0.136612
0.510442
-0.21503
0.914386
0.814802
0.00574858
-0.814675
0.720475
0.0498199
-0.0494659
-0.000354029
0.591907
0.095456
-0.0120141
0.0662709
-0.0542567
0.00873662
-0.00873662
-0.742154
0.0228107
-0.0435133
0.0614741
-0.086779
0.086779
0.00557536
-0.00222742
0.729175
0.0992614
-0.318749
-0.0968725
-0.520588
-0.0384575
-0.0668908
0.0668908
-0.0536143
0.0805225
-0.0805225
0.0264812
-0.0264812
-0.355131
-0.0743325
0.241916
0.0693878
0.0502883
-0.732089
-0.0610316
0.161534
0.0177041
-0.245114
0.0803472
-0.0803472
-0.466654
-0.0473632
0.23198
-0.0123464
0.00247106
-0.65173
0.654195
-0.00270391
-0.0509104
0.0489645
-0.0675777
-0.011972
-0.155678
0.16765
-0.150987
-0.207725
-0.0816408
0.0816408
0.0554457
-0.0554457
-0.0298104
-0.0942449
0.124055
-0.0157065
-0.187412
-0.0115204
0.00925985
-0.235973
0.542284
-0.0257432
0.460018
0.00642216
0.000581823
-0.0510567
0.0510567
-0.732321
0.319089
-0.128791
-0.209333
-0.0234851
-0.0166459
0.019117
0.19913
0.0292965
-0.000644886
0.000235335
0.0829401
0.0296396
0.0549424
0.106591
-0.00689429
0.00055764
0.00020081
0.00558708
0.00613896
0.00643549
-0.0125745
-0.000688348
0.00652974
0.0284026
-0.0284026
0.049625
-0.0416022
0.0416022
-0.190916
0.0061689
0.0275529
-0.0752798
0.0177446
0.0763612
-0.0763612
0.246716
-0.237974
0.0869867
-0.0674091
-0.170565
-0.016639
0.016639
0.406359
0.250986
-0.51799
-0.0807846
-0.0369145
0.540986
0.033258
-0.063218
-0.450126
0.0942724
-0.15415
0.170762
-0.0166121
-0.0467216
0.0467216
0.862081
-0.593026
-0.0104151
0.0097268
-0.0055901
-0.283883
-0.000175355
0.00513816
-0.0440528
-0.62682
0.567951
-0.674164
0.01475
0.201066
0.0158341
0.0245755
-0.15974
-0.33575
0.26047
-0.0568535
0.0270431
0.170592
0.133218
0.227809
0.265482
-0.249648
0.00645327
-0.113291
-0.223327
0.0686171
-0.0136747
0.161267
-0.136691
-0.068464
0.151404
-0.409564
0.121666
-0.103921
0.0582789
-0.475113
0.1759
0.17598
-0.244444
0.00588485
-0.176267
0.176092
0.00398593
0.147418
-0.0280325
0.0506116
0.45792
0.0117636
0.02133
-0.00716979
0.0359053
-0.239939
-0.202554
0.590563
0.170551
0.0614282
0.0792858
-0.0631734
0.0455086
-0.0458626
-0.0302087
0.167165
-0.152415
0.00765285
-0.0011553
-0.104476
-0.0288492
0.00821049
0.251844
0.00566928
-0.0220691
-0.312872
-0.00855666
0.216261
0.140324
0.178765
0.0573454
0.0983121
0.0571349
0.541061
-0.0123736
0.102232
0.0438834
0.064947
-0.10883
-0.267004
-0.197669
0.0271047
-0.223269
0.285768
)
;

boundaryField
{
    FrontBack
    {
        type            empty;
    }
    Top
    {
        type            calculated;
        value           uniform 0;
    }
    In
    {
        type            calculated;
        value           uniform -1;
    }
    Bottom
    {
        type            calculated;
        value           uniform 0;
    }
    Out
    {
        type            calculated;
        value           nonuniform List<scalar> 10(1.16997 1.03171 1.20649 1.03703 1.14413 1.00969 1.17935 1.0262 0.59923 0.5962);
    }
    circle
    {
        type            calculated;
        value           uniform 0;
    }
}


// ************************************************************************* //
