/*--------------------------------*- C++ -*----------------------------------*\
| =========                 |                                                 |
| \\      /  F ield         | OpenFOAM: The Open Source CFD Toolbox           |
|  \\    /   O peration     | Version:  2412                                  |
|   \\  /    A nd           | Website:  www.openfoam.com                      |
|    \\/     M anipulation  |                                                 |
\*---------------------------------------------------------------------------*/
FoamFile
{
    version     2.0;
    format      ascii;
    arch        "LSB;label=32;scalar=64";
    class       volVectorField;
    location    "17.1";
    object      U;
}
// * * * * * * * * * * * * * * * * * * * * * * * * * * * * * * * * * * * * * //

dimensions      [0 1 -1 0 0 0 0];

internalField   nonuniform List<vector> 
808
(
(0.891807 -0.0111536 0)
(1.02508 -0.0347322 0)
(1.21021 0.0624857 0)
(1.07065 0.0100215 -2.36783e-21)
(1.46696 -0.295736 0)
(0.961353 -0.0302506 0)
(1.14538 -0.0485834 3.34953e-22)
(1.10601 -0.0306687 0)
(1.34169 -0.232719 2.18887e-20)
(1.232 -0.100184 -6.72895e-21)
(1.20335 -0.109748 3.81862e-21)
(1.36977 -0.264213 0)
(0.996051 -0.0371883 0)
(0.740417 -0.0243667 0)
(0.978086 0.034455 2.07421e-20)
(1.07508 -0.026818 0)
(0.871787 0.0410984 -6.78647e-21)
(0.994417 -0.0322039 -3.5099e-23)
(1.24688 0.0603345 0)
(1.12371 -0.000337077 0)
(1.25749 -0.105565 -5.32954e-21)
(0.929207 0.125517 1.08764e-19)
(1.07478 0.0118359 -1.05861e-20)
(1.18086 -0.0440162 0)
(0.953734 0.188372 0)
(1.3173 0.0373942 -3.40446e-20)
(1.27513 -0.185683 5.77968e-21)
(0.965189 -0.0191014 -5.80971e-22)
(1.07529 -0.0229761 0)
(1.04024 0.0450831 -1.84304e-22)
(0.989773 -0.0237628 1.05748e-24)
(1.12809 -0.0182958 0)
(1.02101 0.0436923 0)
(1.07062 -0.0172513 5.45867e-22)
(1.30348 -0.092287 7.80733e-21)
(0.741225 -0.109592 1.1159e-19)
(0.873614 -0.0283962 -1.66453e-21)
(1.01209 0.0412994 6.29365e-22)
(1.1876 0.0447636 -1.04016e-21)
(1.07436 0.0307128 0)
(1.26528 -0.0832436 -1.5277e-20)
(1.27465 -0.143099 0)
(1.00536 0.00039171 -5.13764e-21)
(1.12137 -0.0526701 3.62674e-21)
(1.19879 -0.0638829 0)
(1.01074 0.0169745 -1.70922e-20)
(0.990016 0.0360406 8.3966e-22)
(1.24792 -0.256366 1.41588e-22)
(1.17197 0.0550101 -1.08724e-21)
(1.3962 -0.196657 -3.16211e-20)
(1.14323 -0.0521133 -2.38061e-22)
(1.15099 -0.0777505 0)
(1.12001 -0.00375054 4.57455e-21)
(1.12618 -0.024761 0)
(1.32472 0.228438 5.5191e-21)
(1.06624 0.0487052 -3.59328e-22)
(1.14838 -0.0365853 0)
(1.16228 -0.102223 2.80194e-21)
(1.23473 -0.105431 7.22299e-21)
(1.14635 0.0398218 8.35224e-22)
(-0.191308 -0.08272 0)
(1.21303 -0.216595 -4.74917e-21)
(1.14615 -0.0706982 0)
(1.42679 -0.117178 -2.58451e-20)
(1.13004 -0.0593066 -4.66289e-21)
(1.04009 -0.0303772 -5.28374e-21)
(1.30977 -0.145819 2.47651e-20)
(0.62339 0.0171693 0)
(1.14603 -0.0771258 0)
(1.42454 -0.356204 0)
(0.885027 0.0287216 -1.09811e-22)
(1.21893 -0.148214 -3.7014e-20)
(1.00067 0.0463839 0)
(1.05318 -0.0494236 -1.38609e-21)
(1.11759 -0.334739 -5.85305e-20)
(1.14311 -0.0581878 -1.67697e-21)
(1.1537 0.0250167 6.79957e-22)
(1.32438 0.497264 2.5172e-20)
(1.11638 -0.0417075 0)
(1.01592 0.285597 -1.78783e-19)
(1.3484 0.0141441 1.92535e-20)
(0.728686 0.0226147 0)
(0.841981 0.0344195 -5.74684e-21)
(0.967501 -0.10871 4.30432e-21)
(1.12962 -0.0576711 1.2343e-21)
(1.20169 0.00947909 1.84885e-21)
(1.26322 -0.23885 0)
(1.35192 0.285393 0)
(1.09406 -0.00174844 -7.86586e-21)
(1.41824 0.0761021 3.72921e-20)
(1.08185 -0.0222465 1.05909e-20)
(1.31646 -0.136986 -1.26823e-21)
(0.965398 0.026852 1.63352e-20)
(1.00432 -0.0238314 0)
(1.1161 0.0162216 1.0514e-21)
(1.25124 -0.107869 -6.5032e-20)
(0.75654 0.0213094 -1.05113e-21)
(1.33978 -0.0590095 0)
(1.32555 -0.106965 0)
(1.40468 -0.113268 -3.91477e-20)
(1.10927 -0.0494258 -5.58713e-22)
(1.13206 0.00764469 5.71634e-23)
(0.954651 0.0242061 8.82072e-21)
(1.19562 0.00315208 -7.99423e-22)
(1.3465 0.0133486 -2.66274e-20)
(0.999984 0.00637544 1.05228e-20)
(1.45467 -0.0462433 0)
(0.894325 0.0399904 0)
(1.09586 0.0339267 5.87665e-22)
(1.19704 -0.223879 -8.24805e-21)
(1.29256 -0.00144075 1.41667e-20)
(1.04901 0.0486996 -1.20131e-19)
(1.15717 0.042207 -1.48457e-22)
(1.14563 0.093717 4.76393e-21)
(0.793523 0.0178519 0)
(0.916835 -0.0451772 7.60202e-20)
(1.14943 0.0246348 -9.11212e-22)
(1.41594 -0.26979 -1.57799e-20)
(1.11421 -0.0532096 -3.0345e-21)
(0.924455 0.0140255 2.57284e-21)
(-0.279718 -0.0459966 0)
(0.8632 -0.0165058 2.03996e-21)
(0.803645 0.0245252 0)
(1.06351 0.000728876 -8.08441e-23)
(1.01245 0.0285961 0)
(1.31497 0.320163 8.58925e-21)
(1.0331 -0.0563103 -3.08119e-20)
(1.27668 0.137662 2.71679e-21)
(1.14953 -0.0687329 0)
(1.09092 -0.0246502 0)
(0.540936 -0.0263758 0)
(1.11179 -0.0393621 -1.83926e-21)
(1.25638 -0.0605182 8.889e-21)
(1.06779 0.113758 -3.10694e-20)
(0.847056 -0.0181594 0)
(1.10623 0.0249676 -1.90251e-22)
(1.11269 -0.0154316 2.39295e-21)
(1.151 0.00450401 -6.70045e-22)
(0.985334 0.0353166 1.47093e-21)
(1.13388 0.00511182 -4.79225e-23)
(0.00408294 0.0666798 0)
(1.097 -0.0247433 -1.18622e-20)
(1.1887 0.0431964 1.06223e-21)
(0.715874 0.0258194 -1.34232e-21)
(1.26328 0.169272 2.40874e-21)
(1.02532 0.00830026 4.86949e-21)
(1.04993 0.017149 1.56523e-20)
(0.990323 0.0262506 0)
(1.13005 -0.0765278 -1.32749e-20)
(1.02237 0.0160083 0)
(0.933554 0.0315861 2.57135e-21)
(0.9695 0.285209 1.43135e-19)
(0.965668 0.0353997 0)
(0.818059 0.103958 0)
(-0.106158 0.0479241 -7.00681e-20)
(1.34453 0.13254 -1.40703e-20)
(0.67399 -0.0233851 0)
(1.46564 0.0202119 0)
(1.1449 -0.00850044 0)
(1.35726 0.083176 1.59427e-20)
(-0.0364961 -0.072363 0)
(-0.0559747 0.0876515 3.4049e-20)
(0.947412 -0.0596028 7.06876e-20)
(1.00287 0.0406902 1.20314e-22)
(0.861299 0.000684624 0)
(1.03007 -0.0435883 4.79623e-21)
(0.895392 0.0223802 0)
(0.684879 -0.0366697 -7.64064e-20)
(1.01969 0.0456119 2.44699e-21)
(1.1155 -0.0590434 1.68988e-21)
(1.09925 0.00884821 4.19634e-21)
(1.01499 0.0707596 -1.09414e-20)
(0.698028 -0.0412043 -4.84787e-21)
(1.13369 -0.350044 6.64957e-22)
(0.915547 -0.0259621 0)
(1.07103 -0.000758468 -1.25811e-20)
(0.8756 0.0103801 -8.99244e-21)
(1.37357 -0.182308 1.92553e-21)
(0.693018 0.0288935 0)
(1.02288 -0.145437 0)
(1.10135 -0.0526889 1.75816e-21)
(1.39456 0.213661 1.12465e-20)
(1.12001 0.0177101 2.43372e-21)
(1.03719 0.0169581 1.9464e-20)
(0.738888 0.0100837 -7.91861e-20)
(0.815013 0.00334501 1.70575e-20)
(1.13687 -0.0184173 1.62014e-21)
(1.39211 -0.103038 -4.85821e-21)
(1.10229 -0.0565381 -3.58607e-21)
(1.327 -0.0630079 4.16294e-21)
(-0.111008 0.0701542 5.12587e-20)
(1.28523 -0.0453662 0)
(0.599034 -0.0203901 0)
(1.06234 -0.0281183 -6.27772e-21)
(1.10334 0.0116044 1.54235e-21)
(0.0629757 0.0820273 0)
(0.875668 -0.0216431 1.5856e-22)
(1.10016 -0.0524745 -2.00452e-21)
(0.978908 0.017703 -1.17108e-23)
(1.07923 0.037497 -6.43859e-21)
(1.00992 0.0207375 2.75341e-21)
(1.03063 -0.0397931 1.76823e-21)
(1.04476 0.0330894 0)
(0.316563 -0.0372202 0)
(1.04778 -0.0624233 0)
(1.15313 0.106298 -3.0502e-20)
(-0.0395074 -0.0715698 4.41489e-20)
(1.06537 0.0121803 -4.35885e-24)
(1.20763 0.0949469 0)
(0.753484 0.0198664 -2.52861e-21)
(1.15378 -0.0483732 5.87321e-22)
(-0.00666919 -0.0379889 -1.39587e-19)
(0.739084 -0.0108138 -4.15924e-20)
(0.617144 -0.021481 0)
(1.00708 -0.0511247 0)
(0.924488 0.0409614 4.4992e-21)
(0.989863 -0.113751 5.30042e-21)
(1.28228 0.397296 1.59604e-21)
(1.11644 -0.0507337 -2.69414e-23)
(1.11887 -0.0744918 -4.21762e-21)
(1.02387 -0.0384408 0)
(1.36576 0.422903 -4.22241e-20)
(0.644938 -0.0187702 0)
(0.801651 -0.0217652 -1.97076e-21)
(1.0485 -0.00906433 9.22366e-23)
(0.563638 0.0164116 0)
(1.09977 -0.00615271 0)
(0.01426 -0.0220679 -3.82891e-20)
(1.0917 -0.0619853 -8.75601e-21)
(0.731739 -0.00827289 5.50982e-22)
(0.991206 -0.00265418 0)
(0.531303 -0.0159869 0)
(0.76071 -0.0148512 -1.49058e-21)
(0.524515 -0.0129474 -4.15568e-22)
(1.33041 0.0313311 3.41874e-22)
(1.23809 0.0910101 -2.75046e-21)
(0.703624 0.0104428 -5.31387e-22)
(1.10105 -0.0232884 4.56739e-24)
(1.15375 -0.057597 2.53877e-23)
(0.530741 0.0151071 1.71073e-21)
(1.15745 -0.0395029 2.42606e-22)
(1.1428 -0.0348361 0)
(0.963977 -0.058467 0)
(0.488935 0.0154083 0)
(1.02593 -0.00206305 0)
(1.15044 0.00381465 -2.5319e-22)
(1.06831 -0.0407164 0)
(1.11081 -0.0169529 0)
(1.04554 -0.0234626 0)
(1.0628 -0.0353182 0)
(-0.0201589 -0.0334565 4.30971e-20)
(1.21592 0.00920299 1.34888e-22)
(1.08905 -0.0158335 0)
(1.36817 0.00188732 2.15778e-20)
(1.1597 0.00841471 1.73205e-22)
(1.10745 0.0539223 -8.68551e-22)
(1.13868 -0.000772498 3.30954e-21)
(1.16194 0.00105116 0)
(0.557137 -0.0180015 3.54517e-21)
(1.05216 0.0429208 1.06416e-20)
(1.1868 -0.0188917 0)
(1.19473 -0.037568 -6.56818e-22)
(1.15703 0.000325512 1.28693e-21)
(0.611748 0.183576 -5.45809e-21)
(1.13332 0.0336764 2.60693e-21)
(1.20262 -0.0110833 -2.53824e-21)
(1.03208 0.053222 0)
(1.15108 0.0315209 -1.6739e-20)
(1.13017 0.0372632 -3.17545e-21)
(0.751801 -0.0713466 4.54053e-21)
(0.930601 0.0970874 0)
(-0.0184639 -0.020602 0)
(0.976924 0.114752 -1.72768e-20)
(1.14304 -0.0157275 0)
(1.26828 -0.0651419 2.03336e-20)
(1.15803 0.0384131 5.8758e-22)
(1.16995 -0.019016 2.44017e-21)
(1.13465 0.0326436 -1.05304e-21)
(1.34254 -0.0681369 9.53127e-20)
(1.01464 -0.322007 5.90904e-20)
(1.11701 -0.0258307 -4.17294e-22)
(1.00628 0.0645053 0)
(0.924711 0.0871402 0)
(0.901235 0.00165316 -2.61991e-20)
(1.23789 -0.0845188 -3.98978e-20)
(1.16051 0.00344899 0)
(0.600672 -0.116373 1.09525e-20)
(0.311974 0.115771 0)
(0.784935 0.0690896 6.064e-21)
(0.821734 -0.0719481 -1.25808e-20)
(0.807436 0.0289455 -2.73023e-21)
(1.15004 -0.00277637 0)
(1.23954 0.0629133 -6.85399e-22)
(1.17122 0.0865722 2.82493e-21)
(0.747448 0.000504041 -8.61446e-21)
(1.17399 0.00432578 -2.95053e-21)
(0.872286 0.0329382 0)
(1.0921 0.0716926 0)
(1.06024 -0.00234648 7.35457e-21)
(0.811136 0.0196884 -6.12565e-21)
(1.24478 0.0220505 5.02413e-21)
(1.13268 -0.021585 -2.40203e-21)
(1.02367 0.0828846 4.98861e-22)
(1.12197 -0.0141259 0)
(0.406638 -0.136347 1.28986e-20)
(1.33754 0.0815656 -2.43415e-20)
(0.930598 -0.00731783 -5.3041e-21)
(0.0529784 0.159204 5.77081e-21)
(1.41839 -0.161955 2.26928e-20)
(0.920281 -0.0493388 7.41534e-20)
(1.20008 0.0156458 -7.50008e-21)
(1.10934 -0.0199761 -4.04824e-22)
(-0.0588161 -0.0705106 -7.53706e-21)
(1.00029 -0.00690166 0)
(1.03384 -0.0857793 -1.61064e-20)
(0.856828 -0.0330231 1.83956e-21)
(1.09762 -0.0577838 1.64641e-21)
(0.760614 -0.0519138 -9.49913e-22)
(0.517863 -0.0137502 -6.04179e-22)
(1.40501 -0.388822 -1.50241e-20)
(1.12668 0.0434778 0)
(1.01235 -0.00393116 7.9308e-22)
(1.13442 0.0389803 -1.37932e-21)
(1.2532 0.00157404 0)
(0.808008 0.0576966 -5.69206e-21)
(1.12988 0.0395508 1.99664e-21)
(0.717211 -0.0906512 2.07495e-20)
(1.15389 -0.034216 8.68578e-21)
(0.891302 0.0584624 3.51337e-21)
(-0.0372241 -0.00701626 0)
(0.545649 0.227136 2.75243e-20)
(1.15178 0.041979 0)
(0.992149 0.212371 1.18953e-20)
(0.93853 0.230992 0)
(1.12781 -0.0059427 -1.48715e-21)
(1.01596 0.0264686 0)
(1.06839 0.0268218 0)
(1.39582 -0.139787 1.97761e-20)
(0.794077 -0.0826784 0)
(1.19314 -0.15987 1.13169e-20)
(1.08762 -0.0210403 8.55109e-23)
(1.05305 0.0415367 1.65754e-21)
(1.26249 -0.0650086 -1.24153e-20)
(1.24557 0.117614 -7.51326e-21)
(1.21472 -0.07819 1.44738e-20)
(1.16604 0.0397473 0)
(1.19187 -0.0473078 0)
(1.11661 0.0400826 1.58414e-21)
(1.22414 -0.0214052 0)
(1.41779 0.209543 -2.78166e-20)
(0.76829 -0.105523 -1.93163e-22)
(1.02749 0.0168045 1.86183e-20)
(1.28547 0.0197742 -4.08526e-22)
(-0.0128274 0.0113508 0)
(-0.02665 -0.0506257 0)
(0.0309006 0.0444062 -3.63801e-20)
(-0.0571425 -0.0747498 0)
(0.712418 -0.133101 -1.16022e-20)
(1.17228 0.041527 -1.20016e-21)
(1.17595 -0.0667083 -1.99757e-21)
(1.23933 -0.0587538 -2.78867e-21)
(1.20485 -0.0340613 0)
(0.704746 -0.00191768 -1.25521e-22)
(1.14385 0.0377839 0)
(1.10009 0.0171432 -1.42e-22)
(0.492407 -0.108297 0)
(0.801457 -0.107035 -2.58688e-22)
(1.11696 0.0492196 0)
(1.13485 0.0379816 0)
(0.693819 0.00498983 4.88571e-20)
(0.654135 -0.0719556 -1.54871e-21)
(0.88967 -0.0127418 2.02141e-21)
(1.01209 0.0173442 -8.95172e-21)
(0.149493 -0.0719977 0)
(1.21374 -0.125159 -1.60479e-20)
(1.23532 0.0911475 -8.86492e-21)
(1.1446 -0.115237 -4.95009e-22)
(0.760467 -0.0361002 2.27668e-21)
(-0.050625 -0.0328157 -9.27932e-20)
(1.1322 0.0734814 0)
(-0.0355148 0.043463 0)
(1.16768 0.102353 -5.38609e-22)
(0.464991 0.0905377 -2.45023e-21)
(1.12297 0.0490858 -5.73631e-21)
(1.11476 -0.0415082 0)
(1.17899 -0.0879125 1.56635e-21)
(1.19997 -0.12025 1.26771e-20)
(0.519274 -0.0490293 -8.77487e-21)
(1.14619 -0.0357935 1.16732e-21)
(1.18596 -0.052176 1.38519e-24)
(-0.0320371 -0.0101688 1.34507e-20)
(1.26717 -0.0728729 -1.57171e-21)
(1.13828 0.044516 0)
(1.1373 0.0653147 0)
(1.19282 -0.0419123 4.24558e-21)
(1.17876 0.0924892 8.01177e-21)
(0.603667 -0.129433 -3.25987e-20)
(1.19125 -0.126679 -1.52761e-20)
(1.11602 0.0613009 6.22165e-22)
(0.49191 -0.00192462 6.74884e-21)
(0.198138 -0.107453 -8.88505e-20)
(-0.0741614 -0.298108 2.36841e-20)
(1.17524 0.184901 -6.67283e-21)
(1.22599 -0.493642 4.3508e-21)
(1.42876 0.0567793 -1.8394e-20)
(1.20572 -0.0383718 -5.03124e-21)
(0.933855 -0.229926 9.45756e-20)
(-0.298292 -0.124144 0)
(1.1529 -0.0429024 -3.11454e-22)
(0.167955 0.13826 -2.47084e-20)
(1.15004 0.0981896 4.66067e-22)
(1.13942 -0.0421645 5.64538e-21)
(1.08627 0.0412971 0)
(0.637306 0.0287077 0)
(1.17585 -0.0580613 0)
(1.26529 0.21229 -6.43817e-21)
(1.27542 -0.028554 -2.90861e-20)
(1.15687 -0.045495 -3.6182e-21)
(0.477177 0.00772391 0)
(0.643968 -0.00437881 0)
(0.653404 0.0065539 5.9556e-22)
(0.470614 -0.00690596 0)
(1.15535 0.0635834 0)
(1.02064 -0.0137383 2.42496e-20)
(0.169468 0.182655 0)
(0.91381 0.0237002 0)
(1.11056 -0.0147085 0)
(1.17679 0.18449 -2.38606e-21)
(1.2804 0.0453231 1.48309e-20)
(0.96537 -0.0306498 3.95868e-21)
(1.27705 -0.40081 -1.01833e-19)
(0.491687 -0.0249313 -2.36161e-21)
(1.22902 0.0232859 5.63897e-21)
(1.24427 -0.0417509 0)
(-0.394022 -0.0793283 0)
(-0.248201 0.0302587 0)
(1.16343 -0.032223 -7.10775e-21)
(1.3134 -0.294617 -2.00301e-20)
(1.35612 0.137511 0)
(1.08612 0.0431945 -4.96357e-21)
(0.336255 -0.149075 0)
(1.49904 -0.182305 6.54194e-20)
(0.414124 0.523372 1.09238e-19)
(0.259571 -0.0411718 0)
(1.08313 -0.277459 1.09303e-19)
(0.262324 -0.0980005 0)
(-0.31969 -0.0822966 5.24811e-21)
(1.3871 0.108329 0)
(-0.0986686 -0.0370173 -1.02636e-21)
(0.983515 -0.0497748 0)
(1.24432 -0.0660306 -8.53806e-21)
(-0.133871 0.00104036 -7.34257e-21)
(1.12391 -0.0292902 -5.7347e-22)
(1.20015 -0.133938 -3.8611e-21)
(0.568722 -0.507887 -9.25128e-20)
(1.12609 -6.54032e-06 -3.98364e-22)
(1.19268 -0.133684 4.13307e-21)
(1.18497 0.249265 -1.67165e-20)
(1.13616 -0.0802971 -2.86432e-22)
(1.15916 -0.0132544 -1.32925e-21)
(-0.1027 -0.171493 -6.33846e-20)
(0.0613196 0.0924142 -7.70922e-21)
(1.22761 0.0687571 2.41067e-21)
(1.05869 -0.0514355 0)
(0.473572 -0.032024 -8.69038e-21)
(1.38892 -0.444275 7.57555e-20)
(0.90101 -0.0768276 -5.40655e-20)
(1.44279 0.14697 8.38468e-20)
(1.08917 -0.0536473 5.85635e-22)
(1.23844 -0.0918044 1.83077e-21)
(1.06208 -0.00725161 0)
(1.18925 -0.0263129 0)
(1.25732 -0.0568259 3.93621e-21)
(1.0865 -0.02104 -4.50685e-21)
(1.13873 -0.073276 5.99531e-22)
(1.08528 0.049725 -3.76831e-21)
(1.43827 -0.0585426 -4.64876e-20)
(0.444975 0.034043 0)
(1.24538 -0.0573983 -9.4962e-22)
(1.35842 0.0843836 0)
(1.10393 0.063217 -8.31038e-22)
(1.14328 0.023653 0)
(1.04229 -0.00974124 1.2187e-20)
(1.23333 0.0318617 1.8043e-20)
(1.09568 -0.00125591 0)
(0.0507803 -0.0290784 1.47791e-19)
(0.882185 -0.208294 -7.41776e-20)
(1.24351 -0.073357 -2.77638e-20)
(-0.111373 -0.00569258 4.00751e-20)
(1.20575 0.0374513 4.53422e-22)
(0.802473 0.0159979 -2.36426e-22)
(-0.0949369 0.0242255 -4.17804e-20)
(-0.0262254 0.0353287 -2.7019e-20)
(1.01759 -0.0304709 0)
(-0.0272046 -0.0305401 0)
(1.24172 0.0271559 0)
(0.111323 -0.0978088 0)
(1.11652 -0.0272019 0)
(0.131483 0.03046 0)
(1.11844 0.0560995 0)
(1.21288 0.14251 0)
(1.33663 0.124174 -1.49857e-21)
(0.56764 -0.28183 -2.0099e-20)
(-0.140021 0.108928 0)
(1.10104 -0.102622 5.62543e-20)
(1.23364 0.000919487 8.35144e-22)
(1.32379 -0.00124106 0)
(-0.0359826 -0.038739 0)
(1.16112 0.0119843 5.95409e-21)
(1.16918 -0.00778007 -2.86431e-21)
(1.17244 0.391513 0)
(0.219583 -0.0628131 5.49041e-20)
(1.12098 0.0581022 8.39316e-22)
(0.227286 -0.05093 -5.01955e-20)
(-0.0614923 0.0500452 -3.29935e-20)
(-0.03516 0.0495958 8.49518e-20)
(0.517592 0.00879084 4.13296e-20)
(1.05307 -0.0277661 2.22471e-22)
(1.13126 0.0686923 3.17425e-21)
(1.02246 -0.00803393 0)
(1.06969 -0.0720398 -2.1597e-20)
(1.25757 0.0672276 -1.594e-20)
(-0.00875109 -0.00995599 9.61317e-20)
(0.979334 -0.0714078 -5.95776e-20)
(0.612843 0.0642266 1.44158e-20)
(1.10935 0.00256579 -2.90295e-21)
(0.0709226 -0.0297141 3.16565e-20)
(0.238783 -0.0375364 -4.51615e-20)
(0.375427 -0.0512562 -4.97684e-20)
(1.20798 0.157394 -3.15495e-21)
(-0.0516272 -0.0317017 0)
(0.969407 0.128777 6.5837e-21)
(1.1688 -0.0808284 4.83897e-21)
(1.13601 -0.0359991 -4.66536e-21)
(1.27178 -0.0387681 0)
(1.50902 -0.237367 6.60228e-20)
(1.11106 0.0222665 -9.92763e-22)
(-0.0115336 -0.024028 -3.22018e-20)
(0.30399 0.0825182 0)
(0.904509 0.0257395 1.9577e-23)
(1.13711 0.0261337 -1.21667e-21)
(0.698891 -0.124124 1.4039e-20)
(1.16301 0.00950785 -2.06217e-21)
(1.1175 0.049763 0)
(1.1205 -0.173635 -1.38647e-20)
(-0.0877751 -0.0449224 -6.13184e-20)
(1.31952 -0.0400681 2.19964e-20)
(1.10521 0.176178 -8.88459e-21)
(1.08814 0.0450996 4.30977e-21)
(-0.0373868 -0.0453977 1.44562e-20)
(-0.0264062 0.0429157 -6.51818e-20)
(0.653088 0.0126426 0)
(0.821995 0.117383 0)
(1.15374 0.0984395 -1.25637e-20)
(1.05239 0.0695556 1.07729e-20)
(1.10141 0.0218146 0)
(0.405985 -0.040486 4.00876e-20)
(0.732985 0.0897533 -1.17707e-20)
(1.09925 0.108919 0)
(1.08595 0.037513 0)
(1.39224 0.11593 0)
(1.20343 0.050273 0)
(1.18992 0.00596627 2.11379e-21)
(-0.0431227 0.046025 3.60365e-20)
(1.19221 0.057707 3.44152e-21)
(1.38734 -0.202983 -7.48644e-20)
(1.26676 0.0265532 -3.63437e-21)
(0.0196404 0.0113518 0)
(1.17829 -0.0717783 0)
(0.645717 -0.000362279 6.64367e-22)
(0.5379 0.00906564 -6.04842e-20)
(0.071531 0.0363771 4.90518e-20)
(0.946169 -0.00180422 -9.91999e-22)
(0.730428 -0.269759 0)
(0.662921 -0.0900282 0)
(1.21894 0.0328388 0)
(0.54272 0.517058 2.43902e-20)
(-0.0186743 0.0324374 -3.02644e-20)
(1.08173 -0.0172442 -2.32923e-21)
(-0.0181471 -0.0336279 6.06346e-20)
(1.10489 -0.0387699 1.78737e-21)
(1.17793 0.31662 3.18829e-20)
(1.11262 -0.0929503 8.08846e-21)
(0.273681 -0.0850941 8.27027e-20)
(1.02033 0.0388219 3.80951e-21)
(1.18427 -0.14206 0)
(0.5612 0.272545 0)
(0.946068 0.0334663 2.84001e-21)
(-0.191985 0.0588597 0)
(0.606812 0.0293686 1.32482e-21)
(0.596205 -0.411966 -2.81815e-21)
(0.239827 0.0494841 -1.14759e-19)
(1.12112 -0.227563 3.38694e-20)
(1.04171 0.368609 9.77954e-21)
(0.978594 0.0217048 0)
(1.22847 -0.0653273 8.80442e-23)
(0.647303 -0.00185111 0)
(0.982222 0.00538049 -7.36556e-22)
(0.420507 -0.0191722 0)
(0.711512 0.136719 0)
(0.999693 -0.0213582 -1.30841e-21)
(1.43984 0.170655 -1.5986e-20)
(1.09765 -0.0242267 2.09231e-21)
(0.516352 -0.4854 0)
(1.13212 -0.157365 2.51849e-21)
(0.805801 0.383983 6.90202e-20)
(-0.0399152 0.0211806 1.197e-21)
(1.21847 -0.0209919 1.2056e-20)
(1.21387 0.0317666 -1.40338e-20)
(1.12871 -0.0352398 6.50614e-22)
(0.788535 0.00871003 -1.54846e-21)
(0.0622976 0.0187649 3.8293e-20)
(-0.0177087 -0.0017317 -5.40835e-20)
(-0.204368 0.0409139 0)
(-0.198267 0.167119 0)
(1.17336 -0.611318 3.00454e-20)
(1.1533 -0.0257963 1.29707e-21)
(0.87577 -0.459853 -3.97498e-20)
(1.01549 0.152073 -1.43639e-20)
(1.37146 0.198716 3.60256e-20)
(0.606302 0.422829 0)
(0.247767 0.420247 -1.12271e-19)
(0.597689 0.48842 0)
(0.0383301 0.0567516 0)
(1.11489 -0.477187 0)
(-0.0488179 0.0446946 -4.07547e-22)
(1.20365 -0.0214275 0)
(0.930294 0.189566 -3.56674e-20)
(0.598356 0.698628 2.06532e-20)
(1.3467 0.205518 1.429e-20)
(-0.0361145 -0.0701433 -1.01454e-19)
(0.793507 0.216169 -2.20912e-20)
(0.45382 0.145076 -1.38181e-20)
(1.20517 0.0912729 0)
(1.36541 0.35672 3.82297e-20)
(1.22711 0.569629 9.72468e-21)
(0.159367 -0.0138456 -2.28341e-20)
(1.01204 0.131728 3.37657e-20)
(0.93079 -0.0112964 5.29428e-23)
(0.908069 0.0143506 2.021e-22)
(-0.00630292 -0.0263195 0)
(0.640412 -0.643325 -3.1098e-20)
(0.613578 0.208947 0)
(0.0414277 -0.0899223 0)
(-0.050496 0.0675049 0)
(-0.0142795 -0.078128 -3.81274e-20)
(1.2348 -0.00361444 -1.38406e-20)
(-0.0268897 0.0681632 0)
(-0.0370145 0.0627059 0)
(1.4467 0.114984 -8.09856e-20)
(-0.0358959 -0.0616374 4.5982e-20)
(0.115568 0.239276 -9.97608e-20)
(0.388102 0.0180893 0)
(0.167483 -0.270624 8.17911e-20)
(1.06774 -0.239009 0)
(0.992456 -0.281984 0)
(-0.00673465 -0.0700884 9.5307e-20)
(1.14967 0.0344466 2.29521e-23)
(1.12934 0.346248 2.65488e-20)
(0.262697 0.0282014 4.73674e-20)
(0.399016 -0.509838 -3.95642e-20)
(1.30024 0.0727642 0)
(1.224 0.196134 2.28268e-20)
(1.22342 0.21196 -2.80389e-20)
(0.102795 0.095344 -2.32781e-20)
(-0.0632104 0.0197241 0)
(1.06924 -0.0588928 -1.96443e-20)
(1.0984 -0.222643 -1.66493e-20)
(0.578667 -0.395321 0)
(1.09548 -0.149269 -2.64796e-20)
(-0.0831094 0.14111 0)
(0.608431 0.0484636 0)
(1.45295 8.10822e-05 4.03274e-20)
(0.984786 0.0223701 1.10745e-22)
(1.08178 0.749612 -1.41663e-20)
(0.222587 -0.371814 1.3432e-19)
(1.07255 0.00568934 -2.29111e-22)
(1.20866 0.0717517 1.69305e-21)
(-0.0530623 0.0783421 3.08968e-20)
(0.791024 0.737788 2.59024e-20)
(1.33792 -0.373879 -1.28824e-20)
(-0.202629 -0.153788 6.72947e-20)
(1.12352 0.0439441 0)
(0.241441 -0.0301993 -8.95406e-21)
(0.886774 -0.628246 2.54188e-21)
(0.903857 0.644845 -2.21392e-20)
(0.528226 -0.0366383 -5.86582e-20)
(1.14688 -0.00645866 2.35556e-21)
(1.07615 -0.0861618 7.03145e-21)
(1.15961 0.0652201 -2.44989e-21)
(1.10657 0.121229 2.6297e-21)
(1.13057 -0.133049 0)
(0.911256 0.110715 1.48798e-20)
(0.890069 0.460839 0)
(1.30579 0.137755 5.88197e-21)
(1.16943 0.112742 -2.08874e-21)
(0.754443 0.265075 0)
(0.521741 0.110508 1.09467e-19)
(0.897306 0.717842 -7.98808e-22)
(1.08148 0.293425 -2.03891e-20)
(1.04407 -0.0120111 1.18643e-20)
(0.41715 0.499997 0)
(1.2849 -0.473575 0)
(0.639525 -0.0972723 5.64924e-21)
(1.26795 0.505947 0)
(-0.0246136 0.0586897 -4.37422e-20)
(1.27392 -0.416403 -3.51028e-21)
(1.1694 0.513646 0)
(0.452755 0.22653 1.67703e-19)
(1.12703 0.31763 -1.22723e-19)
(0.807842 -0.63181 -2.71532e-20)
(1.16657 0.0650471 -4.25649e-21)
(0.918619 0.152368 8.30195e-20)
(1.09109 0.170054 4.8018e-20)
(1.07508 0.708172 -3.80209e-22)
(0.897077 -0.431617 6.68784e-20)
(1.43627 0.179553 4.36278e-20)
(1.13057 0.0089175 7.95472e-23)
(0.00105886 -0.0412971 8.54987e-20)
(1.07124 -0.696088 2.11006e-20)
(0.862305 -0.711426 5.67618e-20)
(0.248455 -0.320481 0)
(0.971019 -0.144766 7.37106e-20)
(0.363552 0.317281 -4.35314e-19)
(-0.115157 0.0443706 2.01627e-20)
(0.243717 0.0470388 2.31734e-20)
(0.657628 -0.0589591 -6.9406e-20)
(1.08341 0.534024 0)
(0.993955 0.225232 7.79073e-20)
(1.08848 0.0309517 2.75921e-21)
(0.91379 0.44808 -8.89882e-20)
(0.771499 -0.715888 -9.18093e-21)
(0.927102 0.0273007 -4.89007e-20)
(0.980776 0.494911 0)
(1.21184 0.211119 -1.87906e-20)
(1.36902 -0.514902 1.1957e-20)
(1.221 -0.341307 8.47521e-21)
(-0.226727 0.0326036 3.58701e-20)
(0.193844 0.0153464 -1.80971e-20)
(0.972207 -0.115431 -5.81434e-20)
(0.355585 0.533057 0)
(0.915726 0.0215505 3.89635e-20)
(1.16058 0.639452 8.29697e-20)
(-0.0831041 -0.0423177 1.30555e-19)
(-0.0662938 0.065542 -2.57545e-20)
(-0.0781369 -0.0423361 3.93237e-20)
(1.09785 0.0235392 -3.59429e-21)
(1.11591 -0.457492 0)
(1.05688 -0.727947 -4.64024e-20)
(0.700291 0.356314 0)
(0.00540489 -0.0399234 -9.20174e-20)
(1.09636 0.015556 1.52412e-21)
(-0.0311774 -0.0483242 -2.72124e-20)
(1.0481 0.0559209 -1.23569e-20)
(0.104032 0.0334877 5.66882e-20)
(0.847827 0.128024 0)
(1.38376 -0.0654566 4.54424e-20)
(0.0497362 0.0558677 -2.63111e-20)
(-0.235623 0.0770027 -4.25926e-20)
(-0.22314 0.089795 0)
(0.0757717 -0.0117592 0)
(1.34147 -0.0340528 -1.21231e-20)
(0.366222 -0.0110763 1.42942e-19)
(1.25372 -0.72155 -1.65901e-20)
(0.931985 -0.163887 3.05118e-20)
(1.07593 0.253875 -2.82497e-20)
(0.363065 -0.546292 1.4167e-19)
(1.55239 0.28049 -3.59933e-20)
(0.0538827 -0.0512968 3.29564e-20)
(0.209175 0.315397 1.94135e-19)
(0.0826628 -0.0294695 -1.23905e-19)
(0.936841 -0.487689 -4.40809e-20)
(1.45759 0.389773 3.66906e-20)
(0.559119 -0.666078 5.03916e-20)
(1.10669 -0.0865796 -6.9758e-21)
(0.154084 0.0268688 4.93545e-20)
(1.18435 0.292547 -4.887e-20)
(0.664923 0.646992 -3.9517e-20)
(1.32185 -0.620032 0)
(1.421 0.521804 3.45374e-20)
(1.04508 -0.524069 -1.20805e-20)
(1.39259 0.609496 -1.04728e-19)
(1.19287 0.0366103 0)
(-0.0549112 0.0847001 0)
(1.25558 0.733629 0)
(1.19723 0.0573797 -3.90562e-21)
(0.736358 -0.294881 -2.08009e-19)
(0.475455 -0.0748314 0)
(-0.0561018 0.0910056 -2.61812e-20)
(1.01906 -0.245096 1.0039e-19)
(-0.321576 -0.0277001 0)
(0.321346 0.0352553 1.22272e-20)
(1.15329 0.0403281 0)
(1.41768 0.27632 0)
(1.1993 0.0614946 4.55797e-21)
(0.358837 -0.282112 0)
(1.01563 0.153171 3.59137e-20)
(1.31112 0.287663 0)
(-0.0881696 0.0706341 -6.18704e-22)
(0.808487 -0.389381 0)
(1.52008 0.339686 -5.45775e-20)
(1.24496 0.371839 -1.39307e-21)
(0.844299 0.652722 -9.55727e-21)
(1.0138 0.159702 -8.59795e-20)
(0.96765 -0.201791 -4.88588e-20)
(1.45609 0.295961 3.21041e-20)
(1.0138 0.102833 0)
(0.563506 -0.0637126 0)
)
;

boundaryField
{
    FrontBack
    {
        type            empty;
    }
    Top
    {
        type            noSlip;
    }
    In
    {
        type            fixedValue;
        value           uniform (1 0 0);
    }
    Bottom
    {
        type            noSlip;
    }
    Out
    {
        type            zeroGradient;
    }
    circle
    {
        type            noSlip;
    }
}


// ************************************************************************* //
