/*--------------------------------*- C++ -*----------------------------------*\
| =========                 |                                                 |
| \\      /  F ield         | OpenFOAM: The Open Source CFD Toolbox           |
|  \\    /   O peration     | Version:  2412                                  |
|   \\  /    A nd           | Website:  www.openfoam.com                      |
|    \\/     M anipulation  |                                                 |
\*---------------------------------------------------------------------------*/
FoamFile
{
    version     2.0;
    format      ascii;
    arch        "LSB;label=32;scalar=64";
    class       volVectorField;
    location    "11.6";
    object      U;
}
// * * * * * * * * * * * * * * * * * * * * * * * * * * * * * * * * * * * * * //

dimensions      [0 1 -1 0 0 0 0];

internalField   nonuniform List<vector> 
808
(
(0.895626 -0.0128951 0)
(1.02066 -0.0390122 0)
(1.17323 0.0178365 0)
(1.06837 0.0103184 -2.05481e-21)
(1.46942 -0.290008 0)
(0.955863 -0.0336649 0)
(1.13211 -0.0506163 1.98456e-21)
(1.07805 -0.0137128 0)
(1.34495 -0.227555 2.57341e-20)
(1.22857 -0.0939123 -1.15483e-20)
(1.17581 -0.0756279 4.53846e-21)
(1.37423 -0.258789 0)
(0.982622 -0.00821417 0)
(0.729121 -0.0250603 0)
(1.00025 0.0401059 2.25683e-20)
(1.03954 0.00804854 0)
(0.888401 0.0425776 -7.4669e-21)
(0.967822 0.00269236 -3.42743e-23)
(1.19041 0.0364099 0)
(1.11803 0.00541517 0)
(1.2031 -0.0777666 -6.33406e-21)
(0.928991 0.125519 1.04634e-19)
(1.07248 0.010347 -8.50522e-21)
(1.17673 -0.0366403 0)
(0.954119 0.188052 0)
(1.34056 0.0315264 -3.68632e-20)
(1.27797 -0.180008 1.02466e-20)
(0.950078 0.00344711 -2.55025e-21)
(1.04637 0.0064849 0)
(1.02652 0.00810414 -3.08835e-22)
(0.960027 0.00246088 2.27002e-24)
(1.123 -0.0103109 0)
(1.00652 -0.0192273 0)
(1.05184 0.00599177 1.97246e-21)
(1.30619 -0.0828079 9.7389e-21)
(0.741314 -0.109954 1.08532e-19)
(0.857799 -0.0298594 1.43472e-21)
(0.990011 -0.011361 2.8243e-22)
(1.17688 0.0451573 3.53372e-22)
(1.07115 -0.0140249 0)
(1.26523 -0.0734767 -1.93856e-20)
(1.27472 -0.135183 0)
(1.00064 -0.00223558 -3.26538e-21)
(1.10765 -0.0374991 2.06467e-21)
(1.24426 -0.0862983 0)
(1.00877 0.019355 -1.49444e-20)
(0.973806 0.0278475 -3.79904e-22)
(1.25029 -0.251673 8.94838e-21)
(1.15897 0.0656818 2.11563e-21)
(1.40047 -0.187986 -3.71763e-20)
(1.12524 -0.0499392 -2.61527e-21)
(1.15086 -0.0745402 0)
(1.11806 -0.00533486 2.91966e-21)
(1.06259 0.0140424 0)
(1.32405 0.226859 6.35272e-21)
(1.06237 0.0527974 7.38466e-22)
(1.06438 0.0102954 0)
(1.1492 -0.0800411 2.45206e-21)
(1.23579 -0.0992733 1.23963e-20)
(1.13103 0.0411501 1.3952e-21)
(-0.251408 0.0269037 0)
(1.21395 -0.212871 -8.41953e-21)
(1.12532 -0.0670797 0)
(1.43049 -0.0998973 -2.96148e-20)
(1.11405 -0.0392351 -3.40227e-21)
(1.03846 -0.0311704 -3.48998e-21)
(1.33038 -0.137521 2.86815e-20)
(0.66596 0.0030742 0)
(1.12268 -0.0666441 0)
(1.43233 -0.353098 0)
(0.846304 0.0315043 -9.57544e-24)
(1.23334 -0.143969 -4.06578e-20)
(0.977113 0.0453391 0)
(1.054 -0.0402969 3.76916e-22)
(1.11926 -0.333218 -5.40601e-20)
(1.11739 -0.0530616 8.6828e-23)
(1.148 0.0317935 8.71428e-22)
(1.32489 0.497232 2.51138e-20)
(1.10524 -0.0369902 0)
(1.01535 0.284671 -1.71686e-19)
(1.35639 0.00822348 2.12477e-20)
(0.711268 0.0245485 0)
(0.831521 0.0186134 3.62069e-22)
(0.966927 -0.109612 4.00728e-21)
(1.10975 -0.0646357 1.90767e-22)
(1.19348 0.0177536 2.15225e-21)
(1.27457 -0.236314 0)
(1.35134 0.285774 0)
(1.09708 0.00513296 -2.53329e-21)
(1.42148 0.0729017 4.0289e-20)
(1.07667 -0.0206277 6.48236e-21)
(1.31906 -0.129458 -1.49773e-21)
(0.966194 0.0260284 1.53668e-20)
(1.00398 -0.0244761 0)
(1.11718 0.0133826 6.50355e-22)
(1.28597 -0.0877315 -7.54769e-20)
(0.853563 0.00617148 -1.8956e-21)
(1.3589 -0.0694372 0)
(1.32561 -0.0961052 0)
(1.41146 -0.106017 -4.48424e-20)
(1.07845 -0.0547821 6.5895e-22)
(1.1272 0.014614 1.45717e-22)
(0.955447 0.0265638 6.05085e-21)
(1.18804 0.0118571 -1.02454e-21)
(1.34182 0.0296448 -2.89298e-20)
(1.00035 0.00257796 8.52865e-21)
(1.45913 -0.076179 0)
(1.04452 0.026015 0)
(1.09754 0.0358906 -1.85432e-21)
(1.19963 -0.220221 -5.99878e-21)
(1.28601 0.0109371 1.58312e-20)
(1.0469 0.047616 -1.15702e-19)
(1.13656 0.0435206 8.35332e-22)
(1.1571 0.113286 2.95075e-21)
(0.858227 -0.0104389 0)
(0.917059 -0.0462683 7.32227e-20)
(1.14038 0.0260351 2.25766e-21)
(1.42486 -0.265629 -1.79854e-20)
(1.09642 -0.0338647 -7.11122e-22)
(0.920485 0.0097239 2.41211e-21)
(-0.397724 -0.00530735 0)
(0.861887 -0.015275 2.03819e-21)
(0.803399 0.0295044 0)
(1.06872 -0.00157887 -6.14424e-23)
(1.01181 0.0287169 0)
(1.31446 0.319326 9.7017e-21)
(1.03035 -0.0541806 -2.661e-20)
(1.26193 0.141733 1.90253e-21)
(1.14936 -0.0637835 0)
(1.09357 -0.024459 0)
(0.571476 -0.0315088 0)
(1.08641 -0.0317586 -1.01534e-21)
(1.25036 -0.0509022 1.14031e-20)
(1.06697 0.113682 -2.86524e-20)
(0.876902 -0.00673843 0)
(1.1065 0.0243633 4.81557e-22)
(1.12428 0.0307677 2.52278e-21)
(1.08287 -0.00563527 -7.06438e-22)
(0.968736 0.0336953 -8.197e-23)
(1.13172 0.0165694 -1.22162e-22)
(0.00912042 0.0851698 0)
(1.09495 -0.0239316 -7.30456e-21)
(1.17472 0.0292482 1.6016e-21)
(0.720427 0.0330099 2.71184e-22)
(1.26036 0.169134 1.89102e-21)
(1.09062 0.0661492 3.80387e-21)
(1.04834 0.0196631 1.30891e-20)
(0.991833 0.028749 0)
(1.13118 -0.143868 -1.63654e-20)
(1.06057 0.0245484 0)
(0.90464 0.0319132 -6.42613e-22)
(0.968859 0.284136 1.37492e-19)
(0.955104 0.0392096 0)
(0.818164 0.103769 0)
(-0.142009 0.0468173 -7.41466e-20)
(1.34053 0.130166 -1.52719e-20)
(0.651506 -0.0244289 0)
(1.46382 0.0067122 0)
(1.13158 0.0111841 0)
(1.36102 0.0805559 1.72661e-20)
(-0.0353627 -0.0863439 0)
(-0.0675456 0.107696 3.56537e-20)
(0.971407 -0.0561815 7.95719e-20)
(0.991622 0.0411665 -4.42531e-22)
(0.858187 0.00439827 0)
(1.03912 -0.0341037 1.7485e-21)
(0.891986 0.024116 0)
(0.71576 -0.03766 -8.60019e-20)
(1.00722 0.0582141 -2.65358e-21)
(1.09393 -0.0373219 1.46272e-21)
(1.09179 0.010275 2.00638e-21)
(1.01419 0.0692837 -9.92025e-21)
(0.78202 0.0251521 -3.78685e-21)
(1.13528 -0.347844 4.83882e-22)
(0.913138 -0.0230248 0)
(1.06411 0.00230734 -9.96976e-21)
(0.872966 0.010804 -7.39239e-21)
(1.37557 -0.175142 2.27396e-21)
(0.699179 0.0351976 0)
(1.03651 -0.143476 0)
(1.07897 -0.0494197 1.49572e-21)
(1.39511 0.215039 1.21842e-20)
(1.11094 0.0256939 4.41552e-22)
(1.03733 0.0183173 1.79235e-20)
(0.770268 0.0353791 -8.87274e-20)
(0.812044 0.00403085 1.47997e-20)
(1.13616 -0.0196693 -8.87138e-22)
(1.3875 -0.0878635 -5.60232e-21)
(1.08412 -0.0483373 -2.8267e-21)
(1.3245 -0.0493369 4.80063e-21)
(-0.15872 0.0759022 5.42861e-20)
(1.28259 -0.0333192 0)
(0.58514 -0.0126022 0)
(1.06301 -0.0231337 -4.87204e-21)
(1.10528 0.0157067 -2.16918e-21)
(0.0715522 0.0973597 0)
(0.88613 -0.0147805 -1.47364e-23)
(1.08206 -0.0453193 -1.35251e-21)
(1.01397 0.00475484 9.82442e-22)
(1.08 0.0337331 -5.52752e-21)
(1.00976 0.0235574 2.60524e-21)
(1.02519 -0.0303021 1.19307e-21)
(1.04105 -0.0241592 0)
(0.32848 -0.0359825 0)
(1.04787 -0.0633721 0)
(1.15614 0.107807 -3.16597e-20)
(-0.036109 -0.0908396 4.79807e-20)
(1.08617 -0.00129025 -9.9092e-24)
(1.19334 0.0418458 0)
(0.759529 0.0298457 4.2087e-22)
(1.1035 0.00368343 1.02647e-21)
(-0.00517443 -0.0385361 -1.50467e-19)
(0.792704 -0.00572184 -5.06902e-20)
(0.592739 -0.0213496 0)
(1.0683 -0.00725114 0)
(0.921126 0.050546 -3.63838e-22)
(1.00486 -0.111508 5.79183e-21)
(1.28239 0.396999 3.7619e-21)
(1.08339 0.00179356 -5.38002e-23)
(1.10268 -0.0716837 -2.94659e-21)
(1.06567 -0.00502288 0)
(1.36629 0.423131 -4.59949e-20)
(0.632968 -0.00723067 0)
(0.838942 0.000981425 -1.16192e-21)
(1.05086 0.0128642 -3.51176e-24)
(0.575998 -0.00151028 0)
(1.10115 -0.00564634 0)
(0.0573625 -0.0141684 -4.56488e-20)
(1.16352 -0.0760378 -5.98624e-21)
(0.821105 -0.00301003 1.19825e-21)
(0.991746 -0.00324672 0)
(0.597975 -0.00581779 0)
(0.828622 0.00363961 -1.11792e-21)
(0.610947 -0.00534366 -2.02525e-22)
(1.32494 0.0148222 4.02791e-22)
(1.16451 0.0310833 -2.97572e-21)
(0.809372 0.00379136 -1.40114e-21)
(1.06508 0.0132206 1.90234e-22)
(1.07915 0.00169838 5.06937e-23)
(0.608754 0.00550331 3.734e-21)
(1.07411 0.0165668 2.76996e-22)
(1.07127 0.0057205 0)
(1.0637 -0.00629006 0)
(0.592073 0.0107468 0)
(1.04643 0.0068713 0)
(1.08134 -0.00418905 -5.44118e-22)
(1.06946 -0.000422046 0)
(1.06827 0.0103011 0)
(1.06843 -0.00177139 0)
(1.08979 0.0216343 0)
(-0.0206853 -0.0377236 4.71409e-20)
(1.07439 -0.00177148 3.36412e-22)
(1.07137 -0.000234073 0)
(1.35034 0.0206074 2.17236e-20)
(1.07498 -0.0109178 6.27927e-22)
(1.10233 0.0568721 -1.8582e-21)
(1.08378 -0.0162668 3.24187e-21)
(1.07054 -9.57339e-05 0)
(0.588796 0.00112128 2.33269e-21)
(1.05284 0.0413696 9.64842e-21)
(1.16391 -0.0426903 0)
(1.07871 0.0115901 -1.17379e-21)
(1.07825 0.00117727 2.19107e-21)
(0.677532 0.12632 -7.3188e-21)
(1.10447 -0.00537806 1.86729e-21)
(1.08856 0.0013956 -3.16302e-21)
(1.04499 0.0392268 0)
(1.14393 0.0628008 -1.08201e-20)
(1.11332 0.0359791 -2.76956e-21)
(0.839332 -0.0345336 7.29661e-21)
(0.991578 0.0426113 0)
(-0.0171889 -0.0209282 0)
(0.977695 0.114647 -1.65916e-20)
(1.05659 0.00175438 0)
(1.27884 -0.087513 2.68445e-20)
(1.09083 0.00165439 6.84398e-22)
(1.07784 0.0110114 3.0405e-21)
(1.09133 0.00570216 -1.91931e-21)
(1.35023 -0.0514522 1.09906e-19)
(1.01578 -0.321509 5.45768e-20)
(1.07373 -0.012136 -2.13523e-22)
(0.991195 0.0308161 0)
(1.02695 0.0482095 0)
(0.899813 -0.00171617 -2.15386e-20)
(1.28384 -0.137523 -5.08095e-20)
(1.0764 -0.0116287 0)
(0.723095 -0.0149771 1.16738e-20)
(0.475813 0.103867 0)
(0.948125 -0.00096194 5.20491e-21)
(0.860576 -0.0151184 -1.33829e-20)
(0.7791 0.0201781 6.33077e-22)
(1.09818 -0.0198074 0)
(1.12497 0.0322803 -7.98302e-22)
(1.15201 0.0490184 3.15782e-21)
(0.903593 -0.0301329 -6.96776e-21)
(1.09211 -0.00765221 -2.94633e-21)
(0.930579 0.00151898 0)
(1.09286 0.0733927 0)
(1.13609 -0.0440234 4.86029e-21)
(0.931654 -0.0238369 -5.25782e-21)
(1.10234 0.0166996 4.17586e-21)
(1.06315 -0.00510864 -1.98693e-21)
(1.0222 0.0488451 4.56058e-22)
(1.05784 -0.00171182 0)
(0.411889 -0.137413 1.36724e-20)
(1.32863 0.0715646 -2.70948e-20)
(0.936313 -0.0112087 -8.42503e-21)
(0.179493 0.058198 7.73864e-21)
(1.42217 -0.149507 2.61312e-20)
(0.932253 -0.0373041 8.27915e-20)
(1.15188 -0.0247719 -4.99438e-21)
(1.07072 -0.00862235 -1.13151e-22)
(-0.0555872 -0.0953684 -8.21212e-21)
(0.997969 -0.00502635 0)
(1.03516 -0.0874487 -1.51443e-20)
(0.855495 -0.0353882 -1.58556e-21)
(1.07512 -0.0564725 -4.47708e-22)
(0.897706 -0.0595106 -7.4067e-22)
(0.620362 -0.0103793 5.63112e-22)
(1.40842 -0.385233 -1.52068e-20)
(1.08127 0.0560513 0)
(1.04571 -0.00566204 -5.56408e-22)
(1.12106 0.0346073 -4.23622e-22)
(1.15343 -0.0150846 0)
(0.996875 0.00710418 -6.3604e-21)
(1.11911 0.042515 7.68532e-22)
(0.859585 -0.0691058 1.65637e-20)
(1.14331 -0.0512054 1.26053e-20)
(0.985253 -0.00381263 3.61523e-21)
(-0.0420378 -0.0226601 0)
(0.56319 0.143812 1.3126e-20)
(1.11245 0.0342643 0)
(1.00848 0.184594 6.7006e-21)
(1.00192 0.203143 0)
(1.1179 -0.0128377 -4.33807e-21)
(1.01556 0.0273256 0)
(1.11935 -0.0320965 0)
(1.39524 -0.130239 2.25539e-20)
(0.794358 -0.0831344 0)
(1.19946 -0.111028 1.21603e-20)
(1.05139 0.0119377 7.16333e-23)
(1.03517 0.055732 5.09075e-22)
(1.26107 -0.0938942 -1.66567e-20)
(1.24761 0.116865 -9.38178e-21)
(1.1864 -0.0804056 1.0316e-20)
(1.1185 0.043941 0)
(1.16273 -0.0509779 0)
(1.07514 0.0361385 1.09265e-21)
(1.21991 -0.0401718 0)
(1.41919 0.213914 -2.93717e-20)
(0.877729 -0.0746507 1.16431e-22)
(1.02667 0.0128484 1.63253e-20)
(1.26846 0.0338814 -4.45449e-22)
(-0.0147422 0.00461815 0)
(-0.0273973 -0.0601029 0)
(0.0801737 0.0247339 -4.29784e-20)
(-0.0458057 -0.0994908 0)
(0.803134 -0.0646932 -9.45479e-21)
(1.17157 0.0395843 5.99467e-22)
(1.13719 -0.0683666 -1.49062e-21)
(1.19986 -0.0824464 -4.07154e-21)
(1.19633 -0.0580479 0)
(0.809128 -0.00499801 -1.02805e-21)
(1.11699 0.0455086 0)
(1.09287 -0.00440118 3.36471e-22)
(0.499621 -0.108819 0)
(0.839823 -0.0551996 -2.69934e-22)
(1.10171 0.0641259 0)
(1.10633 -0.0188181 0)
(0.710381 0.0495972 5.20539e-20)
(0.696771 -0.0114861 -1.78516e-21)
(1.05217 0.0110104 1.17372e-21)
(1.01561 0.015252 -7.69183e-21)
(0.163555 -0.0780241 0)
(1.18455 -0.103137 -1.43478e-20)
(1.22533 0.0894222 -8.95406e-21)
(1.17869 -0.111259 1.54548e-22)
(0.758353 -0.0149603 6.78303e-21)
(-0.0553181 -0.0531533 -1.00243e-19)
(1.12453 0.085426 0)
(-0.0348194 0.0441053 0)
(1.16123 0.100829 -2.33786e-21)
(0.52841 0.0595721 -7.29973e-21)
(1.09369 -0.0126014 -3.92393e-21)
(1.0877 -0.0419294 0)
(1.15515 -0.0672098 1.27623e-21)
(1.23759 -0.179103 1.56291e-20)
(0.53301 -0.0472842 -9.58881e-21)
(1.13633 -0.0448235 2.95313e-21)
(1.1594 -0.0656612 7.71967e-23)
(0.134425 -0.0850662 1.35507e-20)
(1.20461 -0.0769823 -5.66803e-21)
(1.1269 0.0459462 0)
(1.13103 0.0829832 0)
(1.17425 -0.0585711 4.99291e-21)
(1.17767 0.0945123 8.09235e-21)
(0.681828 -0.192258 -3.20442e-20)
(1.19245 -0.12193 -9.05028e-21)
(1.10676 0.0687876 -1.6816e-21)
(0.475904 -0.0092852 -1.37187e-21)
(0.290474 -0.0448613 -9.58147e-20)
(0.0336118 -0.259702 2.48721e-20)
(1.17277 0.185352 -6.768e-21)
(1.22912 -0.492391 5.77583e-21)
(1.4156 0.0742167 -1.88482e-20)
(1.19083 -0.0592369 -5.91692e-21)
(0.93445 -0.230182 9.10145e-20)
(-0.318435 -0.123343 0)
(1.07458 0.0142043 -3.55615e-22)
(0.1458 0.161512 -1.43113e-20)
(1.14829 0.102392 2.02298e-21)
(1.11071 -0.0563884 4.05713e-21)
(1.07534 0.0349092 0)
(0.65342 -0.00195045 0)
(1.17259 -0.0526524 0)
(1.29023 0.199231 -5.40851e-21)
(1.26438 -0.016767 -3.23957e-20)
(1.14447 -0.0495784 -5.84507e-21)
(0.590967 0.0123949 0)
(0.739454 0.00349993 0)
(0.749619 -0.00181868 2.16341e-22)
(0.591933 -0.0112588 0)
(1.11314 -0.00113265 0)
(1.02055 -0.0129018 2.09205e-20)
(0.295473 0.0641978 0)
(0.937699 0.0111584 0)
(1.05806 0.00802429 0)
(1.17844 0.182967 1.2022e-21)
(1.26954 0.0530231 1.48359e-20)
(0.958469 -0.0295966 2.09669e-21)
(1.2855 -0.400155 -1.09083e-19)
(0.584178 -0.0780385 -4.97747e-21)
(1.18811 0.0439276 3.74773e-21)
(1.14101 -0.0105507 0)
(-0.389482 -0.145921 0)
(-0.253269 0.0886063 0)
(1.15395 -0.0473431 -9.8984e-21)
(1.31686 -0.29035 -2.88459e-20)
(1.31385 0.130345 0)
(1.06311 0.0350941 -1.71386e-21)
(0.478348 -0.118798 0)
(1.50266 -0.173573 7.37815e-20)
(0.41385 0.52274 1.04475e-19)
(0.270471 -0.0403393 0)
(1.09216 -0.276964 1.17088e-19)
(0.298122 -0.0150549 0)
(-0.241011 -0.120963 6.14844e-21)
(1.36726 0.115507 0)
(-0.0993381 0.02284 9.77507e-22)
(0.983461 -0.0497965 0)
(1.22249 -0.0964011 -1.10359e-20)
(-0.153142 -0.0307854 -8.1304e-21)
(1.11122 -0.0430587 -1.89137e-21)
(1.17163 -0.0822456 -5.13091e-21)
(0.569844 -0.509452 -8.99766e-20)
(1.07505 -0.00780493 -1.04989e-21)
(1.19152 -0.129907 1.41531e-21)
(1.18377 0.248583 -1.34843e-20)
(1.13433 -0.132711 -5.2254e-22)
(1.15478 -0.0299631 -2.20259e-21)
(-0.0963919 -0.116618 -7.21924e-20)
(0.061359 0.108452 -8.20435e-21)
(1.21267 0.101873 1.50171e-21)
(1.05707 -0.0485089 0)
(0.612298 0.0466603 -7.05666e-21)
(1.39521 -0.442089 8.38869e-20)
(0.919326 -0.0754856 -5.98732e-20)
(1.44675 0.148786 8.99705e-20)
(1.08568 -0.0595706 -6.90703e-22)
(1.19102 -0.0697303 5.28817e-21)
(1.06236 -0.00774207 0)
(1.18383 -0.018251 0)
(1.24197 -0.0841735 4.33119e-21)
(1.08982 -0.0206342 -4.48947e-21)
(1.15793 -0.123719 9.20477e-22)
(1.07305 0.0595162 -1.44497e-21)
(1.44011 -0.0370353 -5.2037e-20)
(0.440597 0.0367484 0)
(1.19996 -0.0671832 1.469e-21)
(1.32322 0.0970249 0)
(1.09508 0.0722338 5.25982e-22)
(1.14371 0.0192785 0)
(1.04777 -0.00780368 9.6575e-21)
(1.2343 0.0267595 2.18358e-20)
(1.10766 -0.00663225 0)
(0.0535206 -0.0288809 1.57892e-19)
(0.88234 -0.209023 -7.13846e-20)
(1.28038 -0.0371673 -3.16046e-20)
(-0.124637 -0.0304051 4.32228e-20)
(1.19491 0.0438267 4.94392e-22)
(1.014 -0.00123457 -2.09044e-21)
(-0.114904 0.0079121 -4.50616e-20)
(-0.0295303 0.0295206 -2.84067e-20)
(1.01572 -0.0303551 0)
(-0.0276507 -0.0319088 0)
(1.23484 0.0526714 0)
(0.111514 -0.099295 0)
(1.10918 -0.0311195 0)
(0.136862 0.0315097 0)
(1.11142 0.0561269 0)
(1.19027 0.149258 0)
(1.29301 0.125434 -6.40577e-22)
(0.572197 -0.283559 -2.15046e-20)
(-0.207397 0.0979765 0)
(1.11946 -0.0978316 6.23017e-20)
(1.08878 0.00307388 8.80478e-22)
(1.34009 0.0303241 0)
(-0.036385 -0.0395983 0)
(1.15959 0.00113699 8.63143e-21)
(1.16306 -0.0210245 -3.89863e-21)
(1.17245 0.390584 0)
(0.233183 -0.0651214 6.03835e-20)
(1.12217 0.0591552 4.93814e-22)
(0.232353 -0.0511644 -5.33785e-20)
(-0.0609782 0.0503391 -3.39272e-20)
(-0.0359585 0.0496194 8.68502e-20)
(0.548693 0.0139537 2.92908e-20)
(1.06932 -0.00676986 1.96715e-21)
(1.11749 0.0691154 5.66119e-21)
(1.02249 -0.00797282 0)
(1.07136 -0.0671048 -1.89549e-20)
(1.24093 0.0705647 -1.59453e-20)
(-0.0100146 -0.0186221 1.03107e-19)
(0.979715 -0.0719268 -5.65735e-20)
(0.715518 0.0847082 1.21167e-20)
(1.08953 0.00989999 -2.34233e-21)
(0.074097 -0.030003 3.42676e-20)
(0.244299 -0.0374335 -4.83519e-20)
(0.389273 -0.0513312 -5.47419e-20)
(1.21234 0.15273 -3.77275e-21)
(-0.0524173 -0.0321866 0)
(1.05536 0.145776 4.15686e-21)
(1.15784 -0.0986285 1.21545e-20)
(1.1183 -0.0794875 -1.17188e-20)
(1.27402 0.00085168 0)
(1.51062 -0.229872 7.37875e-20)
(1.07672 0.000277847 -1.87057e-21)
(-0.0125682 -0.0313314 -3.48993e-20)
(0.301295 0.0987211 0)
(0.939435 0.0101109 -1.39573e-21)
(1.12882 0.0281412 -2.03236e-21)
(0.801255 -0.17573 1.86875e-20)
(1.16226 -0.000684592 -3.26779e-21)
(1.11848 0.0474355 0)
(1.1329 -0.171371 -1.49461e-20)
(-0.0813719 -0.0798077 -6.88747e-20)
(1.31976 -0.0271823 2.53468e-20)
(1.10609 0.174622 -8.89871e-21)
(1.07179 0.042584 1.65259e-21)
(-0.0376197 -0.0490257 1.58087e-20)
(-0.0275581 0.0449429 -6.76397e-20)
(0.71182 0.0324325 0)
(0.826643 0.148281 0)
(1.15484 0.0994868 -9.37296e-21)
(1.05275 0.069633 9.11065e-21)
(1.07105 0.000197394 0)
(0.471102 -0.0343665 4.88544e-20)
(0.728797 0.0936311 -1.20832e-20)
(1.09975 0.109792 0)
(1.05942 0.0248814 0)
(1.39216 0.133224 0)
(1.14611 0.0133572 0)
(1.14512 0.0288176 1.97545e-21)
(-0.0427192 0.0456142 3.70566e-20)
(1.12539 0.00183347 3.29515e-21)
(1.39884 -0.197359 -8.39894e-20)
(1.19266 0.04363 -2.98744e-21)
(-0.0200074 0.0565497 0)
(1.15557 -0.0744138 0)
(0.757883 -0.0028289 -6.88716e-22)
(0.536141 0.00966196 -6.17528e-20)
(0.0705162 0.0367513 5.00093e-20)
(0.999687 -0.00474976 9.17479e-22)
(0.737491 -0.271007 0)
(0.672172 -0.090171 0)
(1.1525 0.0371706 0)
(0.542553 0.516722 2.67232e-20)
(-0.0204527 0.0308416 -3.16307e-20)
(1.06897 -0.00147662 -1.35253e-21)
(-0.019471 -0.0477569 6.60111e-20)
(1.07712 -0.0324068 1.25618e-21)
(1.17769 0.31543 2.57183e-20)
(1.11284 -0.0902438 6.2773e-21)
(0.331973 -0.0533275 9.41917e-20)
(1.06656 0.0833809 2.55105e-21)
(1.1778 -0.100717 0)
(0.561094 0.272595 0)
(1.02828 0.00318525 3.55898e-21)
(-0.215448 0.0294367 0)
(0.596394 0.0221302 -2.96069e-22)
(0.599433 -0.41395 -3.13944e-21)
(0.239037 0.0496963 -1.16856e-19)
(1.12295 -0.225399 2.81659e-20)
(1.04164 0.367596 9.35088e-21)
(0.97849 0.0208171 0)
(1.10616 0.00901292 1.84105e-22)
(0.755187 0.00469782 0)
(1.01962 0.00390996 -2.67727e-22)
(0.431407 -0.018219 0)
(0.711936 0.136103 0)
(0.997478 -0.0256254 1.02165e-21)
(1.4466 0.172634 -1.74915e-20)
(1.07483 -0.0193497 1.52111e-21)
(0.518473 -0.487456 0)
(1.13164 -0.154346 1.10423e-21)
(0.806167 0.383524 6.69896e-20)
(-0.0408724 0.0203601 1.22436e-21)
(1.21607 -0.0337596 1.486e-20)
(1.21521 0.0258124 -1.73786e-20)
(1.096 -0.0368425 4.85851e-22)
(0.804588 -0.0147487 2.05183e-21)
(0.0609562 0.0189931 3.91627e-20)
(-0.020388 -0.0139431 -5.78452e-20)
(-0.237519 0.0283988 0)
(-0.276473 0.172552 0)
(1.17828 -0.611807 3.20271e-20)
(1.14865 -0.0339331 2.14926e-21)
(0.881663 -0.4617 -4.34316e-20)
(1.05016 0.149535 -9.59195e-21)
(1.37409 0.199731 3.77144e-20)
(0.606251 0.422737 0)
(0.247522 0.419394 -1.09602e-19)
(0.597658 0.487327 0)
(0.0386313 0.0756992 0)
(1.1174 -0.476097 0)
(-0.0570314 0.0383549 -3.92201e-22)
(1.19852 -0.0123261 0)
(0.89991 0.154094 -2.5962e-20)
(0.598081 0.697762 2.05925e-20)
(1.33136 0.201641 1.09757e-20)
(-0.0314753 -0.0810971 -1.11122e-19)
(0.805493 0.192802 -1.16146e-20)
(0.453426 0.145217 -1.40805e-20)
(1.2066 0.0878926 0)
(1.36595 0.356988 4.0822e-20)
(1.22736 0.569329 1.18746e-20)
(0.156099 -0.0134336 -2.34171e-20)
(1.01012 0.139487 3.50463e-20)
(0.957144 -0.000254959 5.70349e-22)
(0.949938 0.00646576 -2.98019e-22)
(-0.00498956 -0.0267038 0)
(0.641867 -0.645048 -2.97374e-20)
(0.61368 0.20817 0)
(0.0684548 -0.107756 0)
(-0.0515366 0.0711295 0)
(0.000464576 -0.0977673 -4.19317e-20)
(1.23639 -0.0171221 -1.70425e-20)
(-0.0258613 0.0775165 0)
(-0.0406946 0.0651938 0)
(1.4597 0.116184 -8.71272e-20)
(-0.0341078 -0.0665684 5.03052e-20)
(0.115425 0.238348 -9.80492e-20)
(0.385255 0.0189699 0)
(0.167981 -0.272163 7.9972e-20)
(1.07868 -0.238766 0)
(0.993191 -0.281499 0)
(0.00458526 -0.0792164 1.04636e-19)
(1.14955 0.0320449 1.12553e-22)
(1.1294 0.345611 2.47769e-20)
(0.261258 0.0285944 4.82812e-20)
(0.400234 -0.511738 -3.6493e-20)
(1.31015 0.0729698 0)
(1.2236 0.199456 2.34891e-20)
(1.22384 0.213012 -2.8853e-20)
(0.102718 0.0940549 -2.29041e-20)
(-0.073432 0.00777486 0)
(1.06935 -0.0570193 -1.90808e-20)
(1.1003 -0.220774 -1.38644e-20)
(0.579552 -0.396622 0)
(1.09449 -0.148199 -2.44394e-20)
(-0.10902 0.136103 0)
(0.608178 0.0537357 0)
(1.44959 0.0223073 4.34178e-20)
(1.01255 0.00931856 3.00148e-22)
(1.08192 0.749011 -1.23132e-20)
(0.223216 -0.37338 1.29757e-19)
(1.07493 -0.00508629 -3.05392e-22)
(1.20943 0.0703365 3.12825e-21)
(-0.0608703 0.084283 3.21551e-20)
(0.790879 0.737301 2.37847e-20)
(1.34195 -0.370434 -1.30668e-20)
(-0.185407 -0.0663372 7.52898e-20)
(1.08642 0.0232741 0)
(0.236302 -0.0181599 -9.66195e-21)
(0.891311 -0.63036 2.8317e-21)
(0.90382 0.644713 -2.4257e-20)
(0.539966 -0.0353437 -6.34384e-20)
(1.1455 -0.00862791 6.42185e-21)
(1.07773 -0.0862114 5.80662e-21)
(1.14305 0.0699062 -3.37836e-21)
(1.10568 0.122233 1.3454e-21)
(1.13235 -0.130063 0)
(0.910378 0.112507 1.5275e-20)
(0.889972 0.460958 0)
(1.29267 0.135865 5.22966e-21)
(1.17051 0.112216 -3.85937e-21)
(0.754017 0.265325 0)
(0.520802 0.110818 1.11475e-19)
(0.897234 0.717134 -8.075e-22)
(1.08147 0.292144 -1.90283e-20)
(1.03704 -0.0122373 1.02229e-20)
(0.417024 0.498692 0)
(1.28875 -0.471603 0)
(0.718337 -0.0914507 6.45258e-21)
(1.26804 0.506059 0)
(-0.0245759 0.0614174 -4.4935e-20)
(1.27717 -0.4139 -1.09561e-20)
(1.16982 0.513292 0)
(0.452888 0.22526 1.64726e-19)
(1.12688 0.318061 -1.25585e-19)
(0.809296 -0.63269 -2.53398e-20)
(1.15569 0.0676025 -4.89252e-21)
(0.917962 0.15304 8.49708e-20)
(1.08972 0.170087 4.38147e-20)
(1.07507 0.707773 -1.13485e-21)
(0.898394 -0.431941 6.33601e-20)
(1.4382 0.178172 4.6922e-20)
(1.13194 0.00392925 6.82952e-22)
(0.00378015 -0.0431825 9.34389e-20)
(1.0748 -0.696969 2.68869e-20)
(0.864608 -0.71279 5.19232e-20)
(0.249087 -0.322716 0)
(0.971012 -0.145495 6.97376e-20)
(0.363409 0.31584 -4.27723e-19)
(-0.111631 0.0138265 2.47771e-20)
(0.241186 0.0529009 2.39072e-20)
(0.668795 -0.058457 -7.46697e-20)
(1.08361 0.533564 0)
(0.992944 0.223272 7.42494e-20)
(1.08566 0.029605 2.06473e-21)
(0.914091 0.447578 -8.63696e-20)
(0.774667 -0.718086 -8.26808e-21)
(0.927851 0.025953 -4.74463e-20)
(0.981155 0.494409 0)
(1.20515 0.183015 -1.2657e-20)
(1.37298 -0.512994 1.34116e-20)
(1.22343 -0.339046 9.01254e-21)
(-0.314317 0.110107 3.92485e-20)
(0.194016 0.0133754 -1.77912e-20)
(0.97228 -0.115978 -5.6251e-20)
(0.355255 0.531831 0)
(0.917025 0.0210366 3.78047e-20)
(1.16062 0.639371 8.62079e-20)
(-0.0630671 -0.0728181 1.46989e-19)
(-0.0821822 0.0668117 -2.68263e-20)
(-0.0856442 -0.0658393 4.2491e-20)
(1.09795 0.0203541 -2.55077e-21)
(1.12267 -0.458275 0)
(1.05949 -0.728471 -4.0646e-20)
(0.70032 0.355494 0)
(0.0312684 -0.0787582 -1.04223e-19)
(1.06747 -0.00152414 2.65085e-21)
(-0.0330485 -0.0663768 -2.97753e-20)
(1.04702 0.056004 -1.23128e-20)
(0.101665 0.0347707 5.82012e-20)
(0.846426 0.129357 0)
(1.37607 -0.0438094 5.08672e-20)
(0.0560867 0.0649861 -2.71433e-20)
(-0.30525 0.0867312 -4.66011e-20)
(-0.266347 0.110023 0)
(0.0797227 -0.0116497 0)
(1.33545 -0.0174591 -1.44424e-20)
(0.37464 -0.0104899 1.54205e-19)
(1.25802 -0.721782 -2.32167e-20)
(0.954264 -0.142002 3.79348e-20)
(1.07469 0.251994 -2.59246e-20)
(0.364131 -0.548608 1.37768e-19)
(1.55443 0.281838 -3.75272e-20)
(0.0623401 -0.0551685 3.60667e-20)
(0.209074 0.313698 1.90871e-19)
(0.0892169 -0.0305153 -1.35474e-19)
(0.938263 -0.487756 -4.23699e-20)
(1.45842 0.390638 3.83903e-20)
(0.561035 -0.668246 4.81871e-20)
(1.10652 -0.0829925 -5.94941e-21)
(0.201875 4.3001e-05 5.61895e-20)
(1.18409 0.293708 -4.99516e-20)
(0.664714 0.645967 -3.84062e-20)
(1.32794 -0.620115 0)
(1.42146 0.522525 3.53841e-20)
(1.04714 -0.523866 -1.22034e-20)
(1.39298 0.609701 -1.09577e-19)
(1.18272 0.0426007 0)
(-0.0569386 0.0935431 0)
(1.25583 0.73336 0)
(1.15236 -0.000557848 -3.9945e-21)
(0.737014 -0.295622 -2.0231e-19)
(0.475764 -0.0757712 0)
(-0.0597586 0.104023 -2.72459e-20)
(1.01993 -0.243533 9.35581e-20)
(-0.376158 0.0513612 0)
(0.321411 0.0337284 1.20204e-20)
(1.14609 0.0429169 0)
(1.41833 0.278262 0)
(1.18457 0.0648733 5.23892e-21)
(0.359456 -0.283803 0)
(1.01665 0.152484 3.37239e-20)
(1.31156 0.28847 0)
(-0.115116 0.0792879 -7.09924e-22)
(0.809191 -0.390021 0)
(1.52113 0.339951 -5.70957e-20)
(1.24521 0.371684 -3.28352e-21)
(0.844388 0.651842 -9.27078e-21)
(1.01366 0.158822 -8.19206e-20)
(0.967792 -0.202116 -4.58179e-20)
(1.4574 0.296856 3.35791e-20)
(1.01981 0.11273 0)
(0.563555 -0.0644741 0)
)
;

boundaryField
{
    FrontBack
    {
        type            empty;
    }
    Top
    {
        type            noSlip;
    }
    In
    {
        type            fixedValue;
        value           uniform (1 0 0);
    }
    Bottom
    {
        type            noSlip;
    }
    Out
    {
        type            zeroGradient;
    }
    circle
    {
        type            noSlip;
    }
}


// ************************************************************************* //
