/*--------------------------------*- C++ -*----------------------------------*\
| =========                 |                                                 |
| \\      /  F ield         | OpenFOAM: The Open Source CFD Toolbox           |
|  \\    /   O peration     | Version:  2412                                  |
|   \\  /    A nd           | Website:  www.openfoam.com                      |
|    \\/     M anipulation  |                                                 |
\*---------------------------------------------------------------------------*/
FoamFile
{
    version     2.0;
    format      ascii;
    arch        "LSB;label=32;scalar=64";
    class       volScalarField;
    location    "37";
    object      p;
}
// * * * * * * * * * * * * * * * * * * * * * * * * * * * * * * * * * * * * * //

dimensions      [0 2 -2 0 0 0 0];

internalField   nonuniform List<scalar> 
808
(
0.122009
0.0352563
0.0407879
0.121232
-0.266693
0.0341845
0.0252827
0.0303897
-0.146442
-0.0186309
0.0345614
-0.169929
0.0278271
0.0286277
-0.206457
0.0261593
-0.216648
0.0278158
0.0571487
0.0244617
0.0654261
0.396243
0.095441
0.00115969
0.475637
-0.161462
-0.0726163
0.0151675
0.0286071
0.0360933
0.0233269
0.0306186
0.0329051
0.0283146
-0.0701804
0.631388
0.0341429
0.044289
0.0316905
0.0260511
-0.0391673
-0.0686138
0.0563647
0.0395356
-0.223313
0.112383
0.0375967
-0.00672784
0.0304924
-0.18516
0.0327516
0.0195937
0.0671156
0.0159457
-0.0483254
0.0292894
0.0118406
0.0417768
-0.0216738
0.0252058
-0.35027
-0.00965542
0.0368957
-0.158868
0.042032
0.0670132
-0.289847
0.0295842
0.059381
-0.321746
0.0354616
-0.36617
0.0295393
0.0350487
0.170048
0.0451552
0.0189871
-0.032442
0.0302131
0.337767
-0.100934
0.0317567
0.0482517
0.268649
0.0504472
0.000739341
-0.407833
-0.0674858
0.0397958
-0.160841
0.046939
-0.106719
0.276309
0.180566
0.0603397
-0.222023
0.0236769
-0.134252
-0.105087
-0.217515
0.0367907
0.0231284
0.0496036
0.00951474
-0.0273568
0.0817873
-0.281125
-0.0220532
0.0272122
0.0123408
-0.0188264
0.353286
0.032976
0.0256411
0.0322555
0.456211
0.030728
-0.308059
0.0355934
0.0645908
-0.257302
0.0571401
0.0283163
0.0643126
0.135911
-0.0144264
0.105377
-0.0127869
0.0311426
0.0893923
-0.336122
0.027729
-0.0277602
0.150794
0.0345635
0.0289442
0.0950263
0.0243876
0.0354996
0.0264949
-0.230248
0.0504709
0.0757667
0.0341064
0.00381338
0.0475506
0.0999001
0.157455
-0.102255
0.0196436
0.0328545
0.365202
0.0425745
0.551368
-0.261749
-0.0640639
0.0348296
-0.22609
0.0966406
-0.0865359
-0.34863
-0.23997
-0.346801
0.0334201
0.0823719
0.0359808
0.035445
-0.372597
0.0275816
0.0415802
0.0490954
0.182827
0.0679581
0.107109
0.0389987
0.0743016
0.0929874
-0.161601
0.0369112
-0.399211
0.0373452
-0.0981518
0.0322259
0.259686
-0.290779
0.140458
0.0405757
-0.115787
0.0440946
-0.079255
-0.238835
-0.0382874
0.0356401
0.0819154
0.0332862
-0.206728
0.0367177
0.0293233
0.00425778
0.10467
0.0724138
0.0263623
0.0349066
-0.381081
0.38962
-0.207207
-0.337201
0.0132734
0.0127387
0.0327158
-0.00913279
-0.455419
-0.277289
0.0368315
-0.0106559
0.0303503
-0.379328
4.2039e-05
-0.0253843
0.0199949
-0.00439754
-0.0475905
0.0351869
0.0329735
0.00845933
0.0367065
0.148698
-0.277646
-0.0246006
0.0259821
0.141161
0.0249473
0.0255677
0.0226899
-0.0948376
-0.00340067
0.00985662
-0.00174493
-0.0266133
0.0187524
-0.00709524
-0.000459147
-0.0112389
0.00635464
0.00396643
-0.00101893
0.0121539
0.00843057
-0.0120112
0.0737263
-0.358508
0.00944881
0.0504423
-0.0219922
0.0245669
0.021776
0.0285195
-0.00733597
0.0288566
0.151001
-0.00236857
0.0271841
0.0146079
-0.111656
0.0445037
0.0152049
-0.0210551
0.0397933
-0.013474
0.0455442
-0.0314851
-0.455828
0.298112
0.0476775
-0.0778537
0.0207771
0.0387761
0.0321767
-0.15395
0.263941
0.0219658
0.00737937
-0.0616762
0.0905958
-0.237858
0.0386893
0.0683327
-0.0685856
0.0219079
0.0787167
0.0349044
0.0382157
-0.0211256
-0.0173673
-0.00366276
0.0340702
0.00758233
0.0821516
0.0163734
0.0247124
-0.0195801
0.0329606
-0.041569
0.0361695
-0.55395
-0.06994
0.0521645
-0.112126
-0.180241
-0.346802
0.0508466
0.0302328
-0.34075
0.128716
0.155014
0.038373
0.0376487
-0.0117584
0.00917458
-0.252887
0.053192
-0.00257696
0.048314
0.0662069
0.0190372
0.0469748
-0.0508456
0.0176622
0.0296508
-0.288798
-0.013888
0.0288819
-0.115932
-0.094614
0.0314637
0.254342
0.0639946
-0.150513
0.552055
0.02172
0.00824698
0.0433566
-0.0795857
-0.0168253
-0.0306435
0.0513991
0.017846
0.0477184
-0.037994
-0.19278
-0.0514577
0.130646
-0.00231205
-0.271057
-0.347041
-0.312091
-0.348452
-0.0194072
0.0340789
0.0359061
0.0402648
-0.0077363
0.0173098
0.0407773
0.00477797
-0.549569
0.013862
0.0282612
0.0382008
0.0470666
0.0270936
0.0210421
0.114842
-0.409334
-4.14468e-05
0.00253457
-0.0243557
0.113546
-0.302068
0.0160018
-0.25154
0.00631868
0.0582691
0.0444647
0.0304924
0.0402551
-0.0728416
-0.395835
0.0229053
0.036293
-0.0555845
0.0764108
0.0177043
0.0281002
0.0162824
0.00735199
-0.0865701
0.0306013
0.0174756
0.0351318
-0.10197
-0.291138
0.0935028
-0.0318755
-0.000383471
-0.00225987
0.420186
-0.225662
-0.00265512
-0.0110229
0.0187903
0.0141236
0.0424125
0.077025
0.00466832
-0.077932
-0.0197743
0.0148736
-0.00386609
-0.00636086
-0.011881
-0.0108128
0.0241116
0.115019
0.0560631
0.0202471
0.0180579
0.052996
0.0012388
0.0457095
-0.414179
0.0963523
0.0598292
0.0160554
-0.214753
-0.295714
0.00231437
-0.105509
-0.0137387
0.0411373
-0.42029
-0.25431
0.26247
-0.373841
-0.498094
0.0203239
-0.108384
0.0011668
-0.245599
0.35548
-0.00870691
-0.314272
0.0247859
0.0566314
0.56717
0.0235279
0.0100867
0.0793451
-0.0253861
0.00771206
-0.427679
-0.208652
0.0324653
0.0661555
0.0293126
-0.292901
-0.363135
-0.170171
0.0402301
0.0626997
0.116223
0.00476376
-0.00203855
0.10234
0.0432099
0.0313013
-0.116776
-0.232007
0.0835736
0.000641791
0.0304189
0.0341742
0.0829081
-0.0239289
0.0471883
-0.519145
0.451457
-0.124252
-0.293274
0.00869958
2.18648e-05
-0.273378
-0.259746
0.120753
-0.381887
0.00288604
0.873533
0.031664
-0.40998
0.0210352
-0.003698
-0.0206419
-0.49526
-0.269792
-0.351591
0.018492
0.00556943
-0.413933
0.0113162
-0.00230941
0.135932
-0.382047
0.0549049
-0.550617
-0.262253
-0.320438
-0.0275995
0.0166191
0.0172786
0.1299
0.125672
0.00664026
-0.296728
0.304723
-0.0103574
-0.00181093
-0.49317
-0.549015
-0.392105
-0.0377985
-0.399653
-0.0158769
0.130175
0.0990259
-0.0472984
-0.259152
0.0131428
-0.329161
-0.206505
0.00856789
0.0192673
-0.423532
0.0124688
0.0609559
-0.428368
-0.35489
-0.0563456
0.131062
0.0360449
-0.372874
-0.247642
-0.140369
0.00484522
0.0689393
0.125505
0.0106125
-0.250536
-0.227992
0.130549
0.0364839
0.00312854
0.0425136
0.0600685
-0.268781
0.0187303
-0.29727
0.0652429
-0.364198
0.125443
0.00130959
-0.298927
-0.388532
0.00273594
-0.511776
-0.512065
0.0596924
-0.0291929
-0.253677
0.0352326
-0.311776
0.0189281
0.113301
0.0641294
-0.410785
0.0113333
0.149278
-0.393701
0.0125693
-0.30249
0.0321199
-0.34683
-0.443545
0.0882615
0.302983
0.44987
-0.0151108
0.00304133
0.00114511
-0.395059
0.662077
0.0372861
-0.15599
0.0306664
-0.0944169
0.0755966
0.51144
-0.305058
-0.0278889
-0.0206033
0.0333581
0.0313382
-0.385173
-0.279631
-0.307153
-0.285691
-0.306888
0.0194596
-0.392808
-0.0540922
-0.205722
-0.26078
0.542749
0.616938
-0.212193
0.0931705
-0.261295
-0.00451012
-0.0673765
0.439596
-0.00227413
-0.36558
-0.108358
-0.445358
0.0053904
-0.146734
0.0208632
-0.250322
-0.198967
0.00191777
0.0031792
-0.371979
0.43881
0.696903
-0.387018
-0.248309
-0.383602
-0.0416817
-0.244433
-0.249915
-0.13437
-0.368396
0.780342
-0.276805
0.745981
-0.46039
0.322114
-0.362494
0.0285049
0.208852
-0.434309
0.205601
-0.205412
-0.247395
-0.27678
0.890734
-0.272186
0.205604
0.13774
0.643495
0.120126
-0.286566
-0.200898
-0.056603
0.0157992
0.125281
0.513882
0.0126373
0.0084326
-0.2489
0.15713
-0.148827
-0.174292
0.0366805
-0.285167
-0.188087
-0.110194
-0.424158
0.0282052
0.104813
0.0141834
0.106145
0.10179
-0.265032
-0.303488
-0.0286559
0.0408391
-0.405193
-0.44844
0.213423
0.225595
0.0953123
0.696147
-0.10708
-0.419296
-0.327517
-0.237129
-0.0840231
0.121115
0.783949
-0.388033
0.363616
0.0144561
-0.359519
0.185706
-0.032273
0.375246
-0.106918
0.0389933
-0.384722
-0.105405
0.176511
0.820423
0.333127
0.78395
-0.355752
-0.223516
-0.470472
0.203509
0.297373
0.0878387
0.41258
0.11514
0.507516
0.309148
-0.0752035
-0.220919
0.00731844
-0.34144
0.899649
0.413946
0.678329
0.527175
-0.216966
-0.368013
-0.255462
-0.312966
0.0726335
-0.445447
0.0813225
0.622167
-0.415489
0.00992123
-0.316504
0.214965
-0.264319
-0.302032
-0.0739531
-0.216395
-0.294362
-0.302215
-0.393649
-0.0568806
-0.474733
-0.163223
-0.427128
0.179917
0.653072
-0.163844
-0.380103
0.850356
-0.376092
0.274133
-0.181653
0.376499
0.0893127
-0.362672
-0.332738
0.475732
-0.311728
-0.266058
0.172187
-0.224393
0.0150824
-0.241275
-0.0733345
0.0217227
0.570225
0.791985
-0.244551
0.220792
-0.31434
0.838307
0.0174547
-0.253497
0.0153901
0.769956
0.237832
-0.261629
-0.244287
0.44961
-0.159281
0.0763314
0.384898
0.282817
0.291341
-0.196499
-0.245123
0.7008
)
;

boundaryField
{
    FrontBack
    {
        type            empty;
    }
    Top
    {
        type            zeroGradient;
    }
    In
    {
        type            zeroGradient;
    }
    Bottom
    {
        type            zeroGradient;
    }
    Out
    {
        type            fixedValue;
        value           uniform 0;
    }
    circle
    {
        type            zeroGradient;
    }
}


// ************************************************************************* //
