/*--------------------------------*- C++ -*----------------------------------*\
| =========                 |                                                 |
| \\      /  F ield         | OpenFOAM: The Open Source CFD Toolbox           |
|  \\    /   O peration     | Version:  2412                                  |
|   \\  /    A nd           | Website:  www.openfoam.com                      |
|    \\/     M anipulation  |                                                 |
\*---------------------------------------------------------------------------*/
FoamFile
{
    version     2.0;
    format      ascii;
    arch        "LSB;label=32;scalar=64";
    class       surfaceScalarField;
    location    "37";
    object      phi;
}
// * * * * * * * * * * * * * * * * * * * * * * * * * * * * * * * * * * * * * //

dimensions      [0 3 -1 0 0 0 0];

oriented        oriented;

internalField   nonuniform List<scalar> 
1171
(
-0.945268
0.945268
0.766008
-1.06962
0.303614
-0.0663624
-0.787068
0.85343
0.0547319
-0.0760509
-0.276039
0.35209
-0.766008
0.0781013
0.687907
0.901765
-0.203017
-0.698748
0.830744
-1.06129
0.230542
-0.349967
-0.047927
0.397894
-0.00970215
0.59956
-0.589858
-0.682046
1.00689
-0.324842
-0.426018
1.00948
-0.178736
0.227289
0.104269
-0.331558
0.964657
0.0448236
0.298685
-0.0713963
0.991829
-0.0271717
0.778042
-0.844404
-0.778206
0.606541
0.171665
0.114705
-0.796752
0.553674
-0.912295
0.358621
-1.07907
0.668883
0.410189
-0.642358
0.632656
0.0300909
-0.250072
0.219981
0.0347793
-0.650841
0.616062
0.46043
-0.508357
-0.855333
0.909669
-0.0543361
1.00513
-0.0133013
0.918609
-1.08397
0.165361
1.01492
-0.00979287
-0.693668
-0.084538
1.2964
-0.880065
-0.416336
0.159589
-0.0853947
-0.395521
0.480916
-0.275202
0.187896
0.0873056
-0.595884
-0.473738
1.00181
-0.0831971
-0.0312005
0.884217
-0.853016
0.510842
0.785559
0.514165
0.0116507
0.44878
-0.785949
-0.110904
0.896853
0.582934
0.25741
-0.840344
0.0156923
0.661804
-0.677496
-0.508099
-0.570972
-0.385773
-0.698197
0.0180849
0.252446
-0.27053
-0.956523
-0.0364256
0.992949
0.365701
0.0321925
0.830741
0.0710244
-0.595997
-0.0463612
0.0392581
-0.825207
0.0759199
0.992378
-1.0683
-0.405571
0.029044
0.376527
-0.716278
-0.240245
-0.803817
0.879737
0.764237
0.242652
-0.578207
0.999285
-0.815389
-0.183896
-0.149258
0.084022
0.0652358
-0.454741
-0.0536169
-0.315544
1.07978
0.0164573
0.406883
-0.423341
-0.553121
1.13606
0.707032
-0.817936
0.381958
-0.0492748
-0.332684
0.786541
-0.786541
-0.877964
0.0480401
-0.324079
-0.696523
0.665323
-0.0440394
-0.14983
0.193869
0.882625
0.00159169
1.06383
-0.806422
0.222858
-0.322057
0.0991992
0.929472
-0.0987315
-0.665953
-0.0602822
0.726235
0.149563
-0.231062
0.0814994
0.789597
-0.992614
-0.438363
0.308962
0.129402
0.684963
-0.650183
0.885212
-0.403867
-0.481345
0.499439
-0.694842
0.0359542
0.658888
0.0891279
0.658774
0.0406443
-0.699418
0.14576
-0.0977198
-0.510074
0.104504
0.0365537
-0.899932
0.863378
-0.546572
-0.752944
0.0592758
0.493028
-0.0442484
0.276433
-0.83381
0.557377
0.424027
0.575973
0.600403
-0.561144
-0.398416
0.0224184
0.375997
0.548037
0.238505
-0.694799
0.710491
0.0975068
0.867698
0.00789114
-0.673844
-0.762288
0.798842
0.598492
0.119295
0.316486
-0.435781
-0.156324
0.581352
0.0804518
0.817875
-0.97274
0.154865
0.661808
0.337477
-0.436656
0.690286
-0.570992
0.408273
0.145401
-0.0544703
-0.65807
-0.275708
0.933778
-0.121741
-0.6648
-0.615412
0.363557
0.251856
0.659491
-0.651599
0.30805
1.04997
0.013866
-0.762288
-0.116509
-0.0327488
0.707032
0.787419
-0.787419
0.840656
-0.825326
-0.0153297
-0.454768
0.878794
-0.193419
-0.316655
0.762354
-0.672596
-0.0897585
-0.975009
0.31694
0.114904
-0.710901
0.817936
-0.97426
-0.233965
0.182725
0.0512404
0.107284
-1.01678
0.909499
0.534531
-0.0203653
-0.290164
0.595157
-0.304993
-0.664317
0.771601
-0.155899
0.623104
-0.802258
0.179154
1.05651
-0.64197
-0.414542
0.732949
-0.0673029
-0.011482
0.00962139
0.00186061
-0.799305
-0.694009
-0.0930588
-0.696523
0.576208
-0.547164
0.297822
0.573562
-0.871384
0.777618
0.16765
0.491941
0.508059
-0.163353
-0.68234
0.845693
0.979679
-0.161805
-0.732949
0.798842
0.182544
-0.432616
-0.0121587
-0.00454445
0.0167031
0.678269
-0.434385
-0.243884
0.687907
-0.0614344
-0.0709048
0.56754
0.110729
-0.017015
0.00199862
0.0150163
0.00312661
-0.0146086
0.180013
-0.229288
-0.943318
0.0331839
-0.144476
-0.0539518
0.139933
0.820511
0.742164
-0.16619
0.594532
-0.29671
-0.166483
0.389341
0.650451
0.0374557
0.232519
-1.05785
-0.97426
0.321453
0.665323
-0.171934
0.022104
-0.853695
1.0399
-0.186206
0.483552
-0.107026
0.796075
0.305158
0.339541
-0.0408555
-0.68038
0.68038
0.233541
0.663312
-0.0323584
0.439242
0.448558
0.0336373
-0.045796
0.530347
0.00418333
-0.664317
0.566786
0.195568
-0.00634913
0.0159705
-0.650451
0.151788
0.888114
0.0263953
-0.725399
0.699004
0.759302
-0.822694
0.0633922
-0.777618
-0.0463866
0.0630535
-0.0166669
0.0877053
-0.117578
-0.10307
0.220648
-0.00979277
-0.00722218
0.751058
-0.724663
0.982106
-0.128675
-0.206486
-0.691888
0.898374
0.00038455
-0.00038455
0.205143
0.552173
0.334425
-0.886598
-0.183978
-0.557633
0.741611
-0.0153632
0.209233
0.381463
-0.231901
1.0656
-0.513431
0.893575
0.91998
-0.585555
0.188044
0.771601
0.592865
0.253735
0.655935
-0.6648
0.31962
0.00280814
0.0530642
-0.0558723
0.914304
0.172506
-1.08681
-0.565693
0.5559
0.545232
-0.565693
-0.592865
0.5559
-0.00983636
0.997674
-0.0155689
-0.548037
0.461246
0.0867909
0.548303
0.697809
-1.24611
0.493996
0.571609
0.737726
0.526953
-1.26468
0.500086
0.419894
0.461246
-0.5375
-0.538727
-0.618478
-0.49135
-0.228696
-0.00860841
0.00860841
0.517785
0.527947
-1.0193
0.656715
-0.340229
-1.00098
0.359008
-0.700916
0.460672
-0.0901476
-0.848966
0.939113
0.451999
-0.181584
1.09589
-1.0103
-1.05083
0.221417
0.829412
0.505265
-0.298061
-0.207204
0.764369
-0.847566
1.01122
-0.887666
-0.123553
-0.175624
-0.797117
-0.221767
0.835255
-0.613488
-1.15573
0.980102
-0.532991
0.570496
-0.0375052
-0.595771
-0.190754
0.786524
0.0055291
-0.00514455
0.421834
-0.000916645
-0.907792
0.908708
-0.8279
0.664547
1.05076
0.220078
-1.27084
-6.76631e-05
-0.0292077
0.405205
-0.362442
0.0403851
0.880284
-0.970432
-0.724446
-0.848551
0.0514349
-0.100988
-0.883651
-0.00401483
0.353837
0.240695
0.157022
0.348243
-0.735135
0.544381
0.481345
-1.03055
-0.935647
0.062027
0.247009
0.535143
-0.782152
0.0554619
-0.477437
0.579401
0.179901
0.199992
0.895895
1.20152
0.921093
-0.925108
0.0497899
-0.0497899
-0.0826428
-0.160435
-0.137626
0.325834
-0.00438108
0.278106
0.951357
-0.00139523
-0.00839754
0.656718
0.343282
0.797099
-0.595884
-0.768967
-0.609646
-0.501564
0.501564
-0.208426
-0.115653
0.694935
-0.878185
0.18325
-0.491588
-0.536324
0.312965
-1.01116
-0.864504
0.74095
-0.631235
0.68267
0.673418
0.163034
-0.836452
-0.647151
-0.184532
0.831464
-0.646932
-0.0868537
0.00201338
0.00292234
-0.00493572
-0.243829
0.0833937
1.0079
0.725686
-0.3161
-0.409586
0.518482
0.747493
-0.513952
0.0143605
-0.289562
-0.164189
0.851688
-0.687498
-0.337744
-0.117409
0.141823
-1.07556
-0.0112493
-0.715151
0.0934739
0.705879
-0.799353
-0.840651
0.1255
0.673117
-0.790525
0.236446
-0.354024
-0.628372
-0.0187787
0.370695
0.695272
-0.00498608
-0.00140246
0.00140246
-0.00660979
0.0682809
-0.0654727
-0.0161163
0.0147211
-0.387677
0.324992
0.788836
-0.776903
-0.0119326
-0.623314
0.716788
0.77336
-0.100243
-0.652061
-0.18859
-1.11007
0.0209175
0.0288724
-0.551866
-0.873828
-0.914204
0.497868
-0.0435191
0.0611397
-0.0176206
-0.216006
-0.335861
0.394124
0.71145
-0.0650222
0.0110703
1.09434
0.55259
0.148666
-0.701256
-0.359048
0.143042
-0.00749378
0.00950716
0.693856
-0.969564
0.00413224
-0.00413224
-0.74843
0.769369
-0.0209386
-0.202026
-0.149836
-0.689
0.25213
0.593563
-0.0617498
-0.873532
-0.463124
0.11978
0.343345
0.654718
-0.666651
0.363439
0.249989
-0.613429
-0.179972
-0.666637
-0.132716
-0.19584
-0.210995
0.463303
-0.51692
0.200195
0.738498
-0.938693
0.499439
-0.171803
0.128284
0.244334
-0.455328
0.594174
-0.0944905
-0.499684
-0.289525
0.308974
-0.0194488
0.58621
0.0705053
0.106723
-0.313953
0.171097
0.142857
-0.147008
0.0304994
-0.384942
-0.0973255
-0.0995159
0.196841
0.882325
-0.12912
-0.0729056
0.548118
0.330507
-0.646607
0.415695
-0.415695
-0.20823
-0.3989
-0.221099
-0.3989
-0.772971
-0.851342
0.178746
-0.266746
0.749346
0.0470105
0.0925606
0.602712
0.111148
0.125398
0.0068597
-0.132258
-0.146966
0.606558
-0.916778
0.22489
-0.148599
0.110877
0.0377223
-0.747175
-0.173572
-0.627068
0.775734
-0.51146
-0.163331
-0.291998
-0.337065
-0.0800488
0.0800488
0.0579071
0.00514642
0.146316
0.0916391
-0.67877
0.0517026
-0.0955349
0.472293
0.527707
0.77127
0.0328229
-0.0062067
-0.0266162
-0.300723
-0.57281
-0.572793
0.116371
-0.121136
0.00476473
-0.171567
-0.411146
-0.147956
0.74152
-0.572492
-0.174683
-0.0793089
0.0272882
0.32029
-0.632571
-0.201566
-0.212411
-0.0168772
-0.476113
0.435843
0.04027
-0.142033
0.293881
-0.864853
-0.527753
0.594553
-0.87843
0.698458
0.410034
-0.0288413
0.0507439
-0.0219026
0.0501372
-0.635223
-0.00316684
0.638389
-0.890196
0.648014
-0.730657
-0.175828
0.00945345
-0.00945345
-0.299593
0.382673
0.0225321
0.0169316
0.0158913
0.593506
0.661708
-0.506842
0.0123872
0.00156046
-0.00296292
0.00613018
-0.00613018
-0.451817
0.522323
0.0156666
-0.0156666
-0.774461
-0.011264
0.0167931
-0.525618
0.57732
0.644502
-0.665441
0.072589
-0.072589
-0.0498592
0.00406317
-0.00317809
-1.03971
0.625173
-0.469438
-0.00514455
0.598819
0.0139044
-0.612723
-0.710935
0.138443
-0.314065
-0.0136107
0.327676
-0.0410299
-0.0239923
-0.606278
-0.0289448
0.0288724
0.00531169
-0.00117945
-0.00341816
0.00341816
-0.088344
0.285185
-0.478021
0.138234
0.658864
-0.0985441
0.0043248
-0.0043248
0.508247
-0.284328
0.0090689
0.0194189
0.000985625
0.551094
-0.835422
-0.64469
0.571785
-0.0867652
0.340243
0.785492
-0.00660979
-0.0804165
0.096387
-0.638608
0.542339
-0.392986
-0.112116
-0.0268763
-0.0261741
-0.022323
0.452741
-0.0866826
-0.413001
0.70005
0.00247823
0.00283942
-0.00283942
-0.149271
0.0032951
-0.571866
0.618877
-0.131911
0.508474
-0.160334
0.938376
0.732059
0.00531169
-0.78854
0.661154
0.113737
-0.0185911
-0.0951455
0.429751
0.102664
-0.0114951
0.0638994
-0.0524043
0.00807692
-0.00807692
-0.744554
0.0227991
-0.048596
0.068015
-0.0857329
0.0857329
0.00156046
-0.00228498
0.73989
0.148224
-0.315371
-0.0957751
-0.515333
0.0344276
-0.0658136
0.0658136
-0.0764754
0.0841031
-0.0841031
0.0255018
-0.0255018
-0.355735
-0.0809206
0.238817
0.0701445
0.0455503
-0.758598
-0.0730138
0.160382
0.0221618
-0.239668
0.0834184
-0.0834184
-0.463148
-0.0537724
0.229726
-0.00974481
0.00189353
-0.652082
0.661918
-0.0572775
-0.0191979
0.103555
-0.0994915
-0.0115141
-0.160952
0.172466
-0.150033
-0.203991
-0.0806144
0.0806144
0.0543164
-0.0543164
-0.0280573
-0.0940393
0.122097
-0.0441081
-0.190326
-0.00745143
0.00448852
-0.041007
0.326192
-0.0257324
0.536313
0.00835187
0.00666447
-0.0498718
0.0498718
-0.733824
0.316622
-0.128577
-0.207712
-0.0233497
-0.0161157
0.0180092
0.194901
0.025747
0.00111174
-0.000126118
0.0858681
0.0305027
0.056598
0.103784
-0.0144815
0.0255519
-0.00129282
0.00023954
0.00507285
0.002065
-0.00713785
-0.00127896
0.0108301
0.0273995
-0.0273995
0.0477837
-0.0438827
0.0438827
-0.191346
0.00690401
0.025666
-0.0752478
0.0174249
0.0791501
-0.0791501
0.235171
-0.23416
0.0841274
-0.0666475
-0.167513
-0.0150021
0.0150021
0.405834
0.253054
-0.522218
-0.0813266
-0.0398089
0.544068
0.0594466
-0.0546695
-0.426994
0.110738
-0.152432
0.169227
-0.0167957
-0.0486474
0.0486474
0.89623
-0.592001
-0.00658302
0.00530405
-0.00568408
-0.289225
-0.000684768
0.0051185
-0.0509098
-0.626069
0.569106
-0.673862
0.0148008
0.110293
0.0159418
0.02437
-0.158116
-0.331777
0.256529
-0.0549743
0.0269169
0.170414
0.138559
0.312534
0.263238
-0.247296
0.00389341
-0.118811
-0.221323
0.0673716
-0.0107736
0.159031
-0.134661
-0.069484
0.155352
-0.423872
0.119052
-0.101627
0.0588417
-0.471843
0.174346
0.179942
-0.249426
0.0119418
-0.181085
0.180401
0.00426824
0.151084
-0.0282161
0.0477372
0.46051
0.0123974
0.0110034
-0.00392561
0.0418409
-0.238119
-0.202375
0.590089
0.167974
0.0617514
0.0739946
-0.063007
0.00781265
-0.102958
-0.0306687
0.165797
-0.150996
-0.0113196
-0.0020945
-0.109459
-0.0300015
0.0142323
0.252384
-0.0169604
-0.0916789
-0.311017
-0.0170883
0.220327
0.138186
0.178436
0.0574038
0.0963643
0.0710893
0.522416
-0.00843067
0.106569
0.0414423
0.068025
-0.109467
-0.269164
-0.195589
0.0280767
-0.219458
0.28294
)
;

boundaryField
{
    FrontBack
    {
        type            empty;
    }
    Top
    {
        type            calculated;
        value           uniform 0;
    }
    In
    {
        type            calculated;
        value           uniform -1;
    }
    Bottom
    {
        type            calculated;
        value           uniform 0;
    }
    Out
    {
        type            calculated;
        value           nonuniform List<scalar> 10(1.23172 1.0858 1.15721 1.07169 1.22476 0.911244 1.04573 1.02791 0.623925 0.619999);
    }
    circle
    {
        type            calculated;
        value           uniform 0;
    }
}


// ************************************************************************* //
