/*--------------------------------*- C++ -*----------------------------------*\
| =========                 |                                                 |
| \\      /  F ield         | OpenFOAM: The Open Source CFD Toolbox           |
|  \\    /   O peration     | Version:  2412                                  |
|   \\  /    A nd           | Website:  www.openfoam.com                      |
|    \\/     M anipulation  |                                                 |
\*---------------------------------------------------------------------------*/
FoamFile
{
    version     2.0;
    format      ascii;
    arch        "LSB;label=32;scalar=64";
    class       volVectorField;
    location    "37";
    object      U;
}
// * * * * * * * * * * * * * * * * * * * * * * * * * * * * * * * * * * * * * //

dimensions      [0 1 -1 0 0 0 0];

internalField   nonuniform List<vector> 
808
(
(0.896679 -0.0119264 0)
(1.00659 -0.0395642 0)
(1.08846 -0.193577 0)
(1.06646 0.0113792 -2.54668e-21)
(1.48781 -0.256742 0)
(0.947903 -0.0214485 0)
(1.10606 -0.0530416 -6.2679e-21)
(1.14012 -0.0480626 0)
(1.35495 -0.203803 2.81159e-20)
(1.21576 -0.0666635 -5.69877e-21)
(1.20281 0.105069 1.00434e-20)
(1.39117 -0.21934 0)
(0.998292 -0.0446538 0)
(0.732737 -0.021179 0)
(0.960869 0.0768911 1.48235e-20)
(1.07727 -0.0352019 0)
(0.826995 0.0650087 -5.46545e-21)
(0.972539 -0.0236467 -1.23183e-22)
(1.18574 -0.0948819 0)
(1.10529 0.00149957 0)
(1.17732 0.0814717 -1.40138e-20)
(0.925853 0.122312 1.15901e-19)
(1.07315 0.01122 -1.78958e-20)
(1.16773 -0.0333738 0)
(0.955138 0.179445 0)
(1.36953 0.0675647 -2.63554e-20)
(1.28123 -0.146908 1.03398e-20)
(0.981602 -0.0320062 -8.39583e-21)
(1.05863 -0.0132288 0)
(1.05462 0.0189403 -3.05122e-22)
(0.978838 -0.00412594 6.79984e-24)
(1.11396 -0.0127997 0)
(1.07628 0.0507581 0)
(1.08106 -0.0237459 7.09714e-21)
(1.27769 -0.0442611 6.19289e-21)
(0.746551 -0.119233 1.11053e-19)
(0.860213 -0.0283539 -1.36824e-20)
(1.04905 0.0386943 1.85027e-21)
(1.18931 0.0592442 -4.47483e-21)
(1.12385 0.0454354 0)
(1.23588 -0.054445 -1.03734e-20)
(1.26726 -0.109557 0)
(1.00712 -0.0131731 -1.16527e-20)
(1.13961 -0.0131015 1.31984e-20)
(1.31203 -0.102427 0)
(1.01009 0.0160856 -2.41726e-20)
(1.01094 0.0365649 3.42999e-21)
(1.25661 -0.225948 1.34403e-20)
(1.17676 0.0553517 -9.66773e-21)
(1.40333 -0.128422 -4.06166e-20)
(1.10329 -0.0363945 1.18689e-20)
(1.14101 -0.0578723 0)
(1.1166 -0.000891912 1.04653e-20)
(1.20069 -0.00287095 0)
(1.31903 0.232167 2.06519e-21)
(1.0763 0.0439588 -3.92345e-21)
(1.27261 0.0531987 0)
(1.31335 -0.0104029 2.0198e-21)
(1.22404 -0.0761549 6.11745e-21)
(1.14607 0.0226045 -1.39148e-21)
(-0.175135 0.238415 0)
(1.21599 -0.199867 -8.49557e-21)
(1.25285 -0.0478867 0)
(1.38226 -0.0322729 -2.52205e-20)
(1.17311 -0.0213008 -1.33184e-20)
(1.03684 -0.0284164 -1.15907e-20)
(1.38912 -0.0393665 2.76184e-20)
(0.667573 0.0202601 0)
(1.1622 0.0093017 0)
(1.47848 -0.3306 0)
(0.896127 0.0294918 -3.11237e-22)
(1.31719 -0.108827 -4.83466e-20)
(1.00651 0.0509426 0)
(1.05966 -0.034584 -5.98473e-21)
(1.13173 -0.329432 -5.34748e-20)
(1.09908 -0.012327 -2.24622e-20)
(1.13537 0.0126435 -3.21868e-22)
(1.31789 0.497623 2.4555e-20)
(1.09061 -0.0387864 0)
(1.00852 0.277006 -1.94345e-19)
(1.36846 0.0209028 1.29915e-20)
(0.753874 0.0123555 0)
(0.854639 0.0236317 -1.47857e-20)
(0.971888 -0.11045 4.17229e-21)
(1.10619 -0.0278097 1.75708e-20)
(1.171 0.00533893 3.35902e-22)
(1.34549 -0.215597 0)
(1.34085 0.287206 0)
(1.08249 0.0023676 -1.85756e-20)
(1.4154 0.108688 2.98776e-20)
(1.07217 -0.017236 1.42243e-20)
(1.30973 -0.089641 -1.46531e-21)
(0.965094 0.0231431 1.87375e-20)
(1.00351 -0.0248098 0)
(1.11209 0.011952 2.25247e-21)
(1.30292 0.0384376 -5.84978e-20)
(0.772485 0.0141978 -2.95965e-21)
(1.38804 -0.0691086 0)
(1.30098 -0.0624867 0)
(1.41559 -0.00568036 -4.63307e-20)
(1.09042 -0.0397995 -7.49967e-21)
(1.11334 0.00593148 -1.98059e-22)
(0.943628 0.019847 1.30981e-20)
(1.16485 -0.015767 3.78405e-22)
(1.25026 -0.00448091 -6.96894e-21)
(1.00174 0.00114595 1.75227e-20)
(1.50697 -0.135984 0)
(0.969974 0.227635 0)
(1.09646 0.030441 8.52184e-21)
(1.20875 -0.204124 -5.64851e-21)
(1.2343 -0.00731974 3.40608e-21)
(1.04086 0.0407142 -1.27544e-19)
(1.15791 0.0352312 -3.34727e-21)
(1.23977 0.215157 3.64773e-21)
(0.814247 0.0211997 0)
(0.920307 -0.0507853 7.61541e-20)
(1.14222 0.0142486 -9.37002e-21)
(1.47349 -0.228136 -2.08503e-20)
(1.14284 -0.0447581 -1.06597e-20)
(0.928263 0.0172058 2.12425e-21)
(-0.304859 0.1262 0)
(0.852063 -0.0190428 2.1581e-21)
(0.796546 0.0220954 0)
(1.05788 0.00350558 -1.01918e-22)
(1.01274 0.0286934 0)
(1.3065 0.320723 3.68376e-21)
(1.0369 -0.0478202 -3.16203e-20)
(1.41132 0.196293 -1.53736e-21)
(1.14371 -0.0578155 0)
(1.09162 -0.0204077 0)
(0.757568 0.0886585 0)
(1.15526 -0.0351772 -4.66145e-21)
(1.22185 -0.0381354 5.38163e-21)
(1.06701 0.109919 -3.77561e-20)
(0.85542 -0.0365074 0)
(1.09782 0.0189776 -2.3256e-21)
(0.956423 0.11197 4.74969e-21)
(1.08964 0.0321818 -3.47329e-21)
(0.996786 0.0321767 5.79881e-21)
(1.11846 0.00553302 1.66034e-22)
(-0.00574891 0.0720261 0)
(1.09031 -0.0184749 -1.56744e-20)
(0.900242 -0.157162 3.31851e-21)
(0.714771 0.0251946 -5.45775e-21)
(1.25901 0.171763 4.41062e-21)
(1.09779 0.257457 3.63245e-21)
(1.0442 0.0201373 1.77487e-20)
(0.991469 0.0279455 0)
(1.17902 -0.314713 -1.58319e-20)
(1.143 0.233614 0)
(0.944441 0.0308428 1.13624e-20)
(0.966162 0.276859 1.55153e-19)
(0.969492 0.0356981 0)
(0.820387 0.0937223 0)
(-0.0974673 0.0879255 -6.34529e-20)
(1.34345 0.136333 -8.85562e-21)
(0.679236 -0.0219926 0)
(1.48137 0.027941 0)
(1.03214 -0.0524142 0)
(1.36274 0.0987087 1.07032e-20)
(-0.0552765 -0.116778 0)
(-0.0482215 0.0818641 2.89817e-20)
(1.13484 0.0324195 1.01851e-19)
(1.00521 0.0362023 1.87705e-21)
(0.857335 -0.00179669 0)
(1.04891 -0.0536041 1.49372e-20)
(0.885314 0.0210928 0)
(0.871744 0.0347038 -1.10037e-19)
(1.03694 0.0479472 1.5702e-20)
(1.17185 -0.0306121 4.17011e-21)
(1.08897 0.0110186 8.2936e-21)
(1.01347 0.0678005 -1.36241e-20)
(0.789772 0.299987 -3.61621e-21)
(1.14198 -0.343016 4.19224e-22)
(0.916939 -0.0183098 0)
(1.06569 0.00505894 -1.43248e-20)
(0.872599 0.00695391 -1.38047e-20)
(1.36716 -0.128457 2.22477e-21)
(0.679989 0.0237628 0)
(1.12405 -0.124497 0)
(1.15921 -0.0560427 6.16811e-21)
(1.38537 0.218513 6.96786e-21)
(1.10903 0.0133725 6.54539e-21)
(1.03475 0.0190747 1.92403e-20)
(0.795848 0.148272 -8.39204e-20)
(0.812562 0.003742 2.38141e-20)
(1.13017 -0.0209217 8.51648e-21)
(1.32553 -0.0165423 -3.73466e-21)
(1.14643 -0.0309968 -7.52768e-21)
(1.27663 -0.0228833 3.20019e-21)
(-0.0905328 0.125315 4.54122e-20)
(1.23837 -0.0261159 0)
(0.628059 -0.0135672 0)
(1.05851 -0.0236756 -6.57303e-21)
(1.09319 0.00970335 1.09749e-20)
(0.0529684 0.120491 0)
(0.886222 -0.0270487 7.03533e-22)
(1.16914 -0.0729752 -3.15873e-21)
(0.966893 0.0153243 1.15766e-21)
(1.07843 0.0342585 -8.78824e-21)
(1.00057 0.0216112 2.41748e-21)
(1.06585 -0.0625259 2.78639e-21)
(1.07799 0.0316952 0)
(0.429596 -0.0194782 0)
(1.04908 -0.0665474 0)
(1.13558 0.111263 -2.23068e-20)
(-0.0603279 -0.101793 5.3301e-20)
(1.07906 0.0413146 -1.3821e-23)
(1.05938 -0.145113 0)
(0.753096 0.0239427 -1.09733e-20)
(1.06189 0.216431 2.03508e-21)
(0.00846582 -0.0406858 -1.80185e-19)
(0.869654 0.110502 -4.82235e-20)
(0.644015 -0.0150149 0)
(0.862692 0.206407 0)
(0.928106 0.0222348 1.07114e-20)
(1.09987 -0.0846859 7.07784e-21)
(1.2733 0.39728 -6.88466e-21)
(1.07064 0.0965495 2.92284e-22)
(1.28593 -0.0800369 -7.10515e-22)
(0.935572 0.263834 0)
(1.35599 0.423642 -2.50141e-20)
(0.666138 -0.0185156 0)
(0.801958 -0.0228371 -4.61675e-21)
(1.08561 -0.0314698 4.87232e-22)
(0.612716 0.0115238 0)
(1.10052 -0.00651018 0)
(0.135661 0.267213 -4.19349e-20)
(1.2731 -0.221757 5.37298e-21)
(0.737838 -0.0127082 3.89599e-21)
(0.990002 -0.00403217 0)
(0.55921 -0.0132952 0)
(0.758957 -0.0173811 -4.3757e-21)
(0.559254 -0.0159122 -6.89992e-22)
(1.36239 0.00957484 2.52306e-22)
(1.24313 -0.0481467 1.82108e-21)
(0.71129 0.0192686 -2.0876e-21)
(1.20498 -0.0161694 2.42219e-22)
(1.14298 0.00223104 -2.7539e-22)
(0.553706 0.013905 5.74341e-21)
(1.32033 -0.021766 -3.45396e-22)
(1.22658 -0.10148 0)
(0.88811 0.124068 0)
(0.49861 0.018183 0)
(1.08292 -0.0257427 0)
(1.15931 -0.0362261 -1.00206e-21)
(1.05903 -0.0756524 0)
(1.21965 -0.0582963 0)
(0.923435 -0.0310237 0)
(1.09652 0.167994 0)
(-0.0339853 -0.0657436 5.54595e-20)
(1.15147 -0.0222849 7.54296e-22)
(0.961659 0.0544975 0)
(1.24586 -0.0191973 -6.94257e-22)
(1.11046 0.0465041 2.3061e-21)
(1.12732 0.0404954 3.10908e-21)
(1.10336 -0.131609 5.64094e-21)
(1.05923 -0.0811987 0)
(0.576912 -0.0143057 9.19156e-21)
(1.05105 0.0438334 1.32508e-20)
(1.30148 -0.205387 0)
(1.17729 0.0914076 -1.71721e-21)
(1.18943 0.109013 3.79434e-21)
(0.769306 0.108303 1.83938e-20)
(1.17012 -0.00779806 7.39044e-21)
(1.11562 0.0860626 -8.1472e-21)
(1.15277 0.14908 0)
(1.14107 0.170725 -1.59267e-20)
(1.24814 0.200984 2.86373e-21)
(0.652398 -0.08196 9.92642e-21)
(0.81621 -0.216679 0)
(-0.00385042 -0.0235087 0)
(0.968946 0.109506 -1.84341e-20)
(1.11965 0.0226826 0)
(1.2868 -0.138295 2.16866e-20)
(1.28527 0.101633 -6.76701e-23)
(1.09144 0.124513 7.83183e-21)
(1.17716 0.0913607 -3.78378e-21)
(1.33278 0.0628393 7.80615e-20)
(1.0247 -0.325437 5.3986e-20)
(1.10236 -0.0628446 -1.40058e-22)
(0.823795 -0.221688 0)
(0.968872 0.0567466 0)
(0.906356 0.0029836 -3.0386e-20)
(1.37994 -0.284608 -7.19407e-20)
(1.06684 -0.0183763 0)
(0.628518 0.244349 1.6571e-20)
(0.631311 0.189921 0)
(0.707143 -0.235339 4.28492e-21)
(0.708 0.105155 -2.01306e-20)
(0.818467 0.0198822 -6.926e-21)
(1.11275 -0.136732 0)
(1.31799 0.152048 7.89417e-23)
(1.21433 0.0711244 -1.31759e-21)
(0.770208 -0.259357 1.46544e-21)
(1.08846 -0.0243466 -5.05932e-21)
(0.671427 -0.324551 0)
(1.09154 0.0697736 0)
(1.17062 -0.208862 6.11449e-21)
(0.840925 -0.279083 -4.32858e-21)
(1.3023 0.177603 -4.08614e-21)
(1.08508 -0.0329928 -5.3474e-21)
(1.02107 -0.0345748 -6.52383e-22)
(1.0608 0.0213434 0)
(0.446009 -0.144345 1.5643e-20)
(1.34497 0.0800867 -1.55485e-20)
(0.709572 -0.166896 -1.25293e-20)
(0.288057 -0.2275 -1.94528e-20)
(1.40416 -0.0738051 2.44829e-20)
(0.972473 0.0707885 7.6396e-20)
(1.20959 -0.148461 -6.46451e-21)
(1.06636 -0.0615246 9.66993e-22)
(-0.0758225 -0.0774311 -9.18569e-21)
(0.999506 -0.00654756 0)
(1.03334 -0.0867595 -1.58684e-20)
(0.840325 -0.0362395 1.51209e-20)
(1.10984 -0.0308327 7.10885e-21)
(0.931707 -0.191651 4.62851e-21)
(0.527407 -0.0259034 7.41015e-22)
(1.43374 -0.365962 -1.686e-20)
(1.08817 -0.00558715 0)
(1.03028 0.00235783 -3.37964e-22)
(1.13694 0.0195707 -3.89607e-21)
(1.11418 0.0281149 0)
(0.736171 0.0199329 -7.14849e-21)
(1.10507 0.0274285 4.72051e-21)
(0.787763 -0.0783746 -1.659e-20)
(1.12771 -0.0611221 -5.34131e-21)
(0.794765 -0.135895 4.46268e-21)
(-0.0443799 -0.0306091 0)
(0.437628 -0.213553 1.82392e-20)
(1.15295 -0.0231739 0)
(1.07349 0.0301011 2.08299e-20)
(1.07002 0.186847 0)
(1.12716 -0.023568 7.92439e-21)
(1.0159 0.0269629 0)
(0.999659 -0.0957842 0)
(1.36272 -0.0661959 1.73436e-20)
(0.800746 -0.0908785 0)
(1.08199 0.175252 8.03205e-21)
(1.15739 -0.0130998 3.75766e-22)
(1.04029 0.0141603 4.68204e-21)
(1.31683 -0.147136 -1.50788e-20)
(1.24482 0.12072 -8.34385e-22)
(1.29304 -0.180007 -9.23496e-21)
(1.07284 0.0095409 0)
(1.11594 -0.0244067 0)
(1.05796 0.0522758 2.95422e-21)
(1.21831 -0.0642007 0)
(1.40067 0.223507 -2.01008e-20)
(0.887562 0.0266659 3.499e-21)
(1.02707 0.0139734 2.61247e-20)
(1.226 -0.0306551 2.42305e-23)
(-0.0110576 -0.0171881 0)
(-0.0424832 -0.0989511 0)
(0.0500459 0.261546 -4.68785e-20)
(-0.0756995 -0.0629672 0)
(0.667971 0.220575 7.69722e-21)
(1.16865 0.0396613 -2.98532e-21)
(1.1013 0.00669435 -7.90308e-21)
(1.14791 -0.129608 -6.74946e-21)
(1.17762 -0.0952707 0)
(0.705255 -0.0240096 -3.29697e-21)
(1.0888 0.0822301 0)
(1.09707 0.00577444 4.41227e-22)
(0.546797 -0.110857 0)
(0.713495 0.244918 -1.33126e-22)
(1.10262 0.101677 0)
(1.21422 0.0378805 0)
(0.300144 0.0816867 6.61265e-21)
(0.556823 0.389551 -8.96415e-22)
(0.865616 0.222842 5.49876e-21)
(1.0096 0.0178894 -9.69229e-21)
(0.285438 -0.0153599 0)
(1.21978 0.0439944 -2.03345e-21)
(1.262 0.0331129 1.04866e-21)
(1.23964 -0.0872686 2.63721e-21)
(0.468506 0.185506 1.12479e-20)
(-0.063208 -0.0517004 -1.06301e-19)
(1.17845 0.0984154 0)
(-0.0275257 0.0269753 0)
(1.23615 0.0794351 3.61299e-21)
(0.418692 0.202759 -1.21016e-20)
(1.18862 0.0360843 -1.5261e-20)
(1.09737 -0.0369802 0)
(1.13205 0.0550684 5.74414e-21)
(1.2558 -0.344543 1.51209e-20)
(0.63695 -0.0211399 -1.17215e-20)
(1.12535 -0.0402559 -4.1165e-21)
(1.10696 -0.0560692 -5.88155e-22)
(0.424072 -0.480032 1.86771e-20)
(1.16782 -0.00390494 -2.6482e-20)
(1.14544 0.0213898 0)
(1.15389 0.112043 0)
(1.13221 -0.0872401 -8.44055e-22)
(1.245 0.040206 -9.47692e-22)
(0.717775 -0.355545 -4.74118e-20)
(1.19077 -0.0998369 -1.28547e-20)
(1.15018 0.0556424 7.71972e-21)
(0.52702 -5.0324e-05 1.88845e-20)
(0.192688 0.279572 -2.43602e-20)
(0.515175 -0.235645 3.49088e-20)
(1.16922 0.185832 -6.37413e-21)
(1.25272 -0.491338 7.70977e-21)
(1.2864 -0.00939547 -1.72998e-21)
(1.15574 -0.06563 1.00028e-21)
(0.942486 -0.237646 9.32719e-20)
(-0.222206 -0.229621 0)
(1.24237 0.0190561 4.43377e-22)
(-0.0576611 -0.195447 -1.26713e-20)
(1.22382 0.120725 -3.12654e-21)
(1.21477 -0.146055 3.29877e-21)
(1.08225 0.0239171 0)
(0.320232 -0.0416849 0)
(1.15694 -0.0441044 0)
(1.4129 0.113669 -9.64377e-21)
(1.22083 -0.0268758 -6.72223e-21)
(1.11675 -0.0443955 4.17871e-21)
(0.472415 0.0163807 0)
(0.629371 0.00753611 0)
(0.626767 -0.00148029 4.42233e-22)
(0.43811 -0.0116472 0)
(1.26992 0.0548364 0)
(1.02033 -0.0131916 2.48643e-20)
(0.204062 -0.171396 0)
(0.948381 0.0534924 0)
(1.13189 0.0327607 0)
(1.17016 0.179367 -1.4762e-20)
(1.24413 0.00138534 -8.36025e-22)
(0.956124 -0.0324891 1.07618e-20)
(1.33987 -0.396377 -1.25879e-19)
(0.429424 -0.249999 -3.23204e-21)
(1.14771 0.108697 6.54691e-21)
(1.08105 0.173447 0)
(0.0925609 -0.409036 0)
(-0.206585 0.392596 0)
(1.14396 -0.0447901 3.00386e-21)
(1.33406 -0.272802 -3.57527e-20)
(1.34555 -0.0197137 0)
(1.05733 0.0399378 -1.14079e-20)
(0.758457 -0.165067 0)
(1.50933 -0.113938 8.29962e-20)
(0.41066 0.517123 1.25547e-19)
(0.367718 -0.0305805 0)
(1.14965 -0.272827 1.35149e-19)
(-0.0996085 0.0391503 0)
(0.0572419 -0.546124 -3.37876e-21)
(1.3287 -0.0122781 0)
(-0.229563 0.275405 7.57689e-21)
(0.984066 -0.0510744 0)
(1.21765 -0.161669 -7.47451e-21)
(-0.167085 0.0812012 -8.93591e-21)
(1.11595 -0.0420405 3.05107e-21)
(1.07228 0.213561 -6.47658e-21)
(0.582135 -0.525973 -9.07724e-20)
(1.09144 0.0993833 -3.18682e-21)
(1.19033 -0.111631 3.24173e-21)
(1.17353 0.246878 -2.77392e-20)
(1.17779 -0.226508 1.69073e-21)
(1.15684 -0.040213 1.07812e-21)
(0.141349 0.112531 -8.04706e-20)
(0.0443368 0.133917 -6.22284e-21)
(1.26192 0.214366 4.23445e-21)
(1.05623 -0.0449923 0)
(0.675115 0.356088 -1.8365e-22)
(1.43555 -0.42979 9.76076e-20)
(1.03293 -0.041188 -7.42675e-20)
(1.43191 0.167841 5.93305e-20)
(1.07272 -0.0218877 7.86113e-21)
(1.09937 0.1225 2.07641e-20)
(1.06037 -0.009137 0)
(1.16137 -0.0267225 0)
(1.14353 -0.130493 -3.24879e-21)
(1.08794 -0.0193813 -4.52516e-21)
(1.11122 -0.201338 -1.52114e-21)
(1.10031 0.066895 -8.07992e-21)
(1.35008 0.00067545 -2.70838e-20)
(0.405535 0.0245257 0)
(1.0575 -0.0180522 2.10555e-20)
(1.26482 -0.0481086 0)
(1.11572 0.0708856 -4.67893e-21)
(1.14192 0.0176387 0)
(1.03946 -0.00850976 1.38761e-20)
(1.23695 0.0309871 7.72466e-21)
(0.955496 0.139029 0)
(0.0738895 -0.0262247 1.85801e-19)
(0.885615 -0.217264 -7.3157e-20)
(1.20752 0.0654839 -1.83338e-20)
(-0.132723 0.0378695 4.16134e-20)
(1.1771 0.0146029 -2.68911e-23)
(0.705416 0.222234 -1.63061e-21)
(-0.104331 0.0506379 -4.33667e-20)
(-0.0211769 0.00361974 -2.58811e-20)
(1.02147 -0.0269479 0)
(-0.035164 -0.049278 0)
(1.11447 -0.0641681 0)
(0.113374 -0.111372 0)
(1.1059 -0.0323939 0)
(0.179798 0.0379314 0)
(1.13495 0.0305151 0)
(1.09844 -0.112328 0)
(1.42138 0.095378 3.33491e-21)
(0.602491 -0.296033 -2.46179e-20)
(-0.106974 0.218229 0)
(1.2301 -0.0456046 7.73028e-20)
(1.23427 0.0643199 4.32925e-21)
(1.11065 0.00215963 0)
(-0.0379767 -0.0477516 0)
(1.16021 0.000548961 -2.89807e-21)
(1.16488 -0.0249106 5.28105e-22)
(1.16324 0.387525 0)
(0.363705 -0.0400371 7.79379e-20)
(1.12206 0.0585711 1.81494e-21)
(0.26622 -0.0519838 -6.1975e-20)
(-0.0575742 0.0328832 -2.70599e-20)
(-0.0372695 0.048652 7.16297e-20)
(0.0863306 -0.412926 1.07256e-20)
(0.857894 0.272977 1.5343e-21)
(1.15724 0.0609458 -7.88191e-21)
(1.02442 -0.00845705 0)
(1.07103 -0.0610801 -2.11713e-20)
(1.24554 -0.0240246 8.98606e-22)
(-0.014051 -0.0411134 1.06407e-19)
(0.977329 -0.0720298 -5.8648e-20)
(0.880276 0.284402 7.3683e-22)
(1.1921 0.158986 1.89309e-21)
(0.0993598 -0.0289345 4.1339e-20)
(0.282514 -0.0348773 -5.7315e-20)
(0.524772 -0.0157445 -7.07542e-20)
(1.33878 0.134275 -7.55384e-21)
(-0.0556876 -0.0466954 0)
(1.15209 0.307082 -4.68301e-21)
(0.942883 -0.128461 3.70466e-20)
(1.09926 -0.0924341 -3.57229e-20)
(1.20246 0.0611718 0)
(1.52 -0.184908 8.66317e-20)
(1.16653 0.0469378 -2.64202e-21)
(-0.0227963 -0.0575666 -3.77161e-20)
(0.245111 0.105106 0)
(0.91087 0.037198 -1.76026e-21)
(1.12662 0.0129273 2.02687e-21)
(1.07354 -0.309002 2.64259e-20)
(1.16404 -0.00440404 1.95391e-21)
(1.11792 0.0463067 0)
(1.20989 -0.152469 -1.77544e-20)
(-0.103045 0.0190391 -8.08836e-20)
(1.26708 -0.0113629 1.17637e-20)
(1.09807 0.168801 -8.50095e-21)
(1.08384 0.0697702 9.2409e-21)
(-0.0482046 -0.0831895 1.88112e-20)
(-0.01452 0.0184691 -5.58883e-20)
(0.624783 0.172875 0)
(0.525957 -0.0744501 0)
(1.15212 0.0999564 -2.31171e-20)
(1.0514 0.0665235 1.55e-20)
(1.08668 0.0185045 0)
(0.608859 0.212623 4.647e-20)
(0.699072 0.0899058 -9.33633e-21)
(1.09848 0.109385 0)
(1.07314 0.0587325 0)
(1.16791 -0.0342593 0)
(1.2307 -0.0618366 0)
(1.06466 0.0538742 4.37753e-21)
(-0.0421589 0.040085 2.95505e-20)
(1.3411 0.0203568 4.14903e-21)
(1.45072 -0.13619 -9.71909e-20)
(1.1126 -0.0242478 -7.18235e-21)
(0.0908232 0.26744 0)
(1.04401 0.0019302 0)
(0.631996 -0.0160139 -1.00318e-21)
(0.520252 0.00909437 -5.1633e-20)
(0.0647221 0.037346 4.24521e-20)
(0.939471 0.0117591 5.65267e-22)
(0.783399 -0.279043 0)
(0.732748 -0.0883436 0)
(1.0738 -0.100166 0)
(0.538173 0.511919 1.44386e-20)
(-0.00933463 0.00657979 -2.78751e-20)
(1.08656 0.107394 -6.33768e-21)
(-0.0303432 -0.0786193 7.34017e-20)
(1.1532 -0.0581287 2.33135e-21)
(1.16853 0.312324 5.29082e-20)
(1.10942 -0.0768122 8.46891e-21)
(0.497144 0.116346 1.05038e-19)
(1.15514 0.261667 1.43876e-21)
(0.856652 0.163087 0)
(0.553178 0.269687 0)
(0.822263 0.101371 3.50451e-21)
(-0.235431 0.207902 0)
(0.615413 0.0298854 3.41669e-21)
(0.622442 -0.429427 -3.72469e-21)
(0.230412 0.0493243 -1.01372e-19)
(1.13288 -0.219368 2.79858e-20)
(1.03453 0.361899 1.08829e-20)
(0.983024 0.0152139 0)
(1.23345 0.0902089 -3.45683e-22)
(0.649393 0.0144576 0)
(1.01108 -0.0145753 -5.46796e-22)
(0.508774 -0.00833646 0)
(0.715701 0.124418 0)
(0.995709 -0.0261246 -7.5843e-21)
(1.43275 0.179524 -9.90271e-21)
(1.11778 -0.0717826 3.40763e-21)
(0.534632 -0.504187 0)
(1.13501 -0.145857 1.63548e-21)
(0.805135 0.375652 7.39158e-20)
(-0.0426246 0.0176554 1.00699e-21)
(1.2259 -0.0468462 6.78889e-21)
(1.22521 0.0277389 -5.38921e-21)
(1.17917 -0.166121 7.213e-22)
(0.810369 0.0103103 -7.58999e-21)
(0.0559129 0.0188857 3.21435e-20)
(-0.0202911 -0.0377058 -5.89197e-20)
(-0.183928 0.254269 0)
(-0.127435 0.355167 0)
(1.21278 -0.619121 3.6438e-20)
(1.14279 -0.0325763 -1.05202e-21)
(0.921232 -0.475434 -5.03541e-20)
(1.14922 0.270469 8.72952e-21)
(1.35941 0.20354 2.72762e-20)
(0.600339 0.418711 0)
(0.24547 0.413116 -1.19917e-19)
(0.595652 0.47796 0)
(0.0381467 0.201643 0)
(1.13565 -0.474658 0)
(-0.0441829 0.0318339 1.79477e-22)
(1.17964 -0.0130973 0)
(0.72296 -0.211787 -8.65033e-21)
(0.593273 0.690383 2.01068e-20)
(1.2694 -0.00633386 7.97165e-21)
(-0.0305897 -0.104728 -1.35151e-19)
(0.64548 -0.185171 -2.91467e-20)
(0.443764 0.143445 -1.22323e-20)
(1.20871 0.0893288 0)
(1.35635 0.360488 2.59873e-20)
(1.21966 0.567212 9.823e-22)
(0.146607 -0.0174315 -1.86393e-20)
(0.973423 0.144075 2.46952e-20)
(0.965211 -0.0352857 1.09598e-21)
(0.909979 0.0117495 -3.35274e-22)
(0.0148336 -0.0360602 0)
(0.655996 -0.662664 -2.93386e-20)
(0.615082 0.196383 0)
(0.138914 -0.019501 0)
(-0.0385811 0.0357422 0)
(0.0138636 -0.0707772 -5.2121e-20)
(1.24519 -0.0179518 -7.84939e-21)
(-0.034023 0.039993 0)
(-0.0222338 0.0288423 0)
(1.45856 0.127725 -5.64869e-20)
(-0.0336385 -0.0964405 6.09426e-20)
(0.114431 0.231766 -1.03483e-19)
(0.371655 0.0150301 0)
(0.172446 -0.285223 8.12309e-20)
(1.1485 -0.235306 0)
(1.00044 -0.282742 0)
(0.0295184 -0.0748272 1.28771e-19)
(1.14951 0.0318971 -2.64714e-22)
(1.11878 0.341869 3.17489e-20)
(0.251231 0.0285476 4.12534e-20)
(0.410814 -0.528396 -3.41325e-20)
(1.28316 0.0911726 0)
(1.20353 0.203152 1.85984e-20)
(1.20932 0.21597 -2.28476e-20)
(0.102443 0.0842903 -2.37905e-20)
(-0.0712305 0.020954 0)
(1.07065 -0.0539743 -1.88973e-20)
(1.10623 -0.217417 -1.3854e-20)
(0.589405 -0.411846 0)
(1.09827 -0.146794 -2.51226e-20)
(-0.0375307 0.336871 0)
(0.555081 0.0458371 0)
(1.31084 -0.001794 1.06319e-20)
(0.992173 0.0358461 4.51713e-22)
(1.07641 0.744644 -2.09696e-20)
(0.228948 -0.387026 1.29431e-19)
(1.1202 0.0532201 -5.65464e-23)
(1.20831 0.0753281 -3.05667e-21)
(-0.0379421 0.0520899 2.67013e-20)
(0.784502 0.731372 3.35964e-20)
(1.36629 -0.348329 -1.49249e-20)
(-0.104863 0.327385 4.75505e-20)
(1.16342 0.0118721 0)
(0.317189 0.166002 -7.68724e-21)
(0.923374 -0.647756 3.35964e-21)
(0.895559 0.640035 -1.3106e-20)
(0.621844 -0.019977 -7.65589e-20)
(1.13941 -0.0108926 -1.11692e-20)
(1.07494 -0.0790586 7.00001e-21)
(1.1808 0.0396004 3.03535e-21)
(1.10572 0.119625 7.09975e-21)
(1.13457 -0.115844 0)
(0.892094 0.112704 1.18017e-20)
(0.879516 0.457679 0)
(1.3746 0.048574 3.03473e-21)
(1.1695 0.111875 3.77109e-21)
(0.741659 0.263283 0)
(0.50822 0.109685 9.66749e-20)
(0.891879 0.711153 -8.78606e-22)
(1.07166 0.287572 -2.43826e-20)
(1.04003 -0.00675681 1.2822e-20)
(0.415602 0.488504 0)
(1.31523 -0.462719 0)
(0.888774 0.00414436 7.18813e-21)
(1.2579 0.505588 0)
(-0.0253746 0.0405712 -3.55123e-20)
(1.29904 -0.406504 -1.68998e-20)
(1.16389 0.510765 0)
(0.454568 0.212633 1.72766e-19)
(1.11398 0.317775 -1.05698e-19)
(0.82409 -0.646162 -2.4335e-20)
(1.18244 0.0262681 2.00251e-21)
(0.902513 0.152795 7.02283e-20)
(1.08445 0.167532 6.12615e-20)
(1.06776 0.703815 2.56555e-21)
(0.913102 -0.441978 6.28358e-20)
(1.43361 0.192074 2.91627e-20)
(1.12965 0.0013421 -1.80894e-21)
(0.0266317 -0.0650068 1.15416e-19)
(1.10185 -0.708217 3.51717e-20)
(0.883884 -0.727906 4.85957e-20)
(0.255206 -0.34204 0)
(0.97394 -0.15043 7.23334e-20)
(0.362647 0.303603 -4.48395e-19)
(-0.111656 0.261909 2.53453e-20)
(0.208781 0.0326921 1.75602e-20)
(0.743171 -0.0514086 -8.90513e-20)
(1.07744 0.529444 0)
(0.984543 0.218007 8.69783e-20)
(1.08525 0.0282505 4.77167e-21)
(0.910711 0.440767 -9.52959e-20)
(0.798892 -0.737625 -7.46176e-21)
(0.933595 0.0183759 -4.97996e-20)
(0.977312 0.488726 0)
(1.2402 -0.0370634 -7.37717e-22)
(1.40163 -0.505549 1.5828e-20)
(1.23582 -0.330753 1.14052e-20)
(-0.161425 0.32185 3.61411e-20)
(0.196211 -0.00265551 -1.83999e-20)
(0.977031 -0.120997 -5.87121e-20)
(0.352117 0.522783 0)
(0.922172 0.0105121 3.96796e-20)
(1.1517 0.636904 6.77406e-20)
(-0.0847204 0.0681797 1.73672e-19)
(-0.0544173 0.0551694 -2.23175e-20)
(-0.104223 -0.0387654 4.5025e-20)
(1.09903 0.0214699 -6.59181e-21)
(1.1673 -0.46494 0)
(1.08125 -0.738684 -3.61415e-20)
(0.699289 0.345683 0)
(0.0606301 0.070388 -1.31258e-19)
(1.11806 0.0477298 3.64265e-21)
(-0.0462041 -0.0857967 -3.46767e-20)
(1.04794 0.0555593 -1.19907e-20)
(0.0946716 0.0184466 4.61146e-20)
(0.828185 0.128289 0)
(1.28427 0.0180926 2.64753e-20)
(0.0329163 0.0408959 -1.99382e-20)
(-0.161345 0.358411 -4.29492e-20)
(-0.270119 0.364584 0)
(0.116478 -0.0135835 0)
(1.25875 -0.0115564 -8.7865e-21)
(0.43317 -0.00341415 1.84816e-19)
(1.28953 -0.729015 -3.21457e-20)
(1.05572 -0.0318382 5.37215e-20)
(1.0652 0.247198 -3.52659e-20)
(0.374217 -0.569181 1.38948e-19)
(1.54563 0.291532 -2.76529e-20)
(0.121326 -0.0608641 4.52998e-20)
(0.208481 0.301118 1.99967e-19)
(0.157245 -0.0342187 -1.6827e-19)
(0.950836 -0.495817 -4.26229e-20)
(1.44715 0.393271 2.80951e-20)
(0.577423 -0.688083 4.75452e-20)
(1.10584 -0.0746658 -7.26087e-21)
(0.326202 0.168256 7.13272e-20)
(1.16787 0.294399 -4.12365e-20)
(0.661129 0.637566 -4.28698e-20)
(1.36905 -0.624151 0)
(1.40964 0.523337 2.96875e-20)
(1.065 -0.529931 -1.31901e-20)
(1.38359 0.609223 -8.24037e-20)
(1.17438 0.000135741 0)
(-0.0451048 0.0548159 0)
(1.2486 0.730814 0)
(1.26372 -0.0524731 -3.61654e-21)
(0.748558 -0.308209 -2.07023e-19)
(0.480498 -0.0887162 0)
(-0.0455423 0.0677324 -2.26288e-20)
(1.02644 -0.245009 9.63532e-20)
(-0.190636 0.223368 0)
(0.323166 0.0193028 1.24306e-20)
(1.14749 0.0162145 0)
(1.40398 0.282888 0)
(1.1886 0.0251072 -2.14457e-21)
(0.365685 -0.300274 0)
(1.00896 0.146269 4.19207e-20)
(1.29817 0.291114 0)
(-0.063967 0.0819144 1.07194e-21)
(0.818128 -0.402612 0)
(1.51307 0.347045 -4.18749e-20)
(1.23334 0.369972 6.00911e-21)
(0.840803 0.645254 -1.03827e-20)
(1.00568 0.154427 -9.5917e-20)
(0.969658 -0.204572 -4.69056e-20)
(1.44613 0.300699 2.46826e-20)
(0.972544 0.125012 0)
(0.566181 -0.0773649 0)
)
;

boundaryField
{
    FrontBack
    {
        type            empty;
    }
    Top
    {
        type            noSlip;
    }
    In
    {
        type            fixedValue;
        value           uniform (1 0 0);
    }
    Bottom
    {
        type            noSlip;
    }
    Out
    {
        type            zeroGradient;
    }
    circle
    {
        type            noSlip;
    }
}


// ************************************************************************* //
