/*--------------------------------*- C++ -*----------------------------------*\
| =========                 |                                                 |
| \\      /  F ield         | OpenFOAM: The Open Source CFD Toolbox           |
|  \\    /   O peration     | Version:  2412                                  |
|   \\  /    A nd           | Website:  www.openfoam.com                      |
|    \\/     M anipulation  |                                                 |
\*---------------------------------------------------------------------------*/
FoamFile
{
    version     2.0;
    format      ascii;
    arch        "LSB;label=32;scalar=64";
    class       volScalarField;
    location    "34.5";
    object      p;
}
// * * * * * * * * * * * * * * * * * * * * * * * * * * * * * * * * * * * * * //

dimensions      [0 2 -2 0 0 0 0];

internalField   nonuniform List<scalar> 
808
(
0.135199
0.0230106
0.00197923
0.135201
-0.165484
0.026676
0.0145702
0.0360581
-0.078328
-0.00318096
0.0381708
-0.09023
0.0308491
0.0202017
-0.364245
0.0305887
-0.388565
0.027486
0.0166382
0.0210444
0.0221418
0.373872
0.0646997
0.0199733
0.449118
-0.149953
-0.021732
0.0104693
0.0208728
0.0161466
0.0164897
0.0331034
0.0232388
0.0141452
-0.0600996
0.636157
0.0189764
0.019492
0.0337735
0.0208964
-0.0318245
-0.024443
0.0350612
0.0288483
-0.105587
0.0808675
0.022177
0.0465957
0.0277445
-0.115365
0.0154633
0.0388344
0.0410712
0.0130795
-0.117485
0.0246155
0.0128978
0.0411787
0.00436383
0.0196316
-0.277681
0.0363053
0.0410817
-0.149064
0.037082
0.0449568
-0.194826
0.0264225
0.0149109
-0.214338
0.0349698
-0.239263
0.0353925
0.0274929
0.217077
0.010678
-0.000316056
-0.109338
0.0160021
0.299247
-0.108879
0.0239502
0.0384799
0.292572
0.00880616
-0.0179751
-0.282379
-0.14184
0.0419057
-0.21452
0.0548799
-0.0666444
0.245009
0.149398
0.0374226
-0.206814
0.0252454
-0.081284
-0.0776853
-0.17772
0.0213016
0.0111327
0.0547964
-0.0142953
-0.108341
0.0527335
-0.107603
0.0164197
0.0228043
0.065333
-0.0723288
0.323779
0.0300353
0.0658387
0.0256549
0.461037
0.0257574
-0.196497
0.0239684
0.0724169
-0.276032
0.0371755
0.0267992
0.0745034
0.103122
-0.0828165
0.128071
0.0693882
0.0531523
0.063252
-0.187917
0.0333107
-0.0319956
0.111133
0.02685
0.0223851
-0.0189618
-0.00342235
0.0324116
0.0215538
-0.371571
0.0655856
-0.0162325
0.0320975
-0.0562054
0.0551983
0.112684
0.174037
0.0499661
0.0203105
0.0294733
0.333194
0.0443484
0.533301
-0.323952
-0.119733
0.0244625
-0.161727
-0.0175346
-0.12977
-0.247389
-0.355267
-0.19775
0.0323703
0.0582296
0.0245488
0.0355826
-0.194288
0.0303336
0.0401933
0.0546802
0.148795
0.0495776
0.154929
0.0219378
0.0873533
0.0648441
-0.108005
0.0346441
-0.263659
0.0351977
-0.18034
0.0301235
0.283068
-0.335458
0.110686
0.0234667
-0.133288
0.0278061
-0.0803692
-0.338468
-0.0575894
0.0224375
0.102188
0.0296005
-0.368103
0.021392
0.0430821
0.0147171
0.068972
0.0824561
0.0370665
0.0259179
-0.233282
0.374036
-0.34058
-0.25364
0.0178226
0.0140019
0.0306711
0.0154353
-0.310756
-0.210166
0.0205092
-0.00463177
0.0289045
-0.242549
-0.0735987
0.0202869
0.0461057
0.00821953
-0.125853
0.0356239
0.0367386
0.00571609
0.0275664
0.118445
-0.243007
0.102566
0.0190609
0.109453
0.0251557
0.0292695
0.0151622
-0.0823095
0.0200176
0.0178225
0.00426379
0.0153984
0.0194131
0.002023
-0.00468195
0.0137872
0.0129776
-0.0032477
0.00987261
-0.0175475
-0.00801942
0.0205915
0.018285
-0.24793
-0.00122355
-0.0133674
-0.13709
0.00874376
0.0228829
0.0297122
0.00479342
0.0308329
0.115888
0.0784353
0.00781929
0.00845831
0.0525669
0.0189438
0.0140912
0.0284904
0.0534796
0.0523634
-0.0400677
0.0265171
-0.307926
0.26587
-0.00313558
0.0256959
0.0256442
-5.68938e-06
0.0145994
-0.202862
0.304458
0.0462677
0.0137829
0.0346235
0.102128
-0.0392414
0.0154586
-0.0174947
0.0432909
0.00736964
-0.0310913
0.0342889
0.0355879
0.0608797
0.0420783
0.033317
0.0222002
-0.0244571
0.0480329
0.0558303
0.0438289
0.0468888
0.0293917
0.0530974
0.0102227
-0.415422
-0.0970117
-0.0374839
0.0358337
-0.129991
-0.24317
0.0250992
0.0293232
-0.26006
0.14692
0.176451
0.0239507
0.0224802
0.0570875
0.00676262
-0.156954
0.0325932
0.00609011
0.0276135
-0.0267148
-0.0321933
0.0326383
0.0410161
0.0145998
-0.00578496
-0.283028
-0.00721988
0.0333031
0.0566347
0.10131
0.0149464
0.22252
-0.0102267
-0.123924
0.557521
0.00818621
0.00558069
0.0309831
-0.00431782
-0.0674615
0.093889
0.0327161
0.0155143
0.0450619
-0.0227747
-0.311078
0.0635564
0.0964303
-0.0516706
-0.291251
-0.249898
-0.245459
-0.241296
0.0425635
0.036633
0.017945
-0.0111934
-0.00575504
0.0124069
0.040496
0.00708695
-0.410113
0.0490806
0.0551569
0.018135
-0.379993
-0.0141053
-0.00751484
0.130148
-0.231421
0.0349263
-0.0225174
0.0648244
-0.0578893
-0.271193
0.0501643
-0.370182
0.0292668
-0.081227
0.017469
0.017905
0.0191112
0.0463866
-0.251411
0.017437
0.0160228
-0.0100885
-0.00536088
0.0108274
0.0505879
0.00702312
0.00903363
0.0217469
0.0648881
0.0339173
0.0175641
-0.321434
-0.0641274
0.0402188
0.0418347
-0.13756
-0.000292444
0.445307
-0.314951
0.00183431
-0.209932
0.0396188
0.0387293
0.0282543
-0.112045
0.0155746
0.0450619
-0.0521544
0.0163278
-0.000692257
-0.0055639
-0.0091526
-0.009332
0.0232881
0.1355
-0.0684176
0.0196481
0.0191779
-0.00142449
-0.0666896
0.0284877
-0.295732
-0.00352174
0.0502843
-0.0136704
-0.232525
-0.288549
0.00678625
-0.0341094
-0.0399496
0.0361504
-0.0176497
-0.164978
0.196329
-0.225291
-0.362793
-0.377744
-0.0886174
-0.0885671
-0.272757
0.362704
0.00285996
-0.274707
0.0191038
-0.0153165
0.600743
0.0115021
0.0385426
0.0229538
0.0298828
0.00423594
-0.225305
-0.375188
0.0831473
0.0825785
0.0220902
-0.192781
-0.208085
-0.278906
0.0202918
-0.00943353
0.0864708
-0.00248962
-0.0034619
0.0735046
0.0235067
0.0435469
-0.162816
-0.369571
-0.0107095
-0.0937045
0.0370154
0.000865932
0.096663
-0.0544852
-0.0316874
-0.368569
0.468073
-0.250015
-0.281628
-0.0222113
-0.0445838
-0.304356
-0.303629
0.139546
-0.251177
-0.238051
0.873236
0.0212971
-0.269111
0.0198527
-0.110333
0.0331637
-0.367405
-0.329236
-0.217079
0.00386434
-0.298109
-0.271924
-0.0102003
-0.0107802
0.0759152
-0.206988
0.0223075
-0.405173
-0.386189
-0.450198
-0.24649
-0.0587234
0.0258938
0.0994177
0.147537
-0.0282822
-0.268407
0.323936
0.056389
0.0306053
-0.344108
-0.401779
-0.230958
0.0424141
-0.26194
0.145284
-0.0617564
-0.0551728
-0.246994
-0.157056
0.018394
-0.254439
-0.37845
0.0145053
0.00636871
0.021783
-0.00380393
0.0262593
-0.291732
-0.257343
-0.0769017
0.0833369
0.0390475
-0.249876
-0.346738
-0.251138
-0.32101
0.0254451
0.090315
0.0143658
-0.234857
-0.362915
0.0881228
0.0422587
-0.228921
0.0306407
0.0210352
-0.394378
0.0264246
-0.187073
0.0021761
-0.330143
-0.0466242
-0.000498556
-0.42899
-0.520876
0.00672763
-0.382342
-0.36545
0.0177736
-0.111218
-0.319018
-0.0142256
-0.259339
0.0469786
0.05839
0.0851287
-0.255873
0.100409
-0.041572
-0.504778
-0.0263633
-0.296421
0.0287388
-0.236446
-0.57171
0.131308
0.255639
0.45262
0.0146414
0.00862254
0.000180214
-0.252145
0.646732
0.0235328
-0.261785
0.041874
-0.00611131
0.109498
0.474888
-0.433421
-0.0252647
-0.0370504
0.0470823
0.0186701
-0.517764
-0.278531
-0.275779
-0.364359
-0.20353
0.0133729
-0.278331
0.135577
-0.318684
-0.358384
0.491411
0.576657
-0.416106
0.153595
-0.311202
-0.00329196
-0.117518
0.383252
-0.0610335
-0.246776
-0.0372717
-0.56676
-0.0300842
-0.237107
-0.052069
-0.373109
-0.341708
0.00164704
0.0108183
-0.240038
0.482662
0.672855
-0.21772
-0.360114
-0.241178
-0.0446896
-0.365364
-0.333064
-0.214455
-0.240845
0.743585
-0.398759
0.767169
-0.324615
0.354435
-0.224853
0.00132282
0.156629
-0.562629
0.270833
-0.335515
-0.366993
-0.393464
0.870967
-0.297871
0.234455
0.180143
0.666104
0.14988
-0.430802
-0.369351
-0.171738
0.0176259
0.0562613
0.556823
0.0233302
-0.0313279
-0.335981
0.0860712
-0.0679826
-0.318668
0.026671
-0.394779
-0.0928544
-0.19659
-0.278694
0.00885117
0.126939
0.0105026
0.0645514
0.138285
-0.394269
-0.404167
-0.0262371
0.00136621
-0.518712
-0.571349
0.148466
0.17908
0.109478
0.658418
-0.0274885
-0.214337
-0.430278
-0.358547
-0.0102019
0.0565457
0.761256
-0.507443
0.411599
0.00373362
-0.490566
0.140353
-0.111516
0.415845
-0.187817
0.0159452
-0.250607
-0.0209933
0.239141
0.831085
0.354693
0.754009
-0.260517
-0.368048
-0.327497
0.143178
0.258761
0.0567346
0.365497
0.186362
0.507427
0.257081
-0.00494559
-0.126445
0.0636118
-0.335597
0.889028
0.428382
0.635569
0.516882
-0.308071
-0.241449
-0.324155
-0.266941
0.043781
-0.325766
0.149257
0.589574
-0.239733
0.0283424
-0.261304
0.176492
-0.385978
-0.428577
-0.146075
-0.358689
-0.356142
-0.285831
-0.257314
-0.104466
-0.326075
-0.0737026
-0.0951521
0.131034
0.683355
-0.262922
-0.228261
0.822335
-0.231023
0.319978
-0.276669
0.428529
0.112836
-0.215155
-0.454702
0.425055
-0.206836
-0.367341
0.228345
-0.317065
-0.0119776
-0.354169
-0.155246
0.034605
0.591693
0.789684
-0.34844
0.254104
-0.291037
0.826116
0.00213626
-0.362315
-0.0160739
0.780588
0.197564
-0.369916
-0.333757
0.481501
-0.25013
0.0122887
0.330953
0.246006
0.321042
-0.294911
-0.391612
0.697129
)
;

boundaryField
{
    FrontBack
    {
        type            empty;
    }
    Top
    {
        type            zeroGradient;
    }
    In
    {
        type            zeroGradient;
    }
    Bottom
    {
        type            zeroGradient;
    }
    Out
    {
        type            fixedValue;
        value           uniform 0;
    }
    circle
    {
        type            zeroGradient;
    }
}


// ************************************************************************* //
