/*--------------------------------*- C++ -*----------------------------------*\
| =========                 |                                                 |
| \\      /  F ield         | OpenFOAM: The Open Source CFD Toolbox           |
|  \\    /   O peration     | Version:  2412                                  |
|   \\  /    A nd           | Website:  www.openfoam.com                      |
|    \\/     M anipulation  |                                                 |
\*---------------------------------------------------------------------------*/
FoamFile
{
    version     2.0;
    format      ascii;
    arch        "LSB;label=32;scalar=64";
    class       volVectorField;
    location    "34.5";
    object      U;
}
// * * * * * * * * * * * * * * * * * * * * * * * * * * * * * * * * * * * * * //

dimensions      [0 1 -1 0 0 0 0];

internalField   nonuniform List<vector> 
808
(
(0.897307 -0.00881418 0)
(1.01856 -0.03425 0)
(1.26906 0.206439 0)
(1.06685 0.00951004 -2.86681e-21)
(1.45914 -0.297885 0)
(0.960101 -0.0302549 0)
(1.16307 -0.0458307 -3.2294e-21)
(1.11878 -0.00914015 0)
(1.33848 -0.231888 1.6635e-20)
(1.23383 -0.101662 2.05251e-22)
(1.1806 -0.193692 5.51144e-21)
(1.36327 -0.266988 0)
(1.00553 -0.0160293 0)
(0.750405 -0.0201913 0)
(1.08508 -0.0541415 2.3663e-20)
(1.10801 -0.0187512 0)
(0.983315 -0.0309356 -7.93764e-21)
(1.01615 -0.0363569 -1.31517e-22)
(1.26965 0.144353 0)
(1.12689 0.00163393 0)
(1.25076 -0.192573 -7.69294e-21)
(0.93002 0.130038 1.07724e-19)
(1.07199 0.00667668 -1.17823e-20)
(1.17541 -0.036053 0)
(0.960145 0.193715 0)
(1.25394 -0.0275028 -3.10414e-20)
(1.26829 -0.186273 -1.04099e-21)
(0.975142 -0.026114 -4.92734e-21)
(1.11812 -0.038936 0)
(1.05252 0.0427611 -1.47572e-22)
(1.01695 -0.0477093 4.90846e-24)
(1.12765 -0.0113362 0)
(1.03465 0.0375813 0)
(1.09811 -0.0280128 4.00366e-21)
(1.30037 -0.0920635 5.22118e-21)
(0.741366 -0.101238 1.13983e-19)
(0.881181 -0.0257139 -8.12239e-21)
(1.03261 0.0354166 7.99078e-22)
(1.18963 0.0282016 -4.86282e-21)
(1.07499 0.01876 0)
(1.26919 -0.0737805 -9.34745e-21)
(1.27397 -0.140246 0)
(1.00181 -0.000608006 -7.18363e-21)
(1.1221 -0.0525903 8.8541e-21)
(1.09082 -0.111543 0)
(1.01005 0.0152622 -1.75792e-20)
(1.00924 0.0313959 1.79002e-21)
(1.24234 -0.255679 -1.24673e-20)
(1.16271 0.0424749 -9.70168e-21)
(1.39334 -0.20292 -2.40309e-20)
(1.15704 -0.0460145 5.32281e-21)
(1.14848 -0.0790185 0)
(1.11558 -0.00767061 6.45144e-21)
(1.12488 -0.0753933 0)
(1.32864 0.202794 6.85734e-21)
(1.05369 0.0427436 -3.43851e-21)
(1.18097 -0.092261 0)
(1.09303 -0.123153 3.64156e-21)
(1.23562 -0.102987 -2.2032e-22)
(1.13275 0.0460964 -7.55416e-22)
(-0.217806 -0.401604 0)
(1.21006 -0.214658 8.55386e-22)
(1.07497 -0.0620483 0)
(1.4384 -0.115875 -2.1956e-20)
(1.10106 -0.0837632 -1.12926e-20)
(1.03884 -0.0292252 -7.66881e-21)
(1.30442 -0.166877 2.20851e-20)
(0.648441 0.00983779 0)
(1.16017 -0.0862776 0)
(1.41521 -0.356631 0)
(0.903679 0.0221922 -3.19179e-22)
(1.20682 -0.15234 -3.13221e-20)
(1.0094 0.0364854 0)
(1.0503 -0.0469552 -4.0663e-21)
(1.11183 -0.330208 -6.42599e-20)
(1.17009 -0.0519865 -5.09447e-21)
(1.14712 0.0333796 1.82509e-22)
(1.34292 0.491919 2.65355e-20)
(1.11616 -0.0352885 0)
(1.02066 0.289398 -1.74122e-19)
(1.30384 -0.00956752 1.55847e-20)
(0.756003 0.0240705 0)
(0.852649 0.0445766 -9.86999e-21)
(0.967131 -0.108725 4.6612e-21)
(1.13294 -0.0740175 2.80716e-21)
(1.19712 0.017505 1.14952e-21)
(1.25209 -0.240584 0)
(1.36485 0.268542 0)
(1.08888 0.000180777 -1.94073e-20)
(1.4282 -0.0121656 3.01154e-20)
(1.08633 -0.0187937 1.75335e-20)
(1.31195 -0.139315 -9.5968e-22)
(0.966623 0.0275028 1.59256e-20)
(1.00436 -0.0248327 0)
(1.10629 0.0128754 1.38899e-21)
(1.27671 -0.129534 -6.35781e-20)
(0.765971 0.0237808 -3.11168e-21)
(1.26573 -0.0435176 0)
(1.33116 -0.103405 0)
(1.40428 -0.140002 -3.3654e-20)
(1.11617 -0.0493314 -4.04349e-21)
(1.13077 0.0122094 -1.27518e-22)
(0.94706 0.026532 1.45429e-20)
(1.18934 0.0247173 -2.14578e-22)
(1.35444 0.0345306 -2.5862e-20)
(1.00046 0.00408085 1.16357e-20)
(1.39724 -0.0281971 0)
(0.730701 -0.094188 0)
(1.08567 0.0352078 7.45083e-21)
(1.191 -0.221163 -1.14113e-20)
(1.28844 0.0235306 9.55789e-21)
(1.05071 0.0501996 -1.1904e-19)
(1.14779 0.0429013 -2.91912e-21)
(1.0931 -0.012465 9.35198e-21)
(0.793105 0.0199754 0)
(0.916528 -0.0413671 7.79878e-20)
(1.13853 0.0330199 -8.00338e-21)
(1.4061 -0.273199 -1.22907e-20)
(1.12105 -0.0518227 -7.19298e-21)
(0.931782 0.014549 2.57266e-21)
(-0.136041 -0.203423 0)
(0.854299 -0.0165958 1.66589e-21)
(0.787386 0.0257009 0)
(1.0606 0.00138975 -1.17016e-22)
(1.01383 0.0277539 0)
(1.32562 0.306744 1.14455e-20)
(1.03211 -0.0560229 -3.7874e-20)
(1.16293 0.0545547 5.73482e-21)
(1.14832 -0.0607794 0)
(1.09121 -0.0251973 0)
(0.509909 -0.0800992 0)
(1.11734 -0.0344483 -4.24108e-21)
(1.26092 -0.05548 5.11275e-21)
(1.07045 0.113579 -2.98695e-20)
(0.845776 -0.00613328 0)
(1.09754 0.0294611 -2.01804e-21)
(1.11076 -0.0579921 -1.36106e-21)
(1.22662 -0.0371504 -1.0197e-22)
(0.986342 0.031624 5.36126e-21)
(1.12913 0.00945156 1.06904e-22)
(0.048722 0.090599 0)
(1.09618 -0.0222236 -1.94918e-20)
(1.2224 0.166216 -1.3669e-21)
(0.713555 0.0225015 -5.01543e-21)
(1.26792 0.150072 1.09708e-21)
(0.904008 -0.214107 3.29677e-21)
(1.04501 0.0159288 2.00145e-20)
(0.990505 0.0282496 0)
(1.09082 0.028883 8.68685e-21)
(0.838959 -0.13912 0)
(0.938307 0.0267855 1.04294e-20)
(0.973 0.291685 1.39696e-19)
(0.97116 0.0320639 0)
(0.819442 0.112987 0)
(-0.11611 0.0481479 -8.25502e-20)
(1.33582 0.10304 -1.58149e-20)
(0.683885 -0.0201875 0)
(1.44526 -0.0581609 0)
(1.20576 0.04621 0)
(1.33762 0.0368021 1.67643e-20)
(-0.028312 -0.0425122 0)
(-0.0510597 0.136975 4.12148e-20)
(0.913531 -0.0832026 5.54083e-20)
(1.00146 0.0396393 1.60285e-21)
(0.854624 0.000420694 0)
(1.02278 -0.0321589 1.11927e-20)
(0.885341 0.0255169 0)
(0.656944 -0.0574922 -5.98943e-20)
(1.01294 0.0323434 1.61748e-20)
(1.09694 -0.0794104 3.84726e-21)
(1.09283 0.013131 8.93666e-21)
(1.01589 0.0716829 -1.08063e-20)
(0.610765 -0.243571 -3.2822e-21)
(1.12813 -0.344856 9.212e-22)
(0.91222 -0.0280394 0)
(1.06753 0.00023848 -1.67684e-20)
(0.87134 0.00970267 -9.80224e-21)
(1.3749 -0.187906 1.45708e-21)
(0.705152 0.0256743 0)
(1.01016 -0.146919 0)
(1.08501 -0.0434407 2.76326e-21)
(1.40629 0.190354 1.30415e-20)
(1.11071 0.0244149 6.88084e-21)
(1.03738 0.020695 2.13684e-20)
(0.848528 -0.123484 -7.38906e-20)
(0.812603 0.0029201 1.80617e-20)
(1.13159 -0.017624 5.16279e-21)
(1.40825 -0.116856 -4.10937e-21)
(1.08589 -0.0577318 -5.96465e-21)
(1.3417 -0.0538503 3.52131e-21)
(-0.131388 0.043639 6.12806e-20)
(1.28953 -0.0284251 0)
(0.617414 -0.021016 0)
(1.06276 -0.0254334 -8.46361e-21)
(1.09638 0.0155557 9.72374e-21)
(0.167008 0.0493916 0)
(0.873131 -0.0176612 4.39658e-22)
(1.06837 -0.024928 -4.5524e-21)
(0.997829 0.0235712 2.57465e-21)
(1.07807 0.0316469 -6.54882e-21)
(1.00309 0.020554 2.76279e-21)
(1.0216 -0.0183909 4.01576e-21)
(1.04627 0.0290895 0)
(0.29535 -0.0331117 0)
(1.04752 -0.0615868 0)
(1.21688 0.0782658 -3.75297e-20)
(-0.034105 -0.0433416 4.21049e-20)
(1.12073 0.0137191 -2.50503e-23)
(1.18713 0.21047 0)
(0.739584 0.0174649 -1.01037e-20)
(1.18159 -0.215476 1.90021e-21)
(-0.00807915 -0.037041 -1.23671e-19)
(0.761855 -0.0647824 -4.05702e-20)
(0.629038 -0.0198486 0)
(1.00953 -0.204114 0)
(0.947442 0.0389611 1.07236e-20)
(0.975798 -0.115568 4.50753e-21)
(1.29904 0.390384 6.56012e-21)
(1.12112 -0.150618 -2.01507e-22)
(1.06222 -0.0608021 -5.29427e-21)
(0.994611 -0.265312 0)
(1.38331 0.41407 -5.34916e-20)
(0.67181 -0.0109305 0)
(0.811329 -0.0236056 -5.04246e-21)
(1.04941 -0.0306015 3.09457e-22)
(0.595736 0.0156367 0)
(1.10091 -0.00605852 0)
(0.126319 -0.133256 -4.11841e-20)
(0.944078 0.0209071 -1.93286e-20)
(0.729061 -0.0252593 2.7393e-21)
(0.990527 -0.00334757 0)
(0.571769 -0.0180919 0)
(0.773887 -0.0196919 -4.84137e-21)
(0.53739 -0.0228049 -5.30718e-22)
(1.28574 -0.00142005 2.33934e-22)
(1.25496 0.148894 -4.82826e-21)
(0.718252 0.0171918 -2.56896e-21)
(1.08701 -0.0406623 3.52986e-22)
(1.08632 -0.131904 1.89902e-22)
(0.562266 0.0135155 6.64719e-21)
(1.15454 -0.0661766 1.43987e-22)
(1.10418 0.00509572 0)
(0.887694 -0.240744 0)
(0.516215 0.0172151 0)
(1.03113 -0.0160113 0)
(1.24314 0.0534582 -2.09255e-21)
(0.958119 -0.0455485 0)
(1.12818 -0.00802816 0)
(1.02609 -0.0446517 0)
(1.04162 -0.181937 0)
(-0.0119191 -0.014009 3.85544e-20)
(1.32141 0.003743 7.28001e-22)
(1.03993 -0.0941074 0)
(1.4006 0.0505173 1.99407e-20)
(1.25323 -0.032083 9.73338e-22)
(1.09024 0.0476243 3.86449e-21)
(1.18702 0.0970541 4.68947e-21)
(1.22222 0.0573031 0)
(0.600421 -0.0119707 1.00952e-20)
(1.05273 0.0374251 1.05102e-20)
(1.08824 0.13244 0)
(1.20474 -0.111761 -2.24178e-21)
(1.18912 -0.0872934 2.45409e-21)
(0.426426 0.23371 -7.22909e-21)
(1.14335 0.0586757 2.94778e-21)
(1.24685 -0.0710878 -2.18828e-21)
(0.866652 0.00253651 0)
(1.17411 -0.0984899 -2.46138e-20)
(0.972687 -0.0648685 -8.70765e-21)
(0.780193 -0.0575787 -7.89932e-21)
(0.885397 0.268685 0)
(-0.0196208 -0.0183475 0)
(0.97962 0.117581 -1.70851e-20)
(1.20542 -0.0393459 0)
(1.20566 0.00366696 -4.34546e-21)
(1.11311 -0.0173334 1.69678e-21)
(1.2667 -0.138573 2.10386e-21)
(1.10487 -0.015167 -1.8663e-21)
(1.35973 -0.100966 9.57789e-20)
(1.00973 -0.315992 6.48714e-20)
(1.14702 0.00987424 -1.05658e-21)
(1.06049 0.206454 0)
(0.782769 0.110795 0)
(0.908618 0.00486964 -3.43334e-20)
(1.12548 -0.00865435 -1.83444e-21)
(1.27551 0.0338819 0)
(0.549528 -0.322141 -5.43817e-21)
(0.359753 0.0144495 0)
(0.696049 0.292328 4.72137e-21)
(0.830387 -0.141787 6.41396e-21)
(0.83233 0.0304169 -6.60956e-21)
(1.12542 0.0857061 0)
(1.18028 0.0112773 -1.97918e-21)
(1.06595 0.108854 4.7319e-21)
(0.689857 0.198052 -8.5591e-21)
(1.20748 0.0582 -4.33513e-21)
(0.935402 0.20486 0)
(1.09023 0.0639211 0)
(0.982434 0.200522 7.43169e-21)
(0.788147 0.214904 -4.76929e-21)
(1.18995 -0.0694702 1.32942e-20)
(1.19994 -0.0134814 -4.97334e-21)
(0.953121 0.171371 1.05764e-21)
(1.20443 -0.0376703 0)
(0.401276 -0.134932 1.17309e-20)
(1.30995 0.0347967 -1.99652e-20)
(1.01827 0.0974377 8.7769e-21)
(0.193798 0.335426 7.6422e-21)
(1.42123 -0.169494 1.86855e-20)
(0.916824 -0.157342 7.11934e-20)
(1.16905 0.16195 -7.54297e-21)
(1.15817 -0.00700641 -1.49101e-21)
(-0.0666702 -0.0591918 -7.1895e-21)
(1.00127 -0.0073182 0)
(1.03577 -0.086117 -1.72401e-20)
(0.848657 -0.0302343 8.97654e-21)
(1.10784 -0.0550202 4.82998e-21)
(0.672664 0.025711 -6.89195e-22)
(0.512868 -0.0138369 4.01024e-22)
(1.39663 -0.388355 -1.46469e-20)
(1.16781 0.0515119 0)
(1.05792 0.0371564 -2.84828e-21)
(1.14865 0.0455272 -2.51612e-21)
(1.29382 -0.0264038 0)
(0.716922 0.126421 8.58126e-21)
(1.15614 0.03018 3.74072e-21)
(0.630078 -0.0831518 2.03331e-20)
(1.14558 -0.0151083 -5.69717e-21)
(0.9267 0.17552 -3.45038e-21)
(-0.0432212 0.0392379 0)
(0.515955 0.405935 1.17935e-20)
(1.17709 0.0650784 0)
(0.972585 0.215454 -1.41229e-21)
(0.821934 0.225247 0)
(1.11772 -0.00497289 3.002e-21)
(1.01535 0.0246379 0)
(1.09469 0.126771 0)
(1.40372 -0.151412 1.72962e-20)
(0.791895 -0.0755868 0)
(1.24631 -0.251317 4.36614e-21)
(1.10198 -0.0397679 5.40551e-23)
(1.08144 0.0510672 3.02356e-21)
(1.19388 -0.0424463 1.93135e-21)
(1.24055 0.0966059 -9.25065e-21)
(1.13654 -0.061917 2.9913e-20)
(1.2331 0.0498055 0)
(1.21826 -0.0440698 0)
(1.17311 0.0285874 1.75685e-21)
(1.19425 -0.00400987 0)
(1.46748 0.17402 -3.3378e-20)
(0.647705 -0.203159 -1.52183e-22)
(1.02682 0.0137189 1.90801e-20)
(1.2772 0.0648098 -2.52424e-22)
(-0.0171997 0.0471681 0)
(-0.0181614 -0.0193268 0)
(0.0940061 -0.138736 -3.53679e-20)
(-0.0671078 -0.0884996 0)
(0.626874 -0.281662 -1.16003e-20)
(1.18147 0.0320652 -3.29779e-21)
(1.20422 -0.0987987 -3.91897e-21)
(1.28627 0.0423182 5.93061e-22)
(1.17626 0.00158076 0)
(0.688023 -0.0113169 -2.27395e-21)
(1.20048 -0.00335853 0)
(1.19216 0.0261464 2.29305e-21)
(0.485711 -0.107761 0)
(0.788609 -0.227588 -2.13935e-22)
(1.13821 -0.00567351 0)
(1.10972 0.034483 0)
(0.881671 0.024798 6.5914e-20)
(0.706785 -0.243786 -1.2907e-22)
(0.727874 -0.207381 -2.13359e-21)
(1.01115 0.0184616 -1.11037e-20)
(0.115091 -0.0977396 0)
(1.22244 -0.157494 -1.64689e-20)
(1.17731 0.105046 -1.63764e-21)
(1.08657 -0.167049 -5.03609e-21)
(0.888758 -0.185142 -9.26795e-21)
(-0.0583785 0.00334822 -9.22497e-20)
(1.10424 0.0247972 0)
(-0.0383261 0.0557765 0)
(1.12246 0.0776965 1.01727e-20)
(0.617277 -0.0350244 9.97575e-21)
(1.11277 0.0568631 -7.13257e-21)
(1.12699 -0.0355783 0)
(1.1845 -0.1211 3.22262e-21)
(1.05492 0.00374405 -8.29353e-21)
(0.501307 -0.05077 -7.462e-21)
(1.13756 -0.0233867 -3.18466e-21)
(1.22008 -0.0473322 -2.6753e-22)
(0.000403926 0.402364 -1.13001e-21)
(1.32231 -0.0946791 2.81963e-21)
(1.11678 0.0537633 0)
(1.13151 -0.00479481 0)
(1.19506 0.00938685 -4.14243e-22)
(1.12524 0.0994322 1.48012e-21)
(0.298919 0.0463444 -2.88952e-21)
(1.18863 -0.126829 -2.44824e-20)
(1.08832 0.048673 1.20646e-20)
(0.526969 -0.00259464 1.2236e-20)
(0.407001 -0.188248 -1.17326e-19)
(-0.238866 -0.0501005 3.95626e-21)
(1.18182 0.173813 -6.93256e-21)
(1.21752 -0.488373 2.20626e-21)
(1.43511 0.101152 -1.7792e-20)
(1.19939 -0.0191609 4.90899e-22)
(0.931155 -0.222447 9.78716e-20)
(0.149704 0.0163833 0)
(1.1481 -0.0863449 -1.84855e-22)
(0.472814 0.355868 -2.81751e-20)
(1.10902 0.0474181 -8.80243e-21)
(1.08263 0.023723 8.13023e-21)
(1.10734 0.0402531 0)
(0.78069 0.0391897 0)
(1.17203 -0.0507575 0)
(1.11502 0.186115 2.38895e-21)
(1.27812 -0.00778989 -2.13166e-20)
(1.1576 -0.0270065 3.96571e-21)
(0.473991 0.0177821 0)
(0.624079 0.0145617 0)
(0.619763 -0.00558541 3.77255e-22)
(0.443379 -0.0156622 0)
(1.09689 0.065598 0)
(1.0204 -0.011536 2.98048e-20)
(0.347994 0.35669 0)
(0.92155 0.0162973 0)
(1.14392 -0.0679122 0)
(1.18166 0.17519 1.56589e-21)
(1.25491 0.0763457 9.6901e-21)
(0.964508 -0.0285502 6.86759e-21)
(1.26661 -0.399242 -9.08952e-20)
(0.468902 0.185551 1.22274e-21)
(1.2813 -0.0655382 6.8136e-21)
(1.30321 -0.143991 0)
(-0.208691 -0.0620957 0)
(-0.325935 -0.198754 0)
(1.14802 -0.0249875 3.37663e-21)
(1.30703 -0.292476 -7.26574e-21)
(1.29308 0.172144 0)
(1.11974 0.0256219 -9.91458e-21)
(0.163397 -0.166582 0)
(1.49465 -0.190408 5.38264e-20)
(0.42103 0.534412 9.91571e-20)
(0.236264 -0.0324077 0)
(1.07308 -0.276791 9.75557e-20)
(0.652669 0.000189532 0)
(0.00624103 0.286129 2.0183e-20)
(1.35494 0.147292 0)
(-0.022908 -0.182375 -5.58051e-21)
(0.98398 -0.0502325 0)
(1.22878 0.0268056 2.46574e-21)
(-0.156878 -0.0590699 -7.04932e-21)
(1.11992 -0.0204547 2.33809e-21)
(1.22331 -0.258632 7.97873e-22)
(0.562778 -0.494895 -9.53568e-20)
(1.15528 -0.0643559 -2.03428e-21)
(1.192 -0.132361 8.10197e-21)
(1.19258 0.239069 -1.26204e-20)
(1.1117 0.0965304 4.55308e-21)
(1.13787 -0.00445891 6.97914e-22)
(-0.229983 -0.368039 -4.68714e-20)
(0.137165 0.0833938 -9.75605e-21)
(1.17012 -0.0559323 2.13296e-21)
(1.06053 -0.0474953 0)
(0.464662 -0.292936 -5.0061e-21)
(1.37945 -0.442619 6.34498e-20)
(0.882127 -0.0803517 -4.42391e-20)
(1.47685 0.0882497 9.63822e-20)
(1.08698 -0.0645273 4.23832e-21)
(1.32293 -0.148908 -2.30268e-21)
(1.06142 -0.00918353 0)
(1.18611 -0.00979157 0)
(1.26557 0.0171865 1.36163e-21)
(1.08716 -0.0218125 -4.37596e-21)
(1.12606 0.0670906 -4.65081e-21)
(1.08346 0.0234003 -9.8263e-21)
(1.46194 -0.0408668 -4.37732e-20)
(0.529471 0.0275447 0)
(1.32765 -0.0714301 -2.86291e-21)
(1.34967 0.16816 0)
(1.09533 0.0335904 -7.0789e-21)
(1.13567 0.0175123 0)
(1.04202 -0.0093537 1.62432e-20)
(1.21513 0.0256783 1.45036e-20)
(1.17439 -0.0940652 0)
(0.0483508 -0.0293466 1.32975e-19)
(0.881528 -0.200353 -7.67605e-20)
(1.31798 -0.0643456 -2.93893e-20)
(-0.133046 -0.0170695 4.30902e-20)
(1.19515 0.0451867 2.8016e-22)
(0.742231 -0.0978178 1.03915e-20)
(-0.108868 0.0408542 -4.4922e-20)
(-0.0353326 0.0861348 -3.05077e-20)
(1.01696 -0.0293313 0)
(-0.0222148 -0.0195455 0)
(1.31478 0.122405 0)
(0.110613 -0.0870274 0)
(1.11291 -0.0220888 0)
(0.12701 0.0337085 0)
(1.09612 0.0600564 0)
(1.22372 0.283453 0)
(1.22794 0.110094 -7.42928e-21)
(0.561375 -0.278551 -1.79189e-20)
(-0.211971 0.00231929 0)
(1.08317 -0.111176 4.60263e-20)
(1.21265 -0.109146 1.27089e-22)
(1.43608 0.0889279 0)
(-0.0350776 -0.0351415 0)
(1.14582 0.00553106 1.76439e-21)
(1.14921 -0.00905154 -6.94482e-22)
(1.185 0.390948 0)
(0.17815 -0.0641169 4.40794e-20)
(1.11675 0.0494222 9.43512e-22)
(0.222751 -0.0507656 -4.54768e-20)
(-0.0604831 0.0593382 -3.97593e-20)
(-0.0294052 0.0503995 1.00628e-19)
(0.827724 0.272513 3.76497e-20)
(1.17406 -0.197788 -9.77847e-21)
(1.10465 0.0573823 -1.06637e-20)
(1.0223 -0.00894164 0)
(1.06933 -0.0699598 -2.51015e-20)
(1.21426 0.111984 -1.04145e-20)
(-0.00728623 0.0194425 9.77133e-20)
(0.976709 -0.0683914 -6.24108e-20)
(0.488647 -0.0666374 9.2465e-21)
(0.998756 -0.150866 -7.32384e-21)
(0.0676952 -0.0294463 2.78397e-20)
(0.233711 -0.0378435 -4.05085e-20)
(0.341296 -0.0537521 -3.99412e-20)
(1.1126 0.118746 1.06848e-20)
(-0.048806 -0.021304 0)
(0.775953 -0.0457257 1.6283e-20)
(1.28652 -0.0754624 -1.88761e-20)
(1.16847 0.0386827 1.81977e-20)
(1.32238 -0.0436795 0)
(1.50234 -0.241523 5.38689e-20)
(1.12238 0.0201326 -4.33395e-21)
(-0.00602689 -0.000121397 -3.12771e-20)
(0.440019 0.0395359 0)
(0.924389 0.0200719 -3.70473e-21)
(1.12937 0.0319693 1.1004e-21)
(0.465913 -0.103233 -2.6121e-21)
(1.14385 0.00491496 -7.8039e-22)
(1.11429 0.0420843 0)
(1.109 -0.175693 -1.22595e-20)
(-0.109186 -0.0912908 -5.48912e-20)
(1.32252 -0.0336553 1.9115e-20)
(1.10964 0.171742 -9.20099e-21)
(1.10959 0.0140957 1.12382e-20)
(-0.029925 -0.0225251 1.28075e-20)
(-0.0345173 0.0684351 -7.82488e-20)
(0.760324 -0.0513415 0)
(0.983777 0.263668 0)
(1.15187 0.0836756 -1.15875e-20)
(1.05277 0.0642913 1.07157e-20)
(1.15646 0.0215399 0)
(0.449719 -0.149766 3.91024e-20)
(0.814962 0.0748161 -1.42773e-20)
(1.10049 0.09836 0)
(1.11495 0.011159 0)
(1.4268 0.250417 0)
(1.19483 0.106742 0)
(1.30169 -0.033719 -5.17731e-22)
(-0.042453 0.0505775 4.34321e-20)
(1.12907 0.0849429 6.19671e-21)
(1.3777 -0.212627 -6.10546e-20)
(1.37501 0.0479683 -1.37215e-21)
(-0.0338532 -0.214432 0)
(1.22575 -0.170162 0)
(0.632175 -0.013633 -5.6062e-22)
(0.591476 0.0058593 -7.10566e-20)
(0.0898588 0.0341424 5.69859e-20)
(0.962272 0.0318725 3.7173e-21)
(0.722738 -0.267661 0)
(0.653875 -0.0899988 0)
(1.32395 0.0925212 0)
(0.553496 0.528387 3.24643e-20)
(-0.0275629 0.0662422 -3.5059e-20)
(1.00111 -0.126874 2.45817e-21)
(-0.0141888 0.00551431 5.74049e-20)
(1.09793 -0.0103969 4.22967e-21)
(1.18617 0.310158 2.40692e-20)
(1.11257 -0.0957842 1.09048e-20)
(0.266909 -0.309243 6.12408e-20)
(0.916703 -0.160559 6.02389e-21)
(1.26612 -0.259015 0)
(0.582598 0.280691 0)
(1.0091 -0.0277336 -6.57493e-21)
(-0.209922 -0.0460894 0)
(0.615685 0.0272445 3.21495e-21)
(0.589909 -0.406833 -2.31226e-21)
(0.264937 0.0500875 -1.29953e-19)
(1.1161 -0.224555 4.17196e-20)
(1.05041 0.372956 9.34557e-21)
(0.97873 0.0261656 0)
(1.19322 -0.152532 4.20621e-22)
(0.655554 0.0151488 0)
(0.979519 -0.0163438 -4.66454e-22)
(0.409435 -0.0181708 0)
(0.712787 0.14739 0)
(0.997477 -0.0212912 -4.54076e-21)
(1.4564 0.135638 -1.8212e-20)
(1.09874 0.013137 4.98882e-21)
(0.510749 -0.47858 0)
(1.12908 -0.156053 4.65325e-21)
(0.811697 0.391625 6.70165e-20)
(-0.031259 0.0199521 1.42184e-21)
(1.18521 -0.0177469 6.8574e-21)
(1.19307 0.0173095 -1.10228e-20)
(1.09907 0.0442438 1.32251e-21)
(0.793185 0.0109736 -4.08066e-21)
(0.0786742 0.017631 4.5596e-20)
(-0.0212234 0.0448888 -5.56435e-20)
(-0.260473 -0.143791 0)
(-0.21692 -0.0174957 0)
(1.16401 -0.605929 2.69283e-20)
(1.13917 -0.0210384 -6.8101e-22)
(0.867327 -0.455533 -3.40159e-20)
(0.905116 0.0588796 -3.13375e-20)
(1.40776 0.172208 4.28478e-20)
(0.62186 0.433537 0)
(0.25162 0.43033 -1.08557e-19)
(0.60417 0.49992 0)
(0.167828 -0.0677765 0)
(1.10853 -0.471641 0)
(-0.0613981 0.0944046 -8.86517e-22)
(1.19836 -0.0133199 0)
(1.0063 0.361089 -3.65303e-20)
(0.609716 0.712145 2.14897e-20)
(1.26042 0.300105 2.27158e-21)
(-0.0366753 -0.0434684 -8.86738e-20)
(0.886236 0.364674 -7.59628e-22)
(0.480898 0.149847 -1.55669e-20)
(1.19527 0.0656237 0)
(1.38988 0.342697 4.70936e-20)
(1.2449 0.571434 1.56581e-20)
(0.196994 -0.0232601 -2.75141e-20)
(1.09546 0.0975045 4.15341e-20)
(0.928991 -0.017107 8.23231e-22)
(0.937881 0.0356868 -9.98686e-22)
(-0.00743136 -0.0147833 0)
(0.634003 -0.630898 -3.29335e-20)
(0.615757 0.22063 0)
(0.032347 -0.134802 0)
(-0.056273 0.0973249 0)
(-0.0190759 -0.0867447 -3.25353e-20)
(1.20734 -0.00384559 -7.90912e-21)
(-0.00602673 0.0986913 0)
(-0.0484797 0.108445 0)
(1.42549 0.0803509 -9.0862e-20)
(-0.0308448 -0.036897 4.03922e-20)
(0.117305 0.247845 -9.86094e-20)
(0.4383 0.0137238 0)
(0.164989 -0.260558 8.35551e-20)
(1.0566 -0.238438 0)
(0.989071 -0.276277 0)
(-0.0129982 -0.0587009 8.22098e-20)
(1.13698 0.0252521 -6.69714e-23)
(1.13957 0.344759 2.44423e-20)
(0.292692 0.0266886 5.44691e-20)
(0.394203 -0.50113 -4.41446e-20)
(1.37654 0.015316 0)
(1.2837 0.175509 2.69223e-20)
(1.26674 0.19586 -3.30573e-20)
(0.103825 0.105596 -2.32679e-20)
(-0.0725547 0.0573734 0)
(1.06894 -0.0539267 -2.01459e-20)
(1.09288 -0.217765 -2.04682e-20)
(0.574736 -0.382933 0)
(1.09422 -0.149057 -2.91479e-20)
(-0.0676159 -0.0536992 0)
(0.708816 0.0350139 0)
(1.48703 0.0414718 4.00074e-20)
(0.996313 0.0153284 6.49203e-22)
(1.09711 0.757083 -9.59983e-21)
(0.219498 -0.363307 1.40244e-19)
(1.09123 -0.00791099 -1.80524e-21)
(1.19993 0.0575697 1.54217e-21)
(-0.0651543 0.129647 3.69471e-20)
(0.807355 0.750843 2.07934e-20)
(1.33078 -0.373157 -1.24929e-20)
(0.0451497 -0.251574 8.27564e-20)
(1.13295 0.0518563 0)
(0.319964 -0.212174 -9.91607e-21)
(0.878172 -0.621462 2.08563e-21)
(0.925974 0.656561 -2.9469e-20)
(0.516696 -0.0381756 -5.16198e-20)
(1.13266 -0.00929367 -4.2458e-21)
(1.07646 -0.0860155 8.73905e-21)
(1.13063 0.0677135 3.36e-21)
(1.10763 0.114962 2.10733e-21)
(1.1273 -0.131102 0)
(0.97189 0.0966239 1.8051e-20)
(0.918591 0.469396 0)
(1.23319 0.135177 -4.93237e-23)
(1.16543 0.0974601 -1.90253e-21)
(0.788722 0.269887 0)
(0.557585 0.112254 1.23955e-19)
(0.911112 0.728297 -6.49276e-22)
(1.08906 0.291092 -1.87714e-20)
(1.04346 -0.011776 1.46179e-20)
(0.421856 0.513358 0)
(1.2768 -0.469869 0)
(0.649838 -0.294402 4.06606e-21)
(1.29604 0.50678 0)
(-0.00908602 0.0687605 -5.27875e-20)
(1.266 -0.41245 7.33043e-21)
(1.1833 0.513433 0)
(0.45458 0.239969 1.66748e-19)
(1.16516 0.318438 -1.40556e-19)
(0.801484 -0.620489 -2.96673e-20)
(1.14098 0.0699202 -8.71665e-22)
(0.966838 0.15148 9.71803e-20)
(1.09613 0.165369 4.43986e-20)
(1.09423 0.716473 -2.4988e-21)
(0.891579 -0.422419 7.12019e-20)
(1.44113 0.132221 5.01653e-20)
(1.11993 0.00288711 -7.01663e-22)
(-0.00387867 -0.0198939 7.31106e-20)
(1.06243 -0.688526 1.22375e-20)
(0.85489 -0.701524 6.36291e-20)
(0.245445 -0.304556 0)
(0.969289 -0.139761 7.75536e-20)
(0.367058 0.331291 -4.32822e-19)
(-0.174532 -0.161745 2.12153e-20)
(0.314272 0.0498116 2.90046e-20)
(0.647199 -0.0596467 -6.16779e-20)
(1.09722 0.538428 0)
(0.99899 0.226752 7.56787e-20)
(1.08452 0.0282516 2.98923e-21)
(0.924739 0.455288 -8.6404e-20)
(0.763298 -0.706452 -1.05551e-20)
(0.926257 0.034029 -4.93522e-20)
(0.990341 0.49998 0)
(1.12159 0.287755 -1.12578e-20)
(1.35984 -0.51149 9.75731e-21)
(1.21492 -0.337329 7.55672e-21)
(-0.203187 -0.232191 3.97347e-20)
(0.193691 0.0314802 -1.81627e-20)
(0.971463 -0.110415 -5.91482e-20)
(0.362166 0.546608 0)
(0.917693 0.028778 3.93238e-20)
(1.18499 0.645725 9.59749e-20)
(-0.111283 -0.147807 1.16395e-19)
(-0.0783831 0.115641 -3.09e-20)
(-0.0856327 -0.02893 3.91822e-20)
(1.0927 0.0157213 -3.92941e-21)
(1.10656 -0.453879 0)
(1.04867 -0.718875 -5.46478e-20)
(0.705981 0.366686 0)
(-0.00438888 -0.151689 -7.79833e-20)
(1.12999 0.00608543 7.34769e-21)
(-0.0287814 -0.0089042 -2.46464e-20)
(1.05019 0.0507993 -1.23394e-20)
(0.130166 0.0352753 6.83584e-20)
(0.907344 0.124636 0)
(1.4095 -0.0641197 4.2789e-20)
(0.102367 0.0695638 -3.29266e-20)
(-0.33138 -0.160766 -4.71487e-20)
(-0.272804 -0.135217 0)
(0.0699794 -0.00273913 0)
(1.3674 -0.0136284 -9.84572e-21)
(0.358021 -0.011653 1.26354e-19)
(1.24407 -0.714519 -6.51929e-21)
(0.858393 -0.266346 5.09834e-21)
(1.08287 0.251619 -2.60641e-20)
(0.358099 -0.532132 1.46067e-19)
(1.57844 0.246787 -4.29129e-20)
(0.0356353 -0.0364097 2.75629e-20)
(0.211635 0.330694 1.9296e-19)
(0.0637945 -0.0130274 -1.05196e-19)
(0.932331 -0.479241 -4.60112e-20)
(1.48668 0.377545 4.3327e-20)
(0.551978 -0.654547 5.33616e-20)
(1.10538 -0.0810831 -8.36327e-21)
(0.1914 -0.0769075 4.16043e-20)
(1.23476 0.288039 -5.77766e-20)
(0.673828 0.659267 -3.77644e-20)
(1.31168 -0.615269 0)
(1.45743 0.518967 3.94636e-20)
(1.03814 -0.516568 -1.16456e-20)
(1.42029 0.610106 -1.2304e-19)
(1.1782 0.0570902 0)
(-0.0555647 0.123912 0)
(1.27613 0.738778 0)
(1.15687 0.119675 -7.29424e-21)
(0.731426 -0.28433 -2.12464e-19)
(0.475034 -0.0629503 0)
(-0.0549218 0.140873 -3.1295e-20)
(1.01437 -0.239499 1.08978e-19)
(-0.345787 -0.154292 0)
(0.322178 0.0494919 1.22725e-20)
(1.13446 0.0506692 0)
(1.46024 0.257174 0)
(1.1815 0.0649126 9.33345e-22)
(0.356148 -0.268165 0)
(1.01908 0.152471 3.46667e-20)
(1.34862 0.274709 0)
(-0.106827 0.103203 -1.98918e-21)
(0.805453 -0.378567 0)
(1.54178 0.314822 -6.43261e-20)
(1.25845 0.366402 -5.72603e-21)
(0.854726 0.662024 -9.14475e-21)
(1.01767 0.157778 -8.36781e-20)
(0.96241 -0.196966 -5.25713e-20)
(1.484 0.27518 3.77503e-20)
(1.10162 0.0557582 0)
(0.564244 -0.0525664 0)
)
;

boundaryField
{
    FrontBack
    {
        type            empty;
    }
    Top
    {
        type            noSlip;
    }
    In
    {
        type            fixedValue;
        value           uniform (1 0 0);
    }
    Bottom
    {
        type            noSlip;
    }
    Out
    {
        type            zeroGradient;
    }
    circle
    {
        type            noSlip;
    }
}


// ************************************************************************* //
