/*--------------------------------*- C++ -*----------------------------------*\
| =========                 |                                                 |
| \\      /  F ield         | OpenFOAM: The Open Source CFD Toolbox           |
|  \\    /   O peration     | Version:  2412                                  |
|   \\  /    A nd           | Website:  www.openfoam.com                      |
|    \\/     M anipulation  |                                                 |
\*---------------------------------------------------------------------------*/
FoamFile
{
    version     2.0;
    format      ascii;
    arch        "LSB;label=32;scalar=64";
    class       surfaceScalarField;
    location    "1.3";
    object      phi;
}
// * * * * * * * * * * * * * * * * * * * * * * * * * * * * * * * * * * * * * //

dimensions      [0 3 -1 0 0 0 0];

oriented        oriented;

internalField   nonuniform List<scalar> 
1171
(
-0.897274
0.897274
0.878097
-1.15335
0.275258
-0.223911
-0.666358
0.890269
0.102726
-0.11158
-0.246429
0.358008
-0.878097
0.050945
0.827152
0.811392
-0.159173
-0.652219
0.818986
-0.982328
0.163342
-0.310966
-0.0957787
0.406745
-0.0258971
0.558277
-0.53238
-0.500888
0.816744
-0.315856
-0.422546
0.980632
-0.161646
0.416055
-0.0142905
-0.401765
0.972886
0.0077469
0.379244
0.0368111
0.98078
-0.00789406
0.578435
-0.802346
-0.732938
0.561491
0.171447
0.198647
-0.699535
0.561579
-0.93632
0.374741
-1.07476
0.699416
0.375348
-0.622909
0.597011
0.025133
-0.247279
0.222146
-0.0554966
-0.483953
0.53945
0.439745
-0.535524
-0.858449
0.890045
-0.0315954
0.999386
-0.0186066
0.884645
-1.10745
0.222806
1.00272
-0.00333065
-0.663158
-0.0697799
1.17033
-0.800595
-0.369738
0.144268
-0.112938
-0.331217
0.444156
-0.26915
0.191657
0.0774933
-0.648943
-0.504412
0.961035
-0.0763901
0.00669346
0.805102
-0.811795
0.505889
0.664444
0.445339
-0.0233667
0.463112
-0.764515
-0.121547
0.886062
0.495044
0.247937
-0.742981
-0.0075573
0.473324
-0.465767
-0.49103
-0.583734
-0.408145
-0.699305
-0.015125
0.270335
-0.255211
-0.901323
0.0143334
0.88699
0.318298
0.0884468
0.773918
0.0374739
-0.549027
-0.0738821
0.043663
-0.808178
0.10598
0.841127
-0.947107
-0.375066
-0.023801
0.398867
-0.647333
-0.25399
-0.630552
0.736532
0.599703
0.217042
-0.555747
0.929309
-0.749721
-0.179589
0.193972
0.0684578
-0.26243
-0.440548
-0.0949752
-0.237775
0.837477
0.081157
0.315599
-0.396756
-0.474722
0.969767
0.7513
-0.872846
0.302349
0.0339229
-0.336272
1.05478
-1.05478
-0.790579
0.0842431
-0.330672
-0.818764
0.825458
-0.09619
-0.154924
0.251114
0.830065
-0.0249634
0.997244
-0.749307
0.203237
-0.310987
0.107749
0.846958
-0.0730401
-0.632841
-0.0351512
0.667992
0.141507
-0.235125
0.0936178
0.755955
-0.915128
-0.457616
0.322874
0.134742
0.503666
-0.559162
1.07968
-0.433588
-0.646093
0.671536
-0.624378
0.00861568
0.615763
0.103977
0.590837
0.0564583
-0.647296
0.18176
-0.0975166
-0.510744
0.135678
0.0555612
-0.864356
0.808795
-0.498244
-0.67834
0.0151815
0.456277
0.00683513
0.23301
-0.812509
0.579499
0.429449
0.570551
0.519092
-0.475429
-0.383506
0.106871
0.276636
0.824646
0.230135
-0.550852
0.543295
0.125059
0.8069
-0.0110557
-0.621785
-0.800561
0.856123
0.555686
0.0591417
0.292704
-0.351846
-0.108762
0.398574
0.0747495
0.897884
-0.853267
-0.0446174
0.607916
0.321393
-0.455673
0.569119
-0.509977
0.432483
0.129096
-0.0394168
-0.574973
-0.146699
0.721672
-0.160439
-0.894342
-0.589669
0.363507
0.226162
0.578949
-0.590005
0.261818
0.953453
0.0437905
-0.800561
0.404978
-0.211006
0.7513
0.843848
-0.843848
0.849175
-0.87527
0.0260951
-0.434657
0.864106
-0.178858
-0.331886
0.737216
-0.664002
-0.0732143
-0.707628
0.132655
0.133369
-0.682395
0.872846
-0.981609
-0.342293
0.193943
0.14835
0.144189
-0.960381
0.816192
0.496722
-0.0513826
-0.305308
0.583452
-0.278144
-0.855496
0.999685
-0.170772
0.639878
-0.743499
0.103621
0.920158
-0.544425
-0.375733
0.804431
-0.0602938
-0.00412462
0.0888602
-0.0847356
-0.752222
-0.738703
0.0723455
-0.818764
0.548419
-0.57222
0.0904991
0.63894
-0.729439
0.774466
0.122807
0.452357
0.547643
-0.0556502
-0.534246
0.589896
0.90289
-0.00500569
-0.804431
0.856123
0.202697
-0.449977
-0.0209508
0.0156129
0.00533794
0.617432
-0.458014
-0.159418
0.827152
0.0736834
-0.0988247
0.439482
0.17795
-0.0297196
0.00379
0.0259296
-0.00416492
4.02965e-05
0.29871
-0.264787
-1.01462
-0.00692755
-0.158497
-0.0435828
0.075194
0.731992
0.758042
-0.187491
0.72676
-0.636261
-0.189898
0.393135
0.811705
0.0154467
0.233905
-1.10917
-0.981609
0.325133
0.825458
-0.204149
0.0492257
-0.725064
0.911859
-0.186795
0.447216
-0.0483488
0.748501
0.375622
0.252883
0.126361
-0.68229
0.68229
0.231462
0.6546
-0.0732406
0.38884
0.370915
-0.0781959
0.0572451
0.453519
0.0432026
-0.855496
0.518317
0.218899
0.238917
-0.150056
-0.811705
0.166136
0.745723
0.0142444
-0.784436
0.770192
0.744277
-0.82581
0.0815335
-0.774466
-0.116728
0.147188
-0.0304602
0.0636797
-0.204309
-0.0981604
0.30247
-0.0186852
-0.0110344
0.684612
-0.670367
0.829006
0.0612621
-0.302666
-0.466562
0.769228
0.00948588
-0.00948588
0.300813
0.472551
0.609125
-1.08168
-0.179365
-0.540532
0.719897
0.0178866
0.233227
0.38787
-0.246363
0.969572
-0.497021
0.650683
0.991792
-0.382668
0.209012
0.999685
0.838038
0.218931
0.671114
-0.894342
0.31771
-0.194515
0.249128
-0.0546137
0.790029
-0.0153933
-0.774635
-0.830144
0.826814
0.565343
-0.830144
-0.838038
0.826814
-0.0471867
0.808063
0.0209436
-0.824646
0.728637
0.0960091
0.520292
0.539766
-1.06006
0.46293
0.506642
0.553673
0.455066
-1.00874
0.487314
0.504478
0.728637
-0.482002
-0.423275
-0.573416
-0.512291
-0.104559
-0.0195401
0.0195401
0.496883
0.518133
-1.03042
0.539348
-0.246645
-0.91391
0.369485
-0.654896
0.400907
0.00236751
-0.814917
0.812549
0.452735
-0.0180105
0.808039
-0.933218
-0.860324
0.0520823
0.808242
0.645024
-0.533731
-0.111292
0.640381
-0.716771
0.872862
-0.81978
-0.0530824
-0.025062
-0.828205
-0.106493
0.704899
-0.598406
-0.86392
0.838858
-0.782306
0.742212
0.0400948
-0.835065
0.0336014
0.801464
0.0165945
-0.00710866
0.362106
0.0603561
-0.863195
0.802839
-0.618277
0.562627
0.924318
0.0817434
-1.00606
0.0639935
-0.0808712
0.357507
-0.351411
0.0404247
0.859482
-0.857114
-0.773803
-0.827349
-0.000855263
-0.135672
-0.834353
0.0145734
0.678686
0.0480745
0.0344292
0.610594
-0.801701
0.835303
0.646093
-0.832927
-0.782177
0.0258859
-0.0407544
0.826956
-0.786201
-0.0218038
-0.814557
0.583699
0.160578
-0.0252543
0.833294
0.890941
0.881802
-0.867228
0.0609125
-0.0609125
-0.11968
-0.578092
0.0443605
0.271697
0.0534363
0.326566
0.81149
-0.0137725
-0.00491265
0.636313
0.363687
0.827978
-0.648943
-0.73386
-0.801595
-0.795218
0.795218
-0.193455
-0.137217
0.600083
-0.826243
0.22616
-0.48068
-0.514953
0.252728
-0.952033
-0.844615
0.791532
-0.802178
0.801323
0.665725
0.133113
-0.798838
-0.7615
-0.140028
0.747158
-0.60713
0.033125
-0.00295838
0.0134734
-0.010515
-0.468871
-0.109221
0.852811
0.65898
-0.217515
-0.441464
0.547688
0.674519
-0.443057
0.0191212
-0.288271
0.0101997
0.695539
-0.705738
-0.286308
-0.0749821
0.0904047
-0.90493
0.130294
-0.693129
0.0571249
0.650863
-0.707988
-0.7678
0.074671
0.599057
-0.674039
0.171226
-0.375535
-0.753849
-0.00765081
0.373076
0.606921
-0.0378016
0.00685576
-0.00685576
-0.0157501
0.0177426
-0.212257
0.0175364
-0.031309
-0.705775
0.289534
0.686602
-0.688337
0.00173442
-0.57785
0.634975
0.671189
-0.0721319
-0.648682
-0.119119
-1.0541
0.0179832
0.0429292
-0.695575
-0.755175
-0.76483
0.395092
-0.317573
0.371935
-0.0543621
-0.647073
-0.0485017
0.520222
0.739039
-0.173925
0.130342
0.91258
0.453537
0.125037
-0.578574
-0.667842
0.0207686
-0.0231253
0.0201669
0.636571
-0.78327
0.0138693
-0.0138693
-0.6034
0.648714
-0.0453137
-0.633413
-0.124449
-0.63987
0.0392267
0.55067
-0.0988415
-0.779898
-0.528887
0.544614
-0.0157267
0.623341
-0.621607
0.333504
0.213315
-0.546819
-0.118603
-0.613048
-0.0949392
-0.149863
-0.48966
0.422378
-0.517353
0.134557
0.696795
-0.831352
0.671536
-0.305147
-0.0124254
0.0758254
-0.565486
0.584763
-0.0637996
-0.520964
-0.288122
0.299143
-0.0110215
0.423243
0.116106
0.0581406
-0.292471
0.171866
0.120605
0.371773
0.0332047
-0.272207
-0.447599
0.484598
-0.036999
0.780977
-0.604381
-0.0290315
0.527232
0.279991
-0.497506
0.706445
-0.706445
-0.277431
-0.708948
-0.275381
-0.708948
-0.610969
-0.911331
0.247329
-0.560021
0.736025
0.0125433
0.120823
0.486097
0.102357
0.146249
-0.00842541
-0.137823
-0.0154072
0.60034
-0.887417
0.420855
-0.025697
-0.108296
0.133993
-0.679262
-0.15221
-0.44616
0.571197
-0.509304
-0.357817
-0.207669
-0.282836
-0.0843059
0.0843059
0.104434
0.0427542
0.164232
0.405139
-0.544066
0.097906
0.223431
0.474011
0.525989
0.620768
0.0452081
-0.0296581
-0.01555
-0.252545
-0.527353
-0.507091
0.118084
-0.12073
0.00264557
-0.105668
-0.395686
-0.0429177
0.593587
-0.532096
-0.147166
-0.289359
0.160721
0.123265
-0.684763
-0.20188
-0.300656
0.0358693
-0.459023
0.320294
0.138729
-0.0761945
0.299319
-0.883053
-0.475849
0.57818
-0.771989
0.653386
0.307969
-0.10781
0.159355
-0.0515454
0.0133683
-0.618694
0.0159334
0.602761
-0.986368
0.574525
-0.694205
-0.0958845
0.0206631
-0.0206631
-0.27335
0.298559
0.0589478
0.0171701
0.028038
0.517885
0.660821
-0.705438
0.032783
0.0164569
-0.00960114
0.0125609
-0.0125609
-0.367793
0.483899
0.0195657
-0.0195657
-0.756957
-0.0281531
0.0447476
-0.421154
0.51906
0.427637
-0.47295
0.079736
-0.079736
0.0268855
0.0303596
-0.0674292
-0.885935
0.510202
-0.422155
-0.00710866
0.542908
0.0331082
-0.576016
-0.645688
0.113592
-0.326379
-0.00545052
0.331829
-0.140303
-0.0336211
-0.558197
-0.0604969
0.0429292
0.0079669
0.00590241
0.00327906
-0.00327906
-0.467884
0.430885
-0.430445
0.183454
0.644525
-0.0924765
0.0066176
-0.0066176
0.482626
-0.0741683
0.0111772
0.0222662
0.00545224
0.606174
-0.680342
-0.591548
0.562517
-0.123596
0.350265
0.728438
-0.0157501
-0.227417
0.0773605
-0.688427
0.488403
-0.34334
-0.102779
0.0255016
-0.0223898
-0.0121216
0.414118
-0.115163
-0.405801
0.628423
0.00697924
0.0175128
-0.0175128
-0.2462
-0.0627443
-0.549822
0.562366
-0.20597
0.468289
-0.13604
0.714475
0.675011
0.0079669
-0.590026
0.576186
0.231384
-0.245204
0.0138198
0.486322
0.0862697
-0.0197697
0.113648
-0.0938785
0.0230488
-0.0230488
-0.792384
0.0188235
-0.0667154
0.0889816
-0.0914102
0.0914102
0.0164569
-0.00913254
0.693773
0.0519505
-0.310219
-0.0854665
-0.463496
-0.0579752
-0.0772254
0.0772254
0.0113355
0.0869712
-0.0869712
0.0424014
-0.0424014
-0.312592
-0.143081
0.244195
0.0786784
0.0221921
-0.757383
-0.126995
0.172267
0.0304302
-0.287798
0.0830705
-0.0830705
-0.409539
-0.107815
0.228713
-0.00656693
0.011246
-0.560447
0.607634
-0.102528
0.113864
-0.0786894
0.109049
-0.00723525
-0.166004
0.173239
-0.128508
-0.247027
-0.0886381
0.0886381
0.0560919
-0.0560919
-0.0253128
-0.100536
0.125849
0.197532
-0.180373
-0.022268
0.0126669
-0.1198
0.550685
-0.028214
0.39926
0.00383405
0.0220955
-0.0657557
0.0657557
-0.678272
0.326829
-0.117817
-0.216391
-0.0187338
-0.0539319
0.0651779
0.185675
0.116795
0.0197397
-0.0142875
0.0884397
0.0296445
0.0651643
0.107103
-0.0304726
0.160814
0.00364351
-0.0617815
-0.0195349
0.0360027
-0.0164678
-0.00105592
0.0108133
0.0270028
-0.0270028
0.0597163
-0.0457026
0.0457026
-0.179546
-0.039686
0.0267445
-0.0821834
0.0193526
0.0779926
-0.0779926
0.324404
-0.274762
0.146254
-0.062728
-0.212034
-0.0110932
0.0110932
0.369166
0.246597
-0.50249
-0.0747492
-0.0459806
0.55262
0.118842
-0.110622
-0.370241
0.0475973
-0.154956
0.176081
-0.021125
-0.0483481
0.0483481
0.776035
-0.587867
-0.0180451
0.0169892
-0.0071043
-0.289428
-0.00390075
0.00277213
-0.077769
-0.545837
0.57131
-0.580308
0.0114127
0.0982466
0.0114696
0.0233544
-0.16206
-0.330635
0.248452
-0.0544019
0.0290891
0.151503
0.14764
0.268591
0.276619
-0.26515
-0.0136325
-0.137925
-0.221841
0.0703115
-0.00514721
0.182156
-0.158802
-0.0637382
0.152178
-0.366993
0.156606
-0.137254
0.0617671
-0.467568
0.178853
0.173775
-0.237513
0.030553
-0.180926
0.177026
0.00507786
0.1471
-0.0261368
0.0471875
0.435439
0.0159096
-0.0847858
0.0487329
0.0665918
-0.242966
-0.195893
0.535926
0.164288
0.0644254
0.0752355
-0.0542396
-0.114617
0.128437
-0.0306589
0.171532
-0.160119
-0.0969074
-0.00537823
-0.119
-0.0338265
0.063907
0.301355
-0.0622721
-0.00556772
-0.295376
-0.0733071
0.214199
0.165503
0.161327
0.0449023
0.0976347
0.0584153
0.459469
-0.0128243
0.116907
0.0358061
0.0721174
-0.107923
-0.255893
-0.210405
-0.00162876
-0.166213
0.297005
)
;

boundaryField
{
    FrontBack
    {
        type            empty;
    }
    Top
    {
        type            calculated;
        value           uniform 0;
    }
    In
    {
        type            calculated;
        value           uniform -1;
    }
    Bottom
    {
        type            calculated;
        value           uniform 0;
    }
    Out
    {
        type            calculated;
        value           nonuniform List<scalar> 10(1.0166 1.00229 0.996691 0.993956 0.994832 1.01677 1.01502 0.995634 0.983875 0.984329);
    }
    circle
    {
        type            calculated;
        value           uniform 0;
    }
}


// ************************************************************************* //
