/*--------------------------------*- C++ -*----------------------------------*\
| =========                 |                                                 |
| \\      /  F ield         | OpenFOAM: The Open Source CFD Toolbox           |
|  \\    /   O peration     | Version:  2412                                  |
|   \\  /    A nd           | Website:  www.openfoam.com                      |
|    \\/     M anipulation  |                                                 |
\*---------------------------------------------------------------------------*/
FoamFile
{
    version     2.0;
    format      ascii;
    arch        "LSB;label=32;scalar=64";
    class       volScalarField;
    location    "45";
    object      p;
}
// * * * * * * * * * * * * * * * * * * * * * * * * * * * * * * * * * * * * * //

dimensions      [0 2 -2 0 0 0 0];

internalField   nonuniform List<scalar> 
808
(
0.125523
0.0336531
0.0519969
0.125274
-0.232871
0.0275734
0.0273552
0.0462
-0.13388
-0.0253367
0.0529301
-0.151454
0.0444346
0.0262193
-0.20479
0.0298195
-0.209043
0.0183018
0.0380233
0.0196671
0.0368156
0.377067
0.0831948
0.0101818
0.450184
-0.101055
-0.0566947
0.0141443
0.0138663
0.0262938
0.0176455
0.0275544
0.0322378
0.00897151
-0.0893134
0.621168
0.0328471
0.0306208
0.0403856
0.0338553
-0.0523565
-0.052132
0.0518616
0.0436298
-0.0271921
0.0980754
0.031456
0.00910203
0.0421195
-0.176009
0.0258848
0.0240994
0.0598212
0.00410966
-0.0965304
0.0405385
0.0121567
0.0440552
-0.0238184
0.0337789
-0.353265
0.00288754
0.0464612
-0.188091
0.0468128
0.063393
-0.304674
0.040599
0.0487409
-0.28391
0.04429
-0.314824
0.0425269
0.0338828
0.181005
0.0405302
0.0118769
-0.084599
0.0336797
0.308961
-0.0627308
0.0312953
0.0501074
0.267943
0.0435482
-0.00123293
-0.363752
-0.120424
0.0454933
-0.134884
0.047294
-0.099469
0.252486
0.163262
0.0547647
-0.34011
0.0440122
-0.0214429
-0.109968
-0.285493
0.0264051
0.0197217
0.0527283
0.00392236
-0.0956885
0.0720146
-0.00479732
-0.0364554
0.0380207
0.0248191
-0.029813
0.33213
0.043733
0.0171402
0.0349797
0.448766
0.0321779
-0.268745
0.039837
0.0671915
-0.330076
0.0537708
0.0354115
0.0676097
0.121668
-0.0628646
0.111286
0.0701465
0.0323205
0.0811866
-0.365425
0.0511605
-0.0388281
0.129046
0.041229
0.0338435
-0.0192967
-0.0150494
0.0416951
0.0248983
-0.338569
0.0557913
0.0215067
0.0445809
-0.031711
-0.0730081
0.103647
0.159976
-0.138469
-0.0616454
0.0441602
0.338792
0.0459101
0.530258
-0.32077
-0.0819146
0.0301492
-0.0965583
-0.00837347
-0.0870682
-0.316161
-0.335548
-0.312681
0.0390378
0.0765195
0.0439556
0.0395117
-0.330633
0.0405736
0.0523882
0.0529707
0.163946
-0.0857631
0.118965
0.0315613
0.0775697
0.0828181
-0.160996
0.041592
-0.344091
0.0516977
-0.145966
0.0351797
0.262542
-0.0824501
0.128352
0.040731
-0.159728
0.0469981
-0.111033
-0.308524
-0.0587884
0.0383742
0.086963
0.0343547
-0.304004
0.0356642
0.0459579
0.0165741
0.0870554
0.0758122
0.0511052
0.0344101
-0.30662
0.371448
-0.310148
-0.321316
0.0106706
0.0626915
0.0436008
0.0233549
-0.393937
-0.400488
0.0326605
0.021815
0.0369438
-0.321357
-0.0540214
0.0269499
0.06035
-0.0179513
-0.106638
0.044559
0.0446988
0.0129912
0.0354622
0.13641
-0.487067
0.00308375
0.015758
0.12668
0.020078
0.0237862
0.0131987
-0.0227158
0.0706187
0.0232847
0.0238646
0.0273139
0.0328717
0.0274227
0.00946723
-0.0214126
0.0146695
0.00702015
-0.00251994
-0.0110716
0.0143031
-0.00897769
-0.0457733
-0.325845
0.000427293
-0.0455912
-0.106554
-0.0174835
0.0442452
0.0157642
-0.00011901
0.0327669
0.133307
-0.0267263
0.01103
0.0217984
0.0548946
0.0530323
0.00685077
-0.0116408
0.00782986
0.00405012
-0.00720592
0.0153121
-0.388856
0.275053
0.0136474
-0.0602957
0.0277833
0.0132715
0.0130185
-0.283587
0.271108
0.0265984
0.0446902
-0.00879832
0.0942068
-0.0944147
0.0113739
-0.058955
-0.03739
-0.0926073
-0.0260111
0.0390202
0.0108254
0.0280307
0.0376535
-0.0366303
0.00320055
0.0295786
0.0669191
-0.0540924
-0.0654393
0.0146381
0.0170671
0.0201798
0.0340939
-0.51291
-0.0582138
0.0436072
-0.0327333
-0.185023
-0.00670282
-0.048172
0.025719
-0.33048
0.132746
0.156748
0.0367404
0.0323131
-0.00386059
0.0092846
-0.222719
0.0230618
-0.00330294
0.038612
-0.0149536
-0.0518653
0.040656
0.00122549
0.00743929
-0.0471123
-0.317485
-0.0204638
0.0581248
0.130392
0.0970956
0.0309335
0.231633
-0.0481615
-0.164601
0.542691
0.104711
0.0166342
0.0394246
-0.0421835
-0.0429076
0.0597955
0.0387588
-0.00599234
0.0217892
-0.00304588
-0.267436
0.0412576
0.114135
0.00193258
-0.309022
-0.329098
-0.465879
-0.329578
0.0293683
0.041872
0.0292181
-0.0379487
-0.00730612
0.0103562
0.0297829
-0.00326118
-0.504719
0.0607123
0.036686
0.0484173
-0.313102
0.041989
-0.0565254
0.118175
-0.331172
0.0865415
0.0291896
0.0858541
0.0407895
-0.32177
0.0668957
-0.355955
0.0480562
0.00292952
0.0511154
0.0352534
0.0489911
-0.0783295
-0.32823
0.0265068
0.0145374
-0.193844
0.0107706
0.0319957
0.0447614
-0.00109677
0.0417462
-0.162959
0.0393037
0.0592786
0.0302494
-0.462827
-0.100435
0.0541241
-0.0152866
-0.0667617
-0.0121624
0.419214
-0.162931
0.0339411
-0.0490989
0.0555481
0.0619313
0.0357211
0.00533833
0.0118625
0.133034
-0.0305678
0.00847067
-0.00520085
-0.00692065
-0.00915856
-0.00652441
0.0411388
0.121545
-0.111329
0.0346336
0.00933606
0.0167055
0.00742102
0.0441038
-0.380037
-0.194802
-0.00742243
0.0122005
-0.0696379
-0.467052
0.00326593
-0.0868148
0.0511106
0.0378042
-0.0892099
-0.250258
0.236243
-0.294661
-0.454978
-0.206028
-0.0768944
0.0376126
-0.502383
0.348463
-0.0452675
-0.342491
0.0302855
0.0865608
0.559826
-0.0032434
0.01172
0.0428701
-0.126356
0.0153591
-0.162498
-0.295647
0.00986047
0.0711327
-0.0581314
-0.263622
-0.299858
-0.19604
0.0268451
0.0202819
0.102726
0.00573771
-0.0492591
0.0917783
-0.13879
0.045466
-0.193031
-0.362115
-0.0422003
0.0153107
0.0432309
0.0259458
0.085801
-0.0234064
-0.012527
-0.458803
0.448115
-0.322123
-0.331187
-0.00248222
-0.0088146
-0.324347
-0.305395
0.124173
-0.327606
-0.0726375
0.858433
0.0388855
-0.342033
0.0367788
0.0408775
0.0802873
-0.466124
-0.315765
-0.299348
-0.0237522
-0.202726
-0.347695
0.0189532
0.0166346
0.0950865
-0.295353
0.0439424
-0.499227
-0.379307
-0.444293
0.0397057
0.0175084
0.0519001
0.115572
0.128026
0.0168334
-0.318313
0.298133
-0.00451304
-0.0155037
-0.43109
-0.494707
-0.313752
0.0905489
-0.33707
-0.0206428
-0.00708138
-0.0588542
-0.23256
-0.228953
0.0383138
-0.327252
-0.307657
0.0184238
0.0238648
-0.0582747
0.0239079
0.0468314
-0.375711
-0.359474
-0.10083
0.0974904
0.0430733
-0.32791
-0.32824
-0.45715
0.0189462
0.049264
0.107671
0.000450532
-0.469946
-0.349464
0.104431
0.0308019
-0.00131185
0.0443771
0.0372022
-0.38838
0.0502168
-0.269509
0.0350792
-0.147416
0.000343113
0.00946981
-0.42377
-0.510678
-0.00107437
-0.47829
-0.45734
0.0448986
-0.0680693
-0.310161
-0.0423209
-0.324317
0.0493505
0.077189
0.0646018
-0.0610987
-0.0473823
0.00530911
-0.47046
-0.00661692
-0.354916
0.0346998
-0.330412
-0.553532
0.0979433
0.271197
0.441253
0.0360848
0.00316101
0.00644145
-0.328779
0.64405
0.0396194
-0.198324
0.0269413
-0.0888413
0.0868581
0.485774
-0.431782
-0.00102905
-0.009266
0.0160616
0.0214915
-0.509287
-0.31138
-0.40038
-0.311487
-0.286147
0.0250176
-0.371117
0.0398987
-0.283329
-0.317493
0.523924
0.595269
-0.330966
0.105996
-0.314991
-0.000941753
0.140225
0.41754
0.0900987
-0.314167
0.119032
-0.540758
-0.00118854
-0.214032
-0.0257694
-0.374261
-0.298453
0.0083592
0.00500244
-0.309292
0.43421
0.677458
-0.334373
-0.341784
-0.324479
-0.0146346
-0.363614
-0.315303
-0.133625
-0.312054
0.764684
-0.39407
0.733255
-0.412993
0.325309
-0.304941
0.0275284
0.172244
-0.546806
0.202465
-0.261534
-0.346477
-0.374116
0.874793
-0.314068
0.207345
0.145955
0.635882
0.123066
-0.293303
-0.322983
-0.179771
0.0256019
0.087416
0.504539
0.0220627
-0.00367647
-0.321161
0.125632
-0.12581
-0.5
0.0592982
-0.17151
-0.177491
-0.155719
-0.360959
0.028616
0.107866
0.0408573
0.0823422
0.114226
-0.382091
-0.366953
0.0812881
0.0270627
-0.488393
-0.548154
0.181239
0.191321
0.09769
0.677476
-0.0865568
0.018236
-0.400425
-0.34812
-0.0643362
0.0789836
0.766556
-0.483447
0.363758
0.032257
-0.476098
0.153373
-0.0761824
0.376505
-0.143203
0.0366822
-0.314472
-0.0944398
0.178988
0.806477
0.332206
0.766883
-0.425947
-0.352278
-0.414333
0.166343
0.266363
0.0751364
0.383406
0.116214
0.495717
0.276215
0.104225
-0.19597
0.022491
-0.278234
0.883876
0.410534
0.660968
0.509287
-0.273555
-0.375696
-0.318137
-0.324312
0.0625436
-0.414868
0.0885313
0.600299
-0.374076
0.00977518
-0.323363
0.189185
-0.390261
-0.417104
-0.166163
-0.338431
-0.34134
-0.399506
-0.325779
-0.12533
-0.413441
-0.146811
-0.0272487
0.146215
0.64333
-0.226538
-0.296333
0.834265
-0.298789
0.279403
-0.252353
0.370467
0.0925504
-0.390688
-0.434572
0.452287
-0.286431
-0.341569
0.180303
-0.286473
0.0141186
-0.342978
-0.122979
0.0541379
0.564316
0.778105
-0.334437
0.227684
-0.362431
0.822605
0.0244198
-0.338738
0.0153101
0.757957
0.208623
-0.346616
-0.318934
0.448133
-0.22315
0.0319508
0.356603
0.254091
0.295495
-0.264036
-0.27586
0.687251
)
;

boundaryField
{
    FrontBack
    {
        type            empty;
    }
    Top
    {
        type            zeroGradient;
    }
    In
    {
        type            zeroGradient;
    }
    Bottom
    {
        type            zeroGradient;
    }
    Out
    {
        type            fixedValue;
        value           uniform 0;
    }
    circle
    {
        type            zeroGradient;
    }
}


// ************************************************************************* //
