/*--------------------------------*- C++ -*----------------------------------*\
| =========                 |                                                 |
| \\      /  F ield         | OpenFOAM: The Open Source CFD Toolbox           |
|  \\    /   O peration     | Version:  2412                                  |
|   \\  /    A nd           | Website:  www.openfoam.com                      |
|    \\/     M anipulation  |                                                 |
\*---------------------------------------------------------------------------*/
FoamFile
{
    version     2.0;
    format      ascii;
    arch        "LSB;label=32;scalar=64";
    class       surfaceScalarField;
    location    "45";
    object      phi;
}
// * * * * * * * * * * * * * * * * * * * * * * * * * * * * * * * * * * * * * //

dimensions      [0 3 -1 0 0 0 0];

oriented        oriented;

internalField   nonuniform List<scalar> 
1171
(
-0.944927
0.944927
0.769114
-1.07904
0.309927
-0.304743
-0.643999
0.948742
0.0550729
-0.071943
-0.281954
0.353897
-0.769114
0.0931448
0.675969
0.927224
-0.210122
-0.717102
0.86107
-1.07904
0.217972
-0.359798
-0.0463617
0.406159
-0.0170064
0.613285
-0.596278
-0.448734
0.837401
-0.388666
-0.431741
1.04368
-0.182611
0.263061
0.0752074
-0.338268
1.00456
0.0391257
0.250427
0.0126336
1.04728
-0.0427227
0.590335
-0.895078
-0.778631
0.593011
0.18562
0.309231
-0.757966
0.555071
-0.912851
0.35778
-1.07783
0.667355
0.410476
-0.643054
0.626048
0.0259443
-0.245686
0.219742
0.0255155
-0.606647
0.581132
0.462963
-0.509325
-0.828387
0.861022
-0.0326341
0.992219
0.0550594
0.899424
-1.05736
0.157935
1.01286
-0.0206376
-0.703394
-0.0752377
1.28385
-0.836297
-0.447549
0.184469
-0.0995198
-0.403164
0.502684
-0.273429
0.189492
0.0839367
-0.601714
-0.477327
0.974447
-0.0750233
-0.020706
0.880682
-0.859976
0.549792
0.734054
0.513765
0.00855867
0.454404
-0.787118
-0.106724
0.893842
0.553601
0.234353
-0.787954
0.108874
0.491431
-0.600305
-0.505592
-0.572239
-0.373517
-0.683842
0.020907
0.253238
-0.274145
-0.943081
-0.0226822
0.965763
0.379005
0.0271545
0.812448
0.114776
-0.594258
-0.048796
0.0374966
-0.824615
0.0809392
0.917785
-0.998724
-0.394847
0.0169557
0.377891
-0.695931
-0.24715
-0.649334
0.730274
0.700557
0.136843
-0.58772
0.971294
-0.803218
-0.168076
-0.199348
0.153249
0.0460994
-0.458091
-0.0512342
-0.231996
0.932553
0.0107832
0.428794
-0.439577
-0.464588
1.01819
0.710127
-0.81685
0.413803
-0.0738722
-0.339931
0.792866
-0.792866
-0.853254
0.0436965
-0.325651
-0.696526
0.67582
-0.0382242
-0.151113
0.189338
0.897633
-0.0169518
1.0283
-0.793943
0.226436
-0.325138
0.0987028
0.94987
-0.137422
-0.666591
-0.0337471
0.700338
0.144679
-0.229219
0.0845404
0.790321
-1.00044
-0.43549
0.309359
0.126131
0.638225
-0.612709
0.870298
-0.395551
-0.474747
0.49678
-0.696226
0.0353372
0.660889
0.161916
0.635734
0.0650138
-0.700747
0.14253
-0.0988335
-0.50776
0.112914
0.0295241
-0.886105
0.85658
-0.53144
-0.753118
0.0497244
0.503018
-0.0486137
0.277935
-0.835284
0.557349
0.423122
0.576878
0.594323
-0.556826
-0.424586
-0.000632316
0.425218
0.566766
0.2261
-0.628656
0.737529
0.0998544
0.883466
-0.000597301
-0.665994
-0.760054
0.789579
0.601986
0.063261
0.377724
-0.440985
-0.15726
0.49916
-0.0077291
0.940998
-0.605911
-0.335087
0.645779
0.325515
-0.437184
0.645491
-0.58223
0.409546
0.145525
-0.0501528
-0.809296
-0.0999986
0.909294
-0.13815
-0.654716
-0.61378
0.360538
0.253242
0.646691
-0.647288
0.315673
0.995568
0.0327275
-0.760054
-0.029888
-0.16946
0.710127
0.769361
-0.769361
0.83638
-0.819421
-0.0169596
-0.453651
0.876773
-0.186643
-0.321117
0.764654
-0.674356
-0.0902981
-0.801857
-0.00743876
0.120919
-0.715177
0.81685
-0.97411
-0.236306
0.246503
-0.0101969
0.128795
-0.997919
0.869123
0.549448
-0.035683
-0.292874
0.595131
-0.302257
-0.660798
0.789593
-0.156527
0.627116
-0.96657
0.339453
1.17219
-0.803544
-0.368649
0.719208
-0.0729826
0.0203588
-0.0100703
-0.0102885
-0.801914
-0.976001
0.332002
-0.696526
0.563816
-0.54686
0.124822
0.677905
-0.802727
0.777014
0.167913
0.492897
0.507103
0.000900481
-0.694404
0.693503
0.895996
0.0450021
-0.719208
0.789579
0.183538
-0.429224
-0.0625187
0.0546958
0.00782289
0.654415
-0.432586
-0.221828
0.675969
-0.0191728
-0.348884
0.531737
0.122678
-0.0266233
-0.00137263
0.027996
0.00967788
0.0106809
0.15763
-0.231502
-0.925888
-0.00235032
-0.13631
-0.0786759
0.105787
0.786192
0.741594
-0.164716
0.657207
-0.532384
-0.165618
0.392054
0.62807
0.0478986
0.236313
-1.05573
-0.97411
0.330391
0.67582
-0.16964
0.018527
-0.783842
1.05125
-0.26741
0.470452
-0.0925602
0.783598
0.303774
0.175
0.0754278
-0.680276
0.680276
0.226793
0.667049
-0.0430485
0.471843
0.459635
-0.0470341
-0.0154846
0.517216
0.0322319
-0.660798
0.565601
0.199053
0.0195512
-0.0296215
-0.62807
0.209918
0.841333
0.0451902
-0.761027
0.715837
0.753669
-0.8199
0.0662319
-0.777014
-0.0368038
0.0511686
-0.0143648
0.0871489
-0.137334
-0.103855
0.24119
-0.00342403
-0.0231993
0.816663
-0.771473
0.790272
0.15847
-0.398667
-0.397027
0.795694
-0.00210424
0.00210424
0.24587
0.418138
0.60084
-1.01898
-0.201073
-0.551395
0.752468
-0.0205239
0.209862
0.379345
-0.234666
0.878108
-0.459971
0.665143
1.00242
-0.401581
0.192701
0.789593
0.606982
0.208334
0.652688
-0.654716
0.319724
-0.136747
0.0862476
0.0504999
0.964574
-0.283856
-0.680718
-0.564259
0.543622
0.546349
-0.564259
-0.606982
0.543622
0.00956889
0.722978
0.0672945
-0.566766
0.477201
0.0895643
0.559322
0.566797
-1.12612
0.628576
0.249532
0.440541
0.625456
-1.066
0.688344
0.314077
0.477201
-0.527584
-0.427632
-0.721605
-0.772695
-0.288665
-0.00695075
0.00695075
0.74456
0.435838
-1.20853
0.690923
-0.313199
-1.1768
0.373253
-0.667359
0.420209
-0.0432553
-1.04141
1.08466
0.44872
0.0311098
0.933464
-1.048
-1.05004
0.0380816
1.01196
0.19407
-0.339386
0.145316
0.68293
-0.757954
0.873417
-1.04971
0.17629
0.196234
-0.802145
-0.172119
0.985942
-0.813823
-0.803449
0.999684
-0.856877
0.483221
0.373656
-0.674392
-0.00591093
0.680303
0.00331734
-0.00542158
0.42346
0.174584
-0.98884
0.814255
-0.774744
0.775644
1.14787
-0.0714223
-1.07644
0.0978274
-0.0432088
0.468427
-0.36471
0.0395716
0.98715
-1.03041
-0.515922
-0.528409
-0.273736
-0.195244
-0.957211
-0.092496
0.517423
0.139783
-0.313271
0.507341
-0.738475
0.732564
0.474747
-1.0103
-0.874872
-0.151894
-0.299301
0.793532
-0.494231
0.127453
-0.815223
0.576663
0.177006
-0.0550569
0.988521
1.03777
0.93378
-1.02628
0.048134
-0.048134
-0.0809727
-0.156158
-0.183228
0.339723
-0.00933183
0.155827
1.11597
0.0383383
-0.0417624
0.65616
0.34384
0.796671
-0.601714
-0.746044
-0.778087
-0.510988
0.510988
-0.212111
-0.113539
0.611035
-0.965509
0.354475
-0.468312
-0.56301
0.330353
-1.0142
-0.945148
1.12144
-0.90339
0.629654
0.657278
0.216714
-0.873992
-0.404432
-0.19021
0.870739
-0.680529
-0.170826
0.0273653
0.00035192
-0.0277172
-0.0989725
-0.0571858
0.941388
0.402879
-0.156681
-0.246198
0.548195
0.746901
-0.520108
0.0156648
-0.289094
0.125019
0.666534
-0.791552
-0.356917
-0.0372143
0.13123
-0.996974
0.316256
-0.748795
0.162084
0.713707
-0.875791
-0.941006
0.19221
0.724215
-0.761429
0.221717
-0.359051
-0.598028
0.193597
0.371181
0.68977
-0.0442795
-0.00950353
0.00950353
-0.00832337
-0.0688115
-0.067936
-0.0154853
0.0538237
-0.458245
0.346238
0.691338
-0.828483
0.137145
-0.734352
0.896436
0.797516
-0.0733007
-0.74647
-0.194535
-1.18992
0.0215903
0.0265437
-0.333226
-0.91859
-0.814693
0.367144
-0.277786
0.45
-0.172214
-0.524769
0.191543
0.494415
0.711233
-0.0545496
-0.0241263
0.803377
0.499769
0.149234
-0.649003
-0.312148
-0.212621
0.005698
0.0216672
0.788019
-0.888017
0.00526221
-0.00526221
-0.668037
0.770126
-0.10209
-0.625419
-0.131762
-0.690516
-0.0207829
0.714286
-0.0573277
-0.880726
-0.306017
0.397034
-0.0910171
0.814472
-0.677326
0.341843
0.239386
-0.58123
-0.130571
-0.722154
-0.153637
-0.168268
-0.326799
0.466801
-0.518035
0.117891
0.764025
-0.881915
0.49678
-0.338376
0.0605899
-0.285712
-0.0410872
0.587683
-0.084227
-0.503456
-0.291607
0.312323
-0.0207162
0.47824
0.212683
0.075362
-0.316859
0.173656
0.143204
0.196897
-0.226785
-0.335723
0.0888151
0.18999
-0.278805
0.981399
-0.382314
-0.243105
0.55081
0.35039
-0.507071
0.421245
-0.421245
-0.208783
-0.417119
-0.218972
-0.417119
-0.709301
-0.850943
0.176587
-0.565542
0.775893
0.0408227
0.158919
0.530851
0.108413
0.123191
0.00923561
-0.132426
-0.168508
0.697277
-1.00054
0.603512
0.022623
0.00401581
-0.0266388
-0.75383
-0.178503
-0.487285
0.63652
-0.527754
-0.0548536
0.0137664
-0.349262
-0.0797494
0.0797494
0.052729
-0.00156043
0.144781
0.223215
-0.637159
0.149874
0.108871
0.473369
0.526631
0.851006
-0.00344076
0.0639113
-0.0604706
-0.298135
-0.582592
-0.482321
0.118126
-0.122445
0.00431926
-0.164839
-0.405344
-0.116654
0.83094
-0.58952
-0.16431
0.0983955
-0.0274829
0.0954711
-0.340841
-0.202876
-0.203426
-0.0280757
-0.47034
0.408762
0.0615785
0.0565059
0.293834
-0.866073
-0.515127
0.662432
-0.869812
0.739241
0.428634
-0.0458345
0.0744073
-0.0285728
0.21911
-0.630656
-0.000158006
0.630814
-0.88782
0.636352
-0.717324
0.120899
0.00720354
-0.00720354
-0.301194
0.426422
0.0420055
-0.0395051
0.0360644
0.557707
0.415465
-0.750553
0.0151907
-0.00330446
-0.00619907
0.00454462
-0.00454462
-0.420524
0.633207
0.017093
-0.017093
-0.775461
-0.00868423
0.0120016
-0.436682
0.586556
0.451467
-0.553557
0.071733
-0.071733
0.0686687
-0.0841533
0.00643516
-1.08277
0.714118
-0.592739
-0.00542158
0.595609
0.00749248
-0.603101
-0.697536
0.108016
-0.314971
-0.0100194
0.324991
-0.0246533
-0.0298963
-0.600001
-0.0306555
0.0265437
0.00524934
1.28736e-05
-0.00115293
0.00115293
-0.41974
0.140935
-0.461706
0.135437
0.661234
-0.118152
0.00985545
-0.00985545
0.508706
0.1665
0.00930778
0.0193401
-0.000876957
0.707256
-0.540756
-0.881542
0.638436
-0.166317
0.342827
0.831882
-0.00832337
-0.112792
0.0831708
-0.671463
0.532262
-0.181477
-0.101928
-0.0233379
-0.0271104
0.048426
0.491867
-0.0925951
-0.410861
0.722289
0.00240613
0.00234528
-0.00234528
-0.29637
-0.196525
-0.568768
0.609591
-0.14969
0.502536
-0.183434
0.773769
0.889488
0.00524934
-0.642006
0.540604
-0.0650161
-0.00933636
0.0743525
0.694942
0.0938683
-0.0133831
0.0755831
-0.0622001
0.0122301
-0.0122301
-0.771794
0.023599
-0.0459474
0.0652875
-0.0862745
0.0862745
-0.00330445
0.00153207
0.812434
0.0288996
-0.315019
-0.0903249
-0.516124
0.0333794
-0.0687874
0.0687874
0.00819813
0.0838926
-0.0838926
0.0300743
-0.0300743
-0.357981
-0.0792027
0.236169
0.0731909
0.0559568
-0.746556
-0.0660119
0.158864
0.0246735
-0.248623
0.0836395
-0.0836395
-0.463224
-0.0548113
0.226898
-0.00715594
0.00409641
-0.653413
0.643844
0.0731158
-0.0649177
-0.0512421
-0.0329112
-0.0121596
-0.161353
0.173513
-0.145179
-0.213872
-0.0822701
0.0822701
0.0535128
-0.0535128
-0.0261653
-0.0940418
0.120207
-0.0148493
-0.192904
0.0125265
-0.0187255
-0.162448
0.303383
-0.0262366
0.424108
0.0106823
0.0173136
-0.0541884
0.0541884
-0.717482
0.317049
-0.124348
-0.20821
-0.0210088
-0.024577
0.0286735
0.193519
0.0476705
-0.00324017
0.00236322
0.0876303
0.0304957
0.0576665
0.101198
-0.0495288
0.0254025
-0.00291693
0.00429483
-0.000113574
0.00100306
-0.000889491
-0.00564973
0.0130885
0.0265714
-0.0265714
0.0510061
-0.0449194
0.0449194
-0.191054
0.0216085
0.0277134
-0.0788028
0.0178441
0.0797344
-0.0797344
0.255098
-0.243863
0.0986837
-0.0661849
-0.177678
-0.0136438
0.0136438
0.406989
0.2539
-0.523599
-0.080766
-0.0416792
0.542426
-0.0660914
-0.0651218
-0.479516
0.10443
-0.150427
0.169304
-0.0188772
-0.0492387
0.0492387
0.936311
-0.586253
0.000221718
-0.00587145
-0.00652511
-0.292042
-0.000253189
0.00400444
-0.0474849
-0.622036
0.570936
-0.629974
0.0134827
0.0829628
0.014599
0.0241141
-0.156952
-0.331596
0.252794
-0.0531067
0.0269413
0.174133
0.13819
0.189206
0.264922
-0.250323
-0.000100698
-0.117909
-0.21823
0.0660343
-0.00836786
0.164689
-0.140574
-0.0692884
0.156919
-0.390588
0.128385
-0.110541
0.0622257
-0.473087
0.173309
0.182642
-0.25193
0.00984829
-0.182323
0.18207
0.0039051
0.153014
-0.0278264
0.0479525
0.460754
0.0129277
0.0043043
0.00928546
0.0381771
-0.237107
-0.205465
0.587482
0.163916
0.0629819
0.071444
-0.0646858
0.0938131
-0.0194606
-0.0307368
0.165783
-0.1523
0.0527303
-0.0185038
-0.108827
-0.0293092
0.0781328
0.255092
-0.0508822
0.0609019
-0.306432
-0.00828786
0.222213
0.144305
0.172744
0.0541477
0.0939705
0.0489673
0.50874
-0.00380642
0.108726
0.0391047
0.0695055
-0.10861
-0.269699
-0.198453
0.0207744
-0.217994
0.285658
)
;

boundaryField
{
    FrontBack
    {
        type            empty;
    }
    Top
    {
        type            calculated;
        value           uniform 0;
    }
    In
    {
        type            calculated;
        value           uniform -1;
    }
    Bottom
    {
        type            calculated;
        value           uniform 0;
    }
    Out
    {
        type            calculated;
        value           nonuniform List<scalar> 10(1.06912 1.08691 1.14924 0.937876 1.19225 1.08677 1.1804 1.03132 0.630028 0.636092);
    }
    circle
    {
        type            calculated;
        value           uniform 0;
    }
}


// ************************************************************************* //
