/*--------------------------------*- C++ -*----------------------------------*\
| =========                 |                                                 |
| \\      /  F ield         | OpenFOAM: The Open Source CFD Toolbox           |
|  \\    /   O peration     | Version:  2412                                  |
|   \\  /    A nd           | Website:  www.openfoam.com                      |
|    \\/     M anipulation  |                                                 |
\*---------------------------------------------------------------------------*/
FoamFile
{
    version     2.0;
    format      ascii;
    arch        "LSB;label=32;scalar=64";
    class       volVectorField;
    location    "45";
    object      U;
}
// * * * * * * * * * * * * * * * * * * * * * * * * * * * * * * * * * * * * * //

dimensions      [0 1 -1 0 0 0 0];

internalField   nonuniform List<vector> 
808
(
(0.897035 -0.0113097 0)
(1.01088 -0.0273113 0)
(1.11572 0.152337 0)
(1.06683 0.013403 -2.62521e-21)
(1.49545 -0.275416 0)
(0.942213 -0.0264742 0)
(1.13901 -0.050451 -5.71012e-21)
(1.16404 -0.0290517 0)
(1.38305 -0.222282 2.63634e-20)
(1.23448 -0.0736091 -6.92369e-21)
(0.984196 -0.0835776 8.32392e-21)
(1.40989 -0.242232 0)
(1.03363 -0.0479138 0)
(0.736628 -0.0327341 0)
(0.931811 -0.0132843 1.38209e-20)
(1.11631 -0.0449316 0)
(0.807577 -0.0694869 -3.28786e-21)
(1.02604 -0.0477292 -9.80819e-23)
(1.05345 0.0718895 0)
(1.10472 0.0149688 0)
(1.10229 -0.0884069 -1.16181e-20)
(0.932874 0.123856 1.09599e-19)
(1.07152 0.00899027 -1.56754e-20)
(1.16429 -3.69839e-05 0)
(0.949106 0.167242 0)
(1.29933 0.0123113 -1.99453e-20)
(1.29295 -0.151352 6.97257e-21)
(0.931925 -0.0124516 -5.53296e-21)
(1.10746 -0.0338419 0)
(1.03439 0.0449094 -4.73318e-22)
(0.977759 -0.0287025 4.57323e-24)
(1.11448 0.00738329 0)
(1.06092 -0.0128437 0)
(1.05861 -0.0149689 3.72768e-21)
(1.31282 -0.0307556 8.00049e-21)
(0.743228 -0.127259 1.09659e-19)
(0.870863 -0.0376566 -1.31282e-20)
(1.01691 -0.00490245 1.80833e-21)
(1.20323 0.0402149 -6.17045e-21)
(1.10985 -0.016045 0)
(1.25835 -0.0139713 -1.37949e-20)
(1.27571 -0.105568 0)
(1.00582 -0.000976454 -1.05369e-20)
(1.08269 -0.0531432 1.39801e-20)
(1.15724 0.103709 0)
(1.00952 0.0116384 -2.11058e-20)
(0.990653 0.0174422 2.69273e-21)
(1.26506 -0.236713 6.23656e-21)
(1.15951 0.030299 -1.37819e-20)
(1.43801 -0.14929 -3.80891e-20)
(1.11036 -0.0876299 1.03548e-20)
(1.14331 -0.060071 0)
(1.11403 -0.0052919 9.46882e-21)
(1.08622 0.0312382 0)
(1.29489 0.208271 5.22866e-21)
(1.0502 0.0215015 -5.31447e-21)
(1.09431 -0.00106513 0)
(1.05839 0.0762811 6.21792e-21)
(1.24022 -0.0651201 7.43217e-21)
(1.10972 0.0328955 -1.79048e-21)
(-0.0768302 0.45089 0)
(1.21881 -0.21169 -5.72895e-21)
(1.0444 0.0593049 0)
(1.44982 0.000576924 -2.85141e-20)
(1.04498 -0.0132804 -1.51062e-20)
(1.03743 -0.0291463 -1.09384e-20)
(1.47534 -0.100062 3.57756e-20)
(0.672447 0.016494 0)
(1.0339 -0.0843382 0)
(1.48961 -0.356615 0)
(0.901101 0.0284576 -3.92636e-22)
(1.31705 -0.135645 -4.17693e-20)
(1.01479 0.0452438 0)
(1.03211 -0.0247268 -5.42204e-21)
(1.14091 -0.338819 -5.57039e-20)
(1.09544 -0.0918124 -1.96258e-20)
(1.10855 0.0336722 -1.75911e-22)
(1.31936 0.470017 2.60949e-20)
(1.08885 -0.0527318 0)
(1.0095 0.265158 -1.78712e-19)
(1.27598 0.0447341 9.14762e-21)
(0.736906 0.0226969 0)
(0.847274 0.0210314 -1.42085e-20)
(0.972025 -0.116338 4.18675e-21)
(1.06144 -0.0417591 1.53617e-20)
(1.15516 0.0330781 5.50724e-22)
(1.33485 -0.239145 0)
(1.34127 0.24648 0)
(1.0695 0.01546 -2.06162e-20)
(1.32233 0.0370813 2.04864e-20)
(1.07558 -0.00401885 1.50919e-20)
(1.33215 -0.0909079 -1.43145e-21)
(0.966441 0.024992 1.67683e-20)
(1.0036 -0.0230183 0)
(1.10504 0.0174365 2.02855e-21)
(1.50475 0.0481356 -9.68984e-20)
(0.786919 0.0167747 -5.35138e-21)
(1.27346 0.0377253 0)
(1.33685 -0.0453527 0)
(1.47442 -0.0824968 -5.32179e-20)
(1.10517 -0.0639619 -5.18067e-21)
(1.1001 0.0271942 -1.77316e-22)
(0.934872 0.0242298 1.38265e-20)
(1.14349 0.0489155 2.06816e-22)
(1.26029 0.0983298 -2.45971e-20)
(1.00067 0.000962865 1.5339e-20)
(1.31521 0.0453313 0)
(0.838743 -0.263816 0)
(1.06925 0.0259805 1.16048e-20)
(1.21707 -0.207048 -6.98058e-21)
(1.20553 0.0861605 3.24165e-21)
(1.03953 0.04119 -1.208e-19)
(1.13012 0.0362231 -4.58482e-21)
(1.22453 -0.126318 1.67793e-21)
(0.811049 0.00524233 0)
(0.918625 -0.053122 7.52536e-20)
(1.11933 0.0306274 -9.81085e-21)
(1.49081 -0.264903 -1.8682e-20)
(1.10023 -0.0136116 -1.24048e-20)
(0.925569 0.0211767 2.14565e-21)
(0.105523 0.35167 0)
(0.85674 -0.0144635 1.94271e-21)
(0.773915 0.0240799 0)
(1.05084 0.00863435 -1.06912e-22)
(1.00961 0.0275071 0)
(1.29926 0.296543 9.4199e-21)
(1.03765 -0.0521837 -3.34342e-20)
(1.24203 -0.115961 9.88457e-22)
(1.14922 -0.0364095 0)
(1.08942 -0.0224657 0)
(0.777633 -0.0943246 0)
(1.11569 -0.0205939 -6.96854e-21)
(1.23348 -0.0175075 7.32886e-21)
(1.06489 0.107123 -3.29018e-20)
(0.86681 -0.013081 0)
(1.07774 0.027141 -2.77135e-21)
(1.23965 0.271272 -1.23373e-21)
(1.25893 0.131233 3.26932e-21)
(0.977572 0.0234402 7.24269e-21)
(1.10243 0.0190142 1.48646e-22)
(-0.03987 -0.0966428 0)
(1.09228 -0.0070775 -1.66688e-20)
(1.17349 0.249784 1.66008e-21)
(0.717048 0.021599 -7.23549e-21)
(1.24314 0.130621 1.59261e-21)
(1.17406 0.0822831 -4.99406e-21)
(1.04388 0.0182363 1.84334e-20)
(0.992696 0.0327468 0)
(1.19463 0.0826812 -1.9655e-20)
(0.990125 -0.13851 0)
(0.937081 0.0267614 1.51356e-20)
(0.969894 0.272734 1.43134e-19)
(0.956969 0.0298849 0)
(0.82054 0.0858209 0)
(-0.168983 -0.21257 -7.94093e-20)
(1.30264 0.0883413 -1.17245e-20)
(0.659713 -0.0138105 0)
(1.31142 0.051317 0)
(1.23578 0.27974 0)
(1.29182 0.0749135 1.0685e-20)
(-0.0321357 -0.208524 0)
(-0.07587 -0.0910168 3.92868e-20)
(1.12405 -0.0533901 9.10204e-20)
(0.984798 0.0338616 2.19393e-21)
(0.857642 0.00191064 0)
(1.02098 -0.00486281 1.89855e-20)
(0.870207 0.0259142 0)
(0.88662 -0.0729048 -9.83075e-20)
(1.02056 0.0311484 2.20923e-20)
(1.07695 -0.00138803 4.93571e-21)
(1.08169 0.0200247 9.27475e-21)
(1.01481 0.0652384 -1.21327e-20)
(0.885959 0.00376052 4.97142e-21)
(1.14784 -0.346747 5.50904e-22)
(0.899541 -0.0271494 0)
(1.06271 0.00819095 -1.48872e-20)
(0.873752 0.00661527 -1.23468e-20)
(1.41169 -0.155134 2.17333e-21)
(0.699318 0.0358827 0)
(1.09579 -0.147186 0)
(1.11817 0.0424423 5.13796e-21)
(1.37633 0.168586 9.91906e-21)
(1.09331 0.0261619 7.59133e-21)
(1.03572 0.0296418 1.94535e-20)
(0.569963 -0.18612 -9.13764e-21)
(0.813579 0.000962862 2.15897e-20)
(1.13229 -0.0252104 8.81317e-21)
(1.40723 -0.00525028 -5.18129e-21)
(1.0902 -0.0047452 -9.26612e-21)
(1.33293 0.0184035 4.44027e-21)
(-0.153027 -0.204445 5.7586e-20)
(1.25094 0.0486945 0)
(0.622265 -0.00866144 0)
(1.06705 -0.0119272 -6.79902e-21)
(1.07941 0.0220251 1.15406e-20)
(0.0499002 -0.0775365 0)
(0.876225 -0.0193577 7.31863e-22)
(1.14384 0.0371027 -5.46891e-21)
(1.00885 0.0533302 3.08713e-21)
(1.07232 0.0327332 -7.79125e-21)
(0.997886 0.0197481 2.51248e-21)
(1.06796 -0.00160696 4.82415e-21)
(1.04684 0.0116247 0)
(0.358541 -0.0459172 0)
(1.04239 -0.0644513 0)
(1.18287 0.0547885 -3.34437e-20)
(-0.0130519 -0.26076 5.26059e-20)
(1.15633 0.0385338 -2.05983e-23)
(0.98217 0.0578443 0)
(0.735723 0.0155484 -1.41872e-20)
(1.02536 -0.110184 2.61613e-21)
(-0.0133273 -0.0431168 -1.56288e-19)
(1.08901 -0.00942445 -7.92783e-20)
(0.613671 -0.00829966 0)
(0.851295 -0.0447921 0)
(0.936388 0.0561915 1.28956e-20)
(1.07056 -0.118474 5.9139e-21)
(1.27818 0.373803 2.7487e-21)
(0.969256 0.0604291 -3.05184e-22)
(1.13103 0.109913 -7.77875e-21)
(1.04677 -0.0348596 0)
(1.36029 0.392972 -4.62101e-20)
(0.685801 -0.0304599 0)
(0.816164 -0.0224261 -5.76976e-21)
(1.03751 0.000113834 -7.92652e-22)
(0.59953 0.013102 0)
(1.10018 -0.00608697 0)
(0.478382 -0.0492937 -7.90003e-20)
(1.07209 0.266339 -5.74377e-21)
(0.730417 -0.0137404 2.31727e-21)
(0.990736 -0.00238637 0)
(0.553286 -0.0158351 0)
(0.77058 -0.0226652 -4.56943e-21)
(0.541954 -0.0104215 -4.30266e-22)
(1.27405 0.0355661 6.85957e-23)
(0.987915 -0.0749505 -7.84807e-21)
(0.735412 0.0134996 -4.00524e-21)
(1.08303 0.032378 1.43958e-21)
(0.879635 0.23318 2.8756e-22)
(0.576008 0.0111642 1.07667e-20)
(1.08682 0.150068 2.33504e-21)
(1.06911 0.190735 0)
(0.947388 0.243982 0)
(0.51655 0.0187316 0)
(1.08469 0.00828267 0)
(1.15414 0.0827043 6.38921e-22)
(0.942142 0.253976 0)
(1.18623 0.0813554 0)
(1.08819 0.231849 0)
(1.22234 0.224282 0)
(-0.0170629 -0.0553213 5.06871e-20)
(1.23455 0.165009 -1.75587e-22)
(1.27307 0.22444 0)
(1.29793 0.162111 8.43171e-21)
(1.30798 0.0838862 -9.82601e-22)
(1.08558 0.0224432 7.61366e-21)
(1.28827 -0.0438311 1.72204e-21)
(1.1742 0.169311 0)
(0.592491 -0.0149313 1.057e-20)
(1.04767 0.0344435 1.18003e-20)
(1.17635 0.119894 0)
(1.01926 -0.072922 -3.31478e-21)
(1.29323 0.019718 3.24547e-21)
(0.442359 -0.296947 -1.62075e-21)
(1.09294 0.0370888 9.09847e-21)
(1.11454 -0.196635 -3.04427e-21)
(0.902774 -0.265901 0)
(1.34391 0.0423086 -2.33262e-21)
(1.04546 -0.166754 -1.58653e-21)
(0.947652 0.334805 3.56912e-21)
(0.755014 -0.0439159 0)
(-0.0293957 -0.0232046 0)
(0.977697 0.108798 -1.75501e-20)
(1.11021 -0.0733026 0)
(1.35214 -0.0264472 1.8345e-20)
(1.19049 -0.0803654 1.06176e-21)
(1.12284 -0.126419 2.92644e-21)
(1.22879 -0.070442 -2.82853e-21)
(1.43349 0.0342218 1.3976e-19)
(1.0301 -0.331871 5.62421e-20)
(1.23374 -0.0528401 -1.11905e-22)
(0.828196 0.13033 0)
(0.722104 -0.315366 0)
(0.906708 0.00768819 -3.16217e-20)
(1.20295 0.0801584 -1.65265e-20)
(1.20177 -0.179282 0)
(0.870366 0.128414 -9.71785e-21)
(0.484402 -0.482366 0)
(0.916299 -0.0331847 -1.45092e-20)
(1.02339 0.254108 1.03009e-20)
(0.814163 0.0248378 -7.84246e-21)
(1.27791 0.00525233 0)
(1.05299 -0.220285 -1.23842e-21)
(0.927289 -0.190007 9.02744e-21)
(0.80193 0.291978 3.77513e-21)
(1.25203 -0.159755 -1.93832e-21)
(0.832474 0.284114 0)
(1.08722 0.0631652 0)
(1.22056 -0.0350483 -9.35875e-21)
(0.958912 0.096172 1.46566e-20)
(1.2165 -0.0920468 7.62298e-22)
(1.18987 -0.0618612 -3.64183e-21)
(0.809702 -0.192106 6.46221e-22)
(1.10195 -0.0982685 0)
(0.430688 -0.14409 1.4484e-20)
(1.27756 0.0618627 -1.15023e-20)
(0.941828 0.32837 -4.942e-21)
(0.388543 -0.320494 1.71384e-21)
(1.45655 -0.0836411 2.58087e-20)
(0.701989 -0.101465 1.17449e-20)
(1.26076 -0.157638 9.41941e-21)
(1.18331 -0.0389402 -8.28209e-22)
(-0.0224473 -0.310872 -8.98984e-21)
(1.00028 -0.00511183 0)
(1.0353 -0.0903628 -1.60106e-20)
(0.846479 -0.0308333 1.45085e-20)
(1.08251 -0.0458211 6.44033e-21)
(0.826079 0.330721 -3.63628e-21)
(0.533284 -0.0203683 1.55764e-21)
(1.43915 -0.38269 -1.62167e-20)
(1.08502 0.0968016 0)
(1.03569 0.0325347 1.05592e-21)
(1.10947 0.0268831 -3.33642e-21)
(1.28981 -0.245869 0)
(0.91585 -0.308041 1.36521e-20)
(1.13763 0.060095 4.21941e-21)
(0.757693 0.411401 4.0866e-21)
(1.17439 -0.0423609 -2.33941e-21)
(1.01344 -0.187611 -9.04876e-21)
(-0.0364559 -0.228019 0)
(0.274877 0.0815918 4.70897e-21)
(1.08743 0.0520519 0)
(0.698098 -0.0659901 -2.31697e-20)
(0.63303 -0.269837 0)
(1.12669 -0.00304212 7.93921e-21)
(1.01658 0.02416 0)
(1.2675 -0.253978 0)
(1.42094 -0.0896427 2.1177e-20)
(0.804323 -0.0961085 0)
(0.971803 -0.130037 3.51472e-20)
(1.06288 0.0194021 -4.19102e-22)
(1.04814 0.0585665 4.00942e-21)
(1.31315 0.0646965 -9.7408e-21)
(1.21823 0.108977 -5.55017e-21)
(1.0131 0.272603 1.72519e-20)
(1.16468 0.0915691 0)
(1.19026 -0.138783 0)
(1.16097 0.0579504 1.6318e-21)
(1.2182 -0.0157487 0)
(1.42733 0.140571 -2.67891e-20)
(0.703759 0.219592 2.62111e-21)
(1.02409 0.0135641 2.28129e-20)
(1.16235 0.110736 -2.70013e-24)
(-0.00727472 -0.0753885 0)
(-0.0296187 -0.114127 0)
(0.343243 -0.180023 -6.17911e-20)
(0.0203559 -0.312571 0)
(0.706159 0.117541 -7.72574e-21)
(1.19511 0.0456674 -4.42463e-21)
(1.14044 -0.118286 -8.25421e-21)
(1.34603 -0.187874 -5.97447e-22)
(1.23855 -0.0265898 0)
(0.707677 -0.00705719 -1.96739e-21)
(1.22404 0.0821062 0)
(1.18934 0.0722178 -9.32506e-22)
(0.519571 -0.113689 0)
(0.589448 -0.142846 -6.18973e-22)
(1.2212 0.0548944 0)
(1.11869 -0.0106153 0)
(1.00864 0.406389 7.49119e-20)
(0.574034 -0.257974 2.62575e-22)
(1.02136 0.0173329 -9.39288e-21)
(1.00761 0.0171822 -9.94257e-21)
(0.234006 -0.182181 0)
(1.00392 0.0668576 -4.01624e-20)
(1.12698 0.000497408 7.64422e-21)
(0.938516 0.208756 2.47609e-21)
(0.660895 -0.329347 2.80278e-21)
(-0.0359269 -0.27064 -1.11293e-19)
(1.19434 -0.0116386 0)
(-0.0379669 0.0373831 0)
(1.15072 -0.037298 1.53851e-20)
(0.665996 -0.377663 -3.01693e-21)
(1.03549 -0.0320728 -1.88458e-20)
(1.10313 -0.0602729 0)
(1.0508 -0.121774 5.91504e-21)
(1.28712 -0.0454189 1.87725e-20)
(0.57451 -0.0546323 -9.7927e-21)
(1.14766 -0.0531452 -4.45392e-21)
(1.13154 -0.10985 -3.36013e-22)
(0.588919 0.0804953 1.50965e-22)
(1.17117 -0.191845 -1.71601e-21)
(1.08984 0.0358489 0)
(1.22678 0.02084 0)
(1.21518 -0.0989871 9.62861e-22)
(1.10685 0.0212315 -6.90916e-21)
(0.656952 0.149654 -5.64709e-20)
(1.19574 -0.0999713 -1.55648e-20)
(1.10225 0.0182987 1.91831e-20)
(0.518937 -0.0035586 1.75491e-20)
(0.937776 0.343768 -1.47118e-19)
(0.062732 0.537934 2.42291e-20)
(1.16771 0.161692 -6.619e-21)
(1.25938 -0.502262 6.63072e-21)
(1.23338 0.139154 -1.17514e-20)
(1.2357 -0.0535445 -1.14102e-21)
(0.951225 -0.242307 9.28392e-20)
(0.106372 0.56593 0)
(1.02306 0.0678498 -2.99794e-21)
(0.108825 0.484296 -1.41954e-20)
(1.1634 -0.0547959 -1.33138e-20)
(1.14339 0.124674 1.15972e-20)
(1.09331 0.0333138 0)
(0.846257 -0.321805 0)
(1.15505 -0.0236837 0)
(1.08078 -0.0597409 1.48806e-20)
(1.21066 0.0416276 -1.05351e-20)
(1.17397 -0.0739109 2.03992e-21)
(0.47893 0.0169525 0)
(0.635026 0.0110408 0)
(0.643255 -0.00223781 5.1367e-23)
(0.462929 -0.0191248 0)
(1.10756 -0.10036 0)
(1.02297 -0.00657795 2.6266e-20)
(0.759524 -0.286437 0)
(0.975822 0.0209336 0)
(1.05348 -0.0521096 0)
(1.16536 0.174439 -3.93425e-21)
(1.15802 0.0445954 -2.54657e-21)
(0.964211 -0.0299856 1.01131e-20)
(1.33378 -0.410374 -1.15192e-19)
(0.890785 -0.21037 3.44348e-20)
(1.39328 0.139678 2.33177e-23)
(1.20433 -0.209446 0)
(0.0487621 0.345539 0)
(-0.0157746 -0.103648 0)
(1.17543 -0.021204 1.68533e-21)
(1.34849 -0.285591 -2.79067e-20)
(1.16578 0.0823319 0)
(1.09996 0.0603213 -1.09881e-20)
(0.32861 0.182554 0)
(1.54122 -0.147897 8.10471e-20)
(0.411176 0.513668 1.15109e-19)
(0.29732 -0.0619331 0)
(1.13656 -0.285272 1.23682e-19)
(0.751851 0.471963 0)
(0.292437 0.146873 -8.47109e-22)
(1.08706 0.10446 0)
(0.22039 0.0185673 -1.02085e-21)
(0.98444 -0.0500256 0)
(1.35419 -0.0624375 -8.99999e-21)
(-0.120099 -0.291167 -9.34959e-21)
(1.12552 -0.0226633 3.6359e-21)
(1.11487 -0.183632 -1.47513e-20)
(0.585051 -0.539095 -8.94874e-20)
(1.29207 0.0442722 8.26044e-22)
(1.20242 -0.111327 4.07523e-21)
(1.17066 0.220652 -1.78566e-20)
(1.26303 -0.105244 -2.23567e-20)
(1.16433 -0.0162959 1.60595e-21)
(-0.240776 0.290763 -1.99536e-20)
(-0.035204 -0.11551 -8.35062e-21)
(1.39506 -0.00836927 1.79927e-21)
(1.05827 -0.0388344 0)
(0.594995 -0.260891 3.57575e-21)
(1.44268 -0.448633 8.72154e-20)
(1.00193 -0.0958243 -6.22566e-20)
(1.38826 0.0835164 6.50857e-20)
(1.06286 -0.037194 5.43031e-21)
(1.09732 -0.269485 4.84997e-21)
(1.06335 -0.00861789 0)
(1.15325 0.0215476 0)
(1.35494 -0.148023 6.50917e-21)
(1.08582 -0.0193625 -4.34065e-21)
(1.3734 -0.269775 2.30784e-20)
(1.12298 0.0185415 -1.05534e-20)
(1.43994 0.0897909 -5.09172e-20)
(0.543958 -0.00807397 0)
(1.28466 -0.20709 -8.69236e-21)
(1.17932 0.152714 0)
(1.13264 0.00985847 -1.0421e-20)
(1.13091 0.0209656 0)
(1.03679 -0.00549456 1.44209e-20)
(1.20911 0.0418521 5.97105e-21)
(1.16463 -0.249344 0)
(0.0527035 -0.0323372 1.65053e-19)
(0.889676 -0.221345 -7.28203e-20)
(1.4982 0.225499 -3.94237e-20)
(-0.085631 -0.291821 4.81543e-20)
(1.14384 0.0302698 2.99636e-24)
(0.784034 -0.291256 -7.97671e-22)
(-0.127218 -0.254939 -5.02455e-20)
(-0.0173573 -0.0981305 -3.07767e-20)
(1.0212 -0.0272242 0)
(-0.0263639 -0.033145 0)
(1.14045 0.328393 0)
(0.113189 -0.12143 0)
(1.11241 -0.0334447 0)
(0.137631 0.0299912 0)
(1.07763 0.0321199 0)
(1.04837 0.150543 0)
(1.18771 -0.024757 -8.89044e-21)
(0.59509 -0.295477 -2.32071e-20)
(-0.274843 -0.193379 0)
(1.22764 -0.0853564 6.48195e-20)
(1.3362 0.18771 -4.07541e-21)
(1.39887 0.323771 0)
(-0.0425221 -0.0432707 0)
(1.14213 0.0140643 -5.19878e-21)
(1.15236 0.00708048 1.99075e-21)
(1.16519 0.372347 0)
(0.297975 -0.12941 6.12856e-20)
(1.11294 0.055921 1.51631e-21)
(0.24391 -0.0545814 -5.60176e-20)
(-0.0577608 0.0397964 -3.91126e-20)
(-0.0164604 0.0478133 9.9301e-20)
(0.397673 0.39203 -2.14271e-20)
(1.03979 -0.237206 7.50802e-22)
(1.09654 0.0138825 -2.23499e-20)
(1.02488 -0.00844316 0)
(1.07073 -0.0599046 -2.15615e-20)
(1.13678 0.0776404 2.73703e-21)
(-0.00795595 -0.0840177 1.14824e-19)
(0.981434 -0.0698969 -5.81063e-20)
(0.623071 -0.316229 -4.68947e-21)
(1.17371 0.00444637 3.76311e-22)
(0.0705694 -0.0363485 3.54755e-20)
(0.251214 -0.0416297 -5.04341e-20)
(0.436074 -0.0845437 -5.55828e-20)
(1.09298 -0.120414 2.20756e-20)
(-0.0608595 -0.032583 0)
(0.922319 -0.257288 2.11125e-21)
(1.23712 -0.329796 -1.04841e-20)
(1.23624 -0.344571 1.01095e-20)
(1.33364 0.226852 0)
(1.53423 -0.208226 7.68055e-20)
(1.17394 -0.0079617 -6.03646e-21)
(-0.0122403 -0.0712506 -3.91483e-20)
(0.408048 -0.0419804 0)
(0.954886 0.0410794 -4.52356e-21)
(1.0925 0.0341302 2.60801e-21)
(0.507442 0.184892 1.23286e-20)
(1.148 0.0108664 2.36034e-21)
(1.10941 0.04374 0)
(1.1943 -0.17348 -1.56099e-20)
(-0.0152589 -0.332774 -8.19788e-20)
(1.30478 0.033524 2.37399e-20)
(1.10212 0.163065 -9.11155e-21)
(1.13282 0.0357892 1.20698e-20)
(-0.0390092 -0.0625389 1.68174e-20)
(-0.0263189 0.0136971 -7.40781e-20)
(1.10499 0.140676 0)
(0.835588 0.374455 0)
(1.14004 0.0811856 -1.73009e-20)
(1.05047 0.0647853 1.31083e-20)
(1.16566 0.0626467 0)
(0.883765 0.0357434 7.63929e-20)
(0.831748 0.038094 -1.3802e-20)
(1.09588 0.0912289 0)
(1.11214 0.0525502 0)
(1.22348 0.233558 0)
(1.05814 0.0362357 0)
(1.27811 0.17596 2.61859e-21)
(-0.0397874 0.0470909 4.27185e-20)
(1.08032 -0.0799086 1.01763e-20)
(1.4848 -0.187514 -8.92135e-20)
(1.20081 0.187438 -4.15306e-21)
(-0.265241 -0.147819 0)
(1.2379 -0.233545 0)
(0.65466 -0.016185 -1.76896e-21)
(0.606371 -0.00202643 -7.00016e-20)
(0.1039 0.0292257 5.59577e-20)
(0.973215 0.0201263 -6.29134e-22)
(0.765898 -0.280162 0)
(0.703279 -0.0975367 0)
(1.13298 0.18811 0)
(0.542626 0.512866 2.3444e-20)
(-0.0137123 -0.029425 -3.40789e-20)
(1.15636 0.134423 1.08225e-20)
(-0.0176147 -0.14929 7.36785e-20)
(1.19438 0.0093803 3.90282e-21)
(1.16418 0.293777 3.40582e-20)
(1.11555 -0.0830918 8.76002e-21)
(-0.101474 0.131707 2.74381e-20)
(1.08624 -0.111427 -1.22817e-21)
(1.22685 -0.271736 0)
(0.579391 0.276174 0)
(0.983794 -0.313742 -6.04051e-21)
(-0.155164 -0.277303 0)
(0.604193 0.0282177 3.75889e-21)
(0.620228 -0.430235 -3.53751e-21)
(0.274925 0.047616 -1.25285e-19)
(1.12818 -0.227606 3.09722e-20)
(1.03594 0.349054 9.81684e-21)
(0.980013 0.0142137 0)
(1.01426 0.0663074 8.45624e-22)
(0.66245 0.0184334 0)
(1.00128 -0.0214585 -6.35205e-23)
(0.460504 -0.0235542 0)
(0.712164 0.115468 0)
(0.99869 -0.0203713 -7.92143e-21)
(1.42593 0.120672 -1.18418e-20)
(1.19599 -0.0265432 1.72512e-21)
(0.534836 -0.506521 0)
(1.13523 -0.148534 2.57896e-21)
(0.801516 0.360498 6.94297e-20)
(-0.0148122 0.0201212 1.40917e-21)
(1.21227 0.0241199 1.58683e-21)
(1.19708 0.0356536 -3.89361e-21)
(1.23785 0.113305 9.51672e-22)
(0.803488 0.00508024 -5.60088e-21)
(0.0955003 0.013661 4.50927e-20)
(-0.0128421 -0.150918 -6.42543e-20)
(-0.132975 -0.206358 0)
(-0.29008 -0.148485 0)
(1.21354 -0.628345 3.45929e-20)
(1.1479 -0.0245397 -1.56708e-21)
(0.913049 -0.476508 -4.72865e-20)
(0.871372 -0.284246 -6.34817e-21)
(1.38067 0.15745 3.76112e-20)
(0.613145 0.423807 0)
(0.244507 0.406693 -1.15765e-19)
(0.592709 0.46114 0)
(-0.0694771 -0.183911 0)
(1.14515 -0.486983 0)
(-0.046507 -0.150123 -5.58052e-22)
(1.17382 0.0240024 0)
(0.658747 0.164718 1.34325e-20)
(0.59283 0.681586 2.04165e-20)
(1.13063 0.0963995 -1.69046e-20)
(-0.0223076 -0.191106 -1.15091e-19)
(0.320804 -0.00936351 3.05464e-20)
(0.483715 0.147741 -1.48527e-20)
(1.18362 0.0725582 0)
(1.36803 0.328963 4.17834e-20)
(1.22308 0.547897 1.065e-20)
(0.231395 -0.0383412 -2.7699e-20)
(1.07894 0.0423042 3.70203e-20)
(0.946251 -0.0075988 2.05801e-21)
(0.938044 0.0336068 -2.31318e-22)
(-0.0205753 -0.0395585 0)
(0.659739 -0.673864 -2.89323e-20)
(0.614068 0.182919 0)
(0.211123 -0.250166 0)
(-0.046764 0.0339901 0)
(0.0636193 -0.282952 -4.39449e-20)
(1.21412 0.0157549 -1.84361e-21)
(-0.00402911 -0.00702299 0)
(-0.0326598 -0.0226153 0)
(1.41852 0.0586876 -6.04506e-20)
(-0.0389571 -0.114324 5.19439e-20)
(0.113612 0.2243 -1.01406e-19)
(0.466046 -0.00392336 0)
(0.172026 -0.293788 7.98573e-20)
(1.12703 -0.247837 0)
(1.00994 -0.289458 0)
(0.0480075 -0.19985 1.09165e-19)
(1.13417 0.0360589 -2.5187e-22)
(1.12181 0.322271 2.65207e-20)
(0.310161 0.0215097 5.29115e-20)
(0.411858 -0.532836 -3.35429e-20)
(1.29147 0.0261302 0)
(1.27389 0.147648 2.55276e-20)
(1.25619 0.180365 -3.13405e-20)
(0.102164 0.0739299 -2.33617e-20)
(-0.0696742 -0.222989 0)
(1.07584 -0.0436266 -1.9447e-20)
(1.10863 -0.222978 -1.52623e-20)
(0.590961 -0.423415 0)
(1.09943 -0.156173 -2.53771e-20)
(-0.314188 -0.178089 0)
(0.676323 -0.0203831 0)
(1.40056 0.16332 3.78061e-20)
(1.04332 0.0379155 7.56914e-22)
(1.07414 0.726903 -1.49256e-20)
(0.22992 -0.392623 1.27079e-19)
(1.17003 0.0235982 2.58297e-21)
(1.18765 0.0646722 -1.54369e-21)
(-0.047765 -0.0537523 3.53918e-20)
(0.79057 0.728373 2.76668e-20)
(1.38094 -0.370314 -1.37847e-20)
(0.60925 0.253403 1.32386e-19)
(1.0336 0.0326068 0)
(0.0227567 -0.232979 -3.61618e-21)
(0.921824 -0.650722 3.19064e-21)
(0.912442 0.641859 -2.12831e-20)
(0.57589 -0.038662 -6.60264e-20)
(1.13313 0.00217919 -1.12498e-20)
(1.07767 -0.0772995 7.20935e-21)
(1.10621 0.0205359 8.9254e-21)
(1.10344 0.113687 4.74987e-21)
(1.13248 -0.112757 0)
(0.972834 0.0738695 1.74483e-20)
(0.911705 0.461319 0)
(1.05081 -0.0258428 -9.78929e-21)
(1.1555 0.0983311 1.90441e-21)
(0.790076 0.265968 0)
(0.567891 0.108975 1.19462e-19)
(0.892405 0.699917 -1.26727e-21)
(1.07244 0.27547 -2.03676e-20)
(1.04019 -0.00577731 1.3171e-20)
(0.412787 0.471978 0)
(1.3256 -0.478579 0)
(0.333466 0.0351777 3.60069e-22)
(1.28061 0.492009 0)
(0.010279 0.0243223 -5.22754e-20)
(1.3068 -0.41608 -1.04134e-20)
(1.16231 0.488986 0)
(0.453512 0.196238 1.68977e-19)
(1.15769 0.308155 -1.33569e-19)
(0.831781 -0.65924 -2.4473e-20)
(1.0994 0.029042 3.1505e-21)
(0.968609 0.142616 9.33945e-20)
(1.08509 0.156977 4.93711e-20)
(1.07557 0.69384 -2.28986e-22)
(0.919728 -0.451379 6.34731e-20)
(1.38299 0.1459 3.71666e-20)
(1.12031 0.00332912 -1.75954e-21)
(-0.00843373 -0.0753466 9.30598e-20)
(1.10574 -0.717458 3.15855e-20)
(0.889315 -0.737586 4.93403e-20)
(0.256559 -0.359799 0)
(0.974558 -0.150558 7.15779e-20)
(0.360638 0.285665 -4.38791e-19)
(-0.00979432 -0.260161 4.04586e-20)
(0.325367 -0.0149323 2.75605e-20)
(0.704519 -0.0634048 -7.79516e-20)
(1.07717 0.511965 0)
(0.990715 0.212089 7.80061e-20)
(1.08114 0.0258288 4.0939e-21)
(0.905996 0.425803 -8.95152e-20)
(0.801338 -0.743189 -7.40694e-21)
(0.923569 0.0149326 -4.84013e-20)
(0.973721 0.47172 0)
(1.02657 0.0198962 1.06521e-20)
(1.40884 -0.520732 1.41446e-20)
(1.24456 -0.343035 1.0579e-20)
(-0.267561 -0.190523 3.58132e-20)
(0.195828 -0.0227667 -1.80687e-20)
(0.985812 -0.121901 -5.77648e-20)
(0.349082 0.509694 0)
(0.913101 0.00648886 3.85648e-20)
(1.16921 0.628452 8.5882e-20)
(0.0840487 -0.299436 1.7698e-19)
(-0.0780416 -0.126142 -2.93046e-20)
(-0.0560868 -0.300172 4.71547e-20)
(1.09227 0.0163845 -5.61334e-21)
(1.16061 -0.472729 0)
(1.09019 -0.751969 -3.80504e-20)
(0.696397 0.333123 0)
(0.165763 -0.288467 -1.27004e-19)
(1.18273 0.0419669 4.04418e-21)
(-0.0291659 -0.229582 -3.2547e-20)
(1.04754 0.050987 -1.13702e-20)
(0.157958 0.0118693 6.80768e-20)
(0.917175 0.109696 0)
(1.38711 0.0988514 4.97733e-20)
(0.0674737 -0.0454703 -3.12922e-20)
(-0.342992 -0.229378 -4.24923e-20)
(-0.159622 -0.171628 0)
(0.073906 -0.0184713 0)
(1.33443 0.0785872 -1.47169e-20)
(0.393284 -0.0149461 1.60748e-19)
(1.29648 -0.742017 -2.79488e-20)
(0.663789 0.158249 5.27932e-21)
(1.06585 0.236982 -2.88436e-20)
(0.376765 -0.580811 1.36978e-19)
(1.53751 0.230656 -3.79806e-20)
(0.0864642 -0.139197 3.57139e-20)
(0.206755 0.283623 1.95943e-19)
(0.095228 -0.0740503 -1.34642e-19)
(0.957663 -0.505321 -4.25858e-20)
(1.46305 0.359553 3.91741e-20)
(0.580944 -0.69638 4.68913e-20)
(1.10611 -0.0655186 -7.17848e-21)
(0.459692 -0.138128 6.93116e-20)
(1.22952 0.273428 -5.62893e-20)
(0.659173 0.624344 -4.08561e-20)
(1.37144 -0.636398 0)
(1.44022 0.501193 3.73306e-20)
(1.07243 -0.539917 -1.31004e-20)
(1.39874 0.59042 -1.09123e-19)
(1.12121 0.046683 0)
(-0.0434277 0.0146535 0)
(1.25276 0.714598 0)
(1.02874 0.00742139 -1.16291e-20)
(0.750748 -0.315885 -2.0443e-19)
(0.477547 -0.10244 0)
(-0.0616384 -0.0384413 -3.00236e-20)
(1.02132 -0.245001 9.82651e-20)
(-0.161046 0.0408338 0)
(0.322478 0.00319602 1.22057e-20)
(1.09151 0.038112 0)
(1.44132 0.236835 0)
(1.12502 0.0333821 -3.37341e-21)
(0.364835 -0.315041 0)
(1.01423 0.141655 3.68199e-20)
(1.33386 0.259959 0)
(-0.114909 -0.139127 -1.05412e-21)
(0.822099 -0.411345 0)
(1.50874 0.302439 -5.783e-20)
(1.2367 0.343604 -2.39886e-21)
(0.835741 0.626709 -9.77676e-21)
(1.00761 0.151211 -8.63274e-20)
(0.967053 -0.20937 -4.78804e-20)
(1.45505 0.257774 3.37568e-20)
(1.01932 -0.016154 0)
(0.565542 -0.0880878 0)
)
;

boundaryField
{
    FrontBack
    {
        type            empty;
    }
    Top
    {
        type            noSlip;
    }
    In
    {
        type            fixedValue;
        value           uniform (1 0 0);
    }
    Bottom
    {
        type            noSlip;
    }
    Out
    {
        type            zeroGradient;
    }
    circle
    {
        type            noSlip;
    }
}


// ************************************************************************* //
