/*--------------------------------*- C++ -*----------------------------------*\
| =========                 |                                                 |
| \\      /  F ield         | OpenFOAM: The Open Source CFD Toolbox           |
|  \\    /   O peration     | Version:  2412                                  |
|   \\  /    A nd           | Website:  www.openfoam.com                      |
|    \\/     M anipulation  |                                                 |
\*---------------------------------------------------------------------------*/
FoamFile
{
    version     2.0;
    format      ascii;
    arch        "LSB;label=32;scalar=64";
    class       surfaceScalarField;
    location    "966";
    object      phi;
}
// * * * * * * * * * * * * * * * * * * * * * * * * * * * * * * * * * * * * * //

dimensions      [0 3 -1 0 0 0 0];

oriented        oriented;

internalField   nonuniform List<scalar> 
1171
(
-0.9279122939295367
0.9279122939682835
0.7872609818766807
-1.098778718148501
0.311517736220768
-0.1943987430256694
-0.767648088717779
0.9620468316589343
0.07208771476403274
-0.1176214320979581
-0.2118432393527522
0.3294646715388977
-0.7872609789993616
0.06926885102569971
0.7179921279660378
0.8106426960322126
-0.1774310102235593
-0.633211685809836
0.8741277849865156
-1.043502395066983
0.1693746100463652
-0.2847142831904627
-0.098143442240264
0.3828577251573473
-0.0361661120610503
0.5483825712663044
-0.5122164591409991
-0.5077034823573482
0.8294893978535988
-0.3217859153889454
-0.4023357203330113
1.045586807726536
-0.1714590194331541
0.3955812503950201
0.04937535977833419
-0.4449566098276022
1.046366538912877
-0.0007797300176683839
0.4466595996687032
-0.05107834772306012
1.056864269951309
-0.01049772362997152
0.5787356115778154
-0.7731343614503627
-0.7242493078642004
0.5570497399389943
0.1671995679633374
0.2186599346676657
-0.7263634120000972
0.5499373014691135
-0.9225151077415397
0.3725778068155832
-1.094200158571782
0.6864791984419214
0.4077209600227314
-0.5953744053582454
0.5592082896845019
0.01762352171357898
-0.2562353949436458
0.2386118741777496
-0.02401548905335256
-0.5241683739671555
0.5481838625741187
0.3998424447671862
-0.4979858940240722
-0.9187825783512324
0.9415432621195159
-0.0227606837566427
1.067834578985845
-0.01097030548935606
0.9351956286421952
-1.116970171862576
0.1817745432478866
1.067462336025288
0.0003722498586035048
-0.6642645850713487
-0.05998471929976838
1.262022215353333
-0.8644699016222592
-0.3975523137415652
0.1486797645344247
-0.1093071186883261
-0.3253920062384008
0.4346991247295668
-0.2856563774275722
0.1915324633406063
0.09412391368216336
-0.5834171733935986
-0.5153615474625366
1.014133558073168
-0.07893792872515776
0.009905455862908533
0.825455795760175
-0.835361251633673
0.5717484089796449
0.6902738064512285
0.4390754507546637
-0.03082972620197071
0.4306721708581415
-0.8077927099349335
-0.1026281559558973
0.9104208659265536
0.5026601641478335
0.2539950335396229
-0.7566551976486661
0.003739962266867024
0.5308052196260139
-0.5345451817993511
-0.4899327781738555
-0.6042673753369356
-0.4228890317935881
-0.6940811395906291
-0.02751886985250229
0.2705947001934459
-0.2430758308623161
-0.9249262635832308
-0.005213272994538266
0.9301395365614096
0.3078059036207648
0.07505181115567615
0.762155434804041
0.04848725947045243
-0.5329636274526229
-0.06241078165525204
0.04627226348048451
-0.8540649705829781
0.07706586411913477
0.8617840452407827
-0.9388499093454253
-0.3473526246626213
-0.04080854674360354
0.3881611715426535
-0.6824151487210676
-0.2425111152573301
-0.6320944130284392
0.7091602802730139
0.6102062644723796
0.2192831373004948
-0.543046191201179
0.9461734059411199
-0.779304054228062
-0.1668693517063451
0.01914912694261824
-0.009660312906251693
-0.009488813170038775
-0.4030539855514514
-0.09493190945934993
-0.242043080739666
0.8522493513840904
0.04758066153504302
0.3337967197323697
-0.3813773815196634
-0.4610765347601404
0.9637366985401363
0.680164701644997
-0.7827928533081614
0.3178968353537169
-0.01512499432930977
-0.3027718401993392
0.93066432557458
-0.9306643255817019
-0.7828624431202185
0.1113879476917696
-0.3232311924902415
-0.7500263482855202
0.7599318041349042
-0.09111490549004381
-0.1426821579789997
0.2337970632194395
0.8649050461757288
-0.03944925051265055
1.054560780335104
-0.8005657451343741
0.1863141060681218
-0.315957103462315
0.1296429973804369
0.8588970217147893
-0.09674158854623932
-0.6115912514845195
-0.03945983907210948
0.6510510905478238
0.1237191093337822
-0.2307645998635242
0.1070454913431059
0.8055795183375881
-0.9830105312887395
-0.434701267262561
0.3292874462912061
0.1054138211420318
0.5326109429455737
-0.5566264270397996
1.022115157677232
-0.4562817655701376
-0.5658333920909546
0.5992261271101569
-0.719272474079104
0.06652518803516798
0.6527472857562651
0.1022418225711304
0.5702987144191665
0.05466244743126826
-0.6249611617831913
0.1947409318426334
-0.08335299039535254
-0.4926631760091171
0.1453105537885475
0.05036424476418513
-0.8867166629142198
0.8363524181760009
-0.4747930125375302
-0.7133313885877072
0.04906680085017349
0.4364794850873626
-0.005807317854069887
0.3000421005501162
-0.8552925972133681
0.5552504968555099
0.4157343098773156
0.5842656901332951
0.5606314474462282
-0.5143591778542617
-0.3654774954115455
0.03716954967632342
0.3283079441221228
0.681310048174843
0.24935427823165
-0.5673958682491529
0.5711358259574297
0.1110874854786794
0.8748483667090904
0.01030519291003744
-0.6218964424219582
-0.7492442088547916
0.7996084554233444
0.5308388763980568
0.07159372356141649
0.3004796188712704
-0.3720733423633527
-0.1675857654976775
0.4434293704024997
0.08737584904282138
0.8745082550557498
-0.7992791409202589
-0.07522911406665773
0.6355394405131771
0.310633968494385
-0.4305728530340512
0.5752259582835363
-0.5036322313188438
0.4170777422476017
0.132859568554929
-0.04687570434537746
-0.5886116326440938
-0.1391423911862238
0.7277540238066342
-0.1496636558625383
-0.7810006709709632
-0.6110701868773322
0.3603954159131554
0.2506747702492944
0.622222692920644
-0.6119174977776828
0.2383497620352461
1.011705877207058
0.04285490136643984
-0.7492442087757331
0.2194773988711105
-0.200328279244233
0.6801647033298984
0.8021153237038086
-0.8021153237179949
0.8376498548642916
-0.8332357541412881
-0.004414100667815546
-0.4453540115820753
0.8610883210956335
-0.1475928244259145
-0.3450703534394961
0.7347536474167111
-0.66852808276261
-0.06622556470237796
-0.7334830838351785
0.1448714495107863
0.1389579780778392
-0.6719216052447511
0.7827928468689674
-0.950378612410162
-0.3650610082194032
0.2864171731759879
0.07864383512120343
0.1457914931039657
-1.009709713235251
0.8639182201492346
0.4805374246458246
-0.04146197393866765
-0.3081250413131718
0.5863166489736025
-0.2781916075922087
-0.7383880524250177
0.8841795438389033
-0.157081356031348
0.7342895702289054
-0.8362065089603342
0.101916938881937
0.9782430471004308
-0.5410324625387803
-0.4372105845717942
0.7552396210965343
-0.06484670349188375
-0.03617332615566946
0.1871297549073442
-0.1509564292460488
-0.77574216900993
-0.8426967227591211
0.07504862744155991
-0.7500263477940746
0.5141265080209279
-0.5549350557676437
0.09274835240373487
0.7171238166833318
-0.8098721690074601
0.7536582997825827
0.1742540024148435
0.5028940568168299
0.4971059431697066
-0.05442362240281161
-0.6064241681460519
0.6608477905832987
0.8784417744224683
-0.0039335166790584
-0.7552396210880236
0.7996084575149829
0.1913450385933525
-0.4475804321497705
0.01658332940289511
0.001594608749024671
-0.01817793568253222
0.589505849276056
-0.4380163206466876
-0.1514895284388522
0.7179921268180856
0.01363868549872895
-0.1084071543382009
0.4382930701814945
0.1512127841574346
-0.01370093280992066
-0.007289093842846418
0.02099002625724444
-0.03349035745850105
-0.002682977340064169
0.2444615636674836
-0.2595865426619924
-0.9591966775305293
0.001996160119431764
-0.1595882200235
-0.120599437637864
0.09477828634848549
0.721693621185527
0.7289730911924428
-0.144707401816435
0.6633403887788897
-0.5705920399513135
-0.2119507345200111
0.398264843985252
0.6955331564555148
0.02245897035419675
0.2416838514939787
-1.074919600637852
-0.9503786105359451
0.3019985954806116
0.7599318046559467
-0.2090120834906789
0.06632992891185614
-0.7236897822379244
0.9094781855294235
-0.1857884032466317
0.4162802980522362
-0.02811913090189114
0.7715057167937213
0.2807275340344813
0.3742540051315927
0.07240557962457071
-0.6587048956972522
0.6587048956808481
0.2148351569141345
0.69558571413357
-0.05541518980224567
0.3892119067403186
0.37928393982759
-0.01236819577914549
0.02895152056490704
0.4489697868328223
0.03156763628751519
-0.7383880528213984
0.5340583143725716
0.2006953373843579
0.3033628865946237
-0.1162331198897363
-0.6955331543400394
0.1795841713776754
0.7298940130074298
-0.01028451994050722
-0.8136024411988253
0.8238869611176081
0.6963471958428569
-0.79200358535182
0.09565638951320507
-0.75365830488741
-0.1509665244676505
0.2119684877045689
-0.06100196388497495
0.07748489453819014
-0.1787560893872101
-0.1134074644543893
0.2921635540952163
-0.005186034805534053
-0.008514903283731124
0.7066084041340381
-0.7168929298957032
0.8857661572752894
0.07628066797052842
-0.3172345556416505
-0.5177806573358383
0.8350152127910929
0.1040039457741457
-0.1040039446446272
0.3235867277726182
0.472637953742196
0.6178919531417705
-1.090529906767015
-0.1940984152539637
-0.5856502790452462
0.7797486943051433
0.01376016636036661
0.220036903817842
0.3767052933234344
-0.2529861730195193
1.014450431049353
-0.5418124743147104
0.6664609467554858
0.9944181976478215
-0.3765262418445921
0.2291124640075549
0.8841795414363208
0.7127205255491793
0.213806929832092
0.7277363368937324
-0.7810006704703122
0.3412951079102048
-0.2774542569483667
0.2485883435997039
0.02886591372502075
0.8463213506650461
-0.004688242054059018
-0.8416331084933563
-0.7022228092383563
0.7025950623078393
0.5546459882143931
-0.7022228060578758
-0.7127205255440944
0.7025950664412561
-0.03478491872428558
0.9081753525241553
-0.02240919887109477
-0.6813100413586899
0.6123363102749106
0.06897373108645995
0.5386098020065074
0.536981178041949
-1.075590980054574
0.4897546071510116
0.5246958247086099
0.5438583342369715
0.458504690045179
-1.002363024239342
0.4951397141990643
0.4992784842456248
0.6123363052556879
-0.5255432428416937
-0.4654161702425001
-0.5567554427866086
-0.5170828963417528
-0.1190826982386912
-0.01233253431731599
0.01233253378109945
0.5128268760298019
0.523431530489306
-1.040514426737092
0.5738454871630255
-0.2733658688644365
-0.8850506931852592
0.344018230357277
-0.6331122193742971
0.3906011050278899
0.002474484888905647
-0.8275635142371818
0.8250890293586466
0.420848047178302
-0.01923787498606996
0.8655592226298274
-0.9493289646476112
-0.8332429087640234
0.05376670428378132
0.779476204462883
0.5670860015719386
-0.4398715432294912
-0.1272144584364359
0.650165932803652
-0.7291038611114937
0.8877017479088086
-0.83091159031591
-0.05679015770879951
-0.01110318671663978
-0.7881759518720125
-0.110023969043849
0.7123543448089247
-0.6023303757559006
-0.9370794773668181
0.9259762907310959
-0.7245535273970306
0.6912636132745521
0.03328991413523278
-0.8108155531035024
0.03818206149117349
0.7726334915489552
0.06183261022686264
0.04217133223787486
0.4329016685746063
0.06162719961702432
-0.8517973332875305
0.7901701337690163
-0.644233194459025
0.5898095785013158
0.8889625585592338
0.07115762951093164
-0.9601201879787691
0.05571964927761943
-0.04820081268881107
0.376508768360495
-0.3816658520839145
0.06570875539236784
0.8419417677340083
-0.8394672773791678
-0.734534891230802
-0.8148869922188612
0.02671104100136769
-0.1629947931123778
-0.8525171444731358
0.02160556141416948
0.6226365923514691
0.04070379488512675
0.03424359906611013
0.5328424161092551
-0.8084920243657098
0.8466740820486622
0.5658333910741483
-0.846801380916324
-0.8659218476814248
0.04225350294463957
-0.03177734257041408
0.8373055939786415
-0.8055282514333739
-0.0274281024991173
-0.7663122383573929
0.5443312718790349
0.1520159228934344
-0.02881356612593847
0.8943727898993893
0.9797429950706679
0.8627676195883899
-0.8411620531613144
0.1477723329189467
-0.1477723315607298
-0.1183333514589912
-0.4784402166109234
0.03856868027095332
0.270289891026717
0.03170870423215622
0.387892704086044
0.8669446845397589
0.007024400275455
-0.01221044871650853
0.6585954967620589
0.3414045032237034
0.7836215917320262
-0.5834171736615729
-0.7781067793716058
-0.8102165007736079
-0.6798343886278174
0.6798343886317563
-0.1679091702604263
-0.1553220285655159
0.6021762570396009
-0.8121093907275999
0.2099331336772095
-0.4938711891451874
-0.5689814511798154
0.2781077755710174
-0.9721889148506279
-0.9013712786465322
0.8445811310548216
-0.812247489678213
0.8389585297441741
0.6487219847173491
0.1341751222250995
-0.7828971069362157
-0.7769265876661342
-0.1461411902741705
0.7243178021281038
-0.5781766118641836
0.03442659160505675
-0.01351184710032354
0.01757102518689387
-0.004059178930849085
-0.3544730007405725
-0.1239672164803433
0.8802840309590136
0.7475526287685815
-0.2468730488329933
-0.5006795798449448
0.6203381695083062
0.6854753723211512
-0.4706402150540034
-0.0002635600051121047
-0.2853928122683441
0.02116195028934404
0.7493486932750177
-0.7705106436038556
-0.3234669311472716
-0.07309736616274025
0.07611019331301648
-0.9621721866747035
0.1205390742389604
-0.6779342709097352
0.05214889181608996
0.6404707121062065
-0.692619603960842
-0.7562710114676771
0.07833674057206136
0.5879811414764424
-0.6610785076891947
0.1574053391746731
-0.3361614237603947
-0.7704669351871247
-0.006459652468181401
0.3711555413457391
0.6008208970372816
-0.02559494129809564
0.02068561046277921
-0.02068560971906849
-0.01962164133994768
-0.04873302525034955
-0.2287212480999141
0.02736538561207002
-0.02034096035703624
-0.7297631377009967
0.2792547693557583
0.6806206211014012
-0.688957973504927
0.008337352260429004
-0.5947305066588482
0.6468793990408175
0.6533829464606363
-0.06540180207229505
-0.6311261899104882
-0.1251448203916863
-1.050626633125833
0.01103731562247095
0.1367350137841271
-0.7086011859091139
-0.7411501590576012
-0.7632546611344679
0.3657023477146829
-0.4104448288751877
0.462344198639056
-0.05189936964793795
-0.6655897135027178
-0.04301147249004028
0.5019155334800041
0.7306832123166913
-0.2346320171022568
0.1140325781321516
0.9686318367476027
0.4464898502944683
0.1337792381848026
-0.5802690884451435
-0.6774097679392074
0.01182005260060507
-0.04476295569653813
0.03125113200223193
0.6362887519359453
-0.775431142551547
-0.001731517741393755
0.001731518285040869
-0.6012546145549601
0.6484883168482783
-0.04723370234646816
-0.6431661703659038
-0.1130887311610468
-0.6714927968134343
0.05795898540373406
0.6028888111168316
-0.1372063405253278
-0.8176339891823513
-0.5653989097668942
0.5659374574319899
-0.0005385482885809838
0.63066817916948
-0.6223308276409649
0.3224782482973733
0.2140678144968654
-0.5365460627832216
-0.1048614059124267
-0.6015134909619004
-0.09110611431146316
-0.1547647656597958
-0.5074399127769111
0.4040882173908534
-0.499020123903103
0.1269428297865758
0.678319525640196
-0.8052623554113389
0.5992261271134151
-0.3671894282231662
-0.04325538823603864
0.08343250758836364
-0.5908724197613431
0.5516787905941957
-0.04061894665132165
-0.5110598437801107
-0.3127779946535506
0.3053172827117388
0.00746071099702536
0.4546575473810373
0.1191879443540403
0.05186945311904018
-0.3162581024127887
0.1571994565869375
0.1590586456511421
0.2272055876763296
-0.0077281798982627
-0.2932027421376016
-0.3106380933804482
0.355011555558132
-0.04437346459527099
0.7870000229005688
-0.6258873284198972
-0.01727884189169211
0.4992235681263067
0.2813534061956134
-0.5282264499368201
0.5775064627578165
-0.5775064627581526
-0.2897353457405336
-0.5864406097081939
-0.295586876155385
-0.5864406095067946
-0.5944178415652281
-0.8385104583804402
0.169982378744836
-0.587318652466912
0.821102684343641
-0.003256260805656502
0.1180732381498628
0.4827476577710126
0.09674752959189099
0.1858569620768904
-0.03647591770301786
-0.1493810448763629
-0.02138118791398157
0.5932716450585747
-0.9457651407151982
0.4279844875166181
-0.005004698552678769
0.003755204623760018
0.001249494177622407
-0.6435784155955198
-0.1317410164971501
-0.4682243965320754
0.6020036325757357
-0.503642337192364
-0.3275614064296041
-0.2633110251962821
-0.2710631339320642
-0.1117527123039843
0.111752711684013
0.1525736213158644
0.05939486210439973
0.1968942755333835
0.4546160204197581
-0.572730788635843
0.1045063974966013
0.2435836591503316
0.4664147195664883
0.5335852799769456
0.6416790357327128
0.08835154727517457
-0.006541077486381876
-0.08181046901439024
-0.2769716961486874
-0.5406622930441627
-0.5518507025740635
0.1144764715313715
-0.126381275432376
0.01190480354618847
-0.105574488958468
-0.3856892959966304
-0.04694853309381781
0.6498373334819194
-0.4987653362993974
-0.1448130793070994
-0.3372217298961036
0.2909946858244388
0.1254236507848113
-0.6136035157871942
-0.2043850738440364
-0.2623753322918081
0.002788770113308528
-0.4221961185939441
0.3235802256482739
0.09861589283118324
-0.09569522915789951
0.2916737233742738
-0.8959410989079869
-0.4577615934388862
0.628456150145048
-0.7730978132355892
0.6682364072911432
0.3410111000358378
-0.1245113851234931
0.2244424093707843
-0.09993102371359665
0.02454857629090187
-0.5862965491270893
0.02907611257213797
0.5572204367189021
-0.9006655915932915
0.5474170938933979
-0.6657504453267242
-0.1011840056444037
0.1097835158057086
-0.109783514019924
-0.3165216567214513
0.3617719646835228
0.01473680579115336
0.03137816929975411
0.056973407974052
0.5052439338674104
0.6625454141839595
-0.7377745263412026
0.03297277731168863
0.02257542013957199
-0.001889792179489528
-0.007269912575166547
0.007269911886195642
-0.4162960617993972
0.535484009848858
0.01550183508964058
-0.01550183516408613
-0.7923332439060579
-0.06112480349596528
0.1229574198950707
-0.4572653926299595
0.5617717940786872
0.4521296648994174
-0.4993633672957949
0.1501109362576752
-0.1501109351047247
0.03168297707406439
-0.002731467574858976
-0.04233844505584571
-0.9758094788589957
0.5385988934938292
-0.4681954248799074
0.04217132999380455
0.5147124916694253
0.03097710240176491
-0.545689593951878
-0.6162345685153561
0.117469232217308
-0.329307132308491
0.01345644776767099
0.3158506852616531
-0.1553623921655546
-0.07926960944516631
-0.5409188382547111
-0.04537771139600773
0.1367350129702838
-0.04005452706043351
0.0383230135919741
0.08068216390315593
-0.08068216570948847
-0.5328346439143548
0.4884611844318417
-0.4146612467704285
0.1613280283931825
0.6222935633081655
-0.09752142735886084
-0.003114599798221821
0.003114599420552347
0.5329399205525465
-0.08076110497356334
0.005779572464975733
0.02695149663621925
0.03490140288762408
0.6844485096207499
-0.7652096145668685
-0.6530047275725581
0.6357258862639854
-0.1064234711222726
0.3134015789594314
0.7459934549128734
-0.01962164247216
-0.2667293329519513
0.1504962005740683
-0.7446287195468255
0.4841817440322174
-0.426305818157787
-0.1015220740850691
0.003412434609767629
-0.01427115667769186
0.02082428586540129
0.4108515738629577
-0.1215650643555216
-0.3894947777859865
0.6287871568701465
0.01960247521873049
0.01044371653269818
-0.01044371644401074
-0.3524526313997651
-0.07821862194708754
-0.5604079649424709
0.5571517042249178
-0.2379188458469403
0.4647515798957959
-0.1511801660028636
0.72991577487364
0.6716083870967732
-0.04005452626084965
-0.6168270418214764
0.563201232590106
0.2882589918907301
-0.2848209170159337
-0.003438075165001315
0.5400306554051735
0.09339378138495483
-0.03905057454244122
0.1962346310687985
-0.157184056799236
0.1197327412005172
-0.1197327430645414
-0.8587167977980072
0.002338606010072592
-0.1135412886680667
0.1404927861190826
-0.1317418171030767
0.1317418162343472
0.02257541649113131
-0.02273622512813066
0.6700926578557456
0.05980135560602207
-0.3228247902969778
-0.06286450575457188
-0.4712262684989729
-0.04896273771030881
-0.1514294194229435
0.1514294182180989
-0.05012748944188456
0.1435013462154925
-0.1435013451524959
0.136265660894631
-0.1362656624038523
-0.3158924370184745
-0.1146804160410303
0.2262523530946699
0.1030350932926575
0.03482984133555862
-0.8211301190651781
-0.1983311382440519
0.1700946157719542
0.02125043003783137
-0.2647907816773474
0.1259997034719017
-0.1259997025368529
-0.4141783926935385
-0.08484173298188259
0.2360919152335605
0.002519963205261946
0.04062763565088427
-0.5436092753798379
0.5783941941143227
-0.03328010734159862
-0.01684738230394609
-0.02750101025706325
0.0247695609109096
0.006609603243088401
-0.1845938543273209
0.1779842511441657
-0.108641209751614
-0.2275202121453901
-0.1445600792591711
0.1445600781645497
0.07271539220093888
-0.07271539275774873
-0.01921203322440562
-0.1085919344509921
0.1278039682601555
0.2399163306764817
-0.1831349922262876
-0.0289136191001644
0.02702383180768526
-0.1361856053434631
0.6246467862923363
-0.03903731989801767
0.4255861856613817
-0.04336002681845099
0.06435006940761932
-0.1531360541849258
0.1531360527799467
-0.6366743325352988
0.3084774191137284
-0.07936495435001899
-0.234332875629621
0.003568278775374699
-0.1209251833290775
0.1615528184146515
0.1958445030929568
0.09631905779814512
0.09685685662396271
-0.06195545384099771
0.07286312379590039
0.0416133462776625
0.06402264204186782
0.1060719714842216
-0.09723365889716912
0.2112662113948073
0.01217522894128853
-0.1175746192164158
-0.09994481351414902
0.09692429593939902
0.003020518750751349
0.01213170285859077
-0.02375755172664598
0.0376413573191245
-0.03764135740825363
0.07530945009484523
-0.05505985079202884
0.05505985054618105
-0.2244663942037372
-0.05322455141489693
0.01153084062183656
-0.1030547855450585
0.01653292267126141
0.1085780073491239
-0.1085780067534477
0.2944604022031629
-0.2712506021470848
0.1626093983905868
-0.05104026963351974
-0.2202103303741408
-0.01724226345437352
0.01724226379090524
0.367530777242656
0.2852165173601998
-0.5278431692339811
-0.0939715599493316
-0.03240971872205076
0.5288588100651511
0.2124153305802166
-0.1704102770898718
-0.3797893326599502
0.07647396478381295
-0.1474905535474766
0.1870281051381734
-0.03953755191766228
-0.06696464335152881
0.06696464377386308
0.8224674196995696
-0.5605641388488575
-0.00616292372975211
0.01829462667420298
-0.01998910726621608
-0.2870630391567872
-0.01750163729744247
-0.0128182707966914
-0.1320012066233953
-0.5721622890298669
0.5560680003830046
-0.5694260124178893
-0.006869343027923463
0.1026402651538583
-0.001706634695783015
0.01687038748381032
-0.1674796638003933
-0.3363059697118127
0.2332511843157039
-0.05428605986278075
0.03507402653924029
0.1318740234712946
0.1734432624857492
0.3389299659024235
0.2762476467550187
-0.2779542809399342
-0.06162179978721864
-0.1551890148227952
-0.2208764248106759
0.07468515185341465
-0.01066251241452249
0.2137530898428611
-0.1968827019931385
-0.0862959784872163
0.1591590977380616
-0.3553581927151137
0.2082243283436414
-0.1916914057237239
0.0895736153635219
-0.4790683946415363
0.1742098280028485
0.170323593894638
-0.2566195617583842
0.07309931099166488
-0.194634777571842
0.1771331399696132
0.01742169505037047
0.1417374050399637
-0.0395580269120147
0.06584687878809267
0.4670930414252013
0.02039909325061465
-0.08201308948017046
0.05403213803963785
0.1262216334473651
-0.2604139792153839
-0.230892157792324
0.5597368880154119
0.1573788988690581
0.07871301419933888
0.07500261658917839
-0.03094181179241491
-0.01167737680884094
0.008239303064850968
-0.03274409940220389
0.170908777509662
-0.1777781201704206
-0.06118880145014238
0.02086090953328115
-0.1470424360870228
-0.05289735848206211
0.1500774260094292
0.2770588862689785
-0.0387782327158909
0.01309218122224805
-0.2556393331624198
-0.1324941675476156
0.23603235148204
0.1786345720904667
0.1298428503844834
0.02206169120123274
0.08876665120552442
0.05236431598993905
0.4528796178750707
0.01519573841221224
0.09756091357127594
0.04340660489276783
0.07196774088645763
-0.1153743468225818
-0.2426266538778633
-0.2006962593837225
-0.0195140675387957
-0.2020095107714699
0.2751534053530382
)
;

boundaryField
{
    FrontBack
    {
        type            empty;
    }
    Top
    {
        type            calculated;
        value           uniform 0;
    }
    In
    {
        type            calculated;
        value           uniform -1;
    }
    Bottom
    {
        type            calculated;
        value           uniform 0;
    }
    Out
    {
        type            calculated;
        value           nonuniform List<scalar> 10(1.033612941232635 1.064153045149747 1.022171613033338 1.019835537961309 0.99548586909042 1.016361380614493 1.036258406409831 1.062852640345019 0.8672418051925831 0.8820274858421953);
    }
    circle
    {
        type            calculated;
        value           uniform 0;
    }
}


// ************************************************************************* //
