/*--------------------------------*- C++ -*----------------------------------*\
| =========                 |                                                 |
| \\      /  F ield         | OpenFOAM: The Open Source CFD Toolbox           |
|  \\    /   O peration     | Version:  2412                                  |
|   \\  /    A nd           | Website:  www.openfoam.com                      |
|    \\/     M anipulation  |                                                 |
\*---------------------------------------------------------------------------*/
FoamFile
{
    version     2.0;
    format      ascii;
    arch        "LSB;label=32;scalar=64";
    class       volScalarField;
    location    "345";
    object      p;
}
// * * * * * * * * * * * * * * * * * * * * * * * * * * * * * * * * * * * * * //

dimensions      [0 2 -2 0 0 0 0];

internalField   nonuniform List<scalar> 
808
(
-0.03393813760621735
0.043964851468769
-0.01108947135405439
0.0370196725393862
-0.2977174251471006
-0.05564567058758719
-0.01557016864619195
-0.02414149745236997
-0.1959459364836014
-0.08352324053427765
-0.01073501074412087
-0.2529273487543098
-0.03069141467268088
-0.0139874090738401
-0.1212903300069596
-0.01420921175488887
-0.1376972084000423
-0.01373434983269042
-0.0125588343131134
-0.05526612631765743
-0.00768087343227562
0.1170034680923445
-0.06292649267380997
-0.0712709524142067
0.1749193640543603
-0.1003669703844356
-0.151710037609473
-0.02044117090485987
-0.01753832701153315
-0.02558370359528353
-0.0203542614500418
-0.05806343600657827
-0.02272147717734112
-0.01689918730652474
-0.09924299312802934
0.3445646001884775
-0.0397835840392785
-0.0163800006673226
-0.02261538561366233
-0.02647694840339828
-0.08997850544561783
-0.1260920056749844
-0.05247413195089954
-0.02141473064796649
-0.05427177742434261
-0.04198711265524117
-0.01192783754851786
-0.1836460761678374
-0.02673838674346082
-0.2032390807113579
-0.01717195528359656
-0.06681629127263679
-0.06136434405184135
-0.01445925975827357
-0.1946034728777639
-0.02799635980265812
-0.01058853109736468
-0.01428569045529825
-0.09985108828273609
-0.0393842416143171
-0.1109265221465916
-0.1253355780946218
-0.01438535456669332
-0.1288640739998327
-0.0176092730866161
-0.05225524498295141
-0.1642195303715109
-0.03540678320264396
-0.01527772315291187
-0.4388842562887749
-0.02625485118978561
-0.2998684295481375
-0.02143502521874132
-0.0211586827306182
-0.06431964903187362
-0.01805232027835341
-0.04214787983804901
-0.3641286077544453
-0.03646485512728279
0.03962661577039921
-0.09177831610624923
-0.01683408070735045
0.057216198427227
0.04527129150775409
-0.01737935899824266
-0.05184267321939594
-0.5397839827021302
-0.2275962913349369
-0.051747861752633
-0.1131077156236921
-0.05617921636390007
-0.1320981953264987
0.03876204753742393
-0.02602859656998995
-0.0624601923871091
-0.121078810235496
-0.03824661879004664
-0.05195306854802829
-0.1157271943570312
-0.1396480939885808
-0.05305433441761898
-0.04692407147732042
-0.05400324476834224
-0.04441397370301589
-0.05711378538632318
-0.07517984851909464
-0.03974061476542397
-0.01067500666474718
-0.03988857842302355
-0.1233126521618722
-0.04997427571516136
0.08169388872784417
-0.04202820839385599
-0.00758031706821539
-0.02755187085570043
0.180671503087708
-0.03841525022453265
-0.2670835799421566
-0.02078497472648116
-0.05315738985540745
-0.04113368532866968
-0.04934506261848629
0.01382608497533371
-0.04825617855683075
-0.03621499878173444
-0.218659489104078
-0.04074395403955834
-0.004276263346923695
-0.07538989326724167
-0.06944491768425375
-0.1518037865102101
-0.021308330887278
-0.07486212159891877
-0.04359343772745233
-0.02307939955937457
-0.01524725085267045
-0.005992457840545611
-0.007626042258066591
-0.05204000354915191
-0.04933372892967212
-0.212787537424378
-0.05609710452266593
-0.00821944529748741
-0.02197383651008237
-0.1483849598430158
-0.002084888089843746
-0.07586491578926588
-0.02167468490743298
-0.0001623256468597538
-0.01017789168417121
-0.03299587186862244
0.0936751711256366
-0.0383107769143942
0.2517480308621117
-0.2594580826991921
-0.1333397310481364
-0.03799952192623372
-0.09080131371060907
-0.009013935102385748
-0.1142873261348447
-0.1700369996957541
-0.2140387170770757
-0.1800216675004106
0.05666828826349588
-0.06359819821266223
-0.02060197697369143
-0.06650018884310428
-0.1730718698273316
-0.02313026805316416
-0.01879445852453233
-0.05153881488467289
-0.02026449512842268
-0.007279077264597886
-0.1072427921461391
-0.02356411109712884
-0.04472022218468921
-0.07074109292383847
-0.1605996487994083
-0.0331144083002242
-0.3862580416606299
-0.01790988582102072
-0.2268250293540683
-0.04387195069070912
0.03240981403518649
-0.1057448765580946
-0.01621885130646022
-0.04313333449379788
-0.1050145024889206
-0.01790096498258067
-0.09578180297280663
-0.2033725707706214
-0.07156870360918646
-0.02417613834046093
-0.04772160519073663
-0.04234383408763906
-0.2011486431513353
-0.02240827889572635
-0.01932697766781633
-0.01128721258291853
-0.0569756608987701
-0.0502509967951466
-0.02270173915134356
-0.02059615044475017
-0.2355226257555874
0.1270622579797695
-0.2061242316637061
-0.1927590979007352
-0.0117135303389334
-0.01133014218130558
-0.06667561049030062
-0.01009296316068022
-0.4952946860748081
-0.1275027292154776
-0.01962382625156162
-0.001051390332230208
-0.02373981597146106
-0.2789409339666518
-0.2784556671564769
-0.007547329442868797
-0.01789584039309988
-0.002030483702081112
-0.349410203359388
-0.02858646742494604
-0.02940024819588661
-0.01267619981289114
-0.01945822579394424
0.04894644640984526
-0.1247216476395296
-0.01413651484646507
-0.02091535185590106
-0.04507719084686795
-0.01838865037217493
-0.01640059385663865
-0.02350873403004616
-0.06782807663046947
-0.01115295495853718
-0.01891582227990441
-0.008942599315425613
-0.001360614311975815
-0.0293327682262274
-0.002042987479553281
-0.002002052361890235
-0.00579345293049715
-0.0255023165084034
-0.008115318997139158
0.001646327321819613
-0.004110407480498165
0.0012289684622564
0.002319692634750637
-0.008748035790218807
-0.1303746355355993
-0.002935339614331182
-0.0001626409648064655
-0.04737689910285876
-0.02137963121836099
-0.02385941778362736
-0.01407748625482245
-0.006188975742830078
-0.02113409557699472
-0.03968220062623241
-0.01507451197004494
-0.01262699103778766
-0.01167653397191183
0.00610618970466678
-0.009668848977913234
-0.01316585861397372
-0.01136424511959942
-0.01011454291614692
-0.010114985793088
-0.01099944081987415
-0.01362788783346082
-0.2937765318622115
0.05925064946169999
-0.0151681389552076
-0.0158011622938695
-0.0124431355451261
-0.01244703776701081
-0.008267417345809195
-0.09953603116464563
0.01167771440065717
-0.01438208951153354
-0.01396552710705081
-0.01064709289019053
-0.0514501875728848
-0.008122678539512226
-0.013933549814149
-0.009683566054757222
-0.002406828034254173
-0.01108223680584704
-0.01067088787623662
-0.02433556459392207
-0.01572456141041717
-0.01242246492300927
-0.01340706258467262
-0.009858850778453524
-0.01317902843137928
-0.0108844708327099
-0.0594679552860378
-0.0132973458062684
-0.0122524803313712
-0.009124813427621462
-0.01537155612830412
-0.01410803566455761
-0.01570927113688941
-1.370115759094056
-0.1002014254648995
-0.01184270106654101
0.02370212387762644
-0.162579892479304
-0.09373346212138085
-0.01200819253937719
-0.01425899667617232
-0.2434271672187631
-0.02884853612295037
-0.01840991914740458
-0.0121653955819127
-0.02047950008251664
-0.01091095469435784
-0.03077766848483784
-0.4097516615467395
-0.01200624279515682
-0.01407913478272405
-0.004480768034026617
-0.01066209677590283
-0.009352460300519942
-0.01392730308586538
-0.008504281014483936
-0.02727422201505459
-0.01166716718944281
-0.1687134650157088
0.01986261903302566
-0.007424943958836069
0.003726196081226228
0.01189447094787748
-0.04881043014050946
0.02794259186393649
-0.01283523837492123
-0.1337394039721644
0.2825783769961642
-0.008138054748875492
-0.0134327638414475
-0.008006900063599382
-0.03341000323900878
-0.1252770313692944
-0.01331728026512034
-0.01200701294035562
-0.01767644283275037
-0.01352632038949422
-0.04163198698330455
-0.219098744886237
-0.009656846593982187
-0.04331291848056179
-0.0385639567730998
-0.177523270580374
-0.1530775960660793
-0.1557488595687689
-0.2423238703722434
-0.003383903871148171
-0.02076470480973039
-0.01554705636593601
-0.01393079656736288
-0.03365361450072919
-0.02448116744701461
-0.01402413848844852
-0.01495332713771479
-1.072400617713648
-0.002930494128044119
-0.01347674707520534
-0.01804090132049499
-0.01883918082049874
0.005723498289469331
-0.01413255580341124
-0.02591222478838421
-0.1590840038437737
-0.01360099416831166
-0.02100024816911883
-0.01460368178726456
0.001503383206952133
-0.1779511260625443
-0.01271888193358555
-0.1560397911325816
-0.01547458366466317
0.007308420042720769
-0.01398520917759306
-0.02415066564813165
-0.01641530401402497
0.007171796507739646
-0.2677962695515212
-0.02662494652820688
-0.01691184746417346
-0.01636135650565156
-0.01082588251583989
-0.02949976066645885
-0.01378692580161089
-0.02114788968313769
-0.02057185467012571
0.008077981911253531
-0.0983490454994731
-0.02128401654553189
0.009582710920582107
-0.05629985035614768
0.1758538123233627
-0.1059222099804389
-0.3179528165111247
-0.02933697059095711
-0.02589843085031952
0.1505441316995393
0.0958015964744084
-0.003696580819253098
0.05344189161036957
-0.01524698195783927
-0.01342872762319637
0.002661436456782189
0.008602983600616785
-0.06528433497705229
-0.004385739889353078
-0.05621005438222432
-0.02326892570134431
-0.01567699522074861
-0.03650440881362079
-0.03293562370749487
-0.006692242495673814
-0.0145404243598346
-0.03728457121577758
0.03115735568461923
-0.03864930208995472
-0.01377634238423683
-0.1191947028757507
-0.03093821350354342
-0.0398454287992565
-0.6707821161333992
0.01342054464697577
-0.01080329129774397
-0.005540895023614019
0.1855293789765274
-0.09965041044778145
-0.03591333835149712
-0.2431097458484751
-0.01527737438668295
-0.01611409449106534
0.07430660026639947
-0.1817370466120295
-0.2288801879993311
-0.1875265574887189
-0.6785142195475002
0.01162073992191216
-0.01794443691013262
-0.01514646452632278
-0.09522994118361296
0.1184210263416736
-0.02201201923143132
-0.2448650738232795
-0.03618844113980106
-0.006928082231259694
0.2782365636339268
-0.01083220795917987
-0.09151221348037882
-0.1523225136609593
-0.00482174196079323
-0.04159025651051305
-0.04568783266238447
-0.1964785559597237
-0.008047355476239968
-0.04032181874256663
-0.003681231621891612
-0.5457189882645743
-0.1953624250632033
-0.1782595195064625
-0.02358828419288778
-0.00884860766007033
-0.06184891134756289
-0.0567473581501801
-0.01616134194553671
-0.06938273890230798
0.00418156616368325
-0.01765184871004379
-0.09538300846955174
-0.2755856119853509
-0.009815742829391592
-0.02489782214250369
-0.0213662159416716
-0.07616648217334626
-0.08938808964084465
-0.08956980768604919
-0.01117615528454364
-0.9111130953089267
0.1617069022582543
-0.08298212600063436
-0.252386813453025
-0.0415183616818948
-0.009233912412929956
-0.2469485533462001
-0.1936701723540548
-0.03135869405884803
-0.1149278057617999
-0.01766442439594267
0.5625322551393039
-0.02508494952991546
-0.2149088408084596
-0.02519451972763814
-0.003787492255059946
-0.01093157474108362
-1.248416606526373
-0.1824668196404895
-0.2284172683935619
0.005284501941698706
-0.03911761611226122
-0.2361623154168286
-0.06695827874895985
-0.05209062873156339
-0.1452708603615679
-0.184395063408325
-0.06976179864752527
-1.218008446136264
-0.1589948954082363
-0.5384845636871715
0.07967211424046654
-0.006453798244942695
-0.02110962182202427
-0.04447078343493185
-0.0386551027505188
-0.02775196344197667
-0.1306919710059616
0.08107409902595507
-0.004457008775667406
-0.009820723423451295
-0.5647032309645148
-0.8517435932181017
-0.1774314333820698
-0.007536572290762336
-0.1237738482803597
0.0006550712632253131
-0.0007073169275190367
-0.002846471058679357
-0.06167221389377765
-0.2344813234777884
-0.01336167323357162
-0.1114160163232262
-0.155866449504422
-0.01311096671346598
-0.0346340975823942
0.02759670878382143
-0.05870850173717354
-0.0718254706453169
-0.4943212629292135
-0.2346791611081507
-0.0800903801068121
-0.07514167598098313
-0.01935127271566036
-0.1112973292644141
-0.1652359452898832
-0.08189641588643835
0.02737421804589464
-0.08691749178075045
-0.0501326033571003
-0.01495065067249044
-0.1158171130220579
-0.2801506443780786
-0.05916501591512204
-0.01806173876587758
0.00197186525554549
-0.01023021604346838
-0.01058980791743366
-0.2351692928343873
-0.01400671705040391
-0.2179522054003289
-0.01080975596753432
-0.06998186616139081
-0.003937624116913192
-0.02324630166736037
-0.3903872769099017
-0.9248878537631534
-0.01123698486215135
-1.043025033883716
-0.6033667379184532
-0.01066260268679878
-0.6578160183610235
-0.1852335477891977
-0.004879261259024922
-0.124420133476986
-0.01718655581120437
-0.1248256107852967
-0.06537670528154783
-0.0770905205509065
-0.005595893587344418
-0.003650625950092488
-1.342123550985856
-0.01131075727524606
-0.1895833394701434
0.0009794851904330289
-1.009293795861596
-1.244875229259396
-0.07902034607788155
0.0172095006151535
0.1645012411009854
-0.004954833323869061
-0.02295057258638022
-0.004368278185153136
-0.2403834906914855
0.3655838087093657
-0.04217349811894552
-0.2137224443356984
-0.01527701208577601
-0.6544037354775452
-0.07277808210258943
0.1895143393133977
-0.3014011818283011
-0.05084583614917455
-0.07026557648511657
-0.01580556846247605
-0.02141475541406324
-0.5909905944834822
-0.1527616876619464
-0.09466588631647006
-0.1192933548267793
-0.5522719438155369
-0.04538413500646088
-0.9045200019020814
-0.0008668380152083044
-0.2432081617667978
-1.051450783498867
0.1677860351001873
0.2907185489047125
-0.1709259858557048
-0.1902663365959362
-0.2118299883913293
-0.06655560778225049
0.02560147144231431
0.04773570769625626
0.005184132688853551
-0.153477700146926
0.02594020388967745
-1.36350530417126
-0.08704866432560003
-0.4781047592070037
-0.3333890199574237
-0.2178814972365776
-0.1797074232456769
-0.01697796952023826
-0.01536161803669625
-0.09388179493032438
0.1723418050636846
0.3848342360725847
-0.2136466638545309
-0.1552515104845729
-0.2281839549684395
-0.06360305340817426
-0.1623846497761696
-0.1716686577877999
-0.1274851310481281
-0.1105049315761551
0.4657572253692785
-0.2812795713358494
0.431355774352218
-0.591169605290494
0.07241338513553035
-0.1910293795069009
-0.06777536128352991
-0.07695215632962008
-0.890784802546887
-0.2197818416175211
-0.1920985583759454
-0.3537997003450001
-0.4650252020077994
0.5698416982159253
-0.2107116644694011
0.00212292090519694
-0.06824131079757501
0.3442517278108951
-0.03546838250836422
-0.119111009107034
-0.1812331093750983
-0.06473473916346939
-0.01634006064867478
-0.1973655412156493
0.1942569243868506
-0.01257333564842374
-0.09850613111203138
-0.1749105470211341
-0.3164394738124096
-0.3091160492809249
-0.08174898981763995
-0.009702966502755738
-0.07735978553298624
-0.6526657327449051
-0.6719620040702279
-0.3267482795386569
-0.05913446366637352
-0.05001789502172501
-0.02449696306707612
-0.06986379683318243
-0.055549047164861
-0.3670439773381332
-0.960802209019054
-0.008683854817456755
-0.08510727657156641
-1.14329139851512
-1.040355902791137
-0.1070636706939924
-0.04108849598133936
-0.06828009829049753
0.3896540041711904
-0.3407144990542634
-0.05186800619124768
-0.6037268141171768
-0.1364797766670137
-0.249435558184571
-0.2130286900433976
0.4736239947273927
-0.6350194611052642
0.07490375361899172
-0.02854776027139244
-0.5677383182879487
-0.05397139356067117
-0.364071556330109
0.1084969671968864
-0.1932067859987112
-0.06137094784415584
-0.1261716475292689
-0.3595412810106074
-0.08618939317048321
0.5144878268045419
0.08658889660437699
0.4702328543995997
-0.1251130144830997
-0.2057082221221673
-0.5112575076482644
-0.1332575781120996
0.02471868178449898
-0.05537933754310009
0.1008002284788153
-0.3059960126435888
0.236311205948642
0.006128284063956173
-0.002681471284542307
-0.5094261794733808
-0.1824977481116626
-0.09933682610399028
0.5810394368125338
0.1393060525636009
0.3451151541067012
0.2251993486123541
-0.5650546818920067
-0.212215126521473
-0.2191695047531477
-0.2313851418272559
-0.06208981139837429
-0.6894291666893271
-0.1915854667323691
0.3050195725617814
-0.2065339081620042
-0.0111389053891637
-0.1644942877949719
-0.0114849211893164
-0.1691868252362398
-0.445123828953043
-0.07681230423940207
-0.2045883510429327
-0.07682703198707055
-0.1096328134620343
-0.1331271036599471
-0.07291413639699831
-0.4424234824240447
-0.4119987457321038
-0.02481209782200295
-0.0770555667518984
0.3276932817498169
-0.2514963330829798
-0.1733138179760022
0.5248775739776154
-0.1953158012642844
0.0198800740048297
-0.4543503707964592
0.04774273862626396
-0.06005722512847255
-0.1568946660460213
-0.5904732153618237
0.160153425804001
-0.5767305053783396
-0.5395673074817607
-0.1034237609161089
-0.5113740990164624
-0.03623629266735349
-0.1549298701812651
-0.4130788867596419
-0.0161303356619353
0.2873422629834679
0.489585048080754
-0.1663460751484592
-0.006213386253258481
-0.0790684619279263
0.5250698655708778
-0.03228538556909955
-0.4447917969816191
-0.03175781672729093
0.4608729966090094
-0.01697755243611381
-0.5492872043927266
-0.2396914204894243
0.1771512725074902
-0.3146894271371067
-0.1817078138929996
0.04953603470307779
0.03164001172644292
0.05594823408234938
-0.3038067123021493
-0.1584998721628569
0.4127291578183431
)
;

boundaryField
{
    FrontBack
    {
        type            empty;
    }
    Top
    {
        type            zeroGradient;
    }
    In
    {
        type            zeroGradient;
    }
    Bottom
    {
        type            zeroGradient;
    }
    Out
    {
        type            fixedValue;
        value           uniform 0;
    }
    circle
    {
        type            zeroGradient;
    }
}


// ************************************************************************* //
