/*--------------------------------*- C++ -*----------------------------------*\
| =========                 |                                                 |
| \\      /  F ield         | OpenFOAM: The Open Source CFD Toolbox           |
|  \\    /   O peration     | Version:  2412                                  |
|   \\  /    A nd           | Website:  www.openfoam.com                      |
|    \\/     M anipulation  |                                                 |
\*---------------------------------------------------------------------------*/
FoamFile
{
    version     2.0;
    format      ascii;
    arch        "LSB;label=32;scalar=64";
    class       volVectorField;
    location    "49.2";
    object      U;
}
// * * * * * * * * * * * * * * * * * * * * * * * * * * * * * * * * * * * * * //

dimensions      [0 1 -1 0 0 0 0];

internalField   nonuniform List<vector> 
808
(
(0.896054 -0.0136499 0)
(0.996019 -0.0435949 0)
(0.967607 -0.225628 0)
(1.06628 0.0136771 -2.44655e-21)
(1.5073 -0.232818 0)
(0.93484 -0.0162933 0)
(1.08885 -0.0636761 -9.06137e-21)
(1.14341 -0.0495243 0)
(1.37581 -0.186143 3.39708e-20)
(1.21093 -0.0408548 -8.64152e-21)
(1.09794 0.178885 1.17552e-20)
(1.41286 -0.19293 0)
(0.998607 -0.0453034 0)
(0.717934 -0.0236035 0)
(0.944787 0.0785482 1.07182e-20)
(1.06948 -0.0404067 0)
(0.795407 0.0518538 -3.94035e-21)
(0.960223 -0.0274659 -1.54135e-22)
(1.08361 -0.139162 0)
(1.09114 0.00957379 0)
(1.08864 0.131765 -1.64015e-20)
(0.925421 0.120466 1.1697e-19)
(1.07044 0.00950065 -2.1205e-20)
(1.15817 -0.0138377 0)
(0.954379 0.166631 0)
(1.37616 0.0713912 -1.99555e-20)
(1.28932 -0.119857 1.54487e-20)
(0.989079 -0.0201796 -1.06053e-20)
(1.03964 -0.00342509 0)
(1.04646 0.00999387 -3.22351e-22)
(0.961359 0.0141505 7.91843e-24)
(1.10314 8.41528e-05 0)
(1.08025 0.0421246 0)
(1.0769 -0.0121064 8.84783e-21)
(1.26699 -0.00117057 6.9511e-21)
(0.749613 -0.131084 1.08309e-19)
(0.846513 -0.031181 -2.02442e-20)
(1.04397 0.0317337 2.61169e-21)
(1.18419 0.0620446 -6.56758e-21)
(1.14148 0.0466886 0)
(1.22319 -0.0235433 -1.13913e-20)
(1.26769 -0.0832137 0)
(1.00545 -0.01899 -1.4812e-20)
(1.12393 -0.00830121 1.85036e-20)
(1.34531 -0.0832687 0)
(1.00862 0.0149734 -2.70768e-20)
(1.00538 0.0352524 4.59635e-21)
(1.26608 -0.207575 2.62719e-20)
(1.16771 0.0536401 -1.46452e-20)
(1.41788 -0.0856722 -4.90759e-20)
(1.08014 -0.0496633 1.72395e-20)
(1.13634 -0.0450818 0)
(1.11164 -0.000229912 1.33254e-20)
(1.20368 0.033642 0)
(1.30563 0.22472 8.8756e-22)
(1.06608 0.0389279 -5.85476e-21)
(1.23478 0.120808 0)
(1.28939 0.0562718 3.77958e-21)
(1.22187 -0.0536048 9.27658e-21)
(1.13098 0.020376 -2.36236e-21)
(-0.119456 0.351722 0)
(1.22182 -0.189955 -1.26925e-20)
(1.24352 -0.00255759 0)
(1.369 0.0360181 -2.81405e-20)
(1.15896 0.0175339 -1.82381e-20)
(1.03184 -0.0294715 -1.47422e-20)
(1.45997 0.0213325 3.28977e-20)
(0.673362 0.0212469 0)
(1.1301 0.0431227 0)
(1.52348 -0.317351 0)
(0.88612 0.0298767 -4.35244e-22)
(1.3894 -0.0819904 -5.65666e-20)
(1.00067 0.0567662 0)
(1.04916 -0.0234866 -7.52973e-21)
(1.14699 -0.329793 -4.75116e-20)
(1.06737 -0.00102741 -3.30636e-20)
(1.11347 0.0158423 -6.67344e-22)
(1.31151 0.488276 2.44728e-20)
(1.07606 -0.0470608 0)
(1.00125 0.264556 -1.97358e-19)
(1.35781 0.0192322 8.72916e-21)
(0.745554 0.0111036 0)
(0.852425 0.0166863 -1.89601e-20)
(0.974936 -0.11436 3.88637e-21)
(1.06536 -0.0255181 2.59329e-20)
(1.14365 0.015762 -1.48597e-22)
(1.4082 -0.202896 0)
(1.32974 0.275893 0)
(1.07023 0.00970857 -2.11337e-20)
(1.39432 0.112037 2.30365e-20)
(1.06531 -0.00904859 1.36856e-20)
(1.31082 -0.0542251 -1.71756e-21)
(0.965538 0.0212898 1.93678e-20)
(1.00297 -0.0247698 0)
(1.11007 0.00945206 2.82998e-21)
(1.38083 0.137853 -6.75136e-20)
(0.785349 0.00875207 -4.15441e-21)
(1.38567 -0.0642761 0)
(1.29532 -0.0248938 0)
(1.42545 0.0583949 -5.49052e-20)
(1.06777 -0.0475841 -1.09082e-20)
(1.09485 0.0129053 -2.76221e-22)
(0.935431 0.0197946 1.3786e-20)
(1.13573 -0.00176835 7.84556e-22)
(1.20099 0.0179548 -3.49201e-21)
(1.00072 -0.00268453 2.06815e-20)
(1.50961 -0.127548 0)
(1.03409 0.250301 0)
(1.08217 0.0296927 1.27085e-20)
(1.22046 -0.192093 -2.7393e-21)
(1.18938 0.0189939 -4.82215e-22)
(1.03264 0.0330023 -1.28523e-19)
(1.14346 0.0329317 -4.98838e-21)
(1.27633 0.201022 3.60005e-21)
(0.826115 0.0166231 0)
(0.922805 -0.0572593 7.42853e-20)
(1.12876 0.0162923 -1.2131e-20)
(1.52011 -0.204598 -2.46979e-20)
(1.13263 -0.0376481 -1.43423e-20)
(0.923043 0.018778 1.75086e-21)
(-0.19904 0.278623 0)
(0.848111 -0.0182882 2.09869e-21)
(0.786232 0.0223693 0)
(1.05174 0.00660084 -1.01437e-22)
(1.01306 0.0273607 0)
(1.29543 0.312039 2.30384e-21)
(1.04026 -0.043453 -2.94306e-20)
(1.44205 0.162608 -2.56634e-21)
(1.14242 -0.0434915 0)
(1.08846 -0.0187066 0)
(0.923258 0.151036 0)
(1.15319 -0.0312315 -6.25788e-21)
(1.20341 -0.0139937 5.79944e-21)
(1.06619 0.106476 -3.97937e-20)
(0.858717 -0.0393191 0)
(1.08275 0.0198452 -3.20131e-21)
(0.98498 0.223808 3.29839e-21)
(1.0629 0.0712485 -4.72981e-21)
(0.986655 0.0294111 8.00718e-21)
(1.10134 0.0129999 2.31552e-22)
(-0.0238374 0.0230165 0)
(1.08574 -0.00764622 -1.49762e-20)
(0.84154 -0.117688 2.50559e-21)
(0.709063 0.0263217 -7.7883e-21)
(1.24987 0.162285 4.76952e-21)
(1.16463 0.299274 1.78144e-21)
(1.04306 0.0234377 1.73406e-20)
(0.992435 0.0317075 0)
(1.20737 -0.341873 -1.64889e-20)
(1.18071 0.294744 0)
(0.935053 0.030656 1.62178e-20)
(0.963435 0.26823 1.57386e-19)
(0.959445 0.0344515 0)
(0.82271 0.0812594 0)
(-0.127151 0.0250204 -6.56313e-20)
(1.33102 0.126116 -6.61278e-21)
(0.661664 -0.0210332 0)
(1.45703 0.0346337 0)
(0.984449 0.0467103 0)
(1.34741 0.0984507 7.60268e-21)
(-0.0599061 -0.192663 0)
(-0.0560683 0.0267665 2.89393e-20)
(1.26255 0.0875843 1.23151e-19)
(0.99306 0.0342467 2.57654e-21)
(0.856847 -0.00177776 0)
(1.04711 -0.0491877 2.00897e-20)
(0.874613 0.0214475 0)
(1.00978 0.0669308 -1.32991e-19)
(1.03164 0.0443044 2.35099e-20)
(1.17438 -0.0176112 5.57171e-21)
(1.08099 0.0166471 9.1873e-21)
(1.013 0.0649976 -1.45759e-20)
(0.892243 0.378298 -1.77338e-21)
(1.15135 -0.340799 1.63556e-22)
(0.909401 -0.0137655 0)
(1.06247 0.0119223 -1.36906e-20)
(0.873207 0.00432482 -1.58709e-20)
(1.37836 -0.0956092 2.60775e-21)
(0.671917 0.0249744 0)
(1.19775 -0.112343 0)
(1.1699 -0.049075 9.52101e-21)
(1.37325 0.206603 5.23799e-21)
(1.0969 0.0171817 7.57671e-21)
(1.03329 0.0239257 1.80609e-20)
(0.777157 0.165095 -6.79597e-20)
(0.813694 0.00311848 2.66919e-20)
(1.12356 -0.0246384 1.22186e-20)
(1.3033 0.0505662 -3.96277e-21)
(1.14974 -0.0118672 -1.05497e-20)
(1.25805 0.0165148 3.39577e-21)
(-0.122158 0.0860585 4.63958e-20)
(1.212 0.00874229 0)
(0.620245 -0.00968257 0)
(1.05763 -0.0154798 -5.77259e-21)
(1.08058 0.0127259 1.38603e-20)
(0.0258778 0.089008 0)
(0.884137 -0.0290298 9.39981e-22)
(1.18754 -0.0726699 -4.34952e-21)
(0.978156 0.00922754 2.47595e-21)
(1.07597 0.0308483 -9.69785e-21)
(0.996194 0.0238909 2.14798e-21)
(1.07335 -0.0615266 3.8368e-21)
(1.08354 0.0229424 0)
(0.502998 -0.0080932 0)
(1.04759 -0.0697442 0)
(1.13944 0.0983751 -1.99845e-20)
(-0.0546832 -0.192416 6.36832e-20)
(1.08831 0.0409061 -2.64566e-23)
(0.959812 -0.254412 0)
(0.746047 0.0249181 -1.54039e-20)
(1.00003 0.321466 1.60328e-21)
(0.0136589 -0.0411751 -2.1026e-19)
(1.0362 0.197316 -6.04119e-20)
(0.634162 -0.0136128 0)
(0.894686 0.322287 0)
(0.916411 0.0198145 1.40516e-20)
(1.18084 -0.0671338 8.31818e-21)
(1.26561 0.388987 -9.2396e-21)
(1.05807 0.211667 2.68938e-22)
(1.32794 -0.0364737 7.12753e-22)
(0.950893 0.360124 0)
(1.34728 0.413766 -2.0388e-20)
(0.658287 -0.0203489 0)
(0.803347 -0.0178944 -5.79945e-21)
(1.10162 -0.0259197 7.54694e-23)
(0.611172 0.00995462 0)
(1.1 -0.0064164 0)
(0.332697 0.402836 -4.94478e-20)
(1.3092 -0.249227 6.70532e-21)
(0.74826 -0.0137025 4.64003e-21)
(0.989727 -0.00491999 0)
(0.552748 -0.00990399 0)
(0.762958 -0.0122053 -5.31432e-21)
(0.564352 -0.0132547 -6.97698e-22)
(1.35887 0.0027301 1.68481e-22)
(1.1346 -0.155437 5.02644e-22)
(0.726769 0.0159958 -3.06332e-21)
(1.23525 0.00711906 3.66021e-22)
(1.11639 0.111264 -2.53364e-22)
(0.557211 0.0111706 8.32423e-21)
(1.30947 0.0387593 -3.7671e-22)
(1.22294 -0.0738611 0)
(0.940325 0.247692 0)
(0.505754 0.016497 0)
(1.11228 -0.0202908 0)
(1.11326 -0.058393 -9.59636e-22)
(1.07086 -0.0408493 0)
(1.24322 -0.0471141 0)
(0.924337 -0.0032988 0)
(1.11088 0.230632 0)
(-0.0379311 -0.0917742 6.6532e-20)
(1.07159 0.00461481 9.30593e-22)
(0.952088 0.134124 0)
(1.17403 0.0288571 -7.41178e-21)
(1.09617 0.0611442 3.63848e-21)
(1.11652 0.033039 6.30647e-21)
(1.08983 -0.177985 7.28183e-21)
(0.981855 -0.0837155 0)
(0.57054 -0.0130189 1.13717e-20)
(1.04878 0.0416399 1.41766e-20)
(1.27521 -0.271295 0)
(1.08116 0.160464 -1.16081e-21)
(1.20454 0.127128 6.52422e-21)
(0.782573 -0.0200833 1.79829e-20)
(1.16814 -0.0327312 1.07895e-20)
(1.03828 0.0591488 -7.68283e-21)
(1.15506 0.146301 0)
(1.14521 0.20749 -1.64417e-20)
(1.28592 0.213765 3.54676e-21)
(0.780249 0.0497008 3.32642e-21)
(0.840085 -0.335471 0)
(-0.00115748 -0.0240323 0)
(0.965996 0.104939 -1.86367e-20)
(1.08131 0.0595802 0)
(1.29649 -0.171407 1.99607e-20)
(1.32784 0.110907 -5.06178e-23)
(1.00344 0.152337 7.38478e-21)
(1.19391 0.0936342 -6.26512e-21)
(1.32412 0.155006 8.76189e-20)
(1.0355 -0.331772 4.7968e-20)
(1.11309 -0.0690333 -2.84035e-22)
(0.786125 -0.322323 0)
(0.985312 -0.00538427 0)
(0.904551 0.00343844 -2.9842e-20)
(1.42018 -0.310725 -7.16694e-20)
(1.0115 -0.0739275 0)
(0.77956 0.367177 1.0211e-20)
(0.704335 0.105618 0)
(0.863331 -0.35579 1.18411e-21)
(0.763653 0.249437 -1.27649e-20)
(0.808141 0.016569 -9.12895e-21)
(1.10897 -0.182795 0)
(1.27127 0.108498 5.9049e-23)
(1.18929 -0.0171663 1.49744e-22)
(0.9469 -0.272306 7.84088e-21)
(1.03636 -0.0812868 -6.75232e-21)
(0.764013 -0.351518 0)
(1.08966 0.0663703 0)
(1.22343 -0.274051 2.26535e-21)
(0.947325 -0.353696 -1.19618e-21)
(1.2508 0.209357 -4.79951e-21)
(1.07049 -0.0625086 -5.9529e-21)
(0.99752 -0.149989 -4.2528e-22)
(1.01619 0.0289887 0)
(0.473319 -0.150843 1.78366e-20)
(1.33068 0.0762494 -9.79152e-21)
(0.734501 -0.109312 -5.50375e-21)
(0.39496 -0.387843 -1.90195e-20)
(1.4073 -0.0147337 2.80179e-20)
(0.970836 0.102218 6.11997e-20)
(1.18324 -0.231899 -2.60899e-21)
(1.05705 -0.0801838 8.86128e-22)
(-0.0629687 -0.171562 -1.10242e-20)
(0.998626 -0.00586723 0)
(1.03476 -0.0894923 -1.50725e-20)
(0.831587 -0.036286 2.23723e-20)
(1.09696 -0.021895 8.94402e-21)
(1.01686 -0.181856 2.14952e-21)
(0.541651 -0.0264947 1.36093e-21)
(1.46013 -0.354457 -1.82487e-20)
(1.03839 -0.0130832 0)
(1.04141 -0.0138856 -5.23377e-22)
(1.12151 0.0150348 -5.04213e-21)
(1.04527 -0.0235068 0)
(0.879747 -0.0684532 1.68106e-21)
(1.08624 0.0285331 5.81509e-21)
(0.881352 0.0140938 -2.15183e-20)
(1.12235 -0.0746212 -1.17174e-20)
(0.872674 -0.25215 8.64509e-22)
(-0.0506711 -0.126346 0)
(0.441169 -0.39045 6.81119e-21)
(1.11845 -0.0427337 0)
(1.02232 -0.139535 1.26237e-20)
(1.1135 0.0455108 0)
(1.12269 -0.0329127 1.30764e-20)
(1.01583 0.0258177 0)
(1.02932 -0.186107 0)
(1.35836 -0.0177351 1.87686e-20)
(0.807794 -0.10035 0)
(0.995903 0.320091 1.48419e-20)
(1.16257 0.00511387 5.29376e-22)
(1.0158 0.00853398 6.05943e-21)
(1.33983 -0.156531 -1.39828e-20)
(1.2348 0.116942 1.78729e-21)
(1.2446 -0.137719 -1.08921e-20)
(1.03428 0.0312356 0)
(1.09043 -0.0381312 0)
(1.04455 0.0815757 3.1401e-21)
(1.21064 -0.0801554 0)
(1.39706 0.212015 -1.71095e-20)
(0.905061 0.14925 4.93875e-21)
(1.02719 0.0117564 2.91744e-20)
(1.17485 -0.013479 1.8957e-22)
(-0.00868587 -0.0672844 0)
(-0.0486178 -0.1517 0)
(0.226777 0.325902 -6.1632e-20)
(-0.0411987 -0.129925 0)
(0.745672 0.373769 6.97701e-21)
(1.16311 0.0442356 -4.0796e-21)
(1.06267 -0.0111541 -1.04744e-20)
(1.1252 -0.189673 -7.46891e-21)
(1.17176 -0.116788 0)
(0.723789 -0.0240827 -4.05768e-21)
(1.08164 0.102041 0)
(1.09303 -0.000394118 2.9201e-22)
(0.58293 -0.113392 0)
(0.723508 0.363893 -2.89775e-22)
(1.11061 0.109293 0)
(1.23474 0.0318959 0)
(0.332647 0.164009 3.01469e-21)
(0.703558 0.419787 -3.62949e-22)
(0.970824 0.309794 3.90139e-21)
(1.00799 0.0177046 -9.18915e-21)
(0.40106 0.00275198 0)
(1.14005 0.193465 -6.82092e-21)
(1.22572 -0.00189366 8.8482e-21)
(1.24215 0.0289464 3.21535e-21)
(0.529097 0.152549 9.06204e-21)
(-0.0682704 -0.153472 -1.25264e-19)
(1.19276 0.0923612 0)
(-0.02472 0.0174033 0)
(1.24014 0.0465367 9.57785e-21)
(0.565215 0.0900247 -9.74996e-21)
(1.17254 0.00991344 -2.20577e-20)
(1.08444 -0.0378842 0)
(1.05791 0.0811509 7.34437e-21)
(1.31271 -0.412863 1.575e-20)
(0.716308 -0.00513683 -1.3779e-20)
(1.11723 -0.0486127 -6.75488e-21)
(1.06497 -0.0868926 -8.18757e-22)
(0.658236 -0.496534 1.68048e-20)
(1.11638 -0.0317235 -2.47565e-20)
(1.12612 0.0176679 0)
(1.16429 0.110354 0)
(1.11713 -0.116796 -2.68448e-21)
(1.23275 0.010557 -7.99637e-21)
(0.809268 -0.374939 -5.28003e-20)
(1.19271 -0.0806528 -8.02369e-21)
(1.14587 0.0483829 1.45964e-20)
(0.519599 -0.000489426 2.44487e-20)
(0.383679 0.409839 -2.05756e-20)
(0.649502 -0.174456 3.6974e-20)
(1.16244 0.179086 -6.19589e-21)
(1.27712 -0.494573 1.08144e-20)
(1.19601 0.00167001 2.67058e-21)
(1.13891 -0.084596 3.18136e-21)
(0.953324 -0.246928 8.99496e-20)
(-0.0947444 -0.033676 0)
(1.20619 0.0873723 4.83572e-22)
(0.127169 -0.233316 -9.64982e-21)
(1.23378 0.100742 -8.28845e-21)
(1.24562 -0.143572 2.544e-21)
(1.06946 0.0189052 0)
(0.39519 -0.17421 0)
(1.14375 -0.0283018 0)
(1.38543 0.0102869 -4.07366e-21)
(1.18395 -0.00236015 5.09964e-22)
(1.10102 -0.0557834 7.43036e-21)
(0.490136 0.0170077 0)
(0.654318 0.0034064 0)
(0.647993 0.00159778 2.57184e-22)
(0.454032 -0.0102927 0)
(1.27077 0.00979162 0)
(1.01978 -0.0105503 2.31087e-20)
(0.394689 -0.336547 0)
(0.965403 0.0562829 0)
(1.09133 0.0730568 0)
(1.16297 0.17277 -1.89056e-20)
(1.19154 0.00449934 -8.31228e-21)
(0.947096 -0.0355442 1.42672e-20)
(1.38845 -0.397327 -1.44892e-19)
(0.575754 -0.358305 1.69021e-21)
(1.13858 0.150666 7.16266e-21)
(1.02509 0.226245 0)
(0.358589 -0.381383 0)
(-0.168484 0.554941 0)
(1.13609 -0.0519169 8.02592e-21)
(1.35517 -0.260247 -4.99957e-20)
(1.2604 -0.0759033 0)
(1.04426 0.0484888 -1.42502e-20)
(0.832045 -0.158273 0)
(1.51907 -0.0672646 9.77089e-20)
(0.407389 0.50962 1.32849e-19)
(0.436898 -0.0255532 0)
(1.19864 -0.272515 1.55599e-19)
(-0.0315819 0.251285 0)
(0.335929 -0.589325 -2.69117e-22)
(1.23952 -0.0516684 0)
(-0.0951765 0.398096 1.13942e-20)
(0.98464 -0.051623 0)
(1.23313 -0.194162 -6.78728e-21)
(-0.184084 0.0241832 -1.10955e-20)
(1.10904 -0.0512653 4.90903e-21)
(0.973469 0.275534 -1.00791e-20)
(0.594601 -0.547312 -8.73148e-20)
(1.09126 0.128208 -5.07451e-21)
(1.19237 -0.094024 1.16227e-21)
(1.1623 0.236432 -3.12028e-20)
(1.19145 -0.298526 -3.44492e-21)
(1.15591 -0.0531944 2.42513e-21)
(0.200745 0.249288 -7.2533e-20)
(0.00573281 0.0933953 -6.00795e-21)
(1.28721 0.245071 5.2558e-21)
(1.05465 -0.039086 0)
(0.8397 0.353966 3.90217e-21)
(1.47531 -0.424262 1.15501e-19)
(1.12969 -0.0204797 -8.80946e-20)
(1.41579 0.159217 4.55772e-20)
(1.0511 -0.0131239 1.14339e-20)
(1.02545 0.117692 1.83544e-20)
(1.05855 -0.0110581 0)
(1.13889 -0.00793948 0)
(1.11608 -0.189857 -3.13701e-21)
(1.08663 -0.0179789 -4.50957e-21)
(1.18554 -0.262625 3.70648e-21)
(1.09706 0.0670998 -1.10115e-20)
(1.30952 0.0681315 -2.58945e-20)
(0.416651 0.0087385 0)
(0.993698 -0.0670646 2.17457e-20)
(1.1849 -0.0472875 0)
(1.1136 0.0658326 -8.31076e-21)
(1.13602 0.014189 0)
(1.03631 -0.00743939 1.32619e-20)
(1.22789 0.0257962 1.34491e-21)
(0.962363 0.126897 0)
(0.0870041 -0.0253476 2.13957e-19)
(0.889914 -0.227511 -7.05539e-20)
(1.25192 0.179817 -1.9021e-20)
(-0.138737 -0.0351064 4.74901e-20)
(1.14668 0.0137395 -2.10369e-22)
(0.852677 0.213717 -8.89639e-22)
(-0.1199 -0.035493 -4.94925e-20)
(-0.0171252 -0.0629436 -2.78459e-20)
(1.02397 -0.0249205 0)
(-0.0366397 -0.0582285 0)
(1.07612 -0.0190366 0)
(0.115031 -0.127661 0)
(1.09845 -0.0367937 0)
(0.208795 0.0429473 0)
(1.12068 0.0233389 0)
(1.02988 -0.125164 0)
(1.40233 0.0536933 2.21368e-21)
(0.628471 -0.307795 -2.85044e-20)
(-0.151492 0.181349 0)
(1.32191 -0.00764409 9.17201e-20)
(1.1603 0.11971 5.89555e-21)
(1.10755 0.0835927 0)
(-0.0402008 -0.051994 0)
(1.15334 -0.00295881 -7.7227e-21)
(1.15925 -0.0297113 2.47021e-21)
(1.15458 0.378277 0)
(0.46582 -0.0409222 9.31166e-20)
(1.11992 0.0563834 2.25886e-21)
(0.291807 -0.0536136 -7.09201e-20)
(-0.0554745 0.0228252 -2.65731e-20)
(-0.0335589 0.0477403 7.07415e-20)
(0.0695344 -0.427046 -1.37419e-20)
(0.890471 0.37348 8.37122e-22)
(1.14701 0.0473991 -1.74663e-20)
(1.02417 -0.00934752 0)
(1.07301 -0.0525355 -1.91125e-20)
(1.19327 -0.0354196 8.93462e-21)
(-0.0172117 -0.0884143 1.23989e-19)
(0.977466 -0.0719046 -5.59189e-20)
(0.956473 0.289138 -5.6369e-21)
(1.21297 0.216826 1.76241e-21)
(0.11572 -0.0282831 4.85119e-20)
(0.309022 -0.0344664 -6.62003e-20)
(0.626859 0.00629767 -8.4631e-20)
(1.34372 0.0695814 1.03208e-23)
(-0.0583861 -0.0513199 0)
(1.2189 0.32992 -6.58684e-21)
(0.948948 -0.217315 3.24632e-20)
(1.0967 -0.157577 -3.1306e-20)
(1.18945 0.133616 0)
(1.5305 -0.150339 1.0195e-19)
(1.17041 0.033659 -4.77488e-21)
(-0.0283857 -0.0954586 -4.49384e-20)
(0.237616 0.0816693 0)
(0.922743 0.0352658 -3.60191e-21)
(1.10553 0.0159414 3.44096e-21)
(1.16209 -0.291548 2.61441e-20)
(1.16118 -0.0109279 4.04059e-21)
(1.11491 0.0402842 0)
(1.27509 -0.14023 -2.06487e-20)
(-0.0636216 -0.0417885 -1.03885e-19)
(1.24113 0.03067 1.11173e-20)
(1.09355 0.161168 -8.36077e-21)
(1.08212 0.0727426 1.25938e-20)
(-0.0512128 -0.107118 2.24748e-20)
(-0.00835767 -0.00377168 -5.56535e-20)
(0.783785 0.26035 0)
(0.421088 -0.0404942 0)
(1.14733 0.0949685 -2.73238e-20)
(1.05141 0.0623248 1.73447e-20)
(1.07449 0.0189388 0)
(0.806369 0.298345 5.82026e-20)
(0.711832 0.0771535 -8.99817e-21)
(1.09634 0.104483 0)
(1.06814 0.0699913 0)
(1.08831 -0.0014434 0)
(1.16326 -0.109899 0)
(1.04911 0.11291 3.86545e-21)
(-0.0414167 0.0381182 2.9016e-20)
(1.32047 -0.0330695 6.43336e-21)
(1.50216 -0.0979683 -1.14368e-19)
(1.07376 0.0246411 -6.90247e-21)
(0.0950224 0.345703 0)
(0.990731 -0.0703587 0)
(0.649183 -0.0123989 -1.6973e-21)
(0.531594 0.00664351 -5.09802e-20)
(0.0704819 0.0357302 4.19047e-20)
(0.953413 0.00220011 1.14307e-21)
(0.82113 -0.286809 0)
(0.779626 -0.0890364 0)
(0.999422 -0.0841146 0)
(0.535209 0.507056 1.0492e-20)
(-0.00303354 -0.0304534 -2.91591e-20)
(1.07905 0.190904 -4.49705e-21)
(-0.0362655 -0.152405 8.81193e-20)
(1.17348 -0.0586741 3.16515e-21)
(1.15832 0.302144 5.95163e-20)
(1.11042 -0.0667379 7.43753e-21)
(0.500642 0.209488 9.48421e-20)
(1.18868 0.313308 3.74193e-22)
(0.789837 0.146783 0)
(0.554362 0.269059 0)
(0.913202 0.0686239 -3.20146e-21)
(-0.253131 0.195125 0)
(0.613676 0.029975 4.50599e-21)
(0.643332 -0.444564 -4.56836e-21)
(0.23602 0.0487428 -9.92442e-20)
(1.14205 -0.215413 2.10536e-20)
(1.02743 0.351092 1.11585e-20)
(0.985882 0.00877424 0)
(1.16127 0.210307 -4.96041e-22)
(0.66904 0.0115492 0)
(1.03075 -0.0116544 -3.18032e-22)
(0.568102 -0.00256909 0)
(0.718067 0.110066 0)
(0.990978 -0.0286215 -1.09639e-20)
(1.41991 0.168529 -6.80663e-21)
(1.13449 -0.0787328 3.5307e-21)
(0.549874 -0.521054 0)
(1.13716 -0.137947 4.42608e-22)
(0.802978 0.36226 7.51789e-20)
(-0.037652 0.0164789 9.95984e-22)
(1.22402 -0.0544049 2.87019e-21)
(1.22228 0.0229315 -7.45975e-24)
(1.21814 -0.169946 9.65564e-22)
(0.814763 0.00682419 -1.03446e-20)
(0.0620647 0.0175856 3.17486e-20)
(-0.0219156 -0.118064 -6.81763e-20)
(-0.167558 0.263359 0)
(-0.154398 0.381633 0)
(1.24565 -0.629369 4.19891e-20)
(1.13951 -0.036488 -2.36641e-21)
(0.955907 -0.48876 -5.97923e-20)
(1.16959 0.227145 1.2727e-20)
(1.35544 0.193374 2.47635e-20)
(0.598878 0.416318 0)
(0.24283 0.403745 -1.23308e-19)
(0.592507 0.461936 0)
(-0.00389767 0.208339 0)
(1.15599 -0.478303 0)
(-0.0428632 -0.0503855 5.45473e-22)
(1.16043 0.0064456 0)
(0.590998 -0.297231 9.16388e-21)
(0.588002 0.678983 1.96906e-20)
(1.1659 -0.0966248 -2.03526e-21)
(-0.0153339 -0.170192 -1.61616e-19)
(0.584996 -0.373569 -1.49573e-20)
(0.447579 0.143379 -1.19203e-20)
(1.20303 0.0850807 0)
(1.35119 0.353142 2.28408e-20)
(1.21312 0.557953 -1.68255e-21)
(0.160271 -0.02459 -1.8487e-20)
(0.975773 0.128337 2.2124e-20)
(0.986714 -0.0372348 1.87373e-21)
(0.917926 0.00153448 -7.23287e-22)
(0.0226331 -0.0411933 0)
(0.670565 -0.684134 -2.69225e-20)
(0.615958 0.179897 0)
(0.276538 -0.0315873 0)
(-0.0328762 0.00984204 0)
(0.0621286 -0.128448 -6.3323e-20)
(1.23791 -0.0204725 -3.37594e-21)
(-0.036432 0.00447793 0)
(-0.014342 -0.0180368 0)
(1.44675 0.115811 -4.25108e-20)
(-0.0274923 -0.131218 7.24018e-20)
(0.112991 0.221785 -1.04843e-19)
(0.385202 0.0083129 0)
(0.176607 -0.301707 7.91427e-20)
(1.20668 -0.235364 0)
(1.01049 -0.286946 0)
(0.0806594 -0.117109 1.5549e-19)
(1.14632 0.0276905 -4.12477e-22)
(1.10917 0.330684 3.31161e-20)
(0.259264 0.026993 4.05029e-20)
(0.421162 -0.546181 -2.76243e-20)
(1.2805 0.0843432 0)
(1.20849 0.193735 1.78196e-20)
(1.21123 0.20881 -2.18889e-20)
(0.101905 0.070024 -2.38377e-20)
(-0.079597 -0.067011 0)
(1.07242 -0.0483029 -1.82718e-20)
(1.11266 -0.216635 -1.05306e-20)
(0.59898 -0.431285 0)
(1.10066 -0.148565 -2.28644e-20)
(-0.0696802 0.351991 0)
(0.54799 0.0264513 0)
(1.23413 0.0589164 5.19658e-21)
(1.00569 0.0355971 7.62824e-22)
(1.07001 0.733376 -2.34837e-20)
(0.234757 -0.402664 1.21727e-19)
(1.13995 0.0509443 3.80434e-22)
(1.20164 0.0694608 -5.22238e-21)
(-0.0315621 -0.00597649 2.69254e-20)
(0.78009 0.723845 3.67604e-20)
(1.39388 -0.33591 -1.62764e-20)
(0.00699312 0.50892 5.11984e-20)
(1.13143 -0.0060505 0)
(0.289691 0.21489 -5.6424e-21)
(0.953203 -0.665345 4.12062e-21)
(0.89316 0.635849 -9.52407e-21)
(0.685794 -0.00992825 -8.96442e-20)
(1.13414 -0.0133243 -1.86082e-20)
(1.0768 -0.0734373 6.17734e-21)
(1.16617 0.0222402 7.50291e-21)
(1.10314 0.115145 8.90408e-21)
(1.13771 -0.103325 0)
(0.900974 0.104547 1.13741e-20)
(0.880213 0.455853 0)
(1.31523 -0.00921307 -3.23268e-21)
(1.16504 0.105777 6.44288e-21)
(0.745683 0.262653 0)
(0.515069 0.109059 9.46263e-20)
(0.886646 0.700535 -1.10495e-21)
(1.06264 0.278171 -2.54326e-20)
(1.03764 -0.0020357 1.22014e-20)
(0.41292 0.471439 0)
(1.34347 -0.460097 0)
(0.917009 0.0732793 6.3306e-21)
(1.25554 0.500327 0)
(-0.0182733 0.0238531 -3.49485e-20)
(1.32207 -0.403165 -2.93062e-20)
(1.15748 0.500334 0)
(0.45564 0.193719 1.73869e-19)
(1.11584 0.314761 -1.02452e-19)
(0.840629 -0.664122 -2.10175e-20)
(1.16037 0.0100288 5.27808e-21)
(0.908903 0.150474 6.84061e-20)
(1.07828 0.161048 6.51963e-20)
(1.0631 0.695876 3.62669e-21)
(0.929276 -0.455166 5.76944e-20)
(1.41759 0.185513 2.27156e-20)
(1.12628 -0.00221061 -2.81327e-21)
(0.0375274 -0.0865783 1.3571e-19)
(1.12883 -0.722511 4.85123e-20)
(0.904023 -0.746185 3.93755e-20)
(0.261616 -0.368384 0)
(0.97668 -0.156019 6.85907e-20)
(0.360877 0.284131 -4.51367e-19)
(-0.0287926 0.275246 3.4165e-20)
(0.211889 0.011322 1.66815e-20)
(0.801553 -0.0479948 -1.03571e-19)
(1.07121 0.51883 0)
(0.978267 0.209361 8.89902e-20)
(1.08389 0.0258889 5.64948e-21)
(0.906073 0.428485 -9.69217e-20)
(0.822761 -0.758333 -5.49394e-21)
(0.935964 0.00882528 -4.91648e-20)
(0.972396 0.476866 0)
(1.17855 -0.178301 1.22639e-20)
(1.43132 -0.504062 1.90809e-20)
(1.25095 -0.327306 1.36129e-20)
(-0.145594 0.415966 3.39876e-20)
(0.198059 -0.0270092 -1.83491e-20)
(0.984742 -0.126725 -5.77177e-20)
(0.347528 0.50793 0)
(0.924737 -0.00121076 3.91735e-20)
(1.14883 0.631282 6.30386e-20)
(-0.0192947 0.0473113 2.22392e-19)
(-0.0594042 -0.0195155 -2.23181e-20)
(-0.11787 -0.129506 5.30697e-20)
(1.0984 0.0189121 -7.9183e-21)
(1.20702 -0.47352 0)
(1.10491 -0.753421 -2.51565e-20)
(0.69708 0.331415 0)
(0.171009 0.045248 -1.68327e-19)
(1.12392 0.0464171 6.01049e-21)
(-0.0537673 -0.179647 -4.2149e-20)
(1.04778 0.0522634 -1.16036e-20)
(0.104014 0.00733 4.5503e-20)
(0.838747 0.123908 0)
(1.23729 0.0908531 2.5313e-20)
(0.0279751 0.00236242 -1.89414e-20)
(-0.188945 0.429769 -4.03974e-20)
(-0.286289 0.453381 0)
(0.137575 -0.012674 0)
(1.22159 0.0295575 -9.37411e-21)
(0.47685 -0.000257169 2.15607e-19)
(1.32153 -0.740609 -4.69266e-20)
(1.07902 0.0325047 5.3736e-20)
(1.05599 0.237761 -3.73132e-20)
(0.384776 -0.59407 1.33595e-19)
(1.53781 0.281947 -2.53383e-20)
(0.173407 -0.0815242 5.35896e-20)
(0.207063 0.280962 2.01456e-19)
(0.204703 -0.0452917 -1.98256e-19)
(0.964966 -0.507491 -4.03849e-20)
(1.44229 0.385387 2.58484e-20)
(0.594313 -0.710428 4.36351e-20)
(1.10666 -0.0633035 -6.66029e-21)
(0.535676 0.179376 9.17264e-20)
(1.17269 0.289865 -4.04702e-20)
(0.656633 0.623705 -4.4326e-20)
(1.40827 -0.632102 0)
(1.40883 0.517378 2.86892e-20)
(1.08458 -0.539482 -1.41216e-20)
(1.37966 0.602275 -7.56834e-20)
(1.14199 -0.000171456 0)
(-0.0393217 0.0183328 0)
(1.24282 0.722151 0)
(1.21194 -0.117383 -6.10241e-21)
(0.759791 -0.323261 -2.01922e-19)
(0.483586 -0.106379 0)
(-0.0438813 0.0162994 -2.28287e-20)
(1.03089 -0.246407 8.95514e-20)
(-0.155091 0.365108 0)
(0.324283 -0.00137207 1.23948e-20)
(1.12349 0.0112307 0)
(1.40351 0.274737 0)
(1.15712 0.0113099 -5.65247e-21)
(0.371296 -0.322283 0)
(1.00506 0.139184 4.35954e-20)
(1.29754 0.284325 0)
(-0.0752546 0.0181914 2.04453e-21)
(0.827814 -0.418196 0)
(1.50486 0.338437 -3.84568e-20)
(1.22268 0.359029 8.06414e-21)
(0.835366 0.631347 -1.06911e-20)
(0.998754 0.148241 -9.81459e-20)
(0.970938 -0.209562 -4.38138e-20)
(1.43973 0.291085 2.26279e-20)
(0.959875 0.10592 0)
(0.568161 -0.0935592 0)
)
;

boundaryField
{
    FrontBack
    {
        type            empty;
    }
    Top
    {
        type            noSlip;
    }
    In
    {
        type            fixedValue;
        value           uniform (1 0 0);
    }
    Bottom
    {
        type            noSlip;
    }
    Out
    {
        type            zeroGradient;
    }
    circle
    {
        type            noSlip;
    }
}


// ************************************************************************* //
