/*--------------------------------*- C++ -*----------------------------------*\
| =========                 |                                                 |
| \\      /  F ield         | OpenFOAM: The Open Source CFD Toolbox           |
|  \\    /   O peration     | Version:  2412                                  |
|   \\  /    A nd           | Website:  www.openfoam.com                      |
|    \\/     M anipulation  |                                                 |
\*---------------------------------------------------------------------------*/
FoamFile
{
    version     2.0;
    format      ascii;
    arch        "LSB;label=32;scalar=64";
    class       volScalarField;
    location    "151.5";
    object      yPlus;
}
// * * * * * * * * * * * * * * * * * * * * * * * * * * * * * * * * * * * * * //

dimensions      [0 0 0 0 0 0 0];

internalField   uniform 0;

boundaryField
{
    FrontBack
    {
        type            empty;
    }
    Top
    {
        type            calculated;
        value           nonuniform List<scalar> 
15
(
142.2736157896979
133.5514897377976
138.0624703039465
144.3836173029015
159.7598755828664
131.3666513417667
140.1082366083416
135.3398662763258
153.4370398160729
135.7359139285377
136.0795031988887
136.7800413266667
125.2390867345722
132.9016519646196
123.9512777457411
)
;
    }
    In
    {
        type            calculated;
        value           uniform 0;
    }
    Bottom
    {
        type            calculated;
        value           nonuniform List<scalar> 
15
(
155.5672015228089
158.1120744008119
141.1075039332407
142.0805284061649
141.1900292340118
148.4595890080406
142.7168288987088
143.1685670866281
143.4226303620769
134.0664098167473
125.7394042380822
141.5617991771814
122.412481120102
123.4898254777526
124.1459362555395
)
;
    }
    Out
    {
        type            calculated;
        value           uniform 0;
    }
    circle
    {
        type            calculated;
        value           nonuniform List<scalar> 
32
(
56.16411904783473
21.70556107969049
65.22170223518042
25.8531250690934
20.04381572706436
56.29041115472905
56.6752989291311
24.04067527169892
22.08872535913576
65.44644580127449
39.98493623055408
62.93707430997962
50.53514129475636
16.15418856106928
22.80726380935635
19.41954276353794
39.15951028613338
59.76964873716287
61.10888177105638
26.5926961844158
65.81747316940971
63.72652792711943
63.08340873964573
59.82165043598578
64.194290362986
46.09529684939822
66.47007758056381
32.25946688936465
37.83626431164442
55.63560150837365
21.44925752477885
43.0290976468382
)
;
    }
}


// ************************************************************************* //
