/*--------------------------------*- C++ -*----------------------------------*\
| =========                 |                                                 |
| \\      /  F ield         | OpenFOAM: The Open Source CFD Toolbox           |
|  \\    /   O peration     | Version:  2412                                  |
|   \\  /    A nd           | Website:  www.openfoam.com                      |
|    \\/     M anipulation  |                                                 |
\*---------------------------------------------------------------------------*/
FoamFile
{
    version     2.0;
    format      ascii;
    arch        "LSB;label=32;scalar=64";
    class       volScalarField;
    location    "50";
    object      p;
}
// * * * * * * * * * * * * * * * * * * * * * * * * * * * * * * * * * * * * * //

dimensions      [0 2 -2 0 0 0 0];

internalField   nonuniform List<scalar> 
808
(
0.115434
0.0405933
0.0789403
0.114623
-0.302176
0.0356657
0.0308346
0.0349096
-0.179687
-0.0366778
0.0802515
-0.205931
0.0399958
0.0300977
-0.114163
0.0387679
-0.0972905
0.0246427
0.0642295
0.020998
0.054807
0.389596
0.101541
-0.00379885
0.465421
-0.0947713
-0.0918162
0.0137688
0.0154093
0.0417202
0.0210869
0.024874
0.0400935
0.0200403
-0.0971206
0.616002
0.0413253
0.04998
0.0412509
0.0371324
-0.0585453
-0.0837452
0.0651087
0.058602
-0.0941079
0.117439
0.0413516
-0.0282532
0.0441206
-0.222522
0.0404245
0.0102019
0.0758208
0.00482638
-0.0527618
0.0421509
0.0104632
0.0726412
-0.0417926
0.0345627
-0.314779
-0.028611
0.0383274
-0.200665
0.0556194
0.0758942
-0.364401
0.0417123
0.0823312
-0.35849
0.0478097
-0.402351
0.0398915
0.0323344
0.147032
0.0533824
0.0217731
-0.0366724
0.0407011
0.332438
-0.0572745
0.0370073
0.0552135
0.250358
0.0566903
0.00572896
-0.451655
-0.0736227
0.0415555
-0.0882462
0.0407115
-0.127532
0.271288
0.1815
0.0686257
-0.345003
0.0397935
-0.0722787
-0.130284
-0.305132
0.039309
0.0256104
0.0480943
0.0161343
-0.0415751
0.0892825
-0.110842
-0.0286563
0.0393859
-0.0124154
-0.00597193
0.349313
0.0444827
0.00718016
0.0398321
0.44351
0.0328834
-0.344568
0.043833
0.0607595
-0.189071
0.0656042
0.0351365
0.0590998
0.141023
-0.0198911
0.0945509
0.0149661
0.0163427
0.0964054
-0.467194
0.0395104
-0.0384351
0.15295
0.0408583
0.0347457
0.0241372
-0.000958391
0.0425006
0.0270435
-0.254984
0.0446507
0.0654496
0.0473202
0.00547876
-0.0338979
0.0934647
0.147681
-0.19058
-0.0491578
0.0463542
0.357729
0.0423748
0.539993
-0.306251
-0.0467977
0.0362123
-0.117996
0.0560824
-0.0584207
-0.400689
-0.275758
-0.407686
0.0377443
0.0905842
0.0484476
0.0369348
-0.450769
0.0410025
0.0551474
0.0466235
0.184038
-0.0318517
0.0845163
0.0339328
0.067774
0.0993903
-0.196433
0.0444093
-0.438737
0.0578634
-0.0941078
0.0345147
0.245139
-0.0728326
0.146124
0.0510619
-0.155708
0.0598059
-0.112465
-0.281803
-0.0486701
0.0422691
0.0721055
0.0349584
-0.20935
0.0428925
0.0421401
0.0183329
0.108695
0.067661
0.0375116
0.0429127
-0.408829
0.379359
-0.228249
-0.400052
0.0187348
0.0667183
0.0444299
-0.00678229
-0.496663
-0.447239
0.0370651
-0.00332813
0.0375298
-0.415537
-0.00804582
0.0113081
0.0207959
-0.00980771
-0.057715
0.0416415
0.0403282
0.01405
0.0418335
0.154631
-0.52082
-0.057991
0.0177826
0.145894
0.0225194
0.0242662
0.0174595
-0.0397577
0.049714
0.0187156
0.0150907
0.0119408
0.031271
0.0128747
0.0160836
0.0020946
0.0131849
0.0122669
-0.0133308
0.0106729
0.0333377
-0.0227412
-0.00559598
-0.414171
-0.00667712
0.00241531
-0.0250354
0.0166062
0.0409314
0.0398874
-0.00483505
0.0305653
0.153791
-0.0489367
0.0220936
0.0357581
-0.000219913
0.0771455
0.00513328
-0.0284915
0.0359876
-0.0383055
0.0283709
-0.0153085
-0.494525
0.294219
0.0390913
-0.107312
0.024605
0.0511625
0.028786
-0.250351
0.241655
0.0126043
0.0295675
-0.0188328
0.0847151
-0.220626
0.0221445
-0.000250988
-0.0888631
-0.0402103
0.0349819
0.0395418
0.0172322
-0.0165441
0.00996276
-0.10259
0.0298427
0.0279144
0.0877183
-0.0500669
-0.0533606
-0.0223245
0.0270627
0.00184958
0.042009
-0.61172
-0.0400947
0.049483
-0.0358877
-0.218398
-0.12046
-0.0333944
0.035421
-0.413523
0.11866
0.140538
0.0451789
0.0339964
-0.0785282
0.0115407
-0.289782
0.0477782
-0.00925488
0.0555499
0.0343157
-0.00559534
0.0473227
-0.0360649
0.0106219
-0.0054088
-0.351915
0.0107588
0.0560527
0.0463463
-0.0266621
0.0412624
0.251142
-0.012589
-0.185244
0.537029
0.10985
0.0148264
0.0542796
-0.0788237
-0.0109548
-0.00645268
0.0535091
0.00590718
0.0332178
-0.0156649
-0.196519
0.0124337
0.135183
0.0184853
-0.324456
-0.41152
-0.541132
-0.427428
0.0136715
0.0427293
0.0109039
0.0192533
-0.00724109
0.0166695
0.0456343
-0.00307711
-0.60386
0.0483966
0.0301659
0.0702414
-0.0215504
0.0262889
-0.0463234
0.106263
-0.456807
0.0498675
0.0564976
0.0158045
0.0627006
-0.37209
0.0433795
-0.285285
0.0262366
0.0419909
0.0750073
0.0399318
0.0600101
-0.143145
-0.428878
0.0283866
0.0207199
-0.181851
0.0214947
0.0347082
0.0370324
0.00612555
0.0341591
-0.229442
0.0163894
0.048952
0.0408981
-0.285114
-0.244327
0.0886564
-0.0674531
0.0216381
-0.0119462
0.400303
-0.0845995
0.0285242
-0.0716936
0.0410889
0.0417231
0.0478554
0.0585689
0.00325616
0.113119
-0.0154196
-0.00157419
-0.00340287
-0.00596744
-0.0125313
-0.00748219
0.0441179
0.106617
-0.00698453
0.0347316
0.0168855
0.0518311
0.0318799
0.0541214
-0.463617
-0.0515568
0.0356584
0.00382804
-0.117914
-0.435294
0.00491921
-0.136291
0.0842776
0.0436105
-0.317027
-0.309571
0.277363
-0.397509
-0.550594
-0.0258284
-0.110413
0.0745371
-0.455185
0.341784
-0.0595298
-0.411403
0.0317295
0.116931
0.534264
0.0274846
-0.00742685
0.077894
-0.0915635
0.0181285
-0.279166
-0.220555
-0.00626693
0.059093
-0.0620233
-0.334097
-0.404795
-0.128724
0.0392804
0.038796
0.120787
0.00715775
-0.0516739
0.108608
-0.0555006
0.0401448
-0.169694
-0.276529
0.0230148
0.0433847
0.0418911
0.0440268
0.0752803
-0.0051385
0.0155315
-0.565698
0.434973
-0.243902
-0.371494
0.0177704
0.00632055
-0.339202
-0.303454
0.110114
-0.422977
0.0248832
0.856207
0.0416486
-0.441209
0.0362794
0.107636
0.0641665
-0.557725
-0.32129
-0.391274
0.0014771
-0.0308246
-0.448703
0.0292874
0.0193909
0.132292
-0.416917
0.0626264
-0.602501
-0.301339
-0.363465
0.0891943
0.033707
0.0436816
0.134377
0.111947
0.0444008
-0.366972
0.283483
-0.100221
-0.0185392
-0.537011
-0.599059
-0.424153
0.0523439
-0.436446
-0.0907781
0.0173543
-0.0114254
-0.121207
-0.297315
0.0379972
-0.39992
-0.206865
0.0181514
0.0278784
-0.310154
0.0314495
0.06817
-0.471689
-0.467038
-0.0898257
0.127528
0.0473678
-0.420055
-0.275833
-0.358002
0.120619
0.074268
0.128776
0.00447691
-0.472514
-0.265778
0.130836
0.0441677
0.0760305
0.0608538
0.0456279
-0.310352
0.0627865
-0.343753
0.0539503
-0.164104
0.0763761
0.00883786
-0.342472
-0.428139
-0.000402634
-0.570646
-0.561089
0.0735326
-0.0171602
-0.289826
0.00109401
-0.386038
0.0349951
0.111282
0.0493684
-0.116786
-0.0583299
0.101155
-0.401508
0.000403478
-0.404449
0.0368738
-0.409892
-0.47356
0.0680181
0.300225
0.437433
0.0308424
0.0052458
0.00874626
-0.429753
0.652065
0.0466463
-0.133473
0.0189259
-0.152907
0.0635052
0.50787
-0.351078
-0.00411868
-0.00055507
0.020298
0.0309116
-0.426455
-0.342701
-0.46794
-0.278476
-0.359975
0.027815
-0.453212
-0.0660968
-0.215165
-0.256991
0.555749
0.620018
-0.201489
0.0629197
-0.309711
-0.00411721
0.141022
0.452569
0.139584
-0.405009
0.0576517
-0.465153
0.0202183
-0.157981
0.0196282
-0.297056
-0.211804
0.0101348
0.0060511
-0.401513
0.40153
0.69143
-0.456019
-0.277143
-0.433858
-0.0153883
-0.286228
-0.278129
-0.0783425
-0.404407
0.787094
-0.317505
0.716125
-0.508801
0.301673
-0.405376
0.0421285
0.204435
-0.466702
0.154501
-0.185667
-0.272985
-0.301988
0.885917
-0.328711
0.186708
0.116256
0.618042
0.101858
-0.215675
-0.220894
-0.115115
0.0265037
0.130314
0.472123
0.0238119
0.0207566
-0.280783
0.169787
-0.182214
-0.3341
0.0660083
-0.120534
-0.246234
-0.102097
-0.463977
0.0400291
0.0916769
0.0381811
0.108429
0.0881387
-0.301999
-0.304476
0.0880615
0.0497558
-0.417818
-0.471557
0.221635
0.220039
0.0867942
0.70056
-0.142438
-0.155443
-0.336742
-0.276418
-0.115862
0.119144
0.779614
-0.409384
0.328487
0.0361092
-0.394619
0.181626
-0.0269077
0.346515
-0.0916166
0.050175
-0.410241
-0.155179
0.133404
0.796772
0.316064
0.784808
-0.53042
-0.263143
-0.515301
0.203785
0.290049
0.0927297
0.412346
0.0642756
0.493398
0.308304
0.0700987
-0.262652
-0.017216
-0.251913
0.888908
0.399036
0.687292
0.513702
-0.216945
-0.499855
-0.294618
-0.384953
0.0784019
-0.499859
0.0394749
0.620006
-0.509401
0.00976131
-0.387477
0.212781
-0.312371
-0.338215
-0.123305
-0.251259
-0.316971
-0.448406
-0.421393
-0.0946796
-0.518828
-0.210904
-0.24732
0.176458
0.619906
-0.166319
-0.403558
0.850967
-0.399169
0.246022
-0.193587
0.331807
0.0757329
-0.517394
-0.358935
0.483689
-0.361002
-0.278768
0.139837
-0.228917
0.0277093
-0.277283
-0.072026
0.062402
0.547321
0.777536
-0.278306
0.204021
-0.272593
0.828747
0.0289243
-0.271634
0.0327958
0.748433
0.233548
-0.279636
-0.28108
0.424111
-0.167028
0.0717617
0.390051
0.276759
0.273793
-0.203869
-0.193808
0.687592
)
;

boundaryField
{
    FrontBack
    {
        type            empty;
    }
    Top
    {
        type            zeroGradient;
    }
    In
    {
        type            zeroGradient;
    }
    Bottom
    {
        type            zeroGradient;
    }
    Out
    {
        type            fixedValue;
        value           uniform 0;
    }
    circle
    {
        type            zeroGradient;
    }
}


// ************************************************************************* //
