/*--------------------------------*- C++ -*----------------------------------*\
| =========                 |                                                 |
| \\      /  F ield         | OpenFOAM: The Open Source CFD Toolbox           |
|  \\    /   O peration     | Version:  2412                                  |
|   \\  /    A nd           | Website:  www.openfoam.com                      |
|    \\/     M anipulation  |                                                 |
\*---------------------------------------------------------------------------*/
FoamFile
{
    version     2.0;
    format      ascii;
    arch        "LSB;label=32;scalar=64";
    class       surfaceScalarField;
    location    "50";
    object      phi;
}
// * * * * * * * * * * * * * * * * * * * * * * * * * * * * * * * * * * * * * //

dimensions      [0 3 -1 0 0 0 0];

oriented        oriented;

internalField   nonuniform List<scalar> 
1171
(
-0.944669
0.944669
0.756224
-1.06553
0.30931
-0.131315
-0.623244
0.754558
0.0553312
-0.0806329
-0.282437
0.36307
-0.756224
0.0837469
0.672477
0.903149
-0.21161
-0.691539
0.841576
-1.0828
0.241228
-0.355993
-0.0555717
0.411564
-0.0246574
0.611241
-0.586583
-0.568467
0.832511
-0.264044
-0.436625
1.02353
-0.181952
0.217399
0.097
-0.314399
0.975019
0.0485092
0.233552
-0.0161532
1.01026
-0.0352369
0.670562
-0.801877
-0.769272
0.587775
0.181497
0.169476
-0.737942
0.548372
-0.909712
0.361341
-1.07715
0.667042
0.410112
-0.644129
0.619472
0.0212372
-0.240792
0.219555
0.0465423
-0.621038
0.574496
0.459374
-0.514946
-0.850473
0.886492
-0.0360188
0.974342
0.0359133
0.890784
-1.05926
0.168478
0.979767
-0.00542458
-0.696763
-0.0725093
1.31304
-0.856865
-0.456178
0.129294
-0.109008
-0.388631
0.497639
-0.274289
0.19433
0.0799589
-0.595163
-0.470371
0.995192
-0.104408
-0.0300388
0.888058
-0.858019
0.534768
0.778275
0.502232
-0.00110211
0.460477
-0.786876
-0.110051
0.896927
0.534063
0.254616
-0.788679
0.0898998
0.551533
-0.641433
-0.505537
-0.571617
-0.376476
-0.682786
0.0138315
0.259715
-0.273546
-0.947972
-0.0303294
0.978301
0.372519
0.039045
0.796134
0.107015
-0.589865
-0.0542643
0.037298
-0.824174
-0.00557545
0.980902
-0.975327
-0.39509
0.0236078
0.371482
-0.698767
-0.249205
-0.708205
0.702629
0.806348
0.0261634
-0.587685
0.97468
-0.800651
-0.174029
-0.30461
0.245543
0.059067
-0.45676
-0.0581866
-0.238865
1.04521
0.0353175
0.403856
-0.439173
-0.529848
1.06391
0.707264
-0.817315
0.403519
-0.0502572
-0.353262
0.802634
-0.802634
-0.793892
0.0507794
-0.333216
-0.692625
0.662587
-0.0481319
-0.156575
0.204707
0.888531
-0.00047341
1.04046
-0.785848
0.227791
-0.328705
0.100914
0.907489
-0.111356
-0.65714
-0.0436704
0.700811
0.144511
-0.227003
0.0824924
0.777013
-0.988623
-0.429288
0.306486
0.122802
0.670224
-0.623682
0.872305
-0.400757
-0.471548
0.495829
-0.695827
0.0342334
0.661593
0.11881
0.629246
0.0604178
-0.689664
0.152183
-0.101403
-0.502596
0.107506
0.0313324
-0.88477
0.853437
-0.524038
-0.746104
0.0493416
0.498741
-0.0382646
0.2793
-0.836066
0.556766
0.423132
0.576868
0.596757
-0.559459
-0.438837
0.0465641
0.392273
0.562036
0.240598
-0.664653
0.754553
0.11011
0.86076
0.00280356
-0.659944
-0.756537
0.78787
0.585576
0.0753395
0.340847
-0.416186
-0.157132
0.566132
-0.0145985
0.928105
-0.831249
-0.0968556
0.650431
0.32425
-0.442928
0.640246
-0.564907
0.40805
0.140321
-0.0483361
-0.800817
-0.200549
1.00137
-0.138326
-0.664307
-0.616034
0.359551
0.256483
0.646885
-0.644082
0.314938
1.01315
0.0273098
-0.756537
-0.0996119
-0.204999
0.707264
0.771291
-0.771291
0.835428
-0.816488
-0.0189407
-0.453936
0.877068
-0.186922
-0.315674
0.764709
-0.67737
-0.0873393
-0.909685
0.108868
0.126056
-0.715921
0.817315
-0.974447
-0.279929
0.246957
0.0329716
0.114707
-1.01609
0.901381
0.541028
-0.0387954
-0.291648
0.593694
-0.302047
-0.663344
0.77805
-0.153766
0.570252
-0.951164
0.380913
1.07286
-0.750909
-0.321952
0.722955
-0.0721688
0.024565
-0.020219
-0.00434599
-0.800368
-0.842117
0.218873
-0.692625
0.565139
-0.541531
0.326727
0.614067
-0.940795
0.775478
0.169191
0.492644
0.507356
-0.106748
-0.741171
0.847919
1.09966
-0.171551
-0.722955
0.78787
0.186627
-0.427419
-0.0544931
0.0492042
0.00528888
0.659237
-0.427511
-0.231726
0.672477
-0.0669371
-0.271865
0.549632
0.109605
-0.031946
-0.00167446
0.0336205
0.0108251
0.01374
0.200676
-0.250934
-0.925056
-0.00293344
-0.137187
-0.0792523
0.120282
0.825045
0.740802
-0.163934
0.787979
-0.461252
-0.167683
0.395474
0.636034
0.0364435
0.238021
-1.05451
-0.974447
0.334255
0.662587
-0.179598
0.0230234
-0.822112
1.0808
-0.258684
0.469737
-0.0982545
0.781269
0.304173
0.253728
-0.020176
-0.680282
0.680282
0.233437
0.66349
-0.0578873
0.461743
0.439752
-0.0308926
-0.0236006
0.504489
0.0365387
-0.663344
0.562348
0.202362
-0.00647866
-0.0137404
-0.636034
0.181423
0.899372
0.033348
-0.748566
0.715218
0.754821
-0.820685
0.0658633
-0.775478
-0.0479437
0.0658007
-0.0178571
0.0902877
-0.126876
-0.100324
0.2272
-0.00430813
-0.0276379
0.790051
-0.756703
0.880058
-0.1255
-0.200474
-0.559666
0.76014
-0.000776046
0.000776046
0.293521
0.631887
0.306172
-0.938059
-0.191039
-0.545036
0.736074
-0.0173737
0.222081
0.37547
-0.230959
0.93095
-0.299063
0.786529
0.980744
-0.674573
0.188548
0.77805
0.596099
0.221489
0.665003
-0.664307
0.319718
-0.126977
0.160059
-0.0330819
0.94024
-0.046568
-0.893672
-0.560862
0.555437
0.546064
-0.560862
-0.596099
0.555437
0.00557094
0.721307
0.158751
-0.562036
0.471556
0.0904794
0.583935
0.618456
-1.20239
0.663786
0.267164
0.51808
0.645626
-1.16371
0.749901
0.230844
0.471556
-0.542953
-0.440493
-0.654365
-0.734743
-0.337097
-0.0103495
0.0103495
0.632368
0.413451
-1.14819
0.627349
-0.286502
-1.09082
0.339908
-0.680508
0.431303
-0.106581
-0.923214
1.0298
0.449154
-0.177447
1.11769
-0.908678
-1.11342
0.19944
0.91398
0.281167
-0.43501
0.153843
0.680368
-0.784775
0.851216
-0.950694
0.0994779
0.0286643
-0.859913
-0.229324
0.930154
-0.700829
-0.98851
1.01717
-0.788575
0.446814
0.341761
-0.538648
-0.282774
0.821422
0.0049953
-0.00577135
0.419621
0.0574623
-0.903495
0.846033
-0.83723
0.730482
1.1514
0.0391313
-1.19054
0.0379847
-0.0708948
0.463168
-0.367873
0.0391679
0.928445
-1.03503
-0.664148
-0.593351
-0.266563
-0.175039
-0.841321
-0.109373
0.407662
0.380317
-0.210091
0.491258
-0.915851
0.633077
0.471548
-1.10066
-0.949378
-0.228071
-0.0015391
0.738278
-0.736739
0.188474
-0.665687
0.576555
0.178267
0.177573
0.940114
1.21661
0.867582
-0.976954
0.0514717
-0.0514717
-0.0740495
-0.10484
-0.330171
0.329063
0.00519174
0.186791
1.12859
0.0386122
-0.0429204
0.655233
0.344767
0.796817
-0.595163
-0.749404
-0.783307
-0.519418
0.519418
-0.213738
-0.119479
0.623798
-0.895212
0.271414
-0.475594
-0.543945
0.29801
-0.980796
-0.856402
0.95588
-0.905263
0.638701
0.645479
0.210338
-0.855817
-0.441547
-0.201231
0.861674
-0.660443
-0.272186
0.0315502
-0.000585422
-0.0309648
-0.308641
0.203801
0.921808
0.472144
-0.0897545
-0.382389
0.625987
0.751534
-0.518098
0.0191835
-0.293473
-0.167375
0.778552
-0.611177
-0.335317
-0.0826771
0.137628
-1.10223
0.208558
-0.684874
0.14616
0.692313
-0.838473
-0.894145
0.209271
0.700082
-0.78276
0.224505
-0.35138
-0.739062
0.297515
0.371531
0.665881
-0.0256346
-0.0143754
0.0143754
-0.012024
-0.0194111
-0.107566
-0.0101211
0.0487334
-0.358744
0.343495
0.675082
-0.799328
0.124246
-0.643751
0.789911
0.798349
-0.0982661
-0.694731
-0.199413
-1.12996
0.0217828
0.0296889
-0.526119
-0.924056
-0.863677
0.407499
-0.1804
0.306592
-0.126192
-0.401515
-0.124603
0.425083
0.710564
-0.0777808
-0.00147149
0.804715
0.538632
0.0971653
-0.635797
-0.265375
-0.136141
0.0056783
0.0258719
0.754056
-0.954605
0.00288761
-0.00288761
-0.696476
0.805798
-0.109322
-0.475465
-0.183309
-0.679313
0.198441
0.649478
-0.0653173
-0.880544
-0.539944
0.341044
0.1989
0.723911
-0.599664
0.356259
0.231028
-0.587286
-0.17
-0.668338
-0.170135
-0.157845
-0.341503
0.46163
-0.519816
0.148806
0.761927
-0.910733
0.495829
-0.351484
0.171083
-0.068059
-0.273444
0.584631
-0.0861506
-0.49848
-0.296687
0.316849
-0.0201625
0.481732
0.145617
0.130011
-0.320454
0.177089
0.143365
0.139161
-0.238773
-0.461077
-0.0711019
0.109741
-0.038639
0.995087
-0.257821
-0.217645
0.546963
0.405802
-0.495556
0.427668
-0.427668
-0.215161
-0.415801
-0.225667
-0.415801
-0.783037
-0.852123
0.174753
-0.587991
0.775366
0.0431001
0.123273
0.542608
0.112101
0.129783
0.00665601
-0.136439
-0.246947
0.593057
-0.912854
0.353188
-0.126144
0.0692412
0.0569028
-0.758709
-0.176911
-0.530419
0.627584
-0.512322
-0.159168
-0.114275
-0.34807
-0.0782918
0.0782918
0.0645125
0.00128819
0.151566
0.0678191
-0.605005
0.0745862
0.0339152
0.474253
0.525747
0.860493
0.00163351
0.0488506
-0.0504841
-0.30522
-0.575324
-0.441701
0.121748
-0.125673
0.00392524
-0.176836
-0.401825
-0.216742
0.86622
-0.582499
-0.176211
0.0863752
-0.0373712
0.300537
-0.585856
-0.207082
-0.227993
-0.0229403
-0.462515
0.414434
0.0480817
-0.0140319
0.294165
-0.865782
-0.508167
0.619272
-0.882209
0.712209
0.390848
-0.039375
0.0626861
-0.0233112
0.190246
-0.631493
-0.00374541
0.635238
-0.885317
0.64579
-0.719839
0.0430256
0.00923229
-0.00923229
-0.30127
0.372123
0.0910445
-0.0356086
0.0372421
0.559941
0.584871
-0.681726
0.0135957
-0.00822811
-0.00614729
0.00607356
-0.00607356
-0.410382
0.555999
0.0191634
-0.0191634
-0.775591
-0.0109183
0.0159136
-0.452466
0.527052
0.503884
-0.613206
0.0750539
-0.0750539
0.0285534
-0.0521539
-0.00591266
-1.04506
0.723111
-0.536574
-0.00577135
0.598986
0.00844087
-0.607427
-0.705457
0.122958
-0.311
-0.0103214
0.321322
-0.0415722
-0.0362086
-0.602573
-0.0289196
0.0296889
0.00481801
-0.0019304
-0.00181051
0.00181051
-0.171352
0.132713
-0.47943
0.137803
0.659014
-0.0931895
0.01379
-0.01379
0.508487
-0.0945976
0.0100083
0.0204566
0.000302209
0.640257
-0.734855
-0.809519
0.591874
-0.164451
0.353983
0.816259
-0.012024
-0.091267
0.0775266
-0.658086
0.526781
-0.289314
-0.106471
-0.0260184
-0.0274157
0.0387295
0.476291
-0.0906827
-0.407798
0.711735
0.00427598
-0.00194475
0.00194475
-0.260439
-0.103533
-0.568875
0.611975
-0.139699
0.503012
-0.137033
0.807595
0.802328
0.00481801
-0.624285
0.530462
0.0307465
0.0376109
-0.0683574
0.577842
0.103618
-0.0123237
0.0698019
-0.0574781
0.0105132
-0.0105132
-0.759106
0.0235822
-0.050163
0.0706196
-0.0847291
0.0847291
-0.00822811
0.00176598
0.793799
0.105573
-0.311463
-0.0903621
-0.513559
0.117122
-0.0667461
0.0667461
-0.0219308
0.0869026
-0.0869026
0.027856
-0.027856
-0.359498
-0.0834299
0.233118
0.0733682
0.043888
-0.768621
-0.0762356
0.157457
0.0291702
-0.238011
0.0863103
-0.0863103
-0.461701
-0.0581157
0.224209
-0.00465423
0.0030075
-0.659801
0.65423
0.00667946
-0.0286102
0.0360895
-0.0882434
-0.0118486
-0.165703
0.177551
-0.145086
-0.206295
-0.0805289
0.0805289
0.0522331
-0.0522331
-0.0244526
-0.0935688
0.118021
-0.0535244
-0.195773
0.0173691
-0.0235164
-0.045875
0.178588
-0.0260588
0.481177
0.0121722
0.0214483
-0.0517488
0.0517488
-0.723584
0.313306
-0.124758
-0.205726
-0.0212766
-0.0215299
0.0245374
0.188791
0.0384092
-0.00164122
0.00194343
0.090529
0.0312189
0.0592337
0.0982231
-0.0500682
0.0485967
-0.00483235
-0.0013348
0.000704177
-0.0054824
0.00477823
-0.00628336
0.0164482
0.0255173
-0.0255173
0.0482719
-0.0471358
0.0471358
-0.190784
0.0201135
0.0278115
-0.0778827
0.0173427
0.0822799
-0.0822799
0.236873
-0.236513
0.0914271
-0.0653497
-0.171163
-0.0119987
0.0119987
0.407328
0.254266
-0.527181
-0.0811317
-0.0445414
0.54513
-0.0174349
-0.0528578
-0.450953
0.11728
-0.148437
0.167055
-0.0186175
-0.051061
0.051061
0.933539
-0.585957
0.00448757
-0.0107709
-0.00643725
-0.29639
-0.000592203
0.0042002
-0.0532122
-0.624568
0.571675
-0.637275
0.0137828
0.0143786
0.0149972
0.0238929
-0.154874
-0.327506
0.249623
-0.0511683
0.0267158
0.174462
0.142388
0.303913
0.261251
-0.246253
-0.00122622
-0.121928
-0.216048
0.064687
-0.00545324
0.160385
-0.136492
-0.0699439
0.160473
-0.406247
0.122828
-0.105485
0.0618393
-0.469637
0.171255
0.18662
-0.256564
0.014807
-0.186457
0.185865
0.00403046
0.156442
-0.0279723
0.0447867
0.4637
0.0135186
-0.0127317
0.00982839
0.0432039
-0.234665
-0.204704
0.588379
0.161297
0.0629116
0.0660781
-0.0646939
0.0476124
-0.11597
-0.0311621
0.163761
-0.149978
0.0259978
-0.0190288
-0.112857
-0.0300147
0.0745945
0.25472
-0.0601043
-0.040631
-0.304549
-0.0160952
0.225788
0.139972
0.173334
0.0549002
0.0919626
0.0605048
0.499437
-5.41268e-05
0.113199
0.0366154
0.0725137
-0.109129
-0.272916
-0.194873
0.0237094
-0.214917
0.28084
)
;

boundaryField
{
    FrontBack
    {
        type            empty;
    }
    Top
    {
        type            calculated;
        value           uniform 0;
    }
    In
    {
        type            calculated;
        value           uniform -1;
    }
    Bottom
    {
        type            calculated;
        value           uniform 0;
    }
    Out
    {
        type            calculated;
        value           nonuniform List<scalar> 10(1.18187 1.12689 1.09486 1.01707 1.26408 0.965587 1.04582 1.01954 0.642829 0.641468);
    }
    circle
    {
        type            calculated;
        value           uniform 0;
    }
}


// ************************************************************************* //
