/*--------------------------------*- C++ -*----------------------------------*\
| =========                 |                                                 |
| \\      /  F ield         | OpenFOAM: The Open Source CFD Toolbox           |
|  \\    /   O peration     | Version:  2412                                  |
|   \\  /    A nd           | Website:  www.openfoam.com                      |
|    \\/     M anipulation  |                                                 |
\*---------------------------------------------------------------------------*/
FoamFile
{
    version     2.0;
    format      ascii;
    arch        "LSB;label=32;scalar=64";
    class       volVectorField;
    location    "50";
    object      U;
}
// * * * * * * * * * * * * * * * * * * * * * * * * * * * * * * * * * * * * * //

dimensions      [0 1 -1 0 0 0 0];

internalField   nonuniform List<vector> 
808
(
(0.896191 -0.0138279 0)
(1.00084 -0.0388947 0)
(0.973153 -0.0321176 0)
(1.06673 0.0149973 -2.37801e-21)
(1.51453 -0.246757 0)
(0.933625 -0.0134137 0)
(1.09798 -0.0612473 -7.69831e-21)
(1.16032 -0.0526253 0)
(1.39493 -0.202444 3.40453e-20)
(1.22287 -0.0465758 -1.10915e-20)
(0.971098 0.107145 1.25068e-20)
(1.42692 -0.210176 0)
(1.01655 -0.0510875 0)
(0.723486 -0.0335132 0)
(0.851406 0.0716243 8.17397e-21)
(1.09066 -0.0453312 0)
(0.721684 -0.0510534 -1.87592e-21)
(0.996717 -0.043284 -1.13081e-22)
(1.00757 -0.0596823 0)
(1.09015 0.0155236 0)
(1.0645 0.0450305 -1.74527e-20)
(0.929665 0.119838 1.14291e-19)
(1.07042 0.0111169 -1.93091e-20)
(1.15948 0.00329514 0)
(0.946828 0.156419 0)
(1.34386 0.0793624 -1.48514e-20)
(1.29891 -0.123788 1.48053e-20)
(0.955374 -0.00448166 -7.26489e-21)
(1.06243 -0.0238403 0)
(1.034 0.0212381 -5.21968e-22)
(0.940902 0.00346794 5.31156e-24)
(1.1033 0.00759123 0)
(1.08444 -0.000819759 0)
(1.04885 0.00190739 5.50347e-21)
(1.2933 0.00404179 8.77721e-21)
(0.747111 -0.140017 1.07248e-19)
(0.856231 -0.0339511 -1.63108e-20)
(1.02716 -0.00300844 2.72778e-21)
(1.19718 0.0525113 -6.25258e-21)
(1.14344 0.026651 0)
(1.23873 -0.0010068 -1.48874e-20)
(1.27547 -0.0846246 0)
(1.00818 -0.00959738 -1.32972e-20)
(1.08124 -0.0339017 1.79137e-20)
(1.2659 0.0468891 0)
(1.00939 0.0120818 -2.51524e-20)
(0.99403 0.0323943 3.86423e-21)
(1.27356 -0.217439 2.4357e-20)
(1.1627 0.0437605 -1.41777e-20)
(1.44157 -0.0990444 -4.91877e-20)
(1.07953 -0.0972601 1.42936e-20)
(1.1397 -0.0473668 0)
(1.11326 -0.000837575 1.19531e-20)
(1.12941 0.0792152 0)
(1.28981 0.223028 2.21812e-21)
(1.05849 0.0239425 -5.46567e-21)
(1.13349 0.11049 0)
(1.1377 0.142568 5.87008e-21)
(1.2326 -0.0478193 1.19063e-20)
(1.11506 0.0202637 -1.96354e-21)
(-0.218536 0.602294 0)
(1.22523 -0.200472 -1.2164e-20)
(1.15446 0.0894327 0)
(1.41014 0.0530647 -3.1373e-20)
(1.09134 0.0517914 -1.82972e-20)
(1.0352 -0.0291099 -1.32091e-20)
(1.51593 -0.00949687 3.85167e-20)
(0.68045 0.0225752 0)
(1.04227 0.0136963 0)
(1.53177 -0.337326 0)
(0.891453 0.0324827 -4.12448e-22)
(1.38958 -0.10173 -5.34501e-20)
(1.00944 0.0586832 0)
(1.0386 -0.00622546 -5.45574e-21)
(1.15492 -0.338845 -4.78901e-20)
(1.07204 -0.0426231 -2.60526e-20)
(1.10165 0.0213511 -4.3457e-22)
(1.30385 0.47308 2.48755e-20)
(1.08467 -0.0468575 0)
(1.0005 0.255614 -1.90912e-19)
(1.32326 0.0664421 7.40166e-21)
(0.73798 0.012134 0)
(0.847444 0.0127231 -1.70471e-20)
(0.975393 -0.117935 3.83373e-21)
(1.04363 -0.0296531 1.9929e-20)
(1.13718 0.0303988 1.93786e-22)
(1.39997 -0.220514 0)
(1.32447 0.257494 0)
(1.06507 0.0137273 -1.89588e-20)
(1.31681 0.100251 1.69857e-20)
(1.06719 -0.00317121 1.25225e-20)
(1.32885 -0.0561347 -1.77242e-21)
(0.965978 0.0228179 1.84811e-20)
(1.00301 -0.0223469 0)
(1.10789 0.0155411 2.55438e-21)
(1.4936 0.153266 -9.25975e-20)
(0.790348 0.010659 -4.95571e-21)
(1.35818 0.0110049 0)
(1.3187 -0.0178934 0)
(1.46843 0.00776546 -6.07585e-20)
(1.07916 -0.0615716 -7.64425e-21)
(1.08885 0.0231186 -2.10921e-22)
(0.931917 0.0207696 1.25621e-20)
(1.12357 0.0255631 5.10902e-22)
(1.20503 0.0632167 -1.11106e-20)
(1.00166 -0.00151462 1.88459e-20)
(1.40469 -0.00796762 0)
(0.982603 0.0232671 0)
(1.0726 0.023513 1.19157e-20)
(1.22712 -0.19643 -2.94839e-21)
(1.17632 0.0628564 1.10135e-21)
(1.03224 0.0336633 -1.25657e-19)
(1.13353 0.0322286 -4.69945e-21)
(1.32752 0.0413865 3.55495e-23)
(0.826029 0.00771959 0)
(0.921517 -0.0598995 7.36884e-20)
(1.12019 0.0190798 -1.00127e-20)
(1.53342 -0.232153 -2.43456e-20)
(1.11153 -0.0158216 -1.36944e-20)
(0.921637 0.0222495 1.82108e-21)
(-0.0625243 0.45723 0)
(0.85479 -0.0154017 2.20231e-21)
(0.777436 0.022336 0)
(1.04913 0.0107455 -9.44763e-23)
(1.00941 0.0273736 0)
(1.28711 0.30332 4.55918e-21)
(1.04175 -0.046531 -2.88439e-20)
(1.41155 -0.00822931 -3.40286e-21)
(1.14717 -0.0335967 0)
(1.08894 -0.0196311 0)
(0.94675 0.0497684 0)
(1.14311 -0.0252316 -6.43675e-21)
(1.21032 -0.00518214 7.80456e-21)
(1.063 0.105093 -3.77013e-20)
(0.86616 -0.0330697 0)
(1.07614 0.0223807 -2.75873e-21)
(1.16061 0.282749 1.60895e-21)
(1.14137 0.133151 -6.45946e-23)
(0.98051 0.0238346 7.38149e-21)
(1.09364 0.0213734 1.76812e-22)
(-0.0819102 -0.0955616 0)
(1.08777 -0.00184415 -1.37505e-20)
(0.967522 0.142068 2.977e-21)
(0.712568 0.0243752 -7.63668e-21)
(1.23736 0.147498 3.7381e-21)
(1.23709 0.311408 -2.06857e-21)
(1.04328 0.0220784 1.66013e-20)
(0.993323 0.0334673 0)
(1.26245 -0.131528 -3.01454e-20)
(1.17608 0.150111 0)
(0.935164 0.0297319 1.58193e-20)
(0.964859 0.262214 1.52416e-19)
(0.954916 0.0320579 0)
(0.821607 0.0720191 0)
(-0.154345 -0.171709 -7.45989e-20)
(1.30621 0.111601 -7.30053e-21)
(0.654262 -0.0174267 0)
(1.35444 0.0876221 0)
(1.12863 0.216348 0)
(1.31214 0.110142 6.54782e-21)
(-0.0428217 -0.253995 0)
(-0.0869661 -0.122416 3.34355e-20)
(1.26611 0.0358332 1.2157e-19)
(0.984526 0.0320404 2.19832e-21)
(0.858661 0.00109995 0)
(1.03658 -0.0278703 1.9688e-20)
(0.868844 0.0232382 0)
(1.0211 -0.000215282 -1.31258e-19)
(1.03174 0.0376508 2.26325e-20)
(1.13335 0.00607318 5.52419e-21)
(1.07906 0.019553 8.34097e-21)
(1.01302 0.0623481 -1.37864e-20)
(0.998893 0.278448 2.05913e-21)
(1.15715 -0.346337 1.9428e-22)
(0.902121 -0.0217741 0)
(1.06139 0.0119267 -1.30355e-20)
(0.874596 0.00463921 -1.46913e-20)
(1.40775 -0.115009 2.69099e-21)
(0.681633 0.0326529 0)
(1.17634 -0.129786 0)
(1.16287 0.00110491 9.2687e-21)
(1.36047 0.186206 6.0232e-21)
(1.09055 0.0221898 6.92654e-21)
(1.03355 0.0290937 1.78561e-20)
(0.551043 0.0591567 -2.4542e-20)
(0.81417 0.00118626 2.49858e-20)
(1.13003 -0.0255586 1.06842e-20)
(1.35865 0.057428 -5.125e-21)
(1.13093 0.0130268 -1.09633e-20)
(1.28852 0.0446021 4.39202e-21)
(-0.151583 -0.135934 5.30308e-20)
(1.21966 0.0501934 0)
(0.623012 -0.00684466 0)
(1.06371 -0.0104515 -5.42145e-21)
(1.07426 0.0210863 1.16473e-20)
(-0.020681 -0.0313128 0)
(0.88297 -0.0268075 8.42617e-22)
(1.19605 -0.0313483 -4.51951e-21)
(0.992011 0.0282815 3.21237e-21)
(1.07367 0.0295702 -9.09562e-21)
(0.995485 0.0218621 2.22748e-21)
(1.08698 -0.0340134 3.98671e-21)
(1.07242 0.0135109 0)
(0.454153 -0.0310794 0)
(1.04349 -0.0682787 0)
(1.13809 0.0738972 -2.41523e-20)
(-0.0191463 -0.301184 6.42144e-20)
(1.12929 0.0423299 -2.83978e-23)
(0.879961 -0.184903 0)
(0.742218 0.0203275 -1.45715e-20)
(0.958089 0.161036 1.14785e-21)
(-1.18208e-05 -0.0457974 -1.96426e-19)
(1.16187 0.126627 -8.38664e-20)
(0.623148 -0.00625477 0)
(0.856322 0.286809 0)
(0.920064 0.0419635 1.31164e-20)
(1.15872 -0.0935925 7.69667e-21)
(1.2615 0.377267 -5.63127e-21)
(0.970688 0.27372 -1.30698e-22)
(1.26892 0.088433 -2.45557e-21)
(1.02256 0.289252 0)
(1.34228 0.398415 -2.84368e-20)
(0.670569 -0.0310905 0)
(0.807566 -0.0205874 -5.28271e-21)
(1.07599 -0.00822632 -9.73788e-22)
(0.608077 0.00899095 0)
(1.09989 -0.00594141 0)
(0.52812 0.226106 -7.80994e-20)
(1.25107 -0.0197441 6.70283e-21)
(0.738926 -0.0128277 2.82048e-21)
(0.990171 -0.00317438 0)
(0.545605 -0.00985417 0)
(0.763397 -0.0135524 -4.41491e-21)
(0.554454 -0.00918726 -8.84662e-23)
(1.32562 0.0368928 1.02122e-22)
(0.976634 -0.233589 -3.96227e-21)
(0.731582 0.0139621 -3.5523e-21)
(1.1755 0.0435447 1.06849e-21)
(0.977631 0.314804 1.23126e-22)
(0.565855 0.0099463 9.79433e-21)
(1.20026 0.172948 1.62788e-21)
(1.17195 0.107551 0)
(0.915019 0.429903 0)
(0.506178 0.0181951 0)
(1.12043 -0.00230634 0)
(1.10393 0.0151163 3.01929e-21)
(1.00783 0.200538 0)
(1.24935 0.0331094 0)
(0.980312 0.182555 0)
(1.21581 0.284832 0)
(-0.0275668 -0.0851594 6.43469e-20)
(1.13791 0.126453 -1.72406e-21)
(1.15432 0.283196 0)
(1.17744 0.122671 -7.05398e-21)
(1.17261 0.113057 2.12352e-21)
(1.10435 0.0224532 6.70893e-21)
(1.18858 -0.183632 6.29907e-21)
(1.05418 0.0533971 0)
(0.576291 -0.0144672 9.92314e-21)
(1.04609 0.0389185 1.34087e-20)
(1.25493 -0.186353 0)
(0.979633 0.0582201 -1.45745e-21)
(1.28475 0.112869 5.46393e-21)
(0.585226 -0.358944 3.04962e-21)
(1.11579 -0.0174804 1.31872e-20)
(1.05438 -0.102951 -8.43053e-21)
(1.06669 -0.106537 0)
(1.26638 0.197748 -8.52378e-21)
(1.23809 0.0217926 5.37666e-21)
(0.847462 0.330148 7.86689e-21)
(0.778897 -0.353084 0)
(-0.0168527 -0.0250816 0)
(0.970692 0.103466 -1.83071e-20)
(1.06416 0.0105577 0)
(1.36461 -0.12438 3.11715e-20)
(1.3142 0.018618 9.3341e-23)
(1.0046 0.00593649 8.10346e-21)
(1.27593 0.0411223 -5.23807e-21)
(1.38919 0.159089 1.27403e-19)
(1.04067 -0.338704 4.83545e-20)
(1.1912 -0.0525084 1.38212e-21)
(0.778337 -0.169075 0)
(0.842007 -0.260998 0)
(0.905095 0.00594757 -2.84133e-20)
(1.39967 -0.110907 -5.76291e-20)
(1.07135 -0.164812 0)
(0.920092 0.348272 3.79252e-21)
(0.553853 -0.308733 0)
(0.959723 -0.310099 -8.60362e-21)
(0.914297 0.365335 -5.11322e-21)
(0.803813 0.0215821 -8.04052e-21)
(1.24239 -0.142958 0)
(1.15943 -0.111166 -1.0888e-22)
(1.0474 -0.223334 5.06848e-21)
(0.942004 -0.0276785 1.70509e-20)
(1.11642 -0.170915 -6.19626e-21)
(0.801957 -0.0337308 0)
(1.08855 0.0668797 0)
(1.2845 -0.253347 -7.64921e-21)
(1.02395 -0.196149 8.69122e-21)
(1.27092 0.12169 -8.18504e-21)
(1.11349 -0.10795 -5.30981e-21)
(0.880572 -0.326747 1.32652e-22)
(1.02837 -0.0679806 0)
(0.462474 -0.15077 1.72745e-20)
(1.30176 0.0881797 -8.60446e-21)
(0.795717 0.198725 -1.02543e-20)
(0.384274 -0.564019 -3.22524e-21)
(1.44117 -0.0214769 2.98606e-20)
(0.799548 0.0640535 2.27749e-20)
(1.27283 -0.268442 7.51392e-21)
(1.10666 -0.0595835 1.29071e-21)
(-0.0254119 -0.328258 -1.10781e-20)
(0.998778 -0.00492777 0)
(1.03436 -0.091683 -1.49725e-20)
(0.838372 -0.0363206 1.80255e-20)
(1.08593 -0.026982 6.48045e-21)
(0.962823 0.0987106 -6.48869e-21)
(0.547661 -0.0275316 1.64527e-21)
(1.4652 -0.367583 -1.78445e-20)
(1.02512 0.0585947 0)
(1.02657 0.00745911 2.05797e-21)
(1.09801 0.0172019 -4.68623e-21)
(1.13965 -0.192638 0)
(0.895336 -0.330025 1.39033e-21)
(1.10763 0.0563006 4.88749e-21)
(0.800118 0.336953 -1.36798e-20)
(1.15767 -0.0746656 -1.90256e-21)
(0.948662 -0.365523 -1.00633e-21)
(-0.0347628 -0.269793 0)
(0.396284 -0.313113 6.79142e-21)
(1.06975 -0.012382 0)
(0.778232 -0.269155 -9.72693e-21)
(0.874443 -0.285736 0)
(1.12802 -0.0187378 1.09018e-20)
(1.01688 0.0255823 0)
(1.19599 -0.287984 0)
(1.39785 -0.0315735 2.20774e-20)
(0.811158 -0.106712 0)
(0.867674 0.21981 3.4301e-20)
(1.10884 0.0232997 -4.24545e-23)
(1.00735 0.0312614 5.63173e-21)
(1.37353 -0.032041 -1.77091e-20)
(1.22081 0.119411 -2.95843e-22)
(1.13383 0.162718 -4.92622e-21)
(1.07678 0.0993721 0)
(1.13301 -0.0743344 0)
(1.0942 0.100949 2.16691e-21)
(1.22838 -0.0534383 0)
(1.38933 0.173461 -1.87456e-20)
(0.79723 0.360705 5.04909e-21)
(1.0257 0.0120404 2.71441e-20)
(1.14308 0.0459176 1.26325e-22)
(-0.000766044 -0.120718 0)
(-0.0408983 -0.161831 0)
(0.393339 0.0867035 -7.44656e-20)
(0.0332371 -0.290473 0)
(0.751293 0.428883 -2.87091e-21)
(1.18068 0.0548889 -4.18208e-21)
(1.09149 -0.113722 -7.5025e-21)
(1.21315 -0.223585 -6.06655e-21)
(1.22674 -0.0900706 0)
(0.721298 -0.0168188 -2.82307e-21)
(1.14192 0.0961539 0)
(1.12578 0.0502087 -2.20333e-21)
(0.563113 -0.115508 0)
(0.668141 0.214533 -5.92226e-22)
(1.18383 0.0737368 0)
(1.19067 0.0073086 0)
(0.670727 0.32792 3.15476e-20)
(0.686102 0.102618 5.73154e-22)
(1.12379 0.255412 -4.01735e-21)
(1.00666 0.0167959 -8.84934e-21)
(0.36228 -0.107605 0)
(0.998392 0.267827 -2.75143e-20)
(1.1503 -0.0388087 9.97795e-21)
(1.07559 0.289308 5.04135e-21)
(0.501527 -0.173715 6.88259e-21)
(-0.0397481 -0.307143 -1.30716e-19)
(1.22016 0.0505969 0)
(-0.0283053 0.0150738 0)
(1.22394 -0.0436854 9.88858e-21)
(0.524772 -0.273955 -7.40776e-21)
(1.0872 -0.0594738 -2.69443e-20)
(1.08685 -0.0533394 0)
(0.993097 -0.0380891 4.49912e-21)
(1.41228 -0.301493 2.88008e-20)
(0.67216 -0.0311721 -1.27482e-20)
(1.13211 -0.0611306 -4.8097e-21)
(1.09306 -0.0895802 -5.06713e-22)
(0.762036 -0.334057 1.96521e-20)
(1.10434 -0.171473 -1.02558e-20)
(1.10102 0.0158205 0)
(1.22244 0.0894917 0)
(1.15841 -0.154648 4.98842e-22)
(1.17415 -0.0213223 -9.01795e-21)
(0.856272 -0.19556 -8.05328e-20)
(1.19615 -0.0826777 -7.72554e-21)
(1.13508 0.0257829 1.65729e-20)
(0.512831 -0.00146807 2.15192e-20)
(0.798964 0.448436 -7.44671e-20)
(0.421842 0.208589 4.36445e-20)
(1.1581 0.168759 -6.19325e-21)
(1.28358 -0.504778 1.05575e-20)
(1.13803 0.0929986 -8.24645e-22)
(1.18508 -0.0982487 -5.91161e-22)
(0.959583 -0.253191 8.93169e-20)
(-0.0417308 0.441316 0)
(1.08463 0.17446 -2.08982e-21)
(0.124809 0.117893 -2.09842e-20)
(1.23091 0.00919917 -8.55762e-21)
(1.2524 -0.00829101 5.72413e-21)
(1.07459 0.0196324 0)
(0.601678 -0.344804 0)
(1.14488 -0.0178067 0)
(1.16754 -0.142782 1.14342e-20)
(1.17764 0.0313415 -3.90781e-21)
(1.14042 -0.0709618 1.17843e-21)
(0.487505 0.0172647 0)
(0.64804 0.00634997 0)
(0.649894 0.00246424 7.37864e-23)
(0.459046 -0.0148862 0)
(1.19699 -0.100371 0)
(1.0221 -0.00795725 2.26397e-20)
(0.65699 -0.416125 0)
(0.983599 0.0479928 0)
(1.03253 0.0507213 0)
(1.15632 0.173889 -1.43582e-20)
(1.15344 0.0218644 -7.94524e-21)
(0.955677 -0.0347672 1.2435e-20)
(1.38464 -0.408055 -1.39895e-19)
(0.860988 -0.368604 2.1009e-20)
(1.24401 0.216988 4.70496e-21)
(1.07194 -0.00994897 0)
(0.28052 0.0804629 0)
(-0.00113063 0.322575 0)
(1.16583 -0.0375373 2.45337e-21)
(1.36669 -0.271808 -4.77285e-20)
(1.17425 -0.052053 0)
(1.07618 0.0653172 -1.23543e-20)
(0.632914 0.144123 0)
(1.54389 -0.0933789 1.00277e-19)
(0.404707 0.502732 1.31516e-19)
(0.388587 -0.054575 0)
(1.18963 -0.281791 1.5024e-19)
(0.316846 0.542694 0)
(0.433969 -0.325887 4.16536e-21)
(1.11182 -0.00372969 0)
(0.218825 0.328397 1.37314e-20)
(0.984377 -0.0506486 0)
(1.35251 -0.179136 -1.42647e-20)
(-0.138665 -0.197127 -1.1738e-20)
(1.12344 -0.0409733 3.84759e-21)
(0.96273 0.0214467 -1.77863e-20)
(0.59858 -0.56098 -8.59596e-20)
(1.20991 0.11849 -3.0832e-21)
(1.20137 -0.0952374 8.17603e-22)
(1.15719 0.224364 -2.72464e-20)
(1.22766 -0.355777 -1.21679e-20)
(1.1729 -0.0383159 1.82804e-21)
(-0.136926 0.530763 -3.55863e-20)
(-0.0950678 -0.0644415 -7.04314e-21)
(1.42143 0.155177 5.97818e-21)
(1.05499 -0.0368519 0)
(0.805197 0.135259 9.93447e-21)
(1.48119 -0.439039 1.11176e-19)
(1.10811 -0.0620231 -8.26573e-20)
(1.36671 0.126158 4.12597e-20)
(1.04149 -0.0303064 8.01268e-21)
(1.06625 -0.0511384 9.3951e-21)
(1.06094 -0.00962364 0)
(1.13563 0.0135091 0)
(1.2596 -0.198651 2.23701e-21)
(1.08614 -0.0171292 -4.45474e-21)
(1.29333 -0.374569 1.28202e-20)
(1.11373 0.0540461 -1.0508e-20)
(1.36134 0.123043 -4.15761e-20)
(0.466491 -0.00865316 0)
(1.06552 -0.19534 6.4513e-21)
(1.12922 0.0577047 0)
(1.13675 0.0366965 -9.16853e-21)
(1.13368 0.0231723 0)
(1.035 -0.0058813 1.26272e-20)
(1.22023 0.0454741 1.98884e-21)
(1.02898 -0.148924 0)
(0.0717749 -0.0298958 2.02537e-19)
(0.892705 -0.233283 -7.00603e-20)
(1.39668 0.286097 -3.23552e-20)
(-0.0792198 -0.256827 5.21783e-20)
(1.12831 0.0213059 -1.40179e-22)
(0.850261 -0.0700098 -3.95953e-21)
(-0.115368 -0.245192 -5.44236e-20)
(-0.00362061 -0.157008 -3.04358e-20)
(1.02469 -0.0254941 0)
(-0.0325913 -0.0490977 0)
(1.09824 0.132622 0)
(0.115145 -0.138284 0)
(1.10722 -0.0390477 0)
(0.176884 0.0360353 0)
(1.09654 0.018252 0)
(1.01613 0.00751438 0)
(1.31086 -0.0199609 -3.82339e-21)
(0.623881 -0.307914 -2.80085e-20)
(-0.221868 -0.0670983 0)
(1.32335 -0.0357913 8.60787e-20)
(1.26163 0.208768 8.05207e-23)
(1.23106 0.235553 0)
(-0.0434571 -0.0502548 0)
(1.15168 0.0103772 -7.40684e-21)
(1.16024 -0.00995106 2.50305e-21)
(1.15058 0.368938 0)
(0.425026 -0.103133 8.46112e-20)
(1.11814 0.0577148 2.00598e-21)
(0.275368 -0.0553463 -6.77225e-20)
(-0.0528467 0.0216903 -3.1177e-20)
(-0.0225768 0.0461955 8.12392e-20)
(0.0525713 -0.00391928 -2.72887e-20)
(0.929486 0.118806 3.72644e-21)
(1.1281 0.0179061 -1.93539e-20)
(1.02578 -0.00848472 0)
(1.07259 -0.0538207 -1.86892e-20)
(1.13062 0.0175116 8.53993e-21)
(-0.0114522 -0.123772 1.31319e-19)
(0.981632 -0.0716552 -5.5272e-20)
(0.849425 -1.36341e-05 -1.49962e-20)
(1.24987 0.245564 3.90937e-21)
(0.0937432 -0.0362003 4.50659e-20)
(0.286571 -0.0388863 -6.23553e-20)
(0.569357 -0.0444028 -7.68474e-20)
(1.2212 -0.130024 1.39975e-20)
(-0.064815 -0.0432806 0)
(1.1578 0.0706951 -7.61076e-21)
(1.15936 -0.24792 1.03839e-21)
(1.18954 -0.270212 -1.00135e-21)
(1.21328 0.279371 0)
(1.54284 -0.168033 9.88815e-20)
(1.18273 0.0207065 -6.20417e-21)
(-0.020725 -0.106782 -4.66467e-20)
(0.277341 -0.00803637 0)
(0.939054 0.0457921 -4.5444e-21)
(1.08955 0.0272487 2.86003e-21)
(0.92071 -0.00618566 2.83807e-20)
(1.15984 0.00383006 3.72843e-21)
(1.11019 0.045878 0)
(1.26346 -0.155701 -1.94835e-20)
(0.00784519 -0.268483 -1.08405e-19)
(1.27166 0.0476841 1.92137e-20)
(1.09307 0.160092 -8.5586e-21)
(1.10106 0.0598211 1.20179e-20)
(-0.0478566 -0.0942655 2.14573e-20)
(-0.0101218 -0.022705 -6.22529e-20)
(1.07948 0.323417 0)
(0.507954 0.188144 0)
(1.14083 0.0895685 -2.4191e-20)
(1.04957 0.0655955 1.59936e-20)
(1.11338 0.0498893 0)
(0.985498 0.264487 8.07991e-20)
(0.758911 0.0509437 -1.07384e-20)
(1.09399 0.0996435 0)
(1.09124 0.0650109 0)
(1.13158 0.105777 0)
(1.0672 -0.0660935 0)
(1.12698 0.18808 3.67432e-21)
(-0.0394175 0.0394621 3.40434e-20)
(1.18563 -0.120122 1.2296e-20)
(1.52778 -0.132061 -1.13463e-19)
(1.10762 0.134014 -5.69802e-21)
(-0.124229 0.199331 0)
(1.14051 -0.208999 0)
(0.655757 -0.0161309 -1.86316e-21)
(0.561903 0.000665031 -5.78656e-20)
(0.0872944 0.0312854 4.68861e-20)
(0.962189 0.00943161 -1.40127e-21)
(0.808771 -0.287958 0)
(0.758559 -0.095614 0)
(1.0299 0.0767537 0)
(0.533241 0.502674 1.22566e-20)
(0.000945432 -0.073341 -3.18419e-20)
(1.16558 0.20318 4.63002e-21)
(-0.0254483 -0.203793 8.97583e-20)
(1.20954 -0.0367524 2.6228e-21)
(1.15232 0.293556 5.19706e-20)
(1.11494 -0.0699109 6.9851e-21)
(0.15511 0.297248 4.7273e-20)
(1.20424 0.237761 -2.11706e-21)
(0.924449 -0.186925 0)
(0.56148 0.269508 0)
(0.920701 -0.186713 -5.09833e-22)
(-0.174141 -0.106609 0)
(0.603982 0.028528 3.8951e-21)
(0.642935 -0.446285 -4.55568e-21)
(0.253109 0.0472665 -1.07461e-19)
(1.1406 -0.223062 2.13799e-20)
(1.02485 0.340724 1.07576e-20)
(0.983679 0.00697536 0)
(1.02301 0.257086 3.74785e-22)
(0.666728 0.0121052 0)
(1.02557 -0.0205721 -9.12448e-23)
(0.532401 -0.0150102 0)
(0.71479 0.0995215 0)
(0.996954 -0.0261753 -9.62711e-21)
(1.40749 0.150186 -6.45703e-21)
(1.19396 -0.0679113 5.84377e-22)
(0.551461 -0.524659 0)
(1.1385 -0.141789 5.80048e-22)
(0.79751 0.349113 7.36454e-20)
(-0.0231075 0.0171164 1.14969e-21)
(1.2317 -0.00420733 1.94464e-21)
(1.21534 0.0371315 -6.67569e-22)
(1.30411 -0.0458251 7.91502e-22)
(0.81062 0.000610183 -8.11494e-21)
(0.080324 0.0142881 3.66778e-20)
(-0.00982702 -0.207013 -7.25833e-20)
(-0.127553 0.00389703 0)
(-0.261041 0.156469 0)
(1.24762 -0.637606 4.14132e-20)
(1.14837 -0.0345412 -1.7838e-21)
(0.9509 -0.490414 -5.89801e-20)
(1.06368 -0.124102 1.48901e-20)
(1.35235 0.176837 2.81607e-20)
(0.60008 0.414762 0)
(0.240555 0.395533 -1.2281e-19)
(0.587499 0.446273 0)
(-0.147175 0.0332701 0)
(1.16382 -0.489632 0)
(-0.0319574 -0.199851 3.64278e-22)
(1.15979 0.0254131 0)
(0.48017 -0.0979758 1.78214e-20)
(0.582634 0.667553 1.95491e-20)
(1.07518 -0.0129707 -1.6573e-20)
(-0.0169386 -0.229494 -1.49742e-19)
(0.371032 -0.393444 1.41854e-20)
(0.46085 0.14395 -1.27761e-20)
(1.1942 0.0843766 0)
(1.3474 0.339715 2.86534e-20)
(1.20722 0.544729 1.50941e-21)
(0.195644 -0.0343116 -2.20739e-20)
(1.00601 0.0771338 2.67396e-20)
(0.976339 -0.0317991 2.39251e-21)
(0.928042 0.00783649 -3.29205e-22)
(-0.00448436 -0.0476118 0)
(0.675119 -0.696178 -2.62601e-20)
(0.614122 0.165935 0)
(0.29639 -0.171804 0)
(-0.0328409 -0.0122113 0)
(0.0854498 -0.254679 -5.85684e-20)
(1.23695 0.00219316 -2.27611e-21)
(-0.0290034 -0.041604 0)
(-0.0129756 -0.0803501 0)
(1.42573 0.0950301 -3.80037e-20)
(-0.0374319 -0.148537 6.71629e-20)
(0.111711 0.213701 -1.04376e-19)
(0.422156 -0.0021013 0)
(0.177166 -0.311074 7.79783e-20)
(1.19124 -0.244816 0)
(1.01784 -0.294138 0)
(0.0801181 -0.200208 1.43972e-19)
(1.14132 0.0380678 -3.62388e-22)
(1.10718 0.319091 3.10271e-20)
(0.283462 0.0229851 4.46749e-20)
(0.423328 -0.55211 -2.61746e-20)
(1.24322 0.0680255 0)
(1.22511 0.167256 2.03942e-20)
(1.22126 0.193526 -2.50458e-20)
(0.101311 0.0594712 -2.36551e-20)
(-0.0593288 -0.245603 0)
(1.07618 -0.0442145 -1.85609e-20)
(1.11615 -0.223143 -1.06592e-20)
(0.601356 -0.44373 0)
(1.10186 -0.154877 -2.25237e-20)
(-0.224482 0.104245 0)
(0.580432 -0.0139067 0)
(1.28401 0.147492 1.945e-20)
(1.02836 0.0474945 7.98885e-22)
(1.06143 0.71871 -2.19951e-20)
(0.23642 -0.409474 1.18916e-19)
(1.16478 0.0486853 2.52371e-21)
(1.19137 0.071662 -4.26951e-21)
(-0.0309014 -0.106764 3.02473e-20)
(0.776574 0.716156 3.56255e-20)
(1.405 -0.353364 -1.55242e-20)
(0.434894 0.592344 9.54884e-20)
(1.05028 0.00207351 0)
(0.0134126 0.0896823 -2.70246e-21)
(0.953565 -0.669158 4.10898e-21)
(0.893894 0.631726 -1.11267e-20)
(0.65198 -0.0240929 -8.36941e-20)
(1.13731 -0.00109067 -1.54339e-20)
(1.07766 -0.0727412 5.96077e-21)
(1.1355 0.00729593 7.93123e-21)
(1.1011 0.115333 7.63943e-21)
(1.13738 -0.103809 0)
(0.924165 0.0858315 1.35736e-20)
(0.887828 0.454299 0)
(1.12607 -0.090019 -9.36415e-21)
(1.15904 0.108107 5.26728e-21)
(0.761039 0.262212 0)
(0.536906 0.10775 1.0245e-19)
(0.880578 0.688723 -1.40861e-21)
(1.06044 0.271516 -2.38284e-20)
(1.03778 -0.00126796 1.1781e-20)
(0.408932 0.455403 0)
(1.35187 -0.473607 0)
(0.594111 0.232812 2.36194e-21)
(1.25727 0.491321 0)
(-0.00381237 0.00816662 -4.16785e-20)
(1.32921 -0.41216 -2.73911e-20)
(1.15006 0.486486 0)
(0.454034 0.17768 1.72539e-19)
(1.12629 0.308258 -1.11946e-19)
(0.847716 -0.677386 -2.05779e-20)
(1.11871 0.0026186 4.61128e-21)
(0.928989 0.144276 7.66753e-20)
(1.07704 0.156672 5.98912e-20)
(1.05931 0.685749 2.91919e-21)
(0.935207 -0.465175 5.73385e-20)
(1.38204 0.177686 2.40183e-20)
(1.1255 0.00213232 -2.41526e-21)
(0.0130115 -0.0992358 1.22788e-19)
(1.13335 -0.731411 4.80533e-20)
(0.909665 -0.756188 3.84005e-20)
(0.263651 -0.385985 0)
(0.977406 -0.157697 6.7673e-20)
(0.357959 0.266977 -4.48027e-19)
(0.0716149 -0.0315225 4.58575e-20)
(0.254807 -0.0269858 2.05265e-20)
(0.773146 -0.0566273 -9.73324e-20)
(1.06467 0.505533 0)
(0.980419 0.205024 8.4948e-20)
(1.08145 0.0258614 5.08842e-21)
(0.897496 0.415545 -9.49476e-20)
(0.826375 -0.765043 -5.14124e-21)
(0.929403 0.00381551 -4.84674e-20)
(0.965445 0.463567 0)
(1.03897 -0.175601 1.58522e-20)
(1.43789 -0.516711 1.84263e-20)
(1.25881 -0.338512 1.32469e-20)
(-0.281738 0.277363 3.28856e-20)
(0.197989 -0.0462372 -1.81845e-20)
(0.990404 -0.129199 -5.72234e-20)
(0.342721 0.493994 0)
(0.916916 -0.00623464 3.8617e-20)
(1.14887 0.623049 6.83385e-20)
(0.099902 -0.180807 2.32954e-19)
(-0.0638188 -0.168152 -2.5344e-20)
(-0.0746309 -0.302336 5.54021e-20)
(1.09597 0.0214596 -7.10241e-21)
(1.20305 -0.48009 0)
(1.11303 -0.766006 -2.46723e-20)
(0.692422 0.318709 0)
(0.225002 -0.146234 -1.70807e-19)
(1.16673 0.0274441 5.08502e-21)
(-0.0390159 -0.280733 -4.13587e-20)
(1.04702 0.0525676 -1.1202e-20)
(0.132792 -0.00235804 5.42812e-20)
(0.867971 0.113381 0)
(1.29931 0.139031 4.06427e-20)
(0.0263539 -0.0578488 -2.33097e-20)
(-0.27491 0.141814 -3.90599e-20)
(-0.208426 0.223029 0)
(0.105711 -0.0223768 0)
(1.25181 0.0920844 -1.43993e-20)
(0.447083 -0.00874851 2.02116e-19)
(1.32821 -0.752213 -4.6319e-20)
(0.863539 0.267092 3.49492e-20)
(1.05381 0.2326 -3.45513e-20)
(0.388137 -0.60695 1.31508e-19)
(1.51973 0.258496 -2.87811e-20)
(0.141966 -0.143118 4.81015e-20)
(0.204857 0.263749 2.00126e-19)
(0.159708 -0.0776244 -1.78865e-19)
(0.970639 -0.517363 -4.00519e-20)
(1.43895 0.36962 2.97579e-20)
(0.598821 -0.719974 4.25656e-20)
(1.10746 -0.0618576 -6.3377e-21)
(0.588385 0.00943118 9.32307e-20)
(1.18866 0.278425 -4.60036e-20)
(0.651289 0.610018 -4.40287e-20)
(1.41129 -0.642426 0)
(1.41146 0.504507 3.12664e-20)
(1.09137 -0.549429 -1.42021e-20)
(1.37655 0.589963 -8.38591e-20)
(1.11775 0.0241954 0)
(-0.0372848 -0.035401 0)
(1.236 0.709471 0)
(1.07461 -0.116664 -1.34163e-20)
(0.763219 -0.332523 -1.9995e-19)
(0.481698 -0.120038 0)
(-0.0565044 -0.0838118 -2.5669e-20)
(1.02924 -0.24905 8.92198e-20)
(-0.157069 0.288724 0)
(0.323505 -0.0172602 1.22825e-20)
(1.0974 0.0185925 0)
(1.40734 0.253965 0)
(1.12717 0.00349115 -4.93802e-21)
(0.371603 -0.337203 0)
(1.00701 0.136763 4.12936e-20)
(1.30308 0.270487 0)
(-0.0942857 -0.15249 1.30415e-21)
(0.83127 -0.428406 0)
(1.49182 0.32194 -4.39955e-20)
(1.21931 0.344813 4.91445e-21)
(0.82713 0.615443 -1.05442e-20)
(0.998879 0.147608 -9.38281e-20)
(0.971623 -0.214621 -4.3796e-20)
(1.43225 0.273813 2.57284e-20)
(0.953593 0.0253697 0)
(0.567392 -0.105045 0)
)
;

boundaryField
{
    FrontBack
    {
        type            empty;
    }
    Top
    {
        type            noSlip;
    }
    In
    {
        type            fixedValue;
        value           uniform (1 0 0);
    }
    Bottom
    {
        type            noSlip;
    }
    Out
    {
        type            zeroGradient;
    }
    circle
    {
        type            noSlip;
    }
}


// ************************************************************************* //
