/*--------------------------------*- C++ -*----------------------------------*\
| =========                 |                                                 |
| \\      /  F ield         | OpenFOAM: The Open Source CFD Toolbox           |
|  \\    /   O peration     | Version:  2412                                  |
|   \\  /    A nd           | Website:  www.openfoam.com                      |
|    \\/     M anipulation  |                                                 |
\*---------------------------------------------------------------------------*/
FoamFile
{
    version     2.0;
    format      ascii;
    arch        "LSB;label=32;scalar=64";
    class       volScalarField;
    location    "596";
    object      yPlus;
}
// * * * * * * * * * * * * * * * * * * * * * * * * * * * * * * * * * * * * * //

dimensions      [0 0 0 0 0 0 0];

internalField   uniform 0;

boundaryField
{
    FrontBack
    {
        type            empty;
    }
    Top
    {
        type            calculated;
        value           nonuniform List<scalar> 
15
(
142.2857427734278
133.5676601168508
138.0608779149435
144.3903240193288
159.7596231919233
131.3663083137467
140.1203939270435
135.3424222009455
153.4522809054654
135.7247479261111
136.0807130092725
136.7778249505993
125.257094371113
132.9103347508192
123.9569116753218
)
;
    }
    In
    {
        type            calculated;
        value           uniform 0;
    }
    Bottom
    {
        type            calculated;
        value           nonuniform List<scalar> 
15
(
155.5682288980417
158.1168878996386
141.1004802561395
142.0584366813386
141.1846029712259
148.4432274490971
142.7114673224013
143.1534782258624
143.4211509463891
134.0665955061598
125.7327096187613
141.5620431685252
122.4069552578296
123.4857434670777
124.1371221122144
)
;
    }
    Out
    {
        type            calculated;
        value           uniform 0;
    }
    circle
    {
        type            calculated;
        value           nonuniform List<scalar> 
32
(
55.98450186528905
21.80063543074304
65.19868562992747
26.29160856693239
20.39296769896
56.26959012207622
56.58084287753027
23.78153545693802
22.09900464697042
65.43915762092415
39.76791477563972
62.88700659102709
50.67940853369889
17.80829772327628
22.56966730538045
18.44198204004668
39.37972525847194
59.8546522802598
61.09721866849344
25.83241276155097
65.82350228483705
63.72908084151859
63.12755888462659
59.83176840921224
64.19109804525873
46.06135391884164
66.48968770538296
32.20406789949389
37.86253904319132
55.6516511110144
21.33546631023038
43.04990553951746
)
;
    }
}


// ************************************************************************* //
