/*--------------------------------*- C++ -*----------------------------------*\
| =========                 |                                                 |
| \\      /  F ield         | OpenFOAM: The Open Source CFD Toolbox           |
|  \\    /   O peration     | Version:  2412                                  |
|   \\  /    A nd           | Website:  www.openfoam.com                      |
|    \\/     M anipulation  |                                                 |
\*---------------------------------------------------------------------------*/
FoamFile
{
    version     2.0;
    format      ascii;
    arch        "LSB;label=32;scalar=64";
    class       volScalarField;
    location    "1842.5";
    object      p;
}
// * * * * * * * * * * * * * * * * * * * * * * * * * * * * * * * * * * * * * //

dimensions      [0 2 -2 0 0 0 0];

internalField   nonuniform List<scalar> 
808
(
-0.03367029078753891
0.04431017358110324
-0.01167163689115499
0.03729906339961717
-0.2972097476411918
-0.05520498834682673
-0.01516819334280961
-0.02388132190437808
-0.1953967284751994
-0.08311182825040729
-0.009783118553803847
-0.2523307751032943
-0.03060562516749202
-0.01360823553995176
-0.1246153565983503
-0.01407812213218681
-0.1424487283277482
-0.01364218046253217
-0.01297485077042008
-0.05512966960041359
-0.007143348885379532
0.1169488569002527
-0.06276882360249414
-0.07096968822292447
0.1746049152909328
-0.09986212966984781
-0.1512276262547156
-0.02041812923211307
-0.01756078696506693
-0.02584868040195758
-0.02029107663519693
-0.05786883443234688
-0.02292494667447638
-0.01693502806773825
-0.09851843215368837
0.3450347890042587
-0.03945518507282661
-0.01672358978784237
-0.0227079352829931
-0.02655633559559762
-0.08940232710595999
-0.12547165270405
-0.05219844093496463
-0.02100800420810535
-0.05550346995647299
-0.04186105737764656
-0.01213896674819143
-0.1829239081076478
-0.02677438163033485
-0.2025076289379884
-0.01664176362498935
-0.06651715568429778
-0.0611250575794942
-0.01522092006266243
-0.1945243672595099
-0.02807902150485412
-0.01093876836320092
-0.01533501320033963
-0.0994065786992897
-0.03942401516792702
-0.1013560010877826
-0.1248852164713077
-0.01404743026726993
-0.1268300085880636
-0.01716571042914261
-0.0519952529325661
-0.1615177937840468
-0.03552768132783125
-0.01523754362793867
-0.438246842145485
-0.02640543725770637
-0.3003491175080626
-0.02152152616643232
-0.0206376518546473
-0.06323766216917291
-0.01789615121651924
-0.04216073108510532
-0.3661831820863426
-0.03606685095415785
0.03904181562483269
-0.09210872709697103
-0.01695753797553845
0.0570734337657087
0.04574684398290585
-0.0171823564040814
-0.05176352416534502
-0.5395181375660717
-0.2277328391178652
-0.05164909681041778
-0.1132269210312697
-0.05596318710856549
-0.1313107778496922
0.03876450277286406
-0.02597687537302436
-0.06222176870500058
-0.1161295705554819
-0.03834193447914228
-0.05237860332716469
-0.1149401584898254
-0.1362787718010491
-0.05266730889377467
-0.04695120255648021
-0.05386465587934296
-0.04441518694955482
-0.0570620873278626
-0.07498095513486375
-0.04118405438144077
-0.01113263161646381
-0.03998356398406297
-0.1227904601478791
-0.05006407841668334
0.08156459663014415
-0.0421220711756178
-0.008202296188634038
-0.02769825759106264
0.1809400265159927
-0.03839477272131533
-0.2668739192859856
-0.02050556347786106
-0.052976469835369
-0.03307123763268061
-0.04904117100368308
0.01384224308102055
-0.04802824847114929
-0.03611945237642464
-0.2190845824047795
-0.04040878250990341
-0.004818402689753544
-0.07504610494990416
-0.0692370427367745
-0.1424845217241786
-0.02094237316366386
-0.07447589503302998
-0.04365153223366679
-0.02286138339435444
-0.01524717684492074
-0.006325168042467918
-0.007296562076726244
-0.05211281336376203
-0.04925725731223073
-0.2184034072247763
-0.05583568938583674
-0.00835083514090498
-0.02209006118958197
-0.148250855776005
-0.002791912888615547
-0.07559299545349844
-0.02127413875214993
-0.0007368375921079564
-0.01107795283318508
-0.03311389522726287
0.09344337101955763
-0.03821049429190309
0.2516740829671006
-0.2685354242803358
-0.1331400617299101
-0.03763173540374356
-0.09090743706754822
-0.009416536902852185
-0.1141066745525374
-0.1758827224092689
-0.2199450109691941
-0.1755966522894565
0.05676484045969744
-0.06336105955402074
-0.02046248189957076
-0.06644961351106074
-0.1649417341379626
-0.02324896667595425
-0.01839047969481547
-0.05136840608762898
-0.02026475533218944
-0.007114270858964241
-0.1063367945283458
-0.02320180707993053
-0.0444507872400916
-0.0705359715140544
-0.1596409871560501
-0.03325669257221511
-0.3873225219115003
-0.01786817345237716
-0.22678789419197
-0.04378814543291359
0.03282020190008625
-0.1065089617207442
-0.01605203864762541
-0.04284926200443593
-0.1035182088635638
-0.01770171858792703
-0.09468909093293568
-0.2076712392375896
-0.07116279951354815
-0.0239078871835485
-0.04741333382694958
-0.04229384039525647
-0.2043774866480733
-0.02213817984979086
-0.01913681403797769
-0.01127262676988281
-0.05681297728003557
-0.05003017613957421
-0.02240830673932042
-0.02076717748252728
-0.2389344316801561
0.1270278321036308
-0.2061320595374987
-0.1928767693655127
-0.01177985564854808
-0.01134626271820584
-0.06676562328968187
-0.01030715946243617
-0.5006864242129799
-0.1204764033891971
-0.01929603317630309
1.964833084868339e-05
-0.02386315825142592
-0.2793088200958475
-0.2795645218723519
-0.007143838626000804
-0.01714122324166276
-0.001150659383251676
-0.3505739538919362
-0.02838421970491043
-0.02920984173039545
-0.01254971932275229
-0.01958832391337948
0.0490904190562614
-0.1129528122989952
-0.0143156666277077
-0.02085273224656076
-0.04496959639224246
-0.01827755887218898
-0.01622261205061107
-0.0234810935540951
-0.06784501099759387
-0.01131959442705215
-0.01900231039458344
-0.008680104771675036
-0.0007789221846914436
-0.029455999375177
-0.001853606141784246
-0.002098639182558401
-0.005761821998573282
-0.02557602538714969
-0.007968555574026637
0.001469769109616608
-0.004285079505928564
0.001403299758451156
0.002509801603700106
-0.008976963586331505
-0.1377883413430293
-0.002953532966722548
-0.001296005490817605
-0.04803285689621931
-0.02157267153899909
-0.02401128529085324
-0.01425475600167264
-0.006204217151654357
-0.02094916026248105
-0.03968537204286347
-0.01437703850003324
-0.01289669350214443
-0.01135141904403653
0.008853928410057508
-0.01004913116748007
-0.01200006053511958
-0.01154757382946075
-0.0104694994849047
-0.01038390981028536
-0.01216438097954519
-0.01381671519188551
-0.3003415185054805
0.05915583510344131
-0.01586564917666052
-0.0150263587464773
-0.01280169389533603
-0.01179807263821471
-0.00865107075891783
-0.09656836419535818
0.01281178482175924
-0.0137215163132975
-0.0139802879937256
-0.01057846704403927
-0.05120282675201991
-0.01003159602104245
-0.01352286845875028
-0.01027752592265225
-0.0004225343395938122
-0.01116922233460068
-0.01225072130393172
-0.02446238774347808
-0.01551993467213567
-0.01196412924610737
-0.01356818914450201
-0.007638455062453724
-0.0120798225317681
-0.01165480653006994
-0.05929513909563364
-0.01350269265320472
-0.01141145513528419
-0.008986579140717663
-0.01508305908325201
-0.01364823267221758
-0.0156104670787606
-1.364851243788338
-0.1001054786374528
-0.01316080231572743
0.02653063077494675
-0.1612401573270937
-0.09143756484774555
-0.01212227892090998
-0.0140753925201149
-0.233671695982295
-0.0285134958155451
-0.01797837049223838
-0.01184080809687068
-0.02002622447598722
-0.01011933096916602
-0.03078767067834817
-0.4087078489876865
-0.01238928757540622
-0.01410138000044572
-0.004609297468929812
-0.01133517423870755
-0.01076540454057867
-0.01402076354225319
-0.006512395870820484
-0.02676499790861224
-0.01176146344748307
-0.1716452565460549
0.01923543054843908
-0.007400455467077603
0.00423129829642325
0.01342957279419738
-0.04848324954124501
0.02797966640355891
-0.01339065388425918
-0.1322089306690409
0.2828885493495001
-0.007542480947861447
-0.01367368626299261
-0.008104645690749873
-0.0326045407101424
-0.1251501639694706
-0.01219161717343127
-0.01206346304309341
-0.01694794404118482
-0.01352005356731614
-0.04145376798227937
-0.2192031032121352
-0.009851527809896251
-0.04319500728059689
-0.03888690445557181
-0.1755254817778182
-0.1576556037278611
-0.1360597792921046
-0.2256255408282842
-0.005022993874865739
-0.02087755907479649
-0.01441543543289121
-0.01316902324413327
-0.03350070683237848
-0.02451746598800693
-0.01416823436325133
-0.01487507386514353
-1.069371902726587
-0.005755506698113678
-0.01320389530282877
-0.01825271793808717
-0.02470128069847193
0.0002898618879324352
-0.01490968376336537
-0.02560174404561586
-0.1489173477997451
-0.01361595782499971
-0.02171296066151577
-0.0140569303056916
-0.001540065960389816
-0.1776609288592945
-0.01268472450319235
-0.1481578263196316
-0.0157317513172731
0.002614089434582437
-0.01439488312749403
-0.02382314904126712
-0.01576125559981799
0.005331201143030579
-0.2703168714335044
-0.02622783296997724
-0.01627884553170887
-0.00567918444186721
-0.01027682534694692
-0.02962383877931873
-0.01399094890661925
-0.02071656895730706
-0.02080362804513292
0.01433908300457509
-0.09793274758700181
-0.02144547641871966
0.00941362097504984
-0.05695233059055356
0.1770027795015999
-0.1059150510064811
-0.3155086918979196
-0.03078409675331946
-0.02574456416948663
0.1514789915609518
0.07848730100992735
-0.003753843146952991
0.05074636157141731
-0.01516002767957876
-0.01377985861003403
0.002539569440888426
0.008649642638206695
-0.06505398446462905
-0.005578843149873789
-0.05628498449196444
-0.02256874860180141
-0.01572429686069938
-0.03653443059234342
-0.03291674220879651
-0.00666240603290211
-0.01499201100642513
-0.03694927204880629
0.03496395090105135
-0.03876650118090978
-0.01396843323306332
-0.119067872900562
-0.03143135109044896
-0.03954686936308636
-0.6686220070409873
0.01934839345623234
-0.01027413687489953
-0.005879673400746366
0.1681847751825589
-0.09237296545286007
-0.03552911585266595
-0.2423085403148581
-0.01599898937512727
-0.01624442087843386
0.07756766274507407
-0.1799277001700368
-0.2353608326980378
-0.1903188724225585
-0.6770803550299348
0.002624909464143677
-0.01802951551211381
-0.01657886025717675
-0.08740912612431977
0.1187095276744833
-0.0210149928150749
-0.2282981130427957
-0.03582075595312273
-0.006792765649878841
0.2810471152944597
-0.01107249556873217
-0.09107655314859994
-0.1526053835059655
-0.003441008637363111
-0.04122418347055149
-0.05240918018308146
-0.1998432125919172
-0.007998576342610855
-0.0400329154479286
-0.002773289865417106
-0.543697450669568
-0.1929748758151608
-0.178693171236001
-0.02316445976979313
-0.008205434107184549
-0.06171782359453436
-0.05666286694512865
-0.01394179401538985
-0.06920950077863475
0.004905742002621796
-0.01785835973534035
-0.09335288378013147
-0.2749618606010695
-0.007998423961869961
-0.02567104952913535
-0.02156352657591756
-0.07594859116144168
-0.08910169656794759
-0.08940046436320297
-0.01201968519721332
-0.9123195295141898
0.1623983259592138
-0.07964764714233945
-0.2484303097382692
-0.0415268822879484
-0.00987301251202184
-0.254764430449949
-0.1967118077759149
-0.03101169346960021
-0.1230196181896642
-0.01952984192834134
0.5638338282137629
-0.02475934935260681
-0.2205490866271928
-0.02526359955852708
-0.005237471589455964
-0.01149518720511984
-1.241858857477503
-0.1795363357315707
-0.2270645590701588
0.0052228893595148
-0.03894641833386505
-0.2443022526540103
-0.06676763151635369
-0.05187055059182743
-0.1462554178383115
-0.1801441475084613
-0.06957076613988609
-1.21553261676146
-0.1508259939463329
-0.5357475795771984
0.07993836162420066
-0.005950273167113649
-0.02122854860619316
-0.04433828231062675
-0.03824405450337946
-0.0281130110465506
-0.1285750192206086
0.08154786795364397
-0.002224068453135592
-0.009988342646514964
-0.5680807840441943
-0.8516115953715353
-0.1769885229676313
-0.008118932709688576
-0.1321557096710493
0.0006547399911420496
-0.0001282346049534175
-0.002342885327386347
-0.06076710604846922
-0.2336462768699247
-0.01326664498479845
-0.1183665877597232
-0.1579317549892355
-0.01315074931281222
-0.03474048383298238
0.02762563495169739
-0.05845081096985881
-0.07163151905048945
-0.4946873630716657
-0.2116988847123295
-0.07932745919761523
-0.07521109526507676
-0.01952481664080017
-0.1199623870609182
-0.1579255457314468
-0.07767885549389296
0.02328632620768682
-0.08674109452985568
-0.05002516798260738
-0.01487926267363023
-0.1087271348024092
-0.2791286316754899
-0.05911336399326308
-0.01812516505983896
-0.0005118108350408102
-0.01004077600451008
-0.01074317228610631
-0.2284017196657103
-0.01499455913728651
-0.2167751353679634
-0.01033551184876017
-0.07337730322434839
-0.004432789318208914
-0.02326304579225437
-0.3889435140364779
-0.9263134735163914
-0.01130095206724741
-1.038457696066917
-0.6037681343136302
-0.01045327983959549
-0.6651045182576986
-0.1860966937246455
-0.00586503532051953
-0.1263223416464129
-0.01667580047735344
-0.1252144695888022
-0.06502767339228124
-0.08158558138588171
-0.005120744605417846
-0.002349793056503526
-1.349663727722813
-0.01150934805280481
-0.1782308971604449
0.0008667659358571236
-1.002035900730624
-1.249375488667076
-0.07847278887225545
0.01626689139952489
0.1646437815660214
-0.004499607328094632
-0.02302487281735266
-0.004206172457017057
-0.2443954331785186
0.3655796539093226
-0.04187714296222956
-0.2139628344570651
-0.01498623777852998
-0.647112434472304
-0.07234668523046445
0.1883121950349235
-0.2963952276444105
-0.05051949620595045
-0.06995494846915795
-0.01583539263450034
-0.02156703132880525
-0.5899269435364375
-0.150036324676347
-0.09036443990191835
-0.1221342116926523
-0.5488687264397928
-0.04501251233595738
-0.8989857109618652
0.0006219459909818246
-0.2430542573257657
-1.059079632656724
0.1626372887519739
0.2886561997859114
-0.1797194229140846
-0.1882624718208266
-0.2158172628485046
-0.06625673303851097
0.02320795434046741
0.04292265945113415
0.003287725622169251
-0.1621032508156566
0.02631074572051007
-1.369816044215093
-0.08678671140130804
-0.4796727830794848
-0.335953148212682
-0.2136711949706949
-0.1803986373534803
-0.01692543839267108
-0.01543369824606434
-0.1012942077427355
0.17530005034839
0.3841561374073655
-0.1991786027146437
-0.1452099719832393
-0.2193584229216416
-0.06336599881183935
-0.1553172468101608
-0.1693770548647548
-0.1274588727497652
-0.1196130574149708
0.4628467632542457
-0.2788403677289562
0.4344334890118601
-0.5907801391789722
0.07328084063978006
-0.1931624428980715
-0.06752270961423315
-0.07773816885236229
-0.8928823956075789
-0.2135365421763186
-0.1935364446339949
-0.3533521286918351
-0.4651966699462769
0.5698159425997266
-0.2151144606484579
0.002600126781100609
-0.06745145948584062
0.3463982144562781
-0.03502334548779525
-0.1293816449121092
-0.1822736274617133
-0.0635585097277991
-0.01646210197967102
-0.2003725102117642
0.1989083342720735
-0.01287568910460016
-0.09825642591895976
-0.1758431565136825
-0.321957936699511
-0.308150967074713
-0.07289790222120561
-0.009972583417674118
-0.08266091896423779
-0.6467327479986903
-0.6779611537251183
-0.3296322246889521
-0.05885886922011128
-0.04962315654211522
-0.0247609701196681
-0.06975182773358579
-0.05513902846178807
-0.3661434963598883
-0.9668107131639151
-0.009913006832543718
-0.08491059507459872
-1.148969317663074
-1.044380725868082
-0.1102958273375688
-0.04146686824715412
-0.06796633546996823
0.3876717306628747
-0.3388089336067918
-0.048948331548608
-0.6064055260072418
-0.1284727415817421
-0.2483399956631547
-0.2149850515507099
0.4730128551313488
-0.6369694280415616
0.07775463595973588
-0.02871372950643149
-0.568372046577467
-0.05414908435332592
-0.3676554533341353
0.1105519698217177
-0.1931780558027257
-0.06110990556737433
-0.1329260188958819
-0.3559232046452711
-0.08269271817925249
0.5163564600794642
0.08717066492934722
0.4688948863247519
-0.1037964797957056
-0.2060872834916015
-0.5126110267651374
-0.1354908862639454
0.02445859736091516
-0.05522922224565
0.09914276556874534
-0.3003482128184221
0.2365243472195816
0.0046213893637371
-0.002792755357656021
-0.5068891104970685
-0.1815767605983888
-0.08528219007097972
0.5816145321029317
0.1397854202863172
0.3417091868771943
0.2252821260419632
-0.5686373034362212
-0.1919343433239171
-0.225669630167454
-0.2206435545359066
-0.06190226158226638
-0.686505414403505
-0.1883794005992907
0.3039638145285842
-0.1887722480636261
-0.01146689816918226
-0.1622767092044962
-0.01152529012874056
-0.1646420080519118
-0.4446982287256957
-0.07582452175009979
-0.2073398436283549
-0.07238742947563113
-0.09392027192716154
-0.1391115578453066
-0.07205941270443807
-0.4450876415130237
-0.4088675095451681
-0.02302552993678446
-0.07737512454267097
0.3312617509980727
-0.251405583113233
-0.17643330300446
0.5234037456302821
-0.1996928086474301
0.0216558285063469
-0.4554360781493628
0.05242098851979815
-0.0596819552649908
-0.1393164923760545
-0.5917629595253128
0.1572700727396613
-0.5737249485893344
-0.5414179417503735
-0.1010291239083381
-0.5140909618103369
-0.03636154022883618
-0.1459415297348923
-0.4163167101758568
-0.016081669490269
0.2888482594522184
0.4900975227155936
-0.1644296966021694
-0.005534443694173876
-0.08676627539075758
0.5250142250433809
-0.03240474904787446
-0.44527791181749
-0.03204827126494227
0.4624167084928154
-0.01709806511380243
-0.5504938409971493
-0.2476083517676229
0.1786465167215342
-0.3150583446083604
-0.1824429093911532
0.04691595555845662
0.0315606677567743
0.05661006336291038
-0.3039072078926704
-0.1604981452896399
0.4128689130603617
)
;

boundaryField
{
    FrontBack
    {
        type            empty;
    }
    Top
    {
        type            zeroGradient;
    }
    In
    {
        type            zeroGradient;
    }
    Bottom
    {
        type            zeroGradient;
    }
    Out
    {
        type            fixedValue;
        value           uniform 0;
    }
    circle
    {
        type            zeroGradient;
    }
}


// ************************************************************************* //
