/*--------------------------------*- C++ -*----------------------------------*\
| =========                 |                                                 |
| \\      /  F ield         | OpenFOAM: The Open Source CFD Toolbox           |
|  \\    /   O peration     | Version:  2412                                  |
|   \\  /    A nd           | Website:  www.openfoam.com                      |
|    \\/     M anipulation  |                                                 |
\*---------------------------------------------------------------------------*/
FoamFile
{
    version     2.0;
    format      ascii;
    arch        "LSB;label=32;scalar=64";
    class       volVectorField;
    location    "16.6";
    object      U;
}
// * * * * * * * * * * * * * * * * * * * * * * * * * * * * * * * * * * * * * //

dimensions      [0 1 -1 0 0 0 0];

internalField   nonuniform List<vector> 
808
(
(0.89159 -0.0109177 0)
(1.02645 -0.0346446 0)
(1.20454 0.0870711 0)
(1.07082 0.0101144 -2.34029e-21)
(1.4679 -0.298421 0)
(0.961168 -0.0297059 0)
(1.14924 -0.0529659 7.3685e-22)
(1.10907 -0.0310559 0)
(1.34408 -0.234832 2.203e-20)
(1.23423 -0.100945 -7.45447e-21)
(1.17594 -0.11436 4.42221e-21)
(1.37146 -0.267682 0)
(0.99961 -0.037068 0)
(0.740441 -0.0258568 0)
(0.971048 0.0305925 2.04528e-20)
(1.07618 -0.0270006 0)
(0.862575 0.0343169 -6.6205e-21)
(0.996753 -0.0310606 -2.98648e-23)
(1.23108 0.0700609 0)
(1.12383 0.000954382 0)
(1.23685 -0.118489 -6.17208e-21)
(0.929713 0.125326 1.08679e-19)
(1.07499 0.0121017 -1.06158e-20)
(1.18141 -0.0413579 0)
(0.952823 0.186853 0)
(1.31051 0.0387227 -3.32696e-20)
(1.27648 -0.187434 5.89997e-21)
(0.962884 -0.0173681 -3.74713e-22)
(1.07545 -0.0205701 0)
(1.0391 0.048682 -2.00104e-22)
(0.991495 -0.0225392 8.70632e-25)
(1.12824 -0.0163292 0)
(1.01405 0.0377157 0)
(1.06943 -0.0172879 4.11693e-22)
(1.30627 -0.091421 8.21044e-21)
(0.740782 -0.111044 1.1149e-19)
(0.874582 -0.0286278 -1.73836e-21)
(1.0085 0.0376492 5.67207e-22)
(1.18979 0.0447227 -8.35953e-22)
(1.0732 0.01579 0)
(1.26849 -0.0807857 -1.62436e-20)
(1.27625 -0.143591 0)
(1.00597 0.00176642 -5.16111e-21)
(1.11573 -0.0533212 4.10284e-21)
(1.18383 -0.045198 0)
(1.01054 0.0166568 -1.70811e-20)
(0.987832 0.037462 6.57423e-22)
(1.24921 -0.258536 1.15665e-22)
(1.1702 0.0514154 -7.68666e-22)
(1.39926 -0.200277 -3.18255e-20)
(1.14582 -0.0593152 -8.18895e-22)
(1.15223 -0.0785899 0)
(1.12055 -0.00310839 4.59378e-21)
(1.11655 -0.0293092 0)
(1.322 0.227986 5.58562e-21)
(1.06408 0.04827 -2.4897e-22)
(1.13026 -0.0370539 0)
(1.14208 -0.0900137 3.35949e-21)
(1.23675 -0.106139 8.00174e-21)
(1.14362 0.0396838 9.62529e-22)
(-0.209525 -0.114379 0)
(1.21394 -0.21821 -4.84802e-21)
(1.13245 -0.0621902 0)
(1.43435 -0.114839 -2.67581e-20)
(1.12055 -0.0589551 -5.36142e-21)
(1.04064 -0.0301968 -5.36702e-21)
(1.31499 -0.154238 2.59399e-20)
(0.621595 0.0172679 0)
(1.13526 -0.0770924 0)
(1.42453 -0.359029 0)
(0.885554 0.0292369 -9.8828e-23)
(1.21675 -0.151009 -3.65971e-20)
(1.00137 0.0479132 0)
(1.05094 -0.0489013 -1.33102e-21)
(1.11848 -0.336345 -5.85456e-20)
(1.14108 -0.0615015 -1.48582e-21)
(1.15172 0.0271331 7.5187e-22)
(1.32306 0.495362 2.52001e-20)
(1.11774 -0.0450791 0)
(1.01576 0.284237 -1.78434e-19)
(1.34309 0.0173856 1.88592e-20)
(0.72683 0.0219718 0)
(0.842369 0.0336139 -5.12816e-21)
(0.967431 -0.109317 4.29445e-21)
(1.12367 -0.0609066 1.03987e-21)
(1.20099 0.0132537 1.94915e-21)
(1.2608 -0.241275 0)
(1.35098 0.283352 0)
(1.09329 -0.00132141 -7.06358e-21)
(1.41124 0.0731837 3.62945e-20)
(1.08207 -0.0214841 1.01446e-20)
(1.31857 -0.138557 -1.2888e-21)
(0.965449 0.0269031 1.62937e-20)
(1.00441 -0.0235371 0)
(1.11618 0.0173372 1.05864e-21)
(1.26966 -0.112331 -7.02204e-20)
(0.757868 0.0171743 -1.2441e-21)
(1.33469 -0.0529409 0)
(1.32933 -0.106282 0)
(1.40967 -0.120205 -4.032e-20)
(1.10656 -0.0542102 -5.57313e-22)
(1.13158 0.00943571 7.88211e-23)
(0.954574 0.0244899 8.42535e-21)
(1.19477 0.00897184 -8.83973e-22)
(1.35044 0.0215625 -2.92783e-20)
(0.999875 0.00630921 1.05496e-20)
(1.45149 -0.0296182 0)
(0.895392 0.0117671 0)
(1.09413 0.033209 2.48881e-22)
(1.19806 -0.22517 -8.22582e-21)
(1.29212 0.00841004 1.46743e-20)
(1.04887 0.0485972 -1.20032e-19)
(1.15519 0.0430939 2.69465e-23)
(1.14337 0.0646709 4.71437e-21)
(0.794834 0.0157977 0)
(0.9167 -0.0455125 7.59695e-20)
(1.14768 0.0259493 -2.75388e-22)
(1.41611 -0.273837 -1.57017e-20)
(1.11074 -0.052499 -3.09886e-21)
(0.923636 0.0140466 2.5892e-21)
(-0.281178 -0.0451436 0)
(0.864011 -0.0160693 2.04976e-21)
(0.803531 0.0248741 0)
(1.06351 0.00100539 -7.85048e-23)
(1.01216 0.0287522 0)
(1.3132 0.31918 8.72847e-21)
(1.03316 -0.0563812 -3.05164e-20)
(1.26186 0.109996 3.15672e-21)
(1.15083 -0.0676588 0)
(1.09056 -0.0247366 0)
(0.537365 -0.0449074 0)
(1.10582 -0.0379197 -2.04301e-21)
(1.25872 -0.0595298 9.51809e-21)
(1.0672 0.113816 -3.09986e-20)
(0.84831 -0.0170161 0)
(1.10462 0.0257254 -5.05644e-23)
(1.14554 0.012704 1.60351e-21)
(1.16137 0.00964389 -4.27944e-22)
(0.982673 0.0345907 1.28705e-21)
(1.13285 0.00687888 -6.60791e-23)
(0.000558556 0.0529929 0)
(1.09713 -0.0242303 -1.13802e-20)
(1.20668 0.0778957 9.19382e-22)
(0.716574 0.0254342 -1.1755e-21)
(1.26139 0.167098 2.30468e-21)
(1.04436 -0.0145737 3.96372e-21)
(1.04999 0.0168977 1.53747e-20)
(0.990402 0.0263834 0)
(1.13462 -0.0390244 -1.51164e-20)
(1.02006 -0.00897754 0)
(0.932568 0.031519 2.21372e-21)
(0.969637 0.284315 1.42871e-19)
(0.964184 0.0342367 0)
(0.818088 0.102484 0)
(-0.113675 0.0239217 -7.02556e-20)
(1.34107 0.130964 -1.407e-20)
(0.670751 -0.0230182 0)
(1.45716 0.0232633 0)
(1.16112 0.0311462 0)
(1.35267 0.0832334 1.58005e-20)
(-0.035891 -0.0837307 0)
(-0.0581465 0.0736444 3.43247e-20)
(0.942153 -0.0693364 7.0422e-20)
(1.00081 0.0407044 3.49939e-24)
(0.861804 0.00112898 0)
(1.02731 -0.0410503 5.06931e-21)
(0.89526 0.022875 0)
(0.684955 -0.0476363 -7.61179e-20)
(1.01797 0.0433911 1.86625e-21)
(1.10719 -0.0630359 1.9294e-21)
(1.09968 0.00971856 3.88294e-21)
(1.0147 0.0704421 -1.09451e-20)
(0.718615 -0.0693903 -3.9461e-21)
(1.1346 -0.351172 6.65344e-22)
(0.914866 -0.02637 0)
(1.07067 -0.000965268 -1.23203e-20)
(0.87602 0.0100382 -9.0105e-21)
(1.37756 -0.185807 1.95676e-21)
(0.693571 0.0299553 0)
(1.01866 -0.147775 0)
(1.09653 -0.0481825 1.85352e-21)
(1.39308 0.211513 1.12841e-20)
(1.11916 0.0191163 2.15543e-21)
(1.03735 0.0173679 1.93976e-20)
(0.723147 -0.00663428 -7.46902e-20)
(0.815101 0.00304633 1.70796e-20)
(1.13767 -0.0190737 1.74464e-21)
(1.39922 -0.104206 -5.09555e-21)
(1.09898 -0.0563161 -3.82775e-21)
(1.33314 -0.0603204 4.36635e-21)
(-0.118229 0.0469689 5.14301e-20)
(1.28846 -0.0385053 0)
(0.597004 -0.0203184 0)
(1.06338 -0.0271227 -6.14105e-21)
(1.10209 0.0126168 8.34212e-22)
(0.0564292 0.0688161 0)
(0.875763 -0.0211544 1.5238e-22)
(1.09821 -0.0401343 -2.18036e-21)
(0.978659 0.0140601 -1.59299e-22)
(1.07884 0.0382471 -6.43549e-21)
(1.0101 0.0208075 2.76474e-21)
(1.02946 -0.0363586 1.92333e-21)
(1.04155 0.0332518 0)
(0.309129 -0.0404335 0)
(1.0472 -0.0622999 0)
(1.15286 0.103901 -3.08952e-20)
(-0.0373424 -0.0880185 4.40071e-20)
(1.06521 0.0141955 -1.36953e-24)
(1.20038 0.103307 0)
(0.752777 0.0190369 -2.17693e-21)
(1.15296 -0.0585076 5.16112e-22)
(-0.00868037 -0.038095 -1.37757e-19)
(0.759941 -0.0219013 -4.45285e-20)
(0.614241 -0.0210314 0)
(1.01209 -0.0632362 0)
(0.926052 0.0437352 3.83157e-21)
(0.985639 -0.117331 5.22034e-21)
(1.2813 0.395889 1.80166e-21)
(1.11261 -0.0448766 -4.80971e-23)
(1.11516 -0.0605001 -4.29664e-21)
(1.02453 -0.0485275 0)
(1.36479 0.420983 -4.27368e-20)
(0.644559 -0.0197415 0)
(0.802537 -0.0222461 -1.84125e-21)
(1.04222 -0.00682027 1.76902e-22)
(0.559846 0.0161488 0)
(1.09985 -0.00618534 0)
(0.0270915 -0.0489698 -4.04176e-20)
(1.07887 -0.0312946 -9.82771e-21)
(0.735733 -0.00610111 4.96633e-22)
(0.991281 -0.00250083 0)
(0.531777 -0.0147497 0)
(0.76258 -0.0131985 -1.29214e-21)
(0.526433 -0.0113379 -4.38458e-22)
(1.32601 0.03733 3.30587e-22)
(1.21941 0.0844257 -3.05767e-21)
(0.707897 0.00844045 -4.62338e-22)
(1.0912 -0.0168962 -4.47651e-23)
(1.14413 -0.0477114 4.53232e-23)
(0.530632 0.0137169 1.81883e-21)
(1.14393 -0.0299861 1.91192e-22)
(1.13288 -0.0252982 0)
(0.969989 -0.0512235 0)
(0.492502 0.0119648 0)
(1.02241 0.000944352 0)
(1.14533 -0.00318047 -2.38436e-24)
(1.06598 -0.0297961 0)
(1.10213 -0.0107717 0)
(1.05431 -0.0109221 0)
(1.08152 -0.0292382 0)
(-0.019417 -0.0347224 4.27796e-20)
(1.22202 0.00616039 -5.58044e-23)
(1.10324 -0.00702859 0)
(1.37697 0.0194971 2.37163e-20)
(1.16484 0.0142278 4.75878e-23)
(1.10417 0.0530041 -7.71575e-22)
(1.15031 -0.00200108 3.16477e-21)
(1.16234 0.00617561 0)
(0.556317 -0.0175471 3.21324e-21)
(1.05176 0.0426519 1.06452e-20)
(1.17849 0.000613956 0)
(1.17636 -0.047679 -6.03262e-22)
(1.15591 -0.0047119 1.00875e-21)
(0.548204 0.148963 -8.25715e-21)
(1.12854 0.0394634 2.43636e-21)
(1.19909 -0.0288158 -2.51242e-21)
(1.0144 0.0287642 0)
(1.1705 0.0186981 -1.52669e-20)
(1.12075 0.0179448 -3.14412e-21)
(0.784639 -0.0196245 3.38079e-21)
(0.924426 0.101881 0)
(-0.0207882 -0.0205642 0)
(0.977474 0.114407 -1.728e-20)
(1.13605 -0.0183427 0)
(1.27592 -0.060182 1.98919e-20)
(1.14956 0.0213988 6.04615e-22)
(1.16135 -0.03438 2.41533e-21)
(1.13225 0.0160101 -7.93939e-22)
(1.35255 -0.075089 1.03543e-19)
(1.01527 -0.323219 5.91065e-20)
(1.12337 -0.0276728 -4.96993e-22)
(1.00252 0.0839516 0)
(0.914807 0.0622744 0)
(0.900904 0.00178587 -2.56847e-20)
(1.22288 -0.0439242 -3.51005e-20)
(1.16885 -0.00662056 0)
(0.620765 -0.11164 7.83395e-21)
(0.301432 0.0334381 0)
(0.800854 0.0787225 5.51639e-21)
(0.85657 -0.044224 -8.89388e-21)
(0.805963 0.029125 -2.30585e-21)
(1.1563 0.00197726 0)
(1.21949 0.0392917 -7.05261e-22)
(1.16078 0.0697379 3.11819e-21)
(0.757622 0.0435159 -8.37041e-21)
(1.18358 -0.00633944 -2.85568e-21)
(0.889251 0.0765669 0)
(1.09194 0.0715954 0)
(1.07384 0.012525 6.16593e-21)
(0.825885 0.0467282 -5.57246e-21)
(1.23273 0.0120996 4.87982e-21)
(1.13571 -0.0202774 -2.20433e-21)
(1.00344 0.0707919 5.70298e-22)
(1.12221 -0.0138423 0)
(0.404733 -0.136224 1.2817e-20)
(1.3327 0.0821777 -2.38702e-20)
(0.9528 0.0366014 -4.06963e-21)
(0.0336607 0.160393 8.73018e-21)
(1.42352 -0.164538 2.3269e-20)
(0.892831 -0.0519816 7.01897e-20)
(1.20941 0.0147272 -6.2883e-21)
(1.11583 -0.0201967 -4.26651e-22)
(-0.0551548 -0.0919157 -7.50722e-21)
(0.999951 -0.00698384 0)
(1.03393 -0.0860884 -1.60823e-20)
(0.858206 -0.0327029 1.92116e-21)
(1.09469 -0.0569031 1.58099e-21)
(0.756845 -0.0117985 -1.49642e-21)
(0.522397 -0.0119313 -6.12489e-22)
(1.40556 -0.391059 -1.4954e-20)
(1.12312 0.0478774 0)
(1.01394 -0.00979061 6.10739e-22)
(1.13315 0.0408638 -1.18225e-21)
(1.26466 -0.024164 0)
(0.826169 0.033049 -4.36594e-21)
(1.1309 0.0404291 1.74115e-21)
(0.71127 -0.0454007 2.18568e-20)
(1.15779 -0.0334218 9.00116e-21)
(0.907255 0.0466455 2.67623e-21)
(-0.037078 -0.0258449 0)
(0.479662 0.260509 2.14368e-20)
(1.14426 0.0460598 0)
(0.967308 0.196794 6.12391e-21)
(0.905059 0.199649 0)
(1.12874 -0.00423838 -1.36386e-21)
(1.01609 0.0263454 0)
(1.09677 0.0115162 0)
(1.40174 -0.143555 2.06634e-20)
(0.794433 -0.083668 0)
(1.1766 -0.154999 1.42729e-20)
(1.08026 -0.0197727 4.89314e-23)
(1.05267 0.0438276 1.42071e-21)
(1.26207 -0.0480473 -1.19031e-20)
(1.24388 0.118095 -7.5638e-21)
(1.18981 -0.0508608 1.6728e-20)
(1.16988 0.0458594 0)
(1.2009 -0.0575777 0)
(1.12777 0.0466779 1.32569e-21)
(1.22601 -0.0159853 0)
(1.41656 0.20554 -2.79685e-20)
(0.74067 -0.0831631 3.06222e-22)
(1.02744 0.017259 1.86029e-20)
(1.28083 0.0321531 -4.27567e-22)
(-0.013214 0.00488649 0)
(-0.0264378 -0.0555656 0)
(0.0546129 0.0114272 -3.711e-20)
(-0.0505978 -0.0959915 0)
(0.690723 -0.128 -1.30264e-20)
(1.17409 0.0425992 -9.7103e-22)
(1.17485 -0.0839234 -1.62661e-21)
(1.2601 -0.065417 -2.01876e-21)
(1.21169 -0.0300669 0)
(0.710945 -0.000648742 -4.53779e-23)
(1.15608 0.0412777 0)
(1.09387 0.00347857 -2.0916e-22)
(0.489233 -0.108464 0)
(0.778417 -0.118246 -3.55342e-22)
(1.12612 0.0439517 0)
(1.12716 0.0353575 0)
(0.749273 0.0201683 5.70763e-20)
(0.664175 -0.128007 -1.64624e-21)
(0.901442 -0.0239066 1.35421e-21)
(1.0127 0.0174146 -8.82462e-21)
(0.146168 -0.0857155 0)
(1.196 -0.105483 -1.94796e-20)
(1.22114 0.0884264 -8.52423e-21)
(1.12413 -0.0922005 -5.87776e-22)
(0.784657 -0.0923956 2.64683e-21)
(-0.0496388 -0.0534533 -9.27402e-20)
(1.13518 0.0630759 0)
(-0.0361669 0.0438026 0)
(1.16148 0.0901371 -1.24261e-22)
(0.525263 -0.00696509 -2.84871e-21)
(1.11183 0.0515376 -5.41004e-21)
(1.1169 -0.0422604 0)
(1.16738 -0.0956951 1.21263e-21)
(1.2091 -0.0898009 1.44358e-20)
(0.511994 -0.0526703 -8.64214e-21)
(1.14885 -0.0353286 1.16385e-21)
(1.18959 -0.0667292 4.03597e-23)
(-0.0117888 0.0898772 1.10903e-20)
(1.27072 -0.098445 7.67066e-22)
(1.13218 0.0462884 0)
(1.14335 0.0549173 0)
(1.20377 -0.0409949 4.65844e-21)
(1.16734 0.092014 7.70395e-21)
(0.598402 -0.0944433 -3.30446e-20)
(1.19202 -0.128212 -1.49308e-20)
(1.11132 0.0598233 1.00836e-21)
(0.489266 -0.00139722 5.889e-21)
(0.255158 -0.118918 -1.0283e-19)
(-0.140311 -0.209231 2.33194e-20)
(1.17454 0.183451 -6.66875e-21)
(1.22658 -0.49525 4.31714e-21)
(1.42952 0.0683833 -2.00085e-20)
(1.21506 -0.036833 -5.52047e-21)
(0.934513 -0.231053 9.45062e-20)
(-0.234865 -0.0672041 0)
(1.1405 -0.0355239 -2.45452e-22)
(0.188168 0.200099 -2.66225e-20)
(1.1479 0.0827391 1.07525e-22)
(1.14102 -0.023909 5.87885e-21)
(1.08664 0.0402547 0)
(0.700318 -0.0262138 0)
(1.17654 -0.0569019 0)
(1.22561 0.191776 -3.89825e-21)
(1.27561 -0.023629 -3.05489e-20)
(1.16086 -0.0485901 -3.79879e-21)
(0.487302 0.00723019 0)
(0.654166 -0.00442819 0)
(0.661434 0.00563993 5.24404e-22)
(0.481051 -0.00704354 0)
(1.14537 0.0523635 0)
(1.02075 -0.0134149 2.40143e-20)
(0.254658 0.153185 0)
(0.919057 0.0213499 0)
(1.10265 -0.0221617 0)
(1.17632 0.185084 -2.14101e-21)
(1.27267 0.0524368 1.50933e-20)
(0.966145 -0.0312268 4.03685e-21)
(1.27559 -0.402229 -1.01104e-19)
(0.532145 -0.00855039 6.54557e-22)
(1.25497 0.025771 4.83433e-21)
(1.25567 -0.064921 0)
(-0.432481 -0.0199846 0)
(-0.255343 -0.00227713 0)
(1.16829 -0.030857 -7.29726e-21)
(1.31471 -0.296399 -1.99007e-20)
(1.33897 0.145162 0)
(1.08846 0.0458585 -4.36205e-21)
(0.278952 -0.144611 0)
(1.50227 -0.185833 6.58629e-20)
(0.413652 0.522243 1.09615e-19)
(0.252811 -0.0450137 0)
(1.08093 -0.278611 1.08521e-19)
(0.359663 -0.0459839 0)
(-0.322928 -0.0110161 1.05453e-20)
(1.37227 0.115683 0)
(-0.0736412 -0.0616016 -2.22666e-21)
(0.983518 -0.0495949 0)
(1.25567 -0.0610966 -8.56796e-21)
(-0.131409 -0.0268976 -7.34236e-21)
(1.12536 -0.0282107 -5.50135e-22)
(1.18961 -0.152789 -5.02489e-21)
(0.56925 -0.510021 -9.2339e-20)
(1.13324 0.00769012 -1.77579e-22)
(1.19376 -0.134434 3.94909e-21)
(1.18417 0.248023 -1.65337e-20)
(1.14275 -0.0595553 -2.67598e-21)
(1.16087 -0.0107069 -1.28473e-21)
(-0.135977 -0.183649 -5.89105e-20)
(0.0532347 0.0749792 -7.75609e-21)
(1.23876 0.049798 1.96242e-21)
(1.05872 -0.0514732 0)
(0.477843 -0.0983065 -7.82231e-21)
(1.38897 -0.446425 7.52067e-20)
(0.896998 -0.0822256 -5.34012e-20)
(1.43799 0.143265 8.35239e-20)
(1.08635 -0.0557377 5.84167e-22)
(1.23965 -0.117711 5.0822e-22)
(1.06266 -0.00716715 0)
(1.18915 -0.0224019 0)
(1.27466 -0.0596031 5.1865e-21)
(1.08635 -0.0208841 -4.5037e-21)
(1.16449 -0.0825455 3.04011e-21)
(1.08593 0.0431345 -3.48984e-21)
(1.44769 -0.0494217 -4.94908e-20)
(0.45073 0.0323179 0)
(1.27065 -0.0817696 -4.39839e-21)
(1.35508 0.103274 0)
(1.10407 0.0577807 -1.00783e-21)
(1.14282 0.0241439 0)
(1.04276 -0.00976231 1.19344e-20)
(1.2321 0.0335146 1.76726e-20)
(1.11318 -0.0343787 0)
(0.0486884 -0.0296139 1.46185e-19)
(0.882475 -0.209357 -7.41237e-20)
(1.27565 -0.0623437 -3.05206e-20)
(-0.109148 -0.0314863 4.01629e-20)
(1.20331 0.0382667 4.74553e-22)
(0.822753 -0.0190627 -5.86263e-22)
(-0.0969647 -0.00121045 -4.18753e-20)
(-0.0262771 0.0250157 -2.70404e-20)
(1.0175 -0.0306223 0)
(-0.026567 -0.030042 0)
(1.25112 0.0624803 0)
(0.111336 -0.0995188 0)
(1.11781 -0.0274217 0)
(0.127154 0.0293455 0)
(1.11339 0.0573365 0)
(1.20695 0.180078 0)
(1.3158 0.116154 -2.61063e-21)
(0.566584 -0.281694 -2.00218e-20)
(-0.156491 0.0790078 0)
(1.09799 -0.107016 5.55644e-20)
(1.23952 0.00230075 5.33393e-22)
(1.35898 0.0327996 0)
(-0.0362999 -0.0384424 0)
(1.16023 0.0138633 5.63556e-21)
(1.16945 -0.00429742 -2.7413e-21)
(1.17154 0.390297 0)
(0.213955 -0.0724134 5.38731e-20)
(1.12077 0.0586892 8.44824e-22)
(0.224787 -0.0511263 -4.97454e-20)
(-0.0614098 0.0507385 -3.33906e-20)
(-0.0340066 0.049455 8.58713e-20)
(0.566153 0.0956647 3.91875e-20)
(1.06259 -0.0520109 5.51672e-22)
(1.12639 0.0657426 2.82888e-21)
(1.02248 -0.00787768 0)
(1.0698 -0.0723 -2.14407e-20)
(1.24577 0.0792443 -1.62218e-20)
(-0.00874577 -0.0155357 9.60398e-20)
(0.979949 -0.0715701 -5.94895e-20)
(0.597824 0.0012416 1.36183e-20)
(1.10854 -0.00601337 -2.74285e-21)
(0.0681618 -0.0302552 3.12107e-20)
(0.235473 -0.0381073 -4.46217e-20)
(0.366656 -0.0585129 -4.88295e-20)
(1.18321 0.13571 -4.96002e-22)
(-0.051779 -0.0314537 0)
(0.950199 0.0710403 8.03847e-21)
(1.2007 -0.120109 -1.65507e-21)
(1.15423 -0.0666503 1.59573e-21)
(1.28693 -0.03327 0)
(1.51069 -0.24038 6.55577e-20)
(1.1055 0.0115207 -8.18407e-22)
(-0.0113334 -0.0273744 -3.21881e-20)
(0.308494 0.0735526 0)
(0.908987 0.0242152 2.47784e-22)
(1.13477 0.0275478 -1.40211e-21)
(0.621027 -0.0794593 1.29426e-20)
(1.16309 0.0113422 -1.91868e-21)
(1.11729 0.0497096 0)
(1.11744 -0.17571 -1.37041e-20)
(-0.0818141 -0.0700846 -6.12851e-20)
(1.32374 -0.0359948 2.38015e-20)
(1.10525 0.176285 -8.9112e-21)
(1.09456 0.0430904 3.9913e-21)
(-0.0367817 -0.0462498 1.43249e-20)
(-0.0269429 0.0417451 -6.55493e-20)
(0.701529 0.0041275 0)
(0.857971 0.159462 0)
(1.15258 0.0978197 -1.25226e-20)
(1.05232 0.0694388 1.07498e-20)
(1.09932 0.0207993 0)
(0.419423 -0.0726704 4.29174e-20)
(0.738124 0.0869298 -1.19375e-20)
(1.09871 0.107964 0)
(1.09174 0.040521 0)
(1.39985 0.150636 0)
(1.18547 0.0545495 0)
(1.21512 0.0218595 1.63877e-21)
(-0.0431349 0.0464586 3.64703e-20)
(1.17191 0.0566089 3.55328e-21)
(1.38864 -0.208884 -7.4727e-20)
(1.28033 0.0478295 -2.92047e-21)
(-0.00674675 -0.00668617 0)
(1.18427 -0.129985 0)
(0.653926 0.000462738 6.75911e-22)
(0.541001 0.00850535 -6.10716e-20)
(0.0733325 0.0358811 4.94683e-20)
(0.946117 -0.00834492 -6.22967e-22)
(0.728164 -0.269758 0)
(0.659224 -0.0907585 0)
(1.2222 0.0542353 0)
(0.542293 0.516296 2.42904e-20)
(-0.0189822 0.0284118 -3.03078e-20)
(1.09084 -0.0177264 -1.5604e-21)
(-0.0179116 -0.0431655 6.05503e-20)
(1.10745 -0.0251242 1.86163e-21)
(1.1768 0.315566 3.15344e-20)
(1.11355 -0.0941787 7.91236e-21)
(0.240328 -0.0925587 7.68937e-20)
(1.01753 -0.00452169 3.63077e-21)
(1.18739 -0.179934 0)
(0.561776 0.272474 0)
(0.959432 0.00580925 2.20147e-21)
(-0.187347 0.0252462 0)
(0.605527 0.0294867 1.12342e-21)
(0.595871 -0.412065 -2.81439e-21)
(0.241628 0.0493055 -1.15373e-19)
(1.12108 -0.228869 3.38062e-20)
(1.04112 0.367148 9.76228e-21)
(0.978265 0.0211985 0)
(1.21855 -0.0620638 1.07757e-22)
(0.655387 -0.00346999 0)
(0.979079 0.00901287 -6.48596e-22)
(0.41502 -0.0208004 0)
(0.711188 0.135002 0)
(1.0004 -0.0206395 -1.43239e-21)
(1.43872 0.168463 -1.59231e-20)
(1.10421 -0.0208328 1.86055e-21)
(0.516365 -0.485745 0)
(1.13247 -0.158326 2.47649e-21)
(0.80509 0.382029 6.89816e-20)
(-0.0384621 0.0215967 1.21043e-21)
(1.2192 -0.0156574 1.15672e-20)
(1.21289 0.0345348 -1.37219e-20)
(1.1359 -0.0157373 6.77639e-22)
(0.788726 0.00748033 -1.06264e-21)
(0.0642724 0.0184454 3.87215e-20)
(-0.0181161 -0.0133352 -5.4026e-20)
(-0.20531 0.00763648 0)
(-0.212865 0.14043 0)
(1.17316 -0.612442 2.99528e-20)
(1.15522 -0.0259735 1.25363e-21)
(0.87457 -0.459921 -3.96253e-20)
(0.990968 0.105776 -1.6946e-20)
(1.37099 0.196828 3.62987e-20)
(0.606205 0.422459 0)
(0.247394 0.418914 -1.12469e-19)
(0.596978 0.486028 0)
(0.0235331 0.0366399 0)
(1.11569 -0.479041 0)
(-0.0491695 0.0278361 -4.56303e-22)
(1.20399 -0.0172609 0)
(0.936032 0.237617 -3.47558e-20)
(0.597468 0.696847 2.0616e-20)
(1.32827 0.215955 1.16197e-20)
(-0.0344705 -0.0811177 -1.00288e-19)
(0.782655 0.237187 -1.24866e-20)
(0.455119 0.145066 -1.3876e-20)
(1.20393 0.0918902 0)
(1.36449 0.355071 3.86101e-20)
(1.22601 0.567875 9.86386e-21)
(0.163186 -0.0144435 -2.31681e-20)
(1.01479 0.126268 3.42012e-20)
(0.927332 -0.00639262 -4.4585e-23)
(0.905342 0.00722613 9.88185e-23)
(-0.00929815 -0.0278012 0)
(0.640982 -0.645176 -3.10075e-20)
(0.613389 0.206757 0)
(0.0483012 -0.109948 0)
(-0.0507001 0.0666365 0)
(-0.00814364 -0.0971118 -3.7707e-20)
(1.23392 -0.000498589 -1.32818e-20)
(-0.0266117 0.0635803 0)
(-0.0374227 0.0575772 0)
(1.44419 0.113267 -8.0558e-20)
(-0.0360008 -0.0656357 4.54239e-20)
(0.115369 0.23794 -9.98304e-20)
(0.391963 0.017256 0)
(0.167603 -0.272093 8.16513e-20)
(1.06457 -0.240124 0)
(0.993258 -0.283311 0)
(-0.00345703 -0.0827178 9.42559e-20)
(1.14912 0.035631 1.76944e-23)
(1.12881 0.344689 2.64398e-20)
(0.265281 0.0277844 4.77022e-20)
(0.399289 -0.51064 -3.93656e-20)
(1.29687 0.0706273 0)
(1.22547 0.193274 2.30445e-20)
(1.22413 0.210342 -2.83057e-20)
(0.102677 0.0936053 -2.32721e-20)
(-0.0640331 -0.00159133 0)
(1.0697 -0.0584957 -1.97155e-20)
(1.09906 -0.223759 -1.66159e-20)
(0.578919 -0.397337 0)
(1.09589 -0.150179 -2.64186e-20)
(-0.105234 0.112747 0)
(0.611646 0.0445071 0)
(1.46284 0.0151188 4.37861e-20)
(0.99079 0.0261426 9.17431e-23)
(1.08043 0.747552 -1.41936e-20)
(0.222836 -0.372811 1.33943e-19)
(1.07665 0.00733909 4.48674e-23)
(1.20738 0.0718166 1.65779e-21)
(-0.0536333 0.0686134 3.11108e-20)
(0.790308 0.736558 2.60093e-20)
(1.33903 -0.376743 -1.27597e-20)
(-0.172858 -0.166466 7.47762e-20)
(1.11793 0.0434186 0)
(0.217105 -0.0518692 -8.62463e-21)
(0.886383 -0.628649 2.53847e-21)
(0.903601 0.644129 -2.20488e-20)
(0.522707 -0.0384784 -5.7847e-20)
(1.1468 -0.00493157 2.18106e-21)
(1.07655 -0.0865036 6.93009e-21)
(1.15327 0.0644969 -2.40134e-21)
(1.10621 0.121049 2.62901e-21)
(1.1308 -0.133519 0)
(0.913514 0.10896 1.50905e-20)
(0.890597 0.460503 0)
(1.27837 0.130811 4.69426e-21)
(1.16836 0.112517 -2.04524e-21)
(0.755888 0.264934 0)
(0.523997 0.110344 1.10051e-19)
(0.896318 0.716081 -8.44001e-22)
(1.08092 0.292586 -2.03054e-20)
(1.04394 -0.0115945 1.17044e-20)
(0.416575 0.497499 0)
(1.28564 -0.475718 0)
(0.588789 -0.104085 5.21716e-21)
(1.26769 0.504752 0)
(-0.0232184 0.0576096 -4.43817e-20)
(1.27464 -0.417931 -3.35931e-21)
(1.16818 0.511808 0)
(0.452545 0.223971 1.6771e-19)
(1.12779 0.316778 -1.23406e-19)
(0.808676 -0.633854 -2.70886e-20)
(1.16056 0.0646367 -4.51102e-21)
(0.920464 0.151648 8.36843e-20)
(1.09072 0.169517 4.77234e-20)
(1.07428 0.706706 -3.76697e-22)
(0.897697 -0.43329 6.68204e-20)
(1.43188 0.178181 4.36473e-20)
(1.13021 0.00985465 5.32976e-23)
(-0.00188969 -0.0444926 8.39553e-20)
(1.07153 -0.697419 2.10442e-20)
(0.862867 -0.712947 5.66143e-20)
(0.248717 -0.323205 0)
(0.971056 -0.145283 7.35811e-20)
(0.363138 0.314572 -4.35342e-19)
(-0.109258 0.00517505 2.10133e-20)
(0.248406 0.0441166 2.35454e-20)
(0.652903 -0.0600584 -6.85488e-20)
(1.08232 0.532196 0)
(0.994204 0.22471 7.76622e-20)
(1.08868 0.0309206 2.77124e-21)
(0.912585 0.446187 -8.89387e-20)
(0.771709 -0.716763 -9.1323e-21)
(0.926226 0.0266093 -4.88525e-20)
(0.97974 0.493034 0)
(1.18177 0.219466 -1.75928e-20)
(1.3696 -0.516832 1.18709e-20)
(1.22209 -0.343078 8.36438e-21)
(-0.249188 0.0108347 3.54925e-20)
(0.193774 0.0123104 -1.80868e-20)
(0.972875 -0.115974 -5.81116e-20)
(0.354836 0.530869 0)
(0.914763 0.0206871 3.8925e-20)
(1.16018 0.638279 8.31627e-20)
(-0.0740996 -0.0683377 1.30398e-19)
(-0.0688 0.0491342 -2.58846e-20)
(-0.0765994 -0.064957 3.92972e-20)
(1.09767 0.0236191 -3.61187e-21)
(1.1147 -0.458232 0)
(1.05773 -0.729793 -4.63102e-20)
(0.699675 0.354353 0)
(0.0146074 -0.0705362 -9.20272e-20)
(1.09861 0.0210346 9.71293e-22)
(-0.0309461 -0.063589 -2.707e-20)
(1.04787 0.0558516 -1.22985e-20)
(0.107047 0.0330058 5.75163e-20)
(0.850687 0.126883 0)
(1.39226 -0.0586839 4.83781e-20)
(0.0498427 0.0491955 -2.67336e-20)
(-0.256218 0.0467402 -4.21394e-20)
(-0.222847 0.0507078 0)
(0.0718481 -0.0126721 0)
(1.35069 -0.0271981 -1.2996e-20)
(0.361803 -0.0121585 1.41092e-19)
(1.25413 -0.723208 -1.65184e-20)
(0.910987 -0.163461 2.6178e-20)
(1.07548 0.25336 -2.81066e-20)
(0.363512 -0.548245 1.41402e-19)
(1.5499 0.277806 -3.62827e-20)
(0.0519766 -0.0595113 3.23414e-20)
(0.208854 0.312632 1.94166e-19)
(0.078003 -0.0351177 -1.2164e-19)
(0.937429 -0.489344 -4.40356e-20)
(1.45678 0.387932 3.69621e-20)
(0.559649 -0.667443 5.02457e-20)
(1.10694 -0.0868357 -6.86693e-21)
(0.162357 -0.00197464 4.94766e-20)
(1.18567 0.291198 -4.93385e-20)
(0.664101 0.644889 -3.95919e-20)
(1.32156 -0.621413 0)
(1.42077 0.520196 3.47148e-20)
(1.04582 -0.525655 -1.20916e-20)
(1.39173 0.607894 -1.05069e-19)
(1.18928 0.0417184 0)
(-0.0546359 0.0800688 0)
(1.25436 0.731898 0)
(1.17673 0.0634106 -4.08134e-21)
(0.736759 -0.296469 -2.07823e-19)
(0.475135 -0.0770535 0)
(-0.0569692 0.0816262 -2.63648e-20)
(1.01878 -0.245763 1.00276e-19)
(-0.340816 -0.0396488 0)
(0.321155 0.0326738 1.222e-20)
(1.14826 0.0418554 0)
(1.41766 0.274032 0)
(1.19513 0.0605852 4.83045e-21)
(0.358897 -0.284496 0)
(1.01578 0.152831 3.57988e-20)
(1.31132 0.286097 0)
(-0.0934615 0.0525284 -7.52689e-22)
(0.808836 -0.391097 0)
(1.51808 0.337617 -5.49686e-20)
(1.24419 0.370027 -1.57253e-21)
(0.843095 0.650402 -9.5656e-21)
(1.01363 0.15965 -8.57294e-20)
(0.967888 -0.202773 -4.88319e-20)
(1.45498 0.293971 3.23267e-20)
(1.01203 0.0953711 0)
(0.563336 -0.0655653 0)
)
;

boundaryField
{
    FrontBack
    {
        type            empty;
    }
    Top
    {
        type            noSlip;
    }
    In
    {
        type            fixedValue;
        value           uniform (1 0 0);
    }
    Bottom
    {
        type            noSlip;
    }
    Out
    {
        type            zeroGradient;
    }
    circle
    {
        type            noSlip;
    }
}


// ************************************************************************* //
