/*--------------------------------*- C++ -*----------------------------------*\
| =========                 |                                                 |
| \\      /  F ield         | OpenFOAM: The Open Source CFD Toolbox           |
|  \\    /   O peration     | Version:  2412                                  |
|   \\  /    A nd           | Website:  www.openfoam.com                      |
|    \\/     M anipulation  |                                                 |
\*---------------------------------------------------------------------------*/
FoamFile
{
    version     2.0;
    format      ascii;
    arch        "LSB;label=32;scalar=64";
    class       volVectorField;
    location    "0.7";
    object      cellDisplacement;
}
// * * * * * * * * * * * * * * * * * * * * * * * * * * * * * * * * * * * * * //

dimensions      [0 1 0 0 0 0 0];

internalField   nonuniform List<vector> 
1024
(
(0.00215081 -0.00296595 0)
(0.00412081 -0.00538687 0)
(0.00624618 -0.00722017 0)
(0.00857577 -0.00835531 0)
(0.0111402 -0.00871532 0)
(0.0138473 -0.00821536 0)
(0.0164124 -0.00679072 0)
(0.0185363 -0.00452476 0)
(0.0197661 -0.00164034 0)
(0.0198319 0.0014139 0)
(0.0185002 0.00404987 0)
(0.0160521 0.00577627 0)
(0.0129201 0.00634377 0)
(0.00949781 0.00576126 0)
(0.00611328 0.00426952 0)
(0.00287743 0.00217868 0)
(0.00952736 -0.0128916 0)
(0.0153264 -0.0191331 0)
(0.0214874 -0.0234666 0)
(0.028254 -0.0258148 0)
(0.0355647 -0.0259582 0)
(0.043055 -0.0237116 0)
(0.0500554 -0.0190379 0)
(0.0555785 -0.0122032 0)
(0.0586383 -0.00392007 0)
(0.0585426 0.00460549 0)
(0.0549906 0.0119603 0)
(0.0485972 0.016988 0)
(0.0403343 0.0190636 0)
(0.0312171 0.0181962 0)
(0.0219516 0.0147968 0)
(0.0128542 0.00949147 0)
(0.0196917 -0.0261907 0)
(0.0289445 -0.0349317 0)
(0.0388892 -0.0406502 0)
(0.0497322 -0.0432086 0)
(0.061274 -0.0423204 0)
(0.0728718 -0.0377638 0)
(0.0833549 -0.0295757 0)
(0.0913716 -0.0183179 0)
(0.095514 -0.00515539 0)
(0.0950795 0.00814083 0)
(0.08965 0.0195893 0)
(0.0801811 0.0276456 0)
(0.0680111 0.0314865 0)
(0.0544291 0.0310234 0)
(0.0404592 0.0267532 0)
(0.02651 0.0193861 0)
(0.0324675 -0.0423929 0)
(0.0449382 -0.0524696 0)
(0.0583397 -0.0584569 0)
(0.0728656 -0.0603107 0)
(0.0880965 -0.0576684 0)
(0.103044 -0.0503231 0)
(0.116273 -0.0384763 0)
(0.126 -0.0229717 0)
(0.130749 -0.00537897 0)
(0.129667 0.012086 0)
(0.122656 0.0271316 0)
(0.110824 0.0380076 0)
(0.0956933 0.0437657 0)
(0.0787722 0.0442861 0)
(0.0611736 0.0400009 0)
(0.0433668 0.031616 0)
(0.0477727 -0.0610714 0)
(0.0631492 -0.0712831 0)
(0.0797483 -0.0765815 0)
(0.0975494 -0.0769019 0)
(0.115897 -0.0718718 0)
(0.133541 -0.06136 0)
(0.148685 -0.0457588 0)
(0.159455 -0.0262027 0)
(0.164388 -0.00461222 0)
(0.162581 0.0165574 0)
(0.154228 0.0348131 0)
(0.140587 0.0483393 0)
(0.123302 0.0561595 0)
(0.103907 0.0580632 0)
(0.0836281 0.0544633 0)
(0.0629414 0.0460254 0)
(0.0654617 -0.0816791 0)
(0.0835621 -0.0910089 0)
(0.103013 -0.0946818 0)
(0.123646 -0.0927242 0)
(0.144533 -0.0847665 0)
(0.16415 -0.0707952 0)
(0.180601 -0.051415 0)
(0.191884 -0.0280194 0)
(0.196602 -0.00277433 0)
(0.193965 0.0216708 0)
(0.184492 0.0428319 0)
(0.169498 0.0588887 0)
(0.150653 0.0688446 0)
(0.129552 0.0724953 0)
(0.107405 0.0701574 0)
(0.0846771 0.0624672 0)
(0.0855204 -0.103724 0)
(0.106061 -0.11116 0)
(0.128077 -0.11241 0)
(0.151076 -0.107515 0)
(0.173909 -0.0961734 0)
(0.194893 -0.0785205 0)
(0.211963 -0.0553805 0)
(0.223304 -0.0283759 0)
(0.22744 0.000176509 0)
(0.223996 0.0275971 0)
(0.213577 0.0514225 0)
(0.197568 0.0699037 0)
(0.177674 0.0821002 0)
(0.155433 0.0877458 0)
(0.13208 0.0871432 0)
(0.108068 0.0809272 0)
(0.107884 -0.126606 0)
(0.1307 -0.131301 0)
(0.154887 -0.12937 0)
(0.179761 -0.120964 0)
(0.203958 -0.105865 0)
(0.225628 -0.0843919 0)
(0.242836 -0.0575496 0)
(0.253717 -0.027148 0)
(0.257088 0.00442548 0)
(0.252762 0.0345133 0)
(0.241544 0.0608142 0)
(0.224789 0.0816539 0)
(0.2042 0.096141 0)
(0.181284 0.104028 0)
(0.157255 0.10556 0)
(0.13252 0.101381 0)
(0.132698 -0.149799 0)
(0.157452 -0.150881 0)
(0.183454 -0.145116 0)
(0.209687 -0.132697 0)
(0.234635 -0.113555 0)
(0.256455 -0.088162 0)
(0.273174 -0.0577412 0)
(0.283176 -0.0241777 0)
(0.28555 0.0101158 0)
(0.280352 0.0426739 0)
(0.268442 0.071289 0)
(0.251153 0.094446 0)
(0.230108 0.111298 0)
(0.206842 0.121603 0)
(0.182493 0.125597 0)
(0.157518 0.123987 0)
(0.160046 -0.172627 0)
(0.186523 -0.16936 0)
(0.213875 -0.159137 0)
(0.2409 -0.142267 0)
(0.26597 -0.118835 0)
(0.287234 -0.0895383 0)
(0.302926 -0.0556732 0)
(0.311693 -0.0192098 0)
(0.312935 0.0175801 0)
(0.30682 0.0523681 0)
(0.294246 0.0831865 0)
(0.276561 0.108622 0)
(0.255256 0.127894 0)
(0.231791 0.140804 0)
(0.207381 0.147565 0)
(0.182388 0.148929 0)
(0.190244 -0.194216 0)
(0.218037 -0.185927 0)
(0.246253 -0.170706 0)
(0.273406 -0.149033 0)
(0.297857 -0.121187 0)
(0.317921 -0.0880257 0)
(0.332049 -0.0509524 0)
(0.339274 -0.011849 0)
(0.339165 0.0271427 0)
(0.332059 0.0639707 0)
(0.318828 0.0968256 0)
(0.300784 0.124517 0)
(0.279334 0.146317 0)
(0.255805 0.162037 0)
(0.231348 0.171846 0)
(0.206438 0.176564 0)
(0.223568 -0.213512 0)
(0.252281 -0.199493 0)
(0.280663 -0.17881 0)
(0.307173 -0.152058 0)
(0.330242 -0.119809 0)
(0.3484 -0.0829911 0)
(0.360471 -0.0430101 0)
(0.365735 -0.00161478 0)
(0.364053 0.0392733 0)
(0.355813 0.0778461 0)
(0.341889 0.112649 0)
(0.323494 0.142573 0)
(0.301876 0.16703 0)
(0.278284 0.185768 0)
(0.253718 0.198945 0)
(0.228724 0.207336 0)
(0.260704 -0.229074 0)
(0.289635 -0.20868 0)
(0.317344 -0.182055 0)
(0.34221 -0.150162 0)
(0.36293 -0.113614 0)
(0.378394 -0.0735113 0)
(0.387787 -0.0310892 0)
(0.390699 0.0121119 0)
(0.387199 0.054504 0)
(0.377711 0.0946111 0)
(0.363034 0.131203 0)
(0.344159 0.163394 0)
(0.322239 0.190591 0)
(0.298298 0.212606 0)
(0.273412 0.229476 0)
(0.247946 0.241952 0)
(0.302225 -0.238454 0)
(0.330381 -0.211004 0)
(0.356081 -0.178379 0)
(0.378 -0.141516 0)
(0.395238 -0.101258 0)
(0.407132 -0.0584836 0)
(0.413256 -0.0142925 0)
(0.413449 0.0301648 0)
(0.407885 0.0735967 0)
(0.396983 0.114873 0)
(0.381374 0.153078 0)
(0.361855 0.187493 0)
(0.339302 0.217617 0)
(0.314573 0.243227 0)
(0.288592 0.264249 0)
(0.261862 0.281201 0)
(0.348136 -0.237659 0)
(0.373705 -0.202926 0)
(0.395417 -0.164738 0)
(0.412697 -0.123888 0)
(0.425216 -0.0809561 0)
(0.432726 -0.0366532 0)
(0.435086 0.00826544 0)
(0.432291 0.0529899 0)
(0.424481 0.0967242 0)
(0.411972 0.138713 0)
(0.395178 0.178306 0)
(0.37464 0.214922 0)
(0.350939 0.248133 0)
(0.324751 0.277608 0)
(0.296685 0.303211 0)
(0.267176 0.325179 0)
(0.392684 -0.219249 0)
(0.412284 -0.179704 0)
(0.427912 -0.138428 0)
(0.43942 -0.0958183 0)
(0.446696 -0.0522862 0)
(0.44967 -0.0082506 0)
(0.448313 0.0358645 0)
(0.442639 0.0796342 0)
(0.432702 0.122637 0)
(0.418598 0.164459 0)
(0.400463 0.204697 0)
(0.378471 0.242963 0)
(0.352834 0.27889 0)
(0.323799 0.312131 0)
(0.291645 0.342365 0)
(0.256683 0.369303 0)
(0.00290755 0.00208988 0)
(0.0053442 0.00407639 0)
(0.00715728 0.00616348 0)
(0.0082957 0.00847307 0)
(0.00867538 0.0110497 0)
(0.00819355 0.0137807 0)
(0.00678906 0.0164125 0)
(0.004519 0.0185077 0)
(0.00164964 0.0197439 0)
(-0.00137761 0.0197793 0)
(-0.00400072 0.0184571 0)
(-0.00571216 0.0159821 0)
(-0.00628923 0.012876 0)
(-0.00572519 0.00947943 0)
(-0.00425692 0.00612804 0)
(-0.00217141 0.00289821 0)
(0.0127572 0.0093946 0)
(0.0189555 0.0151293 0)
(0.0233167 0.0212706 0)
(0.0256928 0.0280176 0)
(0.0258587 0.0353189 0)
(0.0236666 0.0429042 0)
(0.0190147 0.0499565 0)
(0.0121875 0.0555096 0)
(0.00395682 0.0584781 0)
(-0.00450313 0.0584031 0)
(-0.0118149 0.0548486 0)
(-0.0168305 0.0484726 0)
(-0.0189099 0.0402137 0)
(-0.0180884 0.0311753 0)
(-0.0147294 0.0219585 0)
(-0.00944313 0.0128802 0)
(0.0259417 0.0194499 0)
(0.0346987 0.0286738 0)
(0.0404226 0.0385488 0)
(0.043018 0.0493455 0)
(0.042191 0.0609275 0)
(0.0376987 0.0726234 0)
(0.0295458 0.0832406 0)
(0.0183031 0.0912304 0)
(0.0052103 0.0953366 0)
(-0.0079794 0.0948714 0)
(-0.0193699 0.0894582 0)
(-0.0273888 0.0799698 0)
(-0.0312471 0.0678498 0)
(-0.0308333 0.0543454 0)
(-0.0266241 0.0404548 0)
(-0.0192937 0.0265507 0)
(0.0420965 0.0321841 0)
(0.0521449 0.0445548 0)
(0.0581882 0.0579127 0)
(0.0601076 0.072425 0)
(0.0575257 0.0876774 0)
(0.0502525 0.102757 0)
(0.03844 0.116063 0)
(0.0229576 0.12583 0)
(0.0054692 0.130488 0)
(-0.0118761 0.129415 0)
(-0.0268401 0.122404 0)
(-0.0376916 0.110603 0)
(-0.0434522 0.0955011 0)
(-0.0440229 0.0786696 0)
(-0.0397964 0.0611452 0)
(-0.031458 0.0433871 0)
(0.0606927 0.0474109 0)
(0.0709438 0.0627362 0)
(0.076284 0.0792571 0)
(0.0766774 0.0970302 0)
(0.071732 0.11545 0)
(0.0612885 0.133197 0)
(0.0457209 0.148472 0)
(0.0262053 0.159226 0)
(0.00471844 0.164134 0)
(-0.0163034 0.162293 0)
(-0.0344746 0.153962 0)
(-0.0479514 0.140323 0)
(-0.0557784 0.123096 0)
(-0.0577186 0.103771 0)
(-0.0541798 0.0835727 0)
(-0.0458031 0.0629573 0)
(0.0812876 0.0650932 0)
(0.0906259 0.0830778 0)
(0.0943796 0.102487 0)
(0.0925142 0.123135 0)
(0.0846356 0.14407 0)
(0.0707288 0.163807 0)
(0.0513912 0.180316 0)
(0.0280346 0.191641 0)
(0.00292196 0.196293 0)
(-0.0213811 0.19366 0)
(-0.0424403 0.184193 0)
(-0.0584622 0.16924 0)
(-0.0684038 0.150431 0)
(-0.0720834 0.129405 0)
(-0.0697961 0.107331 0)
(-0.0621674 0.0846657 0)
(0.103293 0.0851009 0)
(0.110797 0.105589 0)
(0.112119 0.127542 0)
(0.107317 0.15054 0)
(0.0960599 0.173462 0)
(0.0784687 0.194522 0)
(0.0553598 0.211691 0)
(0.0284227 0.223016 0)
(-1.53215e-05 0.227144 0)
(-0.0272738 0.223675 0)
(-0.0510081 0.213283 0)
(-0.0694247 0.197289 0)
(-0.0816108 0.177451 0)
(-0.0872642 0.155265 0)
(-0.0867014 0.131977 0)
(-0.0805604 0.108045 0)
(0.126196 0.107482 0)
(0.13094 0.130188 0)
(0.129107 0.154353 0)
(0.120796 0.179273 0)
(0.105774 0.203524 0)
(0.0843468 0.225289 0)
(0.0575618 0.242519 0)
(0.0272089 0.253434 0)
(-0.00422046 0.256758 0)
(-0.0341714 0.252442 0)
(-0.0603623 0.241234 0)
(-0.0811624 0.224525 0)
(-0.0956112 0.203971 0)
(-0.103497 0.181108 0)
(-0.105062 0.157147 0)
(-0.10095 0.132479 0)
(0.149385 0.132254 0)
(0.15056 0.156967 0)
(0.144892 0.182948 0)
(0.13257 0.20921 0)
(0.113492 0.234243 0)
(0.088149 0.256106 0)
(0.0577602 0.272886 0)
(0.0242815 0.282863 0)
(-0.00990709 0.285239 0)
(-0.0423119 0.280031 0)
(-0.0708494 0.26815 0)
(-0.0939308 0.250886 0)
(-0.110754 0.229891 0)
(-0.121047 0.206675 0)
(-0.125066 0.182382 0)
(-0.123528 0.157476 0)
(0.172253 0.159638 0)
(0.169083 0.186032 0)
(0.158969 0.213388 0)
(0.142192 0.240473 0)
(0.118812 0.265596 0)
(0.0895387 0.286931 0)
(0.0557317 0.302622 0)
(0.0193178 0.311406 0)
(-0.0173412 0.312621 0)
(-0.052022 0.30652 0)
(-0.0827386 0.293959 0)
(-0.108133 0.276319 0)
(-0.127358 0.255059 0)
(-0.140265 0.23164 0)
(-0.147049 0.207287 0)
(-0.148474 0.182349 0)
(0.193902 0.189826 0)
(0.185706 0.217607 0)
(0.170614 0.245822 0)
(0.149 0.273023 0)
(0.121199 0.297536 0)
(0.088059 0.317623 0)
(0.0510156 0.331782 0)
(0.0119921 0.338985 0)
(-0.0269235 0.338882 0)
(-0.0636305 0.331784 0)
(-0.0964409 0.318573 0)
(-0.124059 0.300579 0)
(-0.145849 0.27916 0)
(-0.161555 0.255689 0)
(-0.171397 0.231263 0)
(-0.176152 0.206405 0)
(0.213259 0.223251 0)
(0.199372 0.251914 0)
(0.178749 0.280325 0)
(0.152084 0.306867 0)
(0.119831 0.329972 0)
(0.083038 0.348161 0)
(0.0430881 0.360225 0)
(0.00172828 0.36549 0)
(-0.039058 0.363818 0)
(-0.0775929 0.355575 0)
(-0.112312 0.341699 0)
(-0.142234 0.323312 0)
(-0.166653 0.301764 0)
(-0.185419 0.278169 0)
(-0.198592 0.253663 0)
(-0.207044 0.228655 0)
(0.228945 0.26046 0)
(0.208593 0.289402 0)
(0.182068 0.31711 0)
(0.150176 0.342003 0)
(0.113654 0.362741 0)
(0.0735512 0.378208 0)
(0.0311403 0.387604 0)
(-0.0120067 0.390521 0)
(-0.0543737 0.387016 0)
(-0.0944131 0.377561 0)
(-0.131007 0.362879 0)
(-0.163158 0.344063 0)
(-0.19038 0.322124 0)
(-0.21238 0.298236 0)
(-0.229296 0.273316 0)
(-0.24176 0.247908 0)
(0.238377 0.302108 0)
(0.210994 0.330253 0)
(0.178384 0.355962 0)
(0.141545 0.377886 0)
(0.101281 0.395129 0)
(0.0585071 0.407024 0)
(0.0143295 0.413149 0)
(-0.0301169 0.413342 0)
(-0.0735151 0.407792 0)
(-0.114785 0.396888 0)
(-0.152971 0.381301 0)
(-0.187396 0.361777 0)
(-0.217516 0.339248 0)
(-0.243154 0.314494 0)
(-0.26417 0.288542 0)
(-0.281147 0.261786 0)
(0.237643 0.348095 0)
(0.202926 0.373664 0)
(0.164749 0.395376 0)
(0.123899 0.412658 0)
(0.0809669 0.425177 0)
(0.0366633 0.432687 0)
(-0.00825399 0.435048 0)
(-0.0529713 0.432256 0)
(-0.0966996 0.424448 0)
(-0.138685 0.411942 0)
(-0.178277 0.395149 0)
(-0.214895 0.374613 0)
(-0.248112 0.350911 0)
(-0.277594 0.32472 0)
(-0.303202 0.296651 0)
(-0.325172 0.267144 0)
(0.219249 0.392684 0)
(0.179704 0.412284 0)
(0.138428 0.427912 0)
(0.0958183 0.43942 0)
(0.0522862 0.446696 0)
(0.0082506 0.44967 0)
(-0.0358645 0.448313 0)
(-0.0796342 0.442639 0)
(-0.122637 0.432702 0)
(-0.164459 0.418598 0)
(-0.204697 0.400463 0)
(-0.242963 0.378471 0)
(-0.27889 0.352834 0)
(-0.312131 0.323799 0)
(-0.342365 0.291645 0)
(-0.369303 0.256683 0)
(-0.00207608 0.00292077 0)
(-0.00406331 0.00536032 0)
(-0.00615513 0.00716707 0)
(-0.00849495 0.00831534 0)
(-0.0110841 0.0086918 0)
(-0.013812 0.00820317 0)
(-0.0163913 0.00678379 0)
(-0.0185238 0.00452084 0)
(-0.0197599 0.00163832 0)
(-0.0198312 -0.00141397 0)
(-0.0185038 -0.00404901 0)
(-0.0160594 -0.00577499 0)
(-0.0129302 -0.0063424 0)
(-0.00950803 -0.00576025 0)
(-0.006124 -0.00426894 0)
(-0.00288846 -0.00217916 0)
(-0.00934151 0.0127921 0)
(-0.0150845 0.0189876 0)
(-0.0212557 0.0233531 0)
(-0.0280295 0.0257076 0)
(-0.0354127 0.025897 0)
(-0.04296 0.0236798 0)
(-0.0499969 0.0190207 0)
(-0.055544 0.012194 0)
(-0.0586217 0.00391585 0)
(-0.0585405 -0.00460582 0)
(-0.055 -0.0119583 0)
(-0.0486168 -0.0169848 0)
(-0.0403602 -0.0190604 0)
(-0.0312474 -0.0181935 0)
(-0.0219839 -0.0147954 0)
(-0.0128865 -0.00949266 0)
(-0.019356 0.0259839 0)
(-0.0285902 0.034745 0)
(-0.038499 0.0404559 0)
(-0.0494007 0.0430604 0)
(-0.061044 0.0422326 0)
(-0.0727265 0.0377175 0)
(-0.0832667 0.0295517 0)
(-0.0913201 0.0183053 0)
(-0.0954892 0.00514972 0)
(-0.0950761 -0.00814118 0)
(-0.0896643 -0.0195864 0)
(-0.0802105 -0.0276412 0)
(-0.0680518 -0.0314819 0)
(-0.0544765 -0.0310196 0)
(-0.0405103 -0.0267514 0)
(-0.0265625 -0.0193882 0)
(-0.0320365 0.0421424 0)
(-0.0444283 0.052193 0)
(-0.0578638 0.0582387 0)
(-0.0724539 0.060138 0)
(-0.0878076 0.0575643 0)
(-0.102861 0.0502681 0)
(-0.116162 0.0384482 0)
(-0.125936 0.0229576 0)
(-0.130719 0.00537287 0)
(-0.129663 -0.0120863 0)
(-0.122674 -0.0271283 0)
(-0.110861 -0.0380025 0)
(-0.0957448 -0.0437603 0)
(-0.078834 -0.0442817 0)
(-0.061241 -0.0399991 0)
(-0.0434357 -0.0316186 0)
(-0.0472079 0.0607318 0)
(-0.0625737 0.0709952 0)
(-0.0791691 0.0763262 0)
(-0.0970828 0.0767198 0)
(-0.115567 0.0717605 0)
(-0.133331 0.0613002 0)
(-0.148559 0.0457293 0)
(-0.159383 0.0261884 0)
(-0.164354 0.00460638 0)
(-0.162577 -0.0165575 0)
(-0.15425 -0.0348096 0)
(-0.14063 -0.048334 0)
(-0.123363 -0.0561539 0)
(-0.103981 -0.0580588 0)
(-0.0837085 -0.0544617 0)
(-0.063025 -0.0460287 0)
(-0.0648346 0.08132 0)
(-0.0828702 0.0906719 0)
(-0.1024 0.0944309 0)
(-0.123141 0.0925421 0)
(-0.144178 0.0846552 0)
(-0.163925 0.0707357 0)
(-0.180468 0.0513857 0)
(-0.191809 0.0280057 0)
(-0.196568 0.00276899 0)
(-0.193963 -0.0216705 0)
(-0.184516 -0.0428283 0)
(-0.169546 -0.0588835 0)
(-0.15072 -0.0688393 0)
(-0.129634 -0.0724913 0)
(-0.107495 -0.0701565 0)
(-0.0847708 -0.0624712 0)
(-0.0847852 0.103312 0)
(-0.105352 0.110839 0)
(-0.127402 0.112158 0)
(-0.150553 0.107343 0)
(-0.173546 0.0960683 0)
(-0.194665 0.0784637 0)
(-0.211829 0.0553533 0)
(-0.223231 0.0283638 0)
(-0.227409 -0.000180793 0)
(-0.223996 -0.0275967 0)
(-0.213604 -0.051419 0)
(-0.197619 -0.069899 0)
(-0.177745 -0.0820957 0)
(-0.15552 -0.0877427 0)
(-0.132176 -0.0871434 0)
(-0.108169 -0.0809321 0)
(-0.107125 0.126205 0)
(-0.129908 0.130972 0)
(-0.154221 0.129141 0)
(-0.17924 0.120809 0)
(-0.203604 0.105771 0)
(-0.22541 0.0843413 0)
(-0.24271 0.0575251 0)
(-0.25365 0.0271374 0)
(-0.25706 -0.0044291 0)
(-0.252765 -0.0345125 0)
(-0.241573 -0.060811 0)
(-0.224842 -0.0816499 0)
(-0.204273 -0.0961374 0)
(-0.181373 -0.104027 0)
(-0.157353 -0.105561 0)
(-0.132624 -0.101387 0)
(-0.131871 0.14939 0)
(-0.156688 0.150583 0)
(-0.182775 0.144913 0)
(-0.209194 0.132567 0)
(-0.234309 0.113476 0)
(-0.256257 0.0881188 0)
(-0.273062 0.0577202 0)
(-0.283118 0.0241686 0)
(-0.285528 -0.0101185 0)
(-0.280358 -0.0426731 0)
(-0.268472 -0.0712863 0)
(-0.251206 -0.0944429 0)
(-0.230181 -0.111296 0)
(-0.20693 -0.121603 0)
(-0.182591 -0.125601 0)
(-0.15762 -0.123995 0)
(-0.159261 0.172251 0)
(-0.185752 0.169092 0)
(-0.213256 0.158975 0)
(-0.240448 0.14217 0)
(-0.265681 0.118776 0)
(-0.287064 0.0895045 0)
(-0.302833 0.0556559 0)
(-0.311647 0.0192022 0)
(-0.312919 -0.0175825 0)
(-0.306829 -0.0523674 0)
(-0.294277 -0.0831844 0)
(-0.276612 -0.108621 0)
(-0.255325 -0.127893 0)
(-0.231874 -0.140806 0)
(-0.207472 -0.147571 0)
(-0.182484 -0.14894 0)
(-0.189501 0.193877 0)
(-0.217379 0.185713 0)
(-0.24571 0.170586 0)
(-0.273025 0.148968 0)
(-0.297618 0.121147 0)
(-0.317783 0.0880009 0)
(-0.331975 0.0509384 0)
(-0.339239 0.0118423 0)
(-0.339156 -0.0271447 0)
(-0.332069 -0.0639703 0)
(-0.318857 -0.0968244 0)
(-0.30083 -0.124516 0)
(-0.279395 -0.146319 0)
(-0.255877 -0.162041 0)
(-0.231428 -0.171854 0)
(-0.206522 -0.176577 0)
(-0.222996 0.213247 0)
(-0.251763 0.199325 0)
(-0.280257 0.178727 0)
(-0.30689 0.152015 0)
(-0.330064 0.119783 0)
(-0.348298 0.0829729 0)
(-0.360417 0.0429986 0)
(-0.36571 0.00160878 0)
(-0.364048 -0.0392757 0)
(-0.355824 -0.0778463 0)
(-0.341914 -0.112649 0)
(-0.323532 -0.142574 0)
(-0.301925 -0.167032 0)
(-0.278341 -0.185773 0)
(-0.253781 -0.198955 0)
(-0.228791 -0.207351 0)
(-0.260334 0.228874 0)
(-0.289317 0.208566 0)
(-0.317094 0.181998 0)
(-0.342035 0.150132 0)
(-0.362817 0.113594 0)
(-0.378327 0.0734971 0)
(-0.387751 0.0310795 0)
(-0.390683 -0.0121177 0)
(-0.387197 -0.0545067 0)
(-0.37772 -0.094612 0)
(-0.363053 -0.131204 0)
(-0.344187 -0.163395 0)
(-0.322273 -0.190594 0)
(-0.298337 -0.212612 0)
(-0.273456 -0.229485 0)
(-0.247991 -0.241968 0)
(-0.302058 0.238335 0)
(-0.330236 0.210937 0)
(-0.355967 0.178344 0)
(-0.377918 0.141496 0)
(-0.395183 0.101244 0)
(-0.407098 0.0584727 0)
(-0.413236 0.0142844 0)
(-0.41344 -0.0301698 0)
(-0.407884 -0.0735995 0)
(-0.396988 -0.114874 0)
(-0.381384 -0.153079 0)
(-0.361869 -0.187494 0)
(-0.339321 -0.21762 0)
(-0.314594 -0.243232 0)
(-0.288615 -0.264257 0)
(-0.261886 -0.281214 0)
(-0.348092 0.237614 0)
(-0.373668 0.202902 0)
(-0.395388 0.164724 0)
(-0.412675 0.123879 0)
(-0.4252 0.0809487 0)
(-0.432715 0.0366472 0)
(-0.435079 -0.0082699 0)
(-0.432287 -0.0529929 0)
(-0.42448 -0.0967259 0)
(-0.411974 -0.138714 0)
(-0.395181 -0.178307 0)
(-0.374645 -0.214923 0)
(-0.350945 -0.248135 0)
(-0.324758 -0.27761 0)
(-0.296692 -0.303216 0)
(-0.267184 -0.325186 0)
(-0.392684 0.219249 0)
(-0.412284 0.179704 0)
(-0.427912 0.138428 0)
(-0.43942 0.0958183 0)
(-0.446696 0.0522862 0)
(-0.44967 0.0082506 0)
(-0.448313 -0.0358645 0)
(-0.442639 -0.0796342 0)
(-0.432702 -0.122637 0)
(-0.418598 -0.164459 0)
(-0.400463 -0.204697 0)
(-0.378471 -0.242963 0)
(-0.352834 -0.27889 0)
(-0.323799 -0.312131 0)
(-0.291645 -0.342365 0)
(-0.256683 -0.369303 0)
(-0.00291795 -0.00209158 0)
(-0.00535585 -0.00407961 0)
(-0.00716763 -0.00616768 0)
(-0.00830502 -0.00847792 0)
(-0.00868476 -0.0110567 0)
(-0.00820306 -0.0137916 0)
(-0.00679846 -0.0164288 0)
(-0.00452549 -0.0185413 0)
(-0.00164896 -0.0197772 0)
(0.00140126 -0.0198518 0)
(0.0040422 -0.0185328 0)
(0.00576477 -0.0160617 0)
(0.00634155 -0.0129359 0)
(0.00578522 -0.00954262 0)
(0.00430121 -0.00615741 0)
(0.00222188 -0.00292482 0)
(-0.0127906 -0.00939961 0)
(-0.018986 -0.0151366 0)
(-0.023348 -0.0212818 0)
(-0.0257228 -0.0280326 0)
(-0.0258848 -0.0353386 0)
(-0.0236931 -0.042936 0)
(-0.0190394 -0.0500067 0)
(-0.0122073 -0.0555925 0)
(-0.00394559 -0.0586737 0)
(0.00457194 -0.0586001 0)
(0.0119302 -0.0550552 0)
(0.0169788 -0.048685 0)
(0.0190945 -0.0404551 0)
(0.0182625 -0.0313525 0)
(0.0149042 -0.0221037 0)
(0.00960774 -0.0129848 0)
(-0.0259926 -0.0194565 0)
(-0.0347499 -0.028685 0)
(-0.0404726 -0.0385657 0)
(-0.0430644 -0.0493683 0)
(-0.0422346 -0.0609606 0)
(-0.0377408 -0.0726761 0)
(-0.0295861 -0.0833249 0)
(-0.0183289 -0.0913927 0)
(-0.0051956 -0.0955685 0)
(0.00808816 -0.0951663 0)
(0.0195546 -0.0897773 0)
(0.0276351 -0.080323 0)
(0.0315224 -0.0681872 0)
(0.0311295 -0.0546531 0)
(0.0269079 -0.0406865 0)
(0.0195691 -0.0267291 0)
(-0.0421658 -0.0321923 0)
(-0.0522124 -0.0445686 0)
(-0.0582548 -0.0579341 0)
(-0.0601707 -0.0724559 0)
(-0.057584 -0.0877238 0)
(-0.050308 -0.10283 0)
(-0.0384903 -0.116184 0)
(-0.0229922 -0.126024 0)
(-0.00543311 -0.13082 0)
(0.0120215 -0.129784 0)
(0.0270846 -0.122812 0)
(0.038011 -0.111042 0)
(0.0438356 -0.095967 0)
(0.0444175 -0.0790676 0)
(0.0402029 -0.0614877 0)
(0.0318513 -0.0436601 0)
(-0.0607755 -0.0474199 0)
(-0.0710262 -0.062752 0)
(-0.0763645 -0.0792827 0)
(-0.0767531 -0.097069 0)
(-0.0718026 -0.115509 0)
(-0.0613543 -0.133291 0)
(-0.0457802 -0.148621 0)
(-0.0262352 -0.159478 0)
(-0.00467828 -0.16447 0)
(0.0164813 -0.162717 0)
(0.0347712 -0.154439 0)
(0.0483482 -0.140855 0)
(0.0562298 -0.123619 0)
(0.0582172 -0.104271 0)
(0.054686 -0.0839945 0)
(0.0462937 -0.0632965 0)
(-0.0813818 -0.0651028 0)
(-0.0907191 -0.0830956 0)
(-0.0944702 -0.102517 0)
(-0.0925995 -0.123181 0)
(-0.0847148 -0.144142 0)
(-0.0708016 -0.163919 0)
(-0.0514524 -0.180494 0)
(-0.0280665 -0.191904 0)
(-0.00285238 -0.196689 0)
(0.0215882 -0.194121 0)
(0.0427812 -0.184719 0)
(0.0589057 -0.16981 0)
(0.068938 -0.151033 0)
(0.0726562 -0.129958 0)
(0.0703994 -0.107828 0)
(0.0627608 -0.0850841 0)
(-0.103395 -0.0851116 0)
(-0.110897 -0.105609 0)
(-0.112216 -0.127576 0)
(-0.107408 -0.150594 0)
(-0.0961434 -0.173546 0)
(-0.078543 -0.194651 0)
(-0.055421 -0.211887 0)
(-0.0284374 -0.223321 0)
(8.73491e-05 -0.227529 0)
(0.0275055 -0.224156 0)
(0.0513794 -0.213833 0)
(0.0699226 -0.197904 0)
(0.0821848 -0.178073 0)
(0.0879148 -0.155879 0)
(0.0873818 -0.132526 0)
(0.0812205 -0.108497 0)
(-0.1263 -0.107494 0)
(-0.131044 -0.13021 0)
(-0.129206 -0.154392 0)
(-0.120888 -0.179334 0)
(-0.105857 -0.203619 0)
(-0.0844193 -0.225432 0)
(-0.0576147 -0.242737 0)
(-0.0272239 -0.253731 0)
(0.00432597 -0.257172 0)
(0.0344203 -0.252927 0)
(0.0607588 -0.241795 0)
(0.081672 -0.225137 0)
(0.0962379 -0.204626 0)
(0.104189 -0.181739 0)
(0.105793 -0.157713 0)
(0.101685 -0.132975 0)
(-0.149489 -0.132269 0)
(-0.150661 -0.156993 0)
(-0.144989 -0.182991 0)
(-0.132658 -0.209278 0)
(-0.11357 -0.234346 0)
(-0.0882144 -0.25626 0)
(-0.0578074 -0.273106 0)
(-0.0242685 -0.283182 0)
(0.0100094 -0.285629 0)
(0.0425734 -0.280506 0)
(0.0712447 -0.268695 0)
(0.0944661 -0.251501 0)
(0.111381 -0.230529 0)
(0.121761 -0.207296 0)
(0.125826 -0.182958 0)
(0.124292 -0.157971 0)
(-0.17235 -0.159655 0)
(-0.169177 -0.186061 0)
(-0.159059 -0.213436 0)
(-0.142272 -0.240545 0)
(-0.118881 -0.265704 0)
(-0.089595 -0.287088 0)
(-0.0557626 -0.302848 0)
(-0.0193108 -0.311697 0)
(0.0174696 -0.313003 0)
(0.0522772 -0.306966 0)
(0.0831324 -0.294479 0)
(0.108633 -0.276892 0)
(0.127971 -0.255655 0)
(0.140948 -0.232232 0)
(0.147785 -0.207823 0)
(0.149232 -0.182842 0)
(-0.193987 -0.189846 0)
(-0.185789 -0.21764 0)
(-0.170691 -0.245873 0)
(-0.149068 -0.273099 0)
(-0.121257 -0.297645 0)
(-0.0881036 -0.317779 0)
(-0.0510433 -0.33199 0)
(-0.0119562 -0.339271 0)
(0.027037 -0.339224 0)
(0.06388 -0.332185 0)
(0.0967851 -0.319038 0)
(0.124518 -0.30108 0)
(0.14638 -0.279691 0)
(0.162158 -0.256194 0)
(0.172036 -0.231757 0)
(0.176845 -0.206842 0)
(-0.213326 -0.223273 0)
(-0.199437 -0.251949 0)
(-0.178809 -0.280376 0)
(-0.152136 -0.30694 0)
(-0.119875 -0.330076 0)
(-0.0830719 -0.348302 0)
(-0.0430968 -0.360419 0)
(-0.00171053 -0.365734 0)
(0.0391823 -0.364103 0)
(0.0777841 -0.355918 0)
(0.112612 -0.342068 0)
(0.142586 -0.32373 0)
(0.167078 -0.30217 0)
(0.185873 -0.278595 0)
(0.199099 -0.25406 0)
(0.207563 -0.229047 0)
(-0.228991 -0.260482 0)
(-0.208637 -0.289435 0)
(-0.182109 -0.317157 0)
(-0.150212 -0.342069 0)
(-0.113683 -0.362829 0)
(-0.0735715 -0.378326 0)
(-0.0311563 -0.387756 0)
(0.0120432 -0.390703 0)
(0.0544469 -0.387239 0)
(0.0945736 -0.377796 0)
(0.1312 -0.363159 0)
(0.163416 -0.344336 0)
(0.190654 -0.322433 0)
(0.212685 -0.29853 0)
(0.229587 -0.273644 0)
(0.242095 -0.248186 0)
(-0.238402 -0.302127 0)
(-0.211017 -0.33028 0)
(-0.178406 -0.355998 0)
(-0.141564 -0.377933 0)
(-0.101296 -0.395189 0)
(-0.0585209 -0.407101 0)
(-0.0143298 -0.413243 0)
(0.0301303 -0.413457 0)
(0.0735728 -0.407914 0)
(0.114867 -0.397033 0)
(0.153092 -0.381447 0)
(0.187528 -0.361946 0)
(0.217667 -0.339412 0)
(0.24329 -0.314692 0)
(0.264312 -0.288726 0)
(0.281275 -0.262004 0)
(-0.237651 -0.348105 0)
(-0.202933 -0.373678 0)
(-0.164756 -0.395393 0)
(-0.123905 -0.412679 0)
(-0.0809711 -0.425203 0)
(-0.0366666 -0.432717 0)
(0.00825376 -0.435084 0)
(0.0529809 -0.432296 0)
(0.0967205 -0.424493 0)
(0.138717 -0.411991 0)
(0.178319 -0.395202 0)
(0.214943 -0.37467 0)
(0.24816 -0.350972 0)
(0.277638 -0.324787 0)
(0.303228 -0.296746 0)
(0.325209 -0.267221 0)
(-0.219249 -0.392684 0)
(-0.179704 -0.412284 0)
(-0.138428 -0.427912 0)
(-0.0958183 -0.43942 0)
(-0.0522862 -0.446696 0)
(-0.0082506 -0.44967 0)
(0.0358645 -0.448313 0)
(0.0796342 -0.442639 0)
(0.122637 -0.432702 0)
(0.164459 -0.418598 0)
(0.204697 -0.400463 0)
(0.242963 -0.378471 0)
(0.27889 -0.352834 0)
(0.312131 -0.323799 0)
(0.342365 -0.291645 0)
(0.369303 -0.256683 0)
)
;

boundaryField
{
    walls
    {
        type            cellMotion;
        value           uniform (0 0 0);
    }
    cylinder
    {
        type            cellMotion;
        value           nonuniform List<vector> 
64
(
(0.392684 -0.219249 0)
(0.412284 -0.179704 0)
(0.427912 -0.138428 0)
(0.43942 -0.0958183 0)
(0.446696 -0.0522862 0)
(0.44967 -0.0082506 0)
(0.448313 0.0358645 0)
(0.442639 0.0796342 0)
(0.432702 0.122637 0)
(0.418598 0.164459 0)
(0.400463 0.204697 0)
(0.378471 0.242963 0)
(0.352834 0.27889 0)
(0.323799 0.312131 0)
(0.291645 0.342365 0)
(0.256683 0.369303 0)
(0.219249 0.392684 0)
(0.179704 0.412284 0)
(0.138428 0.427912 0)
(0.0958183 0.43942 0)
(0.0522862 0.446696 0)
(0.0082506 0.44967 0)
(-0.0358645 0.448313 0)
(-0.0796342 0.442639 0)
(-0.122637 0.432702 0)
(-0.164459 0.418598 0)
(-0.204697 0.400463 0)
(-0.242963 0.378471 0)
(-0.27889 0.352834 0)
(-0.312131 0.323799 0)
(-0.342365 0.291645 0)
(-0.369303 0.256683 0)
(-0.392684 0.219249 0)
(-0.412284 0.179704 0)
(-0.427912 0.138428 0)
(-0.43942 0.0958183 0)
(-0.446696 0.0522862 0)
(-0.44967 0.0082506 0)
(-0.448313 -0.0358645 0)
(-0.442639 -0.0796342 0)
(-0.432702 -0.122637 0)
(-0.418598 -0.164459 0)
(-0.400463 -0.204697 0)
(-0.378471 -0.242963 0)
(-0.352834 -0.27889 0)
(-0.323799 -0.312131 0)
(-0.291645 -0.342365 0)
(-0.256683 -0.369303 0)
(-0.219249 -0.392684 0)
(-0.179704 -0.412284 0)
(-0.138428 -0.427912 0)
(-0.0958183 -0.43942 0)
(-0.0522862 -0.446696 0)
(-0.0082506 -0.44967 0)
(0.0358645 -0.448313 0)
(0.0796342 -0.442639 0)
(0.122637 -0.432702 0)
(0.164459 -0.418598 0)
(0.204697 -0.400463 0)
(0.242963 -0.378471 0)
(0.27889 -0.352834 0)
(0.312131 -0.323799 0)
(0.342365 -0.291645 0)
(0.369303 -0.256683 0)
)
;
    }
    outlet
    {
        type            cellMotion;
        value           uniform (0 0 0);
    }
    inlet
    {
        type            cellMotion;
        value           uniform (0 0 0);
    }
    frontAndBack
    {
        type            empty;
    }
}


// ************************************************************************* //
