/*--------------------------------*- C++ -*----------------------------------*\
| =========                 |                                                 |
| \\      /  F ield         | OpenFOAM: The Open Source CFD Toolbox           |
|  \\    /   O peration     | Version:  2412                                  |
|   \\  /    A nd           | Website:  www.openfoam.com                      |
|    \\/     M anipulation  |                                                 |
\*---------------------------------------------------------------------------*/
FoamFile
{
    version     2.0;
    format      ascii;
    arch        "LSB;label=32;scalar=64";
    class       surfaceScalarField;
    location    "0.7";
    object      meshPhi;
}
// * * * * * * * * * * * * * * * * * * * * * * * * * * * * * * * * * * * * * //

dimensions      [0 3 -1 0 0 0 0];

internalField   nonuniform List<scalar> 
1984
(
0.00177193
-0.00367765
-0.00175288
0.00183064
-0.00455032
0.00192387
-0.00552578
0.00194487
-0.00607954
0.00191994
-0.0061626
0.00186261
-0.00578051
0.0018755
-0.00494342
0.00202021
-0.00363608
0.00229931
-0.00177312
0.00255042
0.000361105
0.00259597
0.00224469
0.00243392
0.0035092
0.00204655
0.00393184
0.00153271
0.00363416
0.00104951
0.00311898
0.00281113
0.000839412
0.00526976
-0.00751816
-0.00519144
0.00550835
-0.00902386
0.00575213
-0.0106142
0.00582044
-0.0114288
0.00576869
-0.0114565
0.00566025
-0.0106936
0.00570819
-0.0091149
0.00605822
-0.00663812
0.00672963
-0.00321309
0.00735297
0.000581443
0.00746337
0.00384456
0.00703
0.00603296
0.00603173
0.00689976
0.00469827
0.0066394
0.00335649
0.00588831
0.00528062
0.00271681
0.00872187
-0.0114194
-0.0086339
0.00921499
-0.0132935
0.00954103
-0.0152508
0.00964792
-0.0161418
0.009606
-0.0160429
0.00950934
-0.0148762
0.00959347
-0.0125652
0.0100117
-0.00904817
0.0108374
-0.00437817
0.0116325
0.00062577
0.0117687
0.00486038
0.0111645
0.00772292
0.00983222
0.00901999
0.0080256
0.0089777
0.00604896
0.00817245
0.00737439
0.0050476
0.012246
-0.0153019
-0.01222
0.0129547
-0.0173122
0.0133242
-0.019326
0.013451
-0.0201233
0.013431
-0.019779
0.0133536
-0.0181632
0.0134335
-0.0151802
0.0138486
-0.0107968
0.0146925
-0.00519741
0.0154979
0.000644217
0.0156164
0.00551605
0.01493
0.00883808
0.0134766
0.0105158
0.0114617
0.0107516
0.00910364
0.0100389
0.00920913
0.00791305
0.0159971
-0.019113
-0.0161114
0.0168213
-0.0210654
0.0171907
-0.0229564
0.0173039
-0.0235288
0.0172898
-0.0228588
0.0171926
-0.0207661
0.0171981
-0.0171008
0.0175705
-0.0119538
0.0183585
-0.00570455
0.0190774
0.000619026
0.0191569
0.0058621
0.0184722
0.00951674
0.0170518
0.0115227
0.0150281
0.0120424
0.0125508
0.0115008
0.0107686
0.0113856
0.0200865
-0.0226165
-0.0203851
0.0208887
-0.0244215
0.021195
-0.0259664
0.0212292
-0.0261571
0.0211717
-0.0250524
0.0210112
-0.0224896
0.0209074
-0.0182879
0.0211901
-0.01259
0.021855
-0.00594382
0.0224653
0.000606168
0.0225243
0.00600989
0.0219093
0.00986397
0.0206469
0.0121321
0.0187923
0.0129176
0.0164263
0.012601
0.0120262
0.0154796
0.0244108
-0.0253084
-0.024885
0.0251598
-0.0269688
0.0253629
-0.0282147
0.0252399
-0.0279935
0.0250441
-0.0264065
0.0247829
-0.0234005
0.0245889
-0.0188082
0.0247392
-0.0127884
0.0252133
-0.00598296
0.0257469
0.00058612
0.0258234
0.00600107
0.0253507
0.00997136
0.0243815
0.0124541
0.0228073
0.0134286
0.0206321
0.01322
0.0126879
0.0199269
0.028853
-0.0271663
-0.0295521
0.0296012
-0.0285584
0.0296811
-0.0294439
0.0293553
-0.0288456
0.0289057
-0.0268348
0.0284949
-0.0234193
0.0282482
-0.0186026
0.0282422
-0.0125752
0.0284656
-0.00589206
0.028906
0.000500683
0.0290432
0.00576474
0.0287626
0.00971662
0.0282162
0.0122929
0.0270245
0.0133972
0.0250363
0.0132897
0.0127857
0.0244969
0.0337538
-0.0285918
-0.0348569
0.0342555
-0.029343
0.0341387
-0.0295575
0.0335963
-0.0285644
0.0328623
-0.0262633
0.0322289
-0.0226326
0.03189
-0.0177766
0.0317094
-0.0119861
0.0316665
-0.00568966
0.0319327
0.000344566
0.0321211
0.00539189
0.0320379
0.00925338
0.0319079
0.0117806
0.0312989
0.0128957
0.0297559
0.0129152
0.0125868
0.0295335
0.0395255
-0.0291367
-0.0411894
0.0393585
-0.0292787
0.038825
-0.0286804
0.0379903
-0.0272009
0.036985
-0.0247565
0.0360283
-0.0211386
0.0354459
-0.0164136
0.0351076
-0.0110504
0.0349344
-0.00538319
0.0350766
0.000139633
0.0353184
0.00491357
0.0354751
0.00861144
0.0356357
0.0110113
0.0356724
0.0121491
0.034976
0.0123743
0.0122949
0.0355278
0.0460156
-0.0283638
-0.048296
0.0449507
-0.0280729
0.0437277
-0.0268012
0.0424292
-0.0248398
0.0411213
-0.0222883
0.0398243
-0.0188817
0.0388589
-0.0145502
0.038371
-0.00970492
0.0382768
-0.00473901
0.0384798
7.00346e-05
0.0389052
0.00433397
0.0394279
0.00770004
0.040003
0.00998086
0.0406608
0.011223
0.0409968
0.0116776
0.0117656
0.0426255
0.0528165
-0.026028
-0.0557408
0.0508186
-0.0254742
0.0487624
-0.0237011
0.0468777
-0.0214094
0.0451772
-0.0188172
0.0435952
-0.0157489
0.042293
-0.0120602
0.0416479
-0.00792935
0.0416744
-0.0037739
0.0420849
0.000144378
0.0428408
0.00365978
0.0439137
0.0065376
0.0452387
0.00861549
0.0467168
0.00989879
0.048131
0.0105019
0.0107072
0.0508104
0.0598182
-0.0217864
-0.0634585
0.0568487
-0.0210599
0.0539433
-0.0190876
0.0513704
-0.0167874
0.0491415
-0.0143548
0.0472852
-0.0117429
0.04583
-0.00885311
0.0451039
-0.00570823
0.0451836
-0.00253016
0.0458748
0.000456226
0.0470933
0.00312078
0.0488706
0.00536095
0.0511146
0.00705896
0.0536469
0.00822906
0.0562729
0.00890155
0.00915818
0.0599939
0.0670485
-0.0152941
-0.0715374
0.0630222
-0.0145398
0.059187
-0.0127623
0.0557888
-0.0108538
0.0529419
-0.00894422
0.0507181
-0.00701075
0.0491741
-0.00500878
0.0484638
-0.00292398
0.0486871
-0.000845898
0.0497419
0.00110299
0.051572
0.00285876
0.0541285
0.00435947
0.0573163
0.00555268
0.0609492
0.00644256
0.0648914
0.00702153
0.00729631
0.0696696
0.0737404
-0.00640654
-0.0791869
0.0684174
-0.00580738
0.0635408
-0.0048078
0.0593403
-0.0038047
0.0559253
-0.00282496
0.0533691
-0.00184687
0.0517682
-0.000867143
0.0511821
0.000100596
0.0516563
0.00103872
0.0531225
0.00193018
0.0555577
0.00275207
0.0588647
0.00347853
0.062952
0.00409255
0.067657
0.00458517
0.0728309
0.00495024
0.00520591
0.0785071
0.0707998
-0.07737
0.0646785
0.0593996
0.0550794
0.0517746
0.0495314
0.04838
0.0483156
0.0492947
0.0512549
0.0541146
0.0577664
0.0620795
0.066899
0.0720277
0.077263
0.000856121
-0.00169498
0.000972776
-0.0024478
0.00112097
-0.00338489
0.00125221
-0.00405932
0.00148798
-0.00449006
0.00174761
-0.0046627
0.0018434
-0.00425979
0.00188372
-0.00328141
0.00209457
-0.00202914
0.00236213
-0.000575098
0.00235652
0.000922054
0.00210716
0.00203517
0.00178733
0.00253416
0.00144686
0.00254714
0.000974237
0.00220912
0.00169043
0.000647925
0.00276311
-0.00411451
0.00317799
-0.00546971
0.00357233
-0.00709143
0.00391443
-0.00810229
0.00454039
-0.00862522
0.00523374
-0.00865931
0.00553233
-0.0077657
0.00562836
-0.00591331
0.00614123
-0.00355937
0.00681315
-0.000958175
0.00680158
0.00160713
0.00617181
0.00355039
0.00534664
0.00452931
0.00442184
0.00466148
0.00308062
0.00407052
0.00309674
0.00216108
0.00513932
-0.00712815
0.00584347
-0.00887245
0.00640832
-0.0108693
0.00691118
-0.0120548
0.00775144
-0.0125032
0.00869601
-0.0121864
0.0091695
-0.0106939
0.00933043
-0.00801984
0.00997251
-0.00475186
0.0108105
-0.00128268
0.0107917
0.00205367
0.00998434
0.00462256
0.00888155
0.00601231
0.00753314
0.00628881
0.00550292
0.00554477
0.00427778
0.00415433
0.00801562
-0.0104861
0.00892274
-0.0124007
0.00961081
-0.0145539
0.0102333
-0.0157192
0.0111445
-0.0159051
0.012158
-0.01506
0.01273
-0.0128962
0.0129827
-0.00951363
0.0136594
-0.00552848
0.0144731
-0.00142611
0.0144351
0.00240688
0.0135827
0.00537295
0.0123515
0.00705258
0.0107202
0.0074485
0.00823225
0.00666102
0.00529172
0.00668601
0.011444
-0.0140684
0.0124367
-0.0160005
0.0131635
-0.0180325
0.0138435
-0.0190036
0.0147336
-0.0188459
0.0156693
-0.0174281
0.0162243
-0.0145676
0.0165618
-0.0105114
0.0172267
-0.00598794
0.0179155
-0.00149647
0.0178424
0.0026248
0.017019
0.00583343
0.0157642
0.0077147
0.0140038
0.00823561
0.0113211
0.00752055
0.00623305
0.00981735
0.0154327
-0.0175885
0.016392
-0.0194082
0.0170666
-0.0211803
0.0176962
-0.0217728
0.0184723
-0.02108
0.0192337
-0.0190394
0.0196921
-0.0155729
0.0200628
-0.0110263
0.0206608
-0.00614751
0.0212086
-0.00142877
0.0211091
0.00280159
0.0203615
0.00609555
0.0191999
0.00809907
0.0174513
0.00872725
0.0147861
0.00814171
0.0070722
0.0135687
0.0197745
-0.0204528
0.0207396
-0.022265
0.0213074
-0.023777
0.02176
-0.0238829
0.0222998
-0.0225587
0.0228332
-0.0199077
0.0231847
-0.0160017
0.0235123
-0.0111586
0.0239741
-0.00608247
0.0244205
-0.00127558
0.024323
0.00294448
0.0237078
0.00623908
0.0227261
0.00829071
0.0210496
0.00896123
0.0185521
0.00851527
0.00769183
0.017746
0.0242117
-0.022456
0.0252995
-0.0241483
0.0258146
-0.0254821
0.0260312
-0.0251996
0.026204
-0.0232645
0.0264665
-0.0200088
0.0267272
-0.0158078
0.0269469
-0.0109425
0.0271932
-0.00586799
0.0275212
-0.00107851
0.0274598
0.00302004
0.0269975
0.00617037
0.0262795
0.00817221
0.0248523
0.00894215
0.0226714
0.00872966
0.00817572
0.0222462
0.0289685
-0.0239957
0.0300459
-0.0253481
0.0304825
-0.02623
0.0304716
-0.0255375
0.0302671
-0.0231472
0.0302059
-0.0194402
0.0303237
-0.0150842
0.0303764
-0.0103872
0.0303691
-0.00550544
0.030487
-0.000846223
0.0304444
0.00308726
0.0301278
0.00604908
0.0297418
0.00796267
0.0289067
0.00881876
0.0273791
0.00889768
0.00873238
0.0274857
0.0345917
-0.0249829
0.0352247
-0.0258976
0.0353616
-0.0260933
0.0350726
-0.0248968
0.0345275
-0.0221821
0.0340577
-0.0183008
0.0338862
-0.0139488
0.0337657
-0.00954817
0.0336069
-0.00505494
0.0335514
-0.000642519
0.0335558
0.00316752
0.0334833
0.00602476
0.0334089
0.0078692
0.0333355
0.00884542
0.0328755
0.00924859
0.00943868
0.0338735
0.0411785
-0.0249772
0.0410471
-0.0254806
0.0405829
-0.0249852
0.0397847
-0.0232401
0.0388231
-0.0202948
0.0379223
-0.0165284
0.037312
-0.0124186
0.0370235
-0.00832525
0.0368905
-0.00425926
0.0369008
-0.000239154
0.0371387
0.00327755
0.0375043
0.00598067
0.0379427
0.0078531
0.0386275
0.00903267
0.039317
0.00969924
0.0100372
0.0413661
0.0486518
-0.0237056
0.047545
-0.0237706
0.0461822
-0.0226175
0.0446222
-0.0204154
0.0431225
-0.0173949
0.041822
-0.0139567
0.0408016
-0.0103579
0.0403239
-0.00673576
0.040287
-0.00316805
0.0405522
0.000261506
0.0412101
0.0033074
0.0422214
0.00577774
0.0435245
0.00764071
0.0450904
0.008952
0.0468525
0.00972768
0.0100766
0.0498717
0.0569052
-0.020535
0.0546017
-0.0202051
0.0521267
-0.0186005
0.0496581
-0.0162558
0.0474941
-0.0134847
0.0457785
-0.0105757
0.0445457
-0.00770128
0.0439187
-0.00482142
0.0439609
-0.00193338
0.0445497
0.000808982
0.0457584
0.00326973
0.0475412
0.0053333
0.0497942
0.00699739
0.0524211
0.00826656
0.0553325
0.00903113
0.00935626
0.0592752
0.0655224
-0.0148354
0.0618483
-0.0142732
0.0581466
-0.0126191
0.0547319
-0.0106508
0.0518535
-0.00855266
0.0497001
-0.00646365
0.0482825
-0.0044448
0.0476312
-0.00244745
0.0478177
-0.00046793
0.0488324
0.00141458
0.05066
0.00311618
0.0532439
0.00459058
0.0564128
0.00583023
0.0601217
0.00681784
0.0642494
0.00744279
0.007735
0.0691513
0.0732114
-0.00633828
0.0679869
-0.00576771
0.0631229
-0.00479151
0.0588858
-0.00376632
0.0554405
-0.00273683
0.0529193
-0.00172
0.0513591
-0.000731711
0.0508026
0.000222631
0.0512431
0.00114974
0.0527065
0.00203473
0.0551263
0.00285447
0.0584477
0.00358905
0.0625162
0.00422743
0.0672526
0.00475756
0.0725145
0.00513991
0.00538549
0.0782612
0.0707145
0.064607
0.0593253
0.0549936
0.051685
0.0494453
0.0483036
0.0482405
0.049214
0.0511713
0.054029
0.0576798
0.0619925
0.0668164
0.071967
0.07722
0.000720228
-0.00211469
0.00101507
-0.00315911
0.00131115
-0.00437974
0.00159257
-0.00531166
0.00180707
-0.00591824
0.00184219
-0.00590234
0.00188086
-0.00515669
0.00203817
-0.00383804
0.00233586
-0.0019556
0.0026113
0.000184545
0.00268481
0.00207138
0.00254919
0.00334857
0.00217896
0.00379755
0.00167603
0.00354169
0.00120573
0.0030915
0.00287005
0.00101619
0.0023917
-0.00493269
0.00324747
-0.0067912
0.00402377
-0.00878821
0.00480714
-0.0101676
0.00540852
-0.0110043
0.00558005
-0.0108454
0.00571383
-0.00946624
0.00610425
-0.00699476
0.00682932
-0.00354068
0.00752262
0.000266823
0.00771411
0.00353818
0.00735888
0.00574999
0.00641823
0.00666438
0.00512657
0.00648043
0.00382725
0.00584533
0.00537956
0.00324767
0.00456587
-0.00831412
0.00585701
-0.0107112
0.00697311
-0.0131208
0.00810022
-0.0146773
0.00898175
-0.0154635
0.00933908
-0.0149984
0.00958075
-0.0129741
0.0100711
-0.00949408
0.0109815
-0.00479906
0.0118866
0.000218016
0.012151
0.00446187
0.0116738
0.00735343
0.0104458
0.00871198
0.00872134
0.00877154
0.00682096
0.0081179
0.0074897
0.0059139
0.0072449
-0.0119439
0.00886084
-0.0146345
0.0102062
-0.0171758
0.0115193
-0.0186239
0.0125646
-0.0191196
0.0130754
-0.0182177
0.0133861
-0.0155829
0.013908
-0.0112784
0.0148644
-0.00566868
0.0158141
0.000181756
0.0161014
0.00506062
0.0155864
0.00841203
0.0142838
0.0101574
0.0123943
0.010509
0.0101476
0.00996753
0.00931626
0.00908219
0.0104679
-0.0156969
0.0122814
-0.0184548
0.0137356
-0.020855
0.0151089
-0.02204
0.0162205
-0.0221352
0.0168011
-0.0207256
0.0171042
-0.0174438
0.0176194
-0.0124177
0.0185451
-0.00618253
0.0194366
0.000137356
0.0197183
0.00537965
0.0192431
0.00905831
0.0180163
0.01113
0.0161593
0.0117687
0.013828
0.0114039
0.0108422
0.0128152
0.0142519
-0.0192271
0.0161163
-0.0218808
0.017565
-0.0239701
0.0188696
-0.0247065
0.0199457
-0.0242599
0.0205126
-0.0223302
0.0207604
-0.0185309
0.0212209
-0.0129958
0.0220461
-0.00639469
0.0228514
0.000134195
0.0231381
0.00552551
0.0227632
0.00939361
0.0217297
0.0117191
0.0200775
0.0126165
0.0178883
0.0124683
0.0120427
0.0171149
0.0184294
-0.0220206
0.0203208
-0.0245441
0.0216836
-0.0262994
0.0228029
-0.0265539
0.0237095
-0.0255354
0.0241903
-0.0231068
0.0243865
-0.0189258
0.0247461
-0.0131061
0.0254002
-0.00637877
0.0261447
0.000148127
0.0264661
0.00553611
0.0262554
0.00950696
0.0255424
0.0120329
0.0241986
0.0131038
0.0222242
0.0130433
0.01263
0.0217057
0.0228267
-0.0239217
0.0247758
-0.0261265
0.0260564
-0.0275809
0.0269235
-0.0274417
0.0275138
-0.0259051
0.0278293
-0.0229994
0.0279941
-0.0185844
0.0282224
-0.0127855
0.0286412
-0.00621319
0.0293013
0.0001151
0.0296924
0.00533671
0.0296877
0.00927404
0.0294142
0.0118758
0.0284698
0.0130541
0.0266976
0.0130655
0.0126447
0.0263498
0.0277066
-0.0253396
0.0294758
-0.0269153
0.0305994
-0.0277772
0.0312108
-0.0272338
0.0314475
-0.0253297
0.0315093
-0.0221224
0.0315897
-0.0176377
0.031661
-0.0120887
0.0318232
-0.0059272
0.0323106
2.40848e-05
0.0327538
0.00501517
0.0329488
0.00884765
0.0330946
0.0113815
0.0327375
0.0125444
0.0314153
0.0126479
0.0123667
0.0313823
0.0335248
-0.0260188
0.0346527
-0.026933
0.0353678
-0.0270216
0.0356416
-0.0259922
0.0355511
-0.0238687
0.0352608
-0.0205836
0.0351015
-0.0161788
0.0350277
-0.0110523
0.0350637
-0.00553477
0.0354218
-0.000108797
0.0359083
0.00459879
0.0363296
0.00825647
0.0367523
0.0106457
0.0370308
0.0118055
0.0365492
0.0120797
0.0120148
0.0372808
0.0402929
-0.0255075
0.0404753
-0.0258865
0.040434
-0.025277
0.0401547
-0.023745
0.0396845
-0.0214625
0.0390146
-0.0183167
0.0384686
-0.0142507
0.0382532
-0.00962372
0.0383683
-0.00480985
0.0387751
-0.000102971
0.0394215
0.00409019
0.0401781
0.00740951
0.0409835
0.00966707
0.0418572
0.0109096
0.0423908
0.0113824
0.0114611
0.044183
0.0478961
-0.0236459
0.0469354
-0.0235684
0.0458616
-0.0223485
0.0448154
-0.0204284
0.0438126
-0.0180716
0.0427794
-0.0152158
0.0418677
-0.0117397
0.0414892
-0.00779283
0.0417169
-0.0037749
0.0423099
4.67064e-05
0.0432514
0.00349411
0.0445131
0.00632449
0.046022
0.00837267
0.0476773
0.00964176
0.0492588
0.0102413
0.0104251
0.0520784
0.056262
-0.0200275
0.053978
-0.0196357
0.0517204
-0.0180471
0.0497105
-0.0160117
0.0479812
-0.0137614
0.046546
-0.0113067
0.0454134
-0.00856828
0.0449209
-0.0055582
0.0451761
-0.00248676
0.0460158
0.000422036
0.0473749
0.00303109
0.0492878
0.00523092
0.051663
0.00690011
0.0543244
0.00805041
0.0570753
0.00870914
0.00894307
0.0609039
0.0650493
-0.0143262
0.0613431
-0.0137738
0.0578049
-0.0121822
0.0546945
-0.010408
0.0521312
-0.00859632
0.0501694
-0.00674747
0.0488436
-0.00482622
0.0483009
-0.00281546
0.04865
-0.000798369
0.049806
0.00110461
0.0517251
0.0028265
0.0543638
0.0043016
0.0576304
0.00547491
0.0613406
0.00634921
0.0653592
0.00691526
0.00717455
0.0702059
0.0729844
-0.00616515
0.0677458
-0.00560817
0.0629506
-0.0046529
0.0588429
-0.0036825
0.0555365
-0.00272731
0.0530929
-0.00177071
0.0515937
-0.000811917
0.0510891
0.000136027
0.0516251
0.00105719
0.0531394
0.0019352
0.0556146
0.00274669
0.0589572
0.00346496
0.063078
0.00407224
0.0678154
0.00455921
0.0730215
0.00491929
0.00516998
0.0787284
0.0706764
0.064563
0.0592906
0.0549819
0.0516948
0.0494725
0.0483414
0.048294
0.0492861
0.0512564
0.0541242
0.0577829
0.0621023
0.0669276
0.0720619
0.0773032
0.00103663
-0.00244631
0.00115286
-0.0031996
0.0013001
-0.00411011
0.00142564
-0.00473589
0.00166666
-0.00510502
0.0019386
-0.00520654
0.00205327
-0.00467302
0.00218051
-0.00342445
0.00247022
-0.00168851
0.00272687
0.00029092
0.00271376
0.00204627
0.00252864
0.00323443
0.00225919
0.00384152
0.00193609
0.00405277
0.00169079
0.00433476
0.00496426
0.00329497
-0.00549987
0.00370817
-0.00684898
0.00409593
-0.00842627
0.00441787
-0.00934418
0.00505312
-0.00974557
0.00577886
-0.00964796
0.00615511
-0.00854527
0.00651333
-0.00627936
0.00721541
-0.00313954
0.00785731
0.000408691
0.00787942
0.00356749
0.00746094
0.0057864
0.00678666
0.00702745
0.00593676
0.00757042
0.00517995
0.00798884
0.00867024
0.00599712
-0.00901234
0.00669363
-0.0107551
0.00723581
-0.0126842
0.00770334
-0.0137431
0.00854642
-0.0140321
0.00953659
-0.0135375
0.0101603
-0.0118017
0.0106906
-0.00863029
0.0115807
-0.00435373
0.0124311
0.00036259
0.0125659
0.00456649
0.0121156
0.00761352
0.0112595
0.00941891
0.0101025
0.0102973
0.00886219
0.0107689
0.0112794
0.0091649
-0.0127338
0.0100499
-0.0146492
0.0106951
-0.0167229
0.0112664
-0.0177423
0.0121659
-0.0177366
0.013234
-0.0166849
0.014008
-0.0142641
0.0146687
-0.0103515
0.015638
-0.00524881
0.0165685
0.000302692
0.0168344
0.00524286
0.016474
0.00888456
0.0156042
0.0111392
0.0143183
0.0123031
0.0127074
0.0127883
0.0130518
0.0128373
-0.0165378
0.0137889
-0.0184801
0.0144511
-0.0204219
0.015061
-0.0212341
0.0159233
-0.0208747
0.0169223
-0.019242
0.0177141
-0.0161335
0.0184634
-0.0115359
0.0194592
-0.00582651
0.0203995
0.000216608
0.0207905
0.00558194
0.0205886
0.00961329
0.0198388
0.0122102
0.0185817
0.0136193
0.0167649
0.0141303
0.0142036
0.017013
-0.0201453
0.0179081
-0.0219803
0.0184951
-0.0236586
0.0190363
-0.0240916
0.0197727
-0.0231926
0.0206112
-0.0209422
0.0213322
-0.0172431
0.0221052
-0.0121706
0.0230708
-0.00612691
0.024007
0.000155162
0.0245233
0.0057095
0.0245286
0.00994078
0.0240343
0.0127783
0.0229351
0.0143713
0.0210322
0.0148644
0.0147956
0.0214777
-0.0229719
0.0223537
-0.0248064
0.0228119
-0.0262228
0.0231594
-0.0261686
0.0236547
-0.0246458
0.0242868
-0.0218029
0.0249262
-0.0177043
0.0256474
-0.0123832
0.0265086
-0.0061897
0.0274652
0.000125531
0.0281261
0.00565659
0.0284077
0.00994698
0.0282707
0.0129249
0.0273052
0.0145416
0.0253764
0.0149283
0.0147724
0.0259702
-0.0248279
0.0269451
-0.0265457
0.0273297
-0.0277846
0.0274295
-0.0273482
0.0275638
-0.0252282
0.0279534
-0.0218165
0.0285222
-0.0174637
0.0291318
-0.0121682
0.0298101
-0.00608414
0.030752
7.72985e-05
0.0315819
0.00541901
0.0321652
0.00959468
0.0323776
0.0125249
0.0316105
0.0141018
0.0298504
0.0144818
0.0143048
0.0307085
-0.0261172
0.0316556
-0.0274999
0.0319488
-0.0282963
0.0318175
-0.0274616
0.0315902
-0.0249107
0.0316845
-0.0210865
0.0321298
-0.016634
0.0325757
-0.0115937
0.03303
-0.00583425
0.0338534
3.36393e-05
0.0348233
0.00509663
0.0356109
0.00901669
0.0361201
0.0117617
0.0359015
0.0132752
0.0347191
0.0137216
0.0136842
0.0362328
-0.0267644
0.0367317
-0.0277151
0.0367239
-0.0278403
0.0363246
-0.0265267
0.0357806
-0.0236928
0.0354945
-0.0197526
0.0356633
-0.0153642
0.0359426
-0.0106876
0.0362741
-0.0054542
0.0369967
-4.83032e-05
0.0380452
0.00466952
0.0390059
0.00833285
0.0397693
0.0108786
0.0402788
0.0123243
0.0401423
0.0129126
0.0131021
0.0426356
-0.0263519
0.04238
-0.0268928
0.0417883
-0.0263512
0.0409068
-0.0245292
0.0399787
-0.0215194
0.0392875
-0.0177525
0.0390363
-0.0136646
0.0391423
-0.00937789
0.0395075
-0.00475629
0.0402827
-1.71571e-05
0.0414646
0.0041752
0.0427333
0.00747872
0.0439063
0.00983832
0.0451521
0.0112869
0.0461811
0.0119572
0.0122012
0.0498408
-0.0246476
0.0486358
-0.0247485
0.0471799
-0.0235741
0.0455744
-0.0213349
0.0441437
-0.018302
0.0430814
-0.0149225
0.0424146
-0.0114046
0.0422815
-0.00767965
0.0426965
-0.00374791
0.0436101
0.000134255
0.0450199
0.00359783
0.046737
0.00642383
0.0486465
0.00851999
0.0507641
0.00983876
0.0527422
0.0104518
0.0106712
0.0577643
-0.0210778
0.0553975
-0.0207745
0.0528674
-0.019164
0.0503895
-0.0168101
0.0483194
-0.0140587
0.0468426
-0.0112384
0.0458876
-0.00845208
0.0455375
-0.00554127
0.0459099
-0.00247755
0.0469597
0.000497437
0.0486735
0.00315135
0.0509418
0.00535426
0.0536861
0.00700444
0.0567217
0.0080865
0.0596441
0.00866742
0.00889116
0.0660344
-0.0150689
0.0623271
-0.0145195
0.0586005
-0.0128645
0.0551933
-0.0108947
0.0524031
-0.00881841
0.0504197
-0.00678567
0.0491858
-0.00483103
0.0487001
-0.00284099
0.049078
-0.000801143
0.0503477
0.00115484
0.0524592
0.00291428
0.0553263
0.00439855
0.0588256
0.00553784
0.0627292
0.00635587
0.0667713
0.0068709
0.00709525
0.073424
-0.00639042
0.0681869
-0.00582237
0.0633142
-0.004846
0.0590831
-0.00382014
0.055686
-0.00279655
0.053242
-0.00179773
0.0517662
-0.000828186
0.0512702
0.000121002
0.0517968
0.00105401
0.0533567
0.00194787
0.055894
0.00277352
0.0593325
0.00349798
0.0635448
0.00409443
0.0683457
0.00456669
0.0735378
0.00491558
0.00516165
0.0707529
0.0646436
0.0593605
0.0550301
0.0517314
0.049508
0.04838
0.0483297
0.0493195
0.0512957
0.0541746
0.0578487
0.0621849
0.0670205
0.0721492
)
;

boundaryField
{
    walls
    {
        type            calculated;
        value           uniform 0;
    }
    cylinder
    {
        type            calculated;
        value           nonuniform List<scalar> 
64
(
1.30025e-11
-2.56821e-11
-1.65827e-11
2.28971e-11
-8.12787e-12
4.47085e-12
1.34717e-11
-1.09696e-11
1.09721e-11
-1.34696e-11
-4.46747e-12
8.13096e-12
-2.28932e-11
1.65876e-11
2.56844e-11
-1.30005e-11
1.30025e-11
-2.56821e-11
-1.65827e-11
2.28971e-11
-8.12787e-12
4.47085e-12
1.34717e-11
-1.09696e-11
1.09721e-11
-1.34696e-11
-4.46747e-12
8.13096e-12
-2.28932e-11
1.65876e-11
2.56844e-11
-1.30005e-11
1.30025e-11
-2.56821e-11
-1.65827e-11
2.28971e-11
-8.12787e-12
4.47085e-12
1.34717e-11
-1.09696e-11
1.09721e-11
-1.34696e-11
-4.46747e-12
8.13096e-12
-2.28932e-11
1.65876e-11
2.56844e-11
-1.30005e-11
1.30025e-11
-2.56821e-11
-1.65827e-11
2.28971e-11
-8.12787e-12
4.47085e-12
1.34717e-11
-1.09696e-11
1.09721e-11
-1.34696e-11
-4.46747e-12
8.13096e-12
-2.28932e-11
1.65876e-11
2.56844e-11
-1.30005e-11
)
;
    }
    outlet
    {
        type            calculated;
        value           uniform 0;
    }
    inlet
    {
        type            calculated;
        value           uniform 0;
    }
    frontAndBack
    {
        type            empty;
    }
}


// ************************************************************************* //
