/*--------------------------------*- C++ -*----------------------------------*\
| =========                 |                                                 |
| \\      /  F ield         | OpenFOAM: The Open Source CFD Toolbox           |
|  \\    /   O peration     | Version:  2412                                  |
|   \\  /    A nd           | Website:  www.openfoam.com                      |
|    \\/     M anipulation  |                                                 |
\*---------------------------------------------------------------------------*/
FoamFile
{
    version     2.0;
    format      ascii;
    arch        "LSB;label=32;scalar=64";
    class       pointVectorField;
    location    "0.7";
    object      pointDisplacement;
}
// * * * * * * * * * * * * * * * * * * * * * * * * * * * * * * * * * * * * * //

dimensions      [0 1 0 0 0 0 0];

internalField   nonuniform List<vector> 
2176
(
(0 0 0)
(0 0 0)
(0 0 0)
(0 0 0)
(0 0 0)
(0 0 0)
(0 0 0)
(0 0 0)
(0 0 0)
(0 0 0)
(0 0 0)
(0 0 0)
(0 0 0)
(0 0 0)
(0 0 0)
(0 0 0)
(0 0 0)
(0.00573082 -0.00774401 0)
(0.0077569 -0.0100736 0)
(0.0117763 -0.0137981 0)
(0.0161256 -0.0162232 0)
(0.0208732 -0.0172299 0)
(0.0258987 -0.0166766 0)
(0.0308501 -0.0144695 0)
(0.0351685 -0.0106694 0)
(0.0381695 -0.00559555 0)
(0.039249 0.000104441 0)
(0.0380275 0.00551333 0)
(0.0345925 0.00971344 0)
(0.0295198 0.0120693 0)
(0.0235167 0.0123648 0)
(0.0171977 0.0107677 0)
(0.0109309 0.0076779 0)
(0.00765289 0.00564397 0)
(0.0144112 -0.0194477 0)
(0.0183562 -0.0232831 0)
(0.0261494 -0.0295535 0)
(0.0345812 -0.0333016 0)
(0.0437013 -0.0343486 0)
(0.0531937 -0.0324664 0)
(0.0623476 -0.0275519 0)
(0.0701166 -0.0198104 0)
(0.0753156 -0.00991795 0)
(0.0769936 0.000910853 0)
(0.0746203 0.0110802 0)
(0.0684073 0.0190628 0)
(0.0593258 0.0238197 0)
(0.0485306 0.0249673 0)
(0.0370324 0.0227125 0)
(0.0254491 0.0176181 0)
(0.0192663 0.0142445 0)
(0.0256751 -0.0344554 0)
(0.0314989 -0.039005 0)
(0.0427712 -0.0466449 0)
(0.0549523 -0.050679 0)
(0.0679924 -0.0509033 0)
(0.0813297 -0.0470474 0)
(0.0939039 -0.0390622 0)
(0.10428 -0.0273579 0)
(0.110948 -0.0129697 0)
(0.112799 0.00242007 0)
(0.109311 0.0167439 0)
(0.100875 0.0281086 0)
(0.0887212 0.0352475 0)
(0.0742642 0.0376654 0)
(0.0587376 0.0355411 0)
(0.0429022 0.029463 0)
(0.0341921 0.0254401 0)
(0.0393514 -0.0522961 0)
(0.0470742 -0.0568236 0)
(0.0615414 -0.0647225 0)
(0.077126 -0.0680896 0)
(0.0936076 -0.0667166 0)
(0.110158 -0.0603339 0)
(0.125409 -0.0490042 0)
(0.137635 -0.03337 0)
(0.145187 -0.0147999 0)
(0.146888 0.00466364 0)
(0.142326 0.0226549 0)
(0.132116 0.0370866 0)
(0.117644 0.0465871 0)
(0.100459 0.0505926 0)
(0.0819064 0.049231 0)
(0.0628169 0.0430589 0)
(0.0519665 0.0390653 0)
(0.0553092 -0.0724673 0)
(0.0649807 -0.0762874 0)
(0.0823702 -0.0834191 0)
(0.100994 -0.0852525 0)
(0.120417 -0.0815955 0)
(0.139549 -0.072225 0)
(0.156771 -0.0573531 0)
(0.17019 -0.0378616 0)
(0.178119 -0.0154058 0)
(0.179422 0.00771425 0)
(0.173854 0.028977 0)
(0.16224 0.0462309 0)
(0.146049 0.0580752 0)
(0.126894 0.0639134 0)
(0.106163 0.0638232 0)
(0.0847116 0.0583149 0)
(0.0720847 0.0549865 0)
(0.0734645 -0.0944366 0)
(0.085148 -0.0969259 0)
(0.105184 -0.102349 0)
(0.126463 -0.101865 0)
(0.148307 -0.095324 0)
(0.169394 -0.0825881 0)
(0.187932 -0.0640444 0)
(0.201972 -0.0408052 0)
(0.209843 -0.0147475 0)
(0.210535 0.0116739 0)
(0.204041 0.0358899 0)
(0.191318 0.0557735 0)
(0.173885 0.0699499 0)
(0.153367 0.0778175 0)
(0.131159 0.0794132 0)
(0.108111 0.0752113 0)
(0.0940227 0.0731214 0)
(0.0937928 -0.117659 0)
(0.10754 -0.118235 0)
(0.129941 -0.121097 0)
(0.153464 -0.117597 0)
(0.177196 -0.107657 0)
(0.199624 -0.0912584 0)
(0.218862 -0.0689725 0)
(0.232989 -0.0421162 0)
(0.24042 -0.012726 0)
(0.240352 0.0166864 0)
(0.232999 0.0435964 0)
(0.2194 0.0659594 0)
(0.201091 0.0824635 0)
(0.179685 0.0925229 0)
(0.156554 0.0961453 0)
(0.132535 0.0937883 0)
(0.117228 0.0934382 0)
(0.11635 -0.141573 0)
(0.132185 -0.139687 0)
(0.156637 -0.139204 0)
(0.181966 -0.132068 0)
(0.207035 -0.118295 0)
(0.2302 -0.0980099 0)
(0.249557 -0.0719679 0)
(0.263259 -0.0416522 0)
(0.269913 -0.00918852 0)
(0.268965 0.0229416 0)
(0.260801 0.0523322 0)
(0.246509 0.0770607 0)
(0.227593 0.0958969 0)
(0.205643 0.108284 0)
(0.182007 0.11422 0)
(0.157498 0.114163 0)
(0.14114 0.115987 0)
(0.141277 -0.16558 0)
(0.159183 -0.160707 0)
(0.185344 -0.156159 0)
(0.212003 -0.144833 0)
(0.237828 -0.126859 0)
(0.261108 -0.102533 0)
(0.279982 -0.0727801 0)
(0.292774 -0.0391943 0)
(0.298366 -0.00391298 0)
(0.296438 0.030695 0)
(0.287487 0.0623887 0)
(0.272624 0.0893948 0)
(0.253297 0.110575 0)
(0.231031 0.125414 0)
(0.207162 0.133913 0)
(0.182492 0.136546 0)
(0.165156 0.140912 0)
(0.168805 -0.188944 0)
(0.188719 -0.180572 0)
(0.216195 -0.171315 0)
(0.243638 -0.155311 0)
(0.269568 -0.132846 0)
(0.292282 -0.104401 0)
(0.310067 -0.0710432 0)
(0.321515 -0.0344111 0)
(0.325791 0.00342816 0)
(0.322765 0.0402766 0)
(0.313007 0.0740967 0)
(0.297625 0.103295 0)
(0.278007 0.126846 0)
(0.255574 0.144274 0)
(0.231612 0.155579 0)
(0.206929 0.161246 0)
(0.188557 0.168453 0)
(0.199277 -0.210765 0)
(0.221043 -0.198324 0)
(0.249337 -0.183762 0)
(0.276909 -0.162671 0)
(0.302208 -0.13553 0)
(0.323643 -0.103001 0)
(0.339744 -0.0662346 0)
(0.34941 -0.0268424 0)
(0.352078 0.0132524 0)
(0.34779 0.0520699 0)
(0.337163 0.087831 0)
(0.321266 0.119147 0)
(0.301392 0.145115 0)
(0.278849 0.165295 0)
(0.254816 0.17966 0)
(0.230091 0.188685 0)
(0.210441 0.198966 0)
(0.233219 -0.229868 0)
(0.256563 -0.212722 0)
(0.285016 -0.192281 0)
(0.311889 -0.165781 0)
(0.335681 -0.133909 0)
(0.35503 -0.0974697 0)
(0.368796 -0.0576331 0)
(0.376198 -0.0158818 0)
(0.37694 0.026085 0)
(0.371208 0.0665706 0)
(0.359625 0.104085 0)
(0.343158 0.137459 0)
(0.322959 0.165899 0)
(0.300194 0.189001 0)
(0.275951 0.206703 0)
(0.250979 0.21943 0)
(0.22963 0.232986 0)
(0.271338 -0.244398 0)
(0.29576 -0.221827 0)
(0.323404 -0.195038 0)
(0.348457 -0.163024 0)
(0.369641 -0.126621 0)
(0.385963 -0.0866934 0)
(0.396673 -0.0443183 0)
(0.401319 -0.000752339 0)
(0.399823 0.0426135 0)
(0.392455 0.0844091 0)
(0.379785 0.123448 0)
(0.362617 0.158794 0)
(0.341903 0.189772 0)
(0.31862 0.216007 0)
(0.293739 0.237385 0)
(0.267978 0.25421 0)
(0.244251 0.271193 0)
(0.314026 -0.251356 0)
(0.338654 -0.222515 0)
(0.363956 -0.189246 0)
(0.385607 -0.152101 0)
(0.402837 -0.111867 0)
(0.415116 -0.0692974 0)
(0.422077 -0.0252527 0)
(0.423538 0.0193146 0)
(0.419538 0.0633937 0)
(0.410338 0.105993 0)
(0.396383 0.146251 0)
(0.37827 0.183451 0)
(0.356695 0.217037 0)
(0.332406 0.246637 0)
(0.30617 0.27206 0)
(0.278604 0.293439 0)
(0.251286 0.313961 0)
(0.358808 -0.245227 0)
(0.381818 -0.209817 0)
(0.402432 -0.171365 0)
(0.418941 -0.130631 0)
(0.431066 -0.0881532 0)
(0.438617 -0.0444598 0)
(0.441474 -0.000126792 0)
(0.439597 0.0442437 0)
(0.433037 0.0880401 0)
(0.421943 0.130667 0)
(0.406557 0.171568 0)
(0.387193 0.21024 0)
(0.364228 0.246241 0)
(0.338092 0.279202 0)
(0.309235 0.308842 0)
(0.278066 0.335034 0)
(0.245212 0.358791 0)
(0.381913 -0.238541 0)
(0.403455 -0.199958 0)
(0.421112 -0.15945 0)
(0.434713 -0.117406 0)
(0.444127 -0.074231 0)
(0.449265 -0.0303415 0)
(0.450075 0.0138403 0)
(0.446552 0.0578887 0)
(0.438727 0.10138 0)
(0.426678 0.143894 0)
(0.410519 0.185023 0)
(0.390407 0.22437 0)
(0.366535 0.261556 0)
(0.339133 0.296223 0)
(0.308465 0.328038 0)
(0.274826 0.356693 0)
(0.238541 0.381913 0)
(0 0 0)
(0 0 0)
(0 0 0)
(0 0 0)
(0 0 0)
(0 0 0)
(0 0 0)
(0 0 0)
(0 0 0)
(0 0 0)
(0 0 0)
(0 0 0)
(0 0 0)
(0 0 0)
(0 0 0)
(0 0 0)
(0 0 0)
(0.00573082 -0.00774401 0)
(0.0077569 -0.0100736 0)
(0.0117763 -0.0137981 0)
(0.0161256 -0.0162232 0)
(0.0208732 -0.0172299 0)
(0.0258987 -0.0166766 0)
(0.0308501 -0.0144695 0)
(0.0351685 -0.0106694 0)
(0.0381695 -0.00559555 0)
(0.039249 0.000104441 0)
(0.0380275 0.00551333 0)
(0.0345925 0.00971344 0)
(0.0295198 0.0120693 0)
(0.0235167 0.0123648 0)
(0.0171977 0.0107677 0)
(0.0109309 0.0076779 0)
(0.00765289 0.00564397 0)
(0.0144112 -0.0194477 0)
(0.0183562 -0.0232831 0)
(0.0261494 -0.0295535 0)
(0.0345812 -0.0333016 0)
(0.0437013 -0.0343486 0)
(0.0531937 -0.0324664 0)
(0.0623476 -0.0275519 0)
(0.0701166 -0.0198104 0)
(0.0753156 -0.00991795 0)
(0.0769936 0.000910853 0)
(0.0746203 0.0110802 0)
(0.0684073 0.0190628 0)
(0.0593258 0.0238197 0)
(0.0485306 0.0249673 0)
(0.0370324 0.0227125 0)
(0.0254491 0.0176181 0)
(0.0192663 0.0142445 0)
(0.0256751 -0.0344554 0)
(0.0314989 -0.039005 0)
(0.0427712 -0.0466449 0)
(0.0549523 -0.050679 0)
(0.0679924 -0.0509033 0)
(0.0813297 -0.0470474 0)
(0.0939039 -0.0390622 0)
(0.10428 -0.0273579 0)
(0.110948 -0.0129697 0)
(0.112799 0.00242007 0)
(0.109311 0.0167439 0)
(0.100875 0.0281086 0)
(0.0887212 0.0352475 0)
(0.0742642 0.0376654 0)
(0.0587376 0.0355411 0)
(0.0429022 0.029463 0)
(0.0341921 0.0254401 0)
(0.0393514 -0.0522961 0)
(0.0470742 -0.0568236 0)
(0.0615414 -0.0647225 0)
(0.077126 -0.0680896 0)
(0.0936076 -0.0667166 0)
(0.110158 -0.0603339 0)
(0.125409 -0.0490042 0)
(0.137635 -0.03337 0)
(0.145187 -0.0147999 0)
(0.146888 0.00466364 0)
(0.142326 0.0226549 0)
(0.132116 0.0370866 0)
(0.117644 0.0465871 0)
(0.100459 0.0505926 0)
(0.0819064 0.049231 0)
(0.0628169 0.0430589 0)
(0.0519665 0.0390653 0)
(0.0553092 -0.0724673 0)
(0.0649807 -0.0762874 0)
(0.0823702 -0.0834191 0)
(0.100994 -0.0852525 0)
(0.120417 -0.0815955 0)
(0.139549 -0.072225 0)
(0.156771 -0.0573531 0)
(0.17019 -0.0378616 0)
(0.178119 -0.0154058 0)
(0.179422 0.00771425 0)
(0.173854 0.028977 0)
(0.16224 0.0462309 0)
(0.146049 0.0580752 0)
(0.126894 0.0639134 0)
(0.106163 0.0638232 0)
(0.0847116 0.0583149 0)
(0.0720847 0.0549865 0)
(0.0734645 -0.0944366 0)
(0.085148 -0.0969259 0)
(0.105184 -0.102349 0)
(0.126463 -0.101865 0)
(0.148307 -0.095324 0)
(0.169394 -0.0825881 0)
(0.187932 -0.0640444 0)
(0.201972 -0.0408052 0)
(0.209843 -0.0147475 0)
(0.210535 0.0116739 0)
(0.204041 0.0358899 0)
(0.191318 0.0557735 0)
(0.173885 0.0699499 0)
(0.153367 0.0778175 0)
(0.131159 0.0794132 0)
(0.108111 0.0752113 0)
(0.0940227 0.0731214 0)
(0.0937928 -0.117659 0)
(0.10754 -0.118235 0)
(0.129941 -0.121097 0)
(0.153464 -0.117597 0)
(0.177196 -0.107657 0)
(0.199624 -0.0912584 0)
(0.218862 -0.0689725 0)
(0.232989 -0.0421162 0)
(0.24042 -0.012726 0)
(0.240352 0.0166864 0)
(0.232999 0.0435964 0)
(0.2194 0.0659594 0)
(0.201091 0.0824635 0)
(0.179685 0.0925229 0)
(0.156554 0.0961453 0)
(0.132535 0.0937883 0)
(0.117228 0.0934382 0)
(0.11635 -0.141573 0)
(0.132185 -0.139687 0)
(0.156637 -0.139204 0)
(0.181966 -0.132068 0)
(0.207035 -0.118295 0)
(0.2302 -0.0980099 0)
(0.249557 -0.0719679 0)
(0.263259 -0.0416522 0)
(0.269913 -0.00918852 0)
(0.268965 0.0229416 0)
(0.260801 0.0523322 0)
(0.246509 0.0770607 0)
(0.227593 0.0958969 0)
(0.205643 0.108284 0)
(0.182007 0.11422 0)
(0.157498 0.114163 0)
(0.14114 0.115987 0)
(0.141277 -0.16558 0)
(0.159183 -0.160707 0)
(0.185344 -0.156159 0)
(0.212003 -0.144833 0)
(0.237828 -0.126859 0)
(0.261108 -0.102533 0)
(0.279982 -0.0727801 0)
(0.292774 -0.0391943 0)
(0.298366 -0.00391298 0)
(0.296438 0.030695 0)
(0.287487 0.0623887 0)
(0.272624 0.0893948 0)
(0.253297 0.110575 0)
(0.231031 0.125414 0)
(0.207162 0.133913 0)
(0.182492 0.136546 0)
(0.165156 0.140912 0)
(0.168805 -0.188944 0)
(0.188719 -0.180572 0)
(0.216195 -0.171315 0)
(0.243638 -0.155311 0)
(0.269568 -0.132846 0)
(0.292282 -0.104401 0)
(0.310067 -0.0710432 0)
(0.321515 -0.0344111 0)
(0.325791 0.00342816 0)
(0.322765 0.0402766 0)
(0.313007 0.0740967 0)
(0.297625 0.103295 0)
(0.278007 0.126846 0)
(0.255574 0.144274 0)
(0.231612 0.155579 0)
(0.206929 0.161246 0)
(0.188557 0.168453 0)
(0.199277 -0.210765 0)
(0.221043 -0.198324 0)
(0.249337 -0.183762 0)
(0.276909 -0.162671 0)
(0.302208 -0.13553 0)
(0.323643 -0.103001 0)
(0.339744 -0.0662346 0)
(0.34941 -0.0268424 0)
(0.352078 0.0132524 0)
(0.34779 0.0520699 0)
(0.337163 0.087831 0)
(0.321266 0.119147 0)
(0.301392 0.145115 0)
(0.278849 0.165295 0)
(0.254816 0.17966 0)
(0.230091 0.188685 0)
(0.210441 0.198966 0)
(0.233219 -0.229868 0)
(0.256563 -0.212722 0)
(0.285016 -0.192281 0)
(0.311889 -0.165781 0)
(0.335681 -0.133909 0)
(0.35503 -0.0974697 0)
(0.368796 -0.0576331 0)
(0.376198 -0.0158818 0)
(0.37694 0.026085 0)
(0.371208 0.0665706 0)
(0.359625 0.104085 0)
(0.343158 0.137459 0)
(0.322959 0.165899 0)
(0.300194 0.189001 0)
(0.275951 0.206703 0)
(0.250979 0.21943 0)
(0.22963 0.232986 0)
(0.271338 -0.244398 0)
(0.29576 -0.221827 0)
(0.323404 -0.195038 0)
(0.348457 -0.163024 0)
(0.369641 -0.126621 0)
(0.385963 -0.0866934 0)
(0.396673 -0.0443183 0)
(0.401319 -0.000752339 0)
(0.399823 0.0426135 0)
(0.392455 0.0844091 0)
(0.379785 0.123448 0)
(0.362617 0.158794 0)
(0.341903 0.189772 0)
(0.31862 0.216007 0)
(0.293739 0.237385 0)
(0.267978 0.25421 0)
(0.244251 0.271193 0)
(0.314026 -0.251356 0)
(0.338654 -0.222515 0)
(0.363956 -0.189246 0)
(0.385607 -0.152101 0)
(0.402837 -0.111867 0)
(0.415116 -0.0692974 0)
(0.422077 -0.0252527 0)
(0.423538 0.0193146 0)
(0.419538 0.0633937 0)
(0.410338 0.105993 0)
(0.396383 0.146251 0)
(0.37827 0.183451 0)
(0.356695 0.217037 0)
(0.332406 0.246637 0)
(0.30617 0.27206 0)
(0.278604 0.293439 0)
(0.251286 0.313961 0)
(0.358808 -0.245227 0)
(0.381818 -0.209817 0)
(0.402432 -0.171365 0)
(0.418941 -0.130631 0)
(0.431066 -0.0881532 0)
(0.438617 -0.0444598 0)
(0.441474 -0.000126792 0)
(0.439597 0.0442437 0)
(0.433037 0.0880401 0)
(0.421943 0.130667 0)
(0.406557 0.171568 0)
(0.387193 0.21024 0)
(0.364228 0.246241 0)
(0.338092 0.279202 0)
(0.309235 0.308842 0)
(0.278066 0.335034 0)
(0.245212 0.358791 0)
(0.381913 -0.238541 0)
(0.403455 -0.199958 0)
(0.421112 -0.15945 0)
(0.434713 -0.117406 0)
(0.444127 -0.074231 0)
(0.449265 -0.0303415 0)
(0.450075 0.0138403 0)
(0.446552 0.0578887 0)
(0.438727 0.10138 0)
(0.426678 0.143894 0)
(0.410519 0.185023 0)
(0.390407 0.22437 0)
(0.366535 0.261556 0)
(0.339133 0.296223 0)
(0.308465 0.328038 0)
(0.274826 0.356693 0)
(0.238541 0.381913 0)
(0 0 0)
(0 0 0)
(0 0 0)
(0 0 0)
(0 0 0)
(0 0 0)
(0 0 0)
(0 0 0)
(0 0 0)
(0 0 0)
(0 0 0)
(0 0 0)
(0 0 0)
(0 0 0)
(0 0 0)
(0 0 0)
(0.00997088 0.0076488 0)
(0.0136893 0.0116408 0)
(0.0161244 0.0159659 0)
(0.0171496 0.0207044 0)
(0.0166248 0.0257597 0)
(0.0144466 0.030771 0)
(0.0106577 0.0351191 0)
(0.00560156 0.0380998 0)
(-5.831e-05 0.0391551 0)
(-0.00542993 0.0379331 0)
(-0.00960924 0.0344974 0)
(-0.0119616 0.0294297 0)
(-0.0122767 0.0234606 0)
(-0.0107117 0.0171881 0)
(-0.007644 0.0109481 0)
(-0.00561415 0.00767634 0)
(0.023084 0.0181451 0)
(0.0293566 0.0258935 0)
(0.0331289 0.0342863 0)
(0.0342129 0.043397 0)
(0.0323815 0.0529457 0)
(0.027511 0.062194 0)
(0.0197895 0.070011 0)
(0.00993317 0.0751785 0)
(-0.000822034 0.0768224 0)
(-0.0109229 0.0744499 0)
(-0.0188679 0.0682397 0)
(-0.0236176 0.0591713 0)
(-0.0247943 0.0484286 0)
(-0.0225889 0.0370017 0)
(-0.0175338 0.0254666 0)
(-0.0141734 0.0193021 0)
(0.0387296 0.0312046 0)
(0.0463809 0.0424155 0)
(0.0504563 0.0545533 0)
(0.0507369 0.0675942 0)
(0.0469454 0.0810041 0)
(0.0390118 0.0936893 0)
(0.0273341 0.104121 0)
(0.0129987 0.110761 0)
(-0.00229092 0.112574 0)
(-0.0165232 0.109085 0)
(-0.0278376 0.100656 0)
(-0.0349659 0.0885248 0)
(-0.0374136 0.0741292 0)
(-0.0353441 0.0586827 0)
(-0.0293169 0.0429092 0)
(-0.0253182 0.0342294 0)
(0.0564882 0.0467134 0)
(0.064415 0.061113 0)
(0.0678411 0.0766565 0)
(0.0665389 0.0931506 0)
(0.0602278 0.109784 0)
(0.0489501 0.125145 0)
(0.0333485 0.13743 0)
(0.0148461 0.144958 0)
(-0.00449855 0.146625 0)
(-0.0223814 0.142061 0)
(-0.036753 0.131866 0)
(-0.0462374 0.117423 0)
(-0.0502668 0.100299 0)
(-0.0489569 0.0818257 0)
(-0.0428417 0.0628051 0)
(-0.0388836 0.0519969 0)
(0.0759144 0.0645743 0)
(0.0830883 0.0818912 0)
(0.0849938 0.100482 0)
(0.0814192 0.119932 0)
(0.0721229 0.139149 0)
(0.0573032 0.156475 0)
(0.0378506 0.169947 0)
(0.0154737 0.177861 0)
(-0.00751477 0.179133 0)
(-0.0286585 0.173565 0)
(-0.0458447 0.161968 0)
(-0.057666 0.145812 0)
(-0.0635187 0.126716 0)
(-0.0634727 0.10606 0)
(-0.058023 0.0846801 0)
(-0.0547416 0.0721039 0)
(0.0965335 0.0847113 0)
(0.102014 0.10468 0)
(0.101614 0.125936 0)
(0.0951609 0.147817 0)
(0.0824975 0.168988 0)
(0.0640038 0.187614 0)
(0.0408094 0.2017 0)
(0.0148403 0.209559 0)
(-0.0114433 0.210227 0)
(-0.0355351 0.203736 0)
(-0.0553455 0.191036 0)
(-0.0694909 0.17364 0)
(-0.0773614 0.153177 0)
(-0.0789889 0.131035 0)
(-0.0748438 0.108058 0)
(-0.072812 0.094027 0)
(0.117844 0.107088 0)
(0.120777 0.129428 0)
(0.117367 0.152941 0)
(0.107515 0.176721 0)
(0.0911832 0.199227 0)
(0.0689461 0.218537 0)
(0.042141 0.232699 0)
(0.0128444 0.240121 0)
(-0.0164284 0.240035 0)
(-0.0432134 0.232688 0)
(-0.0655002 0.219113 0)
(-0.081966 0.200843 0)
(-0.0920147 0.179486 0)
(-0.0956571 0.156415 0)
(-0.093354 0.132466 0)
(-0.0930714 0.117219 0)
(0.13931 0.131723 0)
(0.138912 0.156128 0)
(0.131873 0.181465 0)
(0.118183 0.206588 0)
(0.097957 0.229821 0)
(0.0719613 0.249234 0)
(0.0417011 0.262959 0)
(0.0093333 0.269604 0)
(-0.0226622 0.268645 0)
(-0.0519333 0.26049 0)
(-0.0765861 0.246226 0)
(-0.0953766 0.227349 0)
(-0.107744 0.205446 0)
(-0.113692 0.181866 0)
(-0.113683 0.157423 0)
(-0.11558 0.141122 0)
(0.160361 0.158726 0)
(0.155912 0.184852 0)
(0.144685 0.211529 0)
(0.126787 0.237411 0)
(0.102509 0.260753 0)
(0.0727963 0.279671 0)
(0.0392668 0.292476 0)
(0.00407787 0.29806 0)
(-0.0304059 0.296127 0)
(-0.0619898 0.287188 0)
(-0.0889217 0.272352 0)
(-0.110054 0.253066 0)
(-0.12487 0.230848 0)
(-0.133377 0.207031 0)
(-0.136056 0.18242 0)
(-0.140493 0.165136 0)
(0.180276 0.188281 0)
(0.171126 0.215735 0)
(0.155219 0.243206 0)
(0.132816 0.269192 0)
(0.104407 0.291958 0)
(0.0710822 0.309774 0)
(0.0345042 0.321228 0)
(-0.00325062 0.325498 0)
(-0.0399904 0.322472 0)
(-0.0737169 0.312728 0)
(-0.10285 0.297378 0)
(-0.126358 0.277803 0)
(-0.143768 0.255415 0)
(-0.155083 0.231501 0)
(-0.160788 0.206867 0)
(-0.16806 0.188532 0)
(0.198097 0.22066 0)
(0.183639 0.248945 0)
(0.162631 0.276544 0)
(0.135537 0.301888 0)
(0.103029 0.323361 0)
(0.06629 0.339482 0)
(0.026942 0.349148 0)
(-0.0130796 0.351815 0)
(-0.0518128 0.347532 0)
(-0.0875023 0.336924 0)
(-0.118767 0.321058 0)
(-0.144704 0.301224 0)
(-0.164877 0.278719 0)
(-0.179252 0.254723 0)
(-0.188308 0.230031 0)
(-0.198644 0.210406 0)
(0.212575 0.256272 0)
(0.192217 0.284722 0)
(0.165779 0.311617 0)
(0.133934 0.335438 0)
(0.097507 0.35481 0)
(0.0576872 0.368582 0)
(0.0159687 0.375985 0)
(-0.0259438 0.37673 0)
(-0.0663715 0.371007 0)
(-0.103839 0.359442 0)
(-0.137182 0.343002 0)
(-0.165609 0.322832 0)
(-0.188711 0.300093 0)
(-0.206426 0.275869 0)
(-0.219175 0.250914 0)
(-0.232769 0.229583 0)
(0.221751 0.295579 0)
(0.195019 0.323226 0)
(0.163039 0.348289 0)
(0.126648 0.369486 0)
(0.0867251 0.385815 0)
(0.0443562 0.396527 0)
(0.00081271 0.401175 0)
(-0.0425223 0.399683 0)
(-0.0842847 0.392325 0)
(-0.123301 0.379667 0)
(-0.158634 0.362516 0)
(-0.189611 0.341816 0)
(-0.215854 0.318542 0)
(-0.237246 0.293667 0)
(-0.254083 0.267913 0)
(-0.271087 0.244194 0)
(0.22249 0.338572 0)
(0.189247 0.363874 0)
(0.152115 0.385528 0)
(0.111885 0.402762 0)
(0.0693142 0.415042 0)
(0.0252733 0.422004 0)
(-0.0192859 0.423466 0)
(-0.0633506 0.419471 0)
(-0.105937 0.410275 0)
(-0.146188 0.396327 0)
(-0.183386 0.378218 0)
(-0.216975 0.356648 0)
(-0.246585 0.332358 0)
(-0.272016 0.306121 0)
(-0.293401 0.278556 0)
(-0.313932 0.251241 0)
(0.209813 0.381797 0)
(0.171368 0.402411 0)
(0.130636 0.418921 0)
(0.0881585 0.431046 0)
(0.0444649 0.438598 0)
(0.000132114 0.441455 0)
(-0.0442363 0.439579 0)
(-0.0880293 0.43302 0)
(-0.130653 0.421927 0)
(-0.171554 0.406542 0)
(-0.210226 0.387179 0)
(-0.246229 0.364215 0)
(-0.279194 0.338077 0)
(-0.308836 0.309219 0)
(-0.33503 0.278049 0)
(-0.358788 0.245197 0)
(0.199958 0.403455 0)
(0.15945 0.421112 0)
(0.117406 0.434713 0)
(0.074231 0.444127 0)
(0.0303415 0.449265 0)
(-0.0138403 0.450075 0)
(-0.0578887 0.446552 0)
(-0.10138 0.438727 0)
(-0.143894 0.426678 0)
(-0.185023 0.410519 0)
(-0.22437 0.390407 0)
(-0.261556 0.366535 0)
(-0.296223 0.339133 0)
(-0.328038 0.308465 0)
(-0.356693 0.274826 0)
(-0.381913 0.238541 0)
(0 0 0)
(0 0 0)
(0 0 0)
(0 0 0)
(0 0 0)
(0 0 0)
(0 0 0)
(0 0 0)
(0 0 0)
(0 0 0)
(0 0 0)
(0 0 0)
(0 0 0)
(0 0 0)
(0 0 0)
(0 0 0)
(0.00997088 0.0076488 0)
(0.0136893 0.0116408 0)
(0.0161244 0.0159659 0)
(0.0171496 0.0207044 0)
(0.0166248 0.0257597 0)
(0.0144466 0.030771 0)
(0.0106577 0.0351191 0)
(0.00560156 0.0380998 0)
(-5.831e-05 0.0391551 0)
(-0.00542993 0.0379331 0)
(-0.00960924 0.0344974 0)
(-0.0119616 0.0294297 0)
(-0.0122767 0.0234606 0)
(-0.0107117 0.0171881 0)
(-0.007644 0.0109481 0)
(-0.00561415 0.00767634 0)
(0.023084 0.0181451 0)
(0.0293566 0.0258935 0)
(0.0331289 0.0342863 0)
(0.0342129 0.043397 0)
(0.0323815 0.0529457 0)
(0.027511 0.062194 0)
(0.0197895 0.070011 0)
(0.00993317 0.0751785 0)
(-0.000822034 0.0768224 0)
(-0.0109229 0.0744499 0)
(-0.0188679 0.0682397 0)
(-0.0236176 0.0591713 0)
(-0.0247943 0.0484286 0)
(-0.0225889 0.0370017 0)
(-0.0175338 0.0254666 0)
(-0.0141734 0.0193021 0)
(0.0387296 0.0312046 0)
(0.0463809 0.0424155 0)
(0.0504563 0.0545533 0)
(0.0507369 0.0675942 0)
(0.0469454 0.0810041 0)
(0.0390118 0.0936893 0)
(0.0273341 0.104121 0)
(0.0129987 0.110761 0)
(-0.00229092 0.112574 0)
(-0.0165232 0.109085 0)
(-0.0278376 0.100656 0)
(-0.0349659 0.0885248 0)
(-0.0374136 0.0741292 0)
(-0.0353441 0.0586827 0)
(-0.0293169 0.0429092 0)
(-0.0253182 0.0342294 0)
(0.0564882 0.0467134 0)
(0.064415 0.061113 0)
(0.0678411 0.0766565 0)
(0.0665389 0.0931506 0)
(0.0602278 0.109784 0)
(0.0489501 0.125145 0)
(0.0333485 0.13743 0)
(0.0148461 0.144958 0)
(-0.00449855 0.146625 0)
(-0.0223814 0.142061 0)
(-0.036753 0.131866 0)
(-0.0462374 0.117423 0)
(-0.0502668 0.100299 0)
(-0.0489569 0.0818257 0)
(-0.0428417 0.0628051 0)
(-0.0388836 0.0519969 0)
(0.0759144 0.0645743 0)
(0.0830883 0.0818912 0)
(0.0849938 0.100482 0)
(0.0814192 0.119932 0)
(0.0721229 0.139149 0)
(0.0573032 0.156475 0)
(0.0378506 0.169947 0)
(0.0154737 0.177861 0)
(-0.00751477 0.179133 0)
(-0.0286585 0.173565 0)
(-0.0458447 0.161968 0)
(-0.057666 0.145812 0)
(-0.0635187 0.126716 0)
(-0.0634727 0.10606 0)
(-0.058023 0.0846801 0)
(-0.0547416 0.0721039 0)
(0.0965335 0.0847113 0)
(0.102014 0.10468 0)
(0.101614 0.125936 0)
(0.0951609 0.147817 0)
(0.0824975 0.168988 0)
(0.0640038 0.187614 0)
(0.0408094 0.2017 0)
(0.0148403 0.209559 0)
(-0.0114433 0.210227 0)
(-0.0355351 0.203736 0)
(-0.0553455 0.191036 0)
(-0.0694909 0.17364 0)
(-0.0773614 0.153177 0)
(-0.0789889 0.131035 0)
(-0.0748438 0.108058 0)
(-0.072812 0.094027 0)
(0.117844 0.107088 0)
(0.120777 0.129428 0)
(0.117367 0.152941 0)
(0.107515 0.176721 0)
(0.0911832 0.199227 0)
(0.0689461 0.218537 0)
(0.042141 0.232699 0)
(0.0128444 0.240121 0)
(-0.0164284 0.240035 0)
(-0.0432134 0.232688 0)
(-0.0655002 0.219113 0)
(-0.081966 0.200843 0)
(-0.0920147 0.179486 0)
(-0.0956571 0.156415 0)
(-0.093354 0.132466 0)
(-0.0930714 0.117219 0)
(0.13931 0.131723 0)
(0.138912 0.156128 0)
(0.131873 0.181465 0)
(0.118183 0.206588 0)
(0.097957 0.229821 0)
(0.0719613 0.249234 0)
(0.0417011 0.262959 0)
(0.0093333 0.269604 0)
(-0.0226622 0.268645 0)
(-0.0519333 0.26049 0)
(-0.0765861 0.246226 0)
(-0.0953766 0.227349 0)
(-0.107744 0.205446 0)
(-0.113692 0.181866 0)
(-0.113683 0.157423 0)
(-0.11558 0.141122 0)
(0.160361 0.158726 0)
(0.155912 0.184852 0)
(0.144685 0.211529 0)
(0.126787 0.237411 0)
(0.102509 0.260753 0)
(0.0727963 0.279671 0)
(0.0392668 0.292476 0)
(0.00407787 0.29806 0)
(-0.0304059 0.296127 0)
(-0.0619898 0.287188 0)
(-0.0889217 0.272352 0)
(-0.110054 0.253066 0)
(-0.12487 0.230848 0)
(-0.133377 0.207031 0)
(-0.136056 0.18242 0)
(-0.140493 0.165136 0)
(0.180276 0.188281 0)
(0.171126 0.215735 0)
(0.155219 0.243206 0)
(0.132816 0.269192 0)
(0.104407 0.291958 0)
(0.0710822 0.309774 0)
(0.0345042 0.321228 0)
(-0.00325062 0.325498 0)
(-0.0399904 0.322472 0)
(-0.0737169 0.312728 0)
(-0.10285 0.297378 0)
(-0.126358 0.277803 0)
(-0.143768 0.255415 0)
(-0.155083 0.231501 0)
(-0.160788 0.206867 0)
(-0.16806 0.188532 0)
(0.198097 0.22066 0)
(0.183639 0.248945 0)
(0.162631 0.276544 0)
(0.135537 0.301888 0)
(0.103029 0.323361 0)
(0.06629 0.339482 0)
(0.026942 0.349148 0)
(-0.0130796 0.351815 0)
(-0.0518128 0.347532 0)
(-0.0875023 0.336924 0)
(-0.118767 0.321058 0)
(-0.144704 0.301224 0)
(-0.164877 0.278719 0)
(-0.179252 0.254723 0)
(-0.188308 0.230031 0)
(-0.198644 0.210406 0)
(0.212575 0.256272 0)
(0.192217 0.284722 0)
(0.165779 0.311617 0)
(0.133934 0.335438 0)
(0.097507 0.35481 0)
(0.0576872 0.368582 0)
(0.0159687 0.375985 0)
(-0.0259438 0.37673 0)
(-0.0663715 0.371007 0)
(-0.103839 0.359442 0)
(-0.137182 0.343002 0)
(-0.165609 0.322832 0)
(-0.188711 0.300093 0)
(-0.206426 0.275869 0)
(-0.219175 0.250914 0)
(-0.232769 0.229583 0)
(0.221751 0.295579 0)
(0.195019 0.323226 0)
(0.163039 0.348289 0)
(0.126648 0.369486 0)
(0.0867251 0.385815 0)
(0.0443562 0.396527 0)
(0.00081271 0.401175 0)
(-0.0425223 0.399683 0)
(-0.0842847 0.392325 0)
(-0.123301 0.379667 0)
(-0.158634 0.362516 0)
(-0.189611 0.341816 0)
(-0.215854 0.318542 0)
(-0.237246 0.293667 0)
(-0.254083 0.267913 0)
(-0.271087 0.244194 0)
(0.22249 0.338572 0)
(0.189247 0.363874 0)
(0.152115 0.385528 0)
(0.111885 0.402762 0)
(0.0693142 0.415042 0)
(0.0252733 0.422004 0)
(-0.0192859 0.423466 0)
(-0.0633506 0.419471 0)
(-0.105937 0.410275 0)
(-0.146188 0.396327 0)
(-0.183386 0.378218 0)
(-0.216975 0.356648 0)
(-0.246585 0.332358 0)
(-0.272016 0.306121 0)
(-0.293401 0.278556 0)
(-0.313932 0.251241 0)
(0.209813 0.381797 0)
(0.171368 0.402411 0)
(0.130636 0.418921 0)
(0.0881585 0.431046 0)
(0.0444649 0.438598 0)
(0.000132114 0.441455 0)
(-0.0442363 0.439579 0)
(-0.0880293 0.43302 0)
(-0.130653 0.421927 0)
(-0.171554 0.406542 0)
(-0.210226 0.387179 0)
(-0.246229 0.364215 0)
(-0.279194 0.338077 0)
(-0.308836 0.309219 0)
(-0.33503 0.278049 0)
(-0.358788 0.245197 0)
(0.199958 0.403455 0)
(0.15945 0.421112 0)
(0.117406 0.434713 0)
(0.074231 0.444127 0)
(0.0303415 0.449265 0)
(-0.0138403 0.450075 0)
(-0.0578887 0.446552 0)
(-0.10138 0.438727 0)
(-0.143894 0.426678 0)
(-0.185023 0.410519 0)
(-0.22437 0.390407 0)
(-0.261556 0.366535 0)
(-0.296223 0.339133 0)
(-0.328038 0.308465 0)
(-0.356693 0.274826 0)
(-0.381913 0.238541 0)
(0 0 0)
(0 0 0)
(0 0 0)
(0 0 0)
(0 0 0)
(0 0 0)
(0 0 0)
(0 0 0)
(0 0 0)
(0 0 0)
(0 0 0)
(0 0 0)
(0 0 0)
(0 0 0)
(0 0 0)
(0 0 0)
(-0.00761751 0.00999506 0)
(-0.0116202 0.0137129 0)
(-0.0159685 0.0161447 0)
(-0.0207444 0.0171716 0)
(-0.0258138 0.0166443 0)
(-0.0307975 0.0144525 0)
(-0.0351367 0.01066 0)
(-0.038152 0.00559067 0)
(-0.0392425 -0.000106112 0)
(-0.03803 -0.00551272 0)
(-0.0346025 -0.0097116 0)
(-0.0295356 -0.012067 0)
(-0.0235359 -0.0123627 0)
(-0.0172187 -0.0107663 0)
(-0.0109525 -0.00767784 0)
(-0.00767423 -0.00564602 0)
(-0.0180762 0.0231228 0)
(-0.0258451 0.0293938 0)
(-0.0342862 0.0331604 0)
(-0.0434665 0.0342474 0)
(-0.0530379 0.0324095 0)
(-0.0622507 0.027522 0)
(-0.0700584 0.0197947 0)
(-0.0752837 0.00991001 0)
(-0.0769818 -0.000913506 0)
(-0.0746249 -0.0110791 0)
(-0.0684255 -0.0190597 0)
(-0.0593547 -0.0238158 0)
(-0.0485667 -0.0249637 0)
(-0.0370727 -0.0227101 0)
(-0.0254912 -0.0176181 0)
(-0.0193083 -0.0142482 0)
(-0.0310916 0.0387752 0)
(-0.0423379 0.0464254 0)
(-0.0545498 0.0504957 0)
(-0.0676766 0.0507751 0)
(-0.0811177 0.0469741 0)
(-0.0937719 0.0390239 0)
(-0.104201 0.0273381 0)
(-0.110906 0.0129601 0)
(-0.112783 -0.00242318 0)
(-0.109318 -0.0167425 0)
(-0.1009 -0.0281047 0)
(-0.0887609 -0.0352427 0)
(-0.0743146 -0.0376608 0)
(-0.0587945 -0.0355381 0)
(-0.0429622 -0.0294633 0)
(-0.0342522 -0.0254449 0)
(-0.0465532 0.0565342 0)
(-0.0610065 0.0644632 0)
(-0.0766422 0.0678823 0)
(-0.0932332 0.0665741 0)
(-0.109905 0.0602514 0)
(-0.125251 0.048961 0)
(-0.137542 0.0333485 0)
(-0.145137 0.0147898 0)
(-0.14687 -0.00466673 0)
(-0.142334 -0.0226533 0)
(-0.132146 -0.0370823 0)
(-0.117692 -0.0465818 0)
(-0.100521 -0.0505877 0)
(-0.0819771 -0.049228 0)
(-0.062892 -0.0430595 0)
(-0.0520424 -0.0390711 0)
(-0.0643662 0.0759567 0)
(-0.0817544 0.0831359 0)
(-0.100453 0.0850349 0)
(-0.120003 0.0814488 0)
(-0.139269 0.0721396 0)
(-0.156597 0.0573086 0)
(-0.170088 0.0378399 0)
(-0.178066 0.015396 0)
(-0.179404 -0.00771701 0)
(-0.173864 -0.0289752 0)
(-0.162274 -0.0462266 0)
(-0.146104 -0.0580699 0)
(-0.126965 -0.0639086 0)
(-0.106244 -0.0638205 0)
(-0.0847985 -0.0583161 0)
(-0.0721731 -0.054993 0)
(-0.0844562 0.0965681 0)
(-0.104512 0.102059 0)
(-0.125883 0.10165 0)
(-0.14787 0.0951813 0)
(-0.169101 0.0825049 0)
(-0.187752 0.0640012 0)
(-0.201868 0.0407846 0)
(-0.20979 0.0147386 0)
(-0.210518 -0.0116761 0)
(-0.204053 -0.035888 0)
(-0.191356 -0.0557693 0)
(-0.173944 -0.0699449 0)
(-0.153444 -0.0778133 0)
(-0.131247 -0.0794113 0)
(-0.108206 -0.0752134 0)
(-0.0941201 -0.0731287 0)
(-0.106791 0.117869 0)
(-0.12923 0.120813 0)
(-0.152868 0.117395 0)
(-0.176757 0.107525 0)
(-0.199334 0.0911818 0)
(-0.218686 0.0689328 0)
(-0.23289 0.0420976 0)
(-0.240371 0.0127183 0)
(-0.240338 -0.0166881 0)
(-0.233014 -0.0435944 0)
(-0.21944 -0.0659556 0)
(-0.201153 -0.0824593 0)
(-0.179765 -0.0925198 0)
(-0.156646 -0.0961447 0)
(-0.132635 -0.0937917 0)
(-0.11733 -0.0934466 0)
(-0.131398 0.139327 0)
(-0.155912 0.138939 0)
(-0.181376 0.131889 0)
(-0.206612 0.118181 0)
(-0.229926 0.0979433 0)
(-0.249394 0.0719331 0)
(-0.263169 0.0416359 0)
(-0.26987 0.00918203 0)
(-0.268955 -0.0229428 0)
(-0.260818 -0.0523303 0)
(-0.24655 -0.0770574 0)
(-0.227656 -0.0958938 0)
(-0.205724 -0.108283 0)
(-0.1821 -0.114222 0)
(-0.157599 -0.114168 0)
(-0.141243 -0.115997 0)
(-0.158396 0.16037 0)
(-0.184635 0.155927 0)
(-0.211442 0.144686 0)
(-0.237438 0.126768 0)
(-0.260862 0.10248 0)
(-0.279839 0.0727513 0)
(-0.292697 0.0391806 0)
(-0.29833 0.00390756 0)
(-0.296432 -0.0306958 0)
(-0.287506 -0.0623872 0)
(-0.272665 -0.0893924 0)
(-0.253358 -0.110574 0)
(-0.231109 -0.125414 0)
(-0.207252 -0.133916 0)
(-0.182589 -0.136553 0)
(-0.165256 -0.140924 0)
(-0.187979 0.180273 0)
(-0.215547 0.171125 0)
(-0.243139 0.1552 0)
(-0.269228 0.132781 0)
(-0.292073 0.104362 0)
(-0.309948 0.0710207 0)
(-0.321453 0.0343996 0)
(-0.325765 -0.00343285 0)
(-0.322764 -0.0402774 0)
(-0.313027 -0.0740957 0)
(-0.297664 -0.103294 0)
(-0.278064 -0.126845 0)
(-0.255645 -0.144276 0)
(-0.231694 -0.155585 0)