/*--------------------------------*- C++ -*----------------------------------*\
| =========                 |                                                 |
| \\      /  F ield         | OpenFOAM: The Open Source CFD Toolbox           |
|  \\    /   O peration     | Version:  2412                                  |
|   \\  /    A nd           | Website:  www.openfoam.com                      |
|    \\/     M anipulation  |                                                 |
\*---------------------------------------------------------------------------*/
FoamFile
{
    version     2.0;
    format      ascii;
    arch        "LSB;label=32;scalar=64";
    class       volScalarField;
    location    "31";
    object      p;
}
// * * * * * * * * * * * * * * * * * * * * * * * * * * * * * * * * * * * * * //

dimensions      [0 2 -2 0 0 0 0];

internalField   nonuniform List<scalar> 
808
(
0.119969
0.0251686
0.0440791
0.119516
-0.245773
0.0250218
0.0159654
0.026959
-0.135217
-0.0215189
0.0382668
-0.155135
0.024065
0.0201581
-0.210204
0.0216229
-0.216566
0.0217263
0.0522254
0.0172057
0.056057
0.395624
0.0875873
-0.00163888
0.474816
-0.168746
-0.0658427
0.0122049
0.0229392
0.0294786
0.0195813
0.0250128
0.0289714
0.021322
-0.0764943
0.634354
0.0237926
0.0366443
0.0250477
0.0234088
-0.0445217
-0.0645304
0.0475011
0.0322524
-0.222485
0.104783
0.031617
0.0024775
0.0225722
-0.17442
0.023158
0.0178802
0.0585137
0.0121835
-0.0549138
0.0205672
0.0110003
0.0392105
-0.0214572
0.0163221
-0.333097
-0.00341157
0.0329011
-0.164952
0.0357789
0.0583353
-0.278645
0.027437
0.0514375
-0.298085
0.0287225
-0.337286
0.0240312
0.0272976
0.179073
0.0334021
0.0083251
-0.0358116
0.0209663
0.335441
-0.111106
0.025532
0.0429994
0.272916
0.0383842
-0.0115666
-0.378692
-0.0735254
0.0336482
-0.16559
0.0430775
-0.104443
0.273267
0.175438
0.0529801
-0.231827
0.0227401
-0.140231
-0.106718
-0.220196
0.0259578
0.0136529
0.0442594
-0.00325265
-0.0502675
0.073605
-0.275042
-0.0146596
0.018511
0.021455
-0.0379354
0.351812
0.0249555
0.0192002
0.028718
0.459182
0.0226607
-0.285099
0.0284061
0.0603438
-0.252885
0.0475892
0.0204983
0.0607303
0.130058
-0.0201467
0.105868
-0.0140203
0.0311268
0.0816944
-0.317351
0.0235607
-0.0356062
0.146289
0.0278183
0.0202713
0.0928989
0.0164307
0.0276327
0.0185949
-0.232949
0.0485257
0.076361
0.0271406
-0.00206298
0.0501572
0.0976572
0.15777
-0.133597
0.0195584
0.025476
0.363882
0.0360225
0.551599
-0.256527
-0.0712842
0.0258625
-0.226381
0.0877744
-0.0951002
-0.319355
-0.240597
-0.321904
0.0257549
0.074117
0.0296554
0.0281541
-0.341994
0.0200046
0.0357308
0.0441427
0.177948
0.0698137
0.115746
0.0295767
0.0721276
0.0854382
-0.155715
0.0303906
-0.366657
0.0317055
-0.103957
0.0250018
0.263317
-0.269127
0.133116
0.031259
-0.129139
0.0370282
-0.0891805
-0.237837
-0.0491345
0.0283609
0.0817641
0.0258546
-0.212565
0.028982
0.0246957
0.00456432
0.0984295
0.0688974
0.0232217
0.0308572
-0.34537
0.389969
-0.214157
-0.310221
0.0109801
0.0180455
0.0253179
-0.00269148
-0.418377
-0.281963
0.0279851
-0.00256019
0.0247347
-0.348178
-0.00399543
-0.0151878
0.0205433
0.00819654
-0.0520933
0.0294967
0.0281746
0.0069655
0.0321129
0.141615
-0.285639
-0.0106626
0.0210742
0.13449
0.0205571
0.0214081
0.0183893
-0.100663
0.00436139
0.00967783
-0.000666571
-0.0174014
0.017824
-0.00260532
-0.000467658
-0.0025725
0.00575574
0.00272745
-0.00076731
0.00945977
0.00590879
-0.00583215
0.0697445
-0.328598
0.00634836
0.0397335
-0.0485652
0.0172037
0.012901
0.025082
-0.00251389
0.0242395
0.146066
0.00477958
0.0218276
0.0105154
-0.0953655
0.039277
0.0144451
-0.0165772
0.0348077
-0.00906997
0.0624683
-0.0182246
-0.417991
0.295823
0.0387272
-0.0901048
0.0162238
0.0326433
0.0229618
-0.174221
0.272086
0.0187512
0.0126789
-0.0444883
0.0879109
-0.256604
0.0298356
0.0783553
-0.0515786
0.026613
0.089492
0.028985
0.0341756
-0.0126685
-0.00925812
0.0103047
0.0300329
0.0211601
0.0751338
0.0214088
0.0300887
-0.0132193
0.02774
-0.0312631
0.0286687
-0.521255
-0.0807861
0.0636796
-0.0857635
-0.175917
-0.319471
0.0475695
0.0264621
-0.312838
0.128735
0.157308
0.0280265
0.0284383
0.00342407
0.00716149
-0.232274
0.0456422
-0.0023518
0.0404704
0.0597611
0.0246166
0.0401907
-0.0246227
0.00400063
0.0351006
-0.27338
0.0156761
0.0282287
-0.0948068
-0.0810247
0.0212343
0.250948
0.0602821
-0.151844
0.555137
0.039152
0.00681511
0.036828
-0.0922069
-0.0239634
-0.0157866
0.0431599
0.00783322
0.0407561
-0.0509938
-0.19803
-0.0276812
0.124134
-0.0201797
-0.259262
-0.319043
-0.297121
-0.319973
0.0027153
0.0286834
0.0265611
0.0309196
-0.0251566
0.0138334
0.0340939
0.00369293
-0.516319
0.027162
0.0230119
0.033143
-0.0106151
0.040706
0.0232572
0.11392
-0.374367
0.0142302
-0.0125509
-0.00628807
0.108348
-0.28321
0.0131052
-0.253144
-0.00250379
0.0711967
0.0390212
0.0208987
0.0360431
-0.10658
-0.36111
0.0120489
0.0229461
-0.0768269
0.0533417
0.00753408
0.0210414
0.0028223
-0.00265925
-0.16392
0.0336892
0.0106807
0.0288304
-0.1473
-0.282633
0.0881365
-0.0169862
-0.0285931
-0.0213936
0.425633
-0.219903
0.00157809
-0.0460665
0.0124281
0.0170397
0.0344943
0.0812382
-0.000596464
-0.0611806
-0.0345478
0.00137164
-0.00461387
-0.00678414
-0.0120117
-0.011617
0.0216981
0.114954
0.0586969
0.0190959
0.0147717
0.0473174
-0.0184075
0.0359334
-0.387517
0.107308
0.0546413
0.0181148
-0.214279
-0.283084
-0.0102728
-0.092124
-0.0248559
0.0343964
-0.397485
-0.241681
0.260539
-0.338815
-0.466258
-0.0317761
-0.118501
-0.0202446
-0.253004
0.358288
-0.038681
-0.294886
0.015076
0.0604744
0.573402
0.017333
0.0112227
0.0741649
-0.0388608
-0.00338675
-0.399672
-0.213254
0.0280345
0.0647596
0.0343415
-0.271233
-0.331382
-0.174354
0.0289393
0.0534089
0.108907
-0.00492865
-0.0290567
0.0950475
0.037591
0.0237498
-0.138155
-0.237493
0.0677533
-0.0222294
0.02247
0.0250446
0.0812098
-0.0339721
0.045233
-0.481392
0.455895
-0.159817
-0.277306
-0.00579103
0.00519096
-0.262192
-0.250956
0.120818
-0.348408
-0.0460319
0.87493
0.0224151
-0.373427
0.0119168
-0.0268361
-0.0259275
-0.466439
-0.260541
-0.323348
0.0144089
-0.053451
-0.377873
0.00198349
-0.0123889
0.132521
-0.344286
0.0473424
-0.515132
-0.264729
-0.322814
-0.0353277
0.0178055
0.00875879
0.122783
0.127725
-0.00847986
-0.278717
0.308953
-0.00389651
0.000725937
-0.455496
-0.512693
-0.356988
-0.037445
-0.364931
-0.00738252
0.108584
0.0784421
-0.0960163
-0.240408
0.014899
-0.304536
-0.214652
0.00808041
0.00894979
-0.392213
0.00318664
0.0537281
-0.395366
-0.326609
-0.0694771
0.125676
0.0294437
-0.340743
-0.24577
-0.187962
-0.0372659
0.0624469
0.119649
0.00816992
-0.267304
-0.233549
0.124894
0.0301602
-0.0453395
0.039242
0.0546694
-0.271678
0.0209019
-0.277526
0.0627097
-0.325255
0.107915
4.42953e-05
-0.301476
-0.390442
0.00164377
-0.482207
-0.475911
0.0546113
-0.0308664
-0.247476
0.0277456
-0.290532
0.0174756
0.108603
0.0645101
-0.352914
0.0152896
0.136959
-0.395138
0.0212556
-0.287617
0.0260214
-0.323582
-0.445281
0.0951721
0.300572
0.452493
-0.00626866
0.00210557
0.000110821
-0.358905
0.662538
0.0280658
-0.160715
0.024773
-0.0772614
0.0788733
0.509991
-0.307379
-0.0386526
-0.0295529
0.0300913
0.0255303
-0.386894
-0.265338
-0.29034
-0.272256
-0.28488
0.00954729
-0.368052
-0.0457312
-0.210396
-0.262209
0.540845
0.615277
-0.222515
0.10515
-0.253464
-0.0120712
-0.058372
0.43759
-0.017271
-0.332475
-0.0772379
-0.446952
-0.00331093
-0.150481
0.0178016
-0.253584
-0.206911
0.000884705
0.00219571
-0.338582
0.446739
0.696375
-0.348202
-0.248162
-0.346129
-0.0494796
-0.246912
-0.245723
-0.139471
-0.335437
0.778825
-0.279984
0.749993
-0.428014
0.328743
-0.329599
0.0190276
0.20564
-0.436101
0.217285
-0.213397
-0.251639
-0.280418
0.89026
-0.261199
0.210222
0.144856
0.648324
0.123958
-0.276084
-0.208175
-0.0946138
0.0142515
0.122992
0.521182
0.0124004
0.000644349
-0.245734
0.155161
-0.132501
-0.188458
0.0344393
-0.26622
-0.168859
-0.111935
-0.387395
0.0183313
0.106262
0.00476387
0.0994393
0.106689
-0.269284
-0.30514
-0.0328977
0.0335916
-0.406891
-0.450184
0.211238
0.222029
0.0941534
0.694604
-0.0908347
-0.379804
-0.329732
-0.240734
-0.0693749
0.117966
0.783496
-0.389994
0.372687
0.00402092
-0.361553
0.181024
-0.0344589
0.383385
-0.112692
0.0302123
-0.350152
-0.0885077
0.188272
0.823093
0.337893
0.782889
-0.330861
-0.230312
-0.435031
0.200809
0.294372
0.0807747
0.410625
0.128347
0.509922
0.306879
-0.0658291
-0.200769
0.0175238
-0.305745
0.899989
0.418013
0.676598
0.528326
-0.219177
-0.335277
-0.250131
-0.291352
0.0657456
-0.418688
0.0945554
0.620875
-0.376986
0.00918106
-0.294282
0.211152
-0.267637
-0.304853
-0.102152
-0.2216
-0.279644
-0.286266
-0.358151
-0.0760707
-0.437116
-0.144682
-0.393695
0.175911
0.658521
-0.168078
-0.343572
0.849299
-0.340436
0.283323
-0.185408
0.385608
0.0907063
-0.334313
-0.335132
0.473757
-0.288997
-0.268826
0.183197
-0.226889
0.00222711
-0.242726
-0.0757641
0.0245787
0.575243
0.793564
-0.244094
0.226318
-0.288002
0.83871
0.00631234
-0.257024
0.00142397
0.772908
0.23367
-0.264877
-0.241967
0.456211
-0.163623
0.0723644
0.382789
0.27932
0.297138
-0.200373
-0.250392
0.702553
)
;

boundaryField
{
    FrontBack
    {
        type            empty;
    }
    Top
    {
        type            zeroGradient;
    }
    In
    {
        type            zeroGradient;
    }
    Bottom
    {
        type            zeroGradient;
    }
    Out
    {
        type            fixedValue;
        value           uniform 0;
    }
    circle
    {
        type            zeroGradient;
    }
}


// ************************************************************************* //
