/*--------------------------------*- C++ -*----------------------------------*\
| =========                 |                                                 |
| \\      /  F ield         | OpenFOAM: The Open Source CFD Toolbox           |
|  \\    /   O peration     | Version:  2412                                  |
|   \\  /    A nd           | Website:  www.openfoam.com                      |
|    \\/     M anipulation  |                                                 |
\*---------------------------------------------------------------------------*/
FoamFile
{
    version     2.0;
    format      ascii;
    arch        "LSB;label=32;scalar=64";
    class       surfaceScalarField;
    location    "31";
    object      phi;
}
// * * * * * * * * * * * * * * * * * * * * * * * * * * * * * * * * * * * * * //

dimensions      [0 3 -1 0 0 0 0];

oriented        oriented;

internalField   nonuniform List<scalar> 
1171
(
-0.945507
0.945507
0.771916
-1.07829
0.306376
-0.111999
-0.793848
0.905846
0.0544932
-0.0721762
-0.276669
0.348845
-0.771916
0.0811498
0.690767
0.911158
-0.204636
-0.706522
0.831935
-1.05964
0.22771
-0.352751
-0.0434147
0.396166
-0.00592483
0.600853
-0.594928
-0.6538
1.00418
-0.350383
-0.424927
1.01106
-0.179127
0.22172
0.104535
-0.326256
0.969896
0.0411662
0.283053
-0.0613326
0.999843
-0.029947
0.758531
-0.87053
-0.78198
0.609956
0.172024
0.158705
-0.812505
0.555392
-0.91296
0.357568
-1.08025
0.670797
0.409454
-0.643051
0.637126
0.0306322
-0.25004
0.219408
0.0395925
-0.647651
0.608059
0.463547
-0.506962
-0.845988
0.899896
-0.0539074
1.00064
-0.00079935
0.917423
-1.07947
0.162047
1.01555
-0.0149116
-0.695106
-0.086874
1.28792
-0.874725
-0.413194
0.169565
-0.0810319
-0.402742
0.483774
-0.274528
0.187187
0.0873416
-0.600352
-0.477941
0.994613
-0.0771894
-0.0308356
0.886756
-0.85592
0.508644
0.779276
0.519821
0.0165102
0.447037
-0.789303
-0.108738
0.898041
0.585507
0.252168
-0.837675
0.0321487
0.636829
-0.668977
-0.509373
-0.570878
-0.385259
-0.694212
0.0220408
0.249845
-0.271886
-0.959046
-0.0361618
0.995208
0.369249
0.0269168
0.837192
0.0739663
-0.599282
-0.0437691
0.0369008
-0.826204
0.0950315
0.972768
-1.0678
-0.406433
0.0308045
0.375629
-0.718125
-0.240921
-0.791038
0.88607
0.747985
0.256198
-0.578418
1.00213
-0.818329
-0.183797
-0.163463
0.0846266
0.0788364
-0.456913
-0.0500493
-0.314198
1.06218
0.00648606
0.417653
-0.424139
-0.541072
1.12658
0.710828
-0.819567
0.386059
-0.0583369
-0.327723
0.778773
-0.778773
-0.891454
0.0448259
-0.321495
-0.698975
0.668139
-0.0396219
-0.147759
0.187381
0.886513
0.00024246
1.06235
-0.810184
0.223766
-0.3218
0.0980341
0.945363
-0.108172
-0.669228
-0.0599085
0.729137
0.149515
-0.230736
0.0812212
0.795555
-1.00019
-0.439273
0.309165
0.130108
0.687321
-0.647728
0.882097
-0.40206
-0.480037
0.496838
-0.694481
0.0357623
0.658719
0.107688
0.663857
0.0405923
-0.704449
0.141678
-0.0968524
-0.510203
0.10377
0.037302
-0.903361
0.866059
-0.543116
-0.756043
0.0609374
0.496069
-0.0490317
0.276111
-0.833479
0.557368
0.424304
0.575696
0.599703
-0.562802
-0.392546
0.00872744
0.383818
0.542732
0.236041
-0.689114
0.721262
0.093327
0.876705
0.00807913
-0.677307
-0.763983
0.801285
0.603948
0.119779
0.324472
-0.444251
-0.155407
0.576216
0.0606129
0.821165
-0.933088
0.111923
0.663518
0.338608
-0.434872
0.697319
-0.57754
0.408641
0.146751
-0.0546062
-0.674667
-0.263536
0.938203
-0.119887
-0.658886
-0.614487
0.363122
0.251364
0.661682
-0.653603
0.309224
1.04788
0.0144695
-0.763983
-0.147757
-0.0157057
0.710828
0.789743
-0.789743
0.842424
-0.827967
-0.0144573
-0.454149
0.878453
-0.193709
-0.316494
0.762879
-0.671555
-0.0913241
-0.965438
0.290771
0.11202
-0.711302
0.819567
-0.974974
-0.218239
0.182162
0.0360769
0.108071
-1.01298
0.904912
0.537648
-0.0178273
-0.289469
0.595074
-0.305605
-0.663585
0.771656
-0.156648
0.64779
-0.817716
0.169926
1.08583
-0.658522
-0.427309
0.735137
-0.0673511
-0.00858731
0.00681202
0.00177528
-0.799813
-0.742178
-0.05167
-0.698975
0.576753
-0.545948
0.269589
0.59028
-0.859869
0.77844
0.167066
0.491211
0.508789
-0.133786
-0.694934
0.828719
0.956461
-0.135296
-0.735137
0.801285
0.181939
-0.431979
-0.0159664
0.000124744
0.0158417
0.677805
-0.432373
-0.245432
0.690767
-0.0609183
-0.0943874
0.569662
0.108143
-0.0167757
0.00176907
0.0150066
0.00381863
-0.0124059
0.163832
-0.222169
-0.94639
0.0348997
-0.145105
-0.0544067
0.139287
0.81238
0.742217
-0.166521
0.568855
-0.299266
-0.165049
0.388815
0.649115
0.0416512
0.230828
-1.05879
-0.974974
0.320217
0.668139
-0.167803
0.0200443
-0.84728
1.03474
-0.187457
0.483156
-0.107527
0.798708
0.305519
0.316512
-0.0334591
-0.680535
0.680535
0.230596
0.667445
-0.0270412
0.444695
0.456733
0.0265526
-0.042519
0.536947
0.000700566
-0.663585
0.568985
0.193894
-0.00720382
0.0140158
-0.649115
0.154732
0.880005
0.0293134
-0.722619
0.693306
0.760286
-0.821828
0.0615416
-0.77844
-0.0413128
0.0569647
-0.0156519
0.0870396
-0.116543
-0.102614
0.219158
-0.00896341
-0.00781226
0.755895
-0.726581
0.98202
-0.0761739
-0.260395
-0.651318
0.911712
-0.000318551
0.000318551
0.190889
0.517373
0.380474
-0.897847
-0.188102
-0.556822
0.744924
-0.0171801
0.204561
0.381286
-0.23177
1.06454
-0.547162
0.874727
0.916007
-0.535533
0.187577
0.771656
0.592528
0.25405
0.645846
-0.658886
0.319465
-8.35172e-05
0.0316444
-0.0315609
0.921838
0.137668
-1.05951
-0.562581
0.54767
0.545851
-0.562581
-0.592528
0.54767
-0.00179287
1.005
-0.0229782
-0.542732
0.455005
0.0877263
0.53716
0.689658
-1.22682
0.496847
0.567688
0.729579
0.521041
-1.25062
0.491554
0.424453
0.455005
-0.532902
-0.530557
-0.636304
-0.510512
-0.227437
-0.00793267
0.00793267
0.555275
0.541525
-1.05204
0.672164
-0.347692
-1.01886
0.360337
-0.701685
0.460764
-0.0789478
-0.875462
0.95441
0.452748
-0.153827
1.07566
-1.05143
-1.05102
0.199075
0.851947
0.446272
-0.265752
-0.18052
0.759181
-0.836371
1.02146
-0.917685
-0.103772
-0.144141
-0.788947
-0.216221
0.8521
-0.635879
-1.13878
0.99464
-0.531499
0.556019
-0.0245199
-0.621523
-0.146171
0.767694
0.00479009
-0.00510864
0.422862
0.0299764
-0.928211
0.898234
-0.823686
0.689901
1.05545
0.196648
-1.2521
0.00442596
-0.0205357
0.404354
-0.361777
0.0399766
0.891452
-0.9704
-0.697697
-0.83056
0.0416131
-0.118718
-0.914077
-0.00360808
0.361573
0.207282
0.11576
0.330513
-0.686115
0.539943
0.480037
-1.02929
-0.942133
0.0628657
0.193348
0.529573
-0.722921
0.0403333
-0.504349
0.57936
0.180926
0.156541
0.919123
1.19371
0.92901
-0.932618
0.0483966
-0.0483966
-0.0780666
-0.119386
-0.146366
0.330812
-0.0105954
0.255594
0.959456
0.00146363
-0.010427
0.657118
0.342882
0.796729
-0.600352
-0.768533
-0.585253
-0.493762
0.493762
-0.208441
-0.113054
0.686082
-0.896734
0.210652
-0.479928
-0.538706
0.320845
-1.01506
-0.893507
0.789736
-0.605892
0.647506
0.672192
0.172662
-0.844854
-0.609773
-0.184395
0.841254
-0.656859
-0.0659491
0.00333534
0.00269669
-0.00603203
-0.185012
0.065626
1.00693
0.696419
-0.307032
-0.389388
0.515899
0.749653
-0.519057
0.0141832
-0.288711
-0.113535
0.835994
-0.722458
-0.342864
-0.102424
0.144379
-1.07675
0.0172473
-0.724072
0.0942784
0.72028
-0.814558
-0.853674
0.129602
0.68937
-0.791794
0.235941
-0.352485
-0.594335
-0.0154387
0.36908
0.705866
-0.00854707
-0.00150631
0.00150631
-0.0061636
0.0504606
-0.0505442
-0.0161109
0.0175746
-0.387052
0.329691
0.783766
-0.794246
0.0104801
-0.64346
0.737738
0.784323
-0.0949534
-0.664376
-0.189298
-1.11623
0.0209121
0.0274844
-0.500588
-0.880597
-0.902434
0.48924
-0.0693463
0.0910208
-0.0216744
-0.220215
-0.280372
0.420928
0.711611
-0.0570637
0.002657
1.09219
0.549693
0.155289
-0.704982
-0.310185
0.0899694
-0.00643752
0.00977285
0.702963
-0.966499
0.00448446
-0.00448446
-0.745751
0.769936
-0.0241847
-0.194425
-0.143253
-0.693815
0.233678
0.595041
-0.0584929
-0.87821
-0.443775
0.132883
0.310892
0.690098
-0.679618
0.363078
0.251539
-0.614617
-0.177634
-0.679827
-0.134732
-0.196058
-0.210097
0.466398
-0.516447
0.196563
0.742565
-0.939129
0.496838
-0.169735
0.100389
0.157774
-0.367871
0.594765
-0.0954148
-0.49935
-0.288126
0.308131
-0.0200048
0.587561
0.0846037
0.104497
-0.313457
0.171022
0.142434
-0.153509
0.00575203
-0.36455
-0.0042643
-0.12588
0.130144
0.891974
-0.125559
-0.0688658
0.550252
0.329068
-0.6361
0.406818
-0.406818
-0.202788
-0.391422
-0.215285
-0.391422
-0.762856
-0.851672
0.180117
-0.271925
0.744685
0.0488166
0.104124
0.601742
0.110476
0.122705
0.00816116
-0.130866
-0.139042
0.624663
-0.937996
0.286678
-0.116328
0.0966657
0.0196619
-0.751812
-0.175082
-0.620068
0.775357
-0.515163
-0.131864
-0.236006
-0.338318
-0.0799146
0.0799146
0.0540167
0.00294797
0.143617
0.0967728
-0.691685
0.0716174
-0.0846833
0.472553
0.527447
0.794397
0.028639
0.000414138
-0.0290532
-0.299981
-0.578229
-0.563753
0.115826
-0.12057
0.00474362
-0.166912
-0.411909
-0.150938
0.745978
-0.580388
-0.171424
-0.0472378
0.0193488
0.302324
-0.579638
-0.20028
-0.202383
-0.0197856
-0.473665
0.434973
0.0386922
-0.122407
0.294439
-0.865317
-0.532425
0.606937
-0.881853
0.704219
0.424159
-0.0285215
0.0507146
-0.0221931
0.0581202
-0.635883
-0.00607625
0.641959
-0.891728
0.65137
-0.729436
-0.14826
0.00851769
-0.00851769
-0.299273
0.393947
0.0104068
0.0117745
0.0168646
0.595401
0.611168
-0.499245
0.0118992
0.00155427
-0.00306058
0.00577177
-0.00577177
-0.461921
0.546525
0.0154765
-0.0154765
-0.777922
-0.009994
0.0147841
-0.521884
0.593501
0.63637
-0.660555
0.0713277
-0.0713277
-0.0361788
-0.00634025
0.00217755
-1.05842
0.631109
-0.483596
-0.00510864
0.603433
0.0102297
-0.613663
-0.712376
0.131987
-0.314206
-0.0137478
0.327954
-0.0342311
-0.0228326
-0.608305
-0.0275779
0.0274844
0.00540113
-0.000916666
-0.00336936
0.00336936
-0.121414
0.251558
-0.478364
0.136637
0.660092
-0.103241
0.004203
-0.004203
0.508315
-0.249125
0.00883624
0.0189667
0.00066313
0.557545
-0.80667
-0.665057
0.596191
-0.0896488
0.33614
0.783701
-0.0061636
-0.0800753
0.0940912
-0.634893
0.54534
-0.354724
-0.108943
-0.0289447
-0.0261249
-0.0156968
0.457433
-0.0853545
-0.413996
0.704461
0.0021609
0.00315885
-0.00315885
-0.159328
-0.024641
-0.571261
0.620078
-0.131136
0.50972
-0.170556
0.929087
0.754265
0.00540113
-0.785834
0.659878
0.0857552
-0.00861995
-0.0771353
0.473784
0.102341
-0.0114231
0.0634662
-0.052043
0.00805376
-0.00805376
-0.741493
0.0229311
-0.0467645
0.0657313
-0.0855468
0.0855468
0.00155427
-0.0019606
0.74269
0.137315
-0.315725
-0.0961837
-0.517408
0.0385174
-0.0656132
0.0656132
-0.065232
0.0830954
-0.0830954
0.0253931
-0.0253931
-0.356598
-0.0782734
0.239194
0.0699711
0.0481876
-0.748187
-0.0684869
0.160151
0.0217879
-0.237724
0.0826604
-0.0826604
-0.465086
-0.0513608
0.22935
-0.00994228
0.00203176
-0.659807
0.6616
-0.0376063
-0.0276257
0.0840628
-0.0904031
-0.0117676
-0.159523
0.171291
-0.149669
-0.202816
-0.0804072
0.0804072
0.05426
-0.05426
-0.0281167
-0.0938441
0.121961
-0.0419838
-0.190092
-0.0058672
0.00280661
-0.0722038
0.323762
-0.0256546
0.521298
0.00871337
0.00629322
-0.0496834
0.0496834
-0.735513
0.315986
-0.128409
-0.207361
-0.0233753
-0.0158474
0.0178792
0.193472
0.0256853
-0.000204679
0.000867809
0.0855591
0.030267
0.0563647
0.103786
-0.0146527
0.0173097
-0.00132561
0.00292184
0.00523064
0.00190017
-0.00713081
-0.00160459
0.0108743
0.0274028
-0.0274028
0.0476188
-0.0435723
0.0435723
-0.190754
0.00921506
0.0282964
-0.0750125
0.0173393
0.078583
-0.078583
0.232164
-0.233185
0.0835169
-0.0664363
-0.166749
-0.0150762
0.0150762
0.406723
0.251996
-0.521648
-0.0810245
-0.0395452
0.54336
0.042079
-0.0543901
-0.437341
0.109792
-0.1522
0.168886
-0.0166866
-0.0483159
0.0483159
0.893494
-0.591133
-0.00624238
0.00463779
-0.0056322
-0.288136
-0.000434978
0.0051396
-0.0484426
-0.627999
0.568768
-0.674423
0.014794
0.114802
0.0159298
0.0242903
-0.157832
-0.33243
0.257418
-0.0549739
0.0268572
0.171206
0.136924
0.294111
0.262596
-0.246666
0.00431397
-0.116929
-0.221109
0.0673004
-0.0109357
0.158477
-0.134186
-0.0690415
0.154601
-0.422884
0.118479
-0.10114
0.0583073
-0.472303
0.174026
0.179555
-0.248596
0.0106696
-0.179963
0.179528
0.00407742
0.150523
-0.0280958
0.0479092
0.460406
0.0123265
0.0128543
-0.00367545
0.0396064
-0.237795
-0.202322
0.59038
0.167824
0.0615256
0.0744108
-0.0633561
0.021363
-0.0984983
-0.0305527
0.165445
-0.150651
-0.00284244
-0.00343576
-0.107935
-0.0294398
0.0144673
0.251763
-0.0131819
-0.0690401
-0.310343
-0.0136176
0.219532
0.137675
0.178311
0.0573366
0.0963062
0.0692767
0.526124
-0.00845641
0.106162
0.0414884
0.067641
-0.109129
-0.269652
-0.195012
0.0282624
-0.22054
0.282081
)
;

boundaryField
{
    FrontBack
    {
        type            empty;
    }
    Top
    {
        type            calculated;
        value           uniform 0;
    }
    In
    {
        type            calculated;
        value           uniform -1;
    }
    Bottom
    {
        type            calculated;
        value           uniform 0;
    }
    Out
    {
        type            calculated;
        value           nonuniform List<scalar> 10(1.22643 1.07006 1.16686 1.05924 1.2107 0.934965 1.0968 1.01863 0.609606 0.606706);
    }
    circle
    {
        type            calculated;
        value           uniform 0;
    }
}


// ************************************************************************* //
