/*--------------------------------*- C++ -*----------------------------------*\
| =========                 |                                                 |
| \\      /  F ield         | OpenFOAM: The Open Source CFD Toolbox           |
|  \\    /   O peration     | Version:  2412                                  |
|   \\  /    A nd           | Website:  www.openfoam.com                      |
|    \\/     M anipulation  |                                                 |
\*---------------------------------------------------------------------------*/
FoamFile
{
    version     2.0;
    format      ascii;
    arch        "LSB;label=32;scalar=64";
    class       volVectorField;
    location    "31";
    object      U;
}
// * * * * * * * * * * * * * * * * * * * * * * * * * * * * * * * * * * * * * //

dimensions      [0 1 -1 0 0 0 0];

internalField   nonuniform List<vector> 
808
(
(0.896409 -0.0113882 0)
(1.01307 -0.0377305 0)
(1.13434 -0.145892 0)
(1.06696 0.0106096 -2.51969e-21)
(1.48339 -0.270568 0)
(0.952546 -0.0238606 0)
(1.1176 -0.0525229 -4.23582e-21)
(1.13974 -0.0477047 0)
(1.35292 -0.214721 2.62972e-20)
(1.22183 -0.0784811 -6.05959e-21)
(1.20865 0.0641821 9.29563e-21)
(1.38676 -0.235317 0)
(0.999347 -0.044627 0)
(0.739548 -0.021692 0)
(0.928843 0.0836836 1.5159e-20)
(1.08171 -0.0350348 0)
(0.807568 0.0525576 -5.2478e-21)
(0.979548 -0.0267058 -9.97319e-23)
(1.19441 -0.0620988 0)
(1.11117 0.000203797 0)
(1.19221 0.0467586 -1.2971e-20)
(0.926987 0.122087 1.15563e-19)
(1.07459 0.0127875 -1.62469e-20)
(1.17252 -0.0370193 0)
(0.952454 0.180534 0)
(1.36308 0.0760566 -2.72922e-20)
(1.28157 -0.159768 8.81117e-21)
(0.971433 -0.0340676 -6.53836e-21)
(1.06615 -0.0196235 0)
(1.05118 0.0256689 -2.93694e-22)
(0.9791 -0.0135263 5.60023e-24)
(1.11887 -0.0161435 0)
(1.07101 0.0470485 0)
(1.0773 -0.0270555 5.46849e-21)
(1.28925 -0.0602577 6.83619e-21)
(0.744565 -0.118501 1.11859e-19)
(0.868785 -0.028253 -9.7885e-21)
(1.044 0.0363885 1.58925e-21)
(1.19377 0.0575791 -3.38006e-21)
(1.1148 0.0419484 0)
(1.24579 -0.061124 -1.19675e-20)
(1.27063 -0.120933 0)
(1.00987 -0.00756823 -1.0007e-20)
(1.13535 -0.0213657 1.0781e-20)
(1.29153 -0.0663266 0)
(1.01092 0.0169466 -2.27464e-20)
(1.00737 0.0363666 2.84482e-21)
(1.25543 -0.236857 8.77868e-21)
(1.17968 0.0541864 -7.08525e-21)
(1.40423 -0.150825 -3.79898e-20)
(1.11403 -0.0435557 8.23507e-21)
(1.14418 -0.063552 0)
(1.11908 -0.000134724 8.96188e-21)
(1.18435 -0.011665 0)
(1.31875 0.237456 2.52596e-21)
(1.07861 0.043332 -2.86437e-21)
(1.26291 0.0256326 0)
(1.28397 -0.0222258 2.56941e-21)
(1.22841 -0.0844686 6.50468e-21)
(1.14884 0.023459 -7.66987e-22)
(-0.248041 0.269852 0)
(1.21585 -0.20696 -7.23978e-21)
(1.24312 -0.04614 0)
(1.39906 -0.0566162 -2.57483e-20)
(1.16466 -0.0268269 -1.12059e-20)
(1.04047 -0.028278 -9.89098e-21)
(1.37273 -0.073616 2.78343e-20)
(0.662838 0.0199564 0)
(1.15489 -0.00972088 0)
(1.4629 -0.341099 0)
(0.899087 0.0305041 -2.49075e-22)
(1.28748 -0.123816 -4.46034e-20)
(1.01051 0.0516773 0)
(1.06023 -0.0364413 -4.58241e-21)
(1.1286 -0.332879 -5.55884e-20)
(1.10991 -0.0257721 -1.67736e-20)
(1.1413 0.0137944 -4.80883e-23)
(1.31533 0.497767 2.44948e-20)
(1.09827 -0.0399941 0)
(1.01016 0.278504 -1.93261e-19)
(1.36922 0.0355884 1.45767e-20)
(0.752744 0.014105 0)
(0.850624 0.0264892 -1.27208e-20)
(0.970622 -0.110371 4.25362e-21)
(1.11268 -0.0346641 1.32068e-20)
(1.1808 0.00487046 7.56948e-22)
(1.31914 -0.225076 0)
(1.34134 0.28906 0)
(1.08656 0.000695867 -1.57215e-20)
(1.4013 0.113946 3.10972e-20)
(1.07539 -0.0191883 1.3357e-20)
(1.31483 -0.104714 -1.41853e-21)
(0.96467 0.0241686 1.84606e-20)
(1.00376 -0.0239737 0)
(1.1132 0.0155207 1.97171e-21)
(1.29858 0.00215538 -6.31403e-20)
(0.763471 0.0167263 -2.82843e-21)
(1.38673 -0.0543583 0)
(1.31075 -0.0762345 0)
(1.42138 -0.0420055 -4.54231e-20)
(1.09992 -0.0425883 -5.34669e-21)
(1.11957 0.00519337 -1.27722e-22)
(0.946685 0.019914 1.19198e-20)
(1.17407 -0.0146835 5.65355e-23)
(1.27378 -0.000236962 -1.18873e-20)
(1.00304 0.00367846 1.59505e-20)
(1.49682 -0.0960388 0)
(0.935645 0.182154 0)
(1.10003 0.0296456 6.12211e-21)
(1.20677 -0.211345 -6.61244e-21)
(1.25016 -0.00746561 6.29642e-21)
(1.04357 0.0431783 -1.27247e-19)
(1.16086 0.0358414 -2.3622e-21)
(1.2419 0.189345 2.97048e-21)
(0.804571 0.0214782 0)
(0.919068 -0.0500326 7.67901e-20)
(1.14592 0.0143667 -7.02995e-21)
(1.45773 -0.244514 -1.943e-20)
(1.14124 -0.0446986 -8.63795e-21)
(0.929611 0.0171677 2.29386e-21)
(-0.3634 0.0781784 0)
(0.856385 -0.0185102 2.26332e-21)
(0.79973 0.0217886 0)
(1.06036 0.00288525 -9.66206e-23)
(1.01216 0.0290064 0)
(1.30637 0.323432 4.19828e-21)
(1.03628 -0.05033 -3.16786e-20)
(1.41141 0.169541 -1.24485e-21)
(1.14606 -0.0619772 0)
(1.0931 -0.0209445 0)
(0.702112 0.0409572 0)
(1.15194 -0.0364072 -3.89403e-21)
(1.23178 -0.0455347 6.4349e-21)
(1.06642 0.11089 -3.69232e-20)
(0.852735 -0.0334748 0)
(1.10218 0.0195981 -1.70173e-21)
(0.995077 0.103135 4.98012e-21)
(1.11854 0.034737 -2.51799e-21)
(0.998909 0.0324028 4.50142e-21)
(1.1238 0.00439782 1.07071e-22)
(-0.010826 0.0586781 0)
(1.09296 -0.0217692 -1.47762e-20)
(0.961686 -0.112777 3.62141e-21)
(0.718167 0.0246827 -4.2872e-21)
(1.25826 0.174432 4.24284e-21)
(1.09628 0.232391 3.77289e-21)
(1.04517 0.0186375 1.7292e-20)
(0.991241 0.0268463 0)
(1.19757 -0.23908 -2.16848e-20)
(1.12591 0.188251 0)
(0.947115 0.0314407 8.86442e-21)
(0.966766 0.27774 1.54351e-19)
(0.971937 0.035821 0)
(0.819126 0.0943682 0)
(-0.0986664 0.0633506 -6.25449e-20)
(1.34246 0.14071 -9.46761e-21)
(0.683162 -0.0224957 0)
(1.46406 0.0456797 0)
(1.07806 -0.0329224 0)
(1.36107 0.106402 1.13127e-20)
(-0.0513356 -0.11534 0)
(-0.0519279 0.0668246 2.88887e-20)
(1.08364 -0.00147612 9.39706e-20)
(1.00797 0.0369225 1.36902e-21)
(0.858841 -0.00103201 0)
(1.04556 -0.0523521 1.22304e-20)
(0.888913 0.0211633 0)
(0.819632 0.00613346 -1.01535e-19)
(1.03935 0.0483745 1.16436e-20)
(1.16147 -0.0340136 3.56586e-21)
(1.0921 0.00944705 7.2128e-21)
(1.01348 0.0683049 -1.32241e-20)
(0.788647 0.252637 -3.75606e-21)
(1.14066 -0.346693 5.10112e-22)
(0.916817 -0.0216907 0)
(1.0672 0.00242307 -1.3971e-20)
(0.873048 0.0079883 -1.27674e-20)
(1.37185 -0.1467 2.15373e-21)
(0.683461 0.025212 0)
(1.09028 -0.133514 0)
(1.15132 -0.0515426 4.983e-21)
(1.38467 0.220749 7.44536e-21)
(1.11291 0.0131251 5.4479e-21)
(1.03539 0.0181547 1.9516e-20)
(0.731288 0.134019 -7.73011e-20)
(0.812534 0.00369623 2.23776e-20)
(1.13498 -0.0198225 6.48154e-21)
(1.34904 -0.0391185 -4.17881e-21)
(1.13865 -0.0347052 -6.35739e-21)
(1.29365 -0.0327963 3.58081e-21)
(-0.0986897 0.0971471 4.49335e-20)
(1.25174 -0.0303983 0)
(0.62877 -0.014472 0)
(1.06017 -0.0262446 -6.58654e-21)
(1.09711 0.00974893 8.39718e-21)
(0.0381952 0.105616 0)
(0.884029 -0.0258165 5.58183e-22)
(1.16078 -0.0664725 -2.71425e-21)
(0.963357 0.0215184 1.13586e-21)
(1.07845 0.0381733 -8.39297e-21)
(1.00272 0.0203179 2.5517e-21)
(1.06241 -0.0569458 2.39431e-21)
(1.06973 0.0327331 0)
(0.390737 -0.0305153 0)
(1.04851 -0.0650763 0)
(1.12513 0.113097 -2.3128e-20)
(-0.0543502 -0.107252 4.92905e-20)
(1.0799 0.0408108 -1.2185e-23)
(1.08978 -0.10231 0)
(0.755913 0.022689 -8.50961e-21)
(1.08337 0.149732 1.95915e-21)
(0.00282278 -0.0412502 -1.65761e-19)
(0.843355 0.0711898 -5.01577e-20)
(0.643539 -0.0160075 0)
(0.854848 0.154255 0)
(0.931477 0.0282111 8.85998e-21)
(1.06323 -0.0981402 6.47154e-21)
(1.2723 0.398204 -6.10647e-21)
(1.07169 0.0630991 1.82938e-22)
(1.25881 -0.0728899 -1.3894e-21)
(0.943061 0.201991 0)
(1.35506 0.424444 -2.66184e-20)
(0.668836 -0.0197445 0)
(0.799413 -0.0240104 -3.91273e-21)
(1.07148 -0.0334758 4.51536e-22)
(0.608511 0.0122456 0)
(1.1006 -0.00645921 0)
(0.100094 0.173418 -4.317e-20)
(1.24375 -0.18257 2.55579e-21)
(0.72843 -0.0141105 3.15879e-21)
(0.990037 -0.00322914 0)
(0.558258 -0.0152554 0)
(0.755184 -0.0194305 -3.67394e-21)
(0.552272 -0.01685 -5.76038e-22)
(1.3588 0.0266368 2.76983e-22)
(1.26235 -0.0311974 6.01615e-22)
(0.701873 0.0202381 -2.00761e-21)
(1.18138 -0.0217128 2.27091e-22)
(1.14194 -0.0082955 -1.72371e-22)
(0.550259 0.0154328 5.50304e-21)
(1.30225 -0.028799 -1.90083e-23)
(1.2233 -0.0849744 0)
(0.86914 0.0971629 0)
(0.492848 0.0190205 0)
(1.06788 -0.0265027 0)
(1.16834 -0.0138835 -6.97427e-22)
(1.04997 -0.0559149 0)
(1.20746 -0.0524055 0)
(0.944302 -0.0176197 0)
(1.11318 0.156493 0)
(-0.0309445 -0.0601724 5.08582e-20)
(1.18369 -0.00621716 4.99775e-22)
(1.01431 0.047163 0)
(1.27314 -0.0132502 2.96174e-21)
(1.13046 0.0482782 1.6567e-21)
(1.12934 0.0402789 1.72788e-21)
(1.1216 -0.112123 4.96719e-21)
(1.10697 -0.0514861 0)
(0.579118 -0.0148903 7.75202e-21)
(1.05117 0.0444953 1.28618e-20)
(1.30845 -0.168657 0)
(1.19562 0.053648 -1.82798e-21)
(1.19551 0.0936695 2.72382e-21)
(0.72836 0.0758063 1.48658e-20)
(1.15622 0.00460529 6.55282e-21)
(1.14999 0.0605624 -7.11415e-21)
(1.13681 0.117489 0)
(1.16571 0.159987 -1.40347e-20)
(1.23035 0.164166 1.93093e-21)
(0.624383 -0.0641555 1.28352e-20)
(0.799617 -0.169674 0)
(-0.00952107 -0.0234212 0)
(0.97088 0.110252 -1.83997e-20)
(1.1269 0.00298232 0)
(1.31015 -0.119555 2.75862e-20)
(1.26714 0.0828206 2.55189e-23)
(1.12095 0.0883041 6.83897e-21)
(1.18584 0.0808623 -2.7076e-21)
(1.34396 0.0311711 8.67108e-20)
(1.02254 -0.326124 5.61208e-20)
(1.11174 -0.058309 7.86654e-23)
(0.855962 -0.1689 0)
(0.932782 0.0456221 0)
(0.906563 0.00314684 -2.94275e-20)
(1.36738 -0.219212 -7.05146e-20)
(1.0983 -0.015524 0)
(0.589254 0.211159 1.89176e-20)
(0.536577 0.133598 0)
(0.666113 -0.187466 5.21157e-21)
(0.730528 0.0882461 -2.25525e-20)
(0.819442 0.0223881 -5.69258e-21)
(1.1375 -0.112557 0)
(1.32405 0.125971 -2.97691e-23)
(1.20781 0.0643168 -7.42107e-23)
(0.717293 -0.211211 -1.28569e-21)
(1.12275 -0.0217737 -4.43932e-21)
(0.662421 -0.255479 0)
(1.09228 0.0716373 0)
(1.15839 -0.171708 6.28334e-21)
(0.821466 -0.220736 -5.26465e-21)
(1.32179 0.14932 -2.59389e-21)
(1.09724 -0.035651 -4.5887e-21)
(1.02093 -0.0256424 -4.47759e-22)
(1.0779 0.00213556 0)
(0.432812 -0.141924 1.47197e-20)
(1.34614 0.0917212 -1.77572e-20)
(0.74251 -0.128409 -1.55736e-20)
(0.179546 -0.230819 -1.57216e-20)
(1.41229 -0.101003 2.4226e-20)
(0.927186 0.0594222 7.05464e-20)
(1.23923 -0.119655 -6.58894e-21)
(1.07752 -0.0542492 7.9208e-22)
(-0.0697007 -0.0906222 -8.46626e-21)
(0.999814 -0.00657883 0)
(1.03294 -0.086938 -1.60852e-20)
(0.846698 -0.0356128 1.08177e-20)
(1.11295 -0.0358977 5.44312e-21)
(0.89102 -0.151439 3.4237e-21)
(0.519327 -0.0248151 4.81429e-22)
(1.42605 -0.374628 -1.62499e-20)
(1.09775 0.0122256 0)
(1.02099 0.0119073 -1.11182e-22)
(1.13588 0.0239115 -3.28736e-21)
(1.16552 0.0146582 0)
(0.685179 0.0106928 -9.45141e-21)
(1.11309 0.0345256 3.99001e-21)
(0.732633 -0.0614737 -7.41761e-21)
(1.14107 -0.0566425 8.42489e-22)
(0.788603 -0.109141 5.47137e-21)
(-0.0418362 -0.0397326 0)
(0.380335 -0.158495 1.3608e-20)
(1.14823 -0.00718211 0)
(1.0446 0.015453 1.59302e-20)
(1.02369 0.157291 0)
(1.13201 -0.0158641 5.22996e-21)
(1.0164 0.0273727 0)
(1.01829 -0.0795964 0)
(1.37551 -0.0891238 1.83496e-20)
(0.799189 -0.0902622 0)
(1.08732 0.114466 1.31636e-20)
(1.14404 -0.0186624 2.81001e-22)
(1.0445 0.0222924 3.9505e-21)
(1.3219 -0.1089 -1.74611e-20)
(1.24427 0.125461 -1.80727e-21)
(1.29986 -0.148443 -4.03594e-21)
(1.09343 0.0197877 0)
(1.1356 -0.0313954 0)
(1.07374 0.0541677 2.62056e-21)
(1.23103 -0.052217 0)
(1.39318 0.222561 -2.06994e-20)
(0.854896 0.0242945 3.00231e-21)
(1.02677 0.0158012 2.4628e-20)
(1.23947 -0.0209143 -8.80215e-23)
(-0.0107962 -0.0167102 0)
(-0.0393719 -0.0925602 0)
(0.0432929 0.18904 -4.40376e-20)
(-0.0677751 -0.0785421 0)
(0.629422 0.183322 2.65982e-21)
(1.17396 0.0417332 -2.4365e-21)
(1.12048 -0.0134008 -6.52031e-21)
(1.1678 -0.125143 -7.69576e-21)
(1.19882 -0.0798495 0)
(0.693307 -0.0221584 -2.65554e-21)
(1.10591 0.0802972 0)
(1.10169 0.0178342 3.15803e-22)
(0.527995 -0.110436 0)
(0.692452 0.18637 -2.48094e-22)
(1.11643 0.093176 0)
(1.19562 0.0364865 0)
(0.380175 0.102121 1.62661e-20)
(0.496478 0.31535 -1.19212e-21)
(0.861279 0.177058 4.92665e-21)
(1.01014 0.0178285 -9.59955e-21)
(0.240854 -0.0487433 0)
(1.22988 0.0200511 -8.56293e-21)
(1.26051 0.0329573 -1.70745e-21)
(1.21525 -0.0763296 2.62803e-21)
(0.459093 0.131303 1.18034e-20)
(-0.0596856 -0.0629532 -9.92801e-20)
(1.1817 0.0918091 0)
(-0.0294585 0.0298399 0)
(1.23436 0.0750099 1.31944e-21)
(0.329724 0.154928 -1.27003e-20)
(1.17606 0.0334683 -1.36223e-20)
(1.10505 -0.0405487 0)
(1.14318 0.0198134 4.7253e-21)
(1.25725 -0.318513 2.07124e-20)
(0.595964 -0.034085 -1.07161e-20)
(1.13409 -0.0400908 -2.12553e-21)
(1.13236 -0.0542488 -3.91133e-22)
(0.396948 -0.422279 2.71576e-20)
(1.18406 -0.0295784 -2.04086e-20)
(1.14762 0.022698 0)
(1.16546 0.106464 0)
(1.15199 -0.0899457 1.39887e-21)
(1.2384 0.0410864 1.54306e-21)
(0.769504 -0.308859 -6.25317e-20)
(1.19183 -0.108405 -1.38028e-20)
(1.15079 0.0533506 5.02163e-21)
(0.525562 -0.000478086 1.6113e-20)
(0.229818 0.222433 -3.94331e-20)
(0.372557 -0.180986 4.12036e-20)
(1.16957 0.187864 -6.39718e-21)
(1.24586 -0.493889 6.57821e-21)
(1.31054 0.00992882 -5.25932e-21)
(1.17896 -0.0659316 -1.65777e-21)
(0.940428 -0.237252 9.4347e-20)
(-0.295625 -0.169274 0)
(1.2347 0.00351031 2.44009e-23)
(-0.142807 -0.085036 -1.73537e-20)
(1.22131 0.113196 -1.1418e-21)
(1.21578 -0.12056 3.60374e-21)
(1.08555 0.0279918 0)
(0.358133 -0.0424576 0)
(1.16333 -0.0487484 0)
(1.37843 0.109336 -8.01808e-21)
(1.23499 -0.028463 -1.26895e-20)
(1.13346 -0.0437861 6.93088e-22)
(0.46078 0.0163667 0)
(0.615042 0.00923466 0)
(0.613341 -0.00272972 5.01673e-22)
(0.428709 -0.0130315 0)
(1.2551 0.0508835 0)
(1.0211 -0.0142806 2.49221e-20)
(0.169631 -0.184734 0)
(0.940685 0.0505539 0)
(1.13174 0.0125743 0)
(1.16978 0.18338 -1.3105e-20)
(1.25365 0.00446721 2.74693e-21)
(0.962589 -0.0316769 8.79281e-21)
(1.32049 -0.399136 -1.17805e-19)
(0.468197 -0.239209 -2.23954e-21)
(1.17826 0.108831 5.87873e-21)
(1.12265 0.11761 0)
(-0.053328 -0.246334 0)
(-0.214052 0.28963 0)
(1.1571 -0.0407929 -1.29973e-21)
(1.32941 -0.281384 -3.04093e-20)
(1.34969 0.00331433 0)
(1.06732 0.0439553 -9.60591e-21)
(0.69406 -0.0774637 0)
(1.51156 -0.138109 7.86804e-20)
(0.410079 0.516343 1.24741e-19)
(0.331457 -0.041364 0)
(1.12852 -0.275467 1.26471e-19)
(-0.0720962 0.0817579 0)
(-0.054378 -0.499646 2.96348e-21)
(1.33118 0.0100672 0)
(-0.222106 0.22073 7.13955e-21)
(0.983781 -0.0504722 0)
(1.25188 -0.150262 -1.10352e-20)
(-0.157327 0.0417439 -8.29253e-21)
(1.12356 -0.0372682 1.73865e-21)
(1.10645 0.141446 -7.99848e-21)
(0.579161 -0.52354 -9.16093e-20)
(1.11526 0.0834696 -2.35474e-21)
(1.19262 -0.119391 3.57726e-21)
(1.17538 0.249126 -2.6412e-20)
(1.1744 -0.248937 2.28184e-22)
(1.16386 -0.0310699 2.39287e-22)
(0.0179437 0.127535 -7.17504e-20)
(0.0345121 0.114033 -6.26189e-21)
(1.28533 0.19404 3.72281e-21)
(1.05713 -0.0472874 0)
(0.606922 0.304818 -6.26108e-22)
(1.42215 -0.436273 9.02236e-20)
(0.990854 -0.0590694 -6.80446e-20)
(1.42105 0.169733 6.10692e-20)
(1.07918 -0.028416 5.60436e-21)
(1.13477 0.0767695 1.6114e-20)
(1.06132 -0.00814129 0)
(1.1703 -0.0290354 0)
(1.19575 -0.121324 -3.11353e-22)
(1.08846 -0.0194742 -4.5413e-21)
(1.11593 -0.190636 1.44773e-22)
(1.10586 0.0636441 -6.39763e-21)
(1.37948 -0.0145864 -3.4094e-20)
(0.404243 0.0266304 0)
(1.09675 -0.0386939 1.63659e-20)
(1.28406 -0.0178978 0)
(1.12216 0.0682535 -3.21224e-21)
(1.14496 0.0223485 0)
(1.04067 -0.00875549 1.35334e-20)
(1.24036 0.0383773 1.04258e-20)
(0.978428 0.0950367 0)
(0.0650695 -0.0276943 1.72612e-19)
(0.884673 -0.216517 -7.40003e-20)
(1.22316 0.0393155 -2.19133e-20)
(-0.124859 0.0094989 3.96218e-20)
(1.1858 0.0176296 9.7689e-23)
(0.655744 0.172141 -2.28485e-21)
(-0.0991714 0.0269896 -4.12965e-20)
(-0.020905 0.000906674 -2.50498e-20)
(1.02096 -0.0281984 0)
(-0.0334682 -0.0454569 0)
(1.13886 -0.0407081 0)
(0.112844 -0.109745 0)
(1.11206 -0.0310916 0)
(0.160658 0.0336098 0)
(1.13578 0.0327525 0)
(1.11671 -0.0663661 0)
(1.42159 0.0906549 3.34103e-21)
(0.591593 -0.291858 -2.31355e-20)
(-0.117248 0.172291 0)
(1.19256 -0.0669614 7.08218e-20)
(1.27124 0.0634323 3.13855e-21)
(1.16286 -0.000157563 0)
(-0.0379502 -0.0457165 0)
(1.16416 0.00704003 -6.2213e-22)
(1.17037 -0.0173913 -4.12978e-22)
(1.16335 0.388533 0)
(0.320327 -0.0575061 7.06104e-20)
(1.12274 0.0613264 1.60996e-21)
(0.252414 -0.0518447 -5.79269e-20)
(-0.0581357 0.0365145 -2.73338e-20)
(-0.0366926 0.0484875 7.21608e-20)
(0.0630667 -0.311444 1.00077e-20)
(0.877185 0.192838 2.14992e-21)
(1.1591 0.0596121 -4.05481e-21)
(1.02467 -0.00781058 0)
(1.07054 -0.0651986 -2.16013e-20)
(1.24819 -0.0106228 -2.95253e-21)
(-0.0127763 -0.0387906 1.00106e-19)
(0.978756 -0.07261 -5.94785e-20)
(0.837873 0.235151 1.8197e-21)
(1.18747 0.136929 1.071e-21)
(0.0879436 -0.0308545 3.78657e-20)
(0.266705 -0.0361226 -5.30765e-20)
(0.475095 -0.0359345 -6.40678e-20)
(1.32255 0.117387 -8.06642e-21)
(-0.0558756 -0.0438664 0)
(1.11734 0.265686 -3.7543e-21)
(0.996096 -0.118111 3.02442e-20)
(1.1221 -0.0886701 -2.91626e-20)
(1.22326 0.0610734 0)
(1.52006 -0.203558 8.04453e-20)
(1.16302 0.047926 -2.77798e-21)
(-0.0202878 -0.0531548 -3.5135e-20)
(0.24074 0.0972024 0)
(0.905266 0.0388044 -1.72007e-21)
(1.13124 0.014429 1.11722e-21)
(0.96634 -0.227687 2.85984e-20)
(1.16729 0.00429033 9.9691e-22)
(1.119 0.050864 0)
(1.18111 -0.160951 -1.64046e-20)
(-0.0958707 -0.0160649 -7.39444e-20)
(1.28454 -0.022563 1.51817e-20)
(1.09852 0.172368 -8.568e-21)
(1.09162 0.066423 7.31687e-21)
(-0.0462463 -0.0766703 1.7216e-20)
(-0.0168685 0.0210788 -5.54658e-20)
(0.646843 0.137684 0)
(0.596686 -0.00698528 0)
(1.15218 0.103065 -2.13362e-20)
(1.05115 0.068794 1.46831e-20)
(1.09479 0.0252939 0)
(0.583518 0.149905 4.83364e-20)
(0.69581 0.0898141 -9.51786e-21)
(1.09868 0.1112 0)
(1.08117 0.0582491 0)
(1.2155 -0.00706643 0)
(1.22829 -0.0398017 0)
(1.09588 0.0568675 4.25964e-21)
(-0.0423112 0.0410409 2.98506e-20)
(1.31722 0.019669 4.62533e-21)
(1.43504 -0.160686 -9.09491e-20)
(1.13909 -0.00379682 -6.72082e-21)
(0.042977 0.220461 0)
(1.08841 -0.0233828 0)
(0.621805 -0.017977 -6.87604e-22)
(0.516449 0.00901306 -5.19384e-20)
(0.0643906 0.037089 4.26517e-20)
(0.933584 0.0171145 2.15487e-22)
(0.765973 -0.276484 0)
(0.709145 -0.0896537 0)
(1.10488 -0.0657137 0)
(0.537091 0.510809 1.48041e-20)
(-0.0107725 0.00734353 -2.71937e-20)
(1.10215 0.0841747 -5.67789e-21)
(-0.02769 -0.0762463 6.79761e-20)
(1.1493 -0.0534795 1.94666e-21)
(1.16942 0.314914 5.03768e-20)
(1.11063 -0.081656 8.48632e-21)
(0.398177 0.108546 9.37168e-20)
(1.14524 0.234811 1.4227e-21)
(0.916268 0.0841104 0)
(0.551439 0.268808 0)
(0.811313 0.0716351 5.16656e-21)
(-0.217387 0.147474 0)
(0.611628 0.0293171 2.80452e-21)
(0.614792 -0.424641 -3.43253e-21)
(0.229273 0.0490644 -1.01767e-19)
(1.12972 -0.223621 3.02552e-20)
(1.03501 0.362562 1.08005e-20)
(0.981364 0.0161404 0)
(1.24126 0.0511254 -1.29127e-22)
(0.637732 0.0159607 0)
(0.997246 -0.0187039 -6.20241e-22)
(0.477343 -0.0140787 0)
(0.713743 0.125354 0)
(1.00092 -0.0241765 -5.74403e-21)
(1.43082 0.183298 -1.04795e-20)
(1.12052 -0.0636871 2.71994e-21)
(0.529738 -0.499499 0)
(1.13531 -0.150416 1.93979e-21)
(0.80356 0.375917 7.36318e-20)
(-0.0420558 0.0188499 1.01453e-21)
(1.23256 -0.0287338 8.56323e-21)
(1.22666 0.0347066 -7.68939e-21)
(1.18022 -0.139692 6.56694e-22)
(0.803313 0.0109361 -6.19792e-21)
(0.0560735 0.0186778 3.23816e-20)
(-0.0193661 -0.0396065 -5.55887e-20)
(-0.189167 0.183143 0)
(-0.156233 0.291669 0)
(1.20143 -0.618152 3.43603e-20)
(1.14911 -0.0299042 -2.33494e-22)
(0.907125 -0.471157 -4.68817e-20)
(1.12744 0.225625 7.04703e-21)
(1.35469 0.206562 2.79265e-20)
(0.598827 0.417553 0)
(0.245236 0.412812 -1.19497e-19)
(0.594503 0.477999 0)
(0.00891368 0.165903 0)
(1.13048 -0.477481 0)
(-0.0431346 0.0193607 3.06774e-23)
(1.18779 -0.0163979 0)
(0.721849 -0.136725 -8.37708e-21)
(0.592051 0.68945 2.01015e-20)
(1.26878 0.0226032 8.2668e-21)
(-0.0333984 -0.10677 -1.22938e-19)
(0.583277 -0.169415 -2.06929e-20)
(0.441933 0.142889 -1.22761e-20)
(1.20891 0.0953389 0)
(1.35346 0.361511 2.6992e-20)
(1.21774 0.566828 1.61171e-21)
(0.145825 -0.0153445 -1.88778e-20)
(0.969537 0.141399 2.56056e-20)
(0.950957 -0.0358216 8.56773e-22)
(0.905279 0.0180928 -2.18019e-22)
(0.00629481 -0.0370625 0)
(0.65242 -0.659582 -2.99738e-20)
(0.613932 0.197077 0)
(0.106885 -0.0551162 0)
(-0.0407278 0.0397869 0)
(0.00279085 -0.0864048 -4.72279e-20)
(1.24998 -0.00957715 -9.86253e-21)
(-0.03443 0.0407254 0)
(-0.0246318 0.0292483 0)
(1.45823 0.130207 -5.85627e-20)
(-0.0367368 -0.0947491 5.54642e-20)
(0.114351 0.231963 -1.03281e-19)
(0.369326 0.0158842 0)
(0.171341 -0.283011 8.16722e-20)
(1.12219 -0.237717 0)
(0.998873 -0.284322 0)
(0.0158757 -0.085996 1.16903e-19)
(1.15183 0.0380325 -1.92888e-22)
(1.12017 0.343062 3.12544e-20)
(0.25036 0.0283384 4.1447e-20)
(0.407989 -0.524341 -3.59145e-20)
(1.26512 0.0961688 0)
(1.19762 0.202444 1.88744e-20)
(1.20481 0.216938 -2.31872e-20)
(0.102301 0.0851892 -2.3778e-20)
(-0.0672032 0.00400308 0)
(1.07058 -0.0562475 -1.92393e-20)
(1.10516 -0.220689 -1.49336e-20)
(0.586808 -0.40978 0)
(1.09799 -0.148372 -2.57871e-20)
(-0.0608744 0.273854 0)
(0.551557 0.045351 0)
(1.3529 0.00228365 1.90721e-20)
(0.988519 0.037193 4.23217e-22)
(1.07412 0.74374 -2.06039e-20)
(0.227569 -0.384111 1.3127e-19)
(1.11471 0.0507794 2.57318e-22)
(1.20951 0.0799129 -2.18691e-21)
(-0.0401818 0.046655 2.6493e-20)
(0.782713 0.730085 3.32124e-20)
(1.35902 -0.358566 -1.4212e-20)
(-0.081534 0.272251 5.28268e-20)
(1.15372 0.0199613 0)
(0.239557 0.130379 -7.15255e-21)
(0.912751 -0.6428 3.09605e-21)
(0.893306 0.638681 -1.34378e-20)
(0.588833 -0.0272356 -7.02534e-20)
(1.14352 -0.0071156 -7.24923e-21)
(1.07503 -0.0815897 7.11635e-21)
(1.18117 0.0410729 1.27039e-21)
(1.10592 0.122129 6.3781e-21)
(1.13385 -0.121757 0)
(0.88624 0.113149 1.2031e-20)
(0.877029 0.456616 0)
(1.35352 0.0497807 3.60513e-21)
(1.16942 0.116383 2.69806e-21)
(0.739225 0.262635 0)
(0.506318 0.109313 9.70551e-20)
(0.890111 0.710348 -9.01399e-22)
(1.0731 0.28983 -2.40029e-20)
(1.04112 -0.008719 1.26956e-20)
(0.414798 0.488497 0)
(1.30723 -0.468205 0)
(0.786568 0.0318592 6.34754e-21)
(1.25496 0.504919 0)
(-0.0257529 0.0431928 -3.60055e-20)
(1.29276 -0.411219 -1.22353e-20)
(1.1621 0.510939 0)
(0.453415 0.213363 1.72578e-19)
(1.1104 0.316957 -1.06351e-19)
(0.82038 -0.644653 -2.53378e-20)
(1.18168 0.0307611 3.59102e-22)
(0.898418 0.152115 7.07218e-20)
(1.08545 0.169244 5.95526e-20)
(1.06558 0.702775 2.41423e-21)
(0.909177 -0.441194 6.4513e-20)
(1.42955 0.198181 3.05949e-20)
(1.13184 0.0055653 -1.3109e-21)
(0.0175893 -0.0648983 1.04771e-19)
(1.09357 -0.706243 3.05006e-20)
(0.878503 -0.725073 5.14471e-20)
(0.253691 -0.339248 0)
(0.973235 -0.149817 7.34427e-20)
(0.361977 0.304123 -4.47875e-19)
(-0.103316 0.185895 2.44312e-20)
(0.20977 0.0326235 1.80358e-20)
(0.713621 -0.0548348 -8.21631e-20)
(1.07588 0.529161 0)
(0.986799 0.219857 8.60197e-20)
(1.08597 0.0301742 4.35691e-21)
(0.908532 0.440776 -9.49317e-20)
(0.791565 -0.732707 -8.02514e-21)
(0.931172 0.0194725 -4.99777e-20)
(0.975804 0.488815 0)
(1.22128 -0.015117 -3.09239e-21)
(1.39286 -0.510307 1.45232e-20)
(1.23266 -0.336098 1.0462e-20)
(-0.201316 0.268903 3.33681e-20)
(0.195442 -0.00120501 -1.84074e-20)
(0.975778 -0.12057 -5.90625e-20)
(0.351511 0.522444 0)
(0.918891 0.0120745 3.98213e-20)
(1.14908 0.635785 6.8459e-20)
(-0.0825352 0.0220245 1.5886e-19)
(-0.0558668 0.0419681 -2.2153e-20)
(-0.0973249 -0.0558065 4.20313e-20)
(1.09932 0.0237448 -5.96998e-21)
(1.15147 -0.46372 0)
(1.07519 -0.737839 -3.97275e-20)
(0.698008 0.346125 0)
(0.0434344 0.024053 -1.19702e-19)
(1.12017 0.0461488 3.33684e-21)
(-0.042831 -0.0892766 -3.17807e-20)
(1.0476 0.0570633 -1.20802e-20)
(0.0948562 0.0216239 4.67379e-20)
(0.823462 0.127651 0)
(1.31748 -0.00269872 3.33279e-20)
(0.0306748 0.0382935 -2.04782e-20)
(-0.184556 0.271762 -3.96451e-20)
(-0.250274 0.280255 0)
(0.100761 -0.0176923 0)
(1.28268 -0.0132168 -1.03128e-20)
(0.40914 -0.00695439 1.70123e-19)
(1.27983 -0.728749 -2.6947e-20)
(0.992742 0.0152499 4.96286e-20)
(1.067 0.249606 -3.44399e-20)
(0.371724 -0.56527 1.40244e-19)
(1.53993 0.293355 -2.8252e-20)
(0.098757 -0.0694046 4.09881e-20)
(0.208026 0.301607 1.99709e-19)
(0.131107 -0.0413204 -1.52576e-19)
(0.947382 -0.495522 -4.3316e-20)
(1.44366 0.393668 2.8747e-20)
(0.573027 -0.683714 4.85742e-20)
(1.10646 -0.0794007 -7.28891e-21)
(0.264485 0.113684 6.51383e-20)
(1.16295 0.293586 -4.15151e-20)
(0.660012 0.6372 -4.2685e-20)
(1.35538 -0.624504 0)
(1.40515 0.522385 2.98835e-20)
(1.06011 -0.530249 -1.29055e-20)
(1.37999 0.608319 -8.35993e-20)
(1.1802 0.00510825 0)
(-0.0470052 0.0548143 0)
(1.24576 0.729805 0)
(1.24965 -0.0323736 -4.46906e-21)
(0.745792 -0.306711 -2.08523e-19)
(0.478783 -0.0875215 0)
(-0.0486113 0.0613823 -2.24539e-20)
(1.02469 -0.246501 9.84948e-20)
(-0.211288 0.200799 0)
(0.322321 0.020606 1.24358e-20)
(1.15079 0.0194562 0)
(1.3989 0.283048 0)
(1.19303 0.0289283 -3.84573e-22)
(0.363985 -0.298095 0)
(1.00995 0.148566 4.11831e-20)
(1.29426 0.291782 0)
(-0.0690393 0.0627758 6.76143e-22)
(0.815688 -0.401265 0)
(1.50929 0.34905 -4.28365e-20)
(1.23423 0.371032 5.32984e-21)
(0.839025 0.644741 -1.03341e-20)
(1.00749 0.156625 -9.48663e-20)
(0.970015 -0.205268 -4.79313e-20)
(1.44237 0.302527 2.52455e-20)
(0.965292 0.117506 0)
(0.565032 -0.0760121 0)
)
;

boundaryField
{
    FrontBack
    {
        type            empty;
    }
    Top
    {
        type            noSlip;
    }
    In
    {
        type            fixedValue;
        value           uniform (1 0 0);
    }
    Bottom
    {
        type            noSlip;
    }
    Out
    {
        type            zeroGradient;
    }
    circle
    {
        type            noSlip;
    }
}


// ************************************************************************* //
