/*--------------------------------*- C++ -*----------------------------------*\
| =========                 |                                                 |
| \\      /  F ield         | OpenFOAM: The Open Source CFD Toolbox           |
|  \\    /   O peration     | Version:  2412                                  |
|   \\  /    A nd           | Website:  www.openfoam.com                      |
|    \\/     M anipulation  |                                                 |
\*---------------------------------------------------------------------------*/
FoamFile
{
    version     2.0;
    format      ascii;
    arch        "LSB;label=32;scalar=64";
    class       surfaceScalarField;
    location    "1960.5";
    object      phi;
}
// * * * * * * * * * * * * * * * * * * * * * * * * * * * * * * * * * * * * * //

dimensions      [0 3 -1 0 0 0 0];

oriented        oriented;

internalField   nonuniform List<scalar> 
1171
(
-0.927938716712115
0.9279387166851444
0.7873342120904804
-1.098862632839137
0.3115284211831802
-0.1940468039343604
-0.7656801597689252
0.9597269634096541
0.07206129728094054
-0.1168786416112595
-0.2118864267868583
0.3287650668825296
-0.7873342224507293
0.06940225094585969
0.7179319715276802
0.8113188764945314
-0.1775234492469687
-0.6337954274847213
0.8744189417740424
-1.043707224553835
0.1692882828110463
-0.2849663464024147
-0.09737910398383032
0.3823454508209232
-0.03586309462890354
0.5485412817087701
-0.5126781871559105
-0.5034111260968087
0.8259618449127291
-0.3225507185077108
-0.4018449910660531
1.045952183554739
-0.1715332445214461
0.3952033513495364
0.04759498612367934
-0.4427983401492395
1.046312947349089
-0.0003607654137252666
0.4447015085399937
-0.04949814631008129
1.056974526017192
-0.01066157660592009
0.5775159029170919
-0.7715627102257286
-0.724477541904942
0.5571407495788996
0.1673367921759618
0.2218530941214192
-0.7252642165393294
0.5505901611459045
-0.9228417295347368
0.3722515672967692
-1.094161249949766
0.6863727476154347
0.4077885024197502
-0.5953947608068263
0.5595316673572759
0.01831014274571015
-0.2571067285700473
0.2387965851898503
-0.02451444909649701
-0.52151759502578
0.5460320422776428
0.4001004281233396
-0.4974795328336233
-0.9187678065312168
0.9413938207513671
-0.02262601413151457
1.067556136015556
-0.01058161023174875
0.9351134231606473
-1.116881670445969
0.1817682471064425
1.067152670214908
0.0004034681747185539
-0.6643886628785531
-0.06008888186137672
1.262242526617821
-0.8643133577975889
-0.397929168855696
0.1483848674052508
-0.1088826761843161
-0.3263078731676654
0.4351905498203941
-0.285760614509048
0.1909290671200415
0.09483154778732156
-0.5834387755801053
-0.5154238489641654
1.014040366703363
-0.07892694350308684
0.009950097108877589
0.8254314250340063
-0.8353815220053348
0.5718823287817044
0.6903601924890258
0.4396585957233673
-0.03018323769395918
0.4302836650849521
-0.8076706571738995
-0.1025692874575072
0.9102399444723227
0.5025842043237596
0.2536795428090108
-0.756263747063902
0.004613730559965506
0.5278421360447448
-0.5324558678652439
-0.4898482399142843
-0.6043130113173512
-0.4228831333163314
-0.6939985388529997
-0.02717475956357438
0.2700491066512393
-0.2428743458130421
-0.9247871352527848
-0.005133290877399879
0.9299204262586057
0.3082451702928868
0.07410027735554557
0.7623936944502717
0.04892519293164262
-0.5331452016605907
-0.06224955941021219
0.04630731156101857
-0.853977969847182
0.07530654418495721
0.8625532579630154
-0.9378598020530139
-0.3473039776927402
-0.04150668577428542
0.3888106642417535
-0.6823153288931827
-0.2424718090928113
-0.6315206851385436
0.7068272306100037
0.6095514776697724
0.2164103693563662
-0.5428614283222182
0.9460946158728499
-0.7793996231603377
-0.1666949925778824
0.02228114593550504
-0.01796257832671542
-0.00431856916462409
-0.4029689873731221
-0.09451054749286847
-0.2414100544395436
0.8509615363315262
0.04614789296683745
0.3354010113919614
-0.3815489035883856
-0.4601855193640003
0.9627697248065233
0.6801219743346995
-0.7826912639394029
0.3197388508235865
-0.01745538371958594
-0.3022834650856561
0.9306914006212959
-0.9306914005874284
-0.7827362293677059
0.1106211099725459
-0.3225075346882987
-0.7500395853328797
0.7599896812516117
-0.09011153749491937
-0.1429720308955675
0.2330835696810306
0.8650048652576424
-0.03957344308648439
1.054240981108113
-0.8005614372394507
0.185942937294884
-0.3154111859114328
0.1294682480088204
0.8594436818485803
-0.09704998653387943
-0.6118453885516184
-0.03921315999946905
0.6510585486101395
0.1238583353232409
-0.2312200245300498
0.1073616879760004
0.8056960329771679
-0.9832194726832466
-0.4355226316566246
0.3297038848621531
0.105818745617944
0.5312786751281608
-0.5557931155192075
1.022079291071748
-0.4562363322457915
-0.5658429587355239
0.5991961622099848
-0.7193726657825391
0.06683467652799208
0.6525379895462982
0.1031799379629963
0.5704674738289797
0.05493085730924524
-0.6253983314070309
0.1940433786419281
-0.08342226927596083
-0.4933057767646536
0.146001800535498
0.05033992712432613
-0.8868434222274916
0.8365034949874225
-0.4739225945266694
-0.7134982247287538
0.04910956168416945
0.4368163501198775
-0.006532681102780305
0.2998321634891817
-0.8552337901665868
0.5554016266064744
0.4157118391984742
0.5842881606281843
0.5605126772184407
-0.5142053665690848
-0.3658867451479299
0.03462730683545444
0.3312594419608026
0.6813829514375702
0.24930844479875
-0.5658127738841047
0.5704265022450462
0.1105084668962664
0.8750982927042612
0.01021845926709362
-0.6220638525484656
-0.7493294577369011
0.7996693845363841
0.531254309914313
0.07091482182214946
0.3019594294982937
-0.3728742517466022
-0.1676052232573164
0.4414161488729508
0.08642599712970989
0.8765025465786174
-0.7978473327312386
-0.07865521389705407
0.6354196078705074
0.3106750058211784
-0.4301437510478136
0.5753240887187356
-0.5044092741897918
0.4172124855287412
0.1333776749941634
-0.04689572699538772
-0.5911284735553053
-0.1375540902871795
0.7286825637702762
-0.1497269997577348
-0.7809644056503229
-0.6110135761942662
0.3607938725778167
0.2502197051008347
0.6222584272753919
-0.6120399691253425
0.2386535269522627
1.01133635793627
0.04290462436817497
-0.7493294570514424
0.2263234805518494
-0.2040423251463771
0.6801219734099437
0.8020686081582546
-0.8020686080069096
0.8377338555019478
-0.8333398925384861
-0.004393963031494059
-0.4453905141896296
0.861102353990121
-0.1475924537368166
-0.345713324615866
0.7347018130517051
-0.6684506782030654
-0.0662511347867156
-0.731251038616746
0.1401225660275134
0.1386616297444809
-0.6718068323576443
0.7826912655096134
-0.9502964887010741
-0.365741874032169
0.2906836002431169
0.07505827859309007
0.145966619648216
-1.00954956457847
0.8635829448751962
0.4810398365828138
-0.04138124074780151
-0.3081964086986874
0.5865026656286677
-0.2783062571502817
-0.7383234720597885
0.8842900892144877
-0.1571412017033011
0.7341707317020612
-0.8412407619769069
0.107070030587644
0.9773554518793437
-0.5418911273050504
-0.4354643243952021
0.7551728803729584
-0.06492310713950084
-0.03333620581211391
0.1876865766267145
-0.1543503708033325
-0.7757477858492593
-0.8463734739112962
0.08069330679185339
-0.7500395870251366
0.5139623839270786
-0.5554690631253176
0.09026307972067067
0.7199276557185156
-0.8101907355701803
0.7537234202527492
0.1742152987850274
0.5028771784132644
0.4971228216162912
-0.05052060925316397
-0.6067843825083397
0.6573049903997039
0.8823339216348967
-0.005831370565866534
-0.7551728804002057
0.7996693897780783
0.1909861896924156
-0.4480929139337824
0.02067578810036599
0.001744631995106038
-0.02242042492398416
0.5890230835153955
-0.438480980191939
-0.1505421041989866
0.717931977432858
0.01357617922862019
-0.1122027425275104
0.43711593145409
0.151907141563183
-0.01418775075662687
-0.005592034724940478
0.01977978514763316
-0.03323020544274522
-0.0001060097369500958
0.2431198392743602
-0.2605752188320813
-0.9592098103116701
0.00178679075822116
-0.1595404205303586
-0.122622037861298
0.09453889877918581
0.7213596712960121
0.7290543711168208
-0.144766208451386
0.6624134047939005
-0.5721503259537281
-0.2117694978483003
0.397712432875946
0.6954188499577313
0.02251312752308179
0.2416088695297036
-1.074948757117579
-0.950296489642669
0.3017124856095914
0.7599896792640772
-0.2086027191842665
0.0656306936140717
-0.7231464615081168
0.9099623284536633
-0.1868158668340818
0.4161359540842726
-0.02732528163492729
0.7715803895482591
0.2806273384119785
0.3717557617990338
0.07294574097088896
-0.6586878896388302
0.6586878896569958
0.2146682553896429
0.695571685793314
-0.05488527869222858
0.3902862813774378
0.3803052589035703
-0.01501777173943766
0.03569355955642571
0.4494784234008159
0.03156141271562694
-0.7383234748285457
0.5341389186742849
0.200562893698952
0.3062930540163796
-0.1186064664470889
-0.6954188513727934
0.1801242858226565
0.7298380436742922
-0.01018375908800601
-0.8137116790636847
0.8238954381316794
0.6962667808053359
-0.7921120693236069
0.09584528837002478
-0.7537234204392762
-0.1497789415505778
0.2108984522538345
-0.06111950991738584
0.07715827199233412
-0.1799646051377779
-0.1121485257386402
0.2921131285972858
-0.008650755948089197
-0.00553700714715098
0.7065079857543506
-0.7166917467689544
0.8845050935219392
0.07522186392395278
-0.3137306984743524
-0.5183031317954404
0.8320338302506842
0.1028919343747498
-0.1028919387392031
0.3253108969706306
0.4769841645604802
0.6127383184550882
-1.089722482917087
-0.1941467265131281
-0.5856537490494023
0.7798004755233734
0.01259303083894927
0.2204905434872566
0.3773274785679313
-0.253469140375038
1.012701295224193
-0.5357171296193874
0.6641456704172368
0.9941899597080004
-0.3814516403532436
0.2297350190323697
0.8842900882584603
0.7127568434235036
0.213662439751038
0.7277313837515038
-0.7809644083825353
0.3413121123563466
-0.2771190740905654
0.2452714196061447
0.0318476594941639
0.849086447815634
-0.01443246375087794
-0.8346539844537529
-0.7020952696629479
0.7024987393412637
0.5546094861252203
-0.702095267892466
-0.7127568433929882
0.7024987406927446
-0.03453411505955566
0.9041004904581205
-0.01959539722261584
-0.6813829463868406
0.612348996648742
0.06903394975994767
0.5388822847885596
0.5373334150502718
-1.076215699890041
0.4922667359929562
0.52043455904365
0.543282195168343
0.4598617385796115
-1.003143933790207
0.4988324533736841
0.495357505735027
0.6123489933295588
-0.5255857636379356
-0.4652531345593429
-0.5561521386221201
-0.5196665566828945
-0.1213131067727577
-0.01225831013166266
0.01225831129211152
0.5121023154197532
0.5230303965889165
-1.042696953369395
0.5755682525499807
-0.2736088322607563
-0.8852312561268263
0.3433401263960171
-0.6329024940164334
0.3904306841222265
0.001782065760404846
-0.8308041074315935
0.8290220418503305
0.4208579568079375
-0.01774604734921798
0.8668324946550233
-0.9452513823168612
-0.8350351328138926
0.05578533845550655
0.7792497946014975
0.5579797365101654
-0.4373879601201999
-0.1205917767154549
0.649948554241668
-0.7288755001441528
0.8839841374657301
-0.8323980206800285
-0.0515861164260576
-0.009167407995275451
-0.788679922792107
-0.1097711304542125
0.7152453012860722
-0.6054741708377201
-0.936492437317062
0.9273250320735622
-0.7323069749479079
0.6913998510848282
0.04090712381094521
-0.8076731088573491
0.03673427450071835
0.7709388344572035
0.06162537015101988
0.04126656631980147
0.4332098421185313
0.06126723674252854
-0.8507421665246806
0.7894749297194918
-0.6423174699160585
0.591796857435843
0.8908351154102939
0.07003135358599996
-0.9608664688917971
0.05579998247256437
-0.04758302785209944
0.3788424755849411
-0.3812110195947409
0.06579982958057665
0.8421902659155113
-0.8404081962767636
-0.732451242745889
-0.8085782449572579
0.01989832435506184
-0.1653682342638525
-0.85189228225883
0.01949426673368564
0.6252369448893417
0.03717645833492408
0.02735418327335203
0.5306255557680412
-0.8071200524289885
0.8438543292774953
0.5658429545961909
-0.8485501512391963
-0.8664610836671356
0.03763940573560527
-0.03964191724774623
0.8376720498049539
-0.798030132473491
-0.022870237479235
-0.7720931599225184
0.5443505845268419
0.1519161895097652
-0.03055200066128356
0.8973844966023609
0.9831103711451916
0.8613237702929702
-0.8418295007355373
0.1473359764795588
-0.1473359774903752
-0.1186771722758506
-0.4810123537218
0.04362439193396358
0.2710404387416335
0.03067204725669037
0.3853319425809976
0.8745142601600262
0.002832270700775509
-0.01148302240317962
0.6586174045022146
0.3413825955081708
0.7835045310365808
-0.5834387730550066
-0.7780483080407234
-0.8124625951680532
-0.6798727308599063
0.6798727308884556
-0.1677356350024413
-0.154771907299865
0.60156329138925
-0.8120885775764562
0.2105252862280139
-0.4936959710389772
-0.5689965066667312
0.2782388212704142
-0.9722373581986761
-0.9014985381348397
0.8499124252476686
-0.8168700590022393
0.836768385865566
0.648673218880245
0.1344588342158962
-0.7831320531398825
-0.7715554714406856
-0.1458906302759084
0.7244625352928473
-0.5785719051382516
0.0269842745253617
-0.01530819324925166
0.01854502172060806
-0.003236827510029876
-0.3551250958480185
-0.125887250771554
0.8798021034326483
0.7403838172126472
-0.2428401131225788
-0.4975437052938093
0.6197920406073565
0.6852426307930419
-0.4705743739242155
-0.0008080917250942827
-0.2849525241117961
0.02567169821622271
0.7443375659614589
-0.7700092638211028
-0.3235641491320189
-0.0718909723523779
0.0754813986906646
-0.9603403374903661
0.1256863528328355
-0.6776297541275208
0.05202103565765696
0.6413125190482686
-0.6933335547834958
-0.7569377287821456
0.07930797469279535
0.5884396855354377
-0.6603306577772788
0.1562822171335458
-0.3362468213184698
-0.7711478649430149
-0.0004076063892939556
0.3712541197288669
0.6015528696904335
-0.02622878215037107
0.02426782459373098
-0.02426782490007002
-0.01785035355968553
-0.0518966153227776
-0.2252224804141386
0.01998594147629281
-0.01715367168539578
-0.733971403130828
0.2793511203904225
0.6795562849333373
-0.6902377211450161
0.01068143636770834
-0.5979867092441984
0.6500077475192452
0.6531391511887832
-0.06469947127318866
-0.6317747362126167
-0.1251629912555581
-1.049848110644959
0.01115997142411028
0.1361760142323674
-0.7082997009526701
-0.7415458593427029
-0.7632781280880785
0.3653489543205236
-0.4129454678692184
0.4697451829601018
-0.05679971320423446
-0.6768922149957032
-0.0314074859088516
0.5008822805920325
0.7306787123965767
-0.2329864865348409
0.1103644482270236
0.9607479411701204
0.4457396999275489
0.1342024127108204
-0.5799421127681579
-0.6784841543639627
0.001591938175165994
-0.04441835055256636
0.02911014398140664
0.6371579544503175
-0.7747120439948706
-0.002554508062662338
0.002554508808985502
-0.600505789679565
0.6482886934963907
-0.04778290420191141
-0.6511299721819422
-0.1133295796068945
-0.6716910428630668
0.05002494391154191
0.6072800494143765
-0.1371859126043578
-0.8175816679256177
-0.5551044844766618
0.5670818569638689
-0.01197737417534628
0.6343954414616052
-0.623714003021392
0.3222274970828121
0.214171499629762
-0.5363989966839183
-0.1043879076532942
-0.6026664275541154
-0.0906671253138424
-0.1547661020636674
-0.5050795557807222
0.4041998028645161
-0.4987103490404395
0.1264233547981433
0.6783663748348268
-0.8047897294475446
0.59919616221047
-0.3719175798957531
-0.04102791220215686
0.07155049673201516
-0.5766300609226575
0.5518613319333756
-0.04038932540581041
-0.5114720065579054
-0.3121731052564364
0.3047296739190777
0.007443431593230635
0.4530737946516175
0.1224944585615092
0.05047272950726365
-0.315736032580621
0.1566322267852319
0.1591038058867685
0.2418452862639628
-0.01552181778704986
-0.2963167022092426
-0.3133957951008614
0.3671024592323647
-0.05370666416195956
0.7898320248065489
-0.6284369237536445
-0.02269304913123555
0.4994427845051859
0.2811421829107107
-0.5239823003205063
0.5774830055533369
-0.5774830055475447
-0.289764916695867
-0.5864831359130347
-0.2955352186286504
-0.5864831355199084
-0.5955175159969414
-0.8385054119071095
0.1700547286180863
-0.5848125269729864
0.8211907695552034
-0.003607745802873585
0.1196471604820843
0.4819057093897042
0.09668320084321026
0.185258967456768
-0.0361967542903836
-0.1490622107471182
-0.01773067268023741
0.5939322010346465
-0.9457050318211585
0.4274019015092498
-0.000201189136155365
0.001315080524424764
-0.001113887823698481
-0.64327136437935
-0.1317958848284571
-0.4660001318184568
0.6002025391089982
-0.503780937719127
-0.3195134483846495
-0.2571166140714955
-0.271611420919289
-0.1120618081674615
0.1120618076971631
0.1527344352809025
0.05816401544723014
0.1964189508964643
0.454223358471366
-0.5727209518679119
0.106720812139387
0.2450702208977367
0.4661446988231686
0.5338553021166499
0.642269583830578
0.08217849604482962
-0.0003820999088674855
-0.08179639027082311
-0.2768310424553419
-0.5407506257102905
-0.5481561604680049
0.1140546781501889
-0.126035867859287
0.01198119014123373
-0.1059814611679477
-0.3861026550603581
-0.04428287710956474
0.6515629282166485
-0.4987793536475979
-0.1444920106402952
-0.3374759988895584
0.2912752763328945
0.1232083957088775
-0.603557815471252
-0.2039323826704206
-0.261632919556794
0.001057704931544738
-0.4218760652431091
0.3220154631267029
0.09986060290510086
-0.09086876799763284
0.2916085890545878
-0.8959216000684715
-0.4580615439321934
0.633832261420156
-0.7729052737086853
0.6685173660858861
0.3427032514598934
-0.126246352472494
0.2257870899493842
-0.09954073850187159
0.02629375251881439
-0.5862379290114594
0.02931622567790537
0.5569217029408067
-0.900733449934117
0.5467841396720611
-0.6654613117547686
-0.09579260263689818
0.1090887992792072
-0.1090888029617806
-0.3165441255533137
0.3640834398231795
0.01475903237945517
0.02627714044138074
0.05590136092357309
0.5050255279237447
0.6623205769360826
-0.7409757886037159
0.02802173444402586
0.02342547162780274
0.0008423431881436447
-0.00674646015601755
0.006746460350438349
-0.4153705514162353
0.5378650129765413
0.01518117216938521
-0.0151811719828103
-0.7922548876831675
-0.0601662051093912
0.1217915864154492
-0.4532243535148783
0.5599451684113451
0.4501088695961972
-0.4978917804739091
0.1497416333620463
-0.1497416336435666
0.0393884380107888
-0.003694894602601078
-0.04114238512040573
-0.9772789994975326
0.541814672574373
-0.4721702662686101
0.04126656583576384
0.5144463089961778
0.03100152982789137
-0.5454478392028483
-0.61585845913858
0.1170791079899917
-0.3298157977798625
0.01345527548205346
0.3163605219715098
-0.1537921391529343
-0.0791943435496327
-0.5407386116811698
-0.04549932190909993
0.1361760140615491
-0.04124579932958707
0.03869129815234899
0.08173537576220191
-0.08173537049286507
-0.538864009184016
0.4851573427062188
-0.4143590509356281
0.1613357106761677
0.6221688204330317
-0.09803641027252095
-0.005722764908707398
0.005722763393706796
0.5329793727554312
-0.07293225873696786
0.006196865457494063
0.02708721509942936
0.03452010941317026
0.6869823482359458
-0.7599146072771329
-0.6601260251987526
0.637432981526309
-0.1080868368548844
0.3127538048234399
0.7461601729183597
-0.01785035200040486
-0.2671126654085092
0.1485061904018949
-0.7446777337836668
0.4843635544816862
-0.4224848395624698
-0.1014121603286332
0.003611971087265383
-0.01455934178741689
0.01960384905678786
0.4118666706670548
-0.1216884635263339
-0.3897835426402945
0.6289439248376949
0.01900477008126822
0.01043433179202397
-0.01043433133779503
-0.3571585420355415
-0.08464064648704234
-0.5606594760554692
0.5570517298989309
-0.2383948717276068
0.4648141958496411
-0.150926597852429
0.7284424951560927
0.6732401796798173
-0.04124579355582543
-0.6151129116726046
0.5610374373958955
0.2882029070427023
-0.2861838740283869
-0.002019031233292035
0.5465642210706585
0.09338959766297569
-0.03885681004957513
0.1971510113648883
-0.1582942004522804
0.1205921897823452
-0.120592186385544
-0.8587614240066928
0.002405650098061735
-0.1129966823556351
0.1400838958414266
-0.1320559780252155
0.13205597765613
0.02342545497739874
-0.02357312753642934
0.6711199152015067
0.058718126736728
-0.323211276354364
-0.0628913774200176
-0.4712439392331485
-0.04927309744778157
-0.1518122475921085
0.1518122476345614
-0.04240794254813039
0.1431678665718062
-0.1431678662766208
0.1368769759330886
-0.13687697414623
-0.3155813326369314
-0.114562418265812
0.2266866848795695
0.1030172039084177
0.03486598777123307
-0.82112098203126
-0.1973521199279102
0.1703831901633062
0.02060300133729567
-0.2655938387208967
0.1256884493980767
-0.1256884491311536
-0.41403659968029
-0.08467375030112563
0.236649072571222
0.002147519395082957
0.04048958455644037
-0.5432515491039475
0.5777856641933685
-0.0237002076105549
-0.0187077289880506
-0.02853900669708548
0.02484411726091005
0.006573749180317614
-0.1841627252594814
0.1775889764477868
-0.1078736492003061
-0.2283731758891568
-0.14489638450473
0.1448963842591318
0.07299779522059686
-0.07299779555529641
-0.01949954204710363
-0.1087085841759172
0.1282081258506428
0.2417771377063148
-0.1827048637453112
-0.0247849167694427
0.02562725524344809
-0.1382736260858115
0.6234309638896943
-0.03906400854637435
0.4216715403868114
-0.04180207075521702
0.06158185397405575
-0.1536136942992467
0.1536136949133615
-0.6361450938149168
0.3090406030571052
-0.07930558290989401
-0.2348054219481571
0.003585401916324122
-0.1225036199310143
0.1629932059267622
0.1944315499462082
0.09768157501829601
0.09519217606959617
-0.0606720676058643
0.07250513613672432
0.04154954119824249
0.06382211831027582
0.1065610708787162
-0.09579272000598535
0.206157174336752
0.01298885500866746
-0.1129463776430843
-0.1021437540814485
0.09799437554905051
0.004149378622405042
0.01299112897403035
-0.02279730403013589
0.03788506170538511
-0.03788506179716904
0.07464739531995102
-0.05472269136013234
0.05472269158084565
-0.2245787942996565
-0.05136453152479441
0.01147385537892363
-0.1031291210122932
0.01628478861577277
0.1082534283693877
-0.1082534282693963
0.2942921523134259
-0.2716211352446314
0.1637474821297644
-0.05054919914911501
-0.2210719368334766
-0.01760280369575019
0.01760280372749109
0.36726331584151
0.2852746732706264
-0.527350830736707
-0.09399924606524365
-0.03203662071092993
0.5285990209474245
0.213238134412151
-0.1694310832115105
-0.3816956659805119
0.0765130357476867
-0.1478991319950092
0.1874660786987243
-0.03956694685515252
-0.06670389377904423
0.06670389400933814
0.8226732086837547
-0.5606636960852738
-0.003100844576881512
0.01609197694838943
-0.01999416307521779
-0.2865677895131237
-0.01747942945891974
-0.01284040206131066
-0.1317214216047324
-0.5719865323143161
0.5559176886520473
-0.5691251529637587
-0.006915860126014056
0.1023107599534015
-0.001801449060205467
0.01673671681611191
-0.1678932903646021
-0.3367063673594738
0.2335772464711394
-0.05461228969549811
0.03511274539591636
0.131729702375819
0.1729999684091974
0.3360588450183104
0.2768554651756889
-0.2786569142508193
-0.06345246377703781
-0.1548380879335525
-0.2213501489718722
0.07489454398842607
-0.01107242638984969
0.2142866034886571
-0.1975498870895284
-0.08626429027219472
0.1587694316790246
-0.3549536611514902
0.208843403334457
-0.1925586152017162
0.08963403568954212
-0.4794175831073732
0.1746256775409942
0.1697693350333215
-0.2560336244022103
0.0723948727679932
-0.1941987244061239
0.1767192954180455
0.01743499844306385
0.1413344340781741
-0.03954151450889799
0.06632442166252236
0.466654951685307
0.02028225590431579
-0.07559683573056182
0.05635600899060677
0.1255245582664491
-0.2609170919184633
-0.230887620570155
0.5597046910238738
0.1578998933663376
0.07874917832558287
0.07584134611539127
-0.03093241321613015
-0.007451494532509031
0.00543246938525981
-0.03278398375605933
0.1712952192794825
-0.1782110797529625
-0.05599298944037973
0.02252641358322134
-0.1466565591230746
-0.05286429768043704
0.1501641842981573
0.2770953635820705
-0.03899241521540073
0.01739264308495038
-0.2556984656773627
-0.1305588839800314
0.2355691613400298
0.1792712355837666
0.1297693713034213
0.02172799010978392
0.08914411345491358
0.0520354528605322
0.4529900751527219
0.01713825560209596
0.09692982122934192
0.04385641608915517
0.0715781330459028
-0.1154345484949403
-0.242076157678944
-0.2009992230741906
-0.02007271297274316
-0.2023222220073992
0.2757711804713937
)
;

boundaryField
{
    FrontBack
    {
        type            empty;
    }
    Top
    {
        type            calculated;
        value           uniform 0;
    }
    In
    {
        type            calculated;
        value           uniform -1;
    }
    Bottom
    {
        type            calculated;
        value           uniform 0;
    }
    Out
    {
        type            calculated;
        value           nonuniform List<scalar> 10(1.035548930895858 1.06446804870562 1.021405273180551 1.019267012074048 0.9971951540995752 1.015024062654719 1.035132710989668 1.062692477759096 0.8672479211748931 0.8820183545103697);
    }
    circle
    {
        type            calculated;
        value           uniform 0;
    }
}


// ************************************************************************* //
