/*--------------------------------*- C++ -*----------------------------------*\
| =========                 |                                                 |
| \\      /  F ield         | OpenFOAM: The Open Source CFD Toolbox           |
|  \\    /   O peration     | Version:  2412                                  |
|   \\  /    A nd           | Website:  www.openfoam.com                      |
|    \\/     M anipulation  |                                                 |
\*---------------------------------------------------------------------------*/
FoamFile
{
    version     2.0;
    format      ascii;
    arch        "LSB;label=32;scalar=64";
    class       surfaceScalarField;
    location    "347.5";
    object      phi;
}
// * * * * * * * * * * * * * * * * * * * * * * * * * * * * * * * * * * * * * //

dimensions      [0 3 -1 0 0 0 0];

oriented        oriented;

internalField   nonuniform List<scalar> 
1171
(
-0.9279185649602495
0.9279185649893339
0.7872605768982013
-1.098750200879709
0.3114896239151222
-0.1948043553863111
-0.7673868938618728
0.9621912492103218
0.07208144196763282
-0.1174841491490043
-0.2117933260016228
0.3292774753229803
-0.7872605788155792
0.06928408598195858
0.7179764928264587
0.8107194260816789
-0.1773961179430853
-0.6333233081210267
0.8742005944217394
-1.043476702322355
0.1692761078751644
-0.2846975903475834
-0.09799569530135692
0.3826932854335956
-0.03606731843833692
0.5483575774054187
-0.5122902589177702
-0.5068461346190617
0.8290017528371648
-0.3221556181800341
-0.4021817459110131
1.045647846259225
-0.1714472499393448
0.3958529231420512
0.04889245539066348
-0.4447453780764896
1.046400039676413
-0.0007521928873729383
0.4464766114328027
-0.05062368475494945
1.056930253164455
-0.01053020782530861
0.5782998722114746
-0.7731042343088453
-0.7243150528599868
0.5571170032633117
0.1671980496328141
0.2198305034751656
-0.7266766330928158
0.5500768604370102
-0.9225787686438708
0.3725019086543587
-1.094190141595653
0.6864423298999717
0.4077478116232255
-0.5953558198595307
0.5592884956826798
0.01781166131430222
-0.2564681096520645
0.2386564490234247
-0.02427574957903662
-0.5236383672870406
0.5479141167348496
0.3998446920306469
-0.4978403942566583
-0.9187604560613485
0.9414971490398705
-0.0227366929787979
1.06778405085736
-0.01085379504963791
0.9352121953542284
-1.116981799260868
0.1817696039368087
1.067422558425989
0.0003614978452327558
-0.6642775972058667
-0.06003745562808274
1.262049740796443
-0.8644513494035004
-0.3975983913973311
0.1486621077527134
-0.1091470757786226
-0.3255642265442433
0.4347113021549087
-0.2856953806927742
0.1913621482396662
0.09433323214962146
-0.5833945450341961
-0.5153556554870122
1.014118984180832
-0.07890678838063035
0.00991820140781928
0.8254465374244833
-0.8353647388451944
0.5717792763889041
0.6902704628689467
0.4392104967640154
-0.03068032478467684
0.4305250162311937
-0.8077385219169808
-0.1026252932604144
0.9103638152129573
0.5027022797936614
0.2539240027024216
-0.756626282475961
0.003643432533527424
0.5303053227117199
-0.5339487550862954
-0.489907389217831
-0.6042827483237019
-0.4229020469004836
-0.6940797525559241
-0.02747425481160382
0.270467833473132
-0.2429935791077848
-0.9249130869584751
-0.005207139024630623
0.9301202259642779
0.3078214909712184
0.07487178563507663
0.7622650392590303
0.04845438824091634
-0.5330000091351461
-0.06235581414700772
0.04630782605212842
-0.8540463455049976
0.07678503443210331
0.8618076785676033
-0.9385927129972126
-0.3473952684566408
-0.04095189816909173
0.3883471666570271
-0.6824299518743374
-0.2424831372413939
-0.6317331509043299
0.7085181874407415
0.6096313153379257
0.2193704420427152
-0.5429705914594364
0.9462098778724565
-0.7793622019776507
-0.1668476758998236
0.02062338905892994
-0.01156987522460952
-0.009053513317296476
-0.4029901266431363
-0.09485026871731804
-0.2420022014683696
0.8516335221485276
0.04719370693074212
0.3340955882035992
-0.3812892953606375
-0.460844757376241
0.9635470382716024
0.6801255271345753
-0.7827508171138119
0.3181202285267178
-0.01555652735435351
-0.3025637008240483
0.9306639357384655
-0.9306639357455478
-0.7830003677102051
0.1112566874764735
-0.3230500185121516
-0.7500399616761401
0.7599581620250671
-0.0909460728229376
-0.142676445695617
0.2336225182464408
0.8649282648031927
-0.03948172882944159
1.054499907911295
-0.8005759019877836
0.1861911584368089
-0.3158018790525065
0.1296107206491368
0.8590568710918974
-0.0967918319474675
-0.6116665699877936
-0.0394441370377232
0.6511107070150677
0.1237791247252377
-0.2308952457805773
0.1071161217006597
0.805604351410818
-0.9830004686608558
-0.4349164902718703
0.3293916276328961
0.1055248628356377
0.5322577915786002
-0.5565335380368287
1.022128749143481
-0.4562800133384348
-0.5658487357990551
0.5992267034735075
-0.7192892220769554
0.06658692522431865
0.6527022966332647
0.1024305893164563
0.5704103273787314
0.05465535851369648
-0.6250656858281924
0.1945931980079058
-0.08333651359712863
-0.4928519212033202
0.1454566541429172
0.05037145957744978
-0.8867730061950767
0.8364015466450762
-0.4747459139725047
-0.7133798435465641
0.04910224390512376
0.4364814083671249
-0.005956396505889677
0.2999981799896138
-0.855281193600071
0.5552830137432216
0.415727143490996
0.5842728565306685
0.5606167817786366
-0.5143089504233914
-0.3653139291909628
0.03638050266387564
0.3289334250633345
0.6813297624072325
0.2493341730502245
-0.5670995385581584
0.5707429694367531
0.1109171835094005
0.8748884384878148
0.01029723450307733
-0.6219638047260968
-0.7492808167242921
0.7996522763587051
0.5309661877805124
0.07160282747380943
0.3007203843540985
-0.3723232117500938
-0.16760401064659
0.4428621403675217
0.08744317731253627
0.8749350649173214
-0.7983774334305934
-0.07655763143781709
0.6355349991179146
0.3106748787407254
-0.430464382138208
0.5754012525556985
-0.5037984247245988
0.4171048255672886
0.1329720407762443
-0.04689495264443372
-0.5886941489638023
-0.1388417814690762
0.7275359304212936
-0.1496676313930177
-0.7809963068742457
-0.6110642396468968
0.3604959210879643
0.2505683179711941
0.6222608547435499
-0.611963619397549
0.2383314011340585
1.011646586673151
0.04285332025980616
-0.7492808165249641
0.2197323954108391
-0.1991090137684959
0.6801255289575311
0.8021420545499038
-0.8021420545711734
0.8376707596631123
-0.8332734035445424
-0.004397356075876099
-0.4453624390377357
0.8610895818872879
-0.147624133932779
-0.3452277895732599
0.7347421496641569
-0.668508954000114
-0.06623319570322173
-0.7327360459694442
0.144041895102634
0.1388819959231778
-0.6718820052551965
0.7827508110214714
-0.950354821700529
-0.364847965414871
0.2871174748012982
0.07773049034216102
0.1458332654244777
-1.009633583012737
0.8638003176011613
0.4805938933167969
-0.04138339659418502
-0.3081444320647308
0.5863597929328367
-0.2782153608066474
-0.7383505133975585
0.8841837769189536
-0.1571013465648502
0.734582010033568
-0.8368025667309987
0.1022205567747723
0.9782421630458588
-0.5414110787502295
-0.4368310843159863
0.7552471029577464
-0.06484680465398587
-0.0358411675437143
0.1875182537005965
-0.1516770864604426
-0.7757356575990639
-0.8437954494100439
0.07640854890367661
-0.7500399615829375
0.5141345272048328
-0.5550864269951312
0.09143864609539334
0.7177237369587951
-0.8091623829863834
0.7536781662819385
0.1742404063195739
0.5028868600304524
0.497113139957419
-0.05377755616484139
-0.6059410346724363
0.6597185909613918
0.8788897830005297
-0.003954715181395375
-0.7552471029504111
0.7996522777060611
0.1912406554460029
-0.4477087633873122
0.01787514947671736
0.00130649425120286
-0.01918164163830847
0.5894822595927569
-0.4381782381479565
-0.1513040212501931
0.7179764943330545
0.01396536755070163
-0.1092134415048892
0.4380440034270805
0.1514382587817275
-0.01353590616733882
-0.006950046285430195
0.02048595209452904
-0.03372753206661624
-0.002113644526334229
0.2440407164079181
-0.2595972317988551
-0.9592434002159964
0.002012999531271052
-0.1595911225157161
-0.1208072473751353
0.09475548497940343
0.721544840537558
0.7289916604720862
-0.1447188034165534
0.6619900796586561
-0.5705514366736602
-0.211922965059492
0.3981141236489988
0.6954971972223155
0.02247929710063437
0.2416526470224522
-1.074926047756865
-0.9503548196679418
0.3018651001167605
0.7599581615011564
-0.2088971096722269
0.06622066678638673
-0.7235578404977003
0.9094259715369885
-0.1858681310150679
0.4163220486186341
-0.02797488698777627
0.7715547425422528
0.2807107835415259
0.3734987515358542
0.07297784607860064
-0.6587007511653523
0.6587007511535711
0.214812893212394
0.6955509261951199
-0.05519470103634651
0.3892902880697007
0.3795166028619466
-0.01276371092748068
0.03063885305855507
0.4491430715040841
0.03145081956065503
-0.7383505139195643
0.5340830087928597
0.2006591431625998
0.3043178374933118
-0.1167995794935061
-0.6954971960472919
0.1796763830500295
0.7297495874355663
-0.01027174823502277
-0.8136227483671644
0.8238944965880008
0.6963240704088094
-0.7920294132333024
0.09570534283838858
-0.7536781701015876
-0.1507690162973792
0.2117503217117709
-0.06098130591889302
0.07742123317936943
-0.1790360616048385
-0.1132292369464736
0.2922652988983622
-0.005652205868419217
-0.007883707232224769
0.7066174239985277
-0.7168891789357907
0.8853670048863365
0.0768242378271171
-0.3171032328079888
-0.5173314734132224
0.8344347060979531
0.1038378038111386
-0.1038378027149521
0.3234979798841818
0.4731380818589334
0.6175791177486166
-1.090717199536751
-0.1941094287411949
-0.5856634057982328
0.7797728345454736
0.0136131327703399
0.2200093915502351
0.3768840914570454
-0.2531049551174899
1.013929100035912
-0.5407910154745604
0.6657653899716091
0.9945801988054305
-0.3770010784341216
0.2292599530177013
0.8841837746260702
0.7127365272408771
0.2137679119622044
0.72772924075344
-0.7809963071117715
0.3412992534586945
-0.2766672904676645
0.2466949846191884
0.02997230575181427
0.8464470626514821
-0.006705145388194723
-0.8397419171584491
-0.7022063249445272
0.7025678253066978
0.5546375612510909
-0.7022063226421678
-0.712736527240351
0.7025678282899703
-0.03484174074162917
0.9073312457415639
-0.0219642442010023
-0.6813297537063681
0.6123493472900102
0.06898040641570977
0.5386696482628898
0.5369059457853942
-1.075575594048012
0.4905417308090552
0.5233873699367616
0.5432710788536701
0.4588908038405253
-1.00216188266082
0.4961485047282422
0.4984316948418746
0.6123493411185359
-0.5255370007328318
-0.4652504926512081
-0.5566981256397926
-0.5179693651238616
-0.1190788359764609
-0.01226622772155373
0.01226622724001001
0.512991668756153
0.5232268106084104
-1.041196175663574
0.5743904345986008
-0.2736700523089515
-0.8853045313499659
0.3438934518532388
-0.6331027585256965
0.3906196209865866
0.00258389043689348
-0.8283885785806038
0.8258046881357103
0.4208472236084793
-0.01831510191444816
0.8647621619814995
-0.9488363799514223
-0.8335645365928446
0.05391880305451903
0.779645733508597
0.5664467006572157
-0.4395741280434413
-0.1268725726484088
0.6501164632717616
-0.7290232518855686
0.887021376534309
-0.8316537824625178
-0.05536759417547869
-0.01032466673028682
-0.7880527642794196
-0.1098391042518506
0.7128148811038092
-0.6029757768459504
-0.9364991360897964
0.9261744697301723
-0.7254335471761554
0.6916000207946201
0.03383352638120191
-0.8110949822969261
0.03891207431769352
0.7721829079296387
0.06177978229819179
0.04205801826376365
0.4329702203173589
0.06181498916877374
-0.8517455855539202
0.789930596455898
-0.6436643540146625
0.5898868015787662
0.8893709647699158
0.07065996810154244
-0.9600309328179162
0.05580642621272972
-0.04783210955517284
0.3767655416308613
-0.3815467522406215
0.06574487626745217
0.8421442827692263
-0.8395603878148388
-0.7342707497077146
-0.8136749804724186
0.02562221665562218
-0.163078892212409
-0.8528610363643165
0.02120726023838116
0.6232129943475796
0.03877708369537101
0.03429151387225003
0.5321551963131628
-0.8074384175899725
0.846350488607897
0.5658487345854131
-0.8467036740993475
-0.8658391690954873
0.04149207394884808
-0.03373781372744387
0.837733763240571
-0.8039959495387279
-0.02705633825777743
-0.768008566972142
0.5443405426744634
0.1519835246074964
-0.0302953431312319
0.8950575061771702
0.9800932717427951
0.8625993658219734
-0.8413921015411187
0.1476754598804184
-0.1476754588800975
-0.1184895335825596
-0.4805346153543146
0.04096049242093495
0.2703721075556552
0.03149299238403605
0.3874641273266966
0.8680011657327019
0.005970078345727603
-0.01162229493097876
0.6586006777507818
0.3413993222374112
0.7835976430496185
-0.5833945442041135
-0.778096608899056
-0.8107011008662882
-0.6798311399092299
0.6798311399094192
-0.1678366070607284
-0.1552134172326051
0.6020526446156831
-0.8121920629977725
0.2101394183708519
-0.4938127465786061
-0.5689991113577553
0.2781478640700177
-0.9722276162485004
-0.9016846635256248
0.8463170778781097
-0.8126669936236439
0.8382892096622285
0.6487347946221064
0.1342181051255763
-0.782952899740434
-0.7768675757430901
-0.146056168698708
0.7242442315352674
-0.578188062833086
0.03368349506255886
-0.01405677491103798
0.017938140272084
-0.003881366030386002
-0.3548481088582308
-0.125686508443406
0.8802005059213832
0.7466150931016114
-0.246700873747041
-0.4999142192023995
0.6197425186303427
0.6853956461020045
-0.4705827520956663
-0.0004062976856646439
-0.2852890801460461
0.02315209816501285
0.7482502908700706
-0.7714023890932165
-0.3234928239548044
-0.07292138329200196
0.07595629157594858
-0.9612148872050019
0.1214729668378314
-0.6779739617682803
0.05188353050945768
0.6407238466011791
-0.6926073771335407
-0.7564161785090089
0.07844221674786737
0.5879437771086589
-0.6608651604418229
0.1572269041809209
-0.3362629626280061
-0.77046172248198
-0.006405853247063357
0.3711821944726797
0.6010886025039744
-0.02568735267347613
0.02149993422862646
-0.02149993373535263
-0.01921628708200977
-0.04925407624569011
-0.2274132289287454
0.02610460714925014
-0.02013450246627867
-0.7316846373887724
0.2792648612271753
0.6805697764177228
-0.6891782400971179
0.008608463565473326
-0.5953706060083762
0.6472541395510375
0.6532082176738065
-0.06526444036466614
-0.6313071614974418
-0.1251090152648789
-1.050510873628404
0.01104839225395291
0.136627064236938
-0.7085325384934196
-0.741146264272398
-0.7631852868055043
0.3655868942689303
-0.4114476965954054
0.4637373343937383
-0.05228963777633018
-0.6677465972312754
-0.04078594131680817
0.5018887050921538
0.7306821194220826
-0.2341686103019986
0.113361362122331
0.9676207384088721
0.4463247094706052
0.1340377529868308
-0.5803624624291088
-0.6776619362501841
0.009915337119473911
-0.0447185406948136
0.03066178266855617
0.6363831320174306
-0.7752249136252092
-0.001828566999275509
0.001828567323983502
-0.6011883098178312
0.6483184774408046
-0.04713016762660634
-0.643370421555936
-0.1130688278652136
-0.6715108424712977
0.05641301601123531
0.6033055803707654
-0.1371558735338885
-0.8175670118867253
-0.5627993421894258
0.5655369539737939
-0.002737612204799198
0.6316262398597554
-0.6230177744820439
0.3224278826346862
0.2141378360381016
-0.5365657186677925
-0.1047631328453141
-0.6016864518853531
-0.09092092483069114
-0.1548636044063195
-0.5063863198294227
0.4040885992460322
-0.4989388662307953
0.1269064438677453
0.6782864319903674
-0.8051928758622136
0.5992267034765753
-0.3676639365956301
-0.04378375327346735
0.08273778034139884
-0.5891240992120912
0.5517524177249155
-0.04058847628248508
-0.5111639413337118
-0.3126186108684494
0.3051507062120859
0.007467903995218192
0.4546555122244584
0.1197349241618915
0.05152176486767154
-0.3161215583677429
0.1570446738464901
0.1590768843966232
0.2282998133191874
-0.008567410791555142
-0.2936436938575446
-0.311037590002918
0.3575857252238207
-0.04654813680248118
0.7872383580991336
-0.6262392468317246
-0.01713117463118284
0.4992510373559524
0.280886630495334
-0.5275875021101243
0.5775072472247038
-0.5775072472248715
-0.2897374709990736
-0.5864434689591173
-0.2955799134812229
-0.5864434688151012
-0.5944440415997999
-0.8385124709759751
0.1700035182925841
-0.585278759090555
0.8211134451388021
-0.003334007654286133
0.1184032629486718
0.4826853381531931
0.09673098466582064
0.1857266732419441
-0.03643321542744928
-0.1492934583390622
-0.01974179877929055
0.5937360450338575
-0.9460919472340307
0.4287604772322454
-0.00380222887642387
0.00340047835512105
0.0004017505025126111
-0.6434525031001369
-0.1317139113118389
-0.4678714143889585
0.6019091646061437
-0.5036880387781465
-0.3267622980403463
-0.2623618134321447
-0.2710707066220467
-0.1118483066933246
0.1118483063057144
0.1525088579791467
0.05924146081319587
0.196775062642237
0.4551699244337797
-0.5730587744216479
0.1051873634447651
0.2428927595254435
0.4663570001068596
0.5336429995127057
0.6414085707278944
0.08754868036827626
-0.006087394311392959
-0.08146128629106518
-0.276926256454554
-0.5406407554205958
-0.5515718788243651
0.114348155956169
-0.1262772045591345
0.01192904833276674
-0.1056587991503674
-0.3858162637419828
-0.04603796753958883
0.6493435349879152
-0.4986976135181742
-0.1447548895968903
-0.3383321804544978
0.2915541234513719
0.1245601562216995
-0.6113373804374687
-0.204269812394229
-0.2621418631056153
0.002544612885776861
-0.422244931038031
0.3233076528177848
0.09893727808371194
-0.09505038764690803
0.291654070225125
-0.8959368182974197
-0.4578676388061164
0.6296017397378134
-0.7730419148822444
0.6682787820116086
0.3414581806508295
-0.1248392574120965
0.2247713420557769
-0.0999320842024074
0.02423636968326066
-0.5862938468643426
0.02916311901896591
0.5571307279806768
-0.9006856373707948
0.5472397735784901
-0.6657293071611388
-0.09977486550875771
0.1096664057065885
-0.1096664042155852
-0.3165278526705574
0.3625718708618869
0.0141936730208544
0.03120786165160323
0.05634084005880286
0.5052788337508882
0.6619567171085221
-0.7385143466394681
0.03251435627693554
0.02308575003728284
-0.001585802057562437
-0.007233861201194507
0.007233860727477847
-0.4167145655935584
0.5364494921272955
0.01540538644596108
-0.01540538650966456
-0.7922819107501148
-0.06098870356692182
0.1227684931546527
-0.456863193771596
0.562050559760816
0.4518494087917895
-0.4989795791604827
0.1500190118763332
-0.1500190110727169
0.03249288831186136
-0.001854043682905572
-0.04213248322213262
-0.9761385567652122
0.5393074710167354
-0.4690041983785635
0.04205801832675728
0.5146059873154797
0.03103249473193649
-0.5456384819426303
-0.6161322537901258
0.1174346403466824
-0.3294358008461817
0.01344129932399668
0.3159945020359797
-0.1550534709572912
-0.07911512560669708
-0.5408714619675943
-0.04542238807222614
0.1366270624797371
-0.04023495896034835
0.03840639684216827
0.08086284927704612
-0.08086285089849941
-0.5347562194889636
0.4882080888608042
-0.4145732558378333
0.1613336030831289
0.6222640399423265
-0.0976771239411065
-0.003561802508032672
0.003561802286786465
0.5329439340365109
-0.07918218788289907
0.005828605388371947
0.02696065577556916
0.03482414476092238
0.6846022218596315
-0.7637844096923772
-0.6538381108051829
0.6367069352032571
-0.1064323436161922
0.3132031899161034
0.7460768876145605
-0.01921628807683034
-0.2669672064940686
0.1501676168413976
-0.744642353320107
0.4842630317936223
-0.4254407011745516
-0.1015262694723005
0.003469080722445863
-0.01430391611293471
0.0200171903602493
0.4109674200315662
-0.1215902939837704
-0.3895736465803246
0.628797052551355
0.01950011540029657
0.01062534279301166
-0.01062534274175298
-0.353470275630093
-0.07958629615179295
-0.5604748289094691
0.557140821340161
-0.2380684948359613
0.4647694924266055
-0.1511772486611359
0.7294771176026483
0.6721782639262112
-0.04023495885366584
-0.6164082872159935
0.5629648222891508
0.288865574840514
-0.285859217154968
-0.003006358139935007
0.5416565456175939
0.09338767297956099
-0.03903228042034526
0.1964347956261762
-0.1574025154568206
0.1198951283401657
-0.1198951298575298
-0.8587365835069214
0.0023435548634304
-0.1134385519146454
0.1403992083685375
-0.1318332647678059
0.1318332642039981
0.02308574349415243
-0.02277807702135413
0.6702842731950596
0.05946531422160727
-0.3229267227618657
-0.06288954111173957
-0.4712228641957931
-0.0494666064850257
-0.1515261749990493
0.1515261741773151
-0.0489683995932778
0.1434110386203372
-0.1434110379219715
0.1363925631127723
-0.1363925642670707
-0.315794063919709
-0.1146703182456643
0.226373464369737
0.1030181637791943
0.03484209259445568
-0.8211169143366566
-0.1981445719380986
0.1701770369704219
0.02106362473075144
-0.2650180336555106
0.1259100251272705
-0.125910024512961
-0.4141308876603664
-0.08480798079428419
0.23625021107939
0.002406242271037288
0.04062788681249263
-0.5434305220352547
0.5782722627823572
-0.03103099692582158
-0.01793740319353932
-0.0280490731249524
0.0261950420881156
0.006607988587038067
-0.1844837849888761
0.177875796414446
-0.1085368044786706
-0.2277261574984473
-0.1446516114330822
0.1446516107052509
0.07280804081283671
-0.07280804116501141
-0.01930074898262581
-0.1086204513414101
0.1279212007470215
0.2409304304332999
-0.1830078907035001
-0.02863300234237753
0.02704720497354725
-0.1373926360754985
0.6256007233829732
-0.03904026533661695
0.4246579188613223
-0.04318004172524316
0.06366600785300297
-0.1532461995306898
0.1532461985336147
-0.6365661924934225
0.308636832453385
-0.07937687900573485
-0.2344582702885265
0.003563027648440823
-0.1212072425344815
0.1618351288460474
0.1956404808209614
0.09662482326339744
0.09661133182058963
-0.06178718705874682
0.07275259443895779
0.04159556012968646
0.06396282444195431
0.1062142092581705
-0.0965892404303204
0.2099505817583314
0.0124539040633087
-0.116723746459903
-0.1003094462146027
0.09724812715538539
0.003061319858760746
0.01246040468988587
-0.02367992497565212
0.03772509499490918
-0.03772509504814002
0.07522755318314726
-0.05495605382355093
0.05495605364330004
-0.2245020792865909
-0.05305774043009232
0.01149223941930988
-0.1030623405816977
0.01649743402259379
0.1084806655052654
-0.1084806651094377
0.2945777606476991
-0.2713777451288283
0.1628409446268711
-0.05097255171552433
-0.220405192486571
-0.0173628208238042
0.01736282104842646
0.3674676009182321
0.2852347024667458
-0.5277170287034528
-0.09398237637668375
-0.03229483045133215
0.5288012072821733
0.2128813701511582
-0.1703423829467845
-0.3801023885490961
0.07647109181160591
-0.1476106257372123
0.187147373759668
-0.03953674823254329
-0.06688509298832664
0.06688509325825011
0.8225479794268772
-0.5606099005981073
-0.005751919656932441
0.01821232413072339
-0.01998495842490577
-0.2869273252256576
-0.01750101070060113
-0.01281835176220009
-0.1319239030797987
-0.5721090214070496
0.5560308438925837
-0.5694368602396682
-0.006874562707326638
0.1029295842901853
-0.001720024609465163
0.01685363484076042
-0.167595584954177
-0.336409685700653
0.2333473452110642
-0.05438368866696881
0.03508294019319252
0.1318067830399264
0.173343923264451
0.3379975205823836
0.2764136068408616
-0.278133631101357
-0.06190304869744855
-0.1551205445324369
-0.2210169667961977
0.07474596438011721
-0.01078314199137156
0.2138903720820935
-0.1970367369608221
-0.08629494899862565
0.1590475391237981
-0.355299022838158
0.2083750699385411
-0.1918776359135453
0.08957938624445856
-0.4791530355014194
0.1743290176770748
0.1701617203777687
-0.2564566622952917
0.07293141246755522
-0.1945168940386777
0.1770158830937195
0.0174293614161846
0.1416181793918071
-0.03955067759977307
0.06595953048001983
0.4669844032889727
0.02036227533094878
-0.08028503444665888
0.05442896399827748
0.1260952970456165
-0.2605537148953674
-0.2308848302268167
0.5597313400900765
0.1575355613074567
0.0787146480020218
0.07520684837230182
-0.03092588957668527
-0.01165810632033216
0.008651744665002232
-0.03276820953246661
0.1710174954493909
-0.177892057880551
-0.06026784247005681
0.02129528385082991
-0.1469499029637706
-0.05289870620353099
0.1496827531236757
0.2770676477596142
-0.03864420791034143
0.01453693395515654
-0.2557010354421978
-0.1321728698604661
0.2359065974370495
0.1787792329067812
0.129857603845243
0.02201274350802966
0.08888093741700022
0.05230268736748105
0.4529761463737277
0.01551521399575576
0.09737977818747838
0.04355134894294405
0.071845505801006
-0.1153968554949657
-0.2424823285028065
-0.200791971823617
-0.01961321747637217
-0.2020853900492979
0.2753142583236483
)
;

boundaryField
{
    FrontBack
    {
        type            empty;
    }
    Top
    {
        type            calculated;
        value           uniform 0;
    }
    In
    {
        type            calculated;
        value           uniform -1;
    }
    Bottom
    {
        type            calculated;
        value           uniform 0;
    }
    Out
    {
        type            calculated;
        value           nonuniform List<scalar> 10(1.033812809226891 1.064206649115275 1.021948618293893 1.019535873640234 0.9957967501853129 1.016401059918114 1.036218478941124 1.062811857944882 0.8672447144357961 0.8820233824267072);
    }
    circle
    {
        type            calculated;
        value           uniform 0;
    }
}


// ************************************************************************* //
