/*--------------------------------*- C++ -*----------------------------------*\
| =========                 |                                                 |
| \\      /  F ield         | OpenFOAM: The Open Source CFD Toolbox           |
|  \\    /   O peration     | Version:  2412                                  |
|   \\  /    A nd           | Website:  www.openfoam.com                      |
|    \\/     M anipulation  |                                                 |
\*---------------------------------------------------------------------------*/
FoamFile
{
    version     2.0;
    format      ascii;
    arch        "LSB;label=32;scalar=64";
    class       volScalarField;
    location    "103";
    object      p;
}
// * * * * * * * * * * * * * * * * * * * * * * * * * * * * * * * * * * * * * //

dimensions      [0 2 -2 0 0 0 0];

internalField   nonuniform List<scalar> 
808
(
-0.03593673106620821
0.04494195432385299
-0.01166648476703469
0.03499662938714197
-0.3037844207792863
-0.05478006023462099
-0.01466193753102986
-0.02397979417334207
-0.2001780492697546
-0.08573417510811818
-0.009793078192645514
-0.2578205112154129
-0.03060383299028584
-0.01307035635093885
-0.1204723079748198
-0.01406896275164944
-0.1384582721184448
-0.01359669184517683
-0.01236715946229816
-0.05699285230647702
-0.006098057311820758
0.1182569497156677
-0.06095610958219018
-0.07346080874662135
0.1765028185763481
-0.09959405520657856
-0.1553240211881541
-0.02031435090163915
-0.01736802286572924
-0.02593446540821474
-0.02018983556670956
-0.05991269116062367
-0.02289894162501257
-0.01682340682230955
-0.1013128125282337
0.3439153610426195
-0.03867077867595606
-0.01669712413580752
-0.02328107225963004
-0.02656298828148029
-0.09204939740090987
-0.1291465909722193
-0.05089153808859128
-0.02076532593740901
-0.0544287319237854
-0.03998442163946461
-0.01230260689870846
-0.1876954748056103
-0.02759695751725701
-0.2075567351430557
-0.0162674558625004
-0.06902045289813458
-0.05960900240075852
-0.01449246772792368
-0.1905043852451746
-0.0289763062101412
-0.01052466677661824
-0.01390114423400719
-0.1024823262013473
-0.0406809747717439
-0.1003276438888999
-0.1286736629777275
-0.01351053030621201
-0.1309307349560345
-0.01708335294539234
-0.0506988530245623
-0.167938793487818
-0.03563977890841796
-0.01484341648216919
-0.4461536667144874
-0.02696690680280247
-0.3076816401545536
-0.0220165559526498
-0.02052706872225679
-0.06754281240851009
-0.01738998241659516
-0.0435354900175087
-0.358897390692432
-0.0355785856758354
0.04208589190611611
-0.09038230888697209
-0.01726945535616841
0.05683375824339857
0.04338279697127386
-0.01661346172528046
-0.05331342273636607
-0.548867012047202
-0.2229483901941356
-0.05344174646076506
-0.1115419817606038
-0.05807133323562071
-0.1351314813883785
0.04065749743113217
-0.02391281335771613
-0.06065808615378718
-0.1212366648182114
-0.03847648004118294
-0.05183326128608345
-0.1183789766155282
-0.1412433682470267
-0.05221362301589692
-0.04841042547826031
-0.05566784958889694
-0.04579299702477857
-0.0579671610330886
-0.07333879011321784
-0.04100277472045203
-0.01110170168273961
-0.04108158260589115
-0.1267886583925001
-0.05125385663303395
0.08331565582324252
-0.04313588530663405
-0.007929183702507961
-0.02780137294677604
0.1800595286728532
-0.03987563433929125
-0.2735015231089131
-0.02038402856630692
-0.05491025312051426
-0.02942201515855246
-0.04794316821335814
0.01257702609006456
-0.05014578971126811
-0.03411678064479245
-0.2142164263252783
-0.04296012249286358
-0.004924092266730485
-0.07780421595514792
-0.06764856291719491
-0.1503336221948412
-0.02103801231417982
-0.07665406362136123
-0.0412054691645231
-0.02280010360704093
-0.01661649397696219
-0.006324145320649973
-0.007477365624985464
-0.05315603070543137
-0.05099041955563011
-0.20790620886111
-0.05817042280955099
-0.008551534276402761
-0.02276496308363325
-0.1449664999929674
-0.002165875870447191
-0.07784593830478943
-0.02381123166136163
-0.001115932395698769
-0.01019204380053159
-0.03389581798902414
0.09554798147040804
-0.03983853621654196
0.2527033532013713
-0.2619779160094429
-0.1304604984733045
-0.0372511603347003
-0.09126415779303786
-0.009090527977225357
-0.1118675520698921
-0.1837089491893229
-0.2125758188599672
-0.1842715448110927
0.05534025589096413
-0.06193165905527218
-0.02033009078444749
-0.06796812702307951
-0.1746716504680325
-0.02390255043642952
-0.01863371852471844
-0.05336757850460182
-0.01811281851682177
-0.006028171530771602
-0.110666109279942
-0.02288506379845195
-0.04672135530902322
-0.06888485570763198
-0.1641097370155624
-0.0337165736951741
-0.395652558990053
-0.01780688251653992
-0.2225728945469497
-0.04548716043667825
0.0304773444423501
-0.1047717290197911
-0.01426987866574476
-0.04169526979687753
-0.1062187654992342
-0.01774789109172366
-0.09735960184986409
-0.2041184121701712
-0.07311826570916022
-0.02379245675273669
-0.04993149552344765
-0.04386696078248963
-0.2030369394868467
-0.02193112705572747
-0.01901298687105906
-0.011377241859754
-0.05471873010813065
-0.05211204570761944
-0.02249764695074078
-0.02080425787836189
-0.2463243805989593
0.1279830616835537
-0.2006674923584876
-0.2071959289005885
-0.01176743860344381
-0.01160912181069065
-0.06769680688185276
-0.009476955762605479
-0.5124857586540864
-0.124993622480053
-0.01905084710663215
-0.00157922416216708
-0.02427432736207616
-0.2868826139698609
-0.2736644053856138
-0.007231940587894215
-0.01785961473260032
-0.002318820127023778
-0.3441433316661163
-0.02832635345533382
-0.02921273463075633
-0.01254255625296325
-0.01974635546741924
0.05092049029883488
-0.1127563726753804
-0.01375571683913048
-0.02075700040757809
-0.0430355388698121
-0.01823230773391359
-0.01619308706089569
-0.02337633406694967
-0.0668531549091809
-0.01180290010081409
-0.01904959408742166
-0.008617602972498263
-0.001015996492564452
-0.02952573603878166
-0.001627562947134899
-0.002256570166537459
-0.006086089709545444
-0.02560099076783644
-0.008050281268552695
0.001620465399893079
-0.004114713331827139
0.001115857964267516
0.002454501840085983
-0.008536865073149527
-0.1397572586729793
-0.003022939679125073
-0.0009217835890693857
-0.04823910317759005
-0.02145393585333376
-0.02487715461537484
-0.01430841186002478
-0.006092511302123144
-0.02092999595480505
-0.03742033074214617
-0.01422946147025957
-0.01272479145813258
-0.01200818181302718
0.006010854462218771
-0.01014674511191435
-0.01238208171347931
-0.01124940001903391
-0.01068533881586144
-0.01000678231641906
-0.01117547250815395
-0.01407276572525014
-0.3085689143991827
0.06102395329940442
-0.01521401876571713
-0.01676082088998036
-0.01294720048557
-0.01252364754761251
-0.008635009456969574
-0.09887964659195525
0.008883577862167202
-0.01395123808058212
-0.01472064090705351
-0.01083399969849844
-0.05337635465605227
-0.00929877670231942
-0.01396175267527165
-0.009148610283667645
-0.001299597432156279
-0.009798059534107673
-0.01061598157234295
-0.02487833814959296
-0.01627258236222517
-0.01205126821775304
-0.01331060087182689
-0.008604001196666279
-0.01316298672779745
-0.01137433621407839
-0.05731357608738077
-0.01290440360668111
-0.01163929022301908
-0.008734424873961187
-0.01496415860613189
-0.01411881837265387
-0.01575003906285363
-1.381258963881811
-0.09830801232625232
-0.01275319538090363
0.02251519541289126
-0.1660452824399179
-0.09340611116223559
-0.01136843730224552
-0.01410146132923953
-0.2571602669004485
-0.03093923128518694
-0.02059758742616337
-0.01101560472944863
-0.01978944333182729
-0.01121221414064517
-0.030691591999151
-0.4161435090929004
-0.01221092275755076
-0.01409572751840369
-0.00486803160638928
-0.01043225410360779
-0.009320128100712487
-0.01433568123119052
-0.009641657564924256
-0.02626867276480244
-0.011299014959607
-0.1606276901260626
0.01740021499712799
-0.007771550818348768
0.002869631062485947
0.01267268546633317
-0.04737383090215205
0.02988224892336851
-0.01275867040570258
-0.1362466300638285
0.2818996036785105
-0.007437207241140236
-0.01312707890353542
-0.008418296288645809
-0.03333876984461549
-0.1223654094577628
-0.01325981357259024
-0.01237629507568147
-0.01709982439563795
-0.01364130163394483
-0.04100243066616096
-0.2138531261119423
-0.0113885322082256
-0.04120125058401467
-0.0398691444576181
-0.1662104952167558
-0.1638398662470793
-0.1471325894912061
-0.2595352075608112
-0.006610243126478208
-0.02129042780331786
-0.01465028470628358
-0.01290936303304341
-0.03286556378260874
-0.02438360529656356
-0.01446892312012262
-0.01505209852711522
-1.083768298123136
-0.004714536712705155
-0.01377955954063763
-0.01841627510345415
-0.01806730062929722
0.003576540362902572
-0.01394065822009624
-0.02796959668693984
-0.1669247035269995
-0.01357580963241393
-0.02202316070750571
-0.01401321708636881
0.002003583073590812
-0.1789853171163826
-0.01339421952851849
-0.1444815223003788
-0.0160484669319041
0.009759043244645625
-0.01448712644350011
-0.02317144611714127
-0.01583414553482966
0.005385289699360842
-0.2780067805811915
-0.02558906517491185
-0.01616791743509382
-0.007898422955079629
-0.009500730368138172
-0.03059385455773585
-0.01436301871847935
-0.02048813669717337
-0.02135774453406983
0.01039528726896072
-0.1012883301513515
-0.02214003665402325
0.009217672473566033
-0.0508292880490492
0.1578804675207924
-0.1027694681873376
-0.3225932439551877
-0.03021792669011185
-0.02542557622461509
0.148731787855671
0.08956980324675348
-0.003287573331658169
0.05029330881190382
-0.01574399559825116
-0.01451923330278432
0.002230056322453359
0.01189331811699743
-0.06724795076777358
-0.005387621629848801
-0.05769419832925383
-0.02238516042262009
-0.01570512161905335
-0.03652145714275611
-0.03292195549462903
-0.006650303068390403
-0.01489449274208968
-0.03944867471387763
0.03629712935538798
-0.03886070539004513
-0.01351612647743542
-0.1161570604623865
-0.03190048414549063
-0.03855232247427142
-0.6789773858471158
0.01740917997245561
-0.01111846968513899
-0.00526172641226439
0.1655460846251838
-0.08621864665781219
-0.03503931185643439
-0.2477142977574362
-0.01647141549969873
-0.0166075793814831
0.06114835056996846
-0.1857490865222106
-0.2252587888062506
-0.1975822856955595
-0.6878776141372916
0.007879474167142788
-0.01807403915743594
-0.01627085659624028
-0.08097938617851386
0.1175716604490892
-0.02134627551000638
-0.2503687195228291
-0.03501541215819471
-0.006459247804225479
0.2762909501042553
-0.01122456296166609
-0.09413073791400363
-0.1486002784213388
-0.00476912381724634
-0.0404597584641207
-0.04555120801122117
-0.2052489932212167
-0.008911675902725418
-0.04240250554823034
-0.002781279733827164
-0.5524663140927667
-0.2010491389432211
-0.1752847325391385
-0.02280608911087594
-0.0070444801950511
-0.05987286317114621
-0.05840389580892203
-0.01533107368067665
-0.06746256346785752
0.003216838292306079
-0.01836755277791119
-0.09567199181638379
-0.2667971626491085
-0.008089570859571306
-0.026147393892169
-0.02209758329521393
-0.07414412600377442
-0.09139986421819882
-0.08768999343559802
-0.01141455439235199
-0.9279213022816769
0.1603701826750087
-0.08057205658806847
-0.2581664132618022
-0.0426928807636935
-0.01023811554503024
-0.24898247074731
-0.1832679468231398
-0.03349611768475893
-0.1249886099505421
-0.01842416598812455
0.5622875917933371
-0.02390140490117111
-0.2277098314594125
-0.02624254436174642
-0.005113865747776924
-0.01181666717842659
-1.256941794841402
-0.1844578103686524
-0.2346477271216706
0.005416478121388185
-0.03697929420087509
-0.2505029301153341
-0.06533319681920888
-0.05092245795772788
-0.1414167037971462
-0.1931859852163141
-0.06769999552417286
-1.2320749585223
-0.1459214285796852
-0.5197159297960818
0.07831730933149064
-0.007086225316088044
-0.02202697599340587
-0.04247672369012911
-0.04096847936578003
-0.02878415926552281
-0.1322815316562707
0.0795720371909534
-0.003484786771867243
-0.009699496849057647
-0.580370132232555
-0.8654345476249479
-0.1866450347569883
-0.008094360569735901
-0.1350696495407588
0.0009834350783096675
-0.0007885344264139364
-0.001997294835497222
-0.06017171652909709
-0.239755084840839
-0.0134566079462742
-0.1223065994794373
-0.1544876537152377
-0.01323249042539366
-0.03598484472151346
0.02187183713787794
-0.05724928274360639
-0.06959354469948427
-0.5039113979482545
-0.2476308061789677
-0.08130875383990087
-0.07230432548790854
-0.01993906919841492
-0.1205873091269097
-0.1549485882228152
-0.07628515982015478
0.02517535379591409
-0.08424410188593043
-0.04792531047151631
-0.01493161101004217
-0.1095819371799372
-0.2720488165015379
-0.05660242054085705
-0.01855539857139034
0.001168601758619251
-0.01010140953162495
-0.01114471617104288
-0.2193509090589677
-0.01484621233424922
-0.2232262104961213
-0.01055108867088283
-0.06535490359059559
-0.003518393221364109
-0.02319142392199538
-0.3773732878891501
-0.9070051785995806
-0.01131885029705529
-1.051911021011499
-0.6147183643428177
-0.01077910619887111
-0.6527997980232584
-0.1757679321168972
-0.005498470401204289
-0.1302932794511854
-0.01713725122521899
-0.1213044429368393
-0.06772411351814539
-0.07504879865850739
-0.00531458640584322
-0.002859925025361792
-1.333152780610151
-0.01107999648301062
-0.1883255121874545
0.0005157835719122572
-1.01580862436886
-1.229930161503338
-0.08205331327160931
0.02019862015849195
0.1642370120442005
-0.0048231177873865
-0.02302164057249695
-0.004263970471740579
-0.2522131461276812
0.3661651486440931
-0.04084577415948784
-0.2100238484567158
-0.01498378153080399
-0.6593539513624393
-0.07548207495788366
0.1915949058155363
-0.2851914721939298
-0.04978329427139629
-0.06869020601200553
-0.01586470758834622
-0.02172850903594917
-0.5743238111212119
-0.1448454888243645
-0.08688479768485174
-0.1269251527377969
-0.5582780935600634
-0.04416123997599813
-0.911410245941437
-0.000655161707542323
-0.2372349546366035
-1.044683837867589
0.1702143283068491
0.2927311201902451
-0.1805693263760215
-0.19422018558517
-0.2060981012816632
-0.06840443455062152
0.02324045674873648
0.05067261682474661
0.004252580947330751
-0.1639843106808756
0.02505061590592499
-1.3518521634053
-0.08500092671109094
-0.471712271065505
-0.3285714076010084
-0.2046082710310585
-0.1754279332383896
-0.01692774731487602
-0.01544526873543784
-0.1044518309509204
0.1699278346473622
0.385862417707529
-0.2214215556166849
-0.143194825024415
-0.2410852678078093
-0.06239600443888414
-0.1522630510259124
-0.1630556871547942
-0.1253420117233022
-0.119978279815783
0.4674027690118754
-0.2691121006985049
0.4298703108281591
-0.6009610582983341
0.07012203704017479
-0.2038651405572967
-0.0659766628208218
-0.07362023723327554
-0.8758859890539817
-0.2233746602115378
-0.189148446222229
-0.3458611955480611
-0.4564554232511953
0.5706339278131612
-0.2046972303317432
-0.0001729930872391196
-0.07125343408266561
0.3427627623607442
-0.03793082714940411
-0.1274617823038049
-0.1782841454846305
-0.06392599148060844
-0.01650552583944367
-0.1932138445902107
0.1918203541370393
-0.01274106490742856
-0.09601461334358333
-0.1678530822191232
-0.3123128631385873
-0.3144399771584193
-0.06678132680933881
-0.01023110462415132
-0.07609526169445187
-0.6579928487597223
-0.6664162786663097
-0.3382577934422223
-0.05757976294807382
-0.05233168628557037
-0.02547358678089132
-0.06735572412807507
-0.05827433033141132
-0.3580002947143564
-0.9535198878175255
-0.009974208462691189
-0.08269700335775862
-1.133793119380402
-1.028437764982362
-0.1033236974046415
-0.0381718843313526
-0.0703473952271777
0.3913464327816703
-0.345700968880888
-0.051342386613104
-0.596184073116558
-0.1248801154714367
-0.2541537242158576
-0.208910210553979
0.4744409822181705
-0.6255566880374528
0.07210845908303587
-0.02960848351798278
-0.5560958616587663
-0.05116180218967441
-0.3591305411871908
0.1059799135840308
-0.189555334901229
-0.0596718041574903
-0.136095970915896
-0.3642813334043501
-0.08967711702806619
0.5136196226323041
0.08496920794357379
0.4714630458519868
-0.1129376195957253
-0.1990015977838515
-0.5229702128539591
-0.1294932404904482
0.02717862417269797
-0.05332677578445588
0.1035059022041306
-0.3099847690269787
0.2361187314620782
0.009251507182229097
-0.003326229780538174
-0.5154924294405608
-0.186520265571373
-0.08852504194147841
0.5812774271617979
0.1381252123840216
0.3470519165220381
0.2257735598026526
-0.5588030016427803
-0.2118886827268922
-0.2194158584669481
-0.239067716864989
-0.06010886379980519
-0.6969772341416278
-0.1955531332463227
0.306643095366559
-0.2086918324585259
-0.01109553151555762
-0.1728685587450523
-0.00921433439913817
-0.1582361155761909
-0.4336143151970583
-0.07704571216324901
-0.1967825906793153
-0.07227213004447655
-0.09339259888261782
-0.1439970838377844
-0.07370259208255339
-0.4552433929339789
-0.4171599107976208
-0.02709361964936534
-0.07396860462651486
0.3258054435581009
-0.2459854311381495
-0.1842723948587614
0.5260413120956403
-0.2069332030864653
0.01701573975120521
-0.4476005104983344
0.04489969933494709
-0.06253442072562942
-0.1542036861609611
-0.5805726033644383
0.1627872726590741
-0.5831296474902181
-0.5319565840494658
-0.1069820307932309
-0.5048709015784405
-0.0374538856113889
-0.1425953488033996
-0.4077721521798718
-0.01635692884958565
0.2859088706715534
0.4893174238914943
-0.1584192152831772
-0.00867550910436792
-0.06995896872932407
0.5253443803937937
-0.03350891149276247
-0.4371157981460697
-0.03279245553928685
0.459979491452891
-0.01450467609517196
-0.5411486943279061
-0.2433114234252536
0.1752071384936665
-0.3087768217575096
-0.1776089171496302
0.05256871785327547
0.03390375993121039
0.05382508857100055
-0.2976724377655447
-0.1567738338821131
0.4126896221504752
)
;

boundaryField
{
    FrontBack
    {
        type            empty;
    }
    Top
    {
        type            zeroGradient;
    }
    In
    {
        type            zeroGradient;
    }
    Bottom
    {
        type            zeroGradient;
    }
    Out
    {
        type            fixedValue;
        value           uniform 0;
    }
    circle
    {
        type            zeroGradient;
    }
}


// ************************************************************************* //
