/*--------------------------------*- C++ -*----------------------------------*\
| =========                 |                                                 |
| \\      /  F ield         | OpenFOAM: The Open Source CFD Toolbox           |
|  \\    /   O peration     | Version:  2412                                  |
|   \\  /    A nd           | Website:  www.openfoam.com                      |
|    \\/     M anipulation  |                                                 |
\*---------------------------------------------------------------------------*/
FoamFile
{
    version     2.0;
    format      ascii;
    arch        "LSB;label=32;scalar=64";
    class       volScalarField;
    location    "1260.5";
    object      p;
}
// * * * * * * * * * * * * * * * * * * * * * * * * * * * * * * * * * * * * * //

dimensions      [0 2 -2 0 0 0 0];

internalField   nonuniform List<scalar> 
808
(
-0.0334861512443874
0.04418670279800066
-0.0116308743224297
0.03748525067136403
-0.2966371810835228
-0.0553131413057443
-0.01528292978968268
-0.02390876680471835
-0.1949955695890289
-0.08290289529963535
-0.009887861946423215
-0.251868191454866
-0.03062722400255991
-0.0137237316389517
-0.1247671326272641
-0.0141049924912728
-0.1424754526774469
-0.01366602535512197
-0.013006148597199
-0.05496877511082064
-0.007319418859588496
0.1168015771527767
-0.06299435562995551
-0.07076450974013165
0.1744251406806213
-0.1000094232167241
-0.1508870742614691
-0.02043469008688028
-0.01758508722114013
-0.02582410854378727
-0.02031447594216548
-0.05769634054811398
-0.02291537089485285
-0.01694824018849948
-0.09831810868023626
0.3450767911194858
-0.03959328475109258
-0.01670229376850261
-0.02265334478722671
-0.02655422438820019
-0.08920507931971497
-0.1251836768270353
-0.05238603067402083
-0.02108832885673117
-0.05555745438570815
-0.04208937705235319
-0.01211246506416237
-0.1825439647981146
-0.02670015761141729
-0.2020962011752846
-0.01675424738693487
-0.06631146410127944
-0.06133001960987108
-0.01522274603671453
-0.1949549281012834
-0.02799269871023181
-0.0109485338413243
-0.01538714990916534
-0.09915852036313165
-0.03930579186778101
-0.1023934301267797
-0.1245722002570111
-0.01414358092097963
-0.1266335295599804
-0.01723275425049322
-0.05217988822971114
-0.1611495761693255
-0.03551204621639861
-0.01529641715369464
-0.437558801720995
-0.02634652648012666
-0.299609330716666
-0.02147532483172234
-0.02071662352774334
-0.0629402532394791
-0.01798412725009901
-0.0420323171476752
-0.3667194378770358
-0.03617980652324467
0.03877546513297876
-0.09229539676599462
-0.01692530172190327
0.05710084509925154
0.04591426476109996
-0.01727695638026526
-0.05162551709245732
-0.5386573455136721
-0.228214168459378
-0.0514926645679349
-0.1134447107013533
-0.05578726310809497
-0.1310235922963277
0.03855152909590902
-0.02621436528331528
-0.06243203904535451
-0.1161196213234072
-0.03832588015918435
-0.05243881042704638
-0.1146865863554472
-0.1361272905342953
-0.0527733443623561
-0.04681379564716581
-0.05371117725286395
-0.04428659694020258
-0.05697715118547148
-0.07519396105884532
-0.04113157100979645
-0.01109847243644759
-0.03987575951410047
-0.1224655114732722
-0.04994253281836112
0.08138045975643401
-0.04202292713324708
-0.008180377828116692
-0.02768172281799051
0.1809783761254761
-0.03826044220308239
-0.2662680827618062
-0.02056170199344334
-0.05281468434272808
-0.03403776980158128
-0.04920994708422581
0.01395532084687285
-0.04785352648655027
-0.03635613473039258
-0.2195458424324454
-0.04020428142591642
-0.004765522187398849
-0.07482069801667292
-0.06944536912745672
-0.1426117253732628
-0.02098186734326503
-0.07430598817724819
-0.0439148252160711
-0.0229028843460993
-0.01512202812222588
-0.006312824503902275
-0.007310820807129273
-0.05201293683932744
-0.04910351735601075
-0.2187896491013133
-0.0556428391984063
-0.008334726870888253
-0.02202300362928107
-0.1486172263353187
-0.002788665670763572
-0.07541022772137766
-0.02107886858725875
-0.0006896008080224941
-0.01108408645102666
-0.03303595166932002
0.09323498930175741
-0.03807019659488275
0.2515569291239685
-0.2683431601725084
-0.1334605088712434
-0.0377269349723028
-0.09095267468845868
-0.00942295308967552
-0.1143865379972676
-0.1746417718413819
-0.2199165387172263
-0.175192129752411
0.05688597511622047
-0.06355655669027387
-0.02050460664823968
-0.0663151071288518
-0.1647883296172406
-0.02318384272721348
-0.01842340511827688
-0.05119909134646605
-0.02050510307294301
-0.007229362879350614
-0.1060191828329271
-0.02328820714589798
-0.04426570513010682
-0.07075001534120827
-0.1593064802457569
-0.03320841662247147
-0.3864319279044013
-0.01788938858130019
-0.2272351159823409
-0.04363891289534556
0.03299271297721201
-0.1066755070883374
-0.01627493425699858
-0.0430227189616007
-0.1033929197184979
-0.01773184907398699
-0.09453351064858405
-0.2076878340681519
-0.07101499965915097
-0.02396077735987889
-0.04720869787377693
-0.04215370277768524
-0.2042935669635266
-0.02220144850402152
-0.01917736746004949
-0.01126694052999466
-0.05706577071744195
-0.04985825252503519
-0.02244025388264315
-0.02075492499897222
-0.2378968745128184
0.1269137522721199
-0.2066880512463737
-0.1916019203684625
-0.01177778250213331
-0.01132975332743353
-0.06667552451356547
-0.01036971206569693
-0.4990625394084092
-0.1206781866228476
-0.01937028820487079
6.565769971549289e-05
-0.02382175094808438
-0.2785598882493198
-0.2800579598072917
-0.007174723256007024
-0.01715268128115709
-0.00112692239577007
-0.3511138410314184
-0.0284229014203661
-0.02924069596675851
-0.01256505631038453
-0.01956866477911586
0.04886514873178221
-0.1138058624272139
-0.01435776902289242
-0.0208755530737187
-0.04520110004283861
-0.01830153344861059
-0.01625258422841613
-0.02349998462552526
-0.06798693913085629
-0.01126912417353423
-0.01899365487968496
-0.008711212565052308
-0.0008100003758155022
-0.02944270919168535
-0.001892505929910828
-0.002075644554341471
-0.005736259008969256
-0.0255698130687604
-0.007974916918839586
0.00147119993336228
-0.004284748337824207
0.001413555581882043
0.002497143369288891
-0.009013037557187678
-0.1369199955904354
-0.002946181449179922
-0.001228738206723499
-0.04794793443736136
-0.02156819341027369
-0.02392118666663782
-0.01424190051032038
-0.00621410540275453
-0.02098014458926794
-0.03993705616787822
-0.01446393553441621
-0.01289376204206066
-0.0113236426086785
0.008848871958906743
-0.01001340755956641
-0.01207767095607499
-0.01156509930342751
-0.0104280993189231
-0.01039861458383404
-0.01217289454053425
-0.013786338792621
-0.2989438745971769
0.05895578688551294
-0.0158669955412271
-0.01496781626423795
-0.01276257275005402
-0.01179603684309789
-0.00862276926627748
-0.09661580507291012
0.01306686560216829
-0.01376647619855674
-0.01391843795653635
-0.01056925271008358
-0.05102500130246035
-0.009974516052158672
-0.01352470704737344
-0.01034437794356479
-0.0005303726871825814
-0.01129821069378118
-0.01227873894894351
-0.02441993230260692
-0.01547722320190294
-0.01200397744012821
-0.01358717461781015
-0.007756623286881753
-0.01208517904222439
-0.01162330857045316
-0.05953878107883818
-0.01355379140614639
-0.01147565683560396
-0.009026591260575527
-0.01512838645679631
-0.01365627154002536
-0.01561243679688429
-1.363788616174889
-0.1003351509395166
-0.01309828731706741
0.02663055561514089
-0.1609092400560767
-0.09154532788681964
-0.01219291758404569
-0.01409449258405835
-0.2325112092195995
-0.02832129734530136
-0.0177791447049657
-0.01198315213364495
-0.02011322976155017
-0.01009711523685165
-0.03079950556993844
-0.4081039056331412
-0.01238070001989042
-0.01410048359619143
-0.004582217304588621
-0.01136511470456609
-0.01077902061395875
-0.01399175220134051
-0.006429658226131812
-0.02689392889031774
-0.01180547687318672
-0.1725153094780481
0.01948349165029301
-0.007377761048501106
0.004291075053231167
0.01332944288268019
-0.04865732438939426
0.02776179107874276
-0.01340870302349096
-0.1319718367544291
0.2829335499330493
-0.00763127464650713
-0.01370535220824885
-0.008075273237840108
-0.03264651065293617
-0.1254704479940028
-0.01219780623477561
-0.0120383879547237
-0.01703202538386532
-0.01352048133350795
-0.04155309138530233
-0.219741762600565
-0.009713324869432858
-0.04343336301820076
-0.03876548546783923
-0.1766397274446847
-0.1566940653638081
-0.1369088186083406
-0.2238183501329225
-0.004738328441206651
-0.0208370347160099
-0.01452657936579482
-0.01329452337860791
-0.03361298405080448
-0.02453185573201258
-0.0141370515941238
-0.01486691462466558
-1.068291334017966
-0.00560982131935581
-0.01318318832207857
-0.01822542143087099
-0.02477119972673519
0.0004612803127233013
-0.0149343606022215
-0.02541246906319524
-0.1482124009616731
-0.0136368030502038
-0.02162169831489988
-0.01412733132506462
-0.001639934735894445
-0.1776867524317218
-0.01263074977983975
-0.1492660723420667
-0.01568389051832397
0.002323901699659933
-0.01435673030271428
-0.02394701369247376
-0.01583957688933392
0.005443971191144942
-0.2693452764080635
-0.02635903047999262
-0.01637556714739931
-0.006534963739997511
-0.01042519904769403
-0.02952489419804529
-0.01394606348696335
-0.02081244907665291
-0.02073470531556892
0.01405533898197535
-0.09765803483126018
-0.02137216973462353
0.009439616731696538
-0.05752511416909699
0.1787299324556515
-0.1062528857766093
-0.3150727873643103
-0.03070052678933111
-0.02582309229972258
0.1516368044281983
0.07897013507919254
-0.003793538545102995
0.05102801557954464
-0.01512051428546068
-0.01368682005587107
0.002571242900701049
0.008298933888354228
-0.06486999845677037
-0.005492616277155691
-0.05614466709925585
-0.02268367195629972
-0.01572292595576846
-0.03653342878329963
-0.0329185376791428
-0.006667726046182237
-0.01496704957207487
-0.03674982691734934
0.03446540285902981
-0.0387521541588246
-0.01399769799896936
-0.119396610380754
-0.03134256065387191
-0.03970453127553555
-0.6678454505514767
0.01897949749084684
-0.01025494691176328
-0.005910335360802427
0.169932397813699
-0.09389750837587052
-0.03564836413465425
-0.2418744281932919
-0.01589235937434798
-0.01620735748552726
0.07884637767080306
-0.1795363127563695
-0.2357501397585658
-0.1893442034594113
-0.6761929733721185
0.002971067736993375
-0.01797796879175735
-0.01647368499421581
-0.08829050101039466
0.1187721401796549
-0.02111080963211721
-0.2283009984938666
-0.03596675138844302
-0.006862538538893787
0.281219911404555
-0.01103948877454758
-0.09083110582701753
-0.1529971711784965
-0.003473622561591698
-0.04136925669071457
-0.05246166768455519
-0.1992111939894093
-0.007933625710925974
-0.03984000381621683
-0.002856473839827262
-0.5430590210126112
-0.1924506528323495
-0.179030248925587
-0.02326235501957349
-0.008398231217004355
-0.06194343527087414
-0.05650780613985202
-0.0140450953289575
-0.06942971178894648
0.004991970146159027
-0.01780008138080905
-0.09330977267707848
-0.2758189226253773
-0.00818301895568207
-0.02555244368457775
-0.02150271592460188
-0.07618190736992854
-0.08891608675502279
-0.08962519418508884
-0.01200260701719319
-0.9107276876447572
0.1625092918243769
-0.07984709419150347
-0.2481004063091449
-0.04141720813138494
-0.009785031818704146
-0.2546900577421347
-0.1978362223344732
-0.03081527066037374
-0.1220716672463188
-0.01945813456933171
0.5638377939487509
-0.02490608530684794
-0.2193375462019418
-0.02516942258334302
-0.005112457488079862
-0.0114199741725132
-1.241044149817355
-0.1795139356818203
-0.2264842912235271
0.005208726002559263
-0.03910449426279508
-0.2429490256576417
-0.06696343911749381
-0.05202150952612844
-0.1466580531682432
-0.1793266690053648
-0.06980672508666702
-1.214195835782969
-0.1521067215941212
-0.5375743166455855
0.08006745936552782
-0.005895983229869018
-0.02114814354766469
-0.04456543116301593
-0.03803184819752722
-0.02801815927356967
-0.1284481663325348
0.08167634722046931
-0.002331557800702429
-0.01000302486163356
-0.5665992082352747
-0.8503135769771399
-0.1760889778670997
-0.008075751976293932
-0.131087846990672
0.000599967122284096
-0.0001472522439280905
-0.002457745572975321
-0.06088111243979086
-0.2331465173479667
-0.01326281340085191
-0.1174441814447937
-0.158128931438476
-0.01314316347530817
-0.03461665591565864
0.02815032604186365
-0.05862932217983384
-0.07188351063204494
-0.4937781201590769
-0.2102433270825881
-0.07920864077113381
-0.07551792180972948
-0.01947866893426472
-0.1190803830493791
-0.1589219772670858
-0.07821878383888101
0.02349261838021036
-0.08703459946903459
-0.05027257395760971
-0.01488301601263802
-0.1092561372743379
-0.2799316295139246
-0.05939426803829696
-0.01808854725446796
-0.0004453648055318194
-0.01006252561115218
-0.01070328142569047
-0.2299518063201927
-0.01492446548974012
-0.2162733019655714
-0.0103696290563871
-0.074034337781649
-0.004470196610447228
-0.02327082361221056
-0.3902160867878378
-0.9280531654584416
-0.01129455175851091
-1.037611725129804
-0.6026930409465355
-0.01045311627942603
-0.6656295465911115
-0.1870270684989237
-0.005812178491724448
-0.1257710024186072
-0.01668947448492547
-0.1255861232328659
-0.064809547183537
-0.08192191558864584
-0.00515303907972973
-0.002403221765949352
-1.350565647155804
-0.01153476028826652
-0.1786331317440331
0.0009017464226789656
-1.001412455785617
-1.25083826492508
-0.07819145454096246
0.01594912418896213
0.1646476233653115
-0.004513825891210753
-0.02302047260791264
-0.004216898369766221
-0.2432753676726382
0.3654999431039468
-0.042038690828497
-0.2143634733254854
-0.01502265922057308
-0.6466400960831162
-0.07209552456136038
0.1880826865549604
-0.2979778607250239
-0.05065998773548323
-0.07014895484445749
-0.01583843403926669
-0.02154551716919621
-0.5915501698184219
-0.1508201757370831
-0.09117903392545283
-0.1215260887353508
-0.5483007307368652
-0.0451651976847125
-0.8983292406120855
0.0005839917179976861
-0.2436613209710085
-1.059772376353505
0.1623664037669271
0.2884329134616361
-0.1790236253678616
-0.1878936014555887
-0.2167683229138041
-0.06608259570535843
0.02342337231654918
0.04260356720515505
0.003362196049036256
-0.1610763453733492
0.02638721957120557
-1.37096961827785
-0.08702465840958927
-0.4803205488161136
-0.336450332959048
-0.2149612753448092
-0.1808449609088258
-0.01693246759685583
-0.01542810015828015
-0.1002881154547983
0.175518752946562
0.3840313371699093
-0.1985405728288575
-0.1463826434903658
-0.218086004135744
-0.06352612866449357
-0.156261530471673
-0.1701769762236985
-0.1277213866731634
-0.1186943647482469
0.4626582684735797
-0.2800303372814291
0.4345618531301434
-0.5898530714165163
0.0734862361697004
-0.1919006595496458
-0.06773423550525384
-0.07808997555064835
-0.894338313046926
-0.2131976210283715
-0.1938691873933833
-0.354143245296893
-0.4660491615017326
0.5697162649284653
-0.215953004454281
0.002808539294823415
-0.06717338573243894
0.3465250308795004
-0.03479748215389743
-0.1288356557497747
-0.1826011200602563
-0.06362157299941829
-0.01645130736939171
-0.200805475772496
0.1991318984692154
-0.01286507557963595
-0.09853559625398287
-0.176505432497165
-0.3223938473576131
-0.3076493083384324
-0.07415485785770928
-0.009933396410217806
-0.08294528173356319
-0.6462261493533753
-0.6785340312180522
-0.3285426232394864
-0.05904581123599385
-0.04940991920462771
-0.0246745509318129
-0.07002859127436831
-0.0548870449767115
-0.3670372210440703
-0.9675493797995954
-0.009801006049437136
-0.08518045282226941
-1.149917985233977
-1.045555974669577
-0.1106894943788057
-0.0417788550101502
-0.067775936722173
0.3874801320527936
-0.3383398106395482
-0.04904717650668313
-0.6071633326120716
-0.1295876737941685
-0.2478970930584499
-0.2154140637903775
0.4729091214846605
-0.6379090363982339
0.07801045000546861
-0.02861808967524649
-0.5695171222800592
-0.05445185885879419
-0.3681654906762382
0.1107797724934503
-0.1935711739512226
-0.06131091506956275
-0.1319725891024209
-0.355477044553359
-0.08236835941664045
0.5164218658957896
0.08731057059085122
0.4687495464303424
-0.1052426202985244
-0.2067476779372137
-0.5115023738970113
-0.1358856963632292
0.02419144107350461
-0.05546303956108121
0.09885199504684514
-0.2999717108447168
0.236520580985749
0.004290228086212593
-0.002739929600046845
-0.50631556976855
-0.181200343415777
-0.08650617601749933
0.5815701145351266
0.1398811471772173
0.3414905760438355
0.2252023688163267
-0.5692730460180185
-0.1922064683269212
-0.2258245628438395
-0.2201581425222841
-0.06212966160743532
-0.6857899332595474
-0.1880086923915779
0.3037803165709657
-0.1887117156470511
-0.01147540550906173
-0.1615356214896401
-0.01177601294889629
-0.1656997065091286
-0.445829342481736
-0.07579324615800911
-0.2080382683810165
-0.07285239137146188
-0.09532641267203755
-0.1380797059648305
-0.07197981386572219
-0.4438746983649849
-0.4083812720062268
-0.02284041634463193
-0.07770441181380194
0.3314301257188812
-0.2519697367949815
-0.1753868939542635
0.5232648423074978
-0.1985828962261765
0.02191773190162057
-0.4561173572407761
0.05268417508485831
-0.05945236095876908
-0.1396518498040622
-0.5927433037668629
0.1569845906044233
-0.5731194811583895
-0.5421813702129981
-0.1006987619951941
-0.5147493527893703
-0.03624901132442838
-0.1471276357161216
-0.4168613143975267
-0.01606850397559779
0.288968844711651
0.4901020367568106
-0.1651150250362356
-0.00531041776406624
-0.08813656000283644
0.5249648721989826
-0.03229282713569199
-0.4460461443037057
-0.03195338505957939
0.4624837394982628
-0.01736776809242785
-0.5513070684889005
-0.2474324743963629
0.1788174523093589
-0.3156597050894723
-0.1828694700158023
0.04659196234707254
0.0313123486296042
0.05679965702811592
-0.3045296498651613
-0.1607247053000689
0.4128506171681048
)
;

boundaryField
{
    FrontBack
    {
        type            empty;
    }
    Top
    {
        type            zeroGradient;
    }
    In
    {
        type            zeroGradient;
    }
    Bottom
    {
        type            zeroGradient;
    }
    Out
    {
        type            fixedValue;
        value           uniform 0;
    }
    circle
    {
        type            zeroGradient;
    }
}


// ************************************************************************* //
