/*--------------------------------*- C++ -*----------------------------------*\
| =========                 |                                                 |
| \\      /  F ield         | OpenFOAM: The Open Source CFD Toolbox           |
|  \\    /   O peration     | Version:  2412                                  |
|   \\  /    A nd           | Website:  www.openfoam.com                      |
|    \\/     M anipulation  |                                                 |
\*---------------------------------------------------------------------------*/
FoamFile
{
    version     2.0;
    format      ascii;
    arch        "LSB;label=32;scalar=64";
    class       surfaceScalarField;
    location    "1113.5";
    object      phi;
}
// * * * * * * * * * * * * * * * * * * * * * * * * * * * * * * * * * * * * * //

dimensions      [0 3 -1 0 0 0 0];

oriented        oriented;

internalField   nonuniform List<scalar> 
1171
(
-0.9279179675700759
0.9279179675321149
0.7874432648214199
-1.099255384168284
0.3118121194306067
-0.1897713810123585
-0.7652997135853772
0.9550710946395619
0.07208202413313054
-0.1170886691676852
-0.2124002178489719
0.3294888867726969
-0.7874432617433057
0.06945942400000321
0.7179838377528006
0.8115955355416385
-0.1779947390332444
-0.6336007965276176
0.8741624528208951
-1.044229002976847
0.17006655018692
-0.2854784883844255
-0.09765856484750172
0.3831370535074946
-0.03634564190926894
0.5489988614421057
-0.5126532195963617
-0.5050788970953879
0.8252895212908936
-0.3202106242451762
-0.4025671526016459
1.045909062253225
-0.171746611025257
0.3921900021033113
0.04945347449346457
-0.4416434772160701
1.045934118147546
-2.5056290055476e-05
0.443463719211124
-0.05127371983367258
1.056526796376716
-0.01059268392888336
0.5798175920893842
-0.7695889666741917
-0.724189895929001
0.5566422305409521
0.1675476653378568
0.215773439749688
-0.7208523422584314
0.5502317535830522
-0.922714809557991
0.3724830554110737
-1.094200280524667
0.6865654969824478
0.4076347836374775
-0.5955928432420436
0.5592472071490114
0.01755681786653952
-0.2562049958912197
0.2386481771707112
-0.02278031686963887
-0.5225102349664564
0.5452905520705569
0.4004400890851323
-0.4980986476326006
-0.9189519595990627
0.9416112279896998
-0.02265926839110807
1.067621370532383
-0.01109457693861072
0.934847643152134
-1.116652566105523
0.1818049229125389
1.067067919334872
0.000553445486780143
-0.6644442073433204
-0.05974568988498884
1.262303422453676
-0.8642642655123941
-0.3980391569357171
0.1481159540845493
-0.1097589215531983
-0.3260303715746467
0.4357892933511478
-0.2855523327457682
0.1916388360332092
0.09391349709361094
-0.5836848852954709
-0.5155704997965187
1.014043754856268
-0.07919611240145236
0.00989762473566059
0.8254882158419438
-0.8353858405615467
0.5717880703120058
0.6905153537642239
0.4392399445374188
-0.03064124054613994
0.4310813298163357
-0.8080068571090455
-0.1025096965649977
0.9105165536281291
0.5020743508184903
0.2538772982189758
-0.7559516490606601
0.00700251597052331
0.5279977830456893
-0.535000299239907
-0.489966464301321
-0.6042338210369788
-0.4227572420747965
-0.693895323856186
-0.0271016796598177
0.2704459888053321
-0.2433443085756515
-0.9247143818243684
-0.005071904381147747
0.9297862862296953
0.3087270520861983
0.07441000990763907
0.7617057935289566
0.04988974015563252
-0.533062290142165
-0.06253055001137227
0.04602052279455376
-0.8540273825136724
0.07537927035476941
0.8634417550434289
-0.9388210253998803
-0.3468366188598505
-0.04118208346125249
0.3880187022906396
-0.6820320212603793
-0.2426823591734882
-0.6340587797297488
0.709438047942037
0.6139585267401115
0.2113309896217666
-0.5432944525219664
0.9456382177206973
-0.7789907285768524
-0.1666474891359908
0.01242852927294297
-0.01137615704240344
-0.001052372888569283
-0.4034324370309971
-0.09466620992407029
-0.2408494422331439
0.8548079631091314
0.04763316595239959
0.3349617097794749
-0.3825948754372342
-0.4610412653563875
0.9631156147435848
0.6804308626166133
-0.7829405627941433
0.320282809519285
-0.01676987919347028
-0.3035129308715701
0.9307357325714971
-0.9307357325621666
-0.7812518981268231
0.1107509630870126
-0.3231511761663998
-0.749937334263704
0.7598349592222303
-0.09024661639936564
-0.1434275715444341
0.2336741882899006
0.8649412197030559
-0.03945300328200697
1.054330207813483
-0.8004529131557478
0.1865438597580386
-0.3160641013043755
0.1295202414983739
0.8587415225394526
-0.09703572863667748
-0.6115051692497494
-0.03900254001225963
0.6505077092743753
0.1235024311181077
-0.2306634178840623
0.10716098595558
0.8056263427755489
-0.9836210826336185
-0.4347102961444052
0.3293364921065968
0.1053738037844834
0.5326497874886549
-0.5554301078010504
1.021908558226149
-0.4561894888809987
-0.5657190693521793
0.5991513136757665
-0.7193614838588205
0.06670521900870792
0.6526562651306098
0.1027898721612426
0.5696631521779109
0.05538490397929856
-0.6250480562439336
0.1944206002774746
-0.08366963372661503
-0.4924778235933992
0.1456412026345874
0.05023722950657888
-0.8864968155851601
0.8362595860421561
-0.47305675712047
-0.7132829903624712
0.04883878521545638
0.4372799917910251
-0.006198658447423683
0.299938657736066
-0.8552551887374995
0.5553165308348671
0.4157470092028716
0.5842529907698357
0.5604769510433526
-0.5144564342233401
-0.3679159799131865
0.03812177826700887
0.3297942032497635
0.6813057659155584
0.2494299669922537
-0.5662306024462915
0.573233118574519
0.1112496184553948
0.8750857648297631
0.01016865291193597
-0.6216738229128512
-0.7491084062935608
0.7993456351112199
0.5306606128543794
0.0698330791813698
0.3018633647492421
-0.3716964440329474
-0.1674618915228098
0.4439955218636685
0.08400226608393375
0.8754202110594108
-0.8041811613255898
-0.07123904979963872
0.6352897136799688
0.3103485032682418
-0.4305341168563332
0.5738082525914235
-0.5039751742000892
0.4171534837591837
0.1330782641003981
-0.04674230846268022
-0.5940132579494982
-0.13806696775606
0.7320802257260942
-0.1497794928346422
-0.7809562370959251
-0.6109890297055186
0.3604368314856773
0.2505521989630419
0.6219518434019724
-0.6117831918416929
0.2392422714280175
1.011341171617335
0.04298903682057462
-0.7491084069625892
0.2340825777917879
-0.2216540415806971
0.6804308606067264
0.801751547557455
-0.8017515475271465
0.8376580348698219
-0.8331356935864681
-0.004522341339296933
-0.4453637064918009
0.8611107160906493
-0.147301445154511
-0.345176376362382
0.7347311071301889
-0.6685191358864494
-0.06621197119233134
-0.7350028308710125
0.1409895742503474
0.1389439178713274
-0.6720062078314144
0.7829405697976031
-0.9504024612777632
-0.368684223764735
0.290569343329247
0.07811488093246531
0.145831954840441
-1.010019306713045
0.864187351852815
0.4812410759427131
-0.04200113135082953
-0.3081146166069146
0.5863676255612975
-0.278253009032931
-0.7385700000125314
0.884401956921224
-0.1570388871121731
0.7312287273073772
-0.8429986488627444
0.1117699214639292
0.9760856781585513
-0.53960701765312
-0.4364786604782915
0.755009237502693
-0.06503159024480806
-0.03226841102169908
0.1849884421674562
-0.1527200306524184
-0.7758135407752617
-0.8414014316485187
0.07610172467047431
-0.7499373348449083
0.5136477192554723
-0.5548298014576163
0.09900544058468307
0.7183870411660644
-0.8173924818463064
0.7536307561167895
0.1742872021039149
0.5029210193635328
0.4970789806520003
-0.05118590678035986
-0.6124028558440391
0.6635887624977997
0.8837876402921225
-0.008367432328910636
-0.7550092375121488
0.7993456331936513
0.1914340147250053
-0.4476390137448523
0.01537044172260376
0.003639828400521623
-0.01901027263501526
0.5885319465242576
-0.43763838726543
-0.1508935595085998
0.7179838353688762
0.01029024702865985
-0.1101727033335689
0.4377267733264044
0.150805170420896
-0.01648040452710514
-0.006192903357835187
0.02267330796957227
-0.0309778698737631
-0.001290535615088025
0.2450675102041466
-0.2618374019920724
-0.9587904361557784
0.001321869238465645
-0.1594448029555737
-0.123616717061151
0.09440044633413032
0.7222661683278043
0.7289978040383471
-0.1447448141598332
0.6737645650480298
-0.5747591218587302
-0.211773704621558
0.3983175641381794
0.6955809593255025
0.0224028760539964
0.2417933553088198
-1.07492905266631
-0.9504024635141152
0.3025283879483364
0.7598349592629031
-0.2090827405441362
0.06565516552181341
-0.7235880368559454
0.9111368868804216
-0.1875488500543067
0.4155354042473274
-0.02751669746851525
0.771227994509168
0.2806385093141218
0.375077377719048
0.06838635299536285
-0.6587023876255124
0.6587023876408682
0.2146361214975106
0.6958804275123175
-0.05617509709304596
0.3911368076717095
0.3796141937612357
-0.0154239017727743
0.03079434871290598
0.4485902657997251
0.03265081229201184
-0.7385699992395474
0.5340201879648608
0.2007109161223612
0.3018505721414143
-0.116862136496029
-0.6955809600820151
0.180041652399156
0.7310952352699769
-0.0101557267443862
-0.8136813374676796
0.8238370642293338
0.6963682829130381
-0.7920274465265875
0.09565916359529134
-0.7536307516063636
-0.1499479087888159
0.2114241611831585
-0.06147625177205439
0.07728518872506757
-0.179128600715604
-0.1119990468006316
0.2911276470623221
-0.009365509580874395
-0.007114890324830593
0.70628024332371
-0.7164359632853522
0.8863651833037499
0.06870591750123312
-0.309893126082457
-0.5232284036442781
0.8331215298800106
0.1028582457129496
-0.1028582471271463
0.3286911161977307
0.4786257856964606
0.6081977655000341
-1.0868235512802
-0.1941158852007769
-0.585539805431446
0.7796556906244461
0.01232664984972355
0.2213475316959169
0.3765631339665914
-0.2530607157624221
1.015033898724866
-0.5364081159364541
0.6672591139368206
0.9923367313519379
-0.3841389685380271
0.2292616933392951
0.8844019593611774
0.7126553458365685
0.2138226933789332
0.7277885307260876
-0.7809562367884353
0.3412976069312207
-0.2842498471893886
0.2584467398050019
0.02580310781591131
0.8519170576902101
-0.009629858788222128
-0.8422871990468895
-0.7020626561568093
0.7026160989822152
0.5546362928058866
-0.7020626585174685
-0.7126553458375676
0.7026160959476161
-0.03358082140587388
0.9060645748365941
-0.01969938818314742
-0.6813057748012321
0.6122460412160419
0.06905973358613936
0.5387191925628485
0.5385452523130025
-1.077264444876418
0.4885576854453255
0.5264762125681314
0.5479318812422919
0.4582195759892322
-1.006151457272925
0.4947643022364114
0.4975724282791965
0.6122460475087013
-0.5257029337056024
-0.466564065410805
-0.5558125180839629
-0.5151454484853842
-0.1246116022485701
-0.01276899609018326
0.0127689967450665
0.5095216143365742
0.5243529758807586
-1.039498424456402
0.5729463156689852
-0.2710829491024863
-0.883127223296041
0.3435202063007369
-0.6326893862166681
0.3900070271094349
-0.0002116702833742531
-0.8277995498388
0.8280112201345474
0.4208831922418352
-0.0242378562676387
0.8761549164176023
-0.9439519096844851
-0.8346310531443171
0.05728826436295607
0.7773427888232122
0.5512151142135303
-0.436719983567809
-0.1144951305829033
0.6501025891850294
-0.7292987012851454
0.8849446793431439
-0.827629355541954
-0.05731532366075538
-0.01365250815203652
-0.7905286557742213
-0.1111380000394398
0.7151773588209457
-0.6040393587817903
-0.9410600881410154
0.9274075795682254
-0.7354270981397445
0.6884416381419217
0.04698546000936395
-0.8005572799561811
0.02782181381855563
0.77273546620603
0.06181919472721398
0.04103905396688649
0.4330169217588816
0.05900724531182851
-0.8497123258283672
0.7907050804260373
-0.6450389937441817
0.593853082117115
0.8897396422248773
0.07302764730033456
-0.9627672895920106
0.05510859068620733
-0.05015258195492839
0.3799467780877429
-0.3816634891473923
0.06559938446798631
0.8406685534849999
-0.8408802283639535
-0.7318513571585061
-0.8107676051566188
0.02023894879944895
-0.1684073358927689
-0.8477927991282895
0.02016343691485136
0.6236571741035503
0.05010739240198235
0.01724743281178611
0.5339676705888349
-0.8149861764714375
0.8428079935755803
0.5657190713751491
-0.8520374127531591
-0.8680324399560586
0.03803213751557711
-0.03269201095887279
0.8341722605446719
-0.8014802495663114
-0.01978158926682571
-0.7645433645431969
0.5442924711197028
0.1520758144986802
-0.01918608666836786
0.8953410019613988
0.9846958446165993
0.8608069181964167
-0.8406434853378346
0.1476129634238897
-0.147612964679044
-0.1177033364289907
-0.4657881110571838
0.02906812257211284
0.2713452625849275
0.03118312560016663
0.3853676154141389
0.8755594148898004
0.006493223642565234
-0.01585872180402178
0.6586007412322469
0.3413992587830278
0.7835595285652386
-0.5836848862017433
-0.7780500337461396
-0.8111101023965805
-0.6799568226752518
0.6799568226747654
-0.1681569426426455
-0.1549942277182228
0.601830067491062
-0.8113145129154856
0.2094844454391071
-0.4939879350383042
-0.5688528642683297
0.2780542639812252
-0.9719495885001194
-0.8987752527552203
0.8414599200760376
-0.8195921528086104
0.8398311021553401
0.6484833892361359
0.1344822337885104
-0.7829656230334073
-0.764124641999954
-0.1463305977760987
0.7253618255109914
-0.5790312277385458
0.02321584070005756
-0.01279170680362916
0.01598399320505765
-0.003192285659241148
-0.3527220875367725
-0.1130660218376454
0.8798843336628086
0.7388264647800832
-0.2386462409315247
-0.5001802240852391
0.6243313360263324
0.6856605287421377
-0.471024408109414
-0.0002714779222140829
-0.2852808580210699
0.01399240857415658
0.7471364520817692
-0.7611288605483031
-0.323466197505871
-0.07180587533925864
0.07600932874220211
-0.9667839471275942
0.1244967513675107
-0.6768322759247192
0.05425480626815408
0.6401738379145226
-0.6944286441714794
-0.756543740925112
0.07971146499292864
0.5894830779096307
-0.6612889531882964
0.1563065567348919
-0.3354351606765184
-0.7724411561485172
0.008316514134784462
0.3711442495110761
0.6000866406387078
-0.02627838553718189
0.02160461334864701
-0.02160461436298424
-0.0189618878650819
-0.05240816474624
-0.2318416678924404
0.02147553041079176
-0.01498233236786566
-0.7223337659657215
0.2794014106324991
0.6784620277155069
-0.6900635727567788
0.01160154517311316
-0.5966331700686888
0.65088797357109
0.6544731560592573
-0.0649900787016115
-0.631023332982407
-0.1255204100387582
-1.049800451758241
0.01122997879498921
0.1363829886247267
-0.7083413584148356
-0.7421613356068703
-0.7639599808176143
0.3659208251316405
-0.4066671572577515
0.4671301366068905
-0.06046297923739077
-0.6731635148884567
-0.03517784345584494
0.4996486711165304
0.7306827651498693
-0.2348755923995135
0.1112588763731165
0.9584674355650905
0.4462158324927618
0.132368685995542
-0.5785845185272757
-0.6774072193274843
0.004243706164502602
-0.04448913067436206
0.03169740362170857
0.6375455189575114
-0.7756124873132975
-0.002748427920656225
0.002748427629130519
-0.6000487372349517
0.6496076497639477
-0.04955891252518586
-0.6601597873814027
-0.113857387317816
-0.6718089665407444
0.05419454247879311
0.6093942152749156
-0.1376212718526524
-0.8181395638531691
-0.5658047488960811
0.5721465515289282
-0.006341802189707682
0.6310056230928054
-0.6194040796110404
0.3223408815043566
0.2136603431571639
-0.5360012246676157
-0.1046158167435636
-0.6026676169429711
-0.09176102711985841
-0.153832901853908
-0.5116102148842426
0.4043505309774438
-0.4990167431403221
0.1260048318790647
0.6787529981158328
-0.8047578299892868
0.5991513136717889
-0.3745038822676146
-0.03216328245474921
0.06022644843885939
-0.5718366644127221
0.5514393421882943
-0.04034275231108956
-0.5110965900136756
-0.3127847462654844
0.305431090081161
0.007353657008876505
0.4508020646601396
0.1221442487794086
0.05180553983386084
-0.3162502735132529
0.1572477365657179
0.1590025371036641
0.2528315793659497
-0.01874900950021838
-0.2967134106203734
-0.3130580309292856
0.359063885570845
-0.04600585248561195
0.7917558638155162
-0.6290882277180057
-0.03107155977677822
0.4995015196276545
0.2852220819152267
-0.5238683256177981
0.5774422169469989
-0.5774422169465682
-0.2897880387445965
-0.5865167047388674
-0.2955257123842689
-0.586516704899006
-0.596846461534462
-0.8384782282520838
0.1699590904509394
-0.6000201004362828
0.8212180416757551
-0.003390461328908777
0.1188199777504738
0.4812666638850022
0.0967459745210127
0.1856158195565132
-0.03619720241554706
-0.1494186164591668
-0.02787355657482017
0.5905657559708908
-0.9425817135452556
0.4193533064169856
-0.004629400281302654
0.0001505514388324909
0.004478849048390673
-0.6440213067361492
-0.1321211657605648
-0.4660845510430487
0.5984532389835273
-0.5035642125897979
-0.3154595744329781
-0.2563770761502625
-0.2723298073566703
-0.1116186680067895
0.1116186684806691
0.1535766267364465
0.05784753616470972
0.196845801135545
0.4483811260754946
-0.5696220413158471
0.1035374864345615
0.2538173336546281
0.4662961508243545
0.533703849655336
0.6456586186602734
0.08155563461932124
0.002832379599816318
-0.08438801416450918
-0.2770559011569925
-0.541083662711046
-0.5453554281044013
0.1146391339906148
-0.1265051886062249
0.01186605495350877
-0.1057844333622723
-0.3855191309136448
-0.04902544405136368
0.6584196739030879
-0.4994444398899551
-0.1445768668265957
-0.3268357232298775
0.2864266736880572
0.1280408626831952
-0.609936963088491
-0.2043541560853331
-0.2626700145435418
0.0008326295829990987
-0.4209484016780911
0.3222515889009292
0.09869681293663705
-0.08984672507726153
0.2917000738560594
-0.8959338955160131
-0.4575003898208533
0.6305461130015738
-0.7731534449349368
0.6685376282240477
0.340984220775762
-0.1257077076289734
0.2247184200049413
-0.09901071290008104
0.03148388896591445
-0.5861776814886359
0.02884270805352376
0.5573349732574301
-0.900641855551627
0.5475266813167071
-0.6652300177591286
-0.1011217974824997
0.1091898708260853
-0.1091898727250008
-0.3165217556951795
0.3599371393121737
0.02000963436874323
0.02120776408096456
0.06034784750888211
0.504382228382221
0.6674702503644792
-0.7387093022678237
0.02484758874104507
0.02012423001136766
0.001480370922231576
-0.006339856640520516
0.006339857248625191
-0.4099439981594232
0.532088244009231
0.01561679937139455
-0.01561679929018332
-0.7926264022222953
-0.06007264811298035
0.1218918344797304
-0.4511377850089457
0.5546752682966145
0.4497807563091525
-0.4993396671454237
0.1500672177630705
-0.1500672187644158
0.0436639443002944
-0.0128695856156223
-0.04132246968653357
-0.9763284120153277
0.539849752871575
-0.4704069832416139
0.04103905339834561
0.5150698769370854
0.03050893535298202
-0.5455788124350421
-0.616278589697982
0.1168341496989496
-0.3293527269491863
0.01359349354305304
0.3157592327656767
-0.1544092575811226
-0.0804663497941005
-0.5409235176728707
-0.04525416043227719
0.1363829899603309
-0.04124726517969231
0.03849883479871929
0.0815624416744735
-0.08156243960978188
-0.5293315876354096
0.4833257280507896
-0.4147508035219845
0.1613019158565539
0.622257612739082
-0.09731785572814523
-0.005620611504029206
0.00562061151196625
0.5330013593820501
-0.07596928842017257
0.006331620465097856
0.02719311956663868
0.03469921104041652
0.6893516252942962
-0.7653209137853183
-0.6620300004141368
0.6309584411098771
-0.1104698274671521
0.3136522769272392
0.745623945947862
-0.01896188700134505
-0.2655325713778028
0.1486704469692133
-0.7446215923241623
0.483860217611365
-0.4247844152849269
-0.1012087100656931
0.003368953184624086
-0.01466213579749597
0.02430793291738101
0.4122650082702793
-0.1216273179611582
-0.3894692725050034
0.6290846246278542
0.01910882461452857
0.009106753028943787
-0.009106753129377972
-0.3544942351498728
-0.08095046116120973
-0.5603994839130757
0.5570090224738797
-0.2377067553036522
0.4647403141848545
-0.1505856378546608
0.7304032331110387
0.6702772184146372
-0.04124726598123277
-0.6165458483150265
0.5601045152330633
0.2822502610386491
-0.278245149710222
-0.004005110515132955
0.5411117177129388
0.093440115800124
-0.03875579371669883
0.1966175699756912
-0.1578617759407007
0.1203182367076061
-0.120318234797383
-0.8586409018424188
0.002454250869781001
-0.1131761643832553
0.1403692830881937
-0.1316589276109167
0.1316589283010924
0.02012423573059984
-0.02458251091667124
0.6708136847733087
0.0602815506890973
-0.3228206086333103
-0.06269852210419631
-0.4712952895564081
-0.04458546281938006
-0.1514648693136069
0.1514648703283309
-0.0407240690713483
0.143528731287328
-0.1435287321517211
0.1365778100652082
-0.1365778086212129
-0.3160394142359836
-0.1144947025856933
0.2261883325375491
0.1031481585216348
0.03480383189837261
-0.8212286459694028
-0.1976939263306462
0.1700333080039565
0.02140070031880937
-0.2646418372628871
0.1260743955371374
-0.1260743962965078
-0.4142663902815419
-0.08475035052256678
0.2359842242208266
0.0026639480861228
0.04031517972127631
-0.5444548011801771
0.5780356225984935
-0.02872760427409773
-0.01199646403338869
-0.02529414958083516
0.01242455132780625
0.0065384709307306
-0.1845680389698995
0.17802956802776
-0.1077404046618948
-0.2276947574056755
-0.1445305786154676
0.1445305795103068
0.07254347067711255
-0.07254347024112423
-0.01909030081259212
-0.1086108012540037
0.1277011015352239
0.2351529607795981
-0.183264504848024
-0.02165528591882555
0.02313565065469876
-0.1299205205821566
0.6132462509033516
-0.03907519890534553
0.4247547522062802
-0.04128515155473441
0.0639584436321597
-0.1532784084349794
0.1532784096737224
-0.6363873054038848
0.3083714727868699
-0.07910977996725302
-0.2343222608721498
0.003658838843595725
-0.1221498057817454
0.1624649861249934
0.1942762201872611
0.09685142118048817
0.09511479202187899
-0.06041558097979982
0.07301572141905271
0.04162341339905184
0.06408645661265916
0.1059468544868497
-0.09929576821638821
0.2105546650262059
0.0118551828675147
-0.1142780976318122
-0.101953103535157
0.09668276090270293
0.005270341725850822
0.01101748089560018
-0.02217632920071101
0.03745717033309107
-0.03745717026372781
0.07446776346015621
-0.05520114856232882
0.05520114878366647
-0.2244157525192915
-0.05031965228755586
0.01175616760690908
-0.1031643909754679
0.01625957444467564
0.1086906116203395
-0.1086906121107259
0.292973030746126
-0.2709793977242098
0.1632389890267602
-0.05047483794528299
-0.2205045606866728
-0.0170026412050956
0.01700264092569664
0.3674591798435594
0.2851970774226226
-0.5278131197400256
-0.09393944936089003
-0.03256573752981412
0.528761091549427
0.2098587983937109
-0.1686811487406249
-0.3815527854416935
0.07659644936012021
-0.1473721736045456
0.1869892629519207
-0.03961708908994557
-0.06706721235285824
0.06706721201802963
0.8222203953073211
-0.5603779770704432
-0.002834850325911269
0.0138523314120921
-0.02004025960087153
-0.2871153966453914
-0.01745433922711317
-0.01287164662141011
-0.1320387625592903
-0.5722331184011413
0.5560456413046418
-0.5685837053804379
-0.006934292425037502
0.09911357262701144
-0.001813539612018729
0.0167005997763462
-0.1674124328873941
-0.3363203928068091
0.2331560017186249
-0.05417660855282396
0.03508630677028633
0.1321421399137931
0.1732889498028524
0.3407821529301199
0.2761895830574618
-0.2780031231016749
-0.06345426814993642
-0.1549732550660296
-0.2207287720767189
0.07463113637806899
-0.01054467796890344
0.2137803916825019
-0.1970797922571962
-0.08623036958149548
0.1592460952612791
-0.3549233643588575
0.2083366109884931
-0.19207703655209
0.08966459862560547
-0.4791338684281421
0.1741176200752009
0.1704715391517421
-0.2567019166125751
0.07293845588944496
-0.1946687193832735
0.1772143804644973
0.0173837826235592
0.1418623109882832
-0.03958433910939581
0.0659695619370156
0.4670317977842609
0.0204545278956599
-0.08113580935960402
0.05603726595698672
0.1257071429239554
-0.2603458612739413
-0.2309465825496897
0.5597105932447763
0.1571976929844204
0.07878653262695108
0.07515596481048693
-0.03106520559778169
-0.000578650613265448
-0.00342645671777955
-0.0326194387526479
0.1708421525192504
-0.1777764452895067
-0.05682787853967334
0.02030080443889681
-0.1469643663015466
-0.0528064177408898
0.1537267730822595
0.2770635267848197
-0.04056856466309505
0.01184590382202886
-0.255211463316381
-0.1307859968603837
0.2360709219298469
0.1788447133964376
0.1295267550090531
0.02170334717300077
0.0886258999277921
0.05214100754453656
0.4522412208514403
0.01712553188328014
0.09769937987006373
0.04316411996430219
0.07215007898888244
-0.1153141980098506
-0.2426160401997105
-0.2005480653372882
-0.01995649887401068
-0.2020703392637113
0.2751679570480884
)
;

boundaryField
{
    FrontBack
    {
        type            empty;
    }
    Top
    {
        type            calculated;
        value           uniform 0;
    }
    In
    {
        type            calculated;
        value           uniform -1;
    }
    Bottom
    {
        type            calculated;
        value           uniform 0;
    }
    Out
    {
        type            calculated;
        value           nonuniform List<scalar> 10(1.036489567282896 1.06442212626534 1.022376583491719 1.021240515905604 0.9967648278758269 1.012717876827004 1.033874590594671 1.062840799296552 0.8672302595292891 0.8820424171382789);
    }
    circle
    {
        type            calculated;
        value           uniform 0;
    }
}


// ************************************************************************* //
