/*--------------------------------*- C++ -*----------------------------------*\
| =========                 |                                                 |
| \\      /  F ield         | OpenFOAM: The Open Source CFD Toolbox           |
|  \\    /   O peration     | Version:  2412                                  |
|   \\  /    A nd           | Website:  www.openfoam.com                      |
|    \\/     M anipulation  |                                                 |
\*---------------------------------------------------------------------------*/
FoamFile
{
    version     2.0;
    format      ascii;
    arch        "LSB;label=32;scalar=64";
    class       volScalarField;
    location    "1822.5";
    object      yPlus;
}
// * * * * * * * * * * * * * * * * * * * * * * * * * * * * * * * * * * * * * //

dimensions      [0 0 0 0 0 0 0];

internalField   uniform 0;

boundaryField
{
    FrontBack
    {
        type            empty;
    }
    Top
    {
        type            calculated;
        value           nonuniform List<scalar> 
15
(
142.2893530181103
133.5874568339198
138.0666192686528
144.4084221460388
159.7687450086924
131.367880670142
140.1367656901216
135.3581756556852
153.4539464547389
135.7291897397421
136.0931232678455
136.770301052846
125.2670234855306
132.9134487397044
123.9545480774095
)
;
    }
    In
    {
        type            calculated;
        value           uniform 0;
    }
    Bottom
    {
        type            calculated;
        value           nonuniform List<scalar> 
15
(
155.5668504580906
158.1191400010846
141.0846897056684
142.041721577056
141.1772417100146
148.424903494001
142.6997639502919
143.1470268406544
143.4219025473929
134.0582875376728
125.7255359865056
141.5549054867453
122.4049289018694
123.4864088022611
124.129699936861
)
;
    }
    Out
    {
        type            calculated;
        value           uniform 0;
    }
    circle
    {
        type            calculated;
        value           nonuniform List<scalar> 
32
(
56.11394269649102
22.14093576269575
65.27849780034263
24.53040440215624
19.70995495650962
56.16890396624474
56.67706805172693
23.81735327009071
22.3144945291772
65.51796204652905
39.89193541183093
62.97299114573131
50.52148616253525
16.29570941433708
23.21614770261592
17.92863620225198
39.19772694881438
59.72646503317808
61.00986060684065
24.4324367774801
65.74171518052309
63.81064815939089
63.02678591828609
59.92018503701645
64.10942040608062
45.93891752467808
66.40155226113052
32.03986422640575
38.01194608321977
55.75398154873829
21.00655470011752
43.15963347154904
)
;
    }
}


// ************************************************************************* //
