/*--------------------------------*- C++ -*----------------------------------*\
| =========                 |                                                 |
| \\      /  F ield         | OpenFOAM: The Open Source CFD Toolbox           |
|  \\    /   O peration     | Version:  2412                                  |
|   \\  /    A nd           | Website:  www.openfoam.com                      |
|    \\/     M anipulation  |                                                 |
\*---------------------------------------------------------------------------*/
FoamFile
{
    version     2.0;
    format      ascii;
    arch        "LSB;label=32;scalar=64";
    class       volScalarField;
    location    "829.5";
    object      yPlus;
}
// * * * * * * * * * * * * * * * * * * * * * * * * * * * * * * * * * * * * * //

dimensions      [0 0 0 0 0 0 0];

internalField   uniform 0;

boundaryField
{
    FrontBack
    {
        type            empty;
    }
    Top
    {
        type            calculated;
        value           nonuniform List<scalar> 
15
(
142.2713490970417
133.5574173618231
138.0668931904848
144.3921276152577
159.765565817523
131.3677286375452
140.1141683703995
135.3490118281163
153.4326976044834
135.7433331030254
136.0870959415262
136.7768022574937
125.2383207944189
132.9007182971826
123.9479873185787
)
;
    }
    In
    {
        type            calculated;
        value           uniform 0;
    }
    Bottom
    {
        type            calculated;
        value           nonuniform List<scalar> 
15
(
155.5660064875998
158.1112908652627
141.1005867992917
142.0787603716057
141.1873566757148
148.4546803018073
142.7113318758244
143.1703110844208
143.4233488774553
134.0609619085694
125.7373124240279
141.5573746203342
122.4130816947358
123.4915856198962
124.1444628618417
)
;
    }
    Out
    {
        type            calculated;
        value           uniform 0;
    }
    circle
    {
        type            calculated;
        value           nonuniform List<scalar> 
32
(
56.3151778314036
21.89827799750671
65.28083464706653
24.61393675704012
19.47578239539323
56.23495179214699
56.77247327692524
24.17390325349238
22.21950198528022
65.49883691417459
40.14710231730644
63.01057475067953
50.3779672894477
14.41687093577758
23.33884383651344
19.42351529273839
38.95914948535955
59.6546663729972
61.05817137352335
25.93545948280333
65.76327248820152
63.77682869404256
63.00200814091043
59.87333258827524
64.14381195495172
46.03142559622198
66.40645337403876
32.17834495412129
37.92008576769528
55.69374821554178
21.2913553221277
43.09013056960735
)
;
    }
}


// ************************************************************************* //
