/*--------------------------------*- C++ -*----------------------------------*\
| =========                 |                                                 |
| \\      /  F ield         | OpenFOAM: The Open Source CFD Toolbox           |
|  \\    /   O peration     | Version:  2412                                  |
|   \\  /    A nd           | Website:  www.openfoam.com                      |
|    \\/     M anipulation  |                                                 |
\*---------------------------------------------------------------------------*/
FoamFile
{
    version     2.0;
    format      ascii;
    arch        "LSB;label=32;scalar=64";
    class       volScalarField;
    location    "1136.5";
    object      p;
}
// * * * * * * * * * * * * * * * * * * * * * * * * * * * * * * * * * * * * * //

dimensions      [0 2 -2 0 0 0 0];

internalField   nonuniform List<scalar> 
808
(
-0.03300954412503397
0.04369545527710242
-0.01103739621230838
0.03796251391871039
-0.2950330183470813
-0.05583832991256847
-0.01578330503884195
-0.02413053010987807
-0.1939841102229951
-0.08244912934051045
-0.01076536536228027
-0.2506854785740241
-0.03071397233579145
-0.01422107751283187
-0.122719466303792
-0.01425585079200769
-0.1389738358032558
-0.01377798242204361
-0.0127737502246165
-0.05449913898531655
-0.008097904020558235
0.1164959335146519
-0.06367380518118257
-0.07024900233808108
0.174195233246341
-0.1006730050746906
-0.1500307614610884
-0.02048791312141549
-0.01762152002094026
-0.0255282345478684
-0.02040900682036495
-0.05722355009530113
-0.02271452210573388
-0.01694430947653531
-0.09811403761951826
0.3450107172036596
-0.04011533939623857
-0.01636225624251699
-0.02238532931192531
-0.0264682580272146
-0.08890787440872919
-0.1246026374021147
-0.05302218964772965
-0.02152314969282424
-0.0545737906522215
-0.04275702624826448
-0.01184705518298781
-0.1817136945055517
-0.02641085612023534
-0.2011754196101947
-0.01734472570411394
-0.06578917514293028
-0.06199674783419075
-0.01468548647510885
-0.1962552837349823
-0.02763251691037977
-0.01072373239103892
-0.01473558443554467
-0.09859257797290001
-0.03886626520932104
-0.1119226583027114
-0.12378242207887
-0.01461156390074585
-0.1273341097507985
-0.01765159186448109
-0.05279674329052339
-0.1616519590781149
-0.03535169040998922
-0.01541045836094801
-0.4356566312779597
-0.0260229390607948
-0.2967713091145696
-0.02123791417140653
-0.02123047722763431
-0.06261769327872993
-0.01825055134111186
-0.04157696410219011
-0.3668958474943584
-0.03667678830361474
0.03845448182493604
-0.09248831097941965
-0.01670324788809834
0.05732056699225479
0.04622868892345071
-0.01760457946416473
-0.05120061142450542
-0.5359227484143945
-0.2295346123764637
-0.05100761235648112
-0.1138817526443482
-0.05531439838380218
-0.1305633380262477
0.03800289552403359
-0.02686669520149257
-0.06311375161523076
-0.1193865276114174
-0.03818395992009932
-0.05211837443026092
-0.1143422753476687
-0.1378437793632043
-0.05325314320189856
-0.04631497671578726
-0.0532637305367164
-0.04384174632137398
-0.05672609873821163
-0.07586017596887348
-0.03966747016636937
-0.01063480214835438
-0.03943442729300577
-0.1216804016561812
-0.04946747727204543
0.0810099369310706
-0.04161036924735113
-0.007669482395806676
-0.02749866170235425
0.1810369728406708
-0.03780419687952461
-0.2643569481517896
-0.02084517008803567
-0.05236527899125951
-0.0433612930687096
-0.0498073651528324
0.01434182801943774
-0.04738917824064336
-0.03703295282469449
-0.2206017866353967
-0.03970063144437743
-0.004229146570333137
-0.07425882990236855
-0.07010345069881953
-0.1493284149449768
-0.02129721905613621
-0.07397589196302642
-0.0445778900075656
-0.02312032523972223
-0.01468393791063606
-0.005991837247591241
-0.007581149913682187
-0.0516106161265
-0.04861751356540849
-0.2162169370745705
-0.05513955231355713
-0.008113756960971663
-0.02169777284428499
-0.1497433826456446
-0.002259839418590867
-0.07494363133607976
-0.02064218541413937
1.842646707444129e-06
-0.01045611707442117
-0.03267475061446268
0.09285653110559858
-0.0376441457260538
0.2513581726425929
-0.26096569273181
-0.1344742438007731
-0.03816863289907028
-0.09086785906545297
-0.009109286269310353
-0.1152513940903718
-0.1662222820070959
-0.2162410130680644
-0.176811704316078
0.05724485973531736
-0.06419300567773428
-0.02065759915871069
-0.0658764843583917
-0.1698119535544557
-0.0228663624583837
-0.01870796083378799
-0.05071699850616195
-0.02113285771176683
-0.007723075382615467
-0.1055133812464956
-0.02370833243153198
-0.04379099647774812
-0.07142552130382447
-0.1587948737592687
-0.03292422087516635
-0.3826763516460634
-0.017928554831514
-0.2285587824468866
-0.04317097143749399
0.03336453770115779
-0.1063709453081181
-0.01695350237080856
-0.04361807307859129
-0.1039899948592344
-0.01788830100891434
-0.09473501695482099
-0.2039034242268911
-0.07077767335724965
-0.0242390138032069
-0.04668999184652668
-0.04169538656558443
-0.2014781404683588
-0.02250394563003416
-0.01939130950136884
-0.01124567828390816
-0.0578395701891672
-0.04939862317896519
-0.0226892374013746
-0.0205679235059896
-0.2319806267139757
0.1266985044163806
-0.2083441326553332
-0.1870821607969237
-0.01171249189046222
-0.01121989022551045
-0.06629337365580709
-0.01041052130306278
-0.489869525969114
-0.1261220831932226
-0.01973778146849732
-0.0005029004646878375
-0.02357070439926383
-0.2757932626091749
-0.2807500731816155
-0.00754557130187289
-0.0176562122185553
-0.001638018038757593
-0.3519168171502203
-0.02863053535674408
-0.02942427881489221
-0.0126917583071831
-0.01938527536020222
0.04819449426384609
-0.12539656120656
-0.01432086442233793
-0.02096747260003097
-0.04586821420291336
-0.01842565090912243
-0.01643906758772171
-0.02355897914495772
-0.0682208637638823
-0.01093907404080655
-0.01888889227335693
-0.008994011887323565
-0.001314160388857631
-0.02929360654575913
-0.002153951119534833
-0.001928131693774583
-0.005661057849155927
-0.02548563409901752
-0.008095743810550395
0.001601206614887653
-0.00416027212224133
0.00133127475383588
0.002326683616070776
-0.008931134348666414
-0.1286944281792861
-0.002904562577316929
-0.000205102750277027
-0.04720994057978434
-0.02140877362317668
-0.02350403867732793
-0.01402353254254048
-0.006234412976392491
-0.02116751602782327
-0.04059782950009595
-0.0151965920612604
-0.01267254888110091
-0.01143209167511871
0.006912254191367227
-0.009595149331536832
-0.01312235194796653
-0.01145915624817768
-0.01001804495502325
-0.01023713152138269
-0.01128322067328692
-0.01350615535786355
-0.2896826328842376
0.05851317944743306
-0.01536140339111787
-0.01510206000682126
-0.01235128182540074
-0.01221098444973438
-0.008236629055791929
-0.09881063833683977
0.01321816555124082
-0.01433537206043571
-0.01364982940482712
-0.01053491343954228
-0.05056080538839315
-0.008266418919508106
-0.0137782475643516
-0.0101156945415225
-0.002197757439323088
-0.01164810967883762
-0.01122813354278439
-0.02416415770298572
-0.01543152614764182
-0.01242717385186585
-0.01349970744287202
-0.009649594753686963
-0.0128173859326889
-0.01091588908567869
-0.06028734244592598
-0.01354881467426951
-0.01224699354242214
-0.009241346296554301
-0.01544133514973529
-0.01395812548049167
-0.01565829979611824
-1.363851931237383
-0.1009732465739442
-0.01187113219972844
0.02504966894077595
-0.1606703586369143
-0.09311564096516226
-0.01231643053781032
-0.01423285449036839
-0.2349817664255604
-0.02785892957307732
-0.01734540883895342
-0.01251442256644865
-0.02059594124817901
-0.01049752033991014
-0.03081815444577739
-0.4067568498261612
-0.01205077157336541
-0.0140794072615641
-0.004369980713983688
-0.01096296650514655
-0.009808277486293916
-0.01380027879355975
-0.00739553502710143
-0.02750251207713255
-0.01184151703020773
-0.1735939641469446
0.02067024812023612
-0.007282502549428803
0.004106234543986217
0.01188211390341897
-0.04928163649922965
0.02717526721687551
-0.01303339438142823
-0.1321865524486005
0.2829870687325948
-0.008244582747846212
-0.01363468011440109
-0.00787852270659186
-0.0331619215123438
-0.1264366702822212
-0.01298537185050833
-0.01188391180578978
-0.0176427304950762
-0.01349527469286303
-0.04179530029714005
-0.2212686716104785
-0.009005592737593056
-0.04412982094486968
-0.03813461755291767
-0.1815310467899973
-0.1500136076971628
-0.1534081225281576
-0.2302962900393031
-0.002584873872054781
-0.02059721951467148
-0.01552853111166106
-0.01406021050172556
-0.03389948703915635
-0.02453571356029126
-0.01390369356440633
-0.01488755057486395
-1.066741555713487
-0.003099863766815794
-0.01328489814781771
-0.0179537072062204
-0.02097573164011656
0.004875910552136905
-0.01446066204872207
-0.02494499707955899
-0.1527552782497652
-0.01359335817199318
-0.02083539239116453
-0.01468175941686181
0.0003002553010903465
-0.1780813987841733
-0.0124563661995235
-0.1583586218902734
-0.01535506244606818
0.004682934668715685
-0.01390895010742415
-0.02442365130476013
-0.01642097296998772
0.007402595839655232
-0.2643038751374795
-0.02690030143303097
-0.01697522354576015
-0.01652943453423774
-0.01116761028387844
-0.02910075750523507
-0.01363818806658445
-0.02125183401292351
-0.02035313202126789
0.009097578912466714
-0.09697431122613062
-0.02100495205173761
0.009672395499244113
-0.05871943794330694
0.1832199140081421
-0.1072035401541164
-0.3152407256183363
-0.0294251722539189
-0.02600421853793719
0.1516152987404611
0.09224774975148112
-0.003880653820495258
0.05388577102422606
-0.01504368742760403
-0.01310569203300205
0.002790038229959534
0.007190212313165857
-0.06438159105604063
-0.004395710001010864
-0.05560765670639864
-0.02338074155420494
-0.01568064916813694
-0.03650708771566882
-0.0329354143731197
-0.006700773852732012
-0.01453626284295089
-0.03626337127483974
0.03021466938652494
-0.03860080295070011
-0.01394253172784232
-0.1203960994787148
-0.03071639485627938
-0.04026322554569408
-0.6666964143747103
0.01378186675685935
-0.01051234949370837
-0.005761075372935119
0.1875573670513397
-0.1038196137091636
-0.03613000506820201
-0.2409233600276683
-0.01505846644378429
-0.01596631931940038
0.08082050163159554
-0.1793949269239954
-0.2323711931986798
-0.1840271727369876
-0.6741746181202685
0.01032836861623922
-0.01777291680599309
-0.01517815232985311
-0.09770868755952622
0.1188911609767863
-0.02190443388313028
-0.2376618165059342
-0.0365332240906252
-0.007062948348419178
0.2799539412840009
-0.01074379595544286
-0.09026429494134237
-0.1539249970248374
-0.004288551858314589
-0.04192080728669181
-0.0473940336472004
-0.1942263530499869
-0.007729947317041578
-0.03935169668274684
-0.003815328287918591
-0.5422712743811755
-0.1924832790979126
-0.1796506421895775
-0.02375038746774161
-0.00937635537214543
-0.06260585814475453
-0.05602427605352232
-0.01572465706046918
-0.07010357759191101
0.005007956226741196
-0.01744371008731846
-0.0945611635037968
-0.2789360178136369
-0.009914134945186835
-0.02464281606100007
-0.02114858374377702
-0.07692121490064206
-0.08844838837135537
-0.09029387374213738
-0.01133750657923355
-0.9045453901168934
0.1625058823539205
-0.08285249373197225
-0.2496622814182274
-0.04103915458667624
-0.009020303842163622
-0.2488396368736565
-0.1988601340472658
-0.03034391116075482
-0.1131887064241174
-0.01798404502195317
0.5630783613840282
-0.02544735950718731
-0.2113343430400439
-0.02479698990580074
-0.003758827615026476
-0.01079142850211698
-1.242821765975907
-0.1804721208990668
-0.2255263548886815
0.005214332884838083
-0.03989486063279938
-0.2327339943949142
-0.06755852883929273
-0.05248354139327314
-0.1471416560366759
-0.1794625716027214
-0.07053909423596284
-1.211415872331055
-0.1618621722949992
-0.5453061868519118
0.08020139172276051
-0.006043306893133004
-0.02078923373639122
-0.04523462656785144
-0.03754444248001703
-0.0274599853979353
-0.1288593647077089
0.08187141925400496
-0.004183914750058591
-0.00992674873158503
-0.5592735949012493
-0.8460326418244815
-0.1731330081072054
-0.007544172274898982
-0.1216412920508359
0.0004879396810682643
-0.0004167508241544184
-0.002963612375505444
-0.06194868078032151
-0.2320230262783186
-0.01329326885313622
-0.1090951572729421
-0.1571355381461821
-0.01307413287787061
-0.03411443077973614
0.03014551867084232
-0.05921381212657923
-0.0726723188031629
-0.4904436103711151
-0.2220381977508169
-0.07931030405213391
-0.07631512545582848
-0.01918102499905723
-0.1100173405103193
-0.1672410005654374
-0.08278771589312789
0.02693584462374259
-0.08795121960057201
-0.05099245956999863
-0.01493583929786109
-0.1158532229902705
-0.2831318699708061
-0.06018791891311381
-0.01789561740355184
0.001371084322205563
-0.01022758530456509
-0.01042269193421425
-0.2395875131388947
-0.01396447637747555
-0.2153845780566032
-0.01078045231832842
-0.07387052267685565
-0.004158131106339093
-0.02327513613921526
-0.3952399528066188
-0.9326115266143337
-0.01122351550952104
-1.037904150907381
-0.5987790710846583
-0.01055609775318394
-0.6621277119014654
-0.1890384348175465
-0.004933112101700188
-0.1221331223397299
-0.01703817753330566
-0.126376874518417
-0.06427250946731156
-0.0790951123168722
-0.005584378026111787
-0.003478810927448789
-1.348121651793399
-0.01146302973500632
-0.1863387418479667
0.001124501154240069
-1.004304230301145
-1.252351316618116
-0.07756535510324061
0.01570728268971919
0.1646832065531167
-0.004860491773378938
-0.0229452281488414
-0.004360486090303413
-0.2367078447557744
0.3653719170812603
-0.04260659076108394
-0.2153346106069355
-0.01529853166678485
-0.6500462855187016
-0.07149733944631317
0.188307637702065
-0.3064912226335625
-0.05115917988233365
-0.07081096405657326
-0.0157976242682426
-0.0213393584409451
-0.5974559916493081
-0.1552453215563014
-0.09656493209243996
-0.1169343820491655
-0.5486974799760529
-0.04575034515574328
-0.899915576910441
-0.0005298642203031902
-0.2455962338479862
-1.056581183631794
0.1651982665632273
0.2892703413256567
-0.1702749984484345
-0.1879744691268166
-0.2158112365113671
-0.06567909958315114
0.0256885281169277
0.04504549667052098
0.004860034899930587
-0.1517408081045911
0.02631305521518771
-1.370207745357919
-0.08780734603105932
-0.4811965726590042
-0.3361455022145974
-0.2219935227282742
-0.1816553561838241
-0.01698255854205496
-0.01535017757398959
-0.09174793773768666
0.1742978566350936
0.3842257852672573
-0.2056875561337707
-0.1571787573864627
-0.2203905462361037
-0.06402424250411332
-0.1643014472580232
-0.1741503513786476
-0.1284149751819229
-0.1092926207824008
0.4641895698760808
-0.285482070318643
0.4329705185904783
-0.5869801839560272
0.07366120795614325
-0.1866043796038334
-0.06842578398145274
-0.07854644917627077
-0.8974992617909141
-0.2163106012602177
-0.193772642995909
-0.3568963387853005
-0.4685717157662486
0.5695383763473004
-0.2152181994194552
0.00324962544333859
-0.06671926704288134
0.3455711774984181
-0.03428332023509436
-0.1196110386050449
-0.1827924890666358
-0.06464409981681972
-0.01631142346025297
-0.1999882589207516
0.1967549241023565
-0.01260046249433957
-0.09944993494621662
-0.1777181757887458
-0.3198364308804769
-0.3065843778255422
-0.08467332757184187
-0.009576373365297323
-0.08042115132901284
-0.6485781697333661
-0.6760879239068887
-0.322859671427424
-0.05967312824733383
-0.0489130513232097
-0.02420266028216567
-0.07084732659676217
-0.05426543342545495
-0.370449810843673
-0.9656376044466637
-0.008598218405890343
-0.0860295119550931
-1.148924479694935
-1.046455518938335
-0.1095886066336293
-0.04238611938922075
-0.06730776161754033
0.3883640778537207
-0.3380281945342387
-0.05114845158980073
-0.6076292783007448
-0.1387666570446982
-0.2471128125719272
-0.2153099075246115
0.4731260224806351
-0.6394780621657327
0.07698279639868476
-0.02818199708769995
-0.5726744180170452
-0.05516474661195547
-0.3671974724843709
0.1102119586325375
-0.1947071994875848
-0.06197552111295015
-0.1240927093848113
-0.3564201295380893
-0.08362205776326698
0.5154666051971256
0.08746937169240551
0.4693364706280518
-0.1235159013712127
-0.2085098896070067
-0.5068166384828188
-0.1354801678345569
0.02364700455318228
-0.0561634820825518
0.09919296210019365
-0.3025484761943574
0.2364852749864776
0.004395310833719449
-0.002545398696975511
-0.5060976173466419
-0.1805153301791021
-0.1009395604949244
0.5811549723809954
0.1399739030520676
0.3432763614717497
0.2250159938800488
-0.5687141940149226
-0.2051621595674765
-0.2208554502944232
-0.2259601817969707
-0.0628333448600463
-0.6853707763608392
-0.1889116384726743
0.3040440375274595
-0.1995700291826267
-0.01126107225402982
-0.1602999369158276
-0.01241372112849211
-0.1722424296381435
-0.449678158666377
-0.07635104287020342
-0.208364336139998
-0.07754346136449283
-0.1103325954973054
-0.1304348241301616
-0.07228193557262166
-0.43793468818605
-0.4088573026569395
-0.02326937398234599
-0.07840627590927696
0.329625984017974
-0.2537187162434412
-0.1698482159047364
0.52396292139023
-0.1918790303960649
0.0216511329758708
-0.4574378843751907
0.05041501700518989
-0.05888978326680549
-0.1526237675022737
-0.5949044628679037
0.1581921824223861
-0.5731187439682139
-0.5432409975402761
-0.1011724977570562
-0.5148646272087869
-0.03578172243160717
-0.1572305164756285
-0.4162452566215163
-0.01602072568291501
0.2884373709730287
0.4898868592833717
-0.1688995482346432
-0.004953604900261749
-0.0833978462010031
0.5249693805273432
-0.03182682566682237
-0.4480712163374843
-0.03143837769482741
0.4617569828718113
-0.01801353499325638
-0.552978065583666
-0.2404273573473565
0.178453586710268
-0.3172143546781481
-0.1836021002735503
0.04749354070131866
0.03070494286982078
0.05706247392063257
-0.3063400081831795
-0.1598634017120645
0.4128191929811501
)
;

boundaryField
{
    FrontBack
    {
        type            empty;
    }
    Top
    {
        type            zeroGradient;
    }
    In
    {
        type            zeroGradient;
    }
    Bottom
    {
        type            zeroGradient;
    }
    Out
    {
        type            fixedValue;
        value           uniform 0;
    }
    circle
    {
        type            zeroGradient;
    }
}


// ************************************************************************* //
