/*--------------------------------*- C++ -*----------------------------------*\
| =========                 |                                                 |
| \\      /  F ield         | OpenFOAM: The Open Source CFD Toolbox           |
|  \\    /   O peration     | Version:  2412                                  |
|   \\  /    A nd           | Website:  www.openfoam.com                      |
|    \\/     M anipulation  |                                                 |
\*---------------------------------------------------------------------------*/
FoamFile
{
    version     2.0;
    format      ascii;
    arch        "LSB;label=32;scalar=64";
    class       volScalarField;
    location    "2.6";
    object      p;
}
// * * * * * * * * * * * * * * * * * * * * * * * * * * * * * * * * * * * * * //

dimensions      [0 2 -2 0 0 0 0];

internalField   nonuniform List<scalar> 
808
(
0.127152
0.0220736
0.0155591
0.11534
-0.27673
0.0322247
0.0353546
0.0247335
-0.147716
-0.0124577
0.0411485
-0.174331
0.0296123
0.0181779
-0.310892
0.0279831
-0.313488
0.0229204
0.0182974
0.0378598
0.0405596
0.334392
0.0681163
0.0176853
0.413034
-0.107896
-0.06926
0.00481931
0.0129997
0.0174778
0.0150185
0.0246579
0.0163603
0.00347542
-0.0654921
0.573115
0.0218868
0.0104936
0.0324707
0.0173311
-0.0348441
-0.0604561
0.0354837
0.0350976
-0.0118785
0.0796942
0.0203859
-0.0210332
0.0313589
-0.181535
0.0412667
0.0185176
0.0592264
0.000588259
-0.117178
0.0341428
0.00416299
0.0359094
-0.0150691
0.0517535
0.0073861
-0.0127046
0.0359815
-0.156677
0.0398809
0.0410125
-0.305472
0.0130159
0.0401562
-0.335103
0.0245446
-0.385443
0.039306
0.0231928
0.133618
0.0448823
0.0225465
-0.143241
0.0418733
0.250139
-0.0705718
0.0241646
0.0154222
0.232593
0.0463342
0.0119284
-0.429071
-0.150207
0.0483374
-0.164578
0.0293247
-0.098178
0.20717
0.126162
0.0167587
-0.236041
0.0180863
-0.0110885
-0.0959965
-0.223963
0.0371539
0.0320479
0.056259
0.0174951
-0.0133274
0.0389052
-0.00116148
0.00551529
0.0562662
-0.00161375
0.00498495
0.289796
0.0526608
0.0374562
0.0167028
0.40896
0.0437638
-0.319708
0.0300224
0.0569442
0.131771
0.0560571
0.038306
0.0404655
0.0878923
-0.0947012
0.0960717
0.0419076
0.0220522
0.0418104
-0.383313
0.0340128
-0.0236035
0.0714455
0.0213823
0.0457004
0.0359639
0.00470139
0.0360089
0.0298214
-0.478256
0.0264326
0.0289398
0.0309191
-0.0598757
0.0430541
0.108995
0.118221
0.0596088
0.00500387
0.0303113
0.297758
0.0211025
0.491596
-0.422838
-0.104119
0.0321788
-0.110601
0.0328735
-0.102563
-0.391909
-0.461074
-0.381071
0.0270424
0.041015
0.0217879
0.0126973
-0.422828
0.032577
0.0381391
0.0523528
0.121621
0.0440142
0.0646562
0.0303895
0.0706628
0.0511593
-0.154191
0.0370624
-0.422485
0.0269794
-0.183102
0.0322619
0.218677
-0.202664
0.0862263
0.0413642
-0.108757
0.0285199
-0.0775742
-0.417697
-0.0269538
0.025143
0.0861205
0.0268363
-0.454685
0.0303237
0.0318132
0.0168601
0.0639098
0.043047
0.0319674
0.00604687
-0.403474
0.331828
-0.38323
-0.390594
0.00163858
0.0146706
0.0285064
0.00525127
-0.481721
-0.300523
0.0308849
1.82145e-06
0.0256481
-0.405257
-0.105374
0.00636347
0.0317839
0.000151325
-0.153336
0.0209865
0.028403
0.0137428
0.00983481
0.098521
-0.274483
0.0342125
0.0211344
0.10294
0.0266389
0.0263232
0.0200464
-0.0275019
0.0136387
-0.00842219
0.000573124
0.00426831
0.0292215
-0.00620408
-0.0024529
0.00767246
0.00967927
0.00663291
0.00493357
0.00783536
-0.00264942
-0.000266501
0.0435781
-0.394965
0.0129741
0.00131137
0.0011322
0.00149302
0.0381661
0.0206444
0.00153848
0.0311433
0.103817
0.0315488
0.0021446
0.00313294
0.0588605
0.0223668
-0.00306156
0.00164033
0.0420163
0.00539651
0.0212152
0.0240873
-0.483861
0.236924
0.00934352
0.0398148
0.0170841
0.0216569
0.00245643
-0.153943
0.22997
0.0221596
0.0225274
0.00785657
0.086878
0.0352454
0.0175512
0.0358701
0.0538863
0.0216183
0.0304101
0.0347696
0.0290368
0.0175023
0.017552
0.0261565
0.0237011
0.0280108
0.054515
0.0246364
0.0167051
0.00491215
0.0112874
0.0187191
0.00412291
-0.57858
-0.0710487
0.0252592
0.0672501
-0.177596
-0.126137
0.029163
0.021928
-0.413493
0.112061
0.107818
0.0244401
0.0271119
0.0341578
0.00993556
-0.270471
0.0295523
-0.000261544
0.0197362
0.0101286
0.0181503
0.0371896
0.0300244
0.0318371
0.017566
-0.358467
0.0744483
0.0345309
0.0597453
0.0571247
0.0254992
0.184254
0.0215015
-0.146724
0.499027
0.0413049
-0.0020195
0.022773
0.0279339
-0.066012
0.0221253
0.0323862
0.0443922
0.0282297
0.0135091
-0.33281
0.0309487
0.0695333
0.019388
-0.35143
-0.386547
-0.374157
-0.43583
0.0335542
0.0317583
0.0359518
0.045096
0.02242
0.0083543
0.0328941
-0.00641761
-0.574877
0.0368526
0.0373888
0.0221935
0.0325208
0.0396873
0.00621152
0.101413
-0.462613
0.0343695
0.0377965
0.0282773
0.0456731
-0.361623
0.0389575
-0.446494
0.0426297
0.0555154
0.0257235
0.0348036
0.0402846
0.0908279
-0.423608
0.0330212
0.0409864
0.0914556
0.049441
0.0327935
0.0350062
0.0372597
0.0429778
0.0829042
0.0230747
0.0328366
0.0135737
-0.0326595
0.148563
0.0109567
-0.0518911
0.0299039
0.0326561
0.382394
0.0885967
0.0052012
0.10543
0.0375874
0.0327045
0.0451366
0.0579992
0.0154725
0.0545763
-0.00141066
0.0316956
0.00189222
-0.00403887
-0.00573445
0.0127076
0.0232249
0.097853
0.0672258
0.0142578
0.00564438
-0.0256159
0.0282557
0.0454742
-0.431662
0.0724686
0.0416608
0.00453625
0.15873
-0.140287
0.0260222
-0.115723
0.0435565
0.0366686
0.0808694
-0.262859
0.168015
-0.393756
-0.522194
0.0991667
0.0817683
0.0467537
-0.139477
0.313934
0.0450654
-0.413527
0.0311385
0.0462595
0.523798
0.00923486
0.00175999
0.0135519
0.062842
0.0254996
0.0983441
-0.427107
0.0459017
0.0862879
0.0482159
-0.30777
-0.39888
-0.258892
0.0302312
0.0509239
0.0857058
0.0191683
0.0483145
0.0585723
0.0704488
0.0334523
-0.106988
-0.446692
0.0498088
0.0413781
0.0320395
0.00726122
0.0730207
-0.0360037
0.00978272
-0.548741
0.411234
-0.116975
-0.389747
0.0183174
0.00257026
-0.388813
-0.367914
0.105101
-0.412785
0.03934
0.79586
0.0315779
-0.429285
0.0383042
0.0569948
0.0400011
-0.515173
-0.367131
-0.379674
0.00530714
0.0220832
-0.438902
0.00348844
0.0168955
0.0395006
-0.43197
0.0214855
-0.578411
-0.461641
-0.534196
0.112072
0.00404624
0.0356335
0.0988491
0.100156
0.0303642
-0.338908
0.260219
0.0515219
0.00692865
-0.522349
-0.577976
-0.420571
0.0432696
-0.425757
0.0510134
0.0530702
0.057291
-0.0336195
-0.266276
0.00254637
-0.3637
-0.439206
-0.00611428
0.0312188
0.0519064
0.0141201
0.0214337
-0.45368
-0.451646
-0.0548429
0.0603188
0.0345431
-0.407644
-0.428356
-0.147443
0.0729247
0.0167102
0.0805038
-0.00150451
-0.25191
-0.432224
0.0636805
0.040335
0.0602671
0.0301807
0.0339753
-0.469161
0.0244508
-0.312775
0.028385
-0.0862492
0.0493543
0.0189594
-0.514221
-0.609777
0.00029582
-0.531398
-0.541028
0.0281654
-0.141636
-0.390246
0.0112823
-0.344376
0.0313969
0.0377207
0.0457541
-0.026204
0.0466467
0.0489627
-0.566253
0.0117724
-0.382451
0.0333407
-0.359154
-0.654736
0.0638582
0.217865
0.412404
0.0110284
0.0125797
0.00776197
-0.421216
0.593416
0.0432146
-0.256371
0.0227147
-0.103111
0.0725802
0.433883
-0.519929
0.00133979
-0.014337
0.0324951
0.0209199
-0.608161
-0.336258
-0.333301
-0.315035
-0.320714
0.0284353
-0.407019
0.0513237
-0.345462
-0.402457
0.454332
0.5305
-0.388926
0.0717424
-0.389137
0.00201755
0.0735022
0.349635
0.0673039
-0.409113
0.0745856
-0.641813
-0.0257863
-0.27323
-0.0864119
-0.440999
-0.378067
0.0174585
0.0125595
-0.391544
0.409981
0.617827
-0.470131
-0.442029
-0.462527
-0.0159763
-0.440305
-0.412459
-0.17082
-0.396901
0.691901
-0.466897
0.686086
-0.485208
0.289886
-0.403875
0.0116547
0.115583
-0.644445
0.187824
-0.343151
-0.414987
-0.445153
0.80398
-0.378831
0.178402
0.0973596
0.589007
0.10257
-0.351697
-0.438502
-0.0430067
0.00768426
0.0225677
0.475721
0.00827333
-0.0209287
-0.419535
0.0571522
-0.167149
-0.0222969
0.0313415
-0.255278
-0.197836
-0.231654
-0.453662
0.0168958
0.0991871
0.0399194
0.0477555
0.08268
-0.461007
-0.452819
0.0486696
0.00773057
-0.582572
-0.646167
0.116518
0.132157
0.0545242
0.609398
-0.131579
-0.0379803
-0.47988
-0.418231
-0.110464
0.0208495
0.701401
-0.57589
0.34106
0.035202
-0.577522
0.103803
-0.146555
0.346731
-0.182342
0.0115347
-0.404281
-0.118197
0.159726
0.751176
0.296315
0.697703
-0.395805
-0.433898
-0.497584
0.108974
0.215724
0.0584016
0.331231
0.102387
0.450809
0.228664
0.055165
-0.237019
-0.0156999
-0.117547
0.815945
0.374663
0.590307
0.466076
-0.348129
-0.461314
-0.410696
-0.38362
0.0369763
-0.462247
0.0655071
0.540867
-0.495832
0.00418725
-0.359575
0.12194
-0.449901
-0.507373
-0.0611671
-0.429495
-0.239195
-0.280744
-0.409578
-0.0480974
-0.505044
-0.179121
-0.0210319
0.0832767
0.60367
-0.277516
-0.411881
0.761897
-0.397132
0.249567
-0.309861
0.348863
0.0922727
-0.450251
-0.52602
0.38827
-0.32687
-0.416822
0.151703
-0.358632
0.0278274
-0.430621
-0.193577
0.0213448
0.519723
0.717749
-0.433122
0.187859
0.0502824
0.757206
0.0340884
-0.403135
0.0289295
0.702465
0.162646
-0.417335
-0.43568
0.411551
-0.271196
-0.0174444
0.295764
0.215628
0.263364
-0.317292
-0.38124
0.633324
)
;

boundaryField
{
    FrontBack
    {
        type            empty;
    }
    Top
    {
        type            zeroGradient;
    }
    In
    {
        type            zeroGradient;
    }
    Bottom
    {
        type            zeroGradient;
    }
    Out
    {
        type            fixedValue;
        value           uniform 0;
    }
    circle
    {
        type            zeroGradient;
    }
}


// ************************************************************************* //
