/*--------------------------------*- C++ -*----------------------------------*\
| =========                 |                                                 |
| \\      /  F ield         | OpenFOAM: The Open Source CFD Toolbox           |
|  \\    /   O peration     | Version:  2412                                  |
|   \\  /    A nd           | Website:  www.openfoam.com                      |
|    \\/     M anipulation  |                                                 |
\*---------------------------------------------------------------------------*/
FoamFile
{
    version     2.0;
    format      ascii;
    arch        "LSB;label=32;scalar=64";
    class       volScalarField;
    location    "673";
    object      p;
}
// * * * * * * * * * * * * * * * * * * * * * * * * * * * * * * * * * * * * * //

dimensions      [0 2 -2 0 0 0 0];

internalField   nonuniform List<scalar> 
808
(
-0.03275656972878721
0.04364097519496867
-0.01108013258142901
0.03822008636625668
-0.2943065866764041
-0.05585737762006268
-0.01581232578924343
-0.02409902905038419
-0.1934389127850806
-0.08214460776407199
-0.01067006275584834
-0.2500660008616734
-0.03070056702260706
-0.01426003856193278
-0.1234233455574573
-0.01423775520376158
-0.1397502997562348
-0.0137693099693907
-0.01287271517586266
-0.05429650830609112
-0.008126814087060704
0.1163298373733329
-0.06388620034617588
-0.06996813551311266
0.1739494771305924
-0.1007867706795509
-0.1495664326180041
-0.02049536366663024
-0.01763877975679859
-0.02554189666766209
-0.02041230667952176
-0.05699768830136446
-0.02273409265638589
-0.01695632532369679
-0.09776487580239768
0.3451402583971815
-0.04019085670208393
-0.01639207064206782
-0.02234059371481602
-0.02647620962747023
-0.08858928344147791
-0.1241745942570278
-0.05316860125427118
-0.0215106603132839
-0.05480655645408519
-0.04297835189785915
-0.01185018746449423
-0.1811674293061702
-0.02633542100593983
-0.2005869444506051
-0.01734680782264492
-0.06550785147479703
-0.06217043201881538
-0.0148081290731177
-0.1967167367104146
-0.02755130180699999
-0.01078815459632076
-0.01492664159400226
-0.09823847145798692
-0.03874185688748364
-0.1119692726522817
-0.1233546050215754
-0.01463441007576658
-0.1267751608787513
-0.01761698944905812
-0.05294193111564719
-0.1607956424133212
-0.03535169583025183
-0.01542238235204887
-0.4347859751698434
-0.02598260755358131
-0.2960240137195879
-0.02120150859219257
-0.02120129953321801
-0.06210454028030315
-0.01828728500571463
-0.04143653383878022
-0.3678235846498105
-0.03670711579977946
0.03806794577148405
-0.09273983194465846
-0.01668650181287179
0.05732910275365437
0.04649909605925732
-0.01763982455094748
-0.05103418760693871
-0.5349257694883147
-0.2300876022751339
-0.05081556969780796
-0.1141595200582275
-0.05508085821357965
-0.1301078300990982
0.03777325091936615
-0.02711311955707379
-0.06329444948321457
-0.1185490230565209
-0.03817932775624266
-0.05224815613950016
-0.113924097098031
-0.1371066646268923
-0.05327723179321383
-0.04616626858427413
-0.0530684824740069
-0.04369984113940727
-0.05662531793384171
-0.07605044961052586
-0.03984145216020896
-0.01066596163493491
-0.03933087961824586
-0.1212279309373922
-0.04934974541277615
0.08079046859110386
-0.04151619186197308
-0.007754514885435316
-0.0275017831183394
0.1811297799667793
-0.03765081943798062
-0.2636386902393775
-0.02083360356492589
-0.05215335277786317
-0.04303090502490545
-0.04992554757518364
0.01447040934258778
-0.04715448225889984
-0.03727021152141789
-0.2211792377310582
-0.03941378480723655
-0.00426758210656903
-0.07394743566141569
-0.07028650628566607
-0.1478650923987313
-0.02125792901560757
-0.07372162093018259
-0.04487243415210079
-0.02310663131547217
-0.01454468810654404
-0.006033322695826083
-0.007541538004851404
-0.05151193010530949
-0.0484331067743097
-0.2175515413176129
-0.05487912514654708
-0.008106621950018827
-0.0216428715314891
-0.150123512132196
-0.002375506174174922
-0.07469190830241929
-0.02035404606045934
-3.410436049154212e-05
-0.01060697054919715
-0.03260817332229044
0.09259272101383238
-0.03747059356531018
0.2512212898036992
-0.2620907307837281
-0.1347961176866934
-0.03818507521562692
-0.09097252749593997
-0.009176792027174085
-0.1155323391682005
-0.1658379804750434
-0.2172433981798429
-0.1755974860226888
0.0573958091042784
-0.06435553251354491
-0.02065590175904543
-0.0657179443985908
-0.1682580611992998
-0.0228147917191264
-0.01864744746288301
-0.05049830535165575
-0.02139171748449661
-0.007833583503232412
-0.1050066135048355
-0.02371553211749343
-0.0435372457577993
-0.07161625180842286
-0.158256238035929
-0.03289393475666937
-0.3818654564566289
-0.0179272487362601
-0.2290473944655384
-0.04298983829884084
0.0336300549211586
-0.1066505145436751
-0.01716184242722086
-0.04374579694060888
-0.1035968307172343
-0.01786419490439049
-0.09437510833836285
-0.2044357953560208
-0.07054587696871208
-0.02422810893603394
-0.04640783112551982
-0.04153035421775415
-0.2018855705754083
-0.02250263018997396
-0.01938954920406912
-0.01123536408340482
-0.0580840458268009
-0.04916828482181966
-0.02265584615910225
-0.02057963204855227
-0.2314482885423123
0.126572517359088
-0.2089593201312668
-0.185738359490018
-0.01171947687610685
-0.0111965742998007
-0.06620854063082655
-0.01051146807179095
-0.4889767028730458
-0.125121778410515
-0.01973820996789406
-0.0002735746774426724
-0.02354469410757773
-0.2750101280377051
-0.2814757094071104
-0.007511184623468233
-0.01752783626210802
-0.001465165867771167
-0.3527027074938779
-0.02861727474399838
-0.02940499828213105
-0.01268328851390554
-0.01938249933350613
0.04797937614192967
-0.1241974199744132
-0.01438086196490566
-0.02096998451125053
-0.046097108034755
-0.01841845413548793
-0.0164244658379818
-0.02356508041249231
-0.06836567025735439
-0.01090390500603098
-0.01889159932376979
-0.008984172357700902
-0.00125193468890704
-0.02929688089319567
-0.002165319506129844
-0.001917488141893061
-0.005625622125706649
-0.02548936368958462
-0.00807788298200136
0.001574171492973593
-0.004187456819111234
0.001372487283002665
0.002344422471836519
-0.009015428964036509
-0.1289558221988451
-0.002898507474175439
-0.000313902465167231
-0.04722798164696893
-0.02143363729523994
-0.02343074569039561
-0.01403113001240873
-0.006247767339182409
-0.02115112910248119
-0.04086955967846783
-0.01516741697100873
-0.01270886874040696
-0.01134379782891159
0.007334428161006567
-0.00961412002431564
-0.01301335814690178
-0.01150283229809286
-0.01003531523934753
-0.01029322328391577
-0.01146360736914709
-0.01349631669347497
-0.2892346082867852
0.05828167075229653
-0.01547109455076921
-0.01488367861111114
-0.01236236012695791
-0.01209647089823638
-0.008264346928839454
-0.0983742121690112
0.01369289282855195
-0.0142726787099091
-0.01357278427760752
-0.01050452537701575
-0.05031903026773771
-0.008523241256327413
-0.01370625513572182
-0.01029145038543043
-0.002026248388451651
-0.01180287397621393
-0.01151725113012721
-0.02413754648222227
-0.01534414713674272
-0.01239214922954326
-0.01354236278952358
-0.009408631060801311
-0.01263414223313189
-0.01099271784156664
-0.06051898199760172
-0.01363365650035122
-0.01217649783058216
-0.009260979576904478
-0.01544314909501038
-0.01388499564987451
-0.01563827984784436
-1.361815684182648
-0.1012067745742473
-0.012000704514556
0.02562466098999824
-0.1600724785169001
-0.09296976689952521
-0.01240862819601087
-0.0142271935967695
-0.232180802596988
-0.0275854471754892
-0.01704736799899485
-0.0125961766738785
-0.02058714646169707
-0.01032560225798746
-0.0308271856530764
-0.4059119712436851
-0.012102046878381
-0.01408170120601588
-0.004359000748969564
-0.01110027569536187
-0.01005073577156401
-0.01378287826332191
-0.006946962860257835
-0.0275354181756151
-0.01189985789680731
-0.175158851848939
0.02086576559871502
-0.007250819143595543
0.004252738081202163
0.01200462583190846
-0.04940347114729415
0.02694621804227346
-0.01313655669927797
-0.1316645518043745
0.2830939335560429
-0.008194580463913029
-0.01370617184086943
-0.007860842318889436
-0.03306508656649522
-0.126766623835524
-0.0128087973303202
-0.01186462352699956
-0.0175772507642997
-0.01349657804112011
-0.04185582060448875
-0.221880076397959
-0.008860305938018828
-0.0443648562770211
-0.03805711070550834
-0.1824762462692319
-0.1497112700358214
-0.1510732730556625
-0.2259150078050288
-0.002538072327082872
-0.02057092495562232
-0.01541677119287489
-0.01403574383257962
-0.0339768579556579
-0.02454967825311875
-0.01389465402718822
-0.01486472995657402
-1.065052086295541
-0.003411762793014212
-0.01322073213615916
-0.01795393323870581
-0.02202463387034456
0.004124959330605072
-0.01461384471727568
-0.02467887311120377
-0.1503151152945776
-0.01357812650670602
-0.02085669899867662
-0.01466393651071387
-0.0004396041548316695
-0.1781654583873162
-0.01239484213185434
-0.1583330235057657
-0.01534905262005396
0.003519809307218697
-0.01392939197069627
-0.02448039464334865
-0.01635501617754582
0.007319882437513013
-0.2636626608793996
-0.0269551506626529
-0.01693678324457471
-0.01564761974958086
-0.0111854056636683
-0.02901329451799105
-0.01362537423376341
-0.02125501373875905
-0.02031948754257962
0.009897055977157001
-0.09659541041252132
-0.02095273273291669
0.009675206091440675
-0.05961145279151651
0.1853010092786634
-0.107572172994485
-0.314352066148295
-0.02957507905522702
-0.02603926371533759
0.1519496468046699
0.08993728614879415
-0.003931817818421069
0.05382590433384453
-0.01498983348910928
-0.01305810568240205
0.002806069744893572
0.006806363600081836
-0.06413684147652549
-0.004494504624186541
-0.0554645491180025
-0.02336191078520282
-0.01568628819569739
-0.03651064003009915
-0.03293340916745741
-0.006699600612870979
-0.01457776520075222
-0.03598213115201896
0.03029654819264961
-0.03860157334278452
-0.01400097227986874
-0.1207347595120212
-0.03070608978753073
-0.04036843429732694
-0.6654811782919389
0.01435170406257724
-0.0104056544477446
-0.005846735899326294
0.1865786766504998
-0.1048408771370977
-0.03617714786331486
-0.2403033015088517
-0.01506361801904809
-0.01594685160560895
0.08289390245128916
-0.1786523897027156
-0.2338593774405383
-0.183493188854432
-0.6729576779487032
0.009257486877083431
-0.0176673638997957
-0.01530490451124899
-0.09717885019171178
0.1190144776299226
-0.02181395332759465
-0.2347714476304846
-0.03661225235980964
-0.007019478160915547
0.2806116333148075
-0.01074338945688673
-0.08991500691970784
-0.1544016754556119
-0.004060120031681378
-0.04200219230496326
-0.0485041964457875
-0.1940337234967109
-0.007659925692357124
-0.03908627944029144
-0.003799647224160083
-0.5412292453533909
-0.1914146940508253
-0.180097386331203
-0.02375729846782685
-0.009410015684591877
-0.06282315592612032
-0.05583694023587139
-0.01543222312623567
-0.07030726215122916
0.005234922229588379
-0.0174150378646748
-0.09416918990058944
-0.2797848391416043
-0.009781765112177945
-0.02464498229830417
-0.02111568215580382
-0.07713304437520298
-0.08819085168980265
-0.09050567905333012
-0.01145049121056575
-0.9029941007764413
0.1627482806099931
-0.08251883377249576
-0.2487772557817967
-0.04092080334995478
-0.009021520807743221
-0.250034732346437
-0.2006470643587591
-0.03006388363147376
-0.1134820763728773
-0.01823865714855495
0.5633019535799338
-0.0255344498800801
-0.2109417188061543
-0.0247053898608247
-0.00386714498100537
-0.01080520083181827
-1.240844694795163
-0.1797963472222217
-0.2246095540338054
0.005190288489758974
-0.04007544505157724
-0.2325929153668031
-0.06773228583023591
-0.05259715370557132
-0.1477459521161142
-0.1779089357018162
-0.07075823815037709
-1.20953720679953
-0.1619749097135986
-0.5468883953122423
0.08033832385775889
-0.005897210717634342
-0.02072213001752207
-0.04545401569592362
-0.0372357597394764
-0.02741879793200296
-0.1282876431424786
0.08209791349604451
-0.003974455720667743
-0.009969376074677657
-0.5582020428999709
-0.8445816875903392
-0.1722091378457047
-0.007599942918265447
-0.1218565766388295
0.000407755830753525
-0.0002903756671392038
-0.00296465263971097
-0.0619348025605344
-0.2313126184953852
-0.01327057829602253
-0.1092229524118043
-0.1576849915789609
-0.01307024866594479
-0.03399500128501116
0.03080266989762234
-0.05935385903582286
-0.07291004337166661
-0.4894977949550335
-0.2170126925438104
-0.07905078098112531
-0.07666104159770307
-0.01915968928919734
-0.1104739493444291
-0.1671789055780368
-0.08275787692428091
0.02645243042014813
-0.08824056956359461
-0.05124016488533164
-0.0149270800975195
-0.1152004114154017
-0.2838579948889778
-0.06048413973159031
-0.01786678591908516
0.001002207729718192
-0.01021690194408873
-0.0104037676656759
-0.2402208312557531
-0.01404100133823471
-0.2146070643623838
-0.01073976701950401
-0.07514482238693407
-0.004183022881975383
-0.02328246426318865
-0.3964159209721509
-0.9347674533155117
-0.0112261874902705
-1.036218946687804
-0.59765893977324
-0.01051868308837172
-0.6638975187984565
-0.190151145420539
-0.005033210762476353
-0.1217662038228734
-0.01695761903567831
-0.1268486034342495
-0.06396823316030335
-0.08035076996236283
-0.005551307357345448
-0.003131941173301489
-1.350347140904963
-0.01151867624544417
-0.1847096699548266
0.001145681032894061
-1.002422075511423
-1.254699789637277
-0.07715740744187108
0.01520402157982957
0.1647174188724747
-0.004797988586527775
-0.02295144141366554
-0.004344003911198555
-0.2361423196330404
0.3652879739591726
-0.04271692800817943
-0.2158189688234715
-0.01527986188497656
-0.6483242199938773
-0.07114221347290028
0.1878605534482288
-0.3074396364318489
-0.0512461245913402
-0.07096494948046803
-0.01580053331370798
-0.02133832102138679
-0.5990817646726779
-0.1557003149680446
-0.09666748049680056
-0.1166879045413687
-0.5475065383354181
-0.04583876221667829
-0.8982789870573342
-0.0003376889203395075
-0.2462424482567202
-1.05859095927543
0.1640582490342388
0.28868874676038
-0.1709796577247663
-0.18723169919551
-0.2174269839593941
-0.06543443141105008
0.0255252014495577
0.04390716400455312
0.004620280678477489
-0.1520841124204035
0.02648356801361662
-1.372509788724183
-0.08801880817589489
-0.4821682363175709
-0.3371130875559973
-0.2227459603787727
-0.1822578355326959
-0.01697803438041307
-0.01535460579946316
-0.09188375417207417
0.1750307664288758
0.383980817961834
-0.2025213633446176
-0.156889219947439
-0.2177484178002438
-0.06415569783066219
-0.1642290915616482
-0.174587293373718
-0.1287100790467765
-0.1097991039823589
0.4635064750467486
-0.2864068117429678
0.4336231069667104
-0.5858906407973414
0.07403723673824129
-0.18573484733302
-0.06860651241083027
-0.07906157520491773
-0.8994503676654115
-0.2149067746989632
-0.1943725584397609
-0.3577006056758413
-0.4695441337216704
0.5694282348882083
-0.2169172808526469
0.003565338813218231
-0.06627517844324513
0.3460690334965638
-0.03395378190862954
-0.1207322732299204
-0.1833261328250386
-0.06452934584744573
-0.01631713807365019
-0.2009577667929894
0.197770787330305
-0.01263582048852999
-0.09971113352048706
-0.1785010307686376
-0.3212192510547135
-0.3058644127308244
-0.08471501167102763
-0.009573454945854907
-0.08158858899379673
-0.6470408196788228
-0.6777003621635577
-0.3221370817993283
-0.05981948454133926
-0.04860614737360506
-0.02415349118990864
-0.07112823490392912
-0.05391286568033929
-0.3712959997334924
-0.967433977690104
-0.008680940901067042
-0.08628838035837912
-1.150898165199993
-1.048409933555339
-0.1105515103416595
-0.04278970548270856
-0.0670400288297975
0.387830789481347
-0.337191046862327
-0.05104747569099931
-0.6089032810921612
-0.1387262246820374
-0.2464365466106885
-0.2161028331495262
0.4729156408707824
-0.6408351705989933
0.07773930843255289
-0.02810589482910134
-0.5740447756824782
-0.05552427718312782
-0.3683465806267387
0.1108073705766918
-0.1951380313626395
-0.06214153268126965
-0.1241952595229669
-0.3553278233236755
-0.08268387649640099
0.5158511804808785
0.08772610758348519
0.4689605841087124
-0.1214955484441127
-0.2093017188543088
-0.505816927178264
-0.1362807728524726
0.02331311473005141
-0.05638683263596974
0.09860259115385685
-0.301200643439925
0.2365221637736984
0.003784443804422423
-0.002510127327233905
-0.5050427492550925
-0.1799409835204085
-0.1012894457870326
0.5812051184792122
0.1401648863558278
0.3424794698181705
0.2249468885993811
-0.5700015664583961
-0.2018156446231511
-0.2219392485566581
-0.2238433559037492
-0.0630426997044224
-0.6840972548105803
-0.1879698943022091
0.3036711211631393
-0.1963736883520535
-0.01132247960304403
-0.1591130699776491
-0.01269199521497088
-0.172687207026563
-0.4508614360515663
-0.07615163908406711
-0.2095709005060643
-0.07712588766973849
-0.1093686956378335
-0.1303055512687384
-0.07205200949866215
-0.4370389430093253
-0.4078006132219305
-0.02281414511878149
-0.07881919534526133
0.3304031831006681
-0.2543277213211709
-0.1692843689098451
0.5235711732346219
-0.1914444801801129
0.02223850535143564
-0.4583680810697446
0.05147874232889118
-0.05856809705522961
-0.1500658758733454
-0.5961990232980402
0.1574067607678735
-0.5719521097981922
-0.5443864314071321
-0.1004081193777164
-0.5160350981552601
-0.03567960277634393
-0.157121925529563
-0.4173756200919331
-0.01599289974690638
0.2888237322440024
0.4899810645994786
-0.1693826997034755
-0.004587570208276071
-0.08473671632528969
0.5249103756192776
-0.03172375972321046
-0.4490008816010995
-0.03138442412908646
0.4620898248260469
-0.01832662415549743
-0.5540745795849781
-0.2413402435465325
0.1788941632226422
-0.317938887405348
-0.1841919847904795
0.04670846432171342
0.03042213463111193
0.05738749453712263
-0.3070448900473368
-0.160435402903026
0.4128273369454075
)
;

boundaryField
{
    FrontBack
    {
        type            empty;
    }
    Top
    {
        type            zeroGradient;
    }
    In
    {
        type            zeroGradient;
    }
    Bottom
    {
        type            zeroGradient;
    }
    Out
    {
        type            fixedValue;
        value           uniform 0;
    }
    circle
    {
        type            zeroGradient;
    }
}


// ************************************************************************* //
