/*--------------------------------*- C++ -*----------------------------------*\
| =========                 |                                                 |
| \\      /  F ield         | OpenFOAM: The Open Source CFD Toolbox           |
|  \\    /   O peration     | Version:  2412                                  |
|   \\  /    A nd           | Website:  www.openfoam.com                      |
|    \\/     M anipulation  |                                                 |
\*---------------------------------------------------------------------------*/
FoamFile
{
    version     2.0;
    format      ascii;
    arch        "LSB;label=32;scalar=64";
    class       volScalarField;
    location    "1641";
    object      yPlus;
}
// * * * * * * * * * * * * * * * * * * * * * * * * * * * * * * * * * * * * * //

dimensions      [0 0 0 0 0 0 0];

internalField   uniform 0;

boundaryField
{
    FrontBack
    {
        type            empty;
    }
    Top
    {
        type            calculated;
        value           nonuniform List<scalar> 
15
(
142.2899736132181
133.5825410666053
138.0641813958568
144.4026415141182
159.7652771202185
131.3672392102907
140.1323000361997
135.3525317245702
153.4555475846011
135.7255050548807
136.0884844896116
136.772705085602
125.2661204695957
132.9134895528052
123.9562189007561
)
;
    }
    In
    {
        type            calculated;
        value           uniform 0;
    }
    Bottom
    {
        type            calculated;
        value           nonuniform List<scalar> 
15
(
155.5674865835761
158.1191132808506
141.0894881949352
142.0445326404689
141.1791938565025
148.4291880172592
142.7034268286969
143.1470665751465
143.4214918503599
134.0615420046554
125.7272724338158
141.5575853778637
122.4049250745318
123.4855719907904
124.1312124561275
)
;
    }
    Out
    {
        type            calculated;
        value           uniform 0;
    }
    circle
    {
        type            calculated;
        value           nonuniform List<scalar> 
32
(
56.03750779030523
22.01906408833064
65.24475051518401
25.27812139179618
20.02094151957875
56.20387963730487
56.62621823382922
23.76607291453249
22.23459619442855
65.48698538564157
39.81189866716812
62.93278739575284
50.60352903904771
17.1680657739711
22.92781543562723
17.98419666099455
39.30030294572975
59.7882387417522
61.0412181385614
24.83382730004443
65.77372366948583
63.78012128230527
63.07189148650523
59.88821566492729
64.13994895718938
45.98009631845105
66.43807354100542
32.09359763945004
37.95941641032444
55.71766182617747
21.11396925820335
43.12126395807346
)
;
    }
}


// ************************************************************************* //
