/*--------------------------------*- C++ -*----------------------------------*\
| =========                 |                                                 |
| \\      /  F ield         | OpenFOAM: The Open Source CFD Toolbox           |
|  \\    /   O peration     | Version:  2412                                  |
|   \\  /    A nd           | Website:  www.openfoam.com                      |
|    \\/     M anipulation  |                                                 |
\*---------------------------------------------------------------------------*/
FoamFile
{
    version     2.0;
    format      ascii;
    arch        "LSB;label=32;scalar=64";
    class       volScalarField;
    location    "637.5";
    object      yPlus;
}
// * * * * * * * * * * * * * * * * * * * * * * * * * * * * * * * * * * * * * //

dimensions      [0 0 0 0 0 0 0];

internalField   uniform 0;

boundaryField
{
    FrontBack
    {
        type            empty;
    }
    Top
    {
        type            calculated;
        value           nonuniform List<scalar> 
15
(
142.2783894037679
133.5549445755501
138.0606370778466
144.3830793886999
159.7578996565775
131.366171916719
140.1107109569818
135.3380239184202
153.4437832801892
135.7298937413809
136.0775740927376
136.7804893521932
125.2453220020967
132.904978602748
123.9543236208948
)
;
    }
    In
    {
        type            calculated;
        value           uniform 0;
    }
    Bottom
    {
        type            calculated;
        value           nonuniform List<scalar> 
15
(
155.5679315271609
158.1138329497294
141.1073176593743
142.0735274075523
141.1888498692565
148.4555974564314
142.7165400408277
143.162785991752
143.4217578623676
134.0680805965308
125.7377156498413
141.5632885495552
122.410280473914
123.4878143431951
124.1432550940906
)
;
    }
    Out
    {
        type            calculated;
        value           uniform 0;
    }
    circle
    {
        type            calculated;
        value           nonuniform List<scalar> 
32
(
56.05495869759546
21.68333977762893
65.1952017746722
26.37526361899607
20.34157449974382
56.30076681156548
56.61231451138486
23.91044365681514
22.05093404643012
65.42745540968599
39.85936065693647
62.89677201311052
50.63397633918068
17.22119344538414
22.56346503375465
19.07575126689339
39.29831058591665
59.8348785560527
61.12086000225862
26.53951533248878
65.83658753161571
63.71156838179817
63.12410496568252
59.808855344724
64.20908415806853
46.10383643236999
66.49679821782273
32.26608635438424
37.81889675648743
55.62280859171932
21.46024810728825
43.01705423578267
)
;
    }
}


// ************************************************************************* //
