/*--------------------------------*- C++ -*----------------------------------*\
| =========                 |                                                 |
| \\      /  F ield         | OpenFOAM: The Open Source CFD Toolbox           |
|  \\    /   O peration     | Version:  2412                                  |
|   \\  /    A nd           | Website:  www.openfoam.com                      |
|    \\/     M anipulation  |                                                 |
\*---------------------------------------------------------------------------*/
FoamFile
{
    version     2.0;
    format      ascii;
    arch        "LSB;label=32;scalar=64";
    class       volScalarField;
    location    "865.5";
    object      p;
}
// * * * * * * * * * * * * * * * * * * * * * * * * * * * * * * * * * * * * * //

dimensions      [0 2 -2 0 0 0 0];

internalField   nonuniform List<scalar> 
808
(
-0.03467265393840414
0.0447499434088273
-0.01186783829596807
0.03628372099466212
-0.3001906416591327
-0.05483212658745224
-0.01476583165567061
-0.02383020070920564
-0.1975035171555333
-0.08423083035320608
-0.00944738590277993
-0.2547631914258314
-0.03056245019677963
-0.01320251750915366
-0.1239448381426755
-0.01400805154452713
-0.142386655015238
-0.01357857778771313
-0.01281673327304999
-0.05598624749874326
-0.006411753015290111
0.1175620255501895
-0.06183562864981763
-0.07206526742887173
0.1754111424854707
-0.09948955419947225
-0.1530263710881327
-0.02035798277926829
-0.01747175395079562
-0.02598319674678668
-0.02021290291561208
-0.05879076271732527
-0.02298303105594176
-0.01688975044940103
-0.09960909194739434
0.3446616707986803
-0.03894909772786747
-0.0168311173115618
-0.02302226489893625
-0.02658649319151407
-0.09047292674663758
-0.1270143630871086
-0.05146408166378704
-0.02073978458785227
-0.05538358736543201
-0.0409086519710016
-0.01229217634687254
-0.1849679435474823
-0.02719162113042499
-0.2046748647000101
-0.01625472052792855
-0.06762002932446139
-0.06030416655228645
-0.0151410773959451
-0.1925631927163952
-0.02855035849249693
-0.01086442043783547
-0.01502730748952063
-0.1007301723312459
-0.04005454136049232
-0.09750307026079694
-0.1265499699224345
-0.01366849048704199
-0.1280386674310765
-0.01696209747705723
-0.05127097029829997
-0.1636236529265966
-0.03562328019949346
-0.01503980748791246
-0.4418321620053413
-0.02673448960411377
-0.3040502303788764
-0.02179508531795719
-0.02039081132576921
-0.06493017330547257
-0.01758319711508374
-0.04283908681286932
-0.3633965779614767
-0.03567483741598094
0.04030257431349121
-0.09140009711651699
-0.01715213356727077
0.05690737083340976
0.04477510337268761
-0.0168288172612779
-0.05249230872711769
-0.5439365175308277
-0.225477064922974
-0.05248528291430827
-0.1124513333720602
-0.0569081941967076
-0.1328593243186167
0.03967801539307329
-0.02496218281213143
-0.06137884177104224
-0.1167140822304105
-0.03843924163398298
-0.05230386924650566
-0.1163090505550916
-0.1373996159051953
-0.05229877669883937
-0.04767398539044619
-0.05469185437755869
-0.045091788919154
-0.05749445314230579
-0.07411422540072382
-0.04156325340561825
-0.01127424757985974
-0.04055748580052649
-0.1245322343422687
-0.05068310578894607
0.08236415232924223
-0.04265404491152061
-0.008305060045271581
-0.02779877065084032
0.1806101415542896
-0.0391103520758591
-0.2699818692005929
-0.02033932963404815
-0.05385087923206814
-0.02901679474617466
-0.04839550468995884
0.01322954044799035
-0.04897347810684617
-0.03511794699016141
-0.2168895059599431
-0.04152245985556555
-0.005093035053768342
-0.07625532109241411
-0.06839269928551089
-0.142815968337407
-0.02085302635947874
-0.07539015347509913
-0.04249215292371029
-0.02274685129992408
-0.01591665607604323
-0.006427256628263823
-0.007271804349362884
-0.05265073672383499
-0.05007342342463833
-0.2156306181212783
-0.05687236718293759
-0.008474485973020144
-0.02246297532874246
-0.146622823843302
-0.002771267958556191
-0.07658717608449882
-0.02235729046472499
-0.001040759217573059
-0.01095966732609756
-0.03354041198708083
0.09437666807890485
-0.03896773884098406
0.2521454633449778
-0.2693969326397357
-0.1317827115872503
-0.03730640308235519
-0.0910192440394243
-0.009396466658256145
-0.1129687588831757
-0.1816494033369772
-0.2189799812718453
-0.1781016302273386
0.0561038329386465
-0.06258185104348214
-0.0203419163526771
-0.06717218543027276
-0.1666010287105761
-0.02361340067167752
-0.01834860595503881
-0.05227752454917022
-0.01922646321292934
-0.006580633262407128
-0.1081036904358148
-0.02291014637714065
-0.04545438853110779
-0.06966285321679756
-0.1614406448998322
-0.0335324843054614
-0.3917241431594761
-0.0178242332705076
-0.2247507402111742
-0.04458513222285485
0.0318353923773651
-0.1061669547157947
-0.01513009516950563
-0.04218439354338372
-0.104285788172045
-0.01764610799739154
-0.09558594697786735
-0.2077351439912392
-0.07196203480977725
-0.02374900496014604
-0.04852077699747476
-0.04304273186308696
-0.2048489842954548
-0.02193439263266155
-0.01900917590837934
-0.01131773846060749
-0.05574427878824414
-0.05096098295901918
-0.02234289219569366
-0.02084447473916926
-0.2437425657832814
0.1274777061465591
-0.203552185356779
-0.1997760142710452
-0.01179740774834098
-0.01148007944518627
-0.06725469888358325
-0.009980036990328157
-0.5083345660409913
-0.1200699900388496
-0.01905253933403305
-0.0003595278590144249
-0.02410682748705173
-0.2830721840673107
-0.2771114078391088
-0.00704182378564412
-0.01723016228431572
-0.001388695584950982
-0.3478847897147574
-0.02827627353125515
-0.02913447929601127
-0.01250109579359075
-0.01970966465170551
0.05002708750015754
-0.1091088431833786
-0.01413236236762313
-0.02077965486612266
-0.04399648887509433
-0.01821036596346128
-0.01613858171563641
-0.02341756622588459
-0.06738879048822552
-0.01160330118455368
-0.01905520619206751
-0.008558083528691194
-0.000690682708557225
-0.02953235304770353
-0.001682255649773183
-0.002208842378148139
-0.00590178897195808
-0.02561372763836171
-0.007956087532026064
0.001480079477197591
-0.004267863033668218
0.001326919247511604
0.002550951263314962
-0.008832529207047584
-0.1414075335847885
-0.002994668689214834
-0.001514427821204207
-0.0483750225477373
-0.02158595870300413
-0.024494268295712
-0.01434541705017649
-0.006154799784439082
-0.02086680827300162
-0.03859356535947923
-0.01407354606482467
-0.01290399842540809
-0.01155259692173615
0.008433100155071224
-0.0102285595373071
-0.01177219168239184
-0.0114625084224651
-0.01069967861300024
-0.01030315683273799
-0.01206465499533444
-0.01399540505400319
-0.3066852165169065
0.06002305935741085
-0.01580436476978504
-0.01554955185878595
-0.01299470356610115
-0.01191324587508612
-0.008778919099347724
-0.09659996559795397
0.01132005905172436
-0.01361161055846494
-0.0143429378718916
-0.01066712431845979
-0.0521678357544944
-0.01032131092485323
-0.01359645891006662
-0.0099364606067113
-0.0001860799042341665
-0.01054187675045574
-0.0120070107375532
-0.024710265853017
-0.01580982654270022
-0.0118446195662685
-0.01349185582314189
-0.007319043807744201
-0.01222058373474775
-0.01178535355265912
-0.05827647046690695
-0.01328055790720235
-0.01122641246894209
-0.008820698508024808
-0.01492377538114464
-0.01370110123909516
-0.01564677897317564
-1.370896881123433
-0.09920690743504261
-0.01339551552117923
0.02559175371198422
-0.1630567621829449
-0.09166312689936808
-0.01179265473047085
-0.01403778984183144
-0.2412054374888276
-0.02956741385564989
-0.0190897467640576
-0.01131678918799188
-0.01974099587414906
-0.01035733511542978
-0.03074343035637131
-0.4119223159223031
-0.01243745174044748
-0.01410647445557669
-0.004777530920854297
-0.0111332127625525
-0.01055774472122455
-0.01420613304932418
-0.007249899784402158
-0.02632692252742426
-0.01155708452389091
-0.1677356102977775
0.01791654948058727
-0.007566107852667812
0.003767092930096381
0.01366642180448253
-0.04782491442349046
0.02891020724611962
-0.01326759346685843
-0.1335759198714455
0.2825199717153451
-0.0072589642549883
-0.01349676580633276
-0.008289309307221757
-0.03267283293518913
-0.123767537939513
-0.01232726626062369
-0.01223519245876679
-0.01673784399346419
-0.01357305215077574
-0.04115472037271429
-0.2166977130990719
-0.01061873809084197
-0.04218979299613915
-0.03949153017370954
-0.1701013879842192
-0.1621813203762039
-0.1343767097375995
-0.2362796452394509
-0.006379081760815183
-0.02111893582769952
-0.01408939146223586
-0.01273401246335615
-0.03312195373991059
-0.02446314917106688
-0.01436332556505965
-0.01493171317730647
-1.075245312124991
-0.006259324612397081
-0.01339450245505235
-0.01840345455923759
-0.02363546325913215
-1.741570154411363e-05
-0.01470764739833935
-0.02663712099778491
-0.1537489624636549
-0.0135820825529539
-0.02213771952469216
-0.01382527433956233
-0.0007880126497484727
-0.1786247189919703
-0.01301714298565092
-0.1436424630810863
-0.01599645189041872
0.00452036851518581
-0.01458200984314591
-0.02337902856544054
-0.01554612098771866
0.004945155927444002
-0.2749336469142568
-0.02576535558239759
-0.0159798748715258
-0.002471444777463628
-0.009685683801733418
-0.03014930786080222
-0.01424962106003373
-0.02042219661396339
-0.02117357251290588
0.01499324745004179
-0.0994022248365951
-0.02184769352516785
0.009259436309652879
-0.05401571281862984
0.1682067013794121
-0.1043960467839399
-0.3180552442368733
-0.03104092154883127
-0.02551211808060275
0.1504861344644647
0.07795373458283934
-0.003554542057939536
0.04952481578439554
-0.01542129401691303
-0.01426663258352664
0.002346354655182271
0.01033265009565245
-0.06603396470751971
-0.005948996339482908
-0.05700058232028182
-0.02221111963734053
-0.01573162867022711
-0.03653864655409186
-0.03291255261453821
-0.006645364713639422
-0.01510322663609326
-0.03803846802343681
0.03699891056952998
-0.03885222465097631
-0.01381987786844333
-0.1176197974512316
-0.03185887629099184
-0.03895191774433397
-0.6728502107715196
0.02049997513377117
-0.01048784527126287
-0.005704961459570071
0.1612237795691259
-0.08767120980051529
-0.03514095030110496
-0.2446291083244087
-0.01650761341747687
-0.01646753034175478
0.07074185297607968
-0.1820753302832104
-0.232787459978327
-0.1948437985586146
-0.6817823858464166
0.001838599380401906
-0.01860825005831118
-0.01698714056178377
-0.08237347966791712
0.1182626007447363
-0.02078852602186197
-0.2324071304829798
-0.03529012056672466
-0.006565800119539892
0.2797559233723431
-0.01123167316396002
-0.09239400722436143
-0.1507750827625443
-0.003578244036296742
-0.04071454396647374
-0.05178815015561969
-0.2034884341737368
-0.008407127507827069
-0.04107658530539411
-0.002500051288704374
-0.5472080462091886
-0.1959485163786689
-0.1772326922437689
-0.02283012308910437
-0.007403104475563846
-0.06077866986361527
-0.05747961119674438
-0.01379280215380891
-0.06830204550647828
0.004248570801639977
-0.01818252223282724
-0.09375052948373998
-0.270852578480659
-0.007377199930874925
-0.02621232892806734
-0.02189904397746939
-0.07499987564462109
-0.09011245479758989
-0.08851724544696903
-0.01203418818320058
-0.9202988082869036
0.1616648328823069
-0.07890954092973373
-0.2521142473220073
-0.0421080031384208
-0.01027330854581784
-0.2554109195598307
-0.1905374158482336
-0.03208946376994082
-0.1268935140108402
-0.01970209239616439
0.5635548898308265
-0.02421903794737214
-0.2260396225679813
-0.02577272031628709
-0.005746204854943924
-0.01187182570165457
-1.246801186629045
-0.1809071496425408
-0.2301880659790813
0.005290362935694445
-0.03815685699660526
-0.2502368623146409
-0.06600555176458578
-0.05132630076169623
-0.1442702218403133
-0.1848091513722711
-0.06859898195982508
-1.222643799780319
-0.1454652966429237
-0.5269397324410039
0.07909174688146001
-0.00631186389226576
-0.02166807241741611
-0.04339075516475079
-0.03941357100602735
-0.0285883995809841
-0.1297375323163912
0.08076222528562141
-0.002004008409017025
-0.009915223747391753
-0.5752379297361089
-0.8582477690469436
-0.181481786511946
-0.008338006649970539
-0.1365927208411349
0.0008684979954318935
-0.0001843754809608608
-0.001903216382191203
-0.06025632030929577
-0.2362777815297282
-0.01332359112766105
-0.1225377427461543
-0.1570552083824729
-0.01320383045936576
-0.0353893224142303
0.02481998538452787
-0.05777399567618952
-0.07057865630204657
-0.4992720684341762
-0.2202536712277149
-0.08001055734566874
-0.07383425186314896
-0.01978977253746063
-0.1234283979364074
-0.1540280725600276
-0.07536112509322995
0.02259524288195724
-0.08547578402529922
-0.04897317721985046
-0.01487910464959496
-0.1065253278347779
-0.2753775959766416
-0.05788403837169651
-0.01835548027782808
-0.0006382811221201595
-0.00999777751283497
-0.01098589005958493
-0.2214951395391458
-0.01527684809336132
-0.2194442898046287
-0.01027294606678538
-0.07030929070539366
-0.004245559356317635
-0.02323362841655743
-0.382815606119443
-0.9174560251559202
-0.01133189241141438
-1.04332410269993
-0.6092039431855959
-0.01053072580072956
-0.661755194101068
-0.1814760910363837
-0.006031688195003515
-0.1291465313340089
-0.01671859772893916
-0.123466734069254
-0.06620574808875639
-0.08012473286446366
-0.005064102869560547
-0.002258850847166712
-1.344374377198978
-0.01137947104842234
-0.1787849006408172
0.0006563041867266514
-1.006093655650395
-1.241573403395278
-0.08000525572142533
0.01782846503192239
0.1644982383355865
-0.004491751914406756
-0.02304935410009139
-0.004176047542704281
-0.2496097753155411
0.3658614195435474
-0.04126528172095054
-0.2121697485567408
-0.01488507929298724
-0.6504185039053879
-0.07370555405812827
0.1894727657463496
-0.289108930122086
-0.05004203244336363
-0.06923318428435538
-0.01586687745871236
-0.02169791760619994
-0.5819608114912834
-0.1467639799468385
-0.08755751022960179
-0.1261341220357629
-0.5521961727719199
-0.04446035646012252
-0.9030084848312879
0.0005791701576730074
-0.2402138783049225
-1.054843445099698
0.1644657125133738
0.2898889044242594
-0.1831682693297166
-0.1904228833484481
-0.2123290171727734
-0.06718994363621258
0.02229934957162732
0.04495265888423605
0.003078570992734835
-0.1662391205220633
0.02579284500385903
-1.363385137712231
-0.08583239862771809
-0.476388021223391
-0.3333017429598077
-0.2077816908213869
-0.1783245891605499
-0.01690712843390731
-0.01546449833789768
-0.1055090548593903
0.1737639049076113
0.384738578879441
-0.2040272294231076
-0.1406618549550378
-0.2267572182330995
-0.06281280298802966
-0.1515070799777468
-0.1658598652803364
-0.1264327995711266
-0.1231563596408377
0.4640079204201029
-0.2732544141877721
0.4333300410959579
-0.5955575417648113
0.07206562940336464
-0.1992626882128135
-0.06668464654909494
-0.07603077868119498
-0.8853982064884951
-0.2160543016591501
-0.1920063044228157
-0.3495932641717004
-0.4610447498957915
0.5702039126037141
-0.2118213515923889
0.001430983479807235
-0.06900509950965193
0.3454108022150804
-0.03626881995017271
-0.1320198850086489
-0.1807726522545063
-0.06335394681422997
-0.01652549905649399
-0.1979867491733412
0.1971475364693787
-0.01291741069117553
-0.09708857918032864
-0.1727466397408223
-0.319263520727631
-0.3108404966866617
-0.06733705669602534
-0.01018739840082886
-0.08119338657632312
-0.6500506208600838
-0.6745210335055004
-0.3348314359625264
-0.05813770630564827
-0.05079077940632404
-0.02521363967735296
-0.06855699760647196
-0.05650618779412835
-0.3619075243518898
-0.9625314298130093
-0.01040404589360278
-0.08377363458985621
-1.143659794933393
-1.038107397337416
-0.1080797006723985
-0.04001188172664098
-0.06900666412086218
0.3887393770299535
-0.3414548833738705
-0.04920684736727132
-0.6024217875941756
-0.1239425333957936
-0.2507545241195359
-0.2127483530444763
0.4734857800744451
-0.6321462295939512
0.07604769520867492
-0.02921947793307343
-0.5626534759436286
-0.05277165595607156
-0.3648146260154709
0.1090790095594316
-0.1914328992625283
-0.06031864358160721
-0.1369284028429442
-0.3586664010747556
-0.08481524917257487
0.5157039109074457
0.08631484129877785
0.4696594958835448
-0.09979213352863818
-0.2028593289775903
-0.518101811578819
-0.1333904666070384
0.02567872584236838
-0.05425608911614847
0.1006602714539
-0.3029826781904859
0.236404998669758
0.006319371472577544
-0.003115475403442734
-0.5101357437617968
-0.18363411583672
-0.0814309175391506
0.5816583318479398
0.1391533782135592
0.3430761796079739
0.2255493804964505
-0.5651636037157237
-0.1925904432266267
-0.2251319338173496
-0.2257914831089399
-0.06096812389129021
-0.6905176021365849
-0.190697365007246
0.3048792473069791
-0.1910014931875989
-0.01140435466970924
-0.1668642451265884
-0.0104249244129601
-0.1599784975613109
-0.4391778509656609
-0.07607504768941448
-0.2034656937808228
-0.07144845524269307
-0.08921378316893401
-0.1436281404075913
-0.07254884486873374
-0.4509513788916025
-0.4117524405426811
-0.02439457799246978
-0.0758456430569017
0.3299026703638206
-0.2487707607347737
-0.1813189325890435
0.5241530852651752
-0.2047661778127161
0.02004995413986568
-0.4520413196497612
0.05046175248242651
-0.06092558902483242
-0.139936736918058
-0.5868111506088042
0.1589080736539991
-0.5771919203916954
-0.5375060605487478
-0.1030473399955038
-0.5106056676875276
-0.0369494153513211
-0.1411218210420936
-0.413343459496503
-0.01619648654303898
0.28796665081665
0.4899039951856251
-0.1611995179459382
-0.006808940379308132
-0.08086147790181963
0.5251536270544038
-0.03299286212268841
-0.441516616596486
-0.03253157863070461
0.4617928248110638
-0.01589012768446914
-0.5464119012704333
-0.2487956131963297
0.1775193959159208
-0.3121621669959875
-0.1803720287710077
0.04871382486872429
0.03266299359664091
0.05550141917373633
-0.3009408444722086
-0.1595207867853815
0.4128318263985582
)
;

boundaryField
{
    FrontBack
    {
        type            empty;
    }
    Top
    {
        type            zeroGradient;
    }
    In
    {
        type            zeroGradient;
    }
    Bottom
    {
        type            zeroGradient;
    }
    Out
    {
        type            fixedValue;
        value           uniform 0;
    }
    circle
    {
        type            zeroGradient;
    }
}


// ************************************************************************* //
