/*--------------------------------*- C++ -*----------------------------------*\
| =========                 |                                                 |
| \\      /  F ield         | OpenFOAM: The Open Source CFD Toolbox           |
|  \\    /   O peration     | Version:  2412                                  |
|   \\  /    A nd           | Website:  www.openfoam.com                      |
|    \\/     M anipulation  |                                                 |
\*---------------------------------------------------------------------------*/
FoamFile
{
    version     2.0;
    format      ascii;
    arch        "LSB;label=32;scalar=64";
    class       surfaceScalarField;
    location    "1149";
    object      phi;
}
// * * * * * * * * * * * * * * * * * * * * * * * * * * * * * * * * * * * * * //

dimensions      [0 3 -1 0 0 0 0];

oriented        oriented;

internalField   nonuniform List<scalar> 
1171
(
-0.9278982173686908
0.9278982174007147
0.787366650677887
-1.099136632685101
0.3117699816036434
-0.1905960942641447
-0.76695199895313
0.9575480934729796
0.07210176835972462
-0.1176723497121508
-0.2123053174124463
0.329977668477124
-0.7873666411795749
0.0693410388569404
0.7180256023049532
0.8110064585194471
-0.1778646922013747
-0.633141766096006
0.8739582972127659
-1.043997518682703
0.1700392214273223
-0.2852112353442595
-0.09825278442415904
0.3834640193622099
-0.03654112891321685
0.5488141500211849
-0.5122730210269416
-0.5084576442389198
0.828275317319527
-0.3198176734118637
-0.4028835812481892
1.045619778978712
-0.1716614797647821
0.392741307001552
0.05075580888545007
-0.44349711365212
1.04601430728286
-0.0003945271264284873
0.4450950354932947
-0.05235373904604874
1.056479323422087
-0.01046501789164409
0.58053557587041
-0.7711316671448124
-0.7240322276665189
0.5566235757270328
0.1674086520794432
0.2137942604839032
-0.7222519084583251
0.5497422343713316
-0.9224640643617781
0.3727218310005783
-1.094227689975142
0.6866302179910433
0.4075974719133241
-0.5955517792551183
0.5590106511141814
0.01708491030908155
-0.2556020988167772
0.2385171891012133
-0.02257578644617548
-0.5246337789990659
0.5472095671923558
0.4001888468841554
-0.4984416301802032
-0.9189397360839185
0.9417045412970012
-0.02276480529161761
1.067840828190165
-0.01136150469511463
0.9349501031473503
-1.11675593533625
0.1818058323456922
1.067333863970588
0.0005069620783677213
-0.6643329656173564
-0.05969925827537181
1.262116516333754
-0.8643997506325699
-0.3977167656711991
0.1483941243518071
-0.1100096481048389
-0.325304915497077
0.4353145631883102
-0.285493492181881
0.1920485576789601
0.09344493412611124
-0.5836361653944877
-0.5155004748938027
1.014121287805574
-0.07917118467846281
0.009868164763763541
0.8255024865507655
-0.8353706514369825
0.5716897449671839
0.6904267768324793
0.4388045111562763
-0.0311218769919737
0.4313107242403464
-0.8080657693011222
-0.1025661942375607
0.9106319636903991
0.5021982880086303
0.2541131088314953
-0.7563113968877482
0.005951075768873818
0.5305408588189442
-0.536491933228323
-0.4900220761276402
-0.6042056126924558
-0.4227789321447156
-0.6939770014252492
-0.02739299106499751
0.270845744761513
-0.243452754896221
-0.9248388571083263
-0.00514383195029392
0.9299826889390467
0.3083111555096911
0.0751528669047717
0.7615837934883906
0.04942265383339312
-0.532920110008724
-0.06263166994403228
0.04602762400681105
-0.8540933926951439
0.07682227955143218
0.8626990428049993
-0.939521322435578
-0.3469308149647616
-0.04064804284127493
0.3875788571019643
-0.6821466480856206
-0.242692206361459
-0.6342199668150583
0.7110422451179704
0.6139659033025453
0.2143094113221028
-0.5433948946918642
0.9457548627857463
-0.7789575975173287
-0.1667972654022621
0.01114016951902465
-0.00531021673162743
-0.005829952505273319
-0.4034461874178368
-0.09499544119192103
-0.2414594352445908
0.8554253356620274
0.04865696726246489
0.333683642108203
-0.3823406100234901
-0.4616860295141759
0.9638843164569858
0.6804276130307317
-0.782993805436986
0.3187208444649815
-0.01494095730072886
-0.3037798892650612
0.9307101685695881
-0.9307101686006591
-0.7815037109851728
0.1113617736838699
-0.3236670927683246
-0.7499397086377719
0.7598078745498084
-0.09105099138971044
-0.1431376125860699
0.2341886027818767
0.8648687559581305
-0.03936626646190679
1.054582437934771
-0.8004693301528717
0.1867748639493838
-0.3164318235022334
0.1296569601084135
0.8583632303910558
-0.09677943860058157
-0.6113329160378326
-0.03923173101570754
0.6505646469823739
0.1234309494802789
-0.2303581851372345
0.1069272367908562
0.8055352168367228
-0.9833999195086424
-0.4341360333539145
0.3290401423475181
0.1050958921011781
0.5335867786394539
-0.5561625714761655
1.021961717719856
-0.4562338836376064
-0.565727834163784
0.5991827812107146
-0.7192824833001793
0.06646967868831978
0.6528128043767578
0.1020518309884585
0.5696149055189836
0.05510890779030402
-0.6247238130839008
0.1949456570894922
-0.0835838830845418
-0.4920502428345952
0.1451194272011729
0.05026929941335104
-0.8864307068065885
0.8361614075122143
-0.4738779829921314
-0.7131679397040998
0.04883497357568779
0.4369497515757865
-0.005639030575950747
0.300097461892711
-0.8553010778387639
0.5552036160103875
0.4157607757905576
0.5842392243740882
0.560580422573319
-0.5145527976662215
-0.3673778110351963
0.03987054980737552
0.3275072568078635
0.6812563076637527
0.2494538653161662
-0.5675028744524517
0.5734539515396891
0.111644845282785
0.8748762479363447
0.01024620056982783
-0.6215791116377113
-0.7490623662390132
0.7993316663532181
0.5303831783918097
0.07052341868732606
0.3006404691675464
-0.3711638874555711
-0.1674631736228934
0.44534003266899
0.08520081536952709
0.8739191859790942
-0.8045904095952224
-0.06932877635300343
0.6354040320014921
0.3103508333517453
-0.4308391739140979
0.5739013385333392
-0.5033779126256496
0.4170511234579996
0.1326911096785503
-0.04674261011238733
-0.5916141345467443
-0.1393162149105357
0.7309303495153648
-0.1497215464458035
-0.7809886172887458
-0.6110384844397974
0.3601555818132521
0.2508829012628091
0.6219569501758802
-0.611710748231894
0.2389266802403762
1.011643048624605
0.04293938862589829
-0.7490623671580821
0.2274579943600043
-0.2163178324697568
0.680427613563124
0.8018261458061128
-0.8018261459538679
0.8375957379230556
-0.8330716328328882
-0.00452410501923174
-0.4453373994287532
0.8610981742245358
-0.1473358749273017
-0.3447143647819302
0.73476889429182
-0.6685762287673608
-0.0661926655760143
-0.7363800406448509
0.144765905835699
0.1391555003698948
-0.6720756096188244
0.7829938027979094
-0.9504569764797289
-0.3678314029100111
0.2870498115837909
0.08078158674464322
0.1457046863677121
-1.010092571932121
0.8643878856112268
0.4808007477077703
-0.04199623665362074
-0.3080655992354261
0.5862318866900029
-0.2781662872480237
-0.738592464181871
0.8842971528481932
-0.1570006413628638
0.7317238874954607
-0.8385835305309348
0.1068596427431568
0.9769752347187992
-0.5391778648929444
-0.4377973699882596
0.7550835363353001
-0.06495553164175734
-0.03463892831011134
0.1847618494720415
-0.1501229211726094
-0.7757996077449618
-0.8390158259283548
0.07206383365533642
-0.7499397067788582
0.5138198090601344
-0.5544678568057306
0.1000534275848825
0.716225642402495
-0.8162790698420638
0.7535864710553727
0.1743117444925442
0.5029313205102334
0.497068679465349
-0.05433452698800961
-0.6113432517768337
0.6656777801046494
0.8803958361457196
-0.006476654476932308
-0.7550835363096231
0.7993316607925169
0.191674065549312
-0.4472761688719711
0.01251003001334426
0.00363616378215004
-0.01614618911617466
0.5889891913122489
-0.4373562602985915
-0.1516329302204506
0.7180255968414392
0.01071762883620649
-0.1072919372951377
0.4386297677133031
0.1503594328552326
-0.01579974864395223
-0.007476362058742113
0.02327611010438928
-0.03143280795248574
-0.003206111631432783
0.2459682966235848
-0.2609092583594707
-0.9588267872025996
0.001550478817380986
-0.1594951264146408
-0.121863103236686
0.09461204303644828
0.7224248801905271
0.728938147910326
-0.1446989255986391
0.6732078612808098
-0.5731544319920568
-0.2119225231084233
0.3986973889686426
0.6956530734286678
0.02237252336762637
0.2418343080437636
-1.074905945734279
-0.9504569759759132
0.3026721286971152
0.7598078766732098
-0.2093604746048912
0.06622285629774305
-0.7239753600721482
0.9105886958188791
-0.1866133358251061
0.4157220310258883
-0.02814318012113916
0.7712058743336333
0.2807175129622564
0.3768501822010681
0.06824485713758804
-0.658714462620386
0.658714462604805
0.2147783922940767
0.6958535742608343
-0.05646913227955792
0.3901527835394118
0.3788454432853992
-0.01322595566244595
0.0257359846829678
0.4482689975525023
0.0325317507344926
-0.7385924623134212
0.5339652967517312
0.2008035984019807
0.2998566951512514
-0.1150948547589301
-0.6956530726325767
0.1796096284068255
0.7309790671627333
-0.0102428152659406
-0.8135956677231342
0.8238384830051519
0.6964233755696088
-0.7919486524986376
0.09552527706863233
-0.7535864713328535
-0.1508984650862396
0.2122397916181588
-0.06134132725859542
0.07753593658491142
-0.1782307185722743
-0.1130310307793517
0.2912617513836865
-0.006514344594303492
-0.009285388739396916
0.7063911116146477
-0.7166339249219146
0.8871900512140549
0.07035804794233791
-0.3132459410257182
-0.5222071537854567
0.8354530948432831
0.103769050555713
-0.1037690465971687
0.3269203726838736
0.4748330878554092
0.6129993508986424
-1.087832438827961
-0.1940800364984645
-0.5855524322688049
0.7796324688008374
0.01331053397937077
0.2208780641887616
0.376146173400808
-0.2527152271842961
1.016191938298388
-0.5413588514707073
0.6688119996591499
0.9927518074527332
-0.3797524574754798
0.2288103047997813
0.8842971537096002
0.7126356741235413
0.2139194274519998
0.7277851112337128
-0.7809886145096663
0.3412855369709543
-0.2837003671873512
0.2597831277818428
0.02391723520652841
0.8492732404660326
-0.002139378501668916
-0.8471338616528648
-0.7021706537380829
0.7026776144201824
0.554662600626166
-0.702170655200885
-0.7126356741525116
0.702677613113171
-0.03391608228614353
0.9091876920820442
-0.02199764078140614
-0.6812563128595347
0.6122495351025662
0.06900677773431714
0.5385143413684637
0.5381041269772758
-1.076618468300011
0.4869341756276179
0.5292577627062841
0.5478349763636325
0.4573015097995769
-1.005136486127246
0.4922130756833064
0.5005387323085025
0.6122495385232475
-0.5256524503421927
-0.4665373667262653
-0.5563532204265237
-0.5135701398994015
-0.1223578867475934
-0.01277611825821428
0.01277611734879476
0.5104378697260056
0.5245193351533906
-1.038089474970167
0.5718186050380043
-0.2711781269512463
-0.8832374535147646
0.3440595907963672
-0.6328868126342815
0.3901946069949586
0.000600497087396668
-0.8254874820031776
0.8248869847250879
0.4208725531911889
-0.02464789612861384
0.8739211375602824
-0.947465909262392
-0.8332023578460117
0.05543884890168533
0.7777635087285079
0.5594456770641807
-0.4390543215482448
-0.12039135537362
0.6502643838168612
-0.7294355660489362
0.8878947287736109
-0.8269998188490925
-0.06089491025167736
-0.01470302485221994
-0.7898873866071708
-0.111166337979281
0.7127851489952987
-0.6016188109801487
-0.9409842963274524
0.9262812687299213
-0.7285740250075933
0.6886638247541774
0.03991020013386622
-0.8040325405669762
0.03013921086933623
0.7738933295981654
0.06196693747901236
0.04180211100291568
0.432788565343715
0.05957118822404354
-0.8506983909553933
0.7911272027944579
-0.6462780880985297
0.5919435635588981
0.8883287188455669
0.07359593472065409
-0.9619246536691785
0.0551263612557824
-0.05038691586986809
0.3778941692512017
-0.3819805701778154
0.06554875061598273
0.8406438631675895
-0.8400433700931096
-0.7336744954171843
-0.8156926560175189
0.02580526728539614
-0.1660032169296286
-0.8488103928360886
0.02181056897699453
0.6217143811876195
0.05149348081691053
0.02408172982728558
0.5353639432694921
-0.8151213740499368
0.8452605824012354
0.5657278382575199
-0.8501353819458578
-0.8673883614845384
0.04179933165075942
-0.02705316105350608
0.8343211156429234
-0.8072679546703211
-0.02392341101923773
-0.760727657061446
0.5442841500377458
0.1521392323398194
-0.01919973724456918
0.8931208732837548
0.9817201170737301
0.8620599014165891
-0.8402493353031597
0.1479364345074467
-0.1479364335821726
-0.1175328150926573
-0.4659046774127054
0.02685035652056351
0.2706957645943027
0.03197636373236797
0.3875678115501088
0.8691974610030548
0.009373083472484989
-0.01588743255916703
0.6585844409924855
0.3414155590033963
0.7836488187693922
-0.5836361680698812
-0.7780968070408459
-0.809407334551651
-0.6799128037530744
0.6799128037287714
-0.1682490631490444
-0.1554180214371964
0.6023037383182784
-0.8114250668442872
0.2091213284864523
-0.4940974843840485
-0.5688590927818898
0.2779708937543753
-0.9719478971014992
-0.8990003283433403
0.8381054147201229
-0.8154577071380338
0.8412629717994762
0.6485493083032325
0.1342426788077289
-0.7827919870694953
-0.769497134136198
-0.1464830684192864
0.725132796342737
-0.5786497278011509
0.02980287078770748
-0.01158352320390936
0.0155982090693506
-0.004014686667770327
-0.3526694306452463
-0.1132352530762632
0.8802746410564675
0.7447558005645418
-0.2424342602869595
-0.5023215392758514
0.6243644437749355
0.6858009685225758
-0.471022577853819
0.0001077543327911547
-0.2856012453582087
0.01152369080679722
0.7509949135370373
-0.7625186047072964
-0.3233985793329914
-0.07282413289228058
0.07646355241880881
-0.9674823241276047
0.1203484620487859
-0.6771823777786287
0.05408563128165828
0.6396259928618523
-0.6937116240938744
-0.7560573886209421
0.07887501080788559
0.5889639996512557
-0.6617881326282398
0.1572201368481756
-0.3354508566147821
-0.7716751413493517
0.002178007357006845
0.3710760923754233
0.5996473749071362
-0.02574603593743745
0.01902759147474285
-0.01902759219481992
-0.02025247226202934
-0.04964601362787335
-0.234054330722184
0.02698741858683161
-0.01761434298292801
-0.7201816628106097
0.2793163195049168
0.6794518880494445
-0.6890486356685031
0.00959674739329164
-0.5941769080853602
0.6482625356981905
0.6544961308132105
-0.06553212462137067
-0.6305905920215487
-0.1254667978478755
-1.050450703947932
0.01112159218931397
0.1368148321162632
-0.7086579761979691
-0.7417569368715149
-0.7638579913752458
0.3661412307072091
-0.4053277463975324
0.4611803278268451
-0.05585258250916499
-0.6642856397398894
-0.04437233652226355
0.5006433792381407
0.7306861983344585
-0.2360082834578497
0.1141451808953814
0.9653043192068914
0.4467785946587037
0.1322386152201454
-0.5790172097593915
-0.6765183214654098
0.01223268229645397
-0.04455078113382498
0.03296726576497068
0.6367825379900545
-0.7760987533939162
-0.002095922602763799
0.002095922255385553
-0.6007160381611394
0.6496184384055698
-0.04890239991752453
-0.6524365927783105
-0.1135936018921828
-0.6716299462276618
0.06039195853442146
0.6052858187681602
-0.1375879315742729
-0.8181130197486013
-0.5732870579422733
0.5706425952905577
0.002644464737454012
0.6283681212328774
-0.6187713777152127
0.3225359704864258
0.2136326423259126
-0.536168612840494
-0.104974395992195
-0.6017206139792285
-0.09199101289027688
-0.1539374315177551
-0.5128950837461963
0.4042393902948426
-0.4992348326014004
0.1264803100908193
0.6786710861276921
-0.8051513963872827
0.5991827812118157
-0.3703063634176563
-0.0350213595088067
0.07162442341905051
-0.5845194996826203
0.5513408060554554
-0.04053657183536465
-0.5108042341976726
-0.3132065974389137
0.3058282452281446
0.007378351956378965
0.452385256375908
0.1194333474319971
0.05277551116106707
-0.3166132779896234
0.1576356331392676
0.1589776447600066
0.2390132233409456
-0.01155521859926908
-0.2940942419109024
-0.3106376331281943
0.3500249743832601
-0.03938734105115089
0.7891604607626423
-0.6266697500093408
-0.02576684200807064
0.4993113930343626
0.2848994328189364
-0.5273336900828871
0.577467765142903
-0.5774677651463846
-0.2897611662056852
-0.5864763083158969
-0.295569152750784
-0.5864763087230699
-0.5957834213445901
-0.8384842442330869
0.169908020683691
-0.5998193980598719
0.8211436144357261
-0.003127035299715332
0.1176045333882737
0.4820428412201009
0.09679144502548714
0.1860618244224878
-0.03642512404446799
-0.1496367026072382
-0.02917680151695318
0.5904272562179371
-0.94301475352145
0.4208075982452816
-0.008443930129481055
0.002839991782162082
0.005603936216947844
-0.6441818637534945
-0.1320378356262335
-0.4679062390644455
0.600144859298439
-0.5034756627100403
-0.3227655625111888
-0.2617539332713918
-0.2718035231753897
-0.1114205917196332
0.1114205921437672
0.1533596565324946
0.05888013647498863
0.1971834038117671
0.4496251134777916
-0.5699897935998847
0.1020835623196762
0.2513392082167905
0.4664974508970213
0.5335025482438379
0.6447190766726969
0.08622862780125126
-0.002008871214768408
-0.08421976374038628
-0.277144539017216
-0.5409684804977307
-0.5487243529600145
0.1149146128586064
-0.1267324456280782
0.01181783236002163
-0.1054739450426225
-0.3852509310012021
-0.0505421676065758
0.6558279874384789
-0.4993493809396455
-0.1448324829035433
-0.3280758087748308
0.2866307379867009
0.1293115363926775
-0.6175267653610558
-0.2046741934779628
-0.2631540961540484
0.002244833852984024
-0.4213092394800858
0.3235185412848869
0.09779069750489168
-0.09388379455520315
0.291742524594084
-0.8959481372524971
-0.4573151562500207
0.6266511816811403
-0.7732831290670257
0.66830873304518
0.3397658697926932
-0.124360089362489
0.2237359067619295
-0.09937581641856111
0.02949115036619993
-0.5862339858208133
0.02870250668393563
0.5575314794950684
-0.9005942097947474
0.547964249218801
-0.6654970644860914
-0.1049093427411533
0.1097448805549517
-0.1097448772035894
-0.3165055223029075
0.3584254245259772
0.01946874590600787
0.02579040718360405
0.0604382195602006
0.5046371421073468
0.6670248449898574
-0.7363536235182072
0.0294266070270196
0.01996456384120707
-0.0009369664968197039
-0.006813998910147036
0.006813998670205287
-0.4113739064546734
0.5308072518836119
0.01582671976263226
-0.01582671993943962
-0.7926450180237276
-0.0608654060975864
0.1228323315477842
-0.4548240987163991
0.5569076593018886
0.451480593918232
-0.5003829872192044
0.1503301755690644
-0.1503301753090603
0.03669945912784329
-0.01096345912185654
-0.04227602327831882
-0.9752434636710535
0.537446096032656
-0.4672264870388291
0.04180211374036056
0.5152116113348911
0.03055176238972736
-0.5457633733770939
-0.6165375811409185
0.1171881977530893
-0.3289928505808996
0.01357799069977582
0.3154148601714626
-0.1556044877017979
-0.08040379832892353
-0.5410500701123111
-0.04518391076189163
0.1368148328365713
-0.04029666861180649
0.03820074054783271
0.08073265251036194
-0.08073265727358947
-0.5256082803983896
0.4862209406838126
-0.4149567839188942
0.161302558099635
0.6223462606035003
-0.09697436148282824
-0.003429413782640992
0.003429414136500936
0.5329671304384134
-0.08216282404216445
0.00597582864129538
0.0270699518679822
0.03498810963110503
0.6869675254568107
-0.7691303491903565
-0.6561423214129655
0.6303754746363868
-0.1088010511450613
0.3140795475387438
0.7455531401548776
-0.02025247431836049
-0.2653622745718616
0.1502674284442192
-0.7445888853804792
0.4837673836995205
-0.4277571586941567
-0.1013259579679968
0.003234081492927282
-0.01441481575962926
0.02497854226815634
0.4113771943149651
-0.1215332342835375
-0.3892709995776064
0.6289424645013714
0.01959012057493871
0.009184304662873038
-0.00918430531059404
-0.3508376238421313
-0.07598316707641375
-0.5602239445401096
0.5570969095638503
-0.2373911262495729
0.4646986592689497
-0.150839080459594
0.7313746618191986
0.6693022631937154
-0.0402966786909364
-0.6177810636622887
0.5620103256487804
0.2830643302243649
-0.2778280132041465
-0.00523631891873503
0.5364916732598223
0.09343649279220846
-0.03892143535930931
0.1959346115643381
-0.1570131769848598
0.1196540729451134
-0.1196540760799042
-0.8586202583640494
0.002393749914409297
-0.1135995197823481
0.1406694731389252
-0.1314509390124479
0.1314509393424482
0.01996457902637922
-0.02368188408356693
0.6700041474293097
0.06097492111172694
-0.3225512950034948
-0.06269963719053773
-0.4712720102094757
-0.04501146963081525
-0.1511947841655399
0.151194784118301
-0.04752031631771287
0.1437582939538625
-0.1437582942219577
0.136116861042493
-0.1361168627095823
-0.3162378535473269
-0.114601320508548
0.225893332824526
0.1031468058444099
0.03478177341072349
-0.8212216032858606
-0.1984533351447592
0.1698401870302391
0.02183387694284866
-0.2640891112330644
0.1262828574309364
-0.1262828576655028
-0.4143532497359707
-0.0848815815671434
0.2356088541253451
0.002908328126332691
0.04043596597243829
-0.5445999349391376
0.5785160172304151
-0.03641231988159856
-0.01110800146502974
-0.02469383352462331
0.01373036906334848
0.006571902544103882
-0.1848720237304947
0.1783001208476917
-0.108376120349456
-0.2270747329763479
-0.1443006308832194
0.1443006310992555
0.07236850357662884
-0.07236850327205985
-0.0189041084151626
-0.1085280875194482
0.1274321962699259
0.2342769928030648
-0.183549631765007
-0.02541190810626744
0.02447494531612449
-0.1293358425497037
0.61555678493782
-0.03905208976143933
0.4275718194229317
-0.04261806609701304
0.06589417697609785
-0.152929891782124
0.1529298911970649
-0.6367945490398935
0.3079909843147179
-0.07918068051894483
-0.2339942696472371
0.003636080487897303
-0.120915307965015
0.1613512726418894
0.1954389835758903
0.09582277129299499
0.09647912415945212
-0.06149101363780696
0.07324757556463
0.04166703863498108
0.06422043513539603
0.1056197532013945
-0.1002073653548797
0.2143525396256418
0.01128021170163382
-0.1178217186927444
-0.1001762120985239
0.09592651723250885
0.004249695061373465
0.01078026935193138
-0.02302794254764268
0.03731025799944676
-0.03731025791104023
0.07501929690652828
-0.05541893264312465
0.05541893242461743
-0.224344935648885
-0.05192753252451503
0.01176811493142339
-0.1030995093605191
0.01646277787266801
0.1089038013077987
-0.1089038013824673
0.2932296802129085
-0.2707479403679768
0.1623718238394474
-0.05087931661495114
-0.2198686224044692
-0.01677896340410101
0.01677896337734363
0.3676520037039884
0.285160800898451
-0.5281603758023277
-0.09392473020278111
-0.03280771622793194
0.5289545671694907
0.2095831508009081
-0.1695395112432922
-0.3799791808780876
0.07655472907543623
-0.1471021950301483
0.1866891358785796
-0.03958694070688276
-0.06723675381742386
0.06723675361019849
0.8221078692151952
-0.5603309957428421
-0.005122631925924201
0.01590289809890266
-0.02003035609297504
-0.2874558594357601
-0.01747542103973746
-0.01284969359193499
-0.1322304834047211
-0.572348537758999
0.5561535925039687
-0.5688942154710049
-0.006894156382577045
0.09976187106442334
-0.001735108014681521
0.01681303765057924
-0.1671325564982518
-0.3360394207413006
0.2329399112625034
-0.05396234148434337
0.03505823499709613
0.1322112249180167
0.17361702250971
0.3425563418950455
0.2757734853926221
-0.2775085934008982
-0.06197546261929771
-0.1552446337336398
-0.2204162779392536
0.07449364199743977
-0.01027320606469047
0.213405840299037
-0.1965928022689317
-0.08626045070939363
0.1595080206791659
-0.3552615653869151
0.2078924911632067
-0.1914297128672802
0.08961137661297884
-0.4788823716023508
0.1738394425403409
0.1708410244991545
-0.2571014757975106
0.07345118151263991
-0.1949690919553494
0.1774936704787423
0.01737908204569185
0.1421289376595227
-0.03959221864485105
0.06562261997939271
0.467344509907998
0.02053129811092679
-0.08605832566087396
0.05419639279998455
0.1262546528225847
-0.260003222430095
-0.2309435300320211
0.5597367055101581
0.1568564110158346
0.07875244407697747
0.07455433863555734
-0.03105717183385975
-0.00546233304475502
0.0002260100124186252
-0.03260567355406056
0.1705813674835204
-0.177475523543604
-0.06107978052986433
0.01935231462221743
-0.1472429535980398
-0.05284014624483908
0.1532727617564635
0.2770373343215793
-0.04021331051926799
0.008268018623939378
-0.255217907050096
-0.1323313223965183
0.2363897781067771
0.1783765049480576
0.1296144741381679
0.02197612499240016
0.08838011074362687
0.05240121893165552
0.4522359230857738
0.01552988315942971
0.09812382824666671
0.04287887257042852
0.0723999380451623
-0.1152788112180518
-0.2429995743522298
-0.2003526338943994
-0.01951598875202083
-0.2018450348787275
0.274733893578291
)
;

boundaryField
{
    FrontBack
    {
        type            empty;
    }
    Top
    {
        type            calculated;
        value           uniform 0;
    }
    In
    {
        type            calculated;
        value           uniform -1;
    }
    Bottom
    {
        type            calculated;
        value           uniform 0;
    }
    Out
    {
        type            calculated;
        value           nonuniform List<scalar> 10(1.034769152266489 1.064166791344604 1.02289058715239 1.021470838770473 0.9954056361635787 1.014108871961404 1.034957205914804 1.062956577114407 0.8672289324725486 0.8820454610974768);
    }
    circle
    {
        type            calculated;
        value           uniform 0;
    }
}


// ************************************************************************* //
