/*--------------------------------*- C++ -*----------------------------------*\
| =========                 |                                                 |
| \\      /  F ield         | OpenFOAM: The Open Source CFD Toolbox           |
|  \\    /   O peration     | Version:  2412                                  |
|   \\  /    A nd           | Website:  www.openfoam.com                      |
|    \\/     M anipulation  |                                                 |
\*---------------------------------------------------------------------------*/
FoamFile
{
    version     2.0;
    format      ascii;
    arch        "LSB;label=32;scalar=64";
    class       surfaceScalarField;
    location    "19.6";
    object      phi;
}
// * * * * * * * * * * * * * * * * * * * * * * * * * * * * * * * * * * * * * //

dimensions      [0 3 -1 0 0 0 0];

oriented        oriented;

internalField   nonuniform List<scalar> 
1171
(
-0.945491
0.945491
0.77529
-1.08599
0.310702
-0.204097
-0.758174
0.962271
0.054509
-0.0678155
-0.278
0.345815
-0.77529
0.0874031
0.687887
0.927536
-0.212115
-0.715421
0.830438
-1.05241
0.221971
-0.356784
-0.0387099
0.395494
-0.00380548
0.60494
-0.601135
-0.584419
0.964514
-0.380095
-0.4246
1.00981
-0.179374
0.218994
0.101628
-0.320622
0.971904
0.0379071
0.260579
-0.0415847
1.00658
-0.0346776
0.691949
-0.896047
-0.785701
0.611085
0.174616
0.228653
-0.813073
0.556707
-0.913423
0.356716
-1.08098
0.672264
0.408713
-0.644679
0.640873
0.0303181
-0.249122
0.218804
0.043497
-0.639115
0.595618
0.467355
-0.506065
-0.836377
0.877859
-0.0414818
0.988695
0.0178867
0.904525
-1.06028
0.155752
1.01109
-0.0223938
-0.697755
-0.0879454
1.2612
-0.851951
-0.409253
0.174712
-0.0784075
-0.410586
0.488993
-0.273629
0.187005
0.0866236
-0.605401
-0.480591
0.973221
-0.0686963
-0.0309796
0.888342
-0.857363
0.509563
0.751642
0.526533
0.0212125
0.446143
-0.79188
-0.105915
0.897795
0.582088
0.241364
-0.823452
0.0576879
0.597009
-0.654697
-0.5105
-0.570477
-0.381812
-0.678465
0.026581
0.247336
-0.273917
-0.957736
-0.0351282
0.992864
0.37444
0.0210541
0.838093
0.089443
-0.603083
-0.0415954
0.0345898
-0.82647
0.104359
0.934816
-1.03918
-0.405891
0.0315293
0.374361
-0.716809
-0.240927
-0.738959
0.843319
0.722182
0.242332
-0.579922
1.00059
-0.820171
-0.180416
-0.157154
0.0560077
0.101146
-0.459848
-0.0462168
-0.30365
1.02583
-0.00339322
0.430883
-0.42749
-0.517456
1.09954
0.715587
-0.821503
0.39366
-0.0705053
-0.323155
0.759816
-0.759816
-0.897551
0.0412209
-0.319221
-0.697951
0.666971
-0.0347181
-0.145821
0.18054
0.889399
-0.00105648
1.05055
-0.80919
0.225434
-0.322164
0.0967306
0.961531
-0.123438
-0.6731
-0.0544063
0.727506
0.148859
-0.229991
0.0811321
0.796204
-1.00832
-0.439254
0.309089
0.130164
0.685292
-0.641795
0.864606
-0.392248
-0.472358
0.482794
-0.693979
0.035268
0.658711
0.138079
0.665439
0.0440443
-0.709483
0.13735
-0.0961295
-0.509529
0.103638
0.0368113
-0.905538
0.868727
-0.537487
-0.758952
0.0611963
0.500342
-0.0541993
0.27599
-0.833394
0.557404
0.424634
0.575366
0.599405
-0.564816
-0.390267
-0.00977259
0.400039
0.534477
0.225339
-0.675412
0.7331
0.0897562
0.883607
0.00658824
-0.679688
-0.764655
0.801466
0.611033
0.110141
0.34606
-0.456201
-0.154205
0.557055
0.0399542
0.869306
-0.841704
-0.0276021
0.661881
0.338707
-0.433267
0.696366
-0.586225
0.408935
0.147771
-0.054928
-0.716105
-0.228442
0.944547
-0.12127
-0.638546
-0.613492
0.362219
0.251273
0.662188
-0.6556
0.311097
1.03443
0.0161241
-0.764655
-0.189438
0.0322841
0.715587
0.788007
-0.788007
0.844342
-0.83029
-0.0140518
-0.453815
0.878449
-0.193169
-0.31636
0.763925
-0.670964
-0.0929603
-0.930612
0.214506
0.109812
-0.712895
0.821503
-0.975708
-0.202297
0.188127
0.0141698
0.109771
-1.00113
0.891354
0.544593
-0.0180602
-0.288626
0.59453
-0.305904
-0.65499
0.764762
-0.157983
0.659538
-0.868897
0.209359
1.12531
-0.696306
-0.429
0.733079
-0.0686028
-0.00172708
0.000554953
0.00117213
-0.800547
-0.84283
0.084656
-0.697951
0.576024
-0.544495
0.218276
0.6289
-0.847177
0.778707
0.166785
0.490497
0.509503
-0.0772391
-0.711071
0.78831
0.939891
-0.070585
-0.733079
0.801466
0.18169
-0.430812
-0.0242858
0.0105144
0.0137713
0.674626
-0.429718
-0.244908
0.687887
-0.0590796
-0.183292
0.568402
0.106224
-0.0179559
0.00129531
0.0166606
0.00536708
-0.00709416
0.144983
-0.215489
-0.94599
0.0333052
-0.144524
-0.0573139
0.135502
0.795894
0.741972
-0.166606
0.582675
-0.364399
-0.163385
0.388818
0.638866
0.0490211
0.229542
-1.05983
-0.975708
0.320241
0.666971
-0.163517
0.0176957
-0.829199
1.02448
-0.195283
0.481087
-0.106726
0.800124
0.306021
0.274884
-0.0143056
-0.680852
0.680852
0.227008
0.670787
-0.0224135
0.453296
0.46658
0.0105003
-0.0347861
0.54218
0.00241266
-0.65499
0.571005
0.192919
-0.0072011
0.00775605
-0.638866
0.161055
0.863427
0.028911
-0.718092
0.689181
0.760948
-0.821295
0.0603476
-0.778707
-0.0354116
0.0498047
-0.0143931
0.0865771
-0.116994
-0.102145
0.219139
-0.00787878
-0.0100771
0.757827
-0.728916
0.947769
0.0145025
-0.333971
-0.565814
0.899785
-0.00129712
0.00129712
0.178355
0.479102
0.508647
-0.987749
-0.194613
-0.549099
0.743712
-0.0195135
0.200053
0.380478
-0.231619
1.03871
-0.559612
0.830549
0.966405
-0.457758
0.187309
0.764762
0.585388
0.236086
0.641773
-0.638546
0.319148
-0.0118646
-0.000884366
0.0127489
0.927616
0.0474447
-0.97506
-0.55071
0.528317
0.546185
-0.55071
-0.585388
0.528317
0.00988007
0.960078
-0.0123093
-0.534477
0.44771
0.0867664
0.535864
0.635037
-1.1709
0.522896
0.515819
0.653399
0.530093
-1.18349
0.528125
0.43828
0.44771
-0.513009
-0.502412
-0.646369
-0.593125
-0.239996
-0.00733993
0.00733993
0.622895
0.536636
-1.12976
0.701012
-0.354953
-1.0584
0.362093
-0.696375
0.455448
-0.0592857
-0.920677
0.979963
0.453346
-0.108854
1.03647
-1.07293
-1.03954
0.137765
0.901777
0.308608
-0.222075
-0.0865329
0.734851
-0.803548
0.992015
-0.96102
-0.0309956
-0.0511848
-0.790519
-0.203883
0.892182
-0.688299
-1.06063
1.00945
-0.62242
0.543489
0.0789309
-0.679785
-0.0683752
0.74816
0.00382341
-0.00512053
0.423761
0.0809154
-0.945379
0.864464
-0.810024
0.732784
1.06986
0.119416
-1.18928
0.0303197
-0.0131519
0.413191
-0.361477
0.0393125
0.915412
-0.974698
-0.665282
-0.76702
-0.023499
-0.154016
-0.935192
-0.0258273
0.413061
0.169614
-0.0255868
0.334195
-0.696781
0.628406
0.472358
-1.02953
-0.941218
0.0188603
0.037137
0.622795
-0.659932
0.0447705
-0.628145
0.578875
0.182073
0.0739866
0.962483
1.14721
0.927492
-0.95332
0.0468674
-0.0468674
-0.0733932
-0.0392169
-0.182858
0.337733
-0.0174928
0.215805
1.00725
0.00760145
-0.0154802
0.657357
0.342643
0.796518
-0.605401
-0.760169
-0.612487
-0.486835
0.486835
-0.208984
-0.110236
0.654328
-0.923674
0.269346
-0.473551
-0.535042
0.333259
-1.01172
-0.948349
0.917353
-0.687311
0.663812
0.66026
0.197041
-0.857301
-0.533556
-0.187618
0.858403
-0.670785
-0.0589047
0.00750283
0.00203532
-0.00953815
-0.0554817
0.0162648
0.987587
0.614405
-0.267393
-0.347012
0.527872
0.7521
-0.525092
0.0144949
-0.288124
-0.0313538
0.794404
-0.76305
-0.351464
-0.0769236
0.146307
-1.06334
0.0882824
-0.726633
0.114315
0.729001
-0.843316
-0.88444
0.157807
0.714666
-0.791589
0.234107
-0.351101
-0.560163
0.0266073
0.367949
0.715509
-0.0191433
-0.00275526
0.00275526
-0.00604463
0.0222932
-0.0341577
-0.0162798
0.0238813
-0.39055
0.3403
0.759472
-0.818444
0.0589722
-0.681656
0.795971
0.80174
-0.087075
-0.690326
-0.194114
-1.11992
0.0209848
0.0258826
-0.421903
-0.894209
-0.866122
0.456868
-0.159704
0.203022
-0.0433184
-0.300657
-0.121246
0.482133
0.711866
-0.0482847
-0.00902924
1.03674
0.537504
0.164606
-0.70211
-0.284141
-0.0165159
-0.00382835
0.0113312
0.723157
-0.951598
0.00487858
-0.00487858
-0.731542
0.769921
-0.0383793
-0.309728
-0.13127
-0.697617
0.168128
0.620182
-0.0549252
-0.885235
-0.401055
0.22891
0.172144
0.744788
-0.685815
0.357669
0.2524
-0.610069
-0.171052
-0.700333
-0.142983
-0.194038
-0.232927
0.470111
-0.516327
0.181677
0.747722
-0.929399
0.482794
-0.18829
0.0285865
-0.0261239
-0.206803
0.594583
-0.0952246
-0.499358
-0.287114
0.307894
-0.0207799
0.575377
0.125635
0.101407
-0.31355
0.171591
0.141958
-0.112294
-0.0771442
-0.340173
0.138418
-0.116662
-0.0217555
0.918832
-0.204086
-0.105643
0.552928
0.330178
-0.597571
0.398375
-0.398375
-0.203475
-0.39411
-0.221489
-0.39411
-0.732409
-0.852146
0.181182
-0.386944
0.734902
0.0500878
0.12672
0.588789
0.110186
0.119832
0.00973136
-0.129563
-0.158034
0.652186
-0.988164
0.42235
-0.0599862
0.0728969
-0.0129107
-0.75786
-0.177264
-0.588743
0.75335
-0.517001
-0.0709863
-0.135816
-0.340648
-0.0796197
0.0796197
0.0498123
-7.50457e-06
0.140817
0.125878
-0.702097
0.113353
-0.0608706
0.473085
0.526915
0.834192
0.01995
0.0125217
-0.0324717
-0.300382
-0.584853
-0.534396
0.115733
-0.120357
0.00462397
-0.156622
-0.411585
-0.152536
0.772718
-0.590613
-0.167247
-0.0149786
0.00329923
0.256248
-0.485645
-0.199253
-0.191557
-0.0239318
-0.470287
0.431263
0.0390239
-0.0682852
0.294856
-0.865333
-0.534868
0.614684
-0.883224
0.712172
0.440144
-0.0296124
0.052607
-0.0229946
0.110156
-0.635225
-0.00937898
0.644604
-0.893047
0.653405
-0.726798
-0.0708109
0.00734798
-0.00734798
-0.299055
0.416005
-0.00281331
0.000641377
0.0193086
0.591889
0.565399
-0.593001
0.0111558
0.00068209
-0.00343735
0.00540205
-0.00540205
-0.47067
0.596305
0.0156205
-0.0156205
-0.780973
-0.00847077
0.0122942
-0.509439
0.622793
0.600434
-0.638813
0.0700292
-0.0700292
-0.0134956
-0.0212905
0.00849624
-1.07663
0.647628
-0.513988
-0.00512053
0.608735
0.00475288
-0.613488
-0.714165
0.123551
-0.314039
-0.0134847
0.327523
-0.0258804
-0.0224042
-0.609255
-0.0259703
0.0258826
0.00554784
-0.000669261
-0.00316448
0.00316448
-0.212745
0.190989
-0.473951
0.134706
0.661812
-0.113321
0.00479058
-0.00479058
0.508353
-0.15145
0.0086451
0.0185347
0.00028152
0.590929
-0.742378
-0.72484
0.619197
-0.0979838
0.332151
0.781961
-0.00604463
-0.0822363
0.0899923
-0.631325
0.54709
-0.289833
-0.10543
-0.0303803
-0.0261668
-0.00375808
0.468993
-0.0847145
-0.414644
0.711115
0.00193789
0.00315884
-0.00315884
-0.191104
-0.0868664
-0.570163
0.620251
-0.131757
0.509815
-0.184039
0.875989
0.809993
0.00554784
-0.744718
0.626701
0.0490524
0.00130234
-0.0503547
0.550912
0.0927246
-0.011513
0.063923
-0.0524099
0.00834856
-0.00834856
-0.738516
0.0231618
-0.0446873
0.0632219
-0.0852967
0.0852967
0.00068209
-0.00125405
0.752727
0.1107
-0.31568
-0.0959042
-0.519976
0.0340738
-0.0655984
0.0655984
-0.0459673
0.0821455
-0.0821455
0.0256318
-0.0256318
-0.358004
-0.0752635
0.238938
0.0701515
0.0493357
-0.734498
-0.0633959
0.159626
0.0220637
-0.23618
0.0820221
-0.0820221
-0.467452
-0.0488759
0.228434
-0.00962965
0.00238336
-0.668038
0.658158
-0.00776853
-0.0381988
0.0512887
-0.0725791
-0.0121163
-0.158243
0.170359
-0.148831
-0.20227
-0.0802533
0.0802533
0.0539947
-0.0539947
-0.0277986
-0.0936141
0.121413
-0.0382854
-0.190384
-0.00161767
-0.00181968
-0.139758
0.330747
-0.025625
0.483035
0.00936616
0.00729444
-0.0498063
0.0498063
-0.736177
0.315073
-0.127763
-0.206849
-0.0231426
-0.0161766
0.01856
0.191606
0.0275329
-0.00181742
0.00209894
0.0856835
0.0300498
0.0563821
0.103244
-0.0182506
0.00922137
-0.00171974
0.00563067
0.00510392
0.000924155
-0.00602807
-0.00247675
0.0113041
0.0272128
-0.0272128
0.0477464
-0.0435421
0.0435421
-0.189885
0.0129251
0.0311163
-0.0751011
0.0172833
0.0782159
-0.0782159
0.23063
-0.232841
0.0840107
-0.0661613
-0.16668
-0.014843
0.014843
0.408009
0.250703
-0.521388
-0.0806232
-0.039734
0.542715
0.0130032
-0.0547033
-0.452936
0.103577
-0.15156
0.168363
-0.0168027
-0.0481661
0.0481661
0.885538
-0.58987
-0.00485748
0.00238073
-0.00567698
-0.2875
-0.000123466
0.00504346
-0.0457002
-0.630522
0.568852
-0.667989
0.0146549
0.114537
0.0157921
0.0241744
-0.157237
-0.3327
0.257599
-0.0545805
0.0267819
0.172599
0.135295
0.249878
0.261842
-0.24605
0.00443466
-0.114901
-0.220333
0.0669503
-0.0105682
0.158254
-0.134079
-0.068531
0.154214
-0.415589
0.118571
-0.101288
0.0580817
-0.472725
0.173406
0.179809
-0.24834
0.00948663
-0.179146
0.179023
0.00380617
0.150408
-0.0279216
0.0477818
0.460571
0.0123698
0.0145246
-0.00209628
0.0370551
-0.237136
-0.202535
0.590786
0.166985
0.0614492
0.0740955
-0.0639579
0.037881
-0.0882358
-0.0304635
0.164918
-0.150263
0.0107666
-0.00667716
-0.106402
-0.0287382
0.0199879
0.2515
-0.0127919
-0.0346981
-0.308996
-0.00947913
0.219122
0.137542
0.177531
0.0569656
0.0957876
0.062979
0.52891
-0.00774781
0.106382
0.0410317
0.0676556
-0.108687
-0.270686
-0.194507
0.0278272
-0.221226
0.281169
)
;

boundaryField
{
    FrontBack
    {
        type            empty;
    }
    Top
    {
        type            calculated;
        value           uniform 0;
    }
    In
    {
        type            calculated;
        value           uniform -1;
    }
    Bottom
    {
        type            calculated;
        value           uniform 0;
    }
    Out
    {
        type            calculated;
        value           nonuniform List<scalar> 10(1.17629 1.04887 1.14878 1.04394 1.16513 1.03141 1.15953 1.00859 0.601849 0.615599);
    }
    circle
    {
        type            calculated;
        value           uniform 0;
    }
}


// ************************************************************************* //
