/*--------------------------------*- C++ -*----------------------------------*\
| =========                 |                                                 |
| \\      /  F ield         | OpenFOAM: The Open Source CFD Toolbox           |
|  \\    /   O peration     | Version:  2412                                  |
|   \\  /    A nd           | Website:  www.openfoam.com                      |
|    \\/     M anipulation  |                                                 |
\*---------------------------------------------------------------------------*/
FoamFile
{
    version     2.0;
    format      ascii;
    arch        "LSB;label=32;scalar=64";
    class       volScalarField;
    location    "139";
    object      yPlus;
}
// * * * * * * * * * * * * * * * * * * * * * * * * * * * * * * * * * * * * * //

dimensions      [0 0 0 0 0 0 0];

internalField   uniform 0;

boundaryField
{
    FrontBack
    {
        type            empty;
    }
    Top
    {
        type            calculated;
        value           nonuniform List<scalar> 
15
(
142.274224637733
133.5696749865524
138.0696333482135
144.4026801210965
159.7706470511914
131.3685918976756
140.1238192926611
135.3573918990977
153.4347120740956
135.7445134181579
136.0935208206142
136.772382011207
125.2453438978264
132.9029792507182
123.9470182062435
)
;
    }
    In
    {
        type            calculated;
        value           uniform 0;
    }
    Bottom
    {
        type            calculated;
        value           nonuniform List<scalar> 
15
(
155.5652607817212
158.1131827354908
141.0912667320683
142.0677581482455
141.1831854999816
148.4431868230333
142.7048757674082
143.165632510288
143.423880274248
134.0566885288409
125.7330393307804
141.5533769027558
122.411730938457
123.491724922468
124.1399305237578
)
;
    }
    Out
    {
        type            calculated;
        value           uniform 0;
    }
    circle
    {
        type            calculated;
        value           nonuniform List<scalar> 
32
(
56.3686581526352
22.1146078514922
65.32186573675811
23.75220878926503
19.13500340422003
56.17862055812422
56.81587249320542
24.17006718583872
22.33590396399785
65.5407266313284
40.19387337025984
63.05249007100983
50.30439083513743
13.59192444258138
23.69708483204159
18.99366674885198
38.88038111193669
59.59195604993084
61.00977390355267
25.08259450634233
65.71928152424424
63.82108686930024
62.9507759005966
59.9219714031471
64.09915515928918
45.96228062683803
66.36008758852159
32.08495933263558
38.00301065501449
55.75043729420124
21.10526381643928
43.15126592722105
)
;
    }
}


// ************************************************************************* //
