/*--------------------------------*- C++ -*----------------------------------*\
| =========                 |                                                 |
| \\      /  F ield         | OpenFOAM: The Open Source CFD Toolbox           |
|  \\    /   O peration     | Version:  2412                                  |
|   \\  /    A nd           | Website:  www.openfoam.com                      |
|    \\/     M anipulation  |                                                 |
\*---------------------------------------------------------------------------*/
FoamFile
{
    version     2.0;
    format      ascii;
    arch        "LSB;label=32;scalar=64";
    class       surfaceScalarField;
    location    "37.7";
    object      phi;
}
// * * * * * * * * * * * * * * * * * * * * * * * * * * * * * * * * * * * * * //

dimensions      [0 3 -1 0 0 0 0];

oriented        oriented;

internalField   nonuniform List<scalar> 
1171
(
-0.945108
0.945108
0.765286
-1.07367
0.308388
-0.0913046
-0.714084
0.805389
0.0548919
-0.0765735
-0.279511
0.356085
-0.765286
0.0809076
0.684378
0.906378
-0.208374
-0.698004
0.838246
-1.07564
0.237391
-0.354427
-0.0493658
0.403793
-0.0145866
0.605576
-0.59099
-0.634121
0.923569
-0.289448
-0.431
1.02181
-0.183569
0.208595
0.105115
-0.31371
0.971164
0.0506507
0.253268
-0.0446725
1.00525
-0.0340841
0.728681
-0.819985
-0.775992
0.600615
0.175377
0.137867
-0.771988
0.551299
-0.911046
0.359747
-1.07929
0.669937
0.409358
-0.643414
0.628827
0.0257384
-0.244969
0.21923
0.0479985
-0.637567
0.589568
0.46179
-0.511156
-0.849803
0.894764
-0.0449609
0.989023
0.0162254
0.905641
-1.07173
0.166089
0.998395
-0.00937181
-0.69522
-0.0807724
1.30605
-0.8703
-0.435746
0.148592
-0.0946311
-0.395578
0.490209
-0.27436
0.19108
0.0832797
-0.598748
-0.474926
0.999959
-0.0943183
-0.0318573
0.892905
-0.861048
0.521149
0.784897
0.510945
0.00798516
0.453805
-0.789658
-0.10913
0.898787
0.556565
0.259266
-0.815831
0.0642821
0.599367
-0.663649
-0.508183
-0.571112
-0.381983
-0.689747
0.0179246
0.25499
-0.272915
-0.959072
-0.0338065
0.992879
0.37043
0.0333624
0.816263
0.0901149
-0.594854
-0.0485599
0.0359529
-0.825611
0.0433445
0.979837
-1.02318
-0.401868
0.0295717
0.372297
-0.71132
-0.247752
-0.76221
0.805555
0.804631
0.118939
-0.583004
0.992348
-0.810836
-0.181513
-0.249559
0.171442
0.0781171
-0.457119
-0.0540369
-0.279058
1.08369
0.0218376
0.409165
-0.431002
-0.548048
1.10461
0.710221
-0.81935
0.394917
-0.0538559
-0.341061
0.793691
-0.793691
-0.837496
0.0479153
-0.327427
-0.69888
0.667023
-0.0439907
-0.152164
0.196155
0.890164
0.00274132
1.05849
-0.799228
0.225991
-0.325413
0.0994221
0.923326
-0.107063
-0.662497
-0.0542313
0.716729
0.147297
-0.22856
0.0812632
0.787307
-0.995681
-0.434006
0.307557
0.126449
0.685867
-0.637868
0.879927
-0.403218
-0.476709
0.497944
-0.694883
0.0346722
0.660211
0.107495
0.648477
0.0479326
-0.69641
0.147033
-0.0991174
-0.505952
0.104084
0.0351765
-0.89531
0.860133
-0.532452
-0.751253
0.0560334
0.497319
-0.0435136
0.277883
-0.834794
0.556911
0.423865
0.576135
0.598382
-0.562429
-0.416755
0.0294218
0.387333
0.553319
0.240373
-0.681188
0.74547
0.101741
0.868214
0.00671277
-0.66921
-0.760814
0.795991
0.594246
0.100485
0.329046
-0.429531
-0.155674
0.582213
0.0171537
0.882939
-0.890472
0.00753323
0.6606
0.331748
-0.439195
0.669196
-0.568711
0.408267
0.143032
-0.05072
-0.744732
-0.242852
0.987584
-0.129659
-0.664033
-0.615257
0.361144
0.254113
0.655957
-0.649244
0.312094
1.03634
0.0221576
-0.760814
-0.131723
-0.117836
0.710221
0.783407
-0.783407
0.839277
-0.823067
-0.0162097
-0.453864
0.877728
-0.190949
-0.315003
0.763712
-0.674415
-0.0892968
-0.965409
0.220677
0.118554
-0.713408
0.81935
-0.975024
-0.25053
0.21471
0.0358197
0.110236
-1.01991
0.909671
0.537967
-0.0270216
-0.289943
0.593947
-0.304005
-0.66846
0.778696
-0.154879
0.595712
-0.897735
0.302023
1.08195
-0.71749
-0.364463
0.732687
-0.0685951
0.00699229
-0.00668296
-0.000309332
-0.799813
-0.785516
0.0714318
-0.69888
0.572131
-0.54256
0.312791
0.601917
-0.914709
0.777024
0.168084
0.491578
0.508422
-0.128613
-0.726779
0.855392
1.05395
-0.171011
-0.732687
0.795991
0.184455
-0.429424
-0.0317205
0.0213805
0.01034
0.670349
-0.428356
-0.241992
0.684378
-0.0740803
-0.189804
0.564853
0.105496
-0.0252325
0.000245325
0.0249872
0.00667038
0.000321911
0.183289
-0.237145
-0.938285
0.0164296
-0.142294
-0.067241
0.131831
0.825555
0.741341
-0.165206
0.698544
-0.385753
-0.166379
0.39237
0.646302
0.0380763
0.233917
-1.05698
-0.975024
0.326917
0.667023
-0.173778
0.0216132
-0.841985
1.06727
-0.225288
0.477092
-0.104795
0.791538
0.305117
0.294686
-0.0414179
-0.680342
0.680342
0.232098
0.666689
-0.0425028
0.451667
0.447706
0.00302093
-0.0347414
0.520778
0.0171885
-0.66846
0.565896
0.197815
-0.0109244
0.00424148
-0.646302
0.165966
0.901306
0.0363757
-0.736196
0.69982
0.75837
-0.820944
0.0625748
-0.777024
-0.0448063
0.0618889
-0.0170826
0.0889541
-0.118592
-0.100541
0.219133
-0.00757703
-0.0176555
0.778215
-0.741839
0.952471
-0.147083
-0.209791
-0.619046
0.828837
-0.000431555
0.000431555
0.244132
0.572439
0.296153
-0.868592
-0.190314
-0.551569
0.741883
-0.0172735
0.213429
0.377976
-0.230679
0.977695
-0.405256
0.8584
0.922355
-0.626202
0.187028
0.778696
0.595127
0.242212
0.652552
-0.664033
0.319658
-0.0555977
0.0930773
-0.0374795
0.934996
0.0655477
-1.00054
-0.561043
0.551671
0.546136
-0.561043
-0.595127
0.551671
0.00467835
0.865284
0.0871878
-0.553319
0.46211
0.0912085
0.559411
0.662637
-1.22205
0.578389
0.399306
0.638645
0.590492
-1.22914
0.621486
0.300869
0.46211
-0.539039
-0.482106
-0.647723
-0.641737
-0.295818
-0.00999159
0.00999159
0.599847
0.485799
-1.12754
0.645296
-0.31625
-1.05736
0.339869
-0.695872
0.44812
-0.106504
-0.888287
0.994791
0.451399
-0.193127
1.12812
-0.972002
-1.10092
0.221151
0.879769
0.354974
-0.342258
-0.0127169
0.721624
-0.815942
0.940694
-0.939667
-0.00102679
-0.0740352
-0.816437
-0.235265
0.892492
-0.657227
-1.08815
1.01411
-0.652866
0.474418
0.178448
-0.511726
-0.261178
0.772904
0.00503293
-0.00546448
0.420915
0.0313079
-0.905897
0.874589
-0.841756
0.713143
1.11892
0.130446
-1.24936
0.0179968
-0.0460923
0.433425
-0.364845
0.0394325
0.905835
-1.01234
-0.658809
-0.680487
-0.13595
-0.144566
-0.872853
-0.0668137
0.350843
0.347701
-0.0500589
0.405033
-0.804577
0.543399
0.476709
-1.08141
-0.957701
-0.0924175
0.112959
0.628199
-0.741158
0.121938
-0.54585
0.578163
0.180207
0.176379
0.951745
1.23526
0.889672
-0.956486
0.0500179
-0.0500179
-0.0730154
-0.0514961
-0.290762
0.329261
-0.00234456
0.220605
1.07368
0.0179784
-0.0255554
0.656187
0.343813
0.796694
-0.598748
-0.761152
-0.67561
-0.50671
0.50671
-0.211094
-0.116332
0.655847
-0.887802
0.231955
-0.470361
-0.540908
0.307711
-0.997458
-0.881135
0.880109
-0.735946
0.599996
0.658793
0.191682
-0.850475
-0.497162
-0.193538
0.852798
-0.65926
-0.192547
0.0164275
0.00138718
-0.0178147
-0.250351
0.198855
0.963558
0.584402
-0.187766
-0.396636
0.571685
0.752393
-0.520295
0.0171069
-0.291467
-0.190774
0.822697
-0.631923
-0.338665
-0.0962855
0.143775
-1.0972
0.0966549
-0.69612
0.123016
0.704812
-0.827829
-0.87728
0.181159
0.696453
-0.792738
0.231293
-0.349885
-0.652725
0.155563
0.369546
0.682147
-0.0129513
-0.00786665
0.00786665
-0.00974626
0.0232469
-0.0788447
-0.0142208
0.0321992
-0.305024
0.338595
0.730001
-0.794927
0.0649262
-0.630809
0.753825
0.795086
-0.0986332
-0.67665
-0.20063
-1.11808
0.0213351
0.0286828
-0.495798
-0.911915
-0.893397
0.457651
-0.0909939
0.163552
-0.0725583
-0.268507
-0.227291
0.427748
0.711079
-0.0685357
0.00129466
0.941636
0.55569
0.116128
-0.671818
-0.252993
-0.0155135
-0.00172038
0.0181479
0.7338
-0.976652
0.00354305
-0.00354305
-0.729989
0.798997
-0.069008
-0.303052
-0.171773
-0.687293
0.241136
0.614256
-0.0620798
-0.880831
-0.52937
0.237979
0.29139
0.702084
-0.637157
0.364124
0.240248
-0.604372
-0.178115
-0.673035
-0.154794
-0.1743
-0.288234
0.46445
-0.518487
0.177655
0.756053
-0.933708
0.497944
-0.254932
0.163938
0.0455663
-0.3338
0.590112
-0.0920886
-0.498023
-0.29249
0.312596
-0.0201053
0.540663
0.104633
0.122051
-0.31703
0.174331
0.142699
-0.013161
-0.118562
-0.423581
-0.0324053
-0.0410395
0.0734449
0.955055
-0.148028
-0.155025
0.548055
0.37814
-0.565906
0.414528
-0.414528
-0.206495
-0.401588
-0.218635
-0.401588
-0.791711
-0.852235
0.17782
-0.438789
0.761522
0.0475522
0.102828
0.579319
0.111473
0.126365
0.00735143
-0.133716
-0.20081
0.596674
-0.91949
0.300444
-0.139179
0.100423
0.0387557
-0.757893
-0.17601
-0.587064
0.703192
-0.511881
-0.148686
-0.185115
-0.343406
-0.0788438
0.0788438
0.0599761
0.00191282
0.1477
0.0449903
-0.643491
0.0564272
-0.0461019
0.473697
0.526303
0.835194
0.0185286
0.0211001
-0.0396288
-0.303236
-0.577595
-0.494056
0.11899
-0.123288
0.00429783
-0.17759
-0.407092
-0.204385
0.818641
-0.583095
-0.174798
0.0227566
-0.00790351
0.330358
-0.613044
-0.203743
-0.215479
-0.0216657
-0.466392
0.426955
0.039437
-0.0699043
0.294682
-0.865794
-0.521033
0.617831
-0.887884
0.709769
0.405575
-0.0321028
0.0537687
-0.0216659
0.116668
-0.633774
-0.0071113
0.640885
-0.8889
0.652183
-0.725198
-0.0393815
0.00897204
-0.00897204
-0.299923
0.385146
0.0482797
-0.00874721
0.0272758
0.581295
0.568148
-0.560615
0.0126332
-0.00333423
-0.00453242
0.00627381
-0.00627381
-0.437276
0.541909
0.0174553
-0.0174553
-0.778162
-0.0104856
0.0155185
-0.490243
0.54667
0.587269
-0.656277
0.0732673
-0.0732673
-0.0134147
-0.0213266
-0.00205062
-1.06425
0.699788
-0.509834
-0.00546448
0.603862
0.00780446
-0.611666
-0.711168
0.128073
-0.312134
-0.012353
0.324487
-0.0383104
-0.0302253
-0.606638
-0.0271359
0.0286828
0.00517619
-0.00163314
-0.00283541
0.00283541
-0.0966571
0.170102
-0.485589
0.137278
0.659416
-0.0924988
0.00925382
-0.00925382
0.508369
-0.208011
0.00940359
0.0197108
0.000809332
0.584351
-0.792361
-0.734499
0.579474
-0.124689
0.345456
0.802894
-0.00974626
-0.080412
0.0846535
-0.644987
0.535216
-0.329681
-0.107306
-0.0284752
-0.0267449
0.00687936
0.464895
-0.0870647
-0.410959
0.712511
0.00371777
0.000376706
-0.000376706
-0.206653
-0.0516668
-0.569458
0.61701
-0.132644
0.506883
-0.147616
0.876297
0.777833
0.00517619
-0.704524
0.58803
0.0691651
0.0204031
-0.0895682
0.50957
0.105122
-0.0115922
0.0649438
-0.0533516
0.00875681
-0.00875681
-0.747403
0.0232494
-0.0485827
0.0682934
-0.0847924
0.0847924
-0.00333423
-0.00049244
0.774948
0.126359
-0.313285
-0.0938074
-0.515593
0.0919216
-0.0656067
0.0656067
-0.0530435
0.0850766
-0.0850766
0.0259712
-0.0259712
-0.358517
-0.0806776
0.236107
0.07145
0.0475825
-0.757674
-0.0725653
0.158609
0.0258461
-0.235099
0.0845729
-0.0845729
-0.463961
-0.0545267
0.226422
-0.00719146
0.00234078
-0.664666
0.659987
-0.0202329
-0.0328106
0.0735908
-0.0949174
-0.0118092
-0.162693
0.174502
-0.147457
-0.202428
-0.0800166
0.0800166
0.0530801
-0.0530801
-0.026174
-0.0935584
0.119732
-0.0525761
-0.193068
0.00518147
-0.00971389
-0.027679
0.197781
-0.0257637
0.518991
0.0106032
0.014384
-0.0500116
0.0500116
-0.732309
0.313863
-0.126835
-0.206039
-0.0225214
-0.0176565
0.0199973
0.18962
0.0295133
-0.000754797
0.00156413
0.0882293
0.0307608
0.0578592
0.10075
-0.0318369
0.0331315
-0.00316635
0.000362312
0.00330175
-0.00256063
-0.000741114
-0.00371093
0.014321
0.0263533
-0.0263533
0.0472873
-0.0454878
0.0454878
-0.190514
0.0147463
0.0292189
-0.0760271
0.0172144
0.0805464
-0.0805464
0.229057
-0.232814
0.0853564
-0.0657006
-0.167113
-0.0134051
0.0134051
0.40736
0.252851
-0.524896
-0.0810449
-0.042243
0.544638
0.0210147
-0.0508987
-0.440939
0.116535
-0.150058
0.1675
-0.0174417
-0.0497856
0.0497856
0.919429
-0.588535
-0.000948021
-0.00276291
-0.00594861
-0.292343
-0.000503648
0.00477582
-0.0509521
-0.6276
0.570119
-0.659888
0.0144099
0.046915
0.0155951
0.0240404
-0.156007
-0.329701
0.253674
-0.0529009
0.0267268
0.172888
0.139708
0.312527
0.261022
-0.245427
0.00166861
-0.119455
-0.218392
0.065849
-0.00798983
0.158227
-0.134187
-0.0694257
0.157655
-0.419641
0.119052
-0.101838
0.0596105
-0.470569
0.172276
0.183309
-0.252735
0.0135662
-0.183302
0.182798
0.00402649
0.153629
-0.0280325
0.0458102
0.462559
0.0129482
0.00301404
0.00286997
0.0415486
-0.235834
-0.203252
0.589565
0.164384
0.062038
0.0696772
-0.0640349
0.0273047
-0.116873
-0.0308604
0.164164
-0.149754
0.0098934
-0.0106619
-0.110467
-0.0296729
0.0430249
0.252906
-0.035364
-0.0676128
-0.307224
-0.015479
0.222741
0.137636
0.176228
0.0563895
0.0939687
0.0691555
0.512139
-0.00390746
0.110035
0.0388502
0.0702756
-0.109126
-0.272045
-0.194025
0.0269123
-0.217663
0.280311
)
;

boundaryField
{
    FrontBack
    {
        type            empty;
    }
    Top
    {
        type            calculated;
        value           uniform 0;
    }
    In
    {
        type            calculated;
        value           uniform -1;
    }
    Bottom
    {
        type            calculated;
        value           uniform 0;
    }
    Out
    {
        type            calculated;
        value           nonuniform List<scalar> 10(1.21703 1.09845 1.12983 1.02079 1.25313 0.942606 1.08565 1.01127 0.621023 0.620223);
    }
    circle
    {
        type            calculated;
        value           uniform 0;
    }
}


// ************************************************************************* //
