/*--------------------------------*- C++ -*----------------------------------*\
| =========                 |                                                 |
| \\      /  F ield         | OpenFOAM: The Open Source CFD Toolbox           |
|  \\    /   O peration     | Version:  2412                                  |
|   \\  /    A nd           | Website:  www.openfoam.com                      |
|    \\/     M anipulation  |                                                 |
\*---------------------------------------------------------------------------*/
FoamFile
{
    version     2.0;
    format      ascii;
    arch        "LSB;label=32;scalar=64";
    class       surfaceScalarField;
    location    "31.8";
    object      phi;
}
// * * * * * * * * * * * * * * * * * * * * * * * * * * * * * * * * * * * * * //

dimensions      [0 3 -1 0 0 0 0];

oriented        oriented;

internalField   nonuniform List<scalar> 
1171
(
-0.945303
0.945303
0.77192
-1.08174
0.309818
-0.139191
-0.729418
0.868608
0.0546971
-0.0722346
-0.279435
0.351669
-0.77192
0.0839374
0.687983
0.916141
-0.2092
-0.706941
0.83847
-1.07206
0.233589
-0.356506
-0.044249
0.400755
-0.0097769
0.606022
-0.596245
-0.607587
0.934305
-0.326718
-0.42874
1.0219
-0.183427
0.210257
0.103421
-0.313677
0.975681
0.0462164
0.247713
-0.037456
1.01149
-0.0358137
0.71078
-0.849971
-0.780569
0.605089
0.175481
0.182467
-0.790055
0.553685
-0.91204
0.358355
-1.08011
0.671711
0.408397
-0.643826
0.634049
0.0272695
-0.246121
0.218851
0.0484458
-0.635682
0.587237
0.464783
-0.509032
-0.841735
0.887522
-0.0457869
0.98912
0.0223745
0.907
-1.06904
0.162042
1.00411
-0.0149937
-0.696963
-0.0836065
1.29512
-0.864947
-0.430176
0.162378
-0.0883653
-0.40329
0.491655
-0.273815
0.189579
0.0842357
-0.602814
-0.478923
0.991943
-0.0849435
-0.030794
0.893854
-0.86306
0.518731
0.776392
0.517657
0.013726
0.451057
-0.792263
-0.107278
0.899541
0.565178
0.252667
-0.817845
0.071586
0.583679
-0.655265
-0.509353
-0.570754
-0.381741
-0.687301
0.02224
0.251634
-0.273874
-0.960628
-0.0332918
0.99392
0.373444
0.0273108
0.825328
0.0908129
-0.598502
-0.0453243
0.0343469
-0.82661
0.0696743
0.961206
-1.03088
-0.403356
0.0308366
0.372519
-0.713509
-0.247119
-0.756649
0.826323
0.77913
0.155175
-0.582519
0.99571
-0.814432
-0.181278
-0.228528
0.134415
0.0941133
-0.458899
-0.0501335
-0.283451
1.06258
0.0101113
0.420649
-0.430761
-0.533308
1.09849
0.713429
-0.820706
0.397556
-0.0635829
-0.333974
0.784712
-0.784712
-0.860026
0.0444406
-0.323876
-0.701215
0.670421
-0.0391533
-0.149371
0.188525
0.893105
0.000749208
1.05742
-0.804756
0.22626
-0.324357
0.098097
0.940684
-0.115356
-0.666816
-0.0539701
0.720786
0.147701
-0.228823
0.0811225
0.793326
-1.00253
-0.435937
0.308125
0.127812
0.685866
-0.63742
0.877414
-0.400977
-0.476437
0.495673
-0.694451
0.0347489
0.659702
0.122839
0.655045
0.047342
-0.702387
0.142299
-0.097858
-0.507073
0.103717
0.0358592
-0.899242
0.863383
-0.532262
-0.754995
0.0580322
0.499813
-0.0487559
0.277202
-0.834295
0.557093
0.424273
0.575727
0.598053
-0.563706
-0.407668
0.0106356
0.397032
0.548192
0.23652
-0.675414
0.747
0.0965233
0.877263
0.00667646
-0.673492
-0.762929
0.798789
0.601075
0.101704
0.338756
-0.440461
-0.154899
0.568959
0.0147204
0.874461
-0.851479
-0.0229817
0.662004
0.333706
-0.436659
0.678383
-0.576678
0.408667
0.145017
-0.0515056
-0.751544
-0.228677
0.980221
-0.126996
-0.657716
-0.614301
0.361243
0.253058
0.658472
-0.651796
0.312516
1.03536
0.0220619
-0.762929
-0.155208
-0.0733205
0.713429
0.786012
-0.786012
0.84121
-0.826199
-0.0150103
-0.45364
0.877913
-0.191696
-0.315377
0.763988
-0.672912
-0.0910763
-0.947692
0.196148
0.114829
-0.713331
0.820706
-0.975605
-0.229662
0.208898
0.0207631
0.111065
-1.01498
0.903915
0.541194
-0.0235369
-0.289249
0.594131
-0.304882
-0.667195
0.77826
-0.15596
0.620074
-0.90119
0.281115
1.1076
-0.725687
-0.381917
0.734506
-0.0684035
0.00567993
-0.00582672
0.000146794
-0.80032
-0.825014
0.0955963
-0.701215
0.573536
-0.5427
0.277292
0.613812
-0.891104
0.77794
0.167363
0.491014
0.508986
-0.097949
-0.723882
0.821831
1.00994
-0.135477
-0.734506
0.798789
0.183386
-0.429507
-0.0318635
0.0208338
0.0110297
0.670936
-0.427709
-0.243227
0.687983
-0.0680284
-0.204939
0.56625
0.104686
-0.0232538
0.000431619
0.0228221
0.00659901
-0.000919086
0.164139
-0.227722
-0.941972
0.0203821
-0.143183
-0.0655226
0.13086
0.815035
0.741432
-0.165705
0.663081
-0.385789
-0.164877
0.391138
0.645133
0.0428492
0.231936
-1.05813
-0.975605
0.324688
0.670421
-0.168859
0.0194881
-0.835417
1.0571
-0.221684
0.477976
-0.105457
0.794979
0.305549
0.274531
-0.0268181
-0.680473
0.680473
0.229175
0.670365
-0.0346025
0.455252
0.457053
0.00129813
-0.0331616
0.529336
0.0118576
-0.667195
0.568384
0.195604
-0.00972093
0.00389421
-0.645133
0.168145
0.888956
0.038308
-0.732312
0.694004
0.759646
-0.820743
0.0610976
-0.77794
-0.0395921
0.0553469
-0.0157548
0.0879602
-0.117783
-0.100815
0.218599
-0.00742722
-0.0158265
0.778945
-0.740637
0.955014
-0.0864058
-0.262356
-0.591196
0.853552
-0.0010128
0.0010128
0.219534
0.523608
0.35596
-0.879568
-0.193984
-0.552249
0.746233
-0.0188188
0.207343
0.378643
-0.230943
0.983011
-0.459403
0.840898
0.919096
-0.563136
0.186948
0.77826
0.594833
0.244349
0.643173
-0.657716
0.319527
-0.0477745
0.0578395
-0.0100651
0.943382
0.0314756
-0.974857
-0.559019
0.544026
0.54636
-0.559019
-0.594833
0.544026
0.0104513
0.891844
0.0631696
-0.548192
0.457001
0.0911908
0.544977
0.660578
-1.20555
0.563018
0.419993
0.646782
0.57369
-1.22047
0.590456
0.32864
0.457001
-0.53434
-0.480925
-0.66214
-0.641752
-0.287378
-0.00894018
0.00894018
0.626679
0.504405
-1.14616
0.669387
-0.33063
-1.07243
0.346743
-0.696233
0.449114
-0.0912637
-0.91291
1.00417
0.452184
-0.157796
1.10118
-1.019
-1.09149
0.192215
0.899278
0.303556
-0.301813
-0.00174336
0.723654
-0.808597
0.962258
-0.961856
-0.000402077
-0.0511094
-0.80037
-0.223582
0.908193
-0.684611
-1.07564
1.02453
-0.649137
0.471625
0.177513
-0.544666
-0.200487
0.745154
0.00430185
-0.00531465
0.42222
0.056747
-0.925249
0.868502
-0.828979
0.73103
1.11476
0.114705
-1.22947
0.0232675
-0.0331554
0.430187
-0.36356
0.0392023
0.915772
-1.00704
-0.631072
-0.676059
-0.124311
-0.154924
-0.902742
-0.0591137
0.368022
0.295059
-0.0830059
0.386562
-0.748168
0.547681
0.476437
-1.07071
-0.960939
-0.0690943
0.0638511
0.616336
-0.680187
0.101432
-0.567221
0.578323
0.181323
0.131832
0.969345
1.21675
0.902875
-0.961988
0.0484419
-0.0484419
-0.0711699
-0.0232128
-0.2786
0.334237
-0.00954924
0.206502
1.07078
0.0166131
-0.0240403
0.656627
0.343373
0.796563
-0.602814
-0.761907
-0.648712
-0.498239
0.498239
-0.210521
-0.113354
0.652041
-0.906529
0.254488
-0.463548
-0.543159
0.318594
-1.0059
-0.916632
0.91623
-0.701825
0.577515
0.660639
0.197126
-0.857764
-0.471199
-0.192175
0.860273
-0.668098
-0.154145
0.0145695
0.00147046
-0.01604
-0.162931
0.139718
0.970635
0.563395
-0.200545
-0.36285
0.561652
0.753082
-0.523906
0.0162761
-0.290091
-0.119157
0.801653
-0.682496
-0.345256
-0.0819788
0.145827
-1.08916
0.114299
-0.709403
0.123613
0.717512
-0.841125
-0.889011
0.179608
0.710946
-0.792925
0.231881
-0.349664
-0.603526
0.132327
0.36856
0.694663
-0.0162806
-0.00643676
0.00643676
-0.00850856
0.011158
-0.0589324
-0.015392
0.0320051
-0.308467
0.340856
0.737188
-0.808325
0.0711372
-0.65953
0.783142
0.802033
-0.0910875
-0.690361
-0.198649
-1.12569
0.0212346
0.0272073
-0.427624
-0.913943
-0.882383
0.452207
-0.126754
0.198969
-0.0722157
-0.264546
-0.163078
0.446801
0.711324
-0.0586353
-0.0068873
0.956829
0.548954
0.132029
-0.680984
-0.222299
-0.0422471
-0.00185839
0.0164279
0.73924
-0.967916
0.00408493
-0.00408493
-0.727507
0.794467
-0.06696
-0.305305
-0.158729
-0.692708
0.197001
0.62483
-0.0584109
-0.884883
-0.481724
0.251385
0.230339
0.727383
-0.656246
0.362528
0.243493
-0.60602
-0.174703
-0.687792
-0.153332
-0.178553
-0.284722
0.46769
-0.517824
0.173449
0.758652
-0.932102
0.495673
-0.23954
0.112786
-0.0359877
-0.248735
0.591725
-0.0933135
-0.498411
-0.290301
0.310868
-0.0205676
0.548766
0.12062
0.114241
-0.315804
0.173519
0.142285
-0.0306946
-0.124513
-0.394148
0.0666823
-0.0674077
0.000725403
0.955196
-0.168052
-0.137253
0.550443
0.366971
-0.567516
0.406392
-0.406392
-0.201454
-0.394465
-0.212607
-0.394465
-0.777259
-0.852359
0.179447
-0.446652
0.755251
0.0490248
0.113914
0.580749
0.110614
0.123204
0.00866198
-0.131866
-0.195267
0.620815
-0.947332
0.356136
-0.0973051
0.0855138
0.0117913
-0.759186
-0.177106
-0.580474
0.712503
-0.516909
-0.107417
-0.141318
-0.343523
-0.0790063
0.0790063
0.0551621
0.000184755
0.144439
0.0744562
-0.662681
0.0822066
-0.0394656
0.473659
0.526341
0.845271
0.0172032
0.0234566
-0.0406597
-0.302056
-0.582827
-0.500028
0.117808
-0.122187
0.00437844
-0.173153
-0.408691
-0.185741
0.810571
-0.588931
-0.170255
0.0269984
-0.0084228
0.295609
-0.548867
-0.201859
-0.203648
-0.0240742
-0.46663
0.427575
0.0390549
-0.0626712
0.295132
-0.865887
-0.526906
0.615304
-0.889512
0.714809
0.422096
-0.0313811
0.0536388
-0.0222577
0.126896
-0.634211
-0.0090453
0.643256
-0.890772
0.654001
-0.725171
-0.0311017
0.00804337
-0.00804337
-0.299527
0.400117
0.0300709
-0.00869553
0.0258987
0.584794
0.523431
-0.546413
0.0121382
-0.00216133
-0.00427544
0.00584796
-0.00584796
-0.447817
0.568437
0.0168476
-0.0168476
-0.78098
-0.00931731
0.0136192
-0.493698
0.575905
0.580721
-0.647681
0.0717344
-0.0717344
-0.00473689
-0.0284247
0.00369569
-1.08127
0.699356
-0.520032
-0.00531465
0.607557
0.00474173
-0.612299
-0.712662
0.123731
-0.312788
-0.0127142
0.325503
-0.031088
-0.0275473
-0.608198
-0.0260131
0.0272073
0.00533609
-0.00125116
-0.00290301
0.00290301
-0.149195
0.14992
-0.482987
0.135863
0.6607
-0.100235
0.00790722
-0.00790722
0.508408
-0.162304
0.00905616
0.019164
0.00053331
0.595495
-0.757799
-0.7422
0.604947
-0.119916
0.339827
0.79966
-0.00850856
-0.0812799
0.0851742
-0.641121
0.539508
-0.296242
-0.105104
-0.0298748
-0.0265608
0.00806453
0.46891
-0.0859897
-0.412421
0.715558
0.00309222
0.00133721
-0.00133721
-0.209469
-0.0747386
-0.569239
0.618264
-0.132196
0.508141
-0.162038
0.872818
0.800423
0.00533609
-0.714089
0.595483
0.0480207
0.0191345
-0.0671553
0.542275
0.103774
-0.0115544
0.0645316
-0.0529772
0.0086514
-0.0086514
-0.744613
0.0232924
-0.0465808
0.0657448
-0.084859
0.084859
-0.00216133
-0.000601343
0.773447
0.115509
-0.314131
-0.0945601
-0.517727
0.0750191
-0.0655345
0.0655345
-0.0453966
0.0837554
-0.0837554
0.0258536
-0.0258536
-0.358806
-0.0778532
0.237098
0.0710263
0.0506093
-0.746947
-0.0677282
0.158785
0.0246011
-0.234749
0.0834822
-0.0834822
-0.465926
-0.0518974
0.226815
-0.00796334
0.00243308
-0.669194
0.658743
-0.0031205
-0.0422761
0.0535623
-0.081987
-0.012021
-0.16074
0.172761
-0.147688
-0.201976
-0.0800037
0.0800037
0.0533134
-0.0533134
-0.0266556
-0.0934882
0.120144
-0.0458788
-0.192204
0.00390171
-0.00817715
-0.0732116
0.223132
-0.0256928
0.502693
0.010374
0.0124481
-0.0498972
0.0498972
-0.734216
0.313945
-0.126997
-0.206126
-0.0226969
-0.0171335
0.0195666
0.189448
0.0291503
-0.00160229
0.0021356
0.0873637
0.0304447
0.0573337
0.101452
-0.0289546
0.0220673
-0.00274772
0.00305052
0.00394228
-0.00165604
-0.00228624
-0.00349853
0.0134663
0.0265967
-0.0265967
0.047398
-0.0447894
0.0447894
-0.190041
0.0154986
0.0309572
-0.0756901
0.0172022
0.0796125
-0.0796125
0.228503
-0.232486
0.0847984
-0.0657492
-0.166737
-0.013844
0.013844
0.407917
0.251785
-0.523683
-0.0807747
-0.0414121
0.54378
0.00768354
-0.0521296
-0.450546
0.11413
-0.150376
0.167599
-0.0172232
-0.0491678
0.0491678
0.91379
-0.588389
-0.00193348
-0.00156505
-0.00585272
-0.29046
-0.000273209
0.00485534
-0.0482402
-0.629011
0.569624
-0.66154
0.0144692
0.0648229
0.0156373
0.0240436
-0.156228
-0.330866
0.255176
-0.0533723
0.0267167
0.173197
0.137672
0.281521
0.260986
-0.245349
0.00269112
-0.117264
-0.21884
0.0661251
-0.00879135
0.158032
-0.133989
-0.0689547
0.156318
-0.418047
0.118726
-0.101524
0.058955
-0.471376
0.172454
0.182134
-0.251089
0.011864
-0.181581
0.181308
0.00386964
0.152449
-0.0279418
0.0464694
0.461939
0.0127528
0.00803746
0.00150925
0.039184
-0.236064
-0.203054
0.58972
0.165037
0.0617773
0.0711522
-0.0641876
0.0387494
-0.105905
-0.0306916
0.164226
-0.149757
0.016102
-0.0101106
-0.108574
-0.0291324
0.0381693
0.25221
-0.0284498
-0.0432377
-0.307433
-0.0120487
0.221336
0.137437
0.176508
0.0565082
0.094451
0.0665122
0.518282
-0.00503396
0.108804
0.0394829
0.0693539
-0.108837
-0.271898
-0.193945
0.0272078
-0.219166
0.280226
)
;

boundaryField
{
    FrontBack
    {
        type            empty;
    }
    Top
    {
        type            calculated;
        value           uniform 0;
    }
    In
    {
        type            calculated;
        value           uniform -1;
    }
    Bottom
    {
        type            calculated;
        value           uniform 0;
    }
    Out
    {
        type            calculated;
        value           nonuniform List<scalar> 10(1.2098 1.07932 1.14306 1.01045 1.23427 0.970392 1.13108 1.00671 0.607846 0.607072);
    }
    circle
    {
        type            calculated;
        value           uniform 0;
    }
}


// ************************************************************************* //
