/*--------------------------------*- C++ -*----------------------------------*\
| =========                 |                                                 |
| \\      /  F ield         | OpenFOAM: The Open Source CFD Toolbox           |
|  \\    /   O peration     | Version:  2412                                  |
|   \\  /    A nd           | Website:  www.openfoam.com                      |
|    \\/     M anipulation  |                                                 |
\*---------------------------------------------------------------------------*/
FoamFile
{
    version     2.0;
    format      ascii;
    arch        "LSB;label=32;scalar=64";
    class       volVectorField;
    location    "0.8";
    object      cellDisplacement;
}
// * * * * * * * * * * * * * * * * * * * * * * * * * * * * * * * * * * * * * //

dimensions      [0 1 0 0 0 0 0];

internalField   nonuniform List<vector> 
256
(
(0.0211088 -0.00210213 0)
(0.0212165 0.00113944 0)
(0.0198242 0.00396652 0)
(0.0173162 0.00587301 0)
(0.0139875 0.00654746 0)
(0.0103044 0.00599033 0)
(0.0066327 0.00445043 0)
(0.00311112 0.00226583 0)
(0.0625428 -0.00513844 0)
(0.0626193 0.00391877 0)
(0.0590171 0.0118194 0)
(0.0524165 0.0173234 0)
(0.043611 0.0196793 0)
(0.0338122 0.0188986 0)
(0.0237823 0.015404 0)
(0.0138964 0.00987181 0)
(0.102 -0.00693362 0)
(0.101736 0.00720651 0)
(0.0962654 0.0194957 0)
(0.0863913 0.0282432 0)
(0.0734644 0.0325259 0)
(0.0588907 0.0322189 0)
(0.0437938 0.0278433 0)
(0.0286511 0.0201645 0)
(0.139604 -0.00754389 0)
(0.138764 0.011053 0)
(0.131733 0.0272031 0)
(0.119371 0.0389613 0)
(0.103287 0.0452753 0)
(0.0851481 0.0460163 0)
(0.0661607 0.0416398 0)
(0.0468602 0.0329034 0)
(0.175586 -0.00696234 0)
(0.17407 0.0155984 0)
(0.16562 0.0351645 0)
(0.151332 0.049715 0)
(0.132987 0.0582081 0)
(0.112226 0.060401 0)
(0.0903829 0.0567405 0)
(0.0679916 0.0479417 0)
(0.210031 -0.00513561 0)
(0.207771 0.0209524 0)
(0.1981 0.0436059 0)
(0.182382 0.0608236 0)
(0.162378 0.071537 0)
(0.139819 0.0755422 0)
(0.116002 0.0731864 0)
(0.0914487 0.0651579 0)
(0.243168 -0.00195125 0)
(0.240013 0.0273155 0)
(0.229281 0.0527676 0)
(0.212468 0.0725161 0)
(0.191371 0.0855671 0)
(0.167628 0.0916395 0)
(0.142559 0.091072 0)
(0.116668 0.0845601 0)
(0.27503 0.00273743 0)
(0.270868 0.0348535 0)
(0.259232 0.0629135 0)
(0.24163 0.0851385 0)
(0.219791 0.100553 0)
(0.195364 0.108945 0)
(0.169617 0.110578 0)
(0.143005 0.106167 0)
(0.305673 0.00916033 0)
(0.300455 0.0438743 0)
(0.28799 0.0743565 0)
(0.269768 0.0989706 0)
(0.24749 0.116859 0)
(0.222726 0.127766 0)
(0.196711 0.13195 0)
(0.169887 0.130204 0)
(0.335071 0.017608 0)
(0.328743 0.0546802 0)
(0.315509 0.0874563 0)
(0.296808 0.11445 0)
(0.274251 0.134857 0)
(0.249349 0.148492 0)
(0.223337 0.155556 0)
(0.196585 0.156924 0)
(0.363243 0.0285394 0)
(0.35574 0.0677598 0)
(0.341723 0.102702 0)
(0.322582 0.132038 0)
(0.299798 0.155086 0)
(0.274822 0.171623 0)
(0.24885 0.181865 0)
(0.222297 0.186735 0)
(0.389959 0.0425016 0)
(0.381151 0.0836294 0)
(0.366297 0.120595 0)
(0.346683 0.152289 0)
(0.323674 0.178081 0)
(0.298537 0.197762 0)
(0.272459 0.2115 0)
(0.245891 0.220234 0)
(0.41476 0.0601421 0)
(0.404446 0.102888 0)
(0.388621 0.141761 0)
(0.368394 0.175819 0)
(0.344946 0.204514 0)
(0.319461 0.227635 0)
(0.292961 0.245253 0)
(0.265875 0.258283 0)
(0.436796 0.0822869 0)
(0.424765 0.126325 0)
(0.407767 0.166927 0)
(0.386661 0.203371 0)
(0.362366 0.2352 0)
(0.335898 0.262111 0)
(0.30823 0.284065 0)
(0.279756 0.301807 0)
(0.454178 0.109273 0)
(0.440226 0.154056 0)
(0.421755 0.196149 0)
(0.399337 0.234977 0)
(0.373651 0.270067 0)
(0.345368 0.301118 0)
(0.31523 0.328009 0)
(0.283555 0.351113 0)
(0.462023 0.139432 0)
(0.446132 0.184047 0)
(0.425944 0.226889 0)
(0.401654 0.267547 0)
(0.373495 0.305627 0)
(0.34174 0.340764 0)
(0.306694 0.37262 0)
(0.268694 0.400887 0)
(0.00314146 0.00217385 0)
(0.00575445 0.00422428 0)
(0.00770515 0.00639207 0)
(0.00894954 0.00881277 0)
(0.00939903 0.0115282 0)
(0.00893664 0.0144115 0)
(0.00749573 0.0172139 0)
(0.00515929 0.0196427 0)
(0.0137765 0.00976438 0)
(0.0204425 0.0157117 0)
(0.0251344 0.0221094 0)
(0.027756 0.0292043 0)
(0.0280628 0.0369391 0)
(0.0258584 0.0449864 0)
(0.021057 0.0526309 0)
(0.0139338 0.0588905 0)
(0.0280177 0.0202256 0)
(0.0374341 0.0298145 0)
(0.0436143 0.0401441 0)
(0.0465329 0.0515517 0)
(0.0458289 0.063839 0)
(0.0412352 0.0763244 0)
(0.0327903 0.0879452 0)
(0.0209577 0.0970051 0)
(0.0454576 0.0334911 0)
(0.0562901 0.0464075 0)
(0.0628242 0.0604252 0)
(0.0650717 0.0758128 0)
(0.0625422 0.0920694 0)
(0.0550402 0.108299 0)
(0.0427 0.122937 0)
(0.0263247 0.133904 0)
(0.0655482 0.0494059 0)
(0.0766256 0.0654761 0)
(0.0824358 0.0828951 0)
(0.0830718 0.101809 0)
(0.0780587 0.121551 0)
(0.0671927 0.140782 0)
(0.0508033 0.157553 0)
(0.0300686 0.169706 0)
(0.0877915 0.0679476 0)
(0.0979364 0.0869131 0)
(0.102093 0.107498 0)
(0.1003 0.129542 0)
(0.092164 0.152115 0)
(0.0775553 0.17355 0)
(0.0570663 0.191705 0)
(0.0321939 0.204365 0)
(0.111565 0.0890317 0)
(0.119762 0.11074 0)
(0.121341 0.134153 0)
(0.116411 0.158843 0)
(0.104603 0.183614 0)
(0.0859867 0.206536 0)
(0.0614059 0.225379 0)
(0.0326054 0.238034 0)
(0.136292 0.112736 0)
(0.141538 0.136922 0)
(0.139729 0.162819 0)
(0.131006 0.189669 0)
(0.115096 0.215949 0)
(0.0922933 0.239659 0)
(0.0636788 0.258565 0)
(0.0312042 0.270732 0)
(0.161265 0.139124 0)
(0.162693 0.16558 0)
(0.156738 0.193543 0)
(0.143647 0.221935 0)
(0.123293 0.249091 0)
(0.0961994 0.272906 0)
(0.0636592 0.291307 0)
(0.027731 0.302547 0)
(0.185767 0.168444 0)
(0.182513 0.19684 0)
(0.171733 0.226388 0)
(0.15378 0.255727 0)
(0.128731 0.283028 0)
(0.0973137 0.30628 0)
(0.0610112 0.323561 0)
(0.0219494 0.333331 0)
(0.208897 0.20103 0)
(0.20017 0.231026 0)
(0.183934 0.261591 0)
(0.160691 0.291111 0)
(0.130751 0.317762 0)
(0.0951007 0.339676 0)
(0.0552866 0.355154 0)
(0.0133693 0.363098 0)
(0.229399 0.237425 0)
(0.214428 0.268488 0)
(0.192167 0.299302 0)
(0.163322 0.328111 0)
(0.128487 0.353162 0)
(0.0887824 0.372892 0)
(0.0458134 0.385991 0)
(0.00143368 0.391689 0)
(0.245476 0.278264 0)
(0.223485 0.309603 0)
(0.194727 0.339642 0)
(0.1602 0.366594 0)
(0.120652 0.388992 0)
(0.0773064 0.40563 0)
(0.0316778 0.415652 0)
(-0.0146601 0.418658 0)
(0.254393 0.324276 0)
(0.224607 0.35469 0)
(0.189139 0.382437 0)
(0.149179 0.406009 0)
(0.105588 0.424436 0)
(0.0594301 0.436988 0)
(0.0119017 0.443253 0)
(-0.0357174 0.443123 0)
(0.251519 0.375605 0)
(0.213673 0.402975 0)
(0.172184 0.426063 0)
(0.127903 0.444259 0)
(0.0815021 0.457233 0)
(0.0337462 0.464747 0)
(-0.014526 0.466695 0)
(-0.0624747 0.463106 0)
(0.228106 0.425293 0)
(0.185322 0.445604 0)
(0.140753 0.461623 0)
(0.094828 0.473196 0)
(0.0479901 0.480212 0)
(0.000689962 0.482604 0)
(-0.0466168 0.480347 0)
(-0.0934746 0.473465 0)
)
;

boundaryField
{
    walls
    {
        type            cellMotion;
        value           uniform (0 0 0);
    }
    cylinder
    {
        type            cellMotion;
        value           nonuniform List<vector> 
16
(
(0.462023 0.139432 0)
(0.446132 0.184047 0)
(0.425944 0.226889 0)
(0.401654 0.267547 0)
(0.373495 0.305627 0)
(0.34174 0.340764 0)
(0.306694 0.37262 0)
(0.268694 0.400887 0)
(0.228106 0.425293 0)
(0.185322 0.445604 0)
(0.140753 0.461623 0)
(0.094828 0.473196 0)
(0.0479901 0.480212 0)
(0.000689962 0.482604 0)
(-0.0466168 0.480347 0)
(-0.0934746 0.473465 0)
)
;
    }
    outlet
    {
        type            cellMotion;
        value           uniform (0 0 0);
    }
    inlet
    {
        type            cellMotion;
        value           nonuniform List<vector> 0();
    }
    frontAndBack
    {
        type            empty;
    }
    procBoundary1to0
    {
        type            processor;
        value           nonuniform List<vector> 
16
(
(0.0196355 -0.00514186 0)
(0.0589634 -0.0138933 0)
(0.097065 -0.020894 0)
(0.134031 -0.0262351 0)
(0.169807 -0.0299633 0)
(0.20452 -0.0320549 0)
(0.238157 -0.0324609 0)
(0.270897 -0.0310212 0)
(0.302673 -0.027559 0)
(0.333476 -0.0217464 0)
(0.363202 -0.0131975 0)
(0.391784 -0.0012594 0)
(0.418723 0.0147833 0)
(0.443158 0.0358082 0)
(0.463118 0.0625096 0)
(0.473465 0.0934746 0)
)
;
    }
    procBoundary1to3
    {
        type            processor;
        value           nonuniform List<vector> 
16
(
(0.00211296 0.0210539 0)
(0.00517437 0.0624946 0)
(0.00699551 0.101888 0)
(0.00762673 0.139521 0)
(0.0070796 0.175452 0)
(0.00526679 0.209933 0)
(0.00212289 0.243024 0)
(-0.00256746 0.274924 0)
(-0.00895104 0.305535 0)
(-0.0174234 0.334975 0)
(-0.0283344 0.363142 0)
(-0.0423448 0.389892 0)
(-0.0599964 0.414718 0)
(-0.0822083 0.436767 0)
(-0.10924 0.454171 0)
(-0.139432 0.462023 0)
)
;
    }
}


// ************************************************************************* //
