/*--------------------------------*- C++ -*----------------------------------*\
| =========                 |                                                 |
| \\      /  F ield         | OpenFOAM: The Open Source CFD Toolbox           |
|  \\    /   O peration     | Version:  2412                                  |
|   \\  /    A nd           | Website:  www.openfoam.com                      |
|    \\/     M anipulation  |                                                 |
\*---------------------------------------------------------------------------*/
FoamFile
{
    version     2.0;
    format      ascii;
    arch        "LSB;label=32;scalar=64";
    class       surfaceScalarField;
    location    "0.8";
    object      meshPhi;
}
// * * * * * * * * * * * * * * * * * * * * * * * * * * * * * * * * * * * * * //

dimensions      [0 3 -1 0 0 0 0];

internalField   nonuniform List<scalar> 
480
(
0.00180205
-0.00154154
0.00182066
-0.000444026
0.00171486
0.000613158
0.00159571
0.00149544
0.00139698
0.00205618
0.00115261
0.00228718
0.000850549
0.00234317
0.00247401
0.000733631
0.005259
-0.00280344
0.00535517
-0.000803536
0.00504613
0.00109429
0.00470734
0.00269206
0.00420469
0.00378635
0.00357649
0.00433978
0.00274215
0.00452089
0.00466614
0.00236758
0.00834013
-0.00383451
0.00853882
-0.00114645
0.00817336
0.0014378
0.00770872
0.00365817
0.00706047
0.00521829
0.00620448
0.00607823
0.0049786
0.00637795
0.00648202
0.00434915
0.0110015
-0.00463117
0.011225
-0.00137348
0.0110863
0.00175481
0.0106279
0.00443947
0.00994688
0.00637003
0.00898605
0.0075
0.00751085
0.00792355
0.00800421
0.00669154
0.0134482
-0.00521169
0.0136999
-0.0015478
0.013828
0.00201214
0.013477
0.00503946
0.0128587
0.00724101
0.0119109
0.00859258
0.0103315
0.00913202
0.00922115
0.00942954
0.0158067
-0.00550716
0.016249
-0.00155133
0.016471
0.00221663
0.0162696
0.00543402
0.015805
0.00782977
0.0149729
0.00935445
0.0134141
0.00999243
0.010115
0.0125659
0.0181587
-0.00569436
0.0187778
-0.00152438
0.0190507
0.00234057
0.0190364
0.00564542
0.0187895
0.00815519
0.0181175
0.00975405
0.016686
0.010428
0.0105858
0.016036
0.0206504
-0.00578845
0.0212361
-0.00152372
0.0216023
0.0023646
0.0217905
0.00565026
0.0217676
0.00814424
0.021293
0.00974632
0.0200995
0.0104417
0.0106508
0.0198039
0.023197
-0.00568859
0.023683
-0.00148819
0.0241333
0.00229411
0.0245053
0.00543643
0.0247159
0.00783442
0.0245254
0.00938195
0.0237162
0.0100797
0.0103454
0.0238923
0.0257126
-0.00546294
0.0261504
-0.00149343
0.0266818
0.00208146
0.0272505
0.00503651
0.0277234
0.00725928
0.0279167
0.00872047
0.0276694
0.00944256
0.00975309
0.0284183
0.0282424
-0.00514285
0.0286956
-0.00150575
0.0293632
0.00174899
0.030159
0.00443594
0.0309654
0.00646689
0.0316612
0.00783352
0.0321405
0.00856281
0.00885166
0.0335845
0.0308321
-0.00457421
0.031358
-0.00145757
0.0322298
0.0013801
0.033345
0.00370357
0.0346231
0.00547837
0.0359383
0.00670896
0.0372353
0.00738034
0.00762793
0.0394148
0.0335081
-0.00342524
0.0341448
-0.000979967
0.0352827
0.00124633
0.0368284
0.00307015
0.0386803
0.00448922
0.0407345
0.00549159
0.0428923
0.00603362
0.00623369
0.04577
0.0361497
-0.0015563
0.0369805
4.29763e-05
0.0384527
0.00149325
0.0404842
0.0026907
0.0429444
0.00363983
0.0457852
0.00433243
0.0488561
0.00473067
0.00487793
0.0524483
0.038342
0.000559926
0.0394568
0.00124939
0.0413102
0.00188935
0.0438284
0.00243745
0.0469012
0.00288998
0.0504767
0.00325072
0.0544097
0.00350226
0.0036436
0.0586263
0.0360941
0.037561
0.0396873
0.0423876
0.0455597
0.0490953
0.0528495
0.0566228
0.00079845
-0.00133126
0.000954143
-0.00210395
0.00111598
-0.00309134
0.001227
-0.00383199
0.00130545
-0.00425929
0.00138401
-0.00433378
0.00151571
-0.00404475
-0.0033514
0.00252236
-0.00329508
0.00302103
-0.00459703
0.00344898
-0.00626577
0.00370332
-0.00736881
0.00391132
-0.00791051
0.00415688
-0.0079438
0.00452939
-0.00735974
-0.00606413
0.00451248
-0.00563828
0.0052538
-0.00710828
0.00590347
-0.00912907
0.00625397
-0.0105615
0.00650233
-0.0111307
0.00691781
-0.0109902
0.00747934
-0.0101123
-0.0082594
0.00674689
-0.00817543
0.00747368
-0.00947216
0.00826898
-0.0113823
0.00882155
-0.0129751
0.00913254
-0.0136878
0.00967457
-0.0133921
0.0103454
-0.0121516
-0.0098474
0.00932826
-0.0108661
0.00992168
-0.0120676
0.0105868
-0.0136349
0.0113171
-0.0149042
0.0118504
-0.0156222
0.0124502
-0.01526
0.0131219
-0.0136532
-0.010915
0.0123101
-0.0134646
0.0128778
-0.014633
0.0133013
-0.0160211
0.0139694
-0.0168512
0.0146535
-0.0171472
0.0152374
-0.0164789
0.015819
-0.014526
-0.011433
0.0156341
-0.015756
0.0162191
-0.0168433
0.0165291
-0.0180115
0.0169983
-0.0184749
0.0175619
-0.0182592
0.0180376
-0.0171398
0.018501
-0.0148928
-0.0115675
0.0192669
-0.0176061
0.0197738
-0.0185287
0.0200106
-0.0193642
0.0202598
-0.0194182
0.0205618
-0.0187157
0.0208573
-0.0171917
0.021204
-0.014696
-0.0112674
0.023187
-0.0188787
0.0235286
-0.0195972
0.023603
-0.0200035
0.0236023
-0.0196102
0.0236255
-0.0184715
0.0237087
-0.016613
0.023925
-0.0139738
-0.0105666
0.0274657
-0.0195502
0.027513
-0.0199657
0.0273349
-0.019896
0.0270421
-0.0190758
0.0267633
-0.0175828
0.0266109
-0.0155258
0.026643
-0.012881
-0.00962255
0.0322338
-0.0195286
0.0318261
-0.0196174
0.0312512
-0.0190434
0.0305582
-0.0177895
0.0299271
-0.0160177
0.0295
-0.0138584
0.0293217
-0.0113366
-0.00841583
0.0375654
-0.0184693
0.0365098
-0.0182746
0.0353257
-0.0171953
0.0341349
-0.0155847
0.0330921
-0.0136478
0.0323634
-0.0115136
0.0319801
-0.00926508
-0.00679892
0.0433462
-0.0159017
0.0414581
-0.0154793
0.039533
-0.014072
0.0377454
-0.0123166
0.0362393
-0.0104433
0.0351698
-0.00856115
0.0345562
-0.00669788
-0.00478124
0.0493543
-0.011438
0.0465217
-0.010917
0.0437387
-0.00953024
0.0412557
-0.00800809
0.0392392
-0.00651872
0.0377734
-0.00510265
0.0369024
-0.00375252
-0.00242162
0.0547148
-0.00477225
0.0507807
-0.00431819
0.0471348
-0.00354101
0.044011
-0.00275639
0.0415198
-0.0020045
0.0397153
-0.00129006
0.038639
-0.000606697
6.06627e-05
0.0518
0.0472831
0.0433938
0.0402255
0.0378257
0.0362223
0.0354218
)
;

boundaryField
{
    walls
    {
        type            calculated;
        value           uniform 0;
    }
    cylinder
    {
        type            calculated;
        value           nonuniform List<scalar> 
16
(
8.03875e-12
-9.87027e-12
-3.27399e-12
5.95697e-12
-1.67745e-11
1.21528e-11
1.88197e-11
-9.52623e-12
9.52745e-12
-1.88171e-11
-1.21524e-11
1.6776e-11
-5.95619e-12
3.27514e-12
9.87054e-12
-8.03828e-12
)
;
    }
    outlet
    {
        type            calculated;
        value           uniform 0;
    }
    inlet
    {
        type            calculated;
        value           nonuniform List<scalar> 0();
    }
    frontAndBack
    {
        type            empty;
    }
    procBoundary1to0
    {
        type            processor;
        value           nonuniform List<scalar> 
16
(
-0.00153211
-0.00452589
-0.00736879
-0.0101086
-0.0127089
-0.0150873
-0.0174717
-0.0200851
-0.0227736
-0.0254184
-0.0280541
-0.0307369
-0.0334703
-0.0360539
-0.0380404
-0.0353572
)
;
    }
    procBoundary1to3
    {
        type            processor;
        value           nonuniform List<scalar> 
16
(
0.00167782
0.00498441
0.00814224
0.0111592
0.0139753
0.0164925
0.0189455
0.0215771
0.0242528
0.0268579
0.0294003
0.0318983
0.0343455
0.0365924
0.0382958
0.0354169
)
;
    }
}


// ************************************************************************* //
