/*--------------------------------*- C++ -*----------------------------------*\
| =========                 |                                                 |
| \\      /  F ield         | OpenFOAM: The Open Source CFD Toolbox           |
|  \\    /   O peration     | Version:  2412                                  |
|   \\  /    A nd           | Website:  www.openfoam.com                      |
|    \\/     M anipulation  |                                                 |
\*---------------------------------------------------------------------------*/
FoamFile
{
    version     2.0;
    format      ascii;
    arch        "LSB;label=32;scalar=64";
    class       pointVectorField;
    location    "0.8";
    object      pointDisplacement;
}
// * * * * * * * * * * * * * * * * * * * * * * * * * * * * * * * * * * * * * //

dimensions      [0 1 0 0 0 0 0];

internalField   nonuniform List<vector> 
578
(
(0 0 0)
(0 0 0)
(0 0 0)
(0 0 0)
(0 0 0)
(0 0 0)
(0 0 0)
(0 0 0)
(0 0 0)
(0.0406026 -0.00659561 0)
(0.0419288 -0.000558728 0)
(0.0407352 0.00521521 0)
(0.0372068 0.0097652 0)
(0.0318822 0.0123832 0)
(0.0254573 0.0128041 0)
(0.0186376 0.011199 0)
(0.011837 0.00799229 0)
(0.00826997 0.00586896 0)
(0.0801838 -0.0117365 0)
(0.0822777 -0.000245706 0)
(0.0799684 0.0106151 0)
(0.07358 0.0192374 0)
(0.0640206 0.0244676 0)
(0.0524814 0.0258568 0)
(0.0400908 0.0236127 0)
(0.0275383 0.0183334 0)
(0.0208169 0.0148137 0)
(0.118217 -0.0154176 0)
(0.120575 0.000940997 0)
(0.117177 0.016246 0)
(0.108492 0.0284912 0)
(0.0956763 0.0362734 0)
(0.0802393 0.0390351 0)
(0.0635308 0.036956 0)
(0.0463951 0.0306635 0)
(0.0369383 0.0264689 0)
(0.154798 -0.0176862 0)
(0.157051 0.00303615 0)
(0.152593 0.0222628 0)
(0.14206 0.0377753 0)
(0.12679 0.0480598 0)
(0.108456 0.0525001 0)
(0.0885191 0.0512283 0)
(0.0678933 0.0448408 0)
(0.0561334 0.0406816 0)
(0.190026 -0.0185336 0)
(0.191905 0.00611694 0)
(0.186431 0.0288397 0)
(0.1744 0.0473408 0)
(0.157312 0.0600889 0)
(0.136896 0.0664457 0)
(0.114651 0.066497 0)
(0.0915105 0.0607952 0)
(0.0778564 0.0573385 0)
(0.224007 -0.0179003 0)
(0.225283 0.0103022 0)
(0.218827 0.0361708 0)
(0.205594 0.0574411 0)
(0.187189 0.0726274 0)
(0.165341 0.0810934 0)
(0.141546 0.0828888 0)
(0.116728 0.0785334 0)
(0.101536 0.076384 0)
(0.256849 -0.0156691 0)
(0.257303 0.0157483 0)
(0.24988 0.0444735 0)
(0.235685 0.068346 0)
(0.216351 0.0859586 0)
(0.193578 0.0966964 0)
(0.168835 0.100586 0)
(0.143021 0.0981314 0)
(0.126569 0.0978219 0)
(0.288602 -0.011662 0)
(0.288036 0.0226676 0)
(0.279664 0.0540106 0)
(0.264684 0.0803559 0)
(0.244702 0.100393 0)
(0.221379 0.113549 0)
(0.196145 0.119834 0)
(0.169861 0.119758 0)
(0.152328 0.121748 0)
(0.319254 -0.00562253 0)
(0.317511 0.031343 0)
(0.308198 0.0651027 0)
(0.292544 0.0938183 0)
(0.272107 0.116295 0)
(0.248487 0.132009 0)
(0.223068 0.140962 0)
(0.19668 0.143686 0)
(0.178129 0.14836 0)
(0.348775 0.00281496 0)
(0.345722 0.0421599 0)
(0.335449 0.0781599 0)
(0.319177 0.10917 0)
(0.298385 0.134117 0)
(0.274584 0.152527 0)
(0.249122 0.164401 0)
(0.222811 0.17029 0)
(0.203185 0.17797 0)
(0.377071 0.0141626 0)
(0.372542 0.0556212 0)
(0.361245 0.0936812 0)
(0.34434 0.126913 0)
(0.323206 0.15438 0)
(0.299233 0.175646 0)
(0.273695 0.190699 0)
(0.24741 0.200095 0)
(0.226472 0.211047 0)
(0.403827 0.0290611 0)
(0.397595 0.0723044 0)
(0.385143 0.112227 0)
(0.367514 0.147621 0)
(0.345942 0.177679 0)
(0.321675 0.202001 0)
(0.295878 0.220542 0)
(0.269326 0.233818 0)
(0.246571 0.248255 0)
(0.428376 0.0482775 0)
(0.420204 0.0929255 0)
(0.40641 0.134483 0)
(0.387873 0.171971 0)
(0.365606 0.204724 0)
(0.340685 0.232361 0)
(0.314158 0.25476 0)
(0.286731 0.272338 0)
(0.261349 0.290386 0)
(0.449325 0.0724989 0)
(0.439 0.118005 0)
(0.423635 0.160874 0)
(0.403889 0.200358 0)
(0.380516 0.235899 0)
(0.354337 0.267113 0)
(0.326203 0.293809 0)
(0.296721 0.316221 0)
(0.267339 0.337985 0)
(0.463205 0.101227 0)
(0.450644 0.146744 0)
(0.433518 0.190318 0)
(0.412177 0.231415 0)
(0.387041 0.269575 0)
(0.358574 0.304414 0)
(0.327272 0.33565 0)
(0.29356 0.363188 0)
(0.257995 0.388207 0)
(0.468873 0.116734 0)
(0.455173 0.16213 0)
(0.43709 0.205964 0)
(0.414797 0.247815 0)
(0.38851 0.287279 0)
(0.358481 0.323976 0)
(0.325 0.357553 0)
(0.288388 0.387687 0)
(0.249 0.414087 0)
(0 0 0)
(0 0 0)
(0 0 0)
(0 0 0)
(0 0 0)
(0 0 0)
(0 0 0)
(0 0 0)
(0 0 0)
(0.0406026 -0.00659561 0)
(0.0419288 -0.000558728 0)
(0.0407352 0.00521521 0)
(0.0372068 0.0097652 0)
(0.0318822 0.0123832 0)
(0.0254573 0.0128041 0)
(0.0186376 0.011199 0)
(0.011837 0.00799229 0)
(0.00826997 0.00586896 0)
(0.0801838 -0.0117365 0)
(0.0822777 -0.000245706 0)
(0.0799684 0.0106151 0)
(0.07358 0.0192374 0)
(0.0640206 0.0244676 0)
(0.0524814 0.0258568 0)
(0.0400908 0.0236127 0)
(0.0275383 0.0183334 0)
(0.0208169 0.0148137 0)
(0.118217 -0.0154176 0)
(0.120575 0.000940997 0)
(0.117177 0.016246 0)
(0.108492 0.0284912 0)
(0.0956763 0.0362734 0)
(0.0802393 0.0390351 0)
(0.0635308 0.036956 0)
(0.0463951 0.0306635 0)
(0.0369383 0.0264689 0)
(0.154798 -0.0176862 0)
(0.157051 0.00303615 0)
(0.152593 0.0222628 0)
(0.14206 0.0377753 0)
(0.12679 0.0480598 0)
(0.108456 0.0525001 0)
(0.0885191 0.0512283 0)
(0.0678933 0.0448408 0)
(0.0561334 0.0406816 0)
(0.190026 -0.0185336 0)
(0.191905 0.00611694 0)
(0.186431 0.0288397 0)
(0.1744 0.0473408 0)
(0.157312 0.0600889 0)
(0.136896 0.0664457 0)
(0.114651 0.066497 0)
(0.0915105 0.0607952 0)
(0.0778564 0.0573385 0)
(0.224007 -0.0179003 0)
(0.225283 0.0103022 0)
(0.218827 0.0361708 0)
(0.205594 0.0574411 0)
(0.187189 0.0726274 0)
(0.165341 0.0810934 0)
(0.141546 0.0828888 0)
(0.116728 0.0785334 0)
(0.101536 0.076384 0)
(0.256849 -0.0156691 0)
(0.257303 0.0157483 0)
(0.24988 0.0444735 0)
(0.235685 0.068346 0)
(0.216351 0.0859586 0)
(0.193578 0.0966964 0)
(0.168835 0.100586 0)
(0.143021 0.0981314 0)
(0.126569 0.0978219 0)
(0.288602 -0.011662 0)
(0.288036 0.0226676 0)
(0.279664 0.0540106 0)
(0.264684 0.0803559 0)
(0.244702 0.100393 0)
(0.221379 0.113549 0)
(0.196145 0.119834 0)
(0.169861 0.119758 0)
(0.152328 0.121748 0)
(0.319254 -0.00562253 0)
(0.317511 0.031343 0)
(0.308198 0.0651027 0)
(0.292544 0.0938183 0)
(0.272107 0.116295 0)
(0.248487 0.132009 0)
(0.223068 0.140962 0)
(0.19668 0.143686 0)
(0.178129 0.14836 0)
(0.348775 0.00281496 0)
(0.345722 0.0421599 0)
(0.335449 0.0781599 0)
(0.319177 0.10917 0)
(0.298385 0.134117 0)
(0.274584 0.152527 0)
(0.249122 0.164401 0)
(0.222811 0.17029 0)
(0.203185 0.17797 0)
(0.377071 0.0141626 0)
(0.372542 0.0556212 0)
(0.361245 0.0936812 0)
(0.34434 0.126913 0)
(0.323206 0.15438 0)
(0.299233 0.175646 0)
(0.273695 0.190699 0)
(0.24741 0.200095 0)
(0.226472 0.211047 0)
(0.403827 0.0290611 0)
(0.397595 0.0723044 0)
(0.385143 0.112227 0)
(0.367514 0.147621 0)
(0.345942 0.177679 0)
(0.321675 0.202001 0)
(0.295878 0.220542 0)
(0.269326 0.233818 0)
(0.246571 0.248255 0)
(0.428376 0.0482775 0)
(0.420204 0.0929255 0)
(0.40641 0.134483 0)
(0.387873 0.171971 0)
(0.365606 0.204724 0)
(0.340685 0.232361 0)
(0.314158 0.25476 0)
(0.286731 0.272338 0)
(0.261349 0.290386 0)
(0.449325 0.0724989 0)
(0.439 0.118005 0)
(0.423635 0.160874 0)
(0.403889 0.200358 0)
(0.380516 0.235899 0)
(0.354337 0.267113 0)
(0.326203 0.293809 0)
(0.296721 0.316221 0)
(0.267339 0.337985 0)
(0.463205 0.101227 0)
(0.450644 0.146744 0)
(0.433518 0.190318 0)
(0.412177 0.231415 0)
(0.387041 0.269575 0)
(0.358574 0.304414 0)
(0.327272 0.33565 0)
(0.29356 0.363188 0)
(0.257995 0.388207 0)
(0.468873 0.116734 0)
(0.455173 0.16213 0)
(0.43709 0.205964 0)
(0.414797 0.247815 0)
(0.38851 0.287279 0)
(0.358481 0.323976 0)
(0.325 0.357553 0)
(0.288388 0.387687 0)
(0.249 0.414087 0)
(0 0 0)
(0 0 0)
(0 0 0)
(0 0 0)
(0 0 0)
(0 0 0)
(0 0 0)
(0 0 0)
(0.0107568 0.00794372 0)
(0.0147545 0.0120889 0)
(0.0173949 0.0166126 0)
(0.0185612 0.0216086 0)
(0.0180917 0.0269604 0)
(0.0158695 0.0323154 0)
(0.0119445 0.0371152 0)
(0.00662178 0.0405601 0)
(0.0249128 0.0188612 0)
(0.0316646 0.0269313 0)
(0.0357762 0.035741 0)
(0.0370691 0.045376 0)
(0.0352758 0.0555219 0)
(0.030267 0.065482 0)
(0.0222146 0.0741435 0)
(0.011787 0.0801106 0)
(0.041809 0.0324721 0)
(0.0500587 0.0441892 0)
(0.0545338 0.0569765 0)
(0.0550217 0.070816 0)
(0.0511921 0.085138 0)
(0.0429718 0.098893 0)
(0.0307186 0.110478 0)
(0.0154921 0.118121 0)
(0.0609995 0.0486849 0)
(0.0695698 0.0637967 0)
(0.0733792 0.0802333 0)
(0.0722163 0.0978128 0)
(0.0657392 0.115686 0)
(0.0539618 0.132415 0)
(0.0374944 0.146058 0)
(0.017785 0.154687 0)
(0.0820032 0.0674277 0)
(0.0898039 0.0856946 0)
(0.0920072 0.105438 0)
(0.0884306 0.126262 0)
(0.0787725 0.147017 0)
(0.0631783 0.165925 0)
(0.0425477 0.180868 0)
(0.0186569 0.189903 0)
(0.104298 0.0886509 0)
(0.110319 0.109829 0)
(0.11007 0.132516 0)
(0.103402 0.156042 0)
(0.0901046 0.178976 0)
(0.0705228 0.199324 0)
(0.045827 0.214907 0)
(0.0180468 0.223877 0)
(0.127328 0.112352 0)
(0.130631 0.136165 0)
(0.127157 0.161383 0)
(0.11681 0.187038 0)
(0.0995185 0.211467 0)
(0.0758553 0.232569 0)
(0.0472272 0.248215 0)
(0.0158366 0.256714 0)
(0.150489 0.138587 0)
(0.150214 0.164727 0)
(0.142815 0.192009 0)
(0.128289 0.219186 0)
(0.10674 0.244434 0)
(0.0789662 0.265645 0)
(0.0465667 0.280824 0)
(0.0118455 0.288468 0)
(0.173103 0.167496 0)
(0.168459 0.195603 0)
(0.156508 0.224421 0)
(0.137387 0.252476 0)
(0.111398 0.277862 0)
(0.0795482 0.298551 0)
(0.0435808 0.312722 0)
(0.00581492 0.319128 0)
(0.19438 0.199337 0)
(0.184625 0.228982 0)
(0.167564 0.258734 0)
(0.143507 0.286943 0)
(0.112981 0.311726 0)
(0.0771737 0.331206 0)
(0.0378926 0.343819 0)
(-0.00262398 0.348664 0)
(0.213265 0.234498 0)
(0.197708 0.26513 0)
(0.175051 0.295065 0)
(0.145823 0.322578 0)
(0.110779 0.345915 0)
(0.0712342 0.363466 0)
(0.0289594 0.374014 0)
(-0.0139855 0.37698 0)
(0.228234 0.273457 0)
(0.206227 0.304295 0)
(0.177616 0.333457 0)
(0.143164 0.359262 0)
(0.103794 0.380213 0)
(0.0608752 0.395079 0)
(0.0160446 0.403026 0)
(-0.0289111 0.40376 0)
(0.237019 0.31673 0)
(0.208001 0.346641 0)
(0.173307 0.373725 0)
(0.133887 0.39656 0)
(0.0907171 0.414057 0)
(0.045049 0.425416 0)
(-0.00172755 0.430196 0)
(-0.0481678 0.428333 0)
(0.236055 0.364432 0)
(0.199882 0.391611 0)
(0.159566 0.41476 0)
(0.115998 0.433042 0)
(0.0700188 0.445896 0)
(0.0225928 0.452952 0)
(-0.0252425 0.454064 0)
(-0.0724396 0.449304 0)
(0.219567 0.412512 0)
(0.177876 0.434191 0)
(0.133808 0.451381 0)
(0.0879513 0.463795 0)
(0.0408874 0.471246 0)
(-0.00675859 0.473628 0)
(-0.0543411 0.47092 0)
(-0.10121 0.4632 0)
(0.207213 0.436499 0)
(0.163431 0.454708 0)
(0.118075 0.468537 0)
(0.0715814 0.477855 0)
(0.0243988 0.48257 0)
(-0.0230188 0.482638 0)
(-0.0702148 0.478057 0)
(-0.116734 0.468873 0)
(0 0 0)
(0 0 0)
(0 0 0)
(0 0 0)
(0 0 0)
(0 0 0)
(0 0 0)
(0 0 0)
(0.0107568 0.00794372 0)
(0.0147545 0.0120889 0)
(0.0173949 0.0166126 0)
(0.0185612 0.0216086 0)
(0.0180917 0.0269604 0)
(0.0158695 0.0323154 0)
(0.0119445 0.0371152 0)
(0.00662178 0.0405601 0)
(0.0249128 0.0188612 0)
(0.0316646 0.0269313 0)
(0.0357762 0.035741 0)
(0.0370691 0.045376 0)
(0.0352758 0.0555219 0)
(0.030267 0.065482 0)
(0.0222146 0.0741435 0)
(0.011787 0.0801106 0)
(0.041809 0.0324721 0)
(0.0500587 0.0441892 0)
(0.0545338 0.0569765 0)
(0.0550217 0.070816 0)
(0.0511921 0.085138 0)
(0.0429718 0.098893 0)
(0.0307186 0.110478 0)
(0.0154921 0.118121 0)
(0.0609995 0.0486849 0)
(0.0695698 0.0637967 0)
(0.0733792 0.0802333 0)
(0.0722163 0.0978128 0)
(0.0657392 0.115686 0)
(0.0539618 0.132415 0)
(0.0374944 0.146058 0)
(0.017785 0.154687 0)
(0.0820032 0.0674277 0)
(0.0898039 0.0856946 0)
(0.0920072 0.105438 0)
(0.0884306 0.126262 0)
(0.0787725 0.147017 0)
(0.0631783 0.165925 0)
(0.0425477 0.180868 0)
(0.0186569 0.189903 0)
(0.104298 0.0886509 0)
(0.110319 0.109829 0)
(0.11007 0.132516 0)
(0.103402 0.156042 0)
(0.0901046 0.178976 0)
(0.0705228 0.199324 0)
(0.045827 0.214907 0)
(0.0180468 0.223877 0)
(0.127328 0.112352 0)
(0.130631 0.136165 0)
(0.127157 0.161383 0)
(0.11681 0.187038 0)
(0.0995185 0.211467 0)
(0.0758553 0.232569 0)
(0.0472272 0.248215 0)
(0.0158366 0.256714 0)
(0.150489 0.138587 0)
(0.150214 0.164727 0)
(0.142815 0.192009 0)
(0.128289 0.219186 0)
(0.10674 0.244434 0)
(0.0789662 0.265645 0)
(0.0465667 0.280824 0)
(0.0118455 0.288468 0)
(0.173103 0.167496 0)
(0.168459 0.195603 0)
(0.156508 0.224421 0)
(0.137387 0.252476 0)
(0.111398 0.277862 0)
(0.0795482 0.298551 0)
(0.0435808 0.312722 0)
(0.00581492 0.319128 0)
(0.19438 0.199337 0)
(0.184625 0.228982 0)
(0.167564 0.258734 0)
(0.143507 0.286943 0)
(0.112981 0.311726 0)
(0.0771737 0.331206 0)
(0.0378926 0.343819 0)
(-0.00262398 0.348664 0)
(0.213265 0.234498 0)
(0.197708 0.26513 0)
(0.175051 0.295065 0)
(0.145823 0.322578 0)
(0.110779 0.345915 0)
(0.0712342 0.363466 0)
(0.0289594 0.374014 0)
(-0.0139855 0.37698 0)
(0.228234 0.273457 0)
(0.206227 0.304295 0)
(0.177616 0.333457 0)
(0.143164 0.359262 0)
(0.103794 0.380213 0)
(0.0608752 0.395079 0)
(0.0160446 0.403026 0)
(-0.0289111 0.40376 0)
(0.237019 0.31673 0)
(0.208001 0.346641 0)
(0.173307 0.373725 0)
(0.133887 0.39656 0)
(0.0907171 0.414057 0)
(0.045049 0.425416 0)
(-0.00172755 0.430196 0)
(-0.0481678 0.428333 0)
(0.236055 0.364432 0)
(0.199882 0.391611 0)
(0.159566 0.41476 0)
(0.115998 0.433042 0)
(0.0700188 0.445896 0)
(0.0225928 0.452952 0)
(-0.0252425 0.454064 0)
(-0.0724396 0.449304 0)
(0.219567 0.412512 0)
(0.177876 0.434191 0)
(0.133808 0.451381 0)
(0.0879513 0.463795 0)
(0.0408874 0.471246 0)
(-0.00675859 0.473628 0)
(-0.0543411 0.47092 0)
(-0.10121 0.4632 0)
(0.207213 0.436499 0)
(0.163431 0.454708 0)
(0.118075 0.468537 0)
(0.0715814 0.477855 0)
(0.0243988 0.48257 0)
(-0.0230188 0.482638 0)
(-0.0702148 0.478057 0)
(-0.116734 0.468873 0)
)
;

boundaryField
{
    walls
    {
        type            fixedValue;
        value           uniform (0 0 0);
    }
    cylinder
    {
        type            solidBodyMotionDisplacement;
        value           nonuniform List<vector> 
34
(
(0.468873 0.116734 0)
(0.468873 0.116734 0)
(0.455173 0.16213 0)
(0.455173 0.16213 0)
(0.43709 0.205964 0)
(0.43709 0.205964 0)
(0.414797 0.247815 0)
(0.414797 0.247815 0)
(0.38851 0.287279 0)
(0.38851 0.287279 0)
(0.358481 0.323976 0)
(0.358481 0.323976 0)
(0.325 0.357553 0)
(0.325 0.357553 0)
(0.288388 0.387687 0)
(0.288388 0.387687 0)
(0.249 0.414087 0)
(0.249 0.414087 0)
(0.207213 0.436499 0)
(0.207213 0.436499 0)
(0.163431 0.454708 0)
(0.163431 0.454708 0)
(0.118075 0.468537 0)
(0.118075 0.468537 0)
(0.0715814 0.477855 0)
(0.0715814 0.477855 0)
(0.0243988 0.48257 0)
(0.0243988 0.48257 0)
(-0.0230188 0.482638 0)
(-0.0230188 0.482638 0)
(-0.0702148 0.478057 0)
(-0.0702148 0.478057 0)
(-0.116734 0.468873 0)
(-0.116734 0.468873 0)
)
;
        solidBodyMotionFunction oscillatingRotatingMotion;
        oscillatingRotatingMotionCoeffs
        {
            origin          ( 0 0 0 );
            axis            ( 0 0 1 );
            omega           1.5;
            amplitude       ( 0 0 30 );
        }
    }
    outlet
    {
        type            fixedValue;
        value           uniform (0 0 0);
    }
    inlet
    {
        type            fixedValue;
        value           nonuniform List<vector> 0();
    }
    frontAndBack
    {
        type            empty;
    }
    procBoundary1to0
    {
        type            processor;
    }
    procBoundary1to3
    {
        type            processor;
    }
}


// ************************************************************************* //
