/*--------------------------------*- C++ -*----------------------------------*\
| =========                 |                                                 |
| \\      /  F ield         | OpenFOAM: The Open Source CFD Toolbox           |
|  \\    /   O peration     | Version:  2412                                  |
|   \\  /    A nd           | Website:  www.openfoam.com                      |
|    \\/     M anipulation  |                                                 |
\*---------------------------------------------------------------------------*/
FoamFile
{
    version     2.0;
    format      ascii;
    arch        "LSB;label=32;scalar=64";
    class       volScalarField;
    location    "479";
    object      p;
}
// * * * * * * * * * * * * * * * * * * * * * * * * * * * * * * * * * * * * * //

dimensions      [0 2 -2 0 0 0 0];

internalField   nonuniform List<scalar> 
808
(
-0.03448153328601597
0.04466974104890632
-0.01184023173602463
0.03647723613065337
-0.2996490758364122
-0.05489854234621296
-0.01483921437288506
-0.02383828550781611
-0.1971132303307164
-0.08401406377112977
-0.009497864389223757
-0.2543165852904443
-0.03057120441452654
-0.01327590781897683
-0.1241170789920867
-0.01401999243364691
-0.1424733958142381
-0.0135899052903765
-0.01284746666580346
-0.05582133122436719
-0.00653433329355161
0.1174580294238556
-0.06200207772422499
-0.07185513184164401
0.1752702594393777
-0.09956318311903749
-0.1526906463852864
-0.02036891013333753
-0.0174888404943985
-0.02596105803024593
-0.02022670944544714
-0.05861345143168418
-0.02297428230497157
-0.01689899892389648
-0.09939085371477628
0.3447398417099812
-0.03904122105079343
-0.01681503295045015
-0.02296270627974074
-0.02658117623685176
-0.09026134233395587
-0.1267201540399684
-0.05159618340439924
-0.02078688641570706
-0.05543762756773248
-0.04107833370618896
-0.0122656839120023
-0.1845889048262759
-0.02711151492674396
-0.2042701494774016
-0.01632303047061317
-0.06740935100280381
-0.06045124117933584
-0.01516553628900663
-0.1929064745320656
-0.02846048087091438
-0.01088248051542589
-0.01509806799686205
-0.1004775124418151
-0.03993397598034289
-0.0980906037080703
-0.1262392332806548
-0.01373318559347625
-0.1277763197585348
-0.01699708832066676
-0.05140137749363668
-0.1632004046693643
-0.03560688988817719
-0.01507890481397524
-0.441185802777269
-0.02667314850259554
-0.3033957458163681
-0.02174331689949549
-0.02043244567481131
-0.06461024611622
-0.01764249575547375
-0.04270809662810748
-0.3639066111029958
-0.03574599659117308
0.04007734058268884
-0.09154016783591226
-0.01711639966791467
0.05693743091287343
0.0449611805931548
-0.01689404757685375
-0.05234928750652349
-0.5431512797971441
-0.2258728190147311
-0.05232544035179196
-0.1126007006961517
-0.05672695746885922
-0.1325604240282858
0.03951883428645644
-0.02514144602416206
-0.06152989700607185
-0.1165115126365654
-0.03842252430168119
-0.05233884023804293
-0.1160409340737104
-0.1371317516360907
-0.05236524547437794
-0.04753548473445315
-0.05453337585706788
-0.04496007699782907
-0.05740029219569971
-0.0742691500087083
-0.04153873478680303
-0.01125620001489037
-0.04044830141025319
-0.1242081631994935
-0.05055997977305438
0.08222548218811622
-0.04255282984318211
-0.008290110666121051
-0.02778159692375122
0.1806781129638997
-0.03897319383255229
-0.2694205311859567
-0.02036944443780526
-0.05368341269935269
-0.02964862728383068
-0.04851201151625309
0.01334704151094154
-0.0487926831437077
-0.03529537179014414
-0.2172778781306897
-0.04131088668871621
-0.005047509385652218
-0.07602561401989599
-0.06854370158314173
-0.142600098593772
-0.02086748361717156
-0.07520891546262719
-0.04269710189856003
-0.02276757710933396
-0.01578854262962189
-0.006410990125842986
-0.007271773982610643
-0.05254826023844751
-0.0499169215136714
-0.216203180273713
-0.05667438933730488
-0.008453775090430493
-0.02239262238413255
-0.146908602140758
-0.002784983291035601
-0.07639739434655664
-0.02215091627031976
-0.001023498411067302
-0.0109917381320857
-0.03345980764866935
0.09421378794835128
-0.03882247314497053
0.252067008981614
-0.2694417759291037
-0.1320235939049258
-0.03736490269392974
-0.09101952156045588
-0.009403659516545688
-0.113173864682855
-0.1807083512077099
-0.2192574475013896
-0.1775789756092489
0.05623146473036995
-0.06272166620527643
-0.02036529069251211
-0.06703391426957822
-0.1661704683976198
-0.02354452278091833
-0.01835525565244905
-0.05210367217143869
-0.01940969241219806
-0.006673637513536772
-0.1077723275597952
-0.02296224926999481
-0.04526275119136058
-0.06981849503306642
-0.1610955436746128
-0.03348112285916473
-0.3909581103147029
-0.01783561349723493
-0.2251083446801173
-0.04443232869743875
0.03202349060876131
-0.106254564617382
-0.01529411665126318
-0.04230491691038789
-0.104110499422372
-0.01765740358807468
-0.09539517304253281
-0.2078334068639283
-0.07179989119581728
-0.0237774235562683
-0.04831028555375428
-0.04289930861853484
-0.2048064933866213
-0.02197120841058329
-0.0190324239379855
-0.01130930611154796
-0.05593298252763076
-0.05078296432405775
-0.0223536442062811
-0.02083164737815235
-0.2429386371763302
0.1274031056450866
-0.2040048844677949
-0.1985473998573926
-0.01179482224351881
-0.01145635631389443
-0.06716195410156589
-0.01003988182357657
-0.5070666194530573
-0.1200199062696119
-0.01909612835708689
-0.0002796259791242872
-0.02406175913843858
-0.2824024027712895
-0.2775518462813764
-0.00705447029201088
-0.01720873383212638
-0.001335646074770223
-0.3483672810788886
-0.0282955058355393
-0.029147645533651
-0.01250844831119171
-0.01968826428194109
0.04986038497129545
-0.1096401230215224
-0.01416868583490516
-0.0207927377324611
-0.04416935235948765
-0.01822211151226023
-0.01615263256052205
-0.02342927737334484
-0.06748145260373323
-0.01155544935225506
-0.01904650011373352
-0.008575932641869651
-0.0006986310174163497
-0.02951984675660231
-0.001709603971945187
-0.002191149661934685
-0.005877276868902949
-0.02560766476895797
-0.007956438641083726
0.001476058530449677
-0.004273390014876989
0.001342261702068776
0.00254626547928684
-0.008857776049376541
-0.1408629989702831
-0.002987745410988617
-0.001491659660492233
-0.04830584752743012
-0.02158604989561341
-0.02440308677758009
-0.01433437315600499
-0.006163447863144264
-0.02088091336058661
-0.03878670932511873
-0.01411778428775636
-0.01290667152796327
-0.01151332916965171
0.008548365511734232
-0.01020069526865748
-0.01179692448570819
-0.01147955426902801
-0.01066081073109867
-0.01032058764110607
-0.01209613831889643
-0.01396657230837631
-0.3056578397829854
0.05987184927101733
-0.01582557046750446
-0.01547036379268382
-0.01296508880761174
-0.01188553061399281
-0.008761192274653192
-0.09652643346591366
0.01160498530161105
-0.01362457909344116
-0.01428049017859688
-0.01065066506909444
-0.05198348070656603
-0.01032182609259857
-0.01358025375731831
-0.01000280223501726
-0.0002001184184842164
-0.01065123808124589
-0.01206777452702161
-0.02466425879081529
-0.01575950345847225
-0.0118587342685796
-0.01350620977023588
-0.007347735833381046
-0.01218395040591902
-0.01177251543851842
-0.05845713622117248
-0.01332113379769083
-0.01124793328534502
-0.008847178396240813
-0.01494893920853307
-0.01368519292048523
-0.01564068911476384
-1.369766298571452
-0.09937249756472347
-0.01337107006782317
0.02579172489485542
-0.1627018970944696
-0.09161598366018937
-0.01185183461145212
-0.01404450258605013
-0.239712306330317
-0.02936654360332591
-0.01887841420212468
-0.01141208436690749
-0.01979089410742253
-0.01030925166455743
-0.03075185070633335
-0.4113358541722298
-0.01243156498805175
-0.01410580289654653
-0.004747247749836613
-0.01117794122718524
-0.0106129499062556
-0.01417169402455127
-0.007095177406871027
-0.02640659349229548
-0.01159427979052301
-0.168435499525404
0.01813937463579328
-0.007534542484843652
0.003861346574614242
0.01365132933045927
-0.04794422733759135
0.02874784640216899
-0.01329721321467467
-0.1332949705504856
0.2825953602437651
-0.007299785085963936
-0.01353099250167495
-0.008255208015347602
-0.03267013538534114
-0.1240127786090864
-0.012293146609443
-0.01220308626381097
-0.01677420934646305
-0.01356011291688708
-0.04121894807385928
-0.2171388413464605
-0.0104889367226004
-0.04236793718885551
-0.03937570570136172
-0.1709478119959587
-0.1614379366266286
-0.1343487095794433
-0.2341984854356401
-0.006167677743707913
-0.02107385653640356
-0.01413816037471557
-0.0128103075298297
-0.03319818127444445
-0.0244738681890473
-0.01432727289767497
-0.01492076529312249
-1.074173668852427
-0.006211713878957508
-0.01335374862399362
-0.01837889799151197
-0.02386943345583663
-3.918185853235035e-05
-0.0147523275786644
-0.02643972623167093
-0.1527296306440179
-0.01359037189326198
-0.02206285877690203
-0.01385984710141612
-0.0009569041475676271
-0.1784152195115722
-0.01295343746470144
-0.1443101359737388
-0.01594603856362669
0.004131359302984731
-0.01455356977085596
-0.02346055783004411
-0.01558085632360613
0.004961407345172398
-0.274148693454238
-0.02584997287099505
-0.01603219836546185
-0.002923090403458808
-0.009787880933130761
-0.03004871118777701
-0.0142020967262526
-0.02047850261840703
-0.0211030034018537
0.01494135713186666
-0.09912622324012707
-0.02177240000029125
0.00928680681597939
-0.05446121105935404
0.1696918336574655
-0.1046627386222827
-0.3175686633310075
-0.03099889677227958
-0.02556421231813095
0.1506801358063642
0.07781411135866866
-0.003590237323926365
0.04970986351783925
-0.01536778065550505
-0.01419027124808683
0.002382010115135696
0.01004118300386019
-0.06584516823879985
-0.005894534845610677
-0.05686057475301996
-0.02227399612048309
-0.01573078852608866
-0.03653822984700818
-0.0329131359097326
-0.006648171543899363
-0.01508893100565676
-0.03783132080922447
0.03669237706883045
-0.03883790789430099
-0.01384899490013358
-0.1178739285412739
-0.03177685966591726
-0.03905989012429242
-0.6720745169243295
0.02036331030792285
-0.01044160228025668
-0.005740259869743978
0.1621905552071454
-0.08826559296441049
-0.0352147084283536
-0.2442002497093
-0.01641828199049172
-0.01642631715344474
0.07191183657279306
-0.1816580022125357
-0.2333165445396337
-0.1940808534196824
-0.6809339310505156
0.001867877235576921
-0.01847202236007467
-0.01692420321289125
-0.08316406220421689
0.1183521194930887
-0.02082846163248431
-0.2314466279224575
-0.0353869076334667
-0.006604209126257464
0.2800257204210903
-0.01120705255332295
-0.09214361053243297
-0.151098485019056
-0.00354589285862002
-0.040808897818969
-0.05200550651728134
-0.2028917923982783
-0.008331181478224562
-0.04087739833376446
-0.002538086100712696
-0.5465582732921894
-0.1953679372087671
-0.1774999586262814
-0.02288961703878293
-0.007537804962706928
-0.06094605234585929
-0.05732133189462391
-0.01380267224589367
-0.06846366368843403
0.004363904267844736
-0.01812311768497925
-0.0936313367322355
-0.2715583815077147
-0.007469390413736935
-0.02611470280493132
-0.02183638502591757
-0.07516986345039588
-0.08991950998070987
-0.08867815635479309
-0.01204395899702245
-0.9189188435691831
0.1618098231905451
-0.07896505442831181
-0.251413212173022
-0.04199337062648062
-0.01021291193181344
-0.2554208097144591
-0.1915660620061711
-0.03188439204007576
-0.1263135343224492
-0.01967919450918429
0.5636270205429859
-0.02431758186035921
-0.2251469399116025
-0.0256747866813772
-0.005668275300002347
-0.01180627943805536
-1.245845120605556
-0.1806601248460871
-0.2296009454838796
0.005277869383735798
-0.0382714850605029
-0.2493010989853209
-0.06614541976145911
-0.05142898911255104
-0.1446274380649527
-0.1839089486497515
-0.06877244810555397
-1.221365454772501
-0.1462748774474725
-0.5284204335727852
0.07925543317834763
-0.0062425758297517
-0.02158458820504162
-0.04355930917415166
-0.03919193665048918
-0.02849877437926929
-0.1294875968809419
0.08091455221218367
-0.002011223978784842
-0.009929650964154515
-0.5740282800339319
-0.8570821611841551
-0.180681020518246
-0.008301061165318828
-0.1359191664491761
0.0008343420135776681
-0.0001724127904977166
-0.001980387350546587
-0.0603083709088431
-0.2357896142717132
-0.01331162832657326
-0.1218853857553873
-0.1572393810469559
-0.01319451548098726
-0.03526571620868844
0.02526942928669563
-0.05789825606328147
-0.07076545880074452
-0.4984659478712031
-0.2184483878318081
-0.07986176412530857
-0.07407689733189166
-0.01974073283040644
-0.1229288865565708
-0.1545829326560039
-0.07565430404586825
0.02267502580744559
-0.08569845828895591
-0.04915915337351224
-0.01487792706078334
-0.1067853027167227
-0.2760157457950804
-0.05810025147355558
-0.01831179364922409
-0.0006336926344704216
-0.01000083645728187
-0.01094322487371779
-0.2225898330106408
-0.01524048965346841
-0.2189433428386106
-0.0102752657070795
-0.07091785885732106
-0.004294480750003034
-0.02323940447090597
-0.3838553450630441
-0.9190038803482314
-0.01132721503079526
-1.042407022381629
-0.6082524384494796
-0.01051232191504625
-0.66243009930023
-0.1822529704857196
-0.006015814124028935
-0.1286752117979359
-0.01670762531099944
-0.123776350404233
-0.06598200271995078
-0.08044441980179573
-0.005066574575647897
-0.002268891173019383
-1.34538909619266
-0.01140533441709095
-0.1785326627242813
0.0006953883857064824
-1.005282158370421
-1.242981483698507
-0.07971829711502898
0.0175463100224179
0.1645319363690814
-0.004487636345775153
-0.02304574399370517
-0.004179342320701778
-0.2487424453275676
0.3658176382241819
-0.04137640695426979
-0.2124902950067912
-0.01490147756413137
-0.649737936426126
-0.07344948371315066
0.1892587289282378
-0.2902959657141654
-0.0501341925074501
-0.06936521538681699
-0.01586466358817226
-0.02167483181087087
-0.5833210190641848
-0.1472529966907829
-0.087980832888006
-0.1254782677241111
-0.5515615379009937
-0.04456133680317412
-0.9022253728296364
0.000609819956575591
-0.2407079117320607
-1.055676964464971
0.1640843487751348
0.2896515467100924
-0.1826755264794256
-0.1900095623662864
-0.2130045501826213
-0.06700781391635191
0.02243028687018778
0.0445402732952558
0.003097032998942264
-0.1656255212835077
0.02589018772091224
-1.364580902678976
-0.08600314676787861
-0.4769786364174073
-0.3337946865367942
-0.2087422532381887
-0.1787010009083316
-0.01691005349164006
-0.01545979141739169
-0.1048606409103032
0.1740787205864021
0.3846332208494452
-0.2029250919684818
-0.1412996204410103
-0.2253196253993342
-0.06291862199862346
-0.1520750069179204
-0.1664301271037553
-0.1266210557957988
-0.1226506852823837
0.4637728164589462
-0.2741874453691395
0.4335696768049275
-0.5947093096216148
0.07229843508546153
-0.198211036719287
-0.06683563641964826
-0.07633715082644964
-0.8867190660379093
-0.2155250818627789
-0.1922990268722966
-0.3502402973257146
-0.4617670080468201
0.5701418896586069
-0.2124426779786482
0.001652309293777092
-0.06871230537816546
0.3456186822725807
-0.03603376633077766
-0.1316888804218719
-0.1810510278417423
-0.06335068626544912
-0.01651533073188326
-0.1984384353929679
0.1975231049317328
-0.01291342691952474
-0.09729535639316592
-0.1733211127468507
-0.3198012580626871
-0.3103462873182362
-0.06815080927570044
-0.01015163876840688
-0.08154683933547176
-0.6493854117246616
-0.6751949410442885
-0.333952107269464
-0.05826839548355216
-0.0505691642453182
-0.02512889346846799
-0.06876762311909673
-0.05624971453476853
-0.3626299833624317
-0.9633511596496073
-0.0103257417025128
-0.08397488313692841
-1.144653355972102
-1.039245570600716
-0.1085044625428262
-0.04026965228327126
-0.06880829578922142
0.3885321098580415
-0.3409574496407006
-0.04915525762223125
-0.6031468531002514
-0.1246168391018184
-0.2503072840416447
-0.2131613451960241
0.4734007441487735
-0.6330067348952935
0.07639130022160247
-0.0291231576341391
-0.5636508088718227
-0.05301466885031734
-0.3653529597794654
0.109371575877046
-0.1917416132068013
-0.06046114123899633
-0.1363076675271534
-0.35813121273676
-0.08439040675518561
0.5158489712433584
0.08648076890109124
0.4695139245496376
-0.100103015858583
-0.2034274705306768
-0.5171529667406281
-0.133782905573905
0.02546383988470796
-0.05442952671546259
0.1003776010475045
-0.3024406484324089
0.2364348014223027
0.006006673760567486
-0.003052613773223875
-0.5095256194298534
-0.1832511785755904
-0.0819851038543689
0.5816643579877103
0.1392779315897353
0.3427981648515385
0.2255088969588186
-0.5658120350376458
-0.1921065201681072
-0.2253618270231522
-0.2246895768263066
-0.06113495639496259
-0.6897698724815813
-0.1902418300665127
0.3047104747741107
-0.1902958842759886
-0.01141887019368272
-0.1660142766295488
-0.01061825156959961
-0.1607244054821196
-0.4401270731508281
-0.07599509971146992
-0.2041889524968782
-0.07158901420784221
-0.0898836843750233
-0.1429077749926368
-0.07243188356706573
-0.4499551392371058
-0.4111984902003267
-0.02416939013766784
-0.07611627969477812
0.3301938139048679
-0.2492299354551999
-0.1804870632997631
0.5240088056308227
-0.2039241867032568
0.02036266796946101
-0.452645006923007
0.05087277475743764
-0.06069045902531909
-0.1395287904363139
-0.5876852906713782
0.1585890846780195
-0.5765378756569691
-0.5382081014996699
-0.1026543137472438
-0.5112449951902929
-0.03683641070788683
-0.1418307306931404
-0.4139005993304631
-0.0161746941109244
0.2881478298763388
0.48995092153901
-0.1617476939125488
-0.006566967655215971
-0.08200739686131836
0.5251345667667963
-0.03288026163450943
-0.4421759015184031
-0.03243979451493342
0.4619288600032495
-0.01610257917784576
-0.5471354932591678
-0.2487654723440208
0.1777438401660372
-0.3126710791272994
-0.1807414539792916
0.04837002734034506
0.03247049741425032
0.05571331727080574
-0.3014587179924814
-0.1597260319449547
0.4128463771057549
)
;

boundaryField
{
    FrontBack
    {
        type            empty;
    }
    Top
    {
        type            zeroGradient;
    }
    In
    {
        type            zeroGradient;
    }
    Bottom
    {
        type            zeroGradient;
    }
    Out
    {
        type            fixedValue;
        value           uniform 0;
    }
    circle
    {
        type            zeroGradient;
    }
}


// ************************************************************************* //
