/*--------------------------------*- C++ -*----------------------------------*\
| =========                 |                                                 |
| \\      /  F ield         | OpenFOAM: The Open Source CFD Toolbox           |
|  \\    /   O peration     | Version:  2412                                  |
|   \\  /    A nd           | Website:  www.openfoam.com                      |
|    \\/     M anipulation  |                                                 |
\*---------------------------------------------------------------------------*/
FoamFile
{
    version     2.0;
    format      ascii;
    arch        "LSB;label=32;scalar=64";
    class       volScalarField;
    location    "269.5";
    object      p;
}
// * * * * * * * * * * * * * * * * * * * * * * * * * * * * * * * * * * * * * //

dimensions      [0 2 -2 0 0 0 0];

internalField   nonuniform List<scalar> 
808
(
-0.03362952032207454
0.04427496489255603
-0.01166283821782871
0.03734035299173213
-0.2970775235525192
-0.05523603714954523
-0.01520112471270456
-0.02389090452543748
-0.1953051218807267
-0.08306452885384437
-0.009812208582466708
-0.2522244823148626
-0.03061369471412301
-0.0136413334216746
-0.1246586414163166
-0.01408712594932354
-0.1424613369184142
-0.01365030546245451
-0.01298370836935668
-0.05509314394430102
-0.007190111661141738
0.1169065713393629
-0.06282963440659456
-0.07092307968426662
0.1745544115085427
-0.0999029295122295
-0.1511500831605127
-0.02042339289509469
-0.01756879864951704
-0.02584367200594673
-0.02029857665683722
-0.05782976668164676
-0.02292333428410048
-0.01693975451999265
-0.09847294250769102
0.3450389248636863
-0.03949408755871606
-0.01671935660164218
-0.02269613462386027
-0.02655639362975288
-0.08935735551611657
-0.1254061658304055
-0.05224974851194674
-0.02103167964435955
-0.05552327213628762
-0.0419226443787521
-0.01213354983420518
-0.1828371897474545
-0.02675789746256181
-0.2024136670292308
-0.01667388613365198
-0.06647075919300784
-0.06118069020249339
-0.0152229301972218
-0.1946353283855742
-0.02805967435579645
-0.01094234913305712
-0.01535282610763825
-0.09935037239940375
-0.03939728374476886
-0.1016101427666649
-0.124814356051237
-0.01407529748398147
-0.1267853501257072
-0.01718603155629542
-0.05204586181149504
-0.1614342963554654
-0.03552445041176432
-0.01525626525620321
-0.4380864064018645
-0.02639259763204855
-0.3001783320964993
-0.02151172083973728
-0.02066083549463382
-0.06317079272757518
-0.0179222847970982
-0.04213161435408628
-0.3663223988588368
-0.03609935169350832
0.03897013702956614
-0.09216012716132864
-0.01695088159879351
0.0570790048519682
0.04578216375799102
-0.01720991644185328
-0.05173202480879947
-0.5393164119037247
-0.2278565466717865
-0.05161396542909476
-0.1132850474662837
-0.05592356593588211
-0.131245384577115
0.0387064507864552
-0.0260408083631769
-0.06227867240943743
-0.1161267367866244
-0.03833848594842922
-0.05239868608674654
-0.114882390338836
-0.1362448175039183
-0.05269789475251981
-0.04692012893406469
-0.05383023874514849
-0.04438588047255641
-0.05704239841615911
-0.07503867778623699
-0.04117754799397162
-0.01112538643540697
-0.03995922360051069
-0.1227169439253604
-0.05003585796796706
0.08151332774301609
-0.04209979418555704
-0.008199075264700787
-0.02769492523599509
0.1809433295178244
-0.03836440333950011
-0.2667343955066406
-0.02052305707173761
-0.05294035659440634
-0.03330492097709301
-0.04908770311065111
0.01386763087627565
-0.0479891949600744
-0.03618319325128122
-0.2192036190173463
-0.04036331670256418
-0.004807542661014718
-0.074995319587311
-0.06929357677411148
-0.1425183221876132
-0.02095524720097207
-0.07443707799873989
-0.0437217210954748
-0.02287477930147733
-0.0152189223683209
-0.006323562167044242
-0.007300091619072994
-0.05209047948040043
-0.04922239439669125
-0.2185132894601908
-0.05579230938746924
-0.008347851530329119
-0.02207531105514154
-0.1483460145023087
-0.002793499678284418
-0.07555254540132172
-0.02123130550234138
-0.0007311483330836195
-0.01108086159097469
-0.03309659035216542
0.09338601660557905
-0.03817898089053842
0.2516390056553872
-0.26847373031712
-0.1332236994934601
-0.03765945128531269
-0.09092408105996476
-0.009419483647434038
-0.114180320711117
-0.1755942570116202
-0.2199554337726171
-0.175505708952348
0.05679208609986502
-0.06341449093135129
-0.02047646538079822
-0.06641934249429245
-0.1649105166635946
-0.023234652777579
-0.01840230577177357
-0.05133036614667835
-0.02032941433854039
-0.007144603401382106
-0.106265017159101
-0.02322711325168415
-0.04440945813960052
-0.07059386612096244
-0.1595649669539857
-0.03324635855551887
-0.3871153085454445
-0.01787713530709014
-0.2269028637251123
-0.04375449114449614
0.03285693530062161
-0.1065539720075797
-0.01611245967043537
-0.0428970216169579
-0.1034899877518771
-0.01771286026425455
-0.09465358462673389
-0.207666182571333
-0.0711288083100568
-0.023924297398669
-0.04736762072061387
-0.04226223135429181
-0.2043637914507718
-0.02215738366132268
-0.01915006424193043
-0.01127140941613952
-0.05688030463849057
-0.04999186066643082
-0.02241923819621663
-0.02076493409531806
-0.2386965262779966
0.1269936537151566
-0.2062734310248836
-0.1925706382161745
-0.01177964313700281
-0.01134303577992188
-0.06674550222344844
-0.01032384117931677
-0.5003036063386418
-0.1205236658813017
-0.0193181266675892
3.127756121694154e-05
-0.02385441566089169
-0.2791366615421574
-0.2796923298922918
-0.007151714948726857
-0.01714802449085497
-0.001144585822394423
-0.3507130863664096
-0.02839666836270531
-0.0292201497153443
-0.01255424355435651
-0.01958433270791368
0.04902921163185688
-0.1131347354724677
-0.01432928260423909
-0.02086013168759582
-0.04503219790308893
-0.01828547010654959
-0.01623221114633118
-0.02348726930615275
-0.0678851019125261
-0.01130811725799827
-0.01900048812702537
-0.008687934915953521
-0.0007864080781982463
-0.02945314461707431
-0.001863382854752851
-0.002093152973082778
-0.005755711370275171
-0.02557470235376547
-0.00797017355989902
0.001469928269466964
-0.004285279723166086
0.001405787303510296
0.002506744114122889
-0.008987446086653287
-0.137591991507345
-0.002951843098034882
-0.001280493046749887
-0.04801305004229296
-0.02157202553409132
-0.02399097505050559
-0.01425450562105583
-0.006206745715515164
-0.02095924542559477
-0.039752674392382
-0.0144006755696859
-0.01289738970546175
-0.01134484134068213
0.008852530006345531
-0.01004132860164912
-0.01202009077287407
-0.01155298767397185
-0.01046121616868616
-0.01038859531269203
-0.0121674246087751
-0.01381049516132729
-0.3000158913357241
0.05910078925261964
-0.01586811302998264
-0.01501672459515319
-0.01279298702832389
-0.01179856663944422
-0.00864499001042876
-0.0965787480589721
0.01286839631873616
-0.01373486007301353
-0.01396601134047534
-0.01057717486669728
-0.05116339788082282
-0.01002432291460788
-0.01352518900108081
-0.01029585667822504
-0.0004502332451207849
-0.01120270392101367
-0.01225950804610133
-0.02445341683757535
-0.01551229782523794
-0.01197441401254457
-0.01357393253528959
-0.007667305357984748
-0.01208266029020149
-0.01164867373742215
-0.05936020254673199
-0.01351747526340633
-0.01142840818274639
-0.008996979331305338
-0.01509616474591738
-0.01365086854151042
-0.01561277019154503
-1.364595077849681
-0.1001669676322401
-0.01314720351707032
0.02655478913600691
-0.161164953047435
-0.09146583309787837
-0.01214178195254685
-0.01408243509217231
-0.2333908208167258
-0.02847094705344249
-0.01793465657460399
-0.01188079484973907
-0.02005161138269366
-0.01011448099193257
-0.03079152749466781
-0.4085672054472603
-0.01238841658495587
-0.0141012213912386
-0.004603661644917988
-0.01134468223312306
-0.01077135725485444
-0.01401485725705374
-0.006490362808138583
-0.02680152248589764
-0.01177412968269921
-0.1718447387318732
0.01929359428728663
-0.007395635223415486
0.0042445801345008
0.01340419140176758
-0.04853111338156449
0.02792045437522184
-0.01339722571557819
-0.1321553337840699
0.282893365493075
-0.007567444873687271
-0.01368240584980019
-0.008098560426140551
-0.03261937555005994
-0.1252339597883828
-0.01219698451749962
-0.01205841986916719
-0.01697294988975992
-0.0135214870848521
-0.04148329814832757
-0.2193403454718509
-0.009818436053336549
-0.04325901933201541
-0.03885888764999947
-0.1757804061766714
-0.1574318484253017
-0.1362486358145892
-0.2252179331103762
-0.004955583831640274
-0.0208690916702938
-0.01444647818878548
-0.01320413098200936
-0.03353338719285741
-0.02452228746318213
-0.01416219386063689
-0.01487310250277793
-1.069113342593945
-0.005724128995969045
-0.01320021629807682
-0.01824679808462075
-0.02472001138054984
0.0003250722712964
-0.0149169648181196
-0.02555968066605503
-0.148755390388253
-0.01362485886651744
-0.02169247401958455
-0.01407782022172146
-0.001570086857446663
-0.1776524645615006
-0.01267301111224129
-0.1484256619361347
-0.01572167504510136
0.002535903091658999
-0.01438644392021445
-0.02385852994611569
-0.01578446290682926
0.005351275877480398
-0.2700929824979065
-0.02626502584517593
-0.01630699953302115
-0.00588635141136592
-0.01031735824241292
-0.02960142084015499
-0.01398165215688417
-0.02074488789586141
-0.0207883330005314
0.01426866006736065
-0.09787077984462678
-0.02142914452564677
0.009418900389450818
-0.05708543097386765
0.1774223408392437
-0.1060034146879334
-0.3154072611246961
-0.03076509060356004
-0.02576896332710811
0.1515117776466467
0.07859091128488357
-0.003764314325387328
0.05080972046070705
-0.01515175530430676
-0.01376202719031263
0.002546043684978496
0.008559794336453255
-0.06501220946652433
-0.005560309974482856
-0.05625275742729838
-0.02260160211968542
-0.01572404913850431
-0.03653422437719871
-0.03291731654084249
-0.006664062197791441
-0.01498689497834285
-0.03690502314567845
0.03484086235404105
-0.03876350607449775
-0.01397713129002434
-0.1191538352626999
-0.03141114471186515
-0.03959064522456747
-0.6684383332267653
0.01925830085492534
-0.01027052569498494
-0.005888589161673
0.1685981153803557
-0.09278358509483187
-0.03556336458010823
-0.2422088981953001
-0.01597458435659002
-0.01623673616137534
0.07787641137484874
-0.17983884819326
-0.2354673225893941
-0.1900971236951707
-0.6768705576387958
0.002702278409783342
-0.01801975406606528
-0.01655515638612347
-0.08756636929583034
0.1187188538139325
-0.0210430178319406
-0.228211632745495
-0.03586166126019638
-0.006813461089527738
0.2810846479831118
-0.0110649646527951
-0.0910211884526881
-0.1527072492332607
-0.003452374312813663
-0.04126480105089263
-0.0524324483448592
-0.1996882087243125
-0.007984227912679765
-0.03998978308991408
-0.002795500193781749
-0.5435476752158693
-0.1928563872742824
-0.1787809162642989
-0.02319280342428936
-0.008256452490596814
-0.0617788232297616
-0.05662758122783771
-0.01397041857634012
-0.06926899373222985
0.00492363516399793
-0.01784574278377335
-0.09334280292025982
-0.2751771159949918
-0.008046890982339072
-0.02564330854029451
-0.02155030357533626
-0.076010982058497
-0.08906039027655629
-0.08946068412300107
-0.01201743838739328
-0.9119399137088814
0.1624195211389433
-0.07969151939500523
-0.2483028085982804
-0.04150185251861205
-0.009852790435336167
-0.2547226689873066
-0.1969701863021714
-0.0309684831730112
-0.1228065294079466
-0.01951276754416947
0.5638292639739858
-0.02480048407123441
-0.2202689043084599
-0.02524232013301487
-0.005208641097298645
-0.01147860321598454
-1.241662206953103
-0.1795129873726832
-0.2269319354058966
0.005218973830123134
-0.03898225129366205
-0.243989109980296
-0.06682077977308644
-0.05191271750978177
-0.1463605962444216
-0.1799581052461278
-0.06963388797996534
-1.215212065924866
-0.1511374384073424
-0.5361988742420943
0.07996932106041468
-0.00593732294734067
-0.0212104870009759
-0.0443998734812445
-0.03819720975498453
-0.02809141383554766
-0.1285361945325041
0.08157347884369061
-0.002251117597089513
-0.009992628172036118
-0.5677306590300291
-0.8513028174002772
-0.1767829088486343
-0.008110401427021114
-0.1319135050802427
0.0006390980897588092
-0.0001365184820921864
-0.002375209257252563
-0.06079224486093344
-0.2335317375265041
-0.01326614554194803
-0.1181487931043786
-0.1579857054321393
-0.01314917992242761
-0.03471237645819492
0.02774797207714141
-0.05849967099158706
-0.0716985954324032
-0.4944746539413908
-0.2114135594305068
-0.07930024670703885
-0.07529193640642934
-0.01951514132801678
-0.1197659809932179
-0.1581609416958016
-0.07780187067843701
0.02333393379859787
-0.08681833273101572
-0.05009128070726378
-0.01488032661121612
-0.1088449172612032
-0.2793299511695342
-0.05918769025847921
-0.01811770139840727
-0.0004972687397700652
-0.01004668120783245
-0.01073480024882216
-0.2287809373350246
-0.01497885672799401
-0.2166604461675224
-0.010344620475084
-0.07355033899818456
-0.004446324946190039
-0.02326565045523613
-0.3892598992451913
-0.9267472528824056
-0.01129949515485263
-1.03825532809822
-0.6035146375076759
-0.01045395008319495
-0.6652450219888389
-0.1863148779419353
-0.005853140112610556
-0.1261875759713366
-0.01668205252769725
-0.1253114764347899
-0.06497878565615013
-0.08167425030575509
-0.005130259847638342
-0.002365612214390218
-1.349897074043726
-0.01151714854076623
-0.1782893755788532
0.0008740041494722349
-1.001884755975572
-1.249743889078371
-0.07840972949876311
0.01618235471175455
0.1646386309975575
-0.004503499014400134
-0.02302394711064731
-0.004209004759363076
-0.2441359304551583
0.3655537327897355
-0.0419219534640768
-0.214066126177423
-0.0149979914166882
-0.6469987543702588
-0.07229042328489817
0.1882488200000516
-0.2967842940086236
-0.05055896717867702
-0.07000747484501263
-0.01583971320751697
-0.02156270344499047
-0.590329942702839
-0.1502131384534838
-0.09056270739950889
-0.1219840762647634
-0.5487344122591734
-0.04505504422631933
-0.8988278969314027
0.0006117627618508175
-0.2432083013826619
-1.059261712071935
0.1625607627140312
0.2885937267825048
-0.1795542977426171
-0.1881776205698751
-0.2160429077613032
-0.06621693674871371
0.02325772070368897
0.04283449419367662
0.003303317997663357
-0.1618754762021964
0.02632778392041316
-1.370110265104748
-0.08685012340784337
-0.4798388492863447
-0.3360831802589665
-0.2139892205982913
-0.1805135321401368
-0.01692776044754991
-0.01543249688250569
-0.1010672919422322
0.1753488468778759
0.3841187848941716
-0.1990412744884956
-0.145490359721276
-0.2190726923040187
-0.06341026763640772
-0.1555477538694993
-0.1695658264619107
-0.127528080016683
-0.1194103791199195
0.4627920907075853
-0.2791354715692606
0.4344605673428416
-0.5905618840301887
0.07332523064486955
-0.1928775489669252
-0.0675796958859135
-0.07783070359477375
-0.8932469760769778
-0.2134557027848196
-0.1936237543451928
-0.3535510748044777
-0.4654112505515994
0.5697851217991874
-0.2153038549327912
0.002645460625736178
-0.06738914892840527
0.3464241436374377
-0.034973542101234
-0.12925584545525
-0.1823597738248718
-0.06357265854396106
-0.0164599070705298
-0.2004870113050445
0.1989595522270874
-0.01287373525655795
-0.09833002223093962
-0.1760012073831341
-0.322074947930723
-0.3080348911168275
-0.07318397533923074
-0.009963819792384847
-0.08274149710138717
-0.646611685716485
-0.6781126076338877
-0.329378582932898
-0.05890992063950682
-0.0495757938579859
-0.02474150153074878
-0.06982503161492079
-0.05508291390412953
-0.3663671134884777
-0.9670026632163208
-0.009887756990826082
-0.08498196361304781
-1.149212749825278
-1.044678222148935
-0.1104007791334479
-0.04154931288044319
-0.06792398715598202
0.387617076330716
-0.3386999077752506
-0.04897523265674195
-0.606599702528499
-0.1287441228686482
-0.2482378906079971
-0.2150976422646959
0.4729806834610724
-0.6372074517991817
0.07781251560132417
-0.02869199435959292
-0.5686590009997142
-0.05422904163495763
-0.3677895073371007
0.1106024717109786
-0.1932795514596165
-0.06116442633693809
-0.132712932770197
-0.3558185250802672
-0.08261774426196969
0.5163673953140047
0.08719904644433844
0.4688520112237846
-0.1041445613151484
-0.2062556380102823
-0.5123504884572058
-0.1355953335926884
0.02438714709542029
-0.05529203724026999
0.09906417974702655
-0.300258843460646
0.2365172746001263
0.004533154221380112
-0.002781253228303287
-0.5067543957470569
-0.1814908027682663
-0.08558489725954724
0.5815975881948158
0.1398028750550247
0.3416468251351533
0.2252563534299105
-0.5688022294000145
-0.1920407347162736
-0.2256988413329093
-0.2204964979654695
-0.06196340907718185
-0.6863360508657306
-0.188293419718415
0.3039118517338926
-0.1887772546082947
-0.01146963824735066
-0.1620899995738959
-0.01159244168593803
-0.1649027233984093
-0.4449807641963247
-0.075817191801449
-0.2075206776107908
-0.07250704403067161
-0.0942726495881728
-0.138876722241832
-0.0720408641264409
-0.4448030503928133
-0.4087532865467018
-0.0229852554468415
-0.07746168057007329
0.3312987716395367
-0.2515493423639446
-0.1761989388598996
0.5233623101605638
-0.1994406422447054
0.02171445475605087
-0.4556097819025379
0.05248185758448571
-0.05963066757948259
-0.1393936470999915
-0.592010234905569
0.1571917526363404
-0.5735821409782469
-0.5416129045911452
-0.1009534287562765
-0.5142607327744443
-0.03633583537816432
-0.1462291270043685
-0.416459079304748
-0.01607908056516967
0.2888722492146065
0.4900925346394862
-0.164600602516522
-0.005485324402517113
-0.08712678721586851
0.5249956533483123
-0.03237931222935207
-0.4454721627016901
-0.03202679948978087
0.4624277389847978
-0.01716993703746687
-0.5506998144784854
-0.2475444378049018
0.1786828346277335
-0.3152117348214871
-0.18255366428424
0.04682849131932349
0.03149395837493135
0.05665061348303015
-0.3040654036627151
-0.1605589817183054
0.4128581087855297
)
;

boundaryField
{
    FrontBack
    {
        type            empty;
    }
    Top
    {
        type            zeroGradient;
    }
    In
    {
        type            zeroGradient;
    }
    Bottom
    {
        type            zeroGradient;
    }
    Out
    {
        type            fixedValue;
        value           uniform 0;
    }
    circle
    {
        type            zeroGradient;
    }
}


// ************************************************************************* //
