/*--------------------------------*- C++ -*----------------------------------*\
| =========                 |                                                 |
| \\      /  F ield         | OpenFOAM: The Open Source CFD Toolbox           |
|  \\    /   O peration     | Version:  2412                                  |
|   \\  /    A nd           | Website:  www.openfoam.com                      |
|    \\/     M anipulation  |                                                 |
\*---------------------------------------------------------------------------*/
FoamFile
{
    version     2.0;
    format      ascii;
    arch        "LSB;label=32;scalar=64";
    class       volVectorField;
    location    "0.3";
    object      cellDisplacement;
}
// * * * * * * * * * * * * * * * * * * * * * * * * * * * * * * * * * * * * * //

dimensions      [0 1 0 0 0 0 0];

internalField   nonuniform List<vector> 
256
(
(-0.000274648 0.0102258 0)
(-0.00178208 0.00979909 0)
(-0.00299232 0.00888554 0)
(-0.00371206 0.00757695 0)
(-0.00386682 0.00606712 0)
(-0.00343708 0.00445115 0)
(-0.00259836 0.00294688 0)
(-0.00138329 0.00145308 0)
(-0.000955331 0.0301207 0)
(-0.0052353 0.0292028 0)
(-0.00866267 0.0266533 0)
(-0.0108893 0.0231945 0)
(-0.0116193 0.0190788 0)
(-0.0109316 0.0147938 0)
(-0.00892192 0.010498 0)
(-0.00590481 0.00636137 0)
(-0.00178704 0.0491307 0)
(-0.00843975 0.0475149 0)
(-0.0139291 0.0438368 0)
(-0.017626 0.0386386 0)
(-0.0192024 0.0324954 0)
(-0.0185963 0.0259059 0)
(-0.0161143 0.0194179 0)
(-0.0119218 0.0130116 0)
(-0.00271209 0.0670296 0)
(-0.011526 0.0650557 0)
(-0.0188473 0.0603624 0)
(-0.0240045 0.0538285 0)
(-0.0265534 0.0460459 0)
(-0.0264994 0.0377741 0)
(-0.0239499 0.0293972 0)
(-0.0192223 0.0211697 0)
(-0.00379477 0.084226 0)
(-0.0144825 0.0817158 0)
(-0.0235377 0.0763514 0)
(-0.030123 0.0687753 0)
(-0.0338251 0.0598 0)
(-0.034499 0.0500889 0)
(-0.0323967 0.0403412 0)
(-0.0276748 0.0306546 0)
(-0.00498535 0.10049 0)
(-0.0174296 0.0977418 0)
(-0.0280505 0.0917655 0)
(-0.0360595 0.0834403 0)
(-0.040961 0.0735156 0)
(-0.0426948 0.0628615 0)
(-0.041306 0.0519741 0)
(-0.0370724 0.0411876 0)
(-0.00638761 0.116193 0)
(-0.0203558 0.113035 0)
(-0.0324835 0.106687 0)
(-0.0418794 0.0978055 0)
(-0.0481151 0.0872771 0)
(-0.0509866 0.0758241 0)
(-0.0506748 0.0641957 0)
(-0.0473409 0.0525977 0)
(-0.00794048 0.131102 0)
(-0.0233824 0.127787 0)
(-0.036885 0.121098 0)
(-0.0476704 0.111871 0)
(-0.0552404 0.100878 0)
(-0.059494 0.0889962 0)
(-0.0604242 0.0767798 0)
(-0.0583004 0.0645977 0)
(-0.00979612 0.145545 0)
(-0.0265036 0.141908 0)
(-0.041345 0.135048 0)
(-0.0534779 0.125597 0)
(-0.0624977 0.114393 0)
(-0.0681511 0.10215 0)
(-0.0705699 0.0896002 0)
(-0.0699563 0.0770514 0)
(-0.01189 0.159269 0)
(-0.0298496 0.155523 0)
(-0.0459149 0.148519 0)
(-0.059411 0.138989 0)
(-0.0698448 0.127637 0)
(-0.0770949 0.115268 0)
(-0.0811286 0.102513 0)
(-0.0822359 0.0896997 0)
(-0.0144358 0.172542 0)
(-0.0334338 0.168547 0)
(-0.0506984 0.161502 0)
(-0.0654886 0.151967 0)
(-0.0774613 0.140625 0)
(-0.0863301 0.128222 0)
(-0.0921906 0.115335 0)
(-0.0952059 0.102402 0)
(-0.017389 0.185081 0)
(-0.037419 0.180986 0)
(-0.0557386 0.173962 0)
(-0.0718868 0.164488 0)
(-0.0853431 0.153267 0)
(-0.0960328 0.140844 0)
(-0.103796 0.12795 0)
(-0.108959 0.114797 0)
(-0.021046 0.196991 0)
(-0.0418288 0.192775 0)
(-0.0612508 0.185759 0)
(-0.0785981 0.176496 0)
(-0.0937133 0.165334 0)
(-0.106194 0.153035 0)
(-0.116133 0.139943 0)
(-0.123506 0.126604 0)
(-0.0254294 0.207981 0)
(-0.0469673 0.203628 0)
(-0.0671983 0.196766 0)
(-0.0858636 0.187595 0)
(-0.102481 0.176664 0)
(-0.116995 0.164251 0)
(-0.129111 0.151006 0)
(-0.139057 0.137079 0)
(-0.0308895 0.217506 0)
(-0.0527279 0.213021 0)
(-0.073669 0.206179 0)
(-0.093347 0.197226 0)
(-0.111553 0.186364 0)
(-0.128009 0.173949 0)
(-0.142648 0.160185 0)
(-0.155323 0.145466 0)
(-0.0368257 0.223975 0)
(-0.0586017 0.219287 0)
(-0.0798134 0.212487 0)
(-0.100256 0.20364 0)
(-0.119734 0.192833 0)
(-0.138058 0.180168 0)
(-0.155053 0.165769 0)
(-0.170555 0.149773 0)
(-0.00132979 0.00147197 0)
(-0.00260141 0.00269654 0)
(-0.00384094 0.00352975 0)
(-0.00520308 0.00403133 0)
(-0.00656503 0.00406058 0)
(-0.00792782 0.00362839 0)
(-0.00910357 0.00269378 0)
(-0.00997444 0.00134023 0)
(-0.00588674 0.00636015 0)
(-0.00937889 0.00934316 0)
(-0.0130318 0.0113959 0)
(-0.0167397 0.012272 0)
(-0.0206523 0.0120259 0)
(-0.0243567 0.010443 0)
(-0.0275259 0.00754952 0)
(-0.0295957 0.00358498 0)
(-0.0119905 0.01277 0)
(-0.0175393 0.0169954 0)
(-0.0231628 0.0195513 0)
(-0.0290875 0.0204593 0)
(-0.0350295 0.0194889 0)
(-0.0406361 0.0165606 0)
(-0.0452725 0.0117159 0)
(-0.0483912 0.0053821 0)
(-0.0196144 0.0206283 0)
(-0.0268001 0.0253456 0)
(-0.0342862 0.0280191 0)
(-0.0419428 0.0284196 0)
(-0.0496626 0.0264963 0)
(-0.0567681 0.0220725 0)
(-0.0625835 0.0153112 0)
(-0.0662777 0.00677355 0)
(-0.0284727 0.029588 0)
(-0.0371778 0.0343635 0)
(-0.0461016 0.0365622 0)
(-0.0553534 0.0361976 0)
(-0.0644034 0.0330127 0)
(-0.0726588 0.0269933 0)
(-0.0792493 0.0183603 0)
(-0.0834328 0.00780379 0)
(-0.0385385 0.0395596 0)
(-0.0483894 0.0437603 0)
(-0.0586608 0.0451897 0)
(-0.0690617 0.0436516 0)
(-0.0792292 0.0390595 0)
(-0.0883143 0.03137 0)
(-0.0954886 0.0209168 0)
(-0.0998094 0.00848749 0)
(-0.0495304 0.0501934 0)
(-0.0604629 0.0534961 0)
(-0.0716976 0.0536969 0)
(-0.0831342 0.0507997 0)
(-0.0940474 0.0446022 0)
(-0.103701 0.0351991 0)
(-0.111136 0.0229927 0)
(-0.115586 0.00882877 0)
(-0.0614387 0.0613776 0)
(-0.0731481 0.0633035 0)
(-0.0852891 0.062062 0)
(-0.0973725 0.0575203 0)
(-0.108857 0.0496238 0)
(-0.118815 0.0384784 0)
(-0.126393 0.0245753 0)
(-0.13074 0.00880964 0)
(-0.0740786 0.0728304 0)
(-0.0865255 0.0731192 0)
(-0.0992253 0.0700952 0)
(-0.11187 0.0637744 0)
(-0.123618 0.0540598 0)
(-0.133673 0.0411705 0)
(-0.141124 0.0256434 0)
(-0.14534 0.00838713 0)
(-0.0875143 0.0844413 0)
(-0.100452 0.0826988 0)
(-0.11365 0.0777156 0)
(-0.126501 0.0694171 0)
(-0.138347 0.0578296 0)
(-0.148264 0.0431999 0)
(-0.155519 0.0261141 0)
(-0.159379 0.00750587 0)
(-0.101703 0.0959042 0)
(-0.115054 0.0919115 0)
(-0.128463 0.0846869 0)
(-0.1414 0.0743008 0)
(-0.153053 0.0607787 0)
(-0.162667 0.0444437 0)
(-0.169459 0.02592 0)
(-0.172912 0.00608138 0)
(-0.116703 0.106987 0)
(-0.13036 0.100409 0)
(-0.143853 0.0908031 0)
(-0.156559 0.0781625 0)
(-0.167783 0.0626939 0)
(-0.176793 0.044726 0)
(-0.182978 0.0248941 0)
(-0.185856 0.00399523 0)
(-0.132668 0.117128 0)
(-0.146464 0.107813 0)
(-0.159798 0.0955432 0)
(-0.171993 0.0806536 0)
(-0.182459 0.0632162 0)
(-0.190598 0.0437944 0)
(-0.195922 0.0228116 0)
(-0.198156 0.00106227 0)
(-0.149585 0.125768 0)
(-0.163384 0.113255 0)
(-0.176187 0.0983326 0)
(-0.187506 0.0810805 0)
(-0.196846 0.0619635 0)
(-0.203813 0.0412141 0)
(-0.208114 0.0194031 0)
(-0.20955 -0.00298223 0)
(-0.167401 0.131579 0)
(-0.180744 0.115816 0)
(-0.19255 0.0981408 0)
(-0.202504 0.0789019 0)
(-0.210365 0.058297 0)
(-0.215923 0.0366701 0)
(-0.219016 0.0143232 0)
(-0.219564 -0.00831457 0)
(-0.184414 0.132334 0)
(-0.196497 0.113621 0)
(-0.206687 0.0938141 0)
(-0.214887 0.0731035 0)
(-0.221018 0.0516888 0)
(-0.22502 0.0297764 0)
(-0.226855 0.00757716 0)
(-0.226506 -0.014695 0)
)
;

boundaryField
{
    walls
    {
        type            cellMotion;
        value           uniform (0 0 0);
    }
    cylinder
    {
        type            cellMotion;
        value           nonuniform List<vector> 
16
(
(-0.0368257 0.223975 0)
(-0.0586017 0.219287 0)
(-0.0798134 0.212487 0)
(-0.100256 0.20364 0)
(-0.119734 0.192833 0)
(-0.138058 0.180168 0)
(-0.155053 0.165769 0)
(-0.170555 0.149773 0)
(-0.184414 0.132334 0)
(-0.196497 0.113621 0)
(-0.206687 0.0938141 0)
(-0.214887 0.0731035 0)
(-0.221018 0.0516888 0)
(-0.22502 0.0297764 0)
(-0.226855 0.00757716 0)
(-0.226506 -0.014695 0)
)
;
    }
    outlet
    {
        type            cellMotion;
        value           uniform (0 0 0);
    }
    inlet
    {
        type            cellMotion;
        value           nonuniform List<vector> 0();
    }
    frontAndBack
    {
        type            empty;
    }
    procBoundary3to1
    {
        type            processor;
        value           nonuniform List<vector> 
16
(
(0.00129304 0.00991964 0)
(0.00345406 0.0296287 0)
(0.00516693 0.0482986 0)
(0.00647365 0.0662564 0)
(0.00743614 0.0833234 0)
(0.0080407 0.0997878 0)
(0.00833493 0.115512 0)
(0.00825165 0.130754 0)
(0.00781819 0.145319 0)
(0.00690827 0.159428 0)
(0.00553272 0.172911 0)
(0.00348762 0.185888 0)
(0.000666623 0.19813 0)
(-0.00325592 0.209533 0)
(-0.00842128 0.219553 0)
(-0.014695 0.226506 0)
)
;
    }
    procBoundary3to2
    {
        type            processor;
        value           nonuniform List<vector> 
16
(
(-0.0103143 -0.000250818 0)
(-0.0304452 -0.00089628 0)
(-0.0494381 -0.00166306 0)
(-0.0674295 -0.00254186 0)
(-0.0845315 -0.00354832 0)
(-0.100855 -0.00470061 0)
(-0.116438 -0.00602728 0)
(-0.1314 -0.00756214 0)
(-0.145726 -0.00935118 0)
(-0.15952 -0.0114735 0)
(-0.172689 -0.0139843 0)
(-0.1853 -0.017034 0)
(-0.197139 -0.0207166 0)
(-0.208085 -0.0252472 0)
(-0.217555 -0.0307979 0)
(-0.223975 -0.0368257 0)
)
;
    }
}


// ************************************************************************* //
