/*--------------------------------*- C++ -*----------------------------------*\
| =========                 |                                                 |
| \\      /  F ield         | OpenFOAM: The Open Source CFD Toolbox           |
|  \\    /   O peration     | Version:  2412                                  |
|   \\  /    A nd           | Website:  www.openfoam.com                      |
|    \\/     M anipulation  |                                                 |
\*---------------------------------------------------------------------------*/
FoamFile
{
    version     2.0;
    format      ascii;
    arch        "LSB;label=32;scalar=64";
    class       surfaceScalarField;
    location    "0.3";
    object      meshPhi;
}
// * * * * * * * * * * * * * * * * * * * * * * * * * * * * * * * * * * * * * //

dimensions      [0 3 -1 0 0 0 0];

internalField   nonuniform List<scalar> 
480
(
0.00375917
-7.47852e-05
0.00384598
0.00320077
0.0040656
0.00616498
0.00429963
0.00846892
0.00397424
0.00935696
0.00316251
0.00852479
0.00219074
0.00665514
0.00488589
0.00173626
0.011125
4.86507e-05
0.0113695
0.00585122
0.0119627
0.0110106
0.0125635
0.0149709
0.0117213
0.0166453
0.00963779
0.0156423
0.00705167
0.0128488
0.00994769
0.00582168
0.0182609
0.000266998
0.0186478
0.00800129
0.0195042
0.0147552
0.0202404
0.0197954
0.0191579
0.0221407
0.0164196
0.0214384
0.0128343
0.0183933
0.0149107
0.0111141
0.0251984
0.00055
0.0257066
0.00967584
0.0266923
0.0174613
0.0274169
0.0231759
0.0263298
0.0260789
0.0234437
0.0258966
0.0194087
0.0230723
0.0195511
0.0175963
0.0318935
0.000781783
0.0325004
0.0108232
0.0335436
0.0192688
0.0342382
0.0253813
0.0333055
0.0287157
0.0306484
0.0291015
0.0266822
0.0267843
0.0236127
0.0251839
0.0382999
0.00106638
0.0389741
0.0115291
0.040054
0.0202021
0.0407702
0.0264675
0.0401482
0.0301178
0.0380224
0.0310615
0.0345354
0.029397
0.0267441
0.0336026
0.044396
0.00129542
0.0451037
0.0117885
0.0462291
0.0203902
0.0470859
0.026622
0.0469512
0.0304696
0.0455527
0.0318705
0.042674
0.0307493
0.0284923
0.0422917
0.0502055
0.00147622
0.0509193
0.0116408
0.0521402
0.0198584
0.0532971
0.0258775
0.0537642
0.0297807
0.0530366
0.031429
0.050734
0.0307112
0.0289123
0.0508933
0.0557626
0.00158085
0.0564808
0.0111056
0.0578853
0.0187314
0.059438
0.0243649
0.0603917
0.0281255
0.0602315
0.0298696
0.0586727
0.029577
0.0283492
0.0595662
0.0611221
0.00162503
0.0618888
0.0102066
0.0635275
0.0169785
0.0653762
0.0220562
0.0667562
0.0256188
0.0673067
0.0275414
0.0668568
0.0277829
0.0272723
0.0689889
0.0663192
0.00157253
0.0671909
0.00896939
0.0690051
0.0147533
0.0711526
0.0192713
0.0731505
0.0226521
0.074754
0.0247765
0.076011
0.0256083
0.0258117
0.0798683
0.0714548
0.00153756
0.0725057
0.00758115
0.0745651
0.0123802
0.0772024
0.0163064
0.0801357
0.0194902
0.0832703
0.0217517
0.0866414
0.0229725
0.0237134
0.092219
0.0766888
0.00144095
0.078054
0.00605956
0.0805798
0.00992387
0.0839807
0.0133242
0.088194
0.0162232
0.0931494
0.0183364
0.0985587
0.0196926
0.0208616
0.105778
0.0819473
0.00143143
0.0838551
0.00468549
0.0871063
0.00752588
0.0915801
0.0101516
0.0971926
0.0124179
0.103838
0.0141905
0.111191
0.0155404
0.0168055
0.120071
0.0867583
0.00176541
0.0892799
0.00342613
0.0934181
0.00492976
0.0990306
0.00633502
0.105992
0.0075995
0.114112
0.00870848
0.123214
0.00966976
0.0105316
0.133592
0.0885711
0.0917536
0.0966738
0.103115
0.110913
0.119794
0.129542
0.140032
0.0020799
-0.00529726
0.0027236
-0.0075577
0.00319616
-0.00969077
0.00350635
-0.0108998
0.00375446
-0.0112516
0.00382503
-0.0104255
0.00385108
-0.00805134
-0.00457118
0.00668366
-0.0114692
0.00852909
-0.0152612
0.00978094
-0.0188209
0.010692
-0.0207064
0.011339
-0.02106
0.0114742
-0.0192154
0.011471
-0.0146785
-0.0083126
0.0122879
-0.0183212
0.0149672
-0.0229721
0.0167891
-0.0272811
0.0181036
-0.0294195
0.0189155
-0.0293052
0.0189998
-0.0262813
0.0189462
-0.0199323
-0.0113625
0.0188536
-0.0253198
0.0219727
-0.0302804
0.0241197
-0.0347677
0.0255861
-0.0367055
0.0263562
-0.0359348
0.0263287
-0.0317696
0.0262438
-0.0239261
-0.0136926
0.026276
-0.032125
0.0294493
-0.0369494
0.0316333
-0.0411143
0.0330397
-0.042586
0.0336157
-0.040992
0.0334079
-0.0357339
0.0332345
-0.026723
-0.0153639
0.0342975
-0.0380137
0.0372241
-0.0424396
0.0392018
-0.0460401
0.0403654
-0.0468342
0.0406486
-0.0444512
0.0401984
-0.0383227
0.0398151
-0.0284799
-0.0163892
0.042452
-0.0423478
0.0450573
-0.0463336
0.0466974
-0.0493265
0.0475142
-0.0494846
0.0474387
-0.0463881
0.046709
-0.0395898
0.0460846
-0.0292924
-0.0168908
0.0504632
-0.0449268
0.0527227
-0.0483708
0.0540104
-0.0507929
0.0544319
-0.0503986
0.0539646
-0.046792
0.0529399
-0.0396443
0.0521444
-0.0292407
-0.0169088
0.0584829
-0.0459291
0.0602552
-0.048725
0.0610875
-0.050448
0.0610824
-0.0495928
0.0602165
-0.0456754
0.0588972
-0.0384217
0.0579399
-0.02822
-0.0163352
0.0671431
-0.0456512
0.0679649
-0.0475336
0.0680871
-0.0483426
0.0675075
-0.0470041
0.0662098
-0.0429442
0.064622
-0.0358936
0.0634877
-0.0262772
-0.0152403
0.076869
-0.0437764
0.0762091
-0.0446281
0.0752396
-0.0444584
0.0738584
-0.0426201
0.0720258
-0.0385632
0.0701492
-0.0320363
0.0688108
-0.0233863
-0.013553
0.0877391
-0.0396807
0.0852907
-0.0396441
0.0828851
-0.0386154
0.0803944
-0.0363527
0.0778413
-0.0324538
0.0755493
-0.0267475
0.0739531
-0.0194356
-0.0111613
0.0997025
-0.0328598
0.0952722
-0.0322034
0.0911357
-0.0305718
0.0872362
-0.0281119
0.0837418
-0.0246373
0.0808436
-0.0200489
0.0788814
-0.014379
-0.00807394
0.112281
-0.023114
0.105716
-0.0222211
0.0996127
-0.0204311
0.0941464
-0.0181958
0.0895111
-0.0154966
0.0858863
-0.0122639
0.0835142
-0.00851617
-0.00442803
0.124076
-0.0109483
0.115289
-0.0100903
0.107244
-0.00883126
0.100269
-0.00743784
0.0945347
-0.00592071
0.0902422
-0.00427023
0.0875273
-0.0025139
-0.000637427
0.128643
0.118112
0.108818
0.101009
0.0948471
0.0904691
0.087952
)
;

boundaryField
{
    walls
    {
        type            calculated;
        value           uniform 0;
    }
    cylinder
    {
        type            calculated;
        value           nonuniform List<scalar> 
16
(
1.96678e-11
-2.41519e-11
-8.01355e-12
1.45739e-11
-4.10463e-11
2.97338e-11
4.60446e-11
-2.33103e-11
2.33085e-11
-4.60437e-11
-2.9734e-11
4.10452e-11
-1.45759e-11
8.01165e-12
2.41502e-11
-1.96695e-11
)
;
    }
    outlet
    {
        type            calculated;
        value           uniform 0;
    }
    inlet
    {
        type            calculated;
        value           nonuniform List<scalar> 0();
    }
    frontAndBack
    {
        type            empty;
    }
    procBoundary3to1
    {
        type            processor;
        value           nonuniform List<scalar> 
16
(
-0.00373267
-0.0110818
-0.0182421
-0.0252103
-0.031904
-0.0382382
-0.0442986
-0.0501991
-0.0558992
-0.0613787
-0.0666598
-0.071752
-0.0767378
-0.0816789
-0.0861088
-0.0872567
)
;
    }
    procBoundary3to2
    {
        type            processor;
        value           nonuniform List<scalar> 
16
(
0.00422995
0.0123676
0.019989
0.0272088
0.0340433
0.0404473
0.0465162
0.0523739
0.057987
0.0633591
0.0685027
0.0734654
0.0781847
0.0826347
0.0865488
0.0873561
)
;
    }
}


// ************************************************************************* //
