/*--------------------------------*- C++ -*----------------------------------*\
| =========                 |                                                 |
| \\      /  F ield         | OpenFOAM: The Open Source CFD Toolbox           |
|  \\    /   O peration     | Version:  2412                                  |
|   \\  /    A nd           | Website:  www.openfoam.com                      |
|    \\/     M anipulation  |                                                 |
\*---------------------------------------------------------------------------*/
FoamFile
{
    version     2.0;
    format      ascii;
    arch        "LSB;label=32;scalar=64";
    class       pointVectorField;
    location    "0.3";
    object      pointDisplacement;
}
// * * * * * * * * * * * * * * * * * * * * * * * * * * * * * * * * * * * * * //

dimensions      [0 1 0 0 0 0 0];

internalField   nonuniform List<vector> 
578
(
(0 0 0)
(0 0 0)
(0 0 0)
(0 0 0)
(0 0 0)
(0 0 0)
(0 0 0)
(0 0 0)
(0 0 0)
(0.000884916 0.0200002 0)
(-0.00206376 0.0198658 0)
(-0.00467717 0.0186623 0)
(-0.00657794 0.0165996 0)
(-0.00753649 0.0139935 0)
(-0.00747541 0.0111038 0)
(-0.00647635 0.00816912 0)
(-0.00469693 0.00530414 0)
(-0.00353522 0.00381353 0)
(0.0014739 0.0393187 0)
(-0.0041062 0.0390183 0)
(-0.00907428 0.0368271 0)
(-0.0127886 0.0331026 0)
(-0.0148482 0.0283688 0)
(-0.0151004 0.0230788 0)
(-0.0136513 0.0176588 0)
(-0.0107199 0.0123208 0)
(-0.00881138 0.00950254 0)
(0.00178816 0.0577013 0)
(-0.00611817 0.057206 0)
(-0.0131919 0.0542153 0)
(-0.0186118 0.0491877 0)
(-0.0218592 0.0427702 0)
(-0.0227272 0.0355702 0)
(-0.0213032 0.0281335 0)
(-0.0178137 0.0207561 0)
(-0.0155546 0.0167533 0)
(0.00185228 0.0752291 0)
(-0.00813102 0.0745277 0)
(-0.0171039 0.0708922 0)
(-0.0241367 0.0648496 0)
(-0.0286381 0.0571315 0)
(-0.030358 0.0484439 0)
(-0.0293521 0.0394151 0)
(-0.0258276 0.030404 0)
(-0.0236023 0.0253585 0)
(0.00167454 0.0919755 0)
(-0.0101754 0.091062 0)
(-0.0208798 0.0869124 0)
(-0.02945 0.0801022 0)
(-0.0352522 0.0714017 0)
(-0.0380086 0.0615853 0)
(-0.0377403 0.0513334 0)
(-0.0346321 0.0410574 0)
(-0.0327895 0.0350918 0)
(0.00125013 0.108012 0)
(-0.0122921 0.106882 0)
(-0.024584 0.102324 0)
(-0.0346243 0.0949423 0)
(-0.0417627 0.0855283 0)
(-0.0457016 0.0748883 0)
(-0.0464319 0.063733 0)
(-0.0441193 0.0525098 0)
(-0.0429694 0.0457318 0)
(0.000563199 0.123406 0)
(-0.0145191 0.122044 0)
(-0.0282801 0.117167 0)
(-0.0397346 0.109382 0)
(-0.0482338 0.0994757 0)
(-0.0534702 0.0882631 0)
(-0.05541 0.0764684 0)
(-0.0542052 0.0645651 0)
(-0.054004 0.0570465 0)
(-0.000418656 0.138194 0)
(-0.0169082 0.136599 0)
(-0.0320319 0.131474 0)
(-0.0448485 0.123419 0)
(-0.0547278 0.113202 0)
(-0.061355 0.101623 0)
(-0.0646735 0.0894012 0)
(-0.0648314 0.0770301 0)
(-0.0658009 0.0688312 0)
(-0.0017425 0.152402 0)
(-0.0195122 0.150573 0)
(-0.0359056 0.145261 0)
(-0.0500401 0.137052 0)
(-0.0613124 0.126669 0)
(-0.0694048 0.11488 0)
(-0.0742477 0.102402 0)
(-0.0759888 0.0897382 0)
(-0.0783119 0.0808876 0)
(-0.00347406 0.166048 0)
(-0.0224046 0.16398 0)
(-0.0399759 0.158533 0)
(-0.0553801 0.150256 0)
(-0.0680547 0.139819 0)
(-0.0776884 0.127954 0)
(-0.0841954 0.115352 0)
(-0.0877033 0.102508 0)
(-0.0915409 0.0930115 0)
(-0.00570449 0.179115 0)
(-0.0256715 0.176797 0)
(-0.0443235 0.171258 0)
(-0.060954 0.16299 0)
(-0.0750466 0.152599 0)
(-0.0862956 0.140754 0)
(-0.0945938 0.128104 0)
(-0.100047 0.11514 0)
(-0.105531 0.104942 0)
(-0.00857386 0.19153 0)
(-0.0294227 0.188966 0)
(-0.0490598 0.183379 0)
(-0.0668684 0.175186 0)
(-0.0823855 0.164907 0)
(-0.0953221 0.153133 0)
(-0.105542 0.140457 0)
(-0.113104 0.12734 0)
(-0.120362 0.11632 0)
(-0.0122705 0.203165 0)
(-0.0338199 0.20035 0)
(-0.0543115 0.194738 0)
(-0.0732266 0.186662 0)
(-0.0901625 0.176532 0)
(-0.104845 0.164832 0)
(-0.117108 0.152071 0)
(-0.126953 0.138673 0)
(-0.136125 0.126608 0)
(-0.0170043 0.213648 0)
(-0.0390063 0.210538 0)
(-0.0601409 0.204903 0)
(-0.0800178 0.196947 0)
(-0.0983082 0.186969 0)
(-0.114756 0.175316 0)
(-0.129187 0.162358 0)
(-0.141531 0.148447 0)
(-0.152785 0.134958 0)
(-0.0227153 0.221888 0)
(-0.0447654 0.21845 0)
(-0.0662043 0.212746 0)
(-0.0867704 0.204887 0)
(-0.10622 0.195021 0)
(-0.124334 0.183336 0)
(-0.140937 0.170027 0)
(-0.155889 0.15531 0)
(-0.169402 0.139789 0)
(-0.0258225 0.225784 0)
(-0.0478289 0.222165 0)
(-0.0693746 0.216408 0)
(-0.0902522 0.208566 0)
(-0.110261 0.198715 0)
(-0.129207 0.186951 0)
(-0.146909 0.173386 0)
(-0.163197 0.158152 0)
(-0.177912 0.141394 0)
(0 0 0)
(0 0 0)
(0 0 0)
(0 0 0)
(0 0 0)
(0 0 0)
(0 0 0)
(0 0 0)
(0 0 0)
(0.000884916 0.0200002 0)
(-0.00206376 0.0198658 0)
(-0.00467717 0.0186623 0)
(-0.00657794 0.0165996 0)
(-0.00753649 0.0139935 0)
(-0.00747541 0.0111038 0)
(-0.00647635 0.00816912 0)
(-0.00469693 0.00530414 0)
(-0.00353522 0.00381353 0)
(0.0014739 0.0393187 0)
(-0.0041062 0.0390183 0)
(-0.00907428 0.0368271 0)
(-0.0127886 0.0331026 0)
(-0.0148482 0.0283688 0)
(-0.0151004 0.0230788 0)
(-0.0136513 0.0176588 0)
(-0.0107199 0.0123208 0)
(-0.00881138 0.00950254 0)
(0.00178816 0.0577013 0)
(-0.00611817 0.057206 0)
(-0.0131919 0.0542153 0)
(-0.0186118 0.0491877 0)
(-0.0218592 0.0427702 0)
(-0.0227272 0.0355702 0)
(-0.0213032 0.0281335 0)
(-0.0178137 0.0207561 0)
(-0.0155546 0.0167533 0)
(0.00185228 0.0752291 0)
(-0.00813102 0.0745277 0)
(-0.0171039 0.0708922 0)
(-0.0241367 0.0648496 0)
(-0.0286381 0.0571315 0)
(-0.030358 0.0484439 0)
(-0.0293521 0.0394151 0)
(-0.0258276 0.030404 0)
(-0.0236023 0.0253585 0)
(0.00167454 0.0919755 0)
(-0.0101754 0.091062 0)
(-0.0208798 0.0869124 0)
(-0.02945 0.0801022 0)
(-0.0352522 0.0714017 0)
(-0.0380086 0.0615853 0)
(-0.0377403 0.0513334 0)
(-0.0346321 0.0410574 0)
(-0.0327895 0.0350918 0)
(0.00125013 0.108012 0)
(-0.0122921 0.106882 0)
(-0.024584 0.102324 0)
(-0.0346243 0.0949423 0)
(-0.0417627 0.0855283 0)
(-0.0457016 0.0748883 0)
(-0.0464319 0.063733 0)
(-0.0441193 0.0525098 0)
(-0.0429694 0.0457318 0)
(0.000563199 0.123406 0)
(-0.0145191 0.122044 0)
(-0.0282801 0.117167 0)
(-0.0397346 0.109382 0)
(-0.0482338 0.0994757 0)
(-0.0534702 0.0882631 0)
(-0.05541 0.0764684 0)
(-0.0542052 0.0645651 0)
(-0.054004 0.0570465 0)
(-0.000418656 0.138194 0)
(-0.0169082 0.136599 0)
(-0.0320319 0.131474 0)
(-0.0448485 0.123419 0)
(-0.0547278 0.113202 0)
(-0.061355 0.101623 0)
(-0.0646735 0.0894012 0)
(-0.0648314 0.0770301 0)
(-0.0658009 0.0688312 0)
(-0.0017425 0.152402 0)
(-0.0195122 0.150573 0)
(-0.0359056 0.145261 0)
(-0.0500401 0.137052 0)
(-0.0613124 0.126669 0)
(-0.0694048 0.11488 0)
(-0.0742477 0.102402 0)
(-0.0759888 0.0897382 0)
(-0.0783119 0.0808876 0)
(-0.00347406 0.166048 0)
(-0.0224046 0.16398 0)
(-0.0399759 0.158533 0)
(-0.0553801 0.150256 0)
(-0.0680547 0.139819 0)
(-0.0776884 0.127954 0)
(-0.0841954 0.115352 0)
(-0.0877033 0.102508 0)
(-0.0915409 0.0930115 0)
(-0.00570449 0.179115 0)
(-0.0256715 0.176797 0)
(-0.0443235 0.171258 0)
(-0.060954 0.16299 0)
(-0.0750466 0.152599 0)
(-0.0862956 0.140754 0)
(-0.0945938 0.128104 0)
(-0.100047 0.11514 0)
(-0.105531 0.104942 0)
(-0.00857386 0.19153 0)
(-0.0294227 0.188966 0)
(-0.0490598 0.183379 0)
(-0.0668684 0.175186 0)
(-0.0823855 0.164907 0)
(-0.0953221 0.153133 0)
(-0.105542 0.140457 0)
(-0.113104 0.12734 0)
(-0.120362 0.11632 0)
(-0.0122705 0.203165 0)
(-0.0338199 0.20035 0)
(-0.0543115 0.194738 0)
(-0.0732266 0.186662 0)
(-0.0901625 0.176532 0)
(-0.104845 0.164832 0)
(-0.117108 0.152071 0)
(-0.126953 0.138673 0)
(-0.136125 0.126608 0)
(-0.0170043 0.213648 0)
(-0.0390063 0.210538 0)
(-0.0601409 0.204903 0)
(-0.0800178 0.196947 0)
(-0.0983082 0.186969 0)
(-0.114756 0.175316 0)
(-0.129187 0.162358 0)
(-0.141531 0.148447 0)
(-0.152785 0.134958 0)
(-0.0227153 0.221888 0)
(-0.0447654 0.21845 0)
(-0.0662043 0.212746 0)
(-0.0867704 0.204887 0)
(-0.10622 0.195021 0)
(-0.124334 0.183336 0)
(-0.140937 0.170027 0)
(-0.155889 0.15531 0)
(-0.169402 0.139789 0)
(-0.0258225 0.225784 0)
(-0.0478289 0.222165 0)
(-0.0693746 0.216408 0)
(-0.0902522 0.208566 0)
(-0.110261 0.198715 0)
(-0.129207 0.186951 0)
(-0.146909 0.173386 0)
(-0.163197 0.158152 0)
(-0.177912 0.141394 0)
(0 0 0)
(0 0 0)
(0 0 0)
(0 0 0)
(0 0 0)
(0 0 0)
(0 0 0)
(0 0 0)
(-0.00478669 0.00495996 0)
(-0.00720422 0.00674107 0)
(-0.0097005 0.00781484 0)
(-0.0122904 0.008109 0)
(-0.0148823 0.00755411 0)
(-0.017242 0.00609346 0)
(-0.0190708 0.00380395 0)
(-0.0201085 0.000950331 0)
(-0.0111914 0.0113667 0)
(-0.0157759 0.0143284 0)
(-0.0205052 0.0159296 0)
(-0.0253823 0.0160749 0)
(-0.0301783 0.0146436 0)
(-0.034463 0.0115802 0)
(-0.0377163 0.00706768 0)
(-0.0394919 0.00160631 0)
(-0.0189849 0.0189426 0)
(-0.025448 0.0224882 0)
(-0.0321247 0.0241255 0)
(-0.0389382 0.0237294 0)
(-0.0455361 0.0211677 0)
(-0.051331 0.0164261 0)
(-0.0556512 0.00980321 0)
(-0.0579064 0.0019906 0)
(-0.0280179 0.0274934 0)
(-0.0360974 0.0310872 0)
(-0.0444281 0.0323135 0)
(-0.0528514 0.0310453 0)
(-0.0608869 0.0271555 0)
(-0.0678317 0.0206934 0)
(-0.0729046 0.0120677 0)
(-0.0754383 0.00212338 0)
(-0.0381506 0.0368348 0)
(-0.0475904 0.0399847 0)
(-0.0573053 0.0404154 0)
(-0.0670244 0.0379932 0)
(-0.0761664 0.0326193 0)
(-0.0839445 0.0244173 0)
(-0.0895133 0.0138958 0)
(-0.0921756 0.00201103 0)
(-0.0492377 0.0467707 0)
(-0.0598143 0.0490532 0)
(-0.0706507 0.0483489 0)
(-0.0813827 0.0445403 0)
(-0.0913387 0.0375664 0)
(-0.0996768 0.0276249 0)
(-0.105522 0.0153085 0)
(-0.108189 0.00164654 0)
(-0.0611553 0.0571129 0)
(-0.072662 0.0581565 0)
(-0.084388 0.0560338 0)
(-0.095868 0.0506469 0)
(-0.106371 0.0419827 0)
(-0.115027 0.0303148 0)
(-0.12098 0.0163022 0)
(-0.123556 0.00101089 0)
(-0.0738087 0.0676774 0)
(-0.086062 0.0671615 0)
(-0.0984544 0.0633754 0)
(-0.110446 0.0562533 0)
(-0.121257 0.0458381 0)
(-0.130017 0.0324686 0)
(-0.135914 0.0168531 0)
(-0.138315 6.88294e-05 0)
(-0.0871554 0.0782918 0)
(-0.0999787 0.0759218 0)
(-0.112828 0.0702613 0)
(-0.1251 0.0612769 0)
(-0.135991 0.049068 0)
(-0.14466 0.034032 0)
(-0.150354 0.0169107 0)
(-0.152503 -0.00123546 0)
(-0.101194 0.088756 0)
(-0.114422 0.084266 0)
(-0.12752 0.0765384 0)
(-0.139842 0.0655859 0)
(-0.150598 0.0515639 0)
(-0.158991 0.0349177 0)
(-0.164329 0.0164024 0)
(-0.166136 -0.00297064 0)
(-0.115969 0.0988177 0)
(-0.12945 0.0919624 0)
(-0.142586 0.0819941 0)
(-0.154715 0.0689857 0)
(-0.165089 0.0531591 0)
(-0.172987 0.0349925 0)
(-0.177812 0.0152187 0)
(-0.179198 -0.0052388 0)
(-0.131563 0.108095 0)
(-0.145136 0.0986488 0)
(-0.158069 0.0862927 0)
(-0.169715 0.0711803 0)
(-0.179423 0.0536035 0)
(-0.186585 0.0340513 0)
(-0.190737 0.0131857 0)
(-0.19162 -0.0081771 0)
(-0.14804 0.115998 0)
(-0.161476 0.103738 0)
(-0.173889 0.0889007 0)
(-0.184717 0.0717231 0)
(-0.193443 0.0525402 0)
(-0.199622 0.0317984 0)
(-0.202944 0.0100674 0)
(-0.203239 -0.0119754 0)
(-0.165296 0.121604 0)
(-0.178235 0.106382 0)
(-0.189705 0.0891062 0)
(-0.199321 0.0700511 0)
(-0.206749 0.0495256 0)
(-0.211726 0.0278929 0)
(-0.214068 0.00559932 0)
(-0.213693 -0.016841 0)
(-0.182288 0.123327 0)
(-0.194142 0.105333 0)
(-0.204176 0.0859737 0)
(-0.212209 0.065481 0)
(-0.218092 0.0440923 0)
(-0.221711 0.0220729 0)
(-0.22299 -0.00028819 0)
(-0.221903 -0.0226658 0)
(-0.190915 0.123275 0)
(-0.202079 0.103968 0)
(-0.211296 0.0836602 0)
(-0.218479 0.0625468 0)
(-0.223557 0.0408309 0)
(-0.226483 0.0187218 0)
(-0.227228 -0.00356752 0)
(-0.225784 -0.0258225 0)
(0 0 0)
(0 0 0)
(0 0 0)
(0 0 0)
(0 0 0)
(0 0 0)
(0 0 0)
(0 0 0)
(-0.00478669 0.00495996 0)
(-0.00720422 0.00674107 0)
(-0.0097005 0.00781484 0)
(-0.0122904 0.008109 0)
(-0.0148823 0.00755411 0)
(-0.017242 0.00609346 0)
(-0.0190708 0.00380395 0)
(-0.0201085 0.000950331 0)
(-0.0111914 0.0113667 0)
(-0.0157759 0.0143284 0)
(-0.0205052 0.0159296 0)
(-0.0253823 0.0160749 0)
(-0.0301783 0.0146436 0)
(-0.034463 0.0115802 0)
(-0.0377163 0.00706768 0)
(-0.0394919 0.00160631 0)
(-0.0189849 0.0189426 0)
(-0.025448 0.0224882 0)
(-0.0321247 0.0241255 0)
(-0.0389382 0.0237294 0)
(-0.0455361 0.0211677 0)
(-0.051331 0.0164261 0)
(-0.0556512 0.00980321 0)
(-0.0579064 0.0019906 0)
(-0.0280179 0.0274934 0)
(-0.0360974 0.0310872 0)
(-0.0444281 0.0323135 0)
(-0.0528514 0.0310453 0)
(-0.0608869 0.0271555 0)
(-0.0678317 0.0206934 0)
(-0.0729046 0.0120677 0)
(-0.0754383 0.00212338 0)
(-0.0381506 0.0368348 0)
(-0.0475904 0.0399847 0)
(-0.0573053 0.0404154 0)
(-0.0670244 0.0379932 0)
(-0.0761664 0.0326193 0)
(-0.0839445 0.0244173 0)
(-0.0895133 0.0138958 0)
(-0.0921756 0.00201103 0)
(-0.0492377 0.0467707 0)
(-0.0598143 0.0490532 0)
(-0.0706507 0.0483489 0)
(-0.0813827 0.0445403 0)
(-0.0913387 0.0375664 0)
(-0.0996768 0.0276249 0)
(-0.105522 0.0153085 0)
(-0.108189 0.00164654 0)
(-0.0611553 0.0571129 0)
(-0.072662 0.0581565 0)
(-0.084388 0.0560338 0)
(-0.095868 0.0506469 0)
(-0.106371 0.0419827 0)
(-0.115027 0.0303148 0)
(-0.12098 0.0163022 0)
(-0.123556 0.00101089 0)
(-0.0738087 0.0676774 0)
(-0.086062 0.0671615 0)
(-0.0984544 0.0633754 0)
(-0.110446 0.0562533 0)
(-0.121257 0.0458381 0)
(-0.130017 0.0324686 0)
(-0.135914 0.0168531 0)
(-0.138315 6.88294e-05 0)
(-0.0871554 0.0782918 0)
(-0.0999787 0.0759218 0)
(-0.112828 0.0702613 0)
(-0.1251 0.0612769 0)
(-0.135991 0.049068 0)
(-0.14466 0.034032 0)
(-0.150354 0.0169107 0)
(-0.152503 -0.00123546 0)
(-0.101194 0.088756 0)
(-0.114422 0.084266 0)
(-0.12752 0.0765384 0)
(-0.139842 0.0655859 0)
(-0.150598 0.0515639 0)
(-0.158991 0.0349177 0)
(-0.164329 0.0164024 0)
(-0.166136 -0.00297064 0)
(-0.115969 0.0988177 0)
(-0.12945 0.0919624 0)
(-0.142586 0.0819941 0)
(-0.154715 0.0689857 0)
(-0.165089 0.0531591 0)
(-0.172987 0.0349925 0)
(-0.177812 0.0152187 0)
(-0.179198 -0.0052388 0)
(-0.131563 0.108095 0)
(-0.145136 0.0986488 0)
(-0.158069 0.0862927 0)
(-0.169715 0.0711803 0)
(-0.179423 0.0536035 0)
(-0.186585 0.0340513 0)
(-0.190737 0.0131857 0)
(-0.19162 -0.0081771 0)
(-0.14804 0.115998 0)
(-0.161476 0.103738 0)
(-0.173889 0.0889007 0)
(-0.184717 0.0717231 0)
(-0.193443 0.0525402 0)
(-0.199622 0.0317984 0)
(-0.202944 0.0100674 0)
(-0.203239 -0.0119754 0)
(-0.165296 0.121604 0)
(-0.178235 0.106382 0)
(-0.189705 0.0891062 0)
(-0.199321 0.0700511 0)
(-0.206749 0.0495256 0)
(-0.211726 0.0278929 0)
(-0.214068 0.00559932 0)
(-0.213693 -0.016841 0)
(-0.182288 0.123327 0)
(-0.194142 0.105333 0)
(-0.204176 0.0859737 0)
(-0.212209 0.065481 0)
(-0.218092 0.0440923 0)
(-0.221711 0.0220729 0)
(-0.22299 -0.00028819 0)
(-0.221903 -0.0226658 0)
(-0.190915 0.123275 0)
(-0.202079 0.103968 0)
(-0.211296 0.0836602 0)
(-0.218479 0.0625468 0)
(-0.223557 0.0408309 0)
(-0.226483 0.0187218 0)
(-0.227228 -0.00356752 0)
(-0.225784 -0.0258225 0)
)
;

boundaryField
{
    walls
    {
        type            fixedValue;
        value           uniform (0 0 0);
    }
    cylinder
    {
        type            solidBodyMotionDisplacement;
        value           nonuniform List<vector> 
34
(
(-0.0258225 0.225784 0)
(-0.0258225 0.225784 0)
(-0.0478289 0.222165 0)
(-0.0478289 0.222165 0)
(-0.0693746 0.216408 0)
(-0.0693746 0.216408 0)
(-0.0902522 0.208566 0)
(-0.0902522 0.208566 0)
(-0.110261 0.198715 0)
(-0.110261 0.198715 0)
(-0.129207 0.186951 0)
(-0.129207 0.186951 0)
(-0.146909 0.173386 0)
(-0.146909 0.173386 0)
(-0.163197 0.158152 0)
(-0.163197 0.158152 0)
(-0.177912 0.141394 0)
(-0.177912 0.141394 0)
(-0.190915 0.123275 0)
(-0.190915 0.123275 0)
(-0.202079 0.103968 0)
(-0.202079 0.103968 0)
(-0.211296 0.0836602 0)
(-0.211296 0.0836602 0)
(-0.218479 0.0625468 0)
(-0.218479 0.0625468 0)
(-0.223557 0.0408309 0)
(-0.223557 0.0408309 0)
(-0.226483 0.0187218 0)
(-0.226483 0.0187218 0)
(-0.227228 -0.00356752 0)
(-0.227228 -0.00356752 0)
(-0.225784 -0.0258225 0)
(-0.225784 -0.0258225 0)
)
;
        solidBodyMotionFunction oscillatingRotatingMotion;
        oscillatingRotatingMotionCoeffs
        {
            origin          ( 0 0 0 );
            axis            ( 0 0 1 );
            omega           1.5;
            amplitude       ( 0 0 30 );
        }
    }
    outlet
    {
        type            fixedValue;
        value           uniform (0 0 0);
    }
    inlet
    {
        type            fixedValue;
        value           nonuniform List<vector> 0();
    }
    frontAndBack
    {
        type            empty;
    }
    procBoundary3to1
    {
        type            processor;
    }
    procBoundary3to2
    {
        type            processor;
    }
}


// ************************************************************************* //
