/*--------------------------------*- C++ -*----------------------------------*\
| =========                 |                                                 |
| \\      /  F ield         | OpenFOAM: The Open Source CFD Toolbox           |
|  \\    /   O peration     | Version:  2412                                  |
|   \\  /    A nd           | Website:  www.openfoam.com                      |
|    \\/     M anipulation  |                                                 |
\*---------------------------------------------------------------------------*/
FoamFile
{
    version     2.0;
    format      ascii;
    arch        "LSB;label=32;scalar=64";
    class       volScalarField;
    location    "93";
    object      p;
}
// * * * * * * * * * * * * * * * * * * * * * * * * * * * * * * * * * * * * * //

dimensions      [0 2 -2 0 0 0 0];

internalField   nonuniform List<scalar> 
808
(
-0.03542541555566115
0.04506383059766784
-0.01193789881794389
0.03552125880841035
-0.3023328315319926
-0.05458210773874975
-0.01448309164235245
-0.02380969311985211
-0.1990493455922148
-0.08509080541548947
-0.009302099646902586
-0.2565357484665498
-0.03052788176994834
-0.01291912157343647
-0.1229845294037241
-0.01396767272570371
-0.1416829447593508
-0.01353597675144297
-0.01266776759317864
-0.05663254027492592
-0.005954829793422278
0.1180231075902073
-0.06115597072204942
-0.07289469999162161
0.1760403286276523
-0.09926601594855582
-0.1543552342497569
-0.02031345504349847
-0.01739738256638803
-0.02605392823470257
-0.02015959444429526
-0.05948768793495423
-0.02300419870457918
-0.01684738359887538
-0.1004926401640982
0.3443584118922655
-0.03858533692710214
-0.01687136443617614
-0.02325576451814394
-0.02660316011983296
-0.09132559714694388
-0.1281919457174709
-0.0509337602878088
-0.02056657905212024
-0.05509107771295046
-0.04021281479219236
-0.0123847893924247
-0.1864849004823817
-0.02750853040239995
-0.2062898726780656
-0.01600322491185992
-0.06845071885173733
-0.05971046586665947
-0.01498232963350088
-0.1911642164955731
-0.0289014923317052
-0.01076307465283244
-0.01464722629023354
-0.1017319482113809
-0.04052342588222339
-0.0960739093649049
-0.1277781311400423
-0.01342017854805782
-0.1291996881830303
-0.01684067811562944
-0.05074626756326353
-0.165451742159596
-0.03568138071237546
-0.01486936006096899
-0.4443978183325085
-0.02697000835114672
-0.3065581553675831
-0.02199879393434906
-0.02024924897941837
-0.06624169909997821
-0.01734135143793362
-0.04334719581278138
-0.3611543387005395
-0.03540169832402267
0.04128858822481906
-0.09081119072655458
-0.01728869889510147
0.05679534071850324
0.04403917897002837
-0.01656619210229253
-0.05305047696704664
-0.5470209936573657
-0.2238473740190015
-0.05310939114744849
-0.1118567399236689
-0.05762113693700725
-0.1340675053434373
0.04034982926064439
-0.0242186926277252
-0.0607693753220124
-0.1178703931089329
-0.03850033241217701
-0.05211293739353375
-0.1173941478784727
-0.1386837432953742
-0.05204450916247991
-0.04820882162609608
-0.05531419806569637
-0.04560285658603896
-0.05785410407969511
-0.07348490375708701
-0.04156273017691366
-0.01131216497750189
-0.04097982645865164
-0.125817530756333
-0.0511521071811021
0.08296812453364931
-0.04304602177229692
-0.008330769677418783
-0.02785819566199638
0.180361905070792
-0.03964488025805242
-0.2721784474973741
-0.02022715061570994
-0.05450962679277749
-0.02720334020211569
-0.04793060330271896
0.01276892345796035
-0.04968550135121512
-0.03438678752073624
-0.2152660620544846
-0.04235673871304642
-0.005249142944899481
-0.07716178380259175
-0.06777978414714037
-0.144312306135398
-0.0208124200983096
-0.07611332495737363
-0.04163554666942422
-0.02267035079873956
-0.01641639954785637
-0.006477405721926882
-0.007295927246538163
-0.0530483079623072
-0.05068408193856711
-0.2127767140854011
-0.05765212314831976
-0.008553421949981757
-0.02273557767863015
-0.1454615936319314
-0.002656246583039895
-0.07733559791158427
-0.02317404446144937
-0.0009763663091684035
-0.01076602778732087
-0.03385236942993544
0.09508657948806593
-0.03953797928486802
0.2525076122989496
-0.2683229312101286
-0.1308151136084581
-0.03708375227097681
-0.09107587746263156
-0.009340762441857945
-0.112148932411647
-0.1849225086602127
-0.2172303346137421
-0.1804809319410072
0.05559935066278134
-0.06201688113903746
-0.02024725750658922
-0.06771313081655859
-0.1688924703971134
-0.0238816635249705
-0.01834186309310785
-0.05295948273993987
-0.01846170299305146
-0.006208141680325228
-0.1094470014169962
-0.02271378145015751
-0.04620994719185489
-0.06903041482415376
-0.1628399249569255
-0.03372921759736668
-0.3946249943303971
-0.01776994070747433
-0.2232931952983096
-0.04518221191799578
0.03109539838901635
-0.1057904340903936
-0.01446031226682843
-0.04170191973863313
-0.1050478855288217
-0.01760470072852553
-0.09638988555721487
-0.2068939325255776
-0.07261336282324764
-0.02364409759168117
-0.04934999819375271
-0.04360270636055186
-0.2048355110701193
-0.02179450051255323
-0.01892047256019017
-0.01135295579658359
-0.05497406368238084
-0.05166210467986524
-0.02231242416715416
-0.02088467808991395
-0.2465938710168147
0.1278203700646363
-0.2017003159321834
-0.2046922231734714
-0.01180308192047073
-0.01157530612571246
-0.06761490263546423
-0.009723053317164851
-0.512879914507658
-0.1207242981890655
-0.01888872254977783
-0.0007631016982218419
-0.02428094004474044
-0.2856533959809215
-0.2752230409579932
-0.007021530268484476
-0.01735673405999032
-0.001672044677287957
-0.3458238062170766
-0.02820598156487951
-0.02908930287892485
-0.01247937338019645
-0.01978768867183251
0.05070956820039026
-0.1074361310459155
-0.01395576870921074
-0.02072849933694576
-0.04328542681766731
-0.01816751810516757
-0.01609079339020312
-0.0233695116613971
-0.06700437074254945
-0.01178519576640892
-0.01908423188176085
-0.008506174610041658
-0.0007019864993178858
-0.02957408138985838
-0.001585885508691098
-0.00227168452134564
-0.006003409710699461
-0.02563300704783459
-0.007965588696705706
0.001509993159230915
-0.004231325853042433
0.001252873498948218
0.002555712948912832
-0.008723203715785686
-0.1429074203151705
-0.003020076422268039
-0.00151758466815814
-0.04858844542775106
-0.02157125400747628
-0.02484680562303124
-0.01436826159025187
-0.006120068541020185
-0.02081830294912794
-0.03778964141173104
-0.01393855385377922
-0.01287111969873704
-0.01173411908861942
0.007707675353140021
-0.01031348899299692
-0.01175955442084911
-0.01138160254877596
-0.01083738089971594
-0.01020995393336141
-0.01186067276500206
-0.0140995919168857
-0.3101793807652964
0.06067255052008994
-0.01566047873190058
-0.01589659378277794
-0.01308755339596839
-0.01207206060688425
-0.008820650133628491
-0.09705981174530599
0.01014310741473274
-0.01359948452465954
-0.01459100329292527
-0.01074157367503991
-0.05289429428758692
-0.01013525351920162
-0.0136841018136966
-0.009631250508741716
-0.0002983942972412877
-0.01009717315750459
-0.01165421678671471
-0.0248872624992997
-0.01602065799993512
-0.01182324573142154
-0.01342523692114453
-0.007371520203243764
-0.01244149027761531
-0.01177894479856813
-0.05754071216784173
-0.01310279751150189
-0.01120442596046653
-0.008724459187799738
-0.01484067377818226
-0.01380445155924245
-0.01567323266360136
-1.375744980543166
-0.09854117863819194
-0.01340125990728789
0.02452808894836059
-0.1645242650863172
-0.0920712774669781
-0.01154760119376833
-0.01401516956260195
-0.2480614951664823
-0.03036107966042232
-0.01992674396637737
-0.01093982889632674
-0.01956006517548756
-0.01060958131631638
-0.03070685900443374
-0.4142835418281087
-0.01243543773267914
-0.0141076465607942
-0.00489237230986823
-0.01090134477960914
-0.01022691736749049
-0.01434055495416996
-0.008042649497546076
-0.0260268468852205
-0.01140129160951621
-0.1645640140433824
0.01700116773247163
-0.007698623884889091
0.003305013734388094
0.01357510831641518
-0.047350852828301
0.0295910329919096
-0.0131070869584025
-0.1347717102031676
0.2822399284587759
-0.007145493981567267
-0.01333977408728161
-0.008421888295696522
-0.03271315429249921
-0.1227728600617963
-0.01253200223467194
-0.01236339894978261
-0.01662866294944184
-0.01363184320151754
-0.04089379465732598
-0.2148877536005012
-0.01113147716423507
-0.04145809323856548
-0.03992226918523853
-0.1668432047991843
-0.1647407330995503
-0.1358366420894913
-0.2457532817393304
-0.007092104107124027
-0.02129416286574948
-0.01396692429865097
-0.012461612500646
-0.03280693684306182
-0.02441483980733898
-0.01450287069652037
-0.01498185143355695
-1.079683341303685
-0.006221374976913662
-0.01358343944893359
-0.01848747467910879
-0.0222526816852602
0.0004913599370268843
-0.01447453545129628
-0.02741635003924251
-0.1586139643229708
-0.01354712058405216
-0.02239215500727101
-0.01372709744269836
0.0001085633632200172
-0.179364403355405
-0.01328489654456565
-0.1414916124060427
-0.01618811092885719
0.006433965093062042
-0.01466685401872753
-0.02305828705188262
-0.01544322186030388
0.005112279200811099
-0.2777895194086422
-0.02543682360813987
-0.01579909456132935
-0.001038322003040151
-0.00930178985615661
-0.03053856139125919
-0.01443149467433359
-0.0202095085324663
-0.02144494103191843
0.01489787472889572
-0.1004926804914161
-0.02214140337619705
0.009160189951065904
-0.05219512792599476
0.1622272189958934
-0.1032974178115705
-0.3201334744297583
-0.03110118197825824
-0.02528642912677892
0.1496853163411224
0.07961868544877362
-0.003404881286939561
0.04875977026259398
-0.01565010589574962
-0.01453214773473304
0.002209863263198497
0.01149753021792429
-0.0667763548378387
-0.006104106398547782
-0.05753354248426652
-0.02199338888884666
-0.0157316825245163
-0.03653831835535314
-0.03291090344437182
-0.006635775032329629
-0.01512715562857424
-0.03885612366759653
0.03795135285355229
-0.03890198609177335
-0.01368543952777531
-0.1165840373292219
-0.03214983494546769
-0.03852137577146016
-0.6760485963762798
0.02068945337090311
-0.01071978899428866
-0.005536099576186512
0.1584750803847829
-0.08472644233384517
-0.03485322428493823
-0.2463481546940954
-0.01682937771979681
-0.0166265830628127
0.0657692230498384
-0.1838152810963116
-0.2301271736508401
-0.1975788132239202
-0.6852109114440843
0.00231109571464877
-0.01959707237502329
-0.01714503696744553
-0.07921786619231552
0.1179266810144669
-0.02068679605212764
-0.2376733735814153
-0.03491033511060526
-0.006421311986607519
0.2785072692857351
-0.01131123572556219
-0.09338649656136824
-0.1494240356553986
-0.003812862052687876
-0.04034424960140116
-0.05054311468497513
-0.205779093112191
-0.008731699187564074
-0.04186200174725058
-0.002410248222857993
-0.5498969904807239
-0.1984102263290655
-0.1761156955518738
-0.02260728672062608
-0.006900815123923843
-0.06009251157907256
-0.05809576499370072
-0.01389621239379828
-0.06764264673977519
0.00372105568995117
-0.01841002571073998
-0.09432732967694649
-0.2680137498765716
-0.007120711734885737
-0.0265462929773558
-0.02213869285759779
-0.07431388729375854
-0.09087371887474352
-0.08787007324627683
-0.01192668148464534
-0.9256227693425381
0.1610778514838719
-0.07886445224211092
-0.2551888229546928
-0.04255485814539936
-0.01046378273342061
-0.2546233232501983
-0.1862217297173311
-0.03289918754345842
-0.1284744814560885
-0.01966348354745681
0.563211545206822
-0.02382900914643356
-0.229073192202795
-0.02615520613254198
-0.00596893737153084
-0.01210848108065808
-1.251060820224117
-0.1820919411059041
-0.2325882936119311
0.005347985089241587
-0.03765390670387269
-0.2532380703946228
-0.06543996831326936
-0.05091383171297682
-0.1427250790121524
-0.1886989663860378
-0.06789553674639398
-1.22785639596109
-0.1428106815008435
-0.5211581148493003
0.07831411538818384
-0.006628563151143206
-0.02199528069063963
-0.04269955800582472
-0.04029004910478526
-0.02892100299323314
-0.1307429996691712
0.0801613257397505
-0.002168613200190134
-0.009843354822767308
-0.579713425601142
-0.8628280872670708
-0.1846273440687345
-0.008461154365126847
-0.1385276214685456
0.0009875984792925905
-0.000286485538051417
-0.001635728026552044
-0.06006287220432516
-0.238232716339086
-0.01337978175850216
-0.1245464144807685
-0.1561673869197736
-0.01323873510173581
-0.03586496007349498
0.02301486180662577
-0.05727658509199057
-0.06982093398001092
-0.5023876307190341
-0.2293066009179183
-0.08063104682132397
-0.07282535278014898
-0.01997739896616636
-0.1246292683391582
-0.1522502509490901
-0.07448693304942365
0.02251305949548725
-0.08457057091684456
-0.0482086015102295
-0.01488981364154374
-0.1059260058308472
-0.2728529530375879
-0.05699193527681171
-0.01853073153215757
-0.0005152538752426782
-0.0100035968572653
-0.01115129079320426
-0.2175931672322914
-0.0153454869869111
-0.2214742643620999
-0.0103038044457765
-0.06796875939894527
-0.003974998124115958
-0.02320761671209517
-0.378705081444048
-0.9110723939703418
-0.01134592145460367
-1.047272121382507
-0.6128936309095081
-0.01062526772859479
-0.6584473729421014
-0.1780573786052842
-0.006020054169763685
-0.1306885535355865
-0.01679202443528688
-0.1221614465413537
-0.06708865053510324
-0.07864816654593844
-0.005092133649269843
-0.00227155262432866
-1.339677142484454
-0.01125562919345654
-0.1806797264421499
0.0005057546826684382
-1.009837362268932
-1.235517527416558
-0.08114646276623588
0.01907069381132834
0.1643961758535885
-0.004541938652060342
-0.02305860202639686
-0.004174736020604871
-0.2526759386040431
0.3660808618748934
-0.0408219674695047
-0.2108473698313201
-0.01483207902832189
-0.6536474331264959
-0.07471867666870505
0.1904634290036692
-0.2846896776961761
-0.04967820466424091
-0.06871017607889465
-0.01586440668921564
-0.02178122519918196
-0.5765293038280884
-0.1448999067242536
-0.08588662442840905
-0.1284147663442462
-0.5549354015635554
-0.04406338130498484
-0.9065033897602449
0.0003185159331269746
-0.2382100301335118
-1.050870125092795
0.166431129366145
0.2910412818269816
-0.1846100642682305
-0.1921765810246082
-0.209379089945857
-0.0679126679971661
0.02192842834435288
0.04701714044046586
0.003109942194749329
-0.1678962284822328
0.02536687687789731
-1.358048467891263
-0.08514945872464116
-0.4738598931716408
-0.3310885299440521
-0.2041992808031054
-0.1767286864500276
-0.0168979511852588
-0.01547818754206981
-0.1074196911606972
0.1723248800225366
0.3852560742195582
-0.2097196750612332
-0.1388184691062506
-0.2331321428400913
-0.06239021326649341
-0.1496708517455692
-0.1634789856807218
-0.125679358266569
-0.1243409794472928
0.4652169899941617
-0.2696514370558488
0.4321806683067375
-0.5989020896458712
0.07111613455635599
-0.2031943620516862
-0.0660778268641775
-0.07470490598638556
-0.8798794221594406
-0.2186022101851564
-0.1907019507017296
-0.3469908827442725
-0.4580916831495868
0.5704988912084937
-0.2089479621572202
0.0005542487010475654
-0.07018781600231083
0.3444600422123335
-0.03719907723977079
-0.1327212090603462
-0.1795638626517096
-0.0634213183128758
-0.01655784192326751
-0.1959037643895446
0.195334714024945
-0.01291107462821125
-0.09625752026959201
-0.1701127548158143
-0.3166422751264504
-0.3128311071599751
-0.0646340452911723
-0.01031393513054495
-0.07960907516929602
-0.653110951267889
-0.6713155155211347
-0.3380359476163976
-0.05761490934882757
-0.05166730584294826
-0.02553626338626786
-0.06769396718569716
-0.0575177230498044
-0.3590336375606921
-0.9587373196818373
-0.01064682446662322
-0.08295858238080193
-1.139189674520764
-1.033178153054179
-0.1060872867524985
-0.03891373619436876
-0.06978982258820894
0.3897656515169975
-0.3435331960351532
-0.0496842105797204
-0.5992641555574859
-0.1217867962356185
-0.2525704080922272
-0.2109033624581387
0.4739174694685956
-0.6284980416705455
0.07450282610513759
-0.02959186974277642
-0.5585544527368638
-0.05175077539850649
-0.3623392805244495
0.1077993400682555
-0.1901759909488966
-0.0597465564546064
-0.1387755161182826
-0.3610294606277715
-0.08673265215728486
0.5150251536889092
0.08565227381747634
0.4703892944428738
-0.1002732275106469
-0.2005058767186949
-0.5217049955359134
-0.1316058326402515
0.02659639068028616
-0.05354799073444644
0.1019610765293593
-0.3055339720588925
0.2363132981894834
0.007728525475284475
-0.003392667071618683
-0.512709348059457
-0.1851821649755078
-0.08053322926759091
0.5816351043197185
0.1386637708226419
0.3444947360128559
0.2257475563372435
-0.5622453095761948
-0.1964898175698337
-0.223681044852514
-0.2311152677517587
-0.06029038534330158
-0.6936657959486876
-0.1927130762452185
0.3056793648062128
-0.1954435191325039
-0.0113218543561384
-0.170322943880096
-0.009614347513833457
-0.1572759106175697
-0.4353545430501179
-0.07643205639687721
-0.200228716033861
-0.07101663965164676
-0.08693857820637793
-0.1459468761077627
-0.07305214134545482
-0.4546375321649408
-0.4141513717211023
-0.02545802182075384
-0.07470181330935408
0.328509898312031
-0.2469038755677781
-0.1843399456544847
0.5248881449760024
-0.2077086579488525
0.01871251421791065
-0.4494977956209537
0.04850591458675675
-0.0618533084591017
-0.1429014537673582
-0.5831588818028122
0.1604500446496364
-0.5799762891789203
-0.534505198921573
-0.1047517146263346
-0.5077906114848316
-0.03738449402471546
-0.1389107526016145
-0.4108191241215224
-0.01628906941928713
0.287172293080221
0.4897218509751724
-0.1589714634770856
-0.007781833290045173
-0.07713437943894
0.5252790778527624
-0.03342690266781839
-0.4387942278729999
-0.03287409128985853
0.4611748764548865
-0.01499557949936636
-0.5433745633961504
-0.2482408358636721
0.176553904140477
-0.3100570053814449
-0.1787980302219218
0.05033437778511166
0.03347614707762909
0.05465011148545093
-0.2988207324949909
-0.1585274923755859
0.4128078732864281
)
;

boundaryField
{
    FrontBack
    {
        type            empty;
    }
    Top
    {
        type            zeroGradient;
    }
    In
    {
        type            zeroGradient;
    }
    Bottom
    {
        type            zeroGradient;
    }
    Out
    {
        type            fixedValue;
        value           uniform 0;
    }
    circle
    {
        type            zeroGradient;
    }
}


// ************************************************************************* //
