/*--------------------------------*- C++ -*----------------------------------*\
| =========                 |                                                 |
| \\      /  F ield         | OpenFOAM: The Open Source CFD Toolbox           |
|  \\    /   O peration     | Version:  2412                                  |
|   \\  /    A nd           | Website:  www.openfoam.com                      |
|    \\/     M anipulation  |                                                 |
\*---------------------------------------------------------------------------*/
FoamFile
{
    version     2.0;
    format      ascii;
    arch        "LSB;label=32;scalar=64";
    class       volVectorField;
    location    "18.4";
    object      U;
}
// * * * * * * * * * * * * * * * * * * * * * * * * * * * * * * * * * * * * * //

dimensions      [0 1 -1 0 0 0 0];

internalField   nonuniform List<vector> 
808
(
(0.891987 -0.0116059 0)
(1.02167 -0.0358801 0)
(1.18327 -0.0246433 0)
(1.07029 0.0103582 -2.3607e-21)
(1.47226 -0.286926 0)
(0.958593 -0.029186 0)
(1.13481 -0.0517203 -1.20392e-22)
(1.1163 -0.0380866 0)
(1.34423 -0.226389 2.38024e-20)
(1.22822 -0.0926228 -7.28302e-21)
(1.22678 -0.0456731 5.66704e-21)
(1.37489 -0.254004 0)
(0.992565 -0.041543 0)
(0.738323 -0.0221696 0)
(0.945526 0.0640868 1.84987e-20)
(1.07212 -0.0292795 0)
(0.838348 0.0495691 -6.10943e-21)
(0.985262 -0.0326916 -4.34759e-23)
(1.22294 0.0106415 0)
(1.11936 -0.000320492 0)
(1.23725 -0.0387992 -7.90866e-21)
(0.928147 0.124025 1.11089e-19)
(1.07526 0.0124833 -1.20382e-20)
(1.17853 -0.0444069 0)
(0.952868 0.18598 0)
(1.34411 0.0593208 -3.20818e-20)
(1.27742 -0.177262 7.54511e-21)
(0.95888 -0.0230024 -7.98331e-22)
(1.07159 -0.0249457 0)
(1.04182 0.0362501 -2.69927e-22)
(0.983309 -0.0282111 1.5307e-24)
(1.12549 -0.0192119 0)
(1.04002 0.034847 0)
(1.06981 -0.0198298 7.48072e-22)
(1.29878 -0.0830649 7.78129e-21)
(0.742368 -0.112775 1.11496e-19)
(0.872062 -0.0286951 -2.7829e-21)
(1.0189 0.0368976 8.21358e-22)
(1.19253 0.053328 -1.11584e-21)
(1.08592 0.0337281 0)
(1.25781 -0.0771819 -1.48809e-20)
(1.27245 -0.13693 0)
(1.00682 -0.00269408 -6.25142e-21)
(1.12847 -0.0413575 4.92811e-21)
(1.25034 -0.0599587 0)
(1.01144 0.0178068 -1.86826e-20)
(0.992491 0.0390113 1.07621e-21)
(1.25026 -0.249864 4.16668e-21)
(1.17679 0.0551931 -1.68786e-21)
(1.39795 -0.181164 -3.43855e-20)
(1.1321 -0.0458657 8.66045e-22)
(1.14869 -0.0722445 0)
(1.12026 -0.00178374 5.56988e-21)
(1.14108 -0.0130732 0)
(1.32314 0.235804 4.36187e-21)
(1.07376 0.0470333 -6.73464e-22)
(1.19015 -0.0083479 0)
(1.21916 -0.0814515 2.53614e-21)
(1.23185 -0.0985773 7.81783e-21)
(1.15083 0.0319998 5.22841e-22)
(-0.216074 0.126755 0)
(1.21372 -0.213621 -6.19972e-21)
(1.19735 -0.0690752 0)
(1.4145 -0.100182 -2.6128e-20)
(1.1478 -0.0533433 -5.64838e-21)
(1.04049 -0.0297974 -6.18263e-21)
(1.32867 -0.119117 2.58446e-20)
(0.632903 0.0159084 0)
(1.15425 -0.0521348 0)
(1.43708 -0.350732 0)
(0.885663 0.0299188 -1.0984e-22)
(1.24218 -0.139992 -4.00343e-20)
(1.00261 0.0485371 0)
(1.05892 -0.047853 -1.97747e-21)
(1.12112 -0.334175 -5.70346e-20)
(1.12858 -0.0438598 -5.30759e-21)
(1.15129 0.0190104 5.03502e-22)
(1.31956 0.499128 2.47684e-20)
(1.10885 -0.0433064 0)
(1.01352 0.283649 -1.84124e-19)
(1.36294 0.0279421 1.82433e-20)
(0.733365 0.0200842 0)
(0.841815 0.0349418 -6.24474e-21)
(0.968527 -0.108892 4.25249e-21)
(1.12602 -0.0480793 4.32661e-21)
(1.19604 0.00637686 1.59313e-21)
(1.28198 -0.233978 0)
(1.3475 0.289562 0)
(1.09249 -0.00148705 -9.01206e-21)
(1.40936 0.100208 3.59989e-20)
(1.07938 -0.0214801 1.06012e-20)
(1.3159 -0.126188 -1.35027e-21)
(0.96476 0.0259925 1.70736e-20)
(1.00413 -0.0238936 0)
(1.11655 0.0166091 1.27396e-21)
(1.25855 -0.0699419 -6.38347e-20)
(0.754445 0.0208359 -1.13087e-21)
(1.36702 -0.0541428 0)
(1.31877 -0.0979979 0)
(1.41113 -0.0864156 -4.15155e-20)
(1.10464 -0.045264 -1.39222e-21)
(1.12834 0.00533129 1.85326e-23)
(0.953077 0.0217775 9.1229e-21)
(1.18943 -0.00887759 -5.91957e-22)
(1.32046 0.00576303 -2.16869e-20)
(1.00088 0.00674761 1.19192e-20)
(1.47724 -0.0657418 0)
(0.922931 0.0911604 0)
(1.10056 0.0325798 1.28129e-21)
(1.20041 -0.22015 -7.38855e-21)
(1.27976 -0.00884353 1.22479e-20)
(1.04732 0.0470487 -1.22575e-19)
(1.16159 0.0406636 -4.25733e-22)
(1.19323 0.152542 3.26116e-21)
(0.794128 0.018574 0)
(0.917561 -0.0467192 7.6088e-20)
(1.15045 0.0192905 -2.03026e-21)
(1.42981 -0.260497 -1.73549e-20)
(1.12305 -0.0523001 -4.0969e-21)
(0.925595 0.0154663 2.47952e-21)
(-0.370773 -0.00845847 0)
(0.862673 -0.017789 2.19623e-21)
(0.804822 0.0229177 0)
(1.06354 0.00197984 -8.13452e-23)
(1.01235 0.0290323 0)
(1.31145 0.323844 6.77413e-21)
(1.03434 -0.0539181 -3.02619e-20)
(1.35654 0.164329 7.67993e-22)
(1.1484 -0.0681938 0)
(1.09179 -0.0232305 0)
(0.59648 0.000386737 0)
(1.12422 -0.0398749 -2.10948e-21)
(1.24763 -0.055846 8.52916e-21)
(1.06707 0.112912 -3.30935e-20)
(0.847746 -0.0239457 0)
(1.10676 0.0219871 -4.39232e-22)
(1.06148 0.0282128 3.92292e-21)
(1.14851 0.00454671 -1.23918e-21)
(0.990894 0.0346993 1.82502e-21)
(1.13212 0.0041144 -1.55365e-23)
(-0.0052422 0.0662052 0)
(1.09605 -0.0256164 -1.18237e-20)
(1.10842 -0.0291348 2.27903e-21)
(0.719467 0.0266698 -1.65951e-21)
(1.26182 0.174054 3.18514e-21)
(1.06189 0.136965 4.6393e-21)
(1.04929 0.0172651 1.56585e-20)
(0.990491 0.0260186 0)
(1.16841 -0.146264 -2.18881e-20)
(1.0608 0.0788543 0)
(0.937443 0.032142 3.37073e-21)
(0.968091 0.282564 1.47249e-19)
(0.968306 0.0367402 0)
(0.818221 0.100521 0)
(-0.0970888 0.0612931 -6.59102e-20)
(1.34568 0.139849 -1.2297e-20)
(0.677033 -0.0239487 0)
(1.46322 0.039028 0)
(1.10793 -0.0300731 0)
(1.36217 0.0978073 1.42645e-20)
(-0.0436684 -0.0836478 0)
(-0.0541688 0.0798575 3.14137e-20)
(0.996671 -0.0381076 7.96124e-20)
(1.00598 0.0398631 3.33758e-22)
(0.861944 0.000297056 0)
(1.03698 -0.0493351 6.08189e-21)
(0.894285 0.0222067 0)
(0.729957 -0.0176587 -8.60436e-20)
(1.02913 0.0513684 3.17655e-21)
(1.13518 -0.0508764 1.95429e-21)
(1.09738 0.00800283 4.60698e-21)
(1.01448 0.0703961 -1.16692e-20)
(0.731902 0.110967 -4.61868e-21)
(1.13595 -0.349211 5.89875e-22)
(0.915967 -0.0248972 0)
(1.07017 -0.000349321 -1.25226e-20)
(0.875044 0.0100375 -9.96949e-21)
(1.37145 -0.169051 2.05008e-21)
(0.688491 0.0273329 0)
(1.04582 -0.141358 0)
(1.12076 -0.0513917 2.24124e-21)
(1.39069 0.219703 9.74166e-21)
(1.11887 0.0150275 2.85997e-21)
(1.03658 0.0165967 1.92798e-20)
(0.719778 0.075082 -7.9079e-20)
(0.81459 0.00392486 1.84578e-20)
(1.13673 -0.0190322 2.37161e-21)
(1.37482 -0.0801425 -4.70218e-21)
(1.11593 -0.0512967 -3.84323e-21)
(1.31312 -0.0547511 4.02924e-21)
(-0.0997601 0.0877151 4.78821e-20)
(1.27316 -0.0441342 0)
(0.605778 -0.0188964 0)
(1.06162 -0.0290331 -6.13461e-21)
(1.10239 0.0100394 2.76645e-21)
(0.0463608 0.0969 0)
(0.877801 -0.0237345 2.4092e-22)
(1.12136 -0.052909 -1.91608e-21)
(0.968679 0.0142782 -3.53129e-22)
(1.07913 0.0390311 -7.04589e-21)
(1.00872 0.0201982 2.68648e-21)
(1.04526 -0.0493837 1.69022e-21)
(1.04612 0.0332884 0)
(0.343518 -0.035958 0)
(1.04831 -0.0633511 0)
(1.1345 0.112938 -2.71251e-20)
(-0.0475763 -0.0769623 4.5643e-20)
(1.06456 0.0164302 -4.75532e-25)
(1.175 0.0189039 0)
(0.756754 0.0216289 -3.31575e-21)
(1.13123 0.0204252 1.0842e-21)
(-0.00352163 -0.0390638 -1.49432e-19)
(0.762805 0.0223085 -4.41772e-20)
(0.624767 -0.0206502 0)
(0.956969 0.0243767 0)
(0.922666 0.0361625 4.75597e-21)
(1.01486 -0.108535 5.75503e-21)
(1.27725 0.399286 -1.56787e-21)
(1.10278 -0.0140204 7.96985e-24)
(1.17144 -0.0799188 -3.28475e-21)
(1.0073 0.0400252 0)
(1.36045 0.425468 -3.56145e-20)
(0.647478 -0.020662 0)
(0.799133 -0.0202236 -2.24445e-21)
(1.05398 -0.0117475 3.6604e-22)
(0.57358 0.0151655 0)
(1.09971 -0.00623768 0)
(0.0137762 0.053751 -3.87542e-20)
(1.16071 -0.123416 -4.7557e-21)
(0.723642 -0.0122538 7.49853e-22)
(0.990846 -0.00274343 0)
(0.533053 -0.0184885 0)
(0.756902 -0.0175011 -1.81387e-21)
(0.522106 -0.0167415 -4.43314e-22)
(1.3477 0.0320374 3.42086e-22)
(1.25812 0.0446497 -1.95821e-21)
(0.694477 0.0139042 -5.91506e-22)
(1.12434 -0.0184288 -3.96469e-23)
(1.14926 -0.0425194 -7.50996e-24)
(0.530448 0.0200693 1.85493e-21)
(1.19998 -0.0372533 3.4103e-22)
(1.16906 -0.0485914 0)
(0.94279 -0.00514796 0)
(0.483289 0.0206265 0)
(1.04 -0.00819875 0)
(1.15124 0.00987455 -5.99884e-22)
(1.06853 -0.0408958 0)
(1.13985 -0.0250612 0)
(1.0271 -0.0170774 0)
(1.07311 0.0631241 0)
(-0.0251615 -0.0434432 4.57412e-20)
(1.19506 0.00398362 5.06881e-22)
(1.08059 0.00932765 0)
(1.33331 -0.0143264 1.54947e-20)
(1.15251 0.017403 4.72268e-22)
(1.1209 0.0499032 -9.1837e-22)
(1.12327 -0.0454928 3.44618e-21)
(1.14934 -0.00304518 0)
(0.558923 -0.0173413 4.15213e-21)
(1.0521 0.044202 1.13495e-20)
(1.2477 -0.0854576 0)
(1.20453 -0.00476636 -1.14675e-21)
(1.17822 0.0489269 1.54486e-21)
(0.711942 0.137612 3.40477e-21)
(1.13501 0.0269006 3.47719e-21)
(1.18534 0.0167603 -3.45165e-21)
(1.08009 0.0814203 0)
(1.15519 0.0990382 -1.36326e-20)
(1.17266 0.085702 -1.76152e-21)
(0.694058 -0.0904874 9.50324e-21)
(0.887409 -0.000866445 0)
(-0.0155874 -0.0220497 0)
(0.974349 0.113243 -1.76541e-20)
(1.13862 -0.0196582 0)
(1.29491 -0.094195 2.87718e-20)
(1.19358 0.048287 4.33745e-22)
(1.15011 0.0162995 3.31823e-21)
(1.15829 0.0572394 -1.38564e-21)
(1.34136 -0.0304392 9.14274e-20)
(1.0172 -0.323496 5.75803e-20)
(1.1127 -0.0456675 -2.25089e-22)
(0.962091 -0.0350308 0)
(0.934971 0.0773768 0)
(0.902194 0.00200873 -2.62538e-20)
(1.3077 -0.142531 -5.78772e-20)
(1.13011 0.00196316 0)
(0.590296 0.0319344 1.6768e-20)
(0.393348 0.14917 0)
(0.754784 -0.0381245 6.80592e-21)
(0.776727 -0.0141872 -1.9513e-20)
(0.807706 0.0276341 -2.88058e-21)
(1.14768 -0.0522334 0)
(1.27897 0.0858169 -5.05963e-22)
(1.19447 0.0754359 2.2326e-21)
(0.74773 -0.106168 -7.62928e-21)
(1.15762 -0.00168006 -3.04353e-21)
(0.789813 -0.0889784 0)
(1.09291 0.072197 0)
(1.09692 -0.0769369 7.53954e-21)
(0.815664 -0.0821853 -6.87516e-21)
(1.2813 0.0713153 2.84749e-21)
(1.11711 -0.0255999 -2.61367e-21)
(1.03944 0.0410332 1.99916e-22)
(1.10113 -0.0144054 0)
(0.415602 -0.138198 1.3582e-20)
(1.34507 0.0917801 -2.28497e-20)
(0.856191 -0.0759555 -1.11538e-20)
(0.0514101 -0.0396745 -3.60036e-21)
(1.41464 -0.14226 2.3548e-20)
(0.917737 0.00138492 7.31347e-20)
(1.22233 -0.0365206 -7.72279e-21)
(1.09182 -0.0293285 1.73925e-22)
(-0.0648246 -0.0661334 -7.80429e-21)
(1.00059 -0.006747 0)
(1.03307 -0.0859634 -1.59762e-20)
(0.854756 -0.0335339 3.07553e-21)
(1.10345 -0.0506003 2.34887e-21)
(0.819753 -0.106916 2.80324e-22)
(0.509956 -0.017103 -6.22337e-22)
(1.41175 -0.383674 -1.54285e-20)
(1.11009 0.0362504 0)
(1.01264 0.00766169 5.14429e-22)
(1.13025 0.0355031 -1.74828e-21)
(1.22006 0.00880937 0)
(0.772047 0.0443388 -8.07547e-21)
(1.12071 0.0389354 2.28677e-21)
(0.744744 -0.105515 1.42294e-20)
(1.14913 -0.0451832 8.81235e-21)
(0.857192 -0.00562188 4.74532e-21)
(-0.0371046 -0.0130001 0)
(0.45806 0.0547101 2.28532e-20)
(1.14902 0.0245759 0)
(1.02696 0.13165 1.51154e-20)
(0.981943 0.202134 0)
(1.13109 -0.00963036 -2.96827e-22)
(1.01616 0.0270478 0)
(1.04444 -0.00931861 0)
(1.38661 -0.121074 1.94854e-20)
(0.795686 -0.0854084 0)
(1.17527 -0.0637378 1.1024e-20)
(1.1033 -0.00564096 1.11366e-22)
(1.0467 0.0362887 2.10093e-21)
(1.2971 -0.0816409 -1.74587e-20)
(1.24635 0.123412 -5.42001e-21)
(1.26766 -0.119233 7.70642e-21)
(1.13291 0.030319 0)
(1.16372 -0.044485 0)
(1.092 0.0450486 1.8618e-21)
(1.23225 -0.0366425 0)
(1.40283 0.219137 -2.46886e-20)
(0.822745 -0.0667179 -6.01275e-22)
(1.02737 0.0166005 2.03226e-20)
(1.26967 -0.00375547 -3.17451e-22)
(-0.0117147 0.00201076 0)
(-0.0323326 -0.0645961 0)
(0.00212105 0.11438 -3.79311e-20)
(-0.0664105 -0.0643265 0)
(0.694377 -0.00970196 -6.48889e-21)
(1.1713 0.0440512 -1.23493e-21)
(1.15262 -0.0309158 -2.87177e-21)
(1.20639 -0.093647 -6.22742e-21)
(1.20702 -0.0544764 0)
(0.691289 -0.00516354 -3.02245e-22)
(1.12618 0.0630796 0)
(1.1037 0.016774 1.26885e-22)
(0.504729 -0.109023 0)
(0.759129 0.0160159 -1.85896e-22)
(1.11376 0.0748711 0)
(1.15229 0.032386 0)
(0.572016 0.0378094 3.51241e-20)
(0.544102 0.124423 -1.64273e-21)
(0.901437 0.0604126 2.858e-21)
(1.01085 0.0176576 -8.91551e-21)
(0.179822 -0.0609297 0)
(1.23786 -0.0907366 -1.27177e-20)
(1.25687 0.0653481 -7.5549e-21)
(1.18532 -0.12156 8.06055e-22)
(0.605988 0.0756814 8.29435e-21)
(-0.0521277 -0.035473 -9.42445e-20)
(1.15363 0.0907856 0)
(-0.0330633 0.0376897 0)
(1.20472 0.097147 -1.93801e-21)
(0.338741 0.164696 -8.92542e-21)
(1.14041 0.0399766 -7.38848e-21)
(1.1095 -0.0441564 0)
(1.17471 -0.0389557 2.14325e-21)
(1.23885 -0.224552 2.09051e-20)
(0.546576 -0.0441573 -9.5282e-21)
(1.14315 -0.0373959 1.0417e-21)
(1.16221 -0.0523246 -6.21102e-23)
(0.18825 -0.263571 2.66152e-20)
(1.22623 -0.0452264 -1.082e-20)
(1.14674 0.0337701 0)
(1.14738 0.0922076 0)
(1.17473 -0.0677648 4.32534e-21)
(1.21256 0.0688759 6.82763e-21)
(0.755526 -0.219016 -5.81378e-20)
(1.19113 -0.12066 -1.37466e-20)
(1.13518 0.0587456 -1.35466e-22)
(0.496937 -0.00161465 7.40593e-21)
(0.190619 0.0274048 -6.71088e-20)
(0.119669 -0.267875 3.81367e-20)
(1.17327 0.188008 -6.53162e-21)
(1.23252 -0.493698 5.2492e-21)
(1.3872 0.0335627 -1.40644e-20)
(1.19729 -0.0547373 -5.1258e-21)
(0.935619 -0.232664 9.42127e-20)
(-0.397718 -0.140581 0)
(1.18354 -0.0224631 -4.37799e-22)
(-0.079376 0.0138952 -2.21983e-20)
(1.18423 0.11423 1.67703e-21)
(1.17661 -0.0772126 4.76783e-21)
(1.08161 0.0371989 0)
(0.509732 0.0124611 0)
(1.17209 -0.0555744 0)
(1.33851 0.173028 -8.16415e-21)
(1.26172 -0.0329488 -2.47599e-20)
(1.14876 -0.0453941 -3.63325e-21)
(0.458574 0.0102984 0)
(0.621185 -0.000253621 0)
(0.636188 0.00599165 7.30658e-22)
(0.449183 -0.00780048 0)
(1.19384 0.0494729 0)
(1.02102 -0.0143069 2.3818e-20)
(0.132345 -0.0193244 0)
(0.914585 0.0416166 0)
(1.11405 -0.0109227 0)
(1.17381 0.185708 -6.40412e-21)
(1.27644 0.0236351 1.12472e-20)
(0.964943 -0.0310517 4.80008e-21)
(1.29159 -0.399984 -1.07928e-19)
(0.485212 -0.153379 -3.26763e-21)
(1.20365 0.0716933 5.17375e-21)
(1.19525 0.0199413 0)
(-0.279231 -0.110977 0)
(-0.220414 0.148253 0)
(1.16389 -0.0377564 -7.22084e-21)
(1.31821 -0.290339 -2.46017e-20)
(1.36551 0.0791016 0)
(1.0736 0.0442875 -5.51484e-21)
(0.528593 -0.075943 0)
(1.50294 -0.167076 7.06991e-20)
(0.412193 0.520336 1.15219e-19)
(0.285885 -0.0424316 0)
(1.09848 -0.276612 1.15852e-19)
(0.0597842 -0.024319 0)
(-0.270463 -0.315489 2.99249e-21)
(1.37195 0.0686267 0)
(-0.196314 0.0680233 2.2353e-21)
(0.983518 -0.0500614 0)
(1.25239 -0.110033 -1.2178e-20)
(-0.135644 0.0317376 -7.56903e-21)
(1.12379 -0.032219 -4.61587e-22)
(1.17608 -0.00531634 -4.95916e-21)
(0.572315 -0.513248 -9.20339e-20)
(1.13266 0.0315098 -7.43391e-22)
(1.1924 -0.129305 3.50462e-21)
(1.18136 0.251122 -2.04148e-20)
(1.14277 -0.190209 -4.49651e-22)
(1.1638 -0.0207562 -1.20492e-21)
(-0.0335541 -0.0167948 -6.81504e-20)
(0.0464144 0.105295 -6.99788e-21)
(1.26655 0.134814 2.59366e-21)
(1.05785 -0.0509759 0)
(0.505652 0.162644 -5.97949e-21)
(1.39975 -0.441302 8.15305e-20)
(0.931853 -0.0703802 -5.95841e-20)
(1.43062 0.162953 7.4546e-20)
(1.08883 -0.0416357 1.4593e-21)
(1.18553 -0.0103912 9.19938e-21)
(1.06156 -0.00749524 0)
(1.18361 -0.0308794 0)
(1.23794 -0.0857858 3.51332e-21)
(1.08718 -0.0206984 -4.53933e-21)
(1.11441 -0.136305 9.26725e-22)
(1.09575 0.0602029 -3.32785e-21)
(1.41513 -0.0498748 -4.25832e-20)
(0.419273 0.0330093 0)
(1.16982 -0.0500339 6.62094e-21)
(1.33306 0.0331946 0)
(1.11389 0.0663188 -4.18214e-22)
(1.14561 0.0245588 0)
(1.04129 -0.00977513 1.21303e-20)
(1.23901 0.0364371 1.64785e-20)
(1.05445 0.0387289 0)
(0.0557665 -0.0285497 1.57074e-19)
(0.882759 -0.211292 -7.38937e-20)
(1.22032 -0.0390526 -2.541e-20)
(-0.110869 0.0115793 3.93738e-20)
(1.20079 0.0288878 3.52332e-22)
(0.756719 0.0735258 -1.68131e-21)
(-0.0913794 0.0336381 -4.10455e-20)
(-0.0231406 0.0232401 -2.58936e-20)
(1.01908 -0.0298016 0)
(-0.030609 -0.0373722 0)
(1.19367 -0.00887455 0)
(0.111855 -0.101934 0)
(1.1151 -0.0287438 0)
(0.141442 0.0306254 0)
(1.13105 0.0467704 0)
(1.16974 0.0340225 0)
(1.39115 0.115692 1.69923e-21)
(0.575762 -0.285166 -2.1248e-20)
(-0.116638 0.143451 0)
(1.13293 -0.0902472 6.20033e-20)
(1.25893 0.0341742 1.54454e-21)
(1.24512 -0.0200205 0)
(-0.0366849 -0.041592 0)
(1.16484 0.0106756 4.79194e-21)
(1.17235 -0.0123556 -2.50268e-21)
(1.16821 0.391382 0)
(0.256338 -0.0593185 6.10009e-20)
(1.12273 0.0597134 1.0479e-21)
(0.235994 -0.0512035 -5.30921e-20)
(-0.0605546 0.0444611 -3.019e-20)
(-0.0366944 0.0491499 7.85381e-20)
(0.257606 -0.153561 2.67125e-20)
(1.0002 0.0485622 1.58205e-21)
(1.14837 0.0685249 3.30918e-21)
(1.02338 -0.00774348 0)
(1.0699 -0.0700813 -2.12402e-20)
(1.26119 0.0292548 -1.20886e-20)
(-0.0100504 -0.0189437 9.64925e-20)
(0.979083 -0.0722024 -5.92839e-20)
(0.722011 0.165069 1.01175e-20)
(1.15214 0.0495464 -1.70541e-21)
(0.0769893 -0.0299828 3.39969e-20)
(0.248542 -0.0370597 -4.81187e-20)
(0.41194 -0.0460219 -5.53135e-20)
(1.26977 0.147909 -7.7779e-21)
(-0.0539088 -0.0375117 0)
(1.05391 0.206628 1.03403e-21)
(1.08111 -0.0728207 1.87035e-20)
(1.11646 -0.0613876 -1.80333e-20)
(1.24676 -0.000855423 0)
(1.51271 -0.225897 7.19469e-20)
(1.1325 0.0483184 -1.13751e-21)
(-0.0150467 -0.033697 -3.29539e-20)
(0.26612 0.0937308 0)
(0.890475 0.0303296 4.09257e-22)
(1.13761 0.0195985 -7.6161e-22)
(0.823309 -0.165684 2.35363e-20)
(1.16754 0.00976156 -1.44305e-21)
(1.11905 0.0516154 0)
(1.14102 -0.169169 -1.48277e-20)
(-0.0952663 -0.0166154 -6.47645e-20)
(1.30683 -0.0366571 1.989e-20)
(1.10233 0.175867 -8.73454e-21)
(1.08938 0.0631815 3.80603e-21)
(-0.0420939 -0.0580902 1.54191e-20)
(-0.0222 0.0335363 -6.02963e-20)
(0.623747 0.0624434 0)
(0.713619 0.0732798 0)
(1.15369 0.102374 -1.54783e-20)
(1.05186 0.0704971 1.20172e-20)
(1.09267 0.00366176 0)
(0.46603 0.037777 4.25768e-20)
(0.708695 0.0922159 -1.06782e-20)
(1.09939 0.111516 0)
(1.07847 0.0499296 0)
(1.32055 0.0406277 0)
(1.2135 0.0192301 0)
(1.13777 0.0312526 3.27841e-21)
(-0.0428729 0.0437162 3.29723e-20)
(1.24086 0.0410107 3.56995e-21)
(1.40273 -0.187314 -8.13903e-20)
(1.20101 0.0134794 -5.00905e-21)
(0.0370097 0.120548 0)
(1.13464 -0.0120995 0)
(0.629625 -0.00458933 6.34771e-22)
(0.522666 0.00952902 -5.61926e-20)
(0.066195 0.0370616 4.58417e-20)
(0.944193 0.0106 -1.1829e-21)
(0.742563 -0.272002 0)
(0.678852 -0.089874 0)
(1.16539 -0.00932174 0)
(0.539717 0.513994 2.03881e-20)
(-0.0149922 0.0225542 -2.86307e-20)
(1.0953 0.0270011 -3.29339e-21)
(-0.0216276 -0.0458116 6.27906e-20)
(1.12104 -0.050895 1.46684e-21)
(1.17452 0.317657 3.89373e-20)
(1.11177 -0.0888173 7.90406e-21)
(0.322992 0.0116415 8.89713e-20)
(1.07806 0.153217 2.54255e-21)
(1.08306 -0.0203019 0)
(0.554923 0.270289 0)
(0.907802 0.048402 4.32645e-21)
(-0.189661 0.106354 0)
(0.607718 0.0288234 1.39397e-21)
(0.602479 -0.416204 -3.05378e-21)
(0.232389 0.0493074 -1.0845e-19)
(1.1242 -0.226431 3.18917e-20)
(1.03861 0.366947 1.01658e-20)
(0.979598 0.0197142 0)
(1.23084 -0.0240674 8.59572e-23)
(0.632129 0.00724369 0)
(0.990359 -0.0023463 -9.03514e-22)
(0.440217 -0.0178515 0)
(0.712171 0.132603 0)
(1.00026 -0.0226986 -1.99776e-21)
(1.4361 0.179933 -1.38493e-20)
(1.10253 -0.0492846 1.72232e-21)
(0.520914 -0.490186 0)
(1.13341 -0.155563 2.0795e-21)
(0.804596 0.381429 7.07546e-20)
(-0.0421169 0.0204471 1.10533e-21)
(1.22813 -0.0218968 1.21588e-20)
(1.22239 0.0344388 -1.28115e-20)
(1.13836 -0.0805097 5.90874e-22)
(0.789457 0.00766375 -1.88076e-21)
(0.0574913 0.0189449 3.53198e-20)
(-0.0175112 -0.0121595 -5.39993e-20)
(-0.181998 0.118227 0)
(-0.16965 0.223694 0)
(1.18267 -0.613466 3.16744e-20)
(1.15375 -0.0282804 1.17575e-21)
(0.886361 -0.463626 -4.24989e-20)
(1.07146 0.193034 -3.29815e-21)
(1.36126 0.205572 3.24052e-20)
(0.601871 0.419916 0)
(0.246675 0.417349 -1.14927e-19)
(0.59617 0.484912 0)
(0.017519 0.109947 0)
(1.11989 -0.477219 0)
(-0.044548 0.0381656 -1.9793e-22)
(1.19919 -0.0222071 0)
(0.841121 0.0278627 -2.20243e-20)
(0.595314 0.69494 2.03939e-20)
(1.32538 0.120334 1.29532e-20)
(-0.0379451 -0.0799434 -1.09103e-19)
(0.684035 0.0364014 -2.33245e-20)
(0.445811 0.143704 -1.30822e-20)
(1.20883 0.0958229 0)
(1.35858 0.360944 3.33639e-20)
(1.22221 0.569422 6.34368e-21)
(0.148928 -0.0128746 -2.08602e-20)
(0.986712 0.139781 3.00296e-20)
(0.936599 -0.0167348 -1.62135e-22)
(0.902446 0.0217044 4.26892e-22)
(-0.00252111 -0.0311757 0)
(0.644495 -0.648898 -3.06112e-20)
(0.613484 0.204769 0)
(0.0539437 -0.0670546 0)
(-0.0464461 0.055772 0)
(-0.015434 -0.0713981 -4.13392e-20)
(1.24463 -0.0057776 -1.39562e-20)
(-0.0316688 0.0575927 0)
(-0.0314457 0.0490413 0)
(1.45584 0.12429 -7.21328e-20)
(-0.0380412 -0.073936 4.93864e-20)
(0.115075 0.236625 -1.00993e-19)
(0.374159 0.0182999 0)
(0.168885 -0.274885 8.16484e-20)
(1.08626 -0.238422 0)
(0.99436 -0.282877 0)
(-0.00395814 -0.0719108 1.02944e-19)
(1.15254 0.037712 -2.4549e-23)
(1.12527 0.346258 2.83557e-20)
(0.253797 0.0285541 4.44473e-20)
(0.402119 -0.514813 -3.80832e-20)
(1.27758 0.0887183 0)
(1.20676 0.201366 2.09584e-20)
(1.21124 0.216295 -2.57465e-20)
(0.102568 0.0918178 -2.34444e-20)
(-0.0614913 0.0201018 0)
(1.06942 -0.0587133 -1.94611e-20)
(1.10103 -0.222316 -1.57029e-20)
(0.581442 -0.400357 0)
(1.09639 -0.148796 -2.59865e-20)
(-0.0686377 0.203601 0)
(0.575986 0.0501047 0)
(1.41562 -0.00909799 3.32565e-20)
(0.978502 0.0267157 1.17181e-22)
(1.07793 0.747888 -1.67636e-20)
(0.22433 -0.376041 1.32965e-19)
(1.08618 0.0346079 1.783e-23)
(1.21082 0.077004 5.07181e-22)
(-0.0471026 0.0662763 2.86538e-20)
(0.786558 0.734286 2.88031e-20)
(1.34458 -0.368334 -1.33426e-20)
(-0.209719 -0.00465653 5.89454e-20)
(1.13251 0.0371564 0)
(0.2244 0.0488049 -8.12921e-21)
(0.895502 -0.633131 2.75442e-21)
(0.897638 0.641686 -1.85063e-20)
(0.549174 -0.0335337 -6.30203e-20)
(1.14823 -0.00724198 6.99158e-22)
(1.07532 -0.0849625 6.88112e-21)
(1.17228 0.0575351 -2.14061e-21)
(1.10637 0.122518 3.89874e-21)
(1.13172 -0.129547 0)
(0.89405 0.113737 1.34981e-20)
(0.881805 0.458475 0)
(1.33604 0.104081 5.9679e-21)
(1.17053 0.116279 -6.25725e-22)
(0.744322 0.263641 0)
(0.511083 0.109872 1.03444e-19)
(0.893656 0.715055 -8.27125e-22)
(1.07803 0.293187 -2.17768e-20)
(1.04365 -0.0110911 1.18198e-20)
(0.416086 0.496003 0)
(1.29213 -0.471598 0)
(0.701119 -0.0226409 6.05182e-21)
(1.2601 0.5061 0)
(-0.0273938 0.0529376 -3.99139e-20)
(1.28007 -0.414792 -7.36703e-21)
(1.16572 0.51379 0)
(0.45281 0.221976 1.69387e-19)
(1.11622 0.317619 -1.14957e-19)
(0.811891 -0.636185 -2.63767e-20)
(1.17654 0.051973 -3.17092e-21)
(0.904878 0.152539 7.70295e-20)
(1.08908 0.170964 5.22104e-20)
(1.06986 0.706145 7.68835e-22)
(0.900933 -0.434978 6.57534e-20)
(1.43416 0.193034 3.83863e-20)
(1.1317 0.00857341 -2.08173e-22)
(0.00678105 -0.0508668 9.28241e-20)
(1.07863 -0.699403 2.48307e-20)
(0.867662 -0.71602 5.45238e-20)
(0.250253 -0.326815 0)
(0.971796 -0.14669 7.32732e-20)
(0.36282 0.312778 -4.39649e-19)
(-0.112859 0.127937 2.07755e-20)
(0.222994 0.0427364 2.07074e-20)
(0.676908 -0.057573 -7.42015e-20)
(1.07963 0.532866 0)
(0.990961 0.223826 8.08614e-20)
(1.08845 0.0307672 3.19642e-21)
(0.911194 0.445797 -9.12237e-20)
(0.778234 -0.721599 -8.71378e-21)
(0.928759 0.0245363 -4.92309e-20)
(0.978335 0.493304 0)
(1.22275 0.107655 -1.28471e-20)
(1.3767 -0.513113 1.29785e-20)
(1.22481 -0.339585 9.18004e-21)
(-0.209178 0.15109 3.40377e-20)
(0.194359 0.0097658 -1.81962e-20)
(0.97299 -0.117406 -5.83548e-20)
(0.353843 0.529169 0)
(0.916747 0.0182575 3.92264e-20)
(1.1538 0.638042 7.66386e-20)
(-0.0906243 -0.000568813 1.38475e-19)
(-0.0596254 0.0587914 -2.38957e-20)
(-0.0822202 -0.0359153 3.99129e-20)
(1.09867 0.0249118 -4.242e-21)
(1.12785 -0.459448 0)
(1.06279 -0.731198 -4.35931e-20)
(0.699114 0.352742 0)
(0.0065605 0.00392605 -1.00778e-19)
(1.09648 0.028341 1.49312e-21)
(-0.0352038 -0.0568997 -2.86702e-20)
(1.04783 0.0571485 -1.22975e-20)
(0.0967168 0.0297947 5.1752e-20)
(0.830865 0.128548 0)
(1.35904 -0.0479468 4.16259e-20)
(0.0371789 0.0511613 -2.35115e-20)
(-0.19629 0.166635 -4.04292e-20)
(-0.20932 0.172551 0)
(0.0845122 -0.0154865 0)
(1.31756 -0.0316889 -1.16736e-20)
(0.381184 -0.00969718 1.53177e-19)
(1.26226 -0.723801 -2.07413e-20)
(0.944379 -0.0639893 4.06705e-20)
(1.07243 0.253293 -3.05423e-20)
(0.366032 -0.552791 1.40921e-19)
(1.54532 0.290125 -3.24747e-20)
(0.0687163 -0.0572437 3.60394e-20)
(0.208663 0.310613 1.96056e-19)
(0.100263 -0.0343997 -1.3484e-19)
(0.940165 -0.49039 -4.36768e-20)
(1.44946 0.393392 3.31869e-20)
(0.56383 -0.672102 4.96042e-20)
(1.10677 -0.0850941 -6.94608e-21)
(0.170201 0.0747611 5.43603e-20)
(1.17007 0.293832 -4.52079e-20)
(0.662609 0.643442 -4.07024e-20)
(1.33292 -0.621317 0)
(1.41103 0.523 3.23547e-20)
(1.04993 -0.526202 -1.23674e-20)
(1.38517 0.609809 -9.55603e-20)
(1.19174 0.0198091 0)
(-0.0521898 0.0724758 0)
(1.25024 0.732652 0)
(1.22006 0.030066 -3.92053e-21)
(0.739626 -0.299144 -2.07839e-19)
(0.476621 -0.0792401 0)
(-0.05345 0.0792065 -2.42825e-20)
(1.02135 -0.245936 9.8907e-20)
(-0.257479 0.0965998 0)
(0.3216 0.0301994 1.22938e-20)
(1.15531 0.0318545 0)
(1.40578 0.281665 0)
(1.20157 0.0492338 3.39567e-21)
(0.360664 -0.287592 0)
(1.01317 0.152049 3.77792e-20)
(1.30048 0.291344 0)
(-0.0764393 0.0709915 -3.18714e-23)
(0.810723 -0.393635 0)
(1.51432 0.347036 -4.93987e-20)
(1.24008 0.373175 1.36849e-21)
(0.841803 0.650242 -9.85096e-21)
(1.01145 0.159395 -8.91879e-20)
(0.968893 -0.203067 -4.81864e-20)
(1.44827 0.301662 2.90806e-20)
(0.986939 0.113539 0)
(0.56393 -0.0680967 0)
)
;

boundaryField
{
    FrontBack
    {
        type            empty;
    }
    Top
    {
        type            noSlip;
    }
    In
    {
        type            fixedValue;
        value           uniform (1 0 0);
    }
    Bottom
    {
        type            noSlip;
    }
    Out
    {
        type            zeroGradient;
    }
    circle
    {
        type            noSlip;
    }
}


// ************************************************************************* //
