/*--------------------------------*- C++ -*----------------------------------*\
| =========                 |                                                 |
| \\      /  F ield         | OpenFOAM: The Open Source CFD Toolbox           |
|  \\    /   O peration     | Version:  2412                                  |
|   \\  /    A nd           | Website:  www.openfoam.com                      |
|    \\/     M anipulation  |                                                 |
\*---------------------------------------------------------------------------*/
FoamFile
{
    version     2.0;
    format      ascii;
    arch        "LSB;label=32;scalar=64";
    class       volScalarField;
    location    "42.9";
    object      p;
}
// * * * * * * * * * * * * * * * * * * * * * * * * * * * * * * * * * * * * * //

dimensions      [0 2 -2 0 0 0 0];

internalField   nonuniform List<scalar> 
808
(
0.124291
0.0444287
0.0331806
0.12309
-0.284857
0.0411372
0.0328995
0.0317325
-0.155672
-0.0152583
0.0250757
-0.182457
0.0295653
0.0360416
-0.21458
0.0283197
-0.230254
0.0324238
0.0631598
0.0313955
0.0697673
0.394945
0.101182
0.00413718
0.474433
-0.151549
-0.0782522
0.0174102
0.0330373
0.0439755
0.0250576
0.0359475
0.0389894
0.0340347
-0.0638419
0.627679
0.0431558
0.0528726
0.0410023
0.0317406
-0.0339483
-0.0719576
0.0631662
0.0441527
-0.21954
0.117878
0.0455607
-0.0147078
0.0400747
-0.193676
0.0388499
0.0216841
0.0736467
0.0210077
-0.045386
0.0393401
0.0124672
0.037844
-0.0212955
0.0349922
-0.363492
-0.0148253
0.0375465
-0.15322
0.0453744
0.0735436
-0.29521
0.033311
0.0613989
-0.342859
0.0441646
-0.392261
0.0377438
0.0414917
0.161805
0.0554699
0.0291528
-0.0330894
0.0377313
0.337669
-0.0940667
0.0402397
0.0557601
0.264612
0.062873
0.0116957
-0.434218
-0.0651708
0.0461792
-0.159052
0.0506735
-0.108442
0.277124
0.183585
0.0660994
-0.208038
0.0264303
-0.127612
-0.103248
-0.210633
0.0454954
0.0325159
0.055316
0.0212502
-0.00999438
0.0877547
-0.280544
-0.0159565
0.0371418
0.00434209
-0.00344681
0.352485
0.0421715
0.0380212
0.0372789
0.452409
0.0391193
-0.327909
0.0407997
0.0692086
-0.258559
0.0648055
0.0374243
0.0681956
0.138888
-0.0121813
0.105417
-0.0021889
0.03169
0.0946963
-0.344975
0.0304772
-0.0206277
0.152149
0.0393065
0.0381374
0.0939229
0.0358745
0.044859
0.0343286
-0.233009
0.0525239
0.0689015
0.0426207
0.00576797
0.052248
0.102488
0.157423
-0.0760532
0.0233465
0.0417538
0.364232
0.0499224
0.549406
-0.270359
-0.0600454
0.0418169
-0.222619
0.100962
-0.0810537
-0.375378
-0.243215
-0.364899
0.0422738
0.0884224
0.0402857
0.0438255
-0.395035
0.0377406
0.043514
0.0542962
0.185408
0.0656399
0.0993692
0.0472113
0.0766491
0.0981504
-0.165746
0.0457743
-0.429074
0.0400159
-0.0967371
0.0395839
0.256125
-0.315379
0.145421
0.0478182
-0.103961
0.0478358
-0.0694219
-0.244004
-0.028831
0.0403185
0.0824569
0.0409778
-0.207493
0.0420812
0.0324827
0.00468323
0.108494
0.0763484
0.0279447
0.0406419
-0.414298
0.387563
-0.206265
-0.360782
0.017162
0.00784361
0.0416322
-0.0191219
-0.491673
-0.262856
0.0440815
-0.0205167
0.0383683
-0.407249
0.000318421
-0.036628
0.0196659
-0.0199471
-0.0469399
0.0390993
0.0358237
0.00964532
0.0432726
0.15338
-0.255422
-0.0284433
0.0305239
0.145107
0.0283831
0.0283035
0.0261171
-0.0919654
-0.0070503
0.0120649
-0.00405434
-0.0353295
0.0216078
-0.0124482
-0.000433795
-0.0231462
0.00830265
0.00461804
0.000913872
0.0127272
0.00822654
-0.0188951
0.0830418
-0.385605
0.0172825
0.0536745
-0.00436786
0.0321007
0.0321923
0.0327646
-0.0124441
0.0318928
0.153583
0.0013226
0.0277628
0.0209114
-0.113612
0.0489048
0.0212777
-0.0138785
0.0476377
-0.0115575
0.0218228
-0.0390961
-0.490254
0.297983
0.05403
-0.0633305
0.0281939
0.0408746
0.0398924
-0.134467
0.256334
0.0262715
-0.000462861
-0.0657237
0.0936519
-0.208701
0.0523953
0.0541678
-0.0647394
0.0180914
0.0585867
0.0434323
0.0412509
-0.0238558
-0.0190908
-0.0073559
0.0372651
-0.0044732
0.0865469
0.0213858
0.0237394
-0.0155884
0.0313085
-0.0426989
0.0389528
-0.583791
-0.061999
0.0346089
-0.125334
-0.183047
-0.367263
0.0569808
0.0302971
-0.363834
0.12897
0.152839
0.0473944
0.0453681
-0.0172955
0.0106244
-0.271229
0.0631524
-0.000881549
0.0569754
0.0632505
0.00852751
0.0558605
-0.0635993
0.0294386
0.0201438
-0.304866
-0.0425625
0.0313051
-0.125413
-0.0970709
0.0399111
0.255388
0.0632548
-0.148843
0.548239
-0.00241378
0.00889218
0.0510834
-0.0619129
-0.0133722
-0.0380581
0.0615261
0.0285645
0.0568547
-0.0278326
-0.19354
-0.0656096
0.134119
0.0128526
-0.283763
-0.372024
-0.317963
-0.376655
-0.0386185
0.0419239
0.0470886
0.0475577
0.00637683
0.0200033
0.0496062
0.00871046
-0.579978
-0.00897902
0.0379365
0.043235
0.0655797
0.0128307
0.0226457
0.11601
-0.439778
-0.0153157
0.0171825
-0.0387267
0.106674
-0.318283
0.0229326
-0.254731
0.0197293
0.042231
0.0484071
0.0383734
0.0427002
-0.0477087
-0.427879
0.0309577
0.0479851
-0.0362018
0.0975259
0.0284346
0.0381612
0.0295913
0.0198398
-0.0240152
0.0282365
0.0271007
0.0432025
-0.0616636
-0.277151
0.095564
-0.0450624
0.0155868
0.0126685
0.414791
-0.237359
-0.00854133
0.0195276
0.0292669
0.00993701
0.0520751
0.0774366
0.00981929
-0.0847355
-0.00728702
0.0276323
-0.00252532
-0.00569872
-0.0116051
-0.0100534
0.0279037
0.115451
0.0508732
0.0239651
0.021833
0.0551289
0.0180443
0.0538219
-0.43812
0.075812
0.0664056
0.00684992
-0.208053
-0.31418
0.0140735
-0.11705
-0.00225383
0.0502744
-0.410238
-0.262748
0.260447
-0.406291
-0.527075
0.0456317
-0.10426
0.0195371
-0.233221
0.352102
0.0130407
-0.333604
0.0324981
0.0424055
0.561503
0.0299966
0.00956083
0.0812682
-0.0146859
0.0174335
-0.451337
-0.212043
0.04257
0.0677981
0.0317319
-0.312252
-0.389997
-0.173246
0.0504033
0.0757885
0.121463
0.0135546
0.0193649
0.107137
0.0472447
0.0411397
-0.0977644
-0.231463
0.0889487
0.0168431
0.040768
0.041506
0.0848546
-0.0168729
0.0401364
-0.554084
0.446688
-0.0931144
-0.309669
0.0221242
-0.00782835
-0.285257
-0.270669
0.120981
-0.413275
0.0344793
0.871415
0.0391215
-0.444224
0.03114
0.0112994
-0.00937111
-0.521172
-0.282445
-0.375857
0.0273256
0.044346
-0.447935
0.0194328
0.0046202
0.135967
-0.416399
0.0598228
-0.58334
-0.264722
-0.323407
-0.0170421
0.0052787
0.0279551
0.134753
0.12383
0.0209842
-0.312954
0.300421
-0.00201367
0.00212302
-0.527898
-0.582611
-0.423554
-0.0294099
-0.432469
-0.0147496
0.147931
0.121746
-0.00924998
-0.274708
0.0154428
-0.350784
-0.206366
0.0111147
0.0294446
-0.424864
0.0195696
0.065088
-0.458686
-0.380096
-0.0441675
0.133492
0.0447697
-0.402689
-0.253926
-0.0899813
0.0342766
0.0727701
0.129052
0.0161335
-0.222857
-0.22781
0.133069
0.0453932
0.0380964
0.0467077
0.0677853
-0.270732
0.0145898
-0.313177
0.0686394
-0.397356
0.125651
0.0020181
-0.301714
-0.392322
0.00496598
-0.538472
-0.545491
0.0636707
-0.032257
-0.262952
0.0419408
-0.330016
0.0196827
0.114864
0.0642048
-0.452662
0.0168782
0.137814
-0.398004
0.000171109
-0.31839
0.0407616
-0.3673
-0.447661
0.0821162
0.302466
0.446439
-0.0281498
0.00509599
0.0017889
-0.428676
0.660117
0.0446818
-0.157691
0.0357332
-0.1092
0.0729555
0.510523
-0.307846
-0.0193247
-0.0129024
0.0346231
0.0395201
-0.389123
-0.293547
-0.322875
-0.302048
-0.326406
0.0280805
-0.4148
-0.0495596
-0.206623
-0.26472
0.541473
0.616046
-0.212811
0.0824569
-0.271783
0.00246296
-0.0719505
0.438174
0.0129355
-0.397086
-0.130322
-0.449638
0.0105144
-0.147385
0.0199916
-0.251612
-0.197553
0.00243807
0.00527185
-0.406007
0.431823
0.695646
-0.422045
-0.253358
-0.417295
-0.0344298
-0.246235
-0.258282
-0.134878
-0.399106
0.779446
-0.278411
0.742147
-0.489966
0.315779
-0.395251
0.0365256
0.209014
-0.438249
0.19567
-0.203571
-0.248507
-0.278396
0.889614
-0.284129
0.201515
0.131432
0.638757
0.116815
-0.30438
-0.20127
-0.0247211
0.020176
0.12361
0.507606
0.016783
0.0130242
-0.256207
0.154925
-0.163187
-0.157592
0.0394622
-0.316891
-0.204833
-0.113329
-0.458268
0.0364341
0.10373
0.0257373
0.109969
0.0973902
-0.266106
-0.307212
-0.0177265
0.0455348
-0.409178
-0.452504
0.211806
0.226451
0.0967199
0.695243
-0.121454
-0.439432
-0.33049
-0.238018
-0.0969187
0.120717
0.782658
-0.39181
0.355531
0.0259581
-0.363368
0.187621
-0.0345254
0.367713
-0.105568
0.0462167
-0.41698
-0.120226
0.166265
0.817494
0.328272
0.782938
-0.375928
-0.221744
-0.503404
0.20275
0.29799
0.0925817
0.411629
0.103809
0.504134
0.308256
-0.0729599
-0.238866
-0.00161848
-0.37509
0.898126
0.409468
0.677342
0.524587
-0.219623
-0.396693
-0.265078
-0.331878
0.0776221
-0.469438
0.0696756
0.621315
-0.449269
0.0143828
-0.335592
0.216011
-0.265493
-0.304642
-0.0493828
-0.216763
-0.312931
-0.316463
-0.425519
-0.0402199
-0.509814
-0.179631
-0.436923
0.18109
0.648114
-0.164802
-0.414614
0.849443
-0.409835
0.26568
-0.182496
0.368697
0.0883751
-0.383131
-0.336025
0.474606
-0.332002
-0.268252
0.162319
-0.22669
0.0275085
-0.244055
-0.0753573
0.0179736
0.565168
0.789516
-0.24908
0.21577
-0.348362
0.836621
0.0286063
-0.255088
0.0288549
0.76668
0.239365
-0.263511
-0.24896
0.443323
-0.159469
0.0768085
0.383772
0.283922
0.285796
-0.197589
-0.248705
0.697997
)
;

boundaryField
{
    FrontBack
    {
        type            empty;
    }
    Top
    {
        type            zeroGradient;
    }
    In
    {
        type            zeroGradient;
    }
    Bottom
    {
        type            zeroGradient;
    }
    Out
    {
        type            fixedValue;
        value           uniform 0;
    }
    circle
    {
        type            zeroGradient;
    }
}


// ************************************************************************* //
