/*--------------------------------*- C++ -*----------------------------------*\
| =========                 |                                                 |
| \\      /  F ield         | OpenFOAM: The Open Source CFD Toolbox           |
|  \\    /   O peration     | Version:  2412                                  |
|   \\  /    A nd           | Website:  www.openfoam.com                      |
|    \\/     M anipulation  |                                                 |
\*---------------------------------------------------------------------------*/
FoamFile
{
    version     2.0;
    format      ascii;
    arch        "LSB;label=32;scalar=64";
    class       volScalarField;
    location    "41";
    object      p;
}
// * * * * * * * * * * * * * * * * * * * * * * * * * * * * * * * * * * * * * //

dimensions      [0 2 -2 0 0 0 0];

internalField   nonuniform List<scalar> 
808
(
0.141999
0.0331612
-0.0196833
0.141884
-0.166806
0.0372806
0.0276701
0.0367981
-0.0715766
0.0103337
0.0370521
-0.0863394
0.0331619
0.0307604
-0.400721
0.0339887
-0.435283
0.0318832
0.00854888
0.0319771
-0.00191569
0.36772
0.0651359
0.0296626
0.443226
-0.154881
-0.0152419
0.00940135
0.0297626
0.0189092
0.0251507
0.04319
0.0259181
0.0187549
-0.041431
0.634211
0.0268149
0.0228352
0.0393143
0.0204361
-0.0151347
-0.0164525
0.039384
0.0348901
-0.100491
0.0809052
0.0250531
0.0498208
0.0331936
-0.106497
0.0279024
0.0486766
0.0441188
0.0150228
-0.123768
0.0309566
0.014907
0.027486
0.0151149
0.0277067
-0.290864
0.04169
0.0378313
-0.121199
0.0331164
0.0483107
-0.170449
0.0245171
0.0181046
-0.217822
0.0379068
-0.246559
0.0407938
0.0338952
0.21897
0.0149025
0.0114348
-0.127987
0.026189
0.291584
-0.108853
0.026054
0.0397689
0.294774
0.0144476
-0.00590142
-0.288822
-0.151366
0.0502306
-0.225499
0.063784
-0.0553638
0.240919
0.14766
0.0406462
-0.149823
0.0202531
-0.0794273
-0.0624567
-0.136562
0.0290599
0.0220181
0.0631735
-0.0022662
-0.076677
0.0542652
-0.109439
0.010933
0.0300015
0.0689162
-0.0561281
0.316218
0.036313
0.0631167
0.026464
0.458564
0.0351748
-0.19857
0.026581
0.0807511
-0.217981
0.0426079
0.0349004
0.08271
0.100753
-0.0919775
0.134636
0.0602003
0.0625657
0.0645805
-0.14776
0.032483
-0.015253
0.105145
0.0288016
0.0307401
0.00492493
0.0031928
0.0395663
0.0317392
-0.404615
0.0729616
-0.0360714
0.036199
-0.065332
0.0861876
0.119694
0.179079
0.0876605
0.0259632
0.0347987
0.325996
0.0531466
0.528313
-0.370204
-0.123342
0.031728
-0.180996
-0.0112953
-0.129745
-0.258457
-0.388371
-0.184195
0.0409737
0.0604861
0.0252603
0.044514
-0.180037
0.0359462
0.0331749
0.0632597
0.145389
0.0513255
0.157625
0.0277088
0.0944447
0.0656219
-0.0950581
0.0387801
-0.27424
0.0340564
-0.191004
0.0392629
0.285224
-0.395582
0.11107
0.0283544
-0.103301
0.0300805
-0.0560629
-0.38976
-0.0376528
0.0254779
0.109071
0.0391398
-0.404262
0.0258839
0.045243
0.0113404
0.0675389
0.0906227
0.0372057
0.0285512
-0.247683
0.369237
-0.360472
-0.265055
0.0178866
-0.0133615
0.0362704
0.00135025
-0.324226
-0.14617
0.025444
-0.0480004
0.0339638
-0.250612
-0.0882532
-0.00334656
0.0476149
-0.0186343
-0.140107
0.0383086
0.0383831
0.00696556
0.029494
0.118216
-0.173027
0.0869017
0.0260608
0.10879
0.0316862
0.0361352
0.0204768
-0.0830354
-0.00358142
0.0161462
0.000408913
-0.00978291
0.016412
-0.00450196
-0.0124727
0.0114657
0.0121066
-0.00603111
0.0152665
-0.016676
-0.0120337
0.0165614
0.0548006
-0.255501
-0.000684686
0.00597548
-0.103067
0.018305
0.0289556
0.0401525
0.0057194
0.0347029
0.111864
0.0914503
-0.00600966
0.000369813
0.0558438
0.0133943
0.0219498
0.0392218
0.0735365
0.0524628
-0.0366194
-0.00762251
-0.325212
0.25914
0.00154493
0.0521696
0.0268196
-0.0042904
0.0133255
-0.139106
0.305749
0.0509455
-0.0237037
0.0224916
0.109556
-0.0161341
0.0207195
-0.0143776
0.0452531
0.00856832
0.00423509
0.0388259
0.0321762
0.0511667
0.0270231
0.0279944
0.0351021
-0.0548083
0.0466815
0.0726282
0.0392411
0.048927
0.037886
0.0319953
0.00590303
-0.420523
-0.0959865
-0.0565203
0.00459287
-0.112967
-0.290729
0.0473893
0.0352262
-0.269103
0.152664
0.180899
0.0323987
0.0294272
0.0560746
0.00823972
-0.158237
0.0395638
0.00959031
0.0282456
-0.0186621
-0.0169437
0.0391237
0.0385228
0.0280828
0.00633285
-0.311559
-0.0555667
0.0271683
0.00522272
0.0534871
0.0216233
0.218279
0.00740563
-0.102747
0.555639
-0.0147182
0.00632938
0.0349346
0.026643
-0.0723581
0.066537
0.0370603
0.0449695
0.0646073
-0.00827764
-0.331191
0.0539612
0.094776
-0.0421055
-0.324824
-0.257598
-0.196624
-0.250541
0.00486988
0.0427382
0.03695
0.037168
0.0150448
0.0153972
0.0506244
0.0134935
-0.416854
-0.0099534
0.0606728
0.0127403
-0.299201
-0.0721238
-0.0141171
0.136546
-0.236117
-0.00263246
-0.0287834
0.0216199
-0.113411
-0.294276
0.0498159
-0.397904
0.0360325
-0.0889177
0.0106406
0.0280634
0.0329322
0.113211
-0.264259
0.0271554
0.0305595
0.0161017
0.0125565
0.0186701
0.0555109
0.0317338
0.015315
0.0560073
0.0711701
0.0372838
0.0201447
-0.216874
-0.0520936
0.0338867
0.0442518
-0.113127
0.0210706
0.44642
-0.258743
-0.00717339
-0.261683
0.0412953
0.0370487
0.0330667
-0.0439824
0.0254949
0.0152112
-0.0358797
0.0296669
0.000458474
-0.00464673
-0.00888806
-0.00893718
0.021452
0.141647
-0.0364944
0.0186563
0.0212239
-0.00863179
-0.0584672
0.0352126
-0.298337
0.0690485
0.0750228
-0.0219524
-0.235588
-0.270482
0.0246493
-0.0312585
-0.0536208
0.0418442
0.0130264
-0.149417
0.171336
-0.238499
-0.369169
-0.337196
-0.14023
-0.0892527
-0.211184
0.361151
0.0267814
-0.303312
0.02755
-0.0344955
0.606883
0.0149479
0.0471929
0.0150398
0.104101
0.0174597
-0.249611
-0.427284
0.0812448
0.0898406
0.0210642
-0.193524
-0.210664
-0.30049
0.0266842
-0.00592473
0.0869442
0.00859104
0.0300447
0.0737915
0.104793
0.0485509
-0.12265
-0.389971
0.031425
-0.0854045
0.0430842
0.000736892
0.103713
-0.0552555
-0.0337811
-0.382623
0.467432
-0.169967
-0.311349
-0.00979586
-0.0605553
-0.340817
-0.341576
0.145629
-0.261221
-0.223644
0.873199
0.0282034
-0.285975
0.027762
-0.145511
0.0156271
-0.367309
-0.394479
-0.219214
0.0156702
-0.244177
-0.287755
-0.00531618
-0.00190866
0.0628222
-0.211087
0.0207716
-0.414919
-0.412041
-0.478677
-0.285885
-0.0828544
0.0307161
0.0995837
0.152433
-0.0239613
-0.29071
0.325764
0.0515123
0.0370822
-0.359184
-0.412893
-0.238926
0.0232625
-0.276135
0.118834
-0.0314222
-0.00549199
-0.186493
-0.154792
0.0154924
-0.265838
-0.412774
0.0128219
0.0154996
0.0154981
0.00227662
0.0241441
-0.301856
-0.26873
-0.0485581
0.0783362
0.0477004
-0.258086
-0.382138
-0.14653
-0.33279
0.0222411
0.0887282
0.0193455
-0.144966
-0.38478
0.0830059
0.0534777
-0.230079
0.0283862
0.0266993
-0.41896
0.0154019
-0.181414
0.0156355
-0.410843
-0.0594404
-0.000651523
-0.457285
-0.552582
0.00881176
-0.384152
-0.37696
0.0162255
-0.141236
-0.357855
0.00544961
-0.274708
0.0474591
0.0497949
0.0930861
-0.298475
0.113183
-0.0815308
-0.539574
-0.0345136
-0.333061
0.0320001
-0.230851
-0.605204
0.134628
0.244443
0.449971
7.54714e-05
0.00968337
-0.00105401
-0.267665
0.641591
0.0299365
-0.28049
0.047865
0.00322754
0.114789
0.465088
-0.460726
-0.0157234
-0.0346038
0.0504661
0.0219352
-0.549348
-0.30724
-0.286752
-0.443375
-0.200552
0.0223264
-0.275124
0.101508
-0.338981
-0.391849
0.471819
0.563664
-0.475079
0.156043
-0.347071
0.00740377
-0.172638
0.36234
-0.112287
-0.256183
-0.0863311
-0.601357
-0.0304591
-0.256321
-0.0710456
-0.394905
-0.36288
0.00260729
0.00999724
-0.255708
0.490066
0.66558
-0.21168
-0.391829
-0.25179
-0.0420933
-0.387501
-0.371683
-0.227857
-0.249059
0.729908
-0.422084
0.772755
-0.332851
0.355504
-0.232187
0.00423355
0.145913
-0.595083
0.28158
-0.358268
-0.389709
-0.417588
0.864459
-0.330923
0.237435
0.183447
0.669298
0.154531
-0.517848
-0.399677
-0.124555
0.0154357
0.0345793
0.566404
0.027214
-0.0315075
-0.371976
0.0602771
-0.0669659
-0.231829
0.0193938
-0.492036
-0.0855795
-0.226643
-0.293489
0.0149324
0.132921
0.0154264
0.061315
0.14172
-0.418021
-0.436667
-0.0464069
0.00062926
-0.552228
-0.604971
0.12681
0.171438
0.116313
0.645429
-0.0259641
-0.245132
-0.458926
-0.378325
-0.00852602
0.0408006
0.753684
-0.539345
0.417481
0.00951941
-0.523043
0.134879
-0.137108
0.419256
-0.198133
0.0205531
-0.268119
-0.0148097
0.246665
0.834099
0.355136
0.74365
-0.246669
-0.387569
-0.33948
0.127139
0.253159
0.0558294
0.352298
0.195974
0.504936
0.243292
-0.0281704
-0.12601
0.0665538
-0.40854
0.885824
0.427246
0.619736
0.51336
-0.335877
-0.243101
-0.36166
-0.288427
0.0447202
-0.326599
0.155149
0.580171
-0.234718
0.0346852
-0.27759
0.171196
-0.40625
-0.45705
-0.106972
-0.378509
-0.428039
-0.31117
-0.272689
-0.0699339
-0.340531
-0.0698342
-0.125813
0.123071
0.690041
-0.281344
-0.244009
0.812622
-0.244921
0.322753
-0.296515
0.438306
0.119229
-0.182525
-0.485005
0.40771
-0.205913
-0.392916
0.232058
-0.343063
-0.00128062
-0.38011
-0.179835
0.0275932
0.593304
0.787923
-0.37875
0.256491
-0.29327
0.821908
0.0114608
-0.385461
-0.00579488
0.782525
0.192569
-0.394372
-0.373182
0.484296
-0.267386
-0.000487115
0.313826
0.241504
0.322066
-0.314622
-0.423143
0.694071
)
;

boundaryField
{
    FrontBack
    {
        type            empty;
    }
    Top
    {
        type            zeroGradient;
    }
    In
    {
        type            zeroGradient;
    }
    Bottom
    {
        type            zeroGradient;
    }
    Out
    {
        type            fixedValue;
        value           uniform 0;
    }
    circle
    {
        type            zeroGradient;
    }
}


// ************************************************************************* //
