/*--------------------------------*- C++ -*----------------------------------*\
| =========                 |                                                 |
| \\      /  F ield         | OpenFOAM: The Open Source CFD Toolbox           |
|  \\    /   O peration     | Version:  2412                                  |
|   \\  /    A nd           | Website:  www.openfoam.com                      |
|    \\/     M anipulation  |                                                 |
\*---------------------------------------------------------------------------*/
FoamFile
{
    version     2.0;
    format      ascii;
    arch        "LSB;label=32;scalar=64";
    class       surfaceScalarField;
    location    "41";
    object      phi;
}
// * * * * * * * * * * * * * * * * * * * * * * * * * * * * * * * * * * * * * //

dimensions      [0 3 -1 0 0 0 0];

oriented        oriented;

internalField   nonuniform List<scalar> 
1171
(
-0.945483
0.945483
0.773426
-1.07516
0.301739
-0.393125
-0.763995
1.15712
0.0545172
-0.0657076
-0.271585
0.337292
-0.773426
0.0809442
0.692482
0.926275
-0.192033
-0.734242
0.84328
-1.01833
0.175047
-0.349502
-0.0372577
0.38676
-0.000493043
0.599558
-0.599065
-0.512307
1.00045
-0.488142
-0.41521
1.00499
-0.161711
0.340476
0.0597435
-0.40022
1.01723
-0.0122398
0.380686
-0.04021
1.04399
-0.0267573
0.670009
-1.06313
-0.788899
0.610993
0.177905
0.409269
-0.921576
0.564593
-0.917849
0.353255
-1.07761
0.664214
0.413392
-0.639544
0.639051
0.0399847
-0.261954
0.22197
-0.0135811
-0.62383
0.637411
0.461128
-0.498386
-0.865034
0.908643
-0.0436084
1.02679
0.0171969
0.9275
-1.0844
0.156902
1.06537
-0.038577
-0.701888
-0.0870106
1.24491
-0.856807
-0.388105
0.200334
-0.0703888
-0.410952
0.481341
-0.275685
0.178476
0.0972089
-0.5956
-0.479565
0.976924
-0.0494241
-0.00626179
0.850617
-0.844355
0.509665
0.735247
0.529169
0.0233617
0.437767
-0.777313
-0.108239
0.885552
0.601403
0.233341
-0.834743
-0.0292405
0.625412
-0.596171
-0.505746
-0.57186
-0.395222
-0.68918
0.025204
0.242675
-0.267879
-0.932511
-0.0302716
0.962783
0.368734
0.0180257
0.875157
0.0511175
-0.599993
-0.0395506
0.045983
-0.823296
0.20488
0.9127
-1.11758
-0.40452
0.0122213
0.392298
-0.707298
-0.225214
-0.726193
0.931073
0.557749
0.4427
-0.575703
0.988532
-0.81822
-0.170312
0.16939
-0.254743
0.0853532
-0.451948
-0.0464379
-0.334635
0.892384
-0.0185118
0.437297
-0.418786
-0.489466
1.09087
0.704475
-0.812714
0.379923
-0.0719708
-0.307952
0.771717
-0.771717
-0.977608
0.0405013
-0.312086
-0.688517
0.682255
-0.033445
-0.141464
0.174909
0.882155
-0.0315379
1.04621
-0.812873
0.217247
-0.314025
0.0967777
1.01139
-0.136232
-0.680098
-0.0452312
0.725329
0.151106
-0.237552
0.0864455
0.810984
-1.00302
-0.450282
0.314786
0.135496
0.627365
-0.640946
0.88992
-0.402793
-0.487128
0.494698
-0.695798
0.0392298
0.656568
0.176646
0.666666
0.0478005
-0.714466
0.134016
-0.0935144
-0.521892
0.117372
0.0347369
-0.901017
0.86628
-0.564087
-0.760965
0.0590769
0.494104
-0.0563372
0.272972
-0.832235
0.559263
0.424003
0.575997
0.597026
-0.551043
-0.361411
-0.0349321
0.396344
0.553748
0.217969
-0.656968
0.627728
0.0831521
0.891928
0.00247267
-0.682571
-0.765158
0.799895
0.621435
0.115173
0.356675
-0.471848
-0.159082
0.489984
0.135427
0.745447
-0.70594
-0.0395071
0.647235
0.341297
-0.426744
0.713765
-0.598592
0.410297
0.154296
-0.0600628
-0.591504
-0.175862
0.767367
-0.120117
-0.6516
-0.613263
0.367722
0.245541
0.656721
-0.654248
0.303847
1.03108
0.0151351
-0.765158
0.0456968
0.123693
0.704475
0.778851
-0.778851
0.84194
-0.827774
-0.0141664
-0.456344
0.880347
-0.193315
-0.328577
0.760891
-0.667969
-0.0929219
-0.803089
0.211585
0.109073
-0.709066
0.812714
-0.971796
-0.163586
0.154162
0.00942491
0.120516
-0.98044
0.859924
0.544648
-0.0154792
-0.293977
0.598503
-0.304526
-0.650439
0.770955
-0.161499
0.795532
-0.655391
-0.140141
1.13787
-0.57223
-0.565643
0.718788
-0.0715772
-0.0348429
0.0409328
-0.00608991
-0.800516
-0.858409
0.0944148
-0.688517
0.573709
-0.561488
-0.108542
0.686304
-0.577762
0.779325
0.166158
0.493699
0.506301
-0.0293688
-0.591674
0.621043
0.666007
0.0794403
-0.718788
0.799895
0.176885
-0.438839
-0.000909954
-0.0248241
0.025734
0.670711
-0.449902
-0.220809
0.692482
0.0412399
-0.0628775
0.531244
0.139467
0.00148325
0.00337507
-0.00485832
-0.00192721
-0.0329156
0.12606
-0.198031
-0.94035
0.050639
-0.140455
-0.037526
0.118428
0.756233
0.743762
-0.167765
0.344297
-0.452839
-0.164659
0.381906
0.635304
0.0571779
0.231233
-1.05901
-0.971796
0.312397
0.682255
-0.159283
0.0178191
-0.806872
0.951997
-0.145125
0.487322
-0.0950236
0.794703
0.304202
0.289467
0.0912195
-0.680535
0.680535
0.22621
0.659342
-0.00894772
0.446245
0.472393
0.0403903
-0.0413003
0.550791
-0.00614306
-0.650439
0.569282
0.191609
0.0533476
-0.0124148
-0.635304
0.158403
0.793594
-0.00355043
-0.728391
0.731941
0.755552
-0.824386
0.0688339
-0.779325
-0.0358117
0.0469656
-0.011154
0.0821512
-0.142155
-0.11265
0.254805
-0.00826063
0.00974389
0.755657
-0.759207
0.854675
0.302444
-0.521243
-0.450938
0.97218
-0.000314124
0.000314124
0.11923
0.330206
0.850223
-1.18043
-0.195127
-0.563642
0.75877
-0.0165843
0.191493
0.391251
-0.240145
1.10179
-0.771581
0.747259
0.967637
-0.117414
0.197936
0.770955
0.609245
0.26275
0.645893
-0.6516
0.319465
-0.0167617
-0.0403763
0.057138
0.784659
0.098867
-0.883526
-0.582487
0.54391
0.543656
-0.582487
-0.609245
0.54391
-0.0296033
1.05664
-0.201962
-0.553748
0.479473
0.0742752
0.507249
0.6682
-1.17545
0.385625
0.716163
0.699919
0.431753
-1.13167
0.265278
0.702359
0.479473
-0.519699
-0.581586
-0.686171
-0.310097
0.0309128
-1.73726e-05
1.73725e-05
0.556287
0.62217
-0.932268
0.738405
-0.381731
-1.01228
0.440047
-0.674079
0.448865
0.0700724
-0.920436
0.850363
0.449785
0.0469617
0.737697
-1.24744
-0.932704
-0.000201224
0.932906
0.408909
-0.0969727
-0.311936
0.783836
-0.83326
1.10487
-0.959866
-0.145
-0.0700202
-0.63592
-0.0690325
0.763546
-0.694513
-0.940099
0.870079
-0.490378
0.692928
-0.202551
-0.983744
0.323956
0.659788
0.00366601
-0.00398014
0.427268
0.14257
-1.05982
0.917246
-0.706401
0.677032
0.962518
0.134335
-1.09685
0.029814
0.0131789
0.383165
-0.356352
0.0423276
0.963059
-0.892986
-0.6813
-0.910661
0.274741
-0.10169
-1.05167
0.0917999
0.630518
-0.286221
0.181233
0.227676
-0.490883
0.814839
0.487128
-0.873474
-0.805764
0.250873
-0.106043
0.680782
-0.574739
-0.201303
-0.787343
0.580309
0.175243
-0.189899
0.927597
0.869878
1.04262
-0.950819
0.0459096
-0.0459096
-0.109702
-0.458546
0.361573
0.335634
-0.0232366
0.330707
0.726294
-0.0187673
0.0105066
0.658159
0.341841
0.797901
-0.5956
-0.755696
-0.475872
-0.500302
0.500302
-0.203636
-0.10845
0.699067
-0.996875
0.297809
-0.509533
-0.574763
0.367268
-1.05645
-1.01792
0.87292
-0.523213
0.797954
0.700471
0.173186
-0.873657
-0.678423
-0.159542
0.814235
-0.654693
0.291626
-0.0197574
0.00500638
0.014751
-0.0969088
-0.361637
1.06633
0.728023
-0.417603
-0.31042
0.416086
0.730882
-0.504672
0.00645295
-0.282138
0.230625
0.721245
-0.95187
-0.355977
-0.0786735
0.123807
-0.934086
0.0505603
-0.823689
0.00164001
0.785575
-0.787215
-0.857433
0.0337439
0.669706
-0.74838
0.233509
-0.375664
-0.448564
-0.229858
0.374601
0.749696
-0.0359313
0.0120674
-0.0120674
0.0033577
-0.00104288
-0.0157188
-0.0201748
0.00140752
-0.734786
0.318512
0.800962
-0.836693
0.0357314
-0.733076
0.734716
0.733153
-0.0634465
-0.732954
-0.124479
-1.1957
0.0202974
0.0256122
-0.50416
-0.801987
-0.863168
0.475063
-0.255003
0.24169
0.013313
-0.606561
0.1024
0.548593
0.712676
-0.0305403
-0.00698572
1.16394
0.476022
0.239243
-0.715265
-0.509503
-0.0970574
-0.0137168
-0.00604055
0.682109
-0.857971
0.00726937
-0.00726937
-0.698505
0.681216
0.0172884
-0.32827
-0.0793316
-0.701278
0.0376625
0.58338
-0.0523959
-0.86082
-0.0209386
0.204217
-0.183278
0.832237
-0.796506
0.332782
0.267098
-0.599879
-0.119878
-0.707222
-0.0799932
-0.222483
0.0167239
0.46663
-0.513068
0.176755
0.712611
-0.889367
0.494698
-0.11214
-0.142862
0.178627
-0.161903
0.598944
-0.0899517
-0.508993
-0.280588
0.299735
-0.0191468
0.593876
0.144529
0.0259305
-0.3065
0.163122
0.143378
-0.0612279
0.106925
-0.200599
-0.117399
0.280187
-0.162788
0.797819
-0.436023
0.107753
0.55204
0.214017
-0.63162
0.429253
-0.429253
-0.207398
-0.408058
-0.218438
-0.408058
-0.62179
-0.848142
0.180173
-0.07445
0.727633
0.0374563
0.179185
0.570511
0.108875
0.117176
0.00910388
-0.12628
0.129767
0.794459
-1.03244
0.581501
0.0595456
0.0583984
-0.117944
-0.718139
-0.172534
-0.55964
0.798883
-0.555145
0.0629074
-0.22481
-0.331189
-0.0839751
0.0839751
0.0399618
0.00700384
0.137473
0.348614
-0.773062
0.213422
0.0191693
0.468889
0.531111
0.702963
0.0382668
-0.00485173
-0.0334151
-0.288652
-0.572168
-0.542601
0.108983
-0.114815
0.00583141
-0.079372
-0.418528
0.0301132
0.553267
-0.559425
-0.158714
-0.191836
0.0937379
0.0728535
-0.350439
-0.194532
-0.182177
-0.0158543
-0.500022
0.42462
0.0754025
-0.0893386
0.291261
-0.863121
-0.536561
0.683034
-0.831039
0.711162
0.459424
-0.0414507
0.073295
-0.0318444
-0.06179
-0.636178
0.0126375
0.623541
-0.892849
0.621514
-0.731216
-0.159519
0.00769035
-0.00769035
-0.300047
0.447392
-0.0642271
0.0350566
0.0032102
0.585503
0.598928
-0.638435
0.0102325
0.0122957
-0.000228271
0.00270561
-0.00270561
-0.5328
0.677329
0.0109955
-0.0109955
-0.768217
-0.0100412
0.0137072
-0.534098
0.747519
0.589072
-0.571784
0.0682108
-0.0682108
-0.0164354
-0.0248649
0.00931613
-0.949318
0.383675
-0.519487
-0.00398014
0.580252
0.0239398
-0.604192
-0.691955
0.13253
-0.322573
-0.0132369
0.33581
-0.0241075
-0.00643277
-0.598586
-0.0375923
0.0256122
0.00585665
0.00141272
-0.00265041
0.00265041
-0.491846
0.329058
-0.440502
0.136706
0.661195
-0.144754
-0.00706103
0.00706103
0.508118
-0.122763
0.00800447
0.0179218
-0.00127452
0.504909
-0.627671
-0.621244
0.728997
-0.0720958
0.321873
0.765061
0.0033577
-0.125096
0.112681
-0.654116
0.555017
-0.3265
-0.111703
-0.0182771
-0.0252674
-0.0250265
0.46625
-0.0917451
-0.417248
0.679624
-0.00268824
0.0101112
-0.0101112
-0.176368
-0.143232
-0.575592
0.613048
-0.154101
0.506758
-0.233075
0.903084
0.828203
0.00585665
-0.823752
0.765325
0.0522014
-0.146937
0.0947352
0.639658
0.092244
-0.0137765
0.0761096
-0.0623331
0.0111261
-0.0111261
-0.782162
0.0223012
-0.0439591
0.0618809
-0.0898129
0.0898129
0.0122957
-0.00370333
0.717939
0.0756546
-0.322863
-0.0956655
-0.517457
-0.139634
-0.0705596
0.0705596
-0.0498505
0.0796798
-0.0796798
0.0299684
-0.0299684
-0.349246
-0.0774981
0.245182
0.0696037
0.0502201
-0.738137
-0.0624371
0.164624
0.0122609
-0.266513
0.0790889
-0.0790889
-0.462252
-0.0508159
0.237531
-0.0155615
0.00320624
-0.61585
0.645453
0.0436383
-0.0934888
0.00218907
-0.0270539
-0.011469
-0.154264
0.165733
-0.15253
-0.223134
-0.0849689
0.0849689
0.0577142
-0.0577142
-0.0324385
-0.0956602
0.128099
0.053528
-0.183811
-0.0249835
0.0247553
-0.342999
0.672057
-0.0262609
0.40452
0.00318091
-0.00803923
-0.0552079
0.0552079
-0.718578
0.327007
-0.129072
-0.214395
-0.023157
-0.0217749
0.0249812
0.212136
0.0426683
0.00127869
-0.00255321
0.0795829
0.0294004
0.0534022
0.111222
0.00428928
-0.011275
0.00284184
0.00569681
0.00545046
0.0152223
-0.0206727
0.00218446
0.000492663
0.0301157
-0.0301157
0.0543346
-0.0393317
0.0393317
-0.193231
-0.00234242
0.0193492
-0.0773909
0.0188424
0.0745635
-0.0745635
0.287539
-0.252296
0.0997661
-0.0694833
-0.182812
-0.0190482
0.0190482
0.403044
0.253524
-0.513905
-0.0814272
-0.0333876
0.53975
0.055717
-0.0824274
-0.453827
0.0735176
-0.158243
0.175503
-0.0172605
-0.0451631
0.0451631
0.838579
-0.594771
-0.0175736
0.0197581
-0.00583779
-0.280985
-0.000590858
0.00484397
-0.044618
-0.616375
0.568273
-0.662984
0.0144093
0.2271
0.0153517
0.0252395
-0.164081
-0.339322
0.261931
-0.060037
0.0275985
0.166958
0.132777
0.191072
0.273397
-0.258045
0.00686318
-0.114027
-0.227631
0.0711045
-0.0177023
0.169564
-0.144325
-0.0690929
0.148676
-0.395887
0.131816
-0.112974
0.0609314
-0.478179
0.180347
0.171334
-0.240427
0.00177135
-0.174002
0.173411
0.00452544
0.14415
-0.0283362
0.054506
0.453612
0.0110675
0.0425955
-0.00913237
0.0366136
-0.244892
-0.203826
0.588635
0.175288
0.062243
0.0855836
-0.0617543
0.0621444
0.0325908
-0.0300436
0.1716
-0.15719
0.0175689
0.00718162
-0.103979
-0.0298513
0.00629393
0.254737
0.0055976
0.0350905
-0.318158
-0.0087752
0.213662
0.148467
0.178541
0.0565905
0.101838
0.0448624
0.540641
-0.0178309
0.0970489
0.0477459
0.0617238
-0.10947
-0.260382
-0.205057
0.0222448
-0.223442
0.295913
)
;

boundaryField
{
    FrontBack
    {
        type            empty;
    }
    Top
    {
        type            calculated;
        value           uniform 0;
    }
    In
    {
        type            calculated;
        value           uniform -1;
    }
    Bottom
    {
        type            calculated;
        value           uniform 0;
    }
    Out
    {
        type            calculated;
        value           nonuniform List<scalar> 10(1.08554 1.02695 1.26776 0.981441 1.09995 1.01246 1.17846 1.0843 0.636651 0.626496);
    }
    circle
    {
        type            calculated;
        value           uniform 0;
    }
}


// ************************************************************************* //
