/*--------------------------------*- C++ -*----------------------------------*\
| =========                 |                                                 |
| \\      /  F ield         | OpenFOAM: The Open Source CFD Toolbox           |
|  \\    /   O peration     | Version:  2412                                  |
|   \\  /    A nd           | Website:  www.openfoam.com                      |
|    \\/     M anipulation  |                                                 |
\*---------------------------------------------------------------------------*/
FoamFile
{
    version     2.0;
    format      ascii;
    arch        "LSB;label=32;scalar=64";
    class       volVectorField;
    location    "41";
    object      U;
}
// * * * * * * * * * * * * * * * * * * * * * * * * * * * * * * * * * * * * * //

dimensions      [0 1 -1 0 0 0 0];

internalField   nonuniform List<vector> 
808
(
(0.897862 -0.00855396 0)
(1.00962 -0.034128 0)
(1.27575 0.17642 0)
(1.06647 0.00952855 -3.00806e-21)
(1.45072 -0.284788 0)
(0.957547 -0.0291977 0)
(1.15089 -0.0286709 -5.96865e-21)
(1.09912 -0.00465853 0)
(1.32609 -0.2197 1.53073e-20)
(1.22449 -0.096545 3.61275e-21)
(1.2439 -0.191284 2.74217e-21)
(1.3535 -0.251555 0)
(0.985335 -0.00887934 0)
(0.740056 -0.0166042 0)
(1.18817 -0.0900606 2.56495e-20)
(1.09675 -0.00289141 0)
(1.0732 -0.0644796 -9.08889e-21)
(1.01328 -0.0197058 -1.57898e-22)
(1.34721 0.127833 0)
(1.12526 0.00171884 0)
(1.34386 -0.166919 -3.82738e-21)
(0.927924 0.134342 1.0557e-19)
(1.07041 0.00143188 -1.19941e-20)
(1.17034 -0.0404562 0)
(0.969862 0.202752 0)
(1.25547 -0.0776417 -3.24575e-20)
(1.25788 -0.177661 -2.44208e-21)
(0.996003 -0.0229778 -5.51939e-21)
(1.12134 -0.033246 0)
(1.05892 0.0386861 -1.27676e-22)
(1.02744 -0.0531109 7.0456e-24)
(1.12416 -0.011382 0)
(1.03176 0.0468381 0)
(1.11107 -0.0317917 4.59893e-21)
(1.28318 -0.0905705 3.2777e-21)
(0.743756 -0.0908456 1.14053e-19)
(0.871498 -0.0231864 -1.11923e-20)
(1.03748 0.0426677 7.27041e-22)
(1.1769 0.0237408 -5.72852e-21)
(1.07842 0.0286304 0)
(1.25761 -0.0771757 -5.05789e-21)
(1.26495 -0.133899 0)
(0.9947 -0.00750496 -7.87648e-21)
(1.13403 -0.0498857 9.66162e-21)
(1.09697 -0.217072 0)
(1.00971 0.0147913 -1.74271e-20)
(1.01291 0.0363087 2.05248e-21)
(1.23467 -0.244474 -1.38004e-20)
(1.15561 0.0482143 -1.15476e-20)
(1.3787 -0.187516 -2.21115e-20)
(1.14723 -0.0345448 9.53928e-21)
(1.14463 -0.0748879 0)
(1.11095 -0.0112565 7.08828e-21)
(1.15915 -0.0845741 0)
(1.33915 0.18696 7.39637e-21)
(1.04879 0.0480329 -4.2357e-21)
(1.20811 -0.112529 0)
(1.13579 -0.198071 1.20577e-21)
(1.22722 -0.0985434 -3.87806e-21)
(1.132 0.0490499 -1.31367e-21)
(-0.188213 -0.54849 0)
(1.20463 -0.205327 2.00665e-21)
(1.07195 -0.106466 0)
(1.41297 -0.118461 -1.80489e-20)
(1.11858 -0.081364 -1.09118e-20)
(1.03248 -0.0287457 -8.48656e-21)
(1.28484 -0.141872 1.71126e-20)
(0.647053 0.00731762 0)
(1.1824 -0.0766535 0)
(1.41303 -0.342714 0)
(0.897749 0.019363 -3.59128e-22)
(1.21514 -0.140101 -3.20655e-20)
(1.00177 0.0266714 0)
(1.05225 -0.047293 -5.16574e-21)
(1.10536 -0.320365 -6.46576e-20)
(1.1806 -0.0382886 -7.8814e-21)
(1.14754 0.0340596 -9.36361e-23)
(1.36109 0.495922 2.72512e-20)
(1.11024 -0.0281132 0)
(1.0236 0.296463 -1.69906e-19)
(1.2996 -0.0376909 1.55089e-20)
(0.759911 0.0175373 0)
(0.859637 0.0479469 -1.05668e-20)
(0.966811 -0.105743 4.70981e-21)
(1.14907 -0.0592609 4.76751e-21)
(1.19539 0.0151399 7.05294e-22)
(1.261 -0.229411 0)
(1.37546 0.264632 0)
(1.08774 -0.000904979 -2.34045e-20)
(1.4555 -0.0545281 3.07419e-20)
(1.08484 -0.0190125 1.9906e-20)
(1.29816 -0.1323 -8.30993e-22)
(0.967734 0.0277946 1.55451e-20)
(1.00421 -0.0274836 0)
(1.1025 0.00498172 1.50159e-21)
(1.22601 -0.12519 -4.48591e-20)
(0.772209 0.0229358 -2.5597e-21)
(1.25038 -0.0635958 0)
(1.31497 -0.100538 0)
(1.3811 -0.120043 -2.79371e-20)
(1.11271 -0.0347882 -5.41675e-21)
(1.12984 0.0111205 -2.12377e-22)
(0.946212 0.0280057 1.65317e-20)
(1.18938 0.0182031 1.10089e-22)
(1.34715 0.0220877 -1.84836e-20)
(0.997091 0.000729567 1.18196e-20)
(1.33955 -0.113969 0)
(0.768917 0.0116154 0)
(1.08309 0.0398493 9.38994e-21)
(1.1834 -0.212793 -1.18241e-20)
(1.28954 0.00561865 7.05e-21)
(1.05087 0.0503922 -1.16744e-19)
(1.14661 0.0457366 -3.76955e-21)
(1.06856 0.0506759 9.0643e-21)
(0.799473 0.0228892 0)
(0.917346 -0.0372942 7.76885e-20)
(1.13669 0.0338152 -1.07992e-20)
(1.40288 -0.255095 -1.18297e-20)
(1.12592 -0.0551609 -7.71759e-21)
(0.93114 0.0127137 2.55361e-21)
(-0.139343 -0.371285 0)
(0.846914 -0.0180303 1.33295e-21)
(0.785494 0.0269275 0)
(1.05906 0.00038384 -1.29233e-22)
(1.01577 0.0280066 0)
(1.33786 0.301809 1.27339e-20)
(1.03068 -0.0534982 -3.97168e-20)
(1.13735 0.110071 4.64305e-21)
(1.14341 -0.0595761 0)
(1.08835 -0.0262581 0)
(0.486561 -0.0157155 0)
(1.11632 -0.0384007 -4.23183e-21)
(1.25265 -0.0530836 2.43434e-21)
(1.07419 0.11333 -2.8737e-20)
(0.842618 -0.00706008 0)
(1.09529 0.0311839 -2.64193e-21)
(0.995369 -0.214135 2.50355e-22)
(1.14149 -0.108457 -1.66357e-21)
(0.982878 0.0336558 6.44701e-21)
(1.12894 0.0100297 1.78046e-22)
(0.0804392 0.166495 0)
(1.09288 -0.0224676 -2.20754e-20)
(1.19426 0.071895 -2.36988e-21)
(0.705963 0.022875 -5.78664e-21)
(1.27621 0.144165 5.67385e-22)
(0.813488 -0.204896 4.32878e-21)
(1.0443 0.0168557 2.13556e-20)
(0.990103 0.0291956 0)
(1.05961 -0.030379 1.80387e-20)
(0.83663 -0.0810977 0)
(0.932019 0.0250364 1.21767e-20)
(0.974815 0.29954 1.36405e-19)
(0.970375 0.0319521 0)
(0.821168 0.124783 0)
(-0.0677652 0.175792 -9.45025e-20)
(1.33852 0.086056 -1.65791e-20)
(0.683482 -0.0206854 0)
(1.4547 -0.117185 0)
(1.13142 -0.11473 0)
(1.339 0.0101223 1.74998e-20)
(-0.0272049 0.0376435 0)
(-0.0362341 0.229159 4.54841e-20)
(0.922255 -0.05469 5.14789e-20)
(1.00036 0.0402263 2.12052e-21)
(0.850669 -0.00218825 0)
(1.01991 -0.0405 1.16596e-20)
(0.884132 0.0258892 0)
(0.648947 -0.0176271 -5.56579e-20)
(1.00308 0.0363199 1.91617e-20)
(1.11369 -0.0906842 3.30553e-21)
(1.09089 0.0149385 1.05243e-20)
(1.01704 0.0741258 -1.05037e-20)
(0.581013 -0.213473 -4.30964e-21)
(1.1215 -0.336244 9.48154e-22)
(0.912055 -0.0280807 0)
(1.06651 0.000924998 -1.80581e-20)
(0.870057 0.00927633 -9.87098e-21)
(1.3572 -0.173049 1.26171e-21)
(0.702672 0.0206811 0)
(1.02732 -0.136146 0)
(1.08072 -0.0635503 2.82807e-21)
(1.41815 0.183295 1.37294e-20)
(1.10895 0.0246183 8.331e-21)
(1.0373 0.0209696 2.16954e-20)
(1.00735 -0.185061 -8.75926e-20)
(0.812797 0.00385622 1.81275e-20)
(1.12224 -0.0169844 6.41918e-21)
(1.38218 -0.115821 -3.07663e-21)
(1.08601 -0.0680614 -6.03229e-21)
(1.32122 -0.0581142 2.63629e-21)
(-0.0951035 0.135539 7.01718e-20)
(1.27998 -0.0427502 0)
(0.612758 -0.0225018 0)
(1.0593 -0.0251737 -9.14817e-21)
(1.0939 0.0146926 1.2924e-20)
(0.274224 0.072349 0)
(0.871186 -0.0142035 5.09677e-22)
(1.05012 -0.0478867 -4.68965e-21)
(1.00361 0.00676526 2.14005e-21)
(1.07818 0.0263791 -6.51405e-21)
(1.00202 0.0223307 2.69382e-21)
(1.00963 -0.0272674 4.13685e-21)
(1.05285 0.0288935 0)
(0.322126 -0.0156598 0)
(1.04974 -0.0624448 0)
(1.26235 0.0670637 -3.97982e-20)
(-0.0437252 0.0607163 4.44e-20)
(1.1175 -0.00726947 -2.26659e-23)
(1.2256 0.250577 0)
(0.734723 0.0196914 -1.20468e-20)
(1.2214 -0.217298 -4.65255e-22)
(0.0011523 -0.0365301 -1.29046e-19)
(0.696872 -0.0318933 -2.65769e-20)
(0.624945 -0.0228755 0)
(1.09465 -0.21173 0)
(0.941611 0.0308616 1.24876e-20)
(0.993021 -0.098483 4.70889e-21)
(1.31358 0.391212 9.23801e-21)
(1.14287 -0.209788 7.27554e-23)
(1.04917 -0.115203 -5.29318e-21)
(1.04871 -0.258024 0)
(1.39829 0.415288 -5.87476e-20)
(0.660894 -0.00314805 0)
(0.812519 -0.0228921 -5.45977e-21)
(1.06638 -0.0303804 4.42941e-23)
(0.596011 0.0146075 0)
(1.10072 -0.00637722 0)
(0.0503831 -0.107695 -3.06545e-20)
(0.972526 -0.107262 -1.51979e-20)
(0.741359 -0.0236922 3.72456e-21)
(0.990784 -0.00466892 0)
(0.57981 -0.0167333 0)
(0.780633 -0.0168471 -5.70939e-21)
(0.541933 -0.0253803 -8.49879e-22)
(1.2779 -0.0486773 2.30762e-22)
(1.28484 0.207546 -1.96284e-21)
(0.726252 0.0155609 -2.23516e-21)
(1.11308 -0.0623311 2.46605e-22)
(1.15102 -0.250176 -6.85675e-23)
(0.5624 0.0130442 5.62875e-21)
(1.1642 -0.131952 -4.50999e-22)
(1.09431 -0.0651787 0)
(0.929762 -0.372172 0)
(0.523628 0.0166329 0)
(1.03276 -0.0181844 0)
(1.25834 0.0211804 -3.53611e-21)
(0.994256 -0.1381 0)
(1.10911 -0.0344849 0)
(1.00102 -0.175692 0)
(0.930796 -0.261802 0)
(-0.00995966 0.00683168 3.97153e-20)
(1.27795 -0.083324 1.23317e-21)
(0.907518 -0.21861 0)
(1.38529 0.0121134 1.57754e-20)
(1.21262 -0.0755606 1.59237e-21)
(1.08571 0.0539304 4.7319e-21)
(1.11986 0.115369 6.79287e-21)
(1.1714 -0.0336759 0)
(0.597837 -0.0112536 1.13929e-20)
(1.05438 0.0338593 1.0216e-20)
(1.04466 0.0644889 0)
(1.27106 -0.0974472 4.4443e-22)
(1.15275 -0.0844996 1.61555e-21)
(0.559714 0.353668 -4.85059e-21)
(1.17039 0.053646 1.65421e-21)
(1.24641 0.0371041 -2.76995e-21)
(0.878905 0.117087 0)
(1.09065 -0.098246 -2.98911e-20)
(0.961954 0.00731883 -8.88602e-21)
(0.725372 -0.247136 -9.42598e-21)
(1.01013 0.286018 0)
(-0.00815177 -0.0163376 0)
(0.97863 0.120426 -1.66236e-20)
(1.23914 -0.0302734 0)
(1.13818 -0.0174606 -1.38947e-20)
(1.09524 0.0124667 1.51857e-21)
(1.2978 -0.0874469 2.66315e-21)
(1.05619 0.019897 -1.10318e-21)
(1.32599 -0.099202 6.68037e-20)
(1.00463 -0.307231 6.5267e-20)
(1.10864 0.0340562 -1.07974e-21)
(1.0895 0.194764 0)
(0.892529 0.241007 0)
(0.908567 0.00408148 -3.69179e-20)
(1.12053 -0.114648 -3.73806e-23)
(1.2313 0.127745 0)
(0.577641 -0.40369 -1.21435e-21)
(0.443106 0.22425 0)
(0.749966 0.340562 4.40726e-21)
(0.727061 -0.286109 8.95059e-22)
(0.833338 0.0299531 -7.52249e-21)
(1.04087 0.0801943 0)
(1.18273 0.100651 -1.77135e-21)
(1.10712 0.189921 1.66374e-21)
(0.747961 0.0737236 -7.96728e-21)
(1.12181 0.132533 -6.20202e-21)
(0.959279 0.105431 0)
(1.09179 0.0553667 0)
(0.923323 0.190559 1.10016e-20)
(0.794544 0.172938 -4.452e-21)
(1.12305 -0.0430106 1.42231e-20)
(1.18528 0.0207234 -6.18761e-21)
(1.00715 0.264282 6.56102e-22)
(1.21953 -0.0195917 0)
(0.408853 -0.135077 1.1875e-20)
(1.30838 -0.00642818 -1.98791e-20)
(0.964815 -0.0361495 1.11651e-20)
(0.391529 0.438961 5.12749e-21)
(1.40055 -0.158141 1.59069e-20)
(1.02718 -0.240971 8.44042e-20)
(1.0834 0.238619 -1.12363e-20)
(1.1303 0.0281768 -1.15798e-21)
(-0.088037 0.0596626 -7.56215e-21)
(1.00121 -0.00743411 0)
(1.03631 -0.0844798 -1.73686e-20)
(0.839041 -0.0297159 1.23691e-20)
(1.1049 -0.0601856 6.13596e-21)
(0.700394 -0.124134 -9.55498e-22)
(0.516878 -0.010492 4.8425e-22)
(1.39058 -0.376768 -1.48181e-20)
(1.18829 0.041084 0)
(1.08083 0.0295071 -4.34889e-21)
(1.15522 0.0438425 -2.72495e-21)
(1.21536 0.123294 0)
(0.738299 0.284488 5.73695e-21)
(1.15644 0.00988457 4.39332e-21)
(0.697995 -0.259708 1.87526e-20)
(1.12235 -0.0196078 -1.2628e-20)
(0.90452 0.290826 -9.49967e-22)
(-0.041939 0.163917 0)
(0.718279 0.428566 2.61504e-20)
(1.20964 0.0641418 0)
(1.02348 0.290429 7.92179e-21)
(0.9408 0.302463 0)
(1.10719 -0.0152089 4.69977e-21)
(1.01382 0.0235695 0)
(1.02082 0.270857 0)
(1.38067 -0.139279 1.37609e-20)
(0.789245 -0.0671799 0)
(1.28743 -0.310665 -5.45968e-21)
(1.12065 -0.0502295 2.44176e-22)
(1.09003 0.0338209 3.27451e-21)
(1.14728 -0.0937512 7.44751e-21)
(1.24546 0.0851072 -1.03393e-20)
(1.16286 -0.150356 2.03912e-20)
(1.23739 0.0163882 0)
(1.17624 -0.00788 0)
(1.15098 -0.00298136 2.41871e-21)
(1.16662 -0.0162843 0)
(1.50692 0.161642 -3.56565e-20)
(0.753148 -0.304777 -3.80855e-21)
(1.02727 0.0102161 1.88915e-20)
(1.28855 0.0485037 -1.75265e-22)
(-0.0172972 0.100116 0)
(-0.0131082 0.0309307 0)
(0.0077894 -0.0590027 -3.12251e-20)
(-0.098924 0.0149027 0)
(0.792068 -0.320803 -6.32883e-21)
(1.16733 0.0257663 -3.89504e-21)
(1.21869 -0.0549596 -7.34286e-21)
(1.21939 0.105151 -1.42551e-22)
(1.13296 -0.00254725 0)
(0.698319 -0.0124202 -2.93607e-21)
(1.15438 -0.0417432 0)
(1.1909 -0.000494496 3.93734e-21)
(0.499045 -0.106865 0)
(0.915901 -0.22905 9.22907e-23)
(1.08571 -0.0134823 0)
(1.13146 0.0385129 0)
(0.79185 -0.07735 4.81333e-20)
(0.79117 -0.170387 8.05636e-22)
(0.707477 -0.230815 -6.98576e-22)
(1.01117 0.0184514 -1.17397e-20)
(0.102469 -0.0348323 0)
(1.24371 -0.237657 -1.12276e-21)
(1.18885 0.128714 -1.70422e-21)
(1.16946 -0.235905 -5.95866e-21)
(0.905846 -0.0798032 -1.33382e-20)
(-0.0600787 0.132102 -9.9433e-20)
(1.07389 0.0529889 0)
(-0.0361892 0.0577765 0)
(1.10746 0.112318 1.1489e-20)
(0.592886 0.194369 1.43557e-20)
(1.14683 0.0706328 -4.81534e-21)
(1.11299 -0.0320591 0)
(1.20703 -0.115845 6.21614e-21)
(0.980384 -0.0724429 -1.72192e-20)
(0.529132 -0.0341021 -7.79603e-21)
(1.1207 -0.0160283 -4.9911e-21)
(1.21225 0.00326944 -4.97746e-22)
(0.0656363 0.339336 2.70362e-21)
(1.30863 -0.0395282 -3.40962e-21)
(1.11782 0.0592019 0)
(1.0886 0.0120409 0)
(1.14978 0.0200804 -3.51915e-21)
(1.12453 0.120519 1.54029e-21)
(0.21633 -0.0106954 6.80501e-21)
(1.18366 -0.121193 -2.68202e-20)
(1.08028 0.060933 1.36748e-20)
(0.529995 -0.000389403 1.32585e-20)
(0.308852 -0.277192 -8.46695e-20)
(-0.09533 -0.2461 -2.97976e-22)
(1.18756 0.172085 -7.11409e-21)
(1.21125 -0.477845 1.98599e-21)
(1.45329 0.0845201 -1.38794e-20)
(1.15382 -0.0229497 4.17044e-21)
(0.92692 -0.213637 9.79479e-20)
(0.154297 -0.135935 0)
(1.17717 -0.122982 5.78998e-22)
(0.616639 0.224225 -3.87054e-20)
(1.09457 0.079514 -9.94114e-21)
(1.03393 -0.0271771 8.14576e-21)
(1.10511 0.0360567 0)
(0.683342 0.233361 0)
(1.16817 -0.0496551 0)
(1.13901 0.282851 -9.37819e-22)
(1.27594 -0.0138778 -1.5462e-20)
(1.13277 -0.00803744 7.40736e-21)
(0.488789 0.016919 0)
(0.642673 0.0137022 0)
(0.631966 -0.00495574 4.3033e-22)
(0.453263 -0.0150305 0)
(1.09539 0.116653 0)
(1.01836 -0.011041 3.12554e-20)
(0.340239 0.512788 0)
(0.914819 0.0195228 0)
(1.18379 -0.0481928 0)
(1.18916 0.167289 3.76664e-21)
(1.27012 0.0704129 8.40593e-21)
(0.954604 -0.0279837 8.09602e-21)
(1.27033 -0.391606 -9.21562e-20)
(0.348641 0.222525 -7.41424e-21)
(1.17627 -0.123186 9.7566e-21)
(1.25279 -0.105306 0)
(-0.157124 -0.299519 0)
(-0.348976 -0.203642 0)
(1.11959 -0.0278835 8.6217e-21)
(1.29862 -0.281599 -6.181e-21)
(1.30679 0.208411 0)
(1.11408 0.0112489 -1.1579e-20)
(0.271759 -0.282073 0)
(1.47685 -0.17423 4.93368e-20)
(0.427491 0.546379 8.9222e-20)
(0.257243 -0.0069492 0)
(1.08068 -0.270944 9.89051e-20)
(0.609798 -0.159841 0)
(0.216765 0.234395 2.01284e-20)
(1.38844 0.165309 0)
(-0.0916208 -0.184131 -4.43595e-21)
(0.984302 -0.0513726 0)
(1.17333 0.0355376 6.75465e-21)
(-0.16374 0.0662783 -7.55887e-21)
(1.10772 -0.0247322 3.49683e-21)
(1.22128 -0.257595 4.04553e-21)
(0.557503 -0.478832 -9.62946e-20)
(1.08355 -0.0962102 -2.92447e-21)
(1.18543 -0.127993 9.23864e-21)
(1.19912 0.237146 -1.03389e-20)
(1.04766 0.0819194 1.7639e-20)
(1.11479 -0.018192 1.58484e-21)
(-0.0746069 -0.462435 -5.35821e-20)
(0.211865 0.163798 -1.11745e-20)
(1.09641 -0.0220886 4.45736e-21)
(1.05982 -0.0455912 0)
(0.546548 -0.166182 -5.55746e-21)
(1.37634 -0.431087 6.38286e-20)
(0.897283 -0.055588 -4.47365e-20)
(1.51594 0.0595082 1.03355e-19)
(1.08579 -0.0679105 5.67777e-21)
(1.33877 -0.0951751 6.8843e-22)
(1.06029 -0.010893 0)
(1.18323 -0.0142301 0)
(1.19206 0.0609925 -4.96657e-21)
(1.08613 -0.0235083 -4.34532e-21)
(1.01674 0.161745 -1.81857e-20)
(1.06301 0.0276716 -1.14862e-20)
(1.43477 -0.0608809 -3.25457e-20)
(0.56856 0.0264449 0)
(1.26979 0.0334549 8.51889e-21)
(1.35856 0.147986 0)
(1.07755 0.0416948 -7.99925e-21)
(1.13284 0.00603592 0)
(1.04164 -0.00911894 1.74925e-20)
(1.21002 0.011889 1.42886e-20)
(1.13644 0.0170659 0)
(0.0576136 -0.0270501 1.37664e-19)
(0.880293 -0.191152 -7.68171e-20)
(1.24249 -0.104142 -2.00649e-20)
(-0.143913 0.111401 4.79576e-20)
(1.19579 0.0472144 1.94524e-22)
(0.81419 0.0224323 1.44183e-20)
(-0.10294 0.181712 -4.99777e-20)
(-0.0353618 0.161489 -3.4183e-20)
(1.01627 -0.028531 0)
(-0.0227938 -0.0158725 0)
(1.31973 0.0509772 0)
(0.110264 -0.0739689 0)
(1.10044 -0.0223662 0)
(0.144802 0.0418796 0)
(1.09561 0.0662749 0)
(1.30451 0.252124 0)
(1.23505 0.137554 -5.68186e-21)
(0.564354 -0.277998 -1.78315e-20)
(-0.143166 0.093809 0)
(1.09246 -0.0941654 4.65372e-20)
(1.08164 -0.182312 2.07321e-21)
(1.38841 0.0186696 0)
(-0.0327103 -0.0346022 0)
(1.13615 -0.0118616 4.33859e-22)
(1.13335 -0.0249243 2.73666e-23)
(1.19628 0.395165 0)
(0.176348 -0.0114708 4.529e-20)
(1.11642 0.0398359 9.35654e-22)
(0.233459 -0.0498511 -4.66524e-20)
(-0.062151 0.0576843 -4.23231e-20)
(-0.0313047 0.0520106 1.06993e-19)
(0.885442 0.239106 4.76369e-20)
(1.15362 -0.151893 -1.35663e-20)
(1.10134 0.0701479 -1.28445e-20)
(1.02109 -0.00976403 0)
(1.06852 -0.0666636 -2.58701e-20)
(1.2372 0.104853 -9.03427e-21)
(-0.00488825 0.0663199 1.06066e-19)
(0.971932 -0.0665041 -6.25827e-20)
(0.507674 0.0947482 8.26012e-21)
(0.945213 -0.128559 -8.18869e-21)
(0.0792933 -0.0275287 2.9155e-20)
(0.248033 -0.0353343 -4.21569e-20)
(0.363169 -0.0214862 -4.10426e-20)
(1.12439 0.186907 6.08133e-21)
(-0.0443621 -0.0183046 0)
(0.801307 0.104652 1.25111e-20)
(1.22105 0.0928942 -6.02779e-21)
(1.09469 0.160769 5.81061e-21)
(1.28935 -0.0848006 0)
(1.49023 -0.226628 5.32632e-20)
(1.10993 0.040016 -4.50293e-21)
(-0.00203113 0.0343329 -3.31168e-20)
(0.522059 0.042265 0)
(0.92096 0.0125065 -3.12878e-21)
(1.13211 0.0314717 1.9136e-21)
(0.676001 -0.214218 -6.59202e-21)
(1.13117 -0.00775235 -4.09279e-22)
(1.11437 0.0353231 0)
(1.12112 -0.166466 -1.2701e-20)
(-0.154786 0.0206779 -5.59728e-20)
(1.30464 -0.0379915 1.25223e-20)
(1.11359 0.168102 -9.26706e-21)
(1.07963 0.012287 1.31366e-20)
(-0.0301487 -0.00233715 1.32147e-20)
(-0.0332137 0.0822796 -8.62365e-20)
(0.655168 -0.066117 0)
(0.963882 0.135117 0)
(1.15333 0.0749394 -1.07175e-20)
(1.05344 0.0611617 1.05122e-20)
(1.14693 -0.0103628 0)
(0.368832 -0.124363 2.5614e-20)
(0.855568 0.0750652 -1.51347e-20)
(1.10289 0.0943843 0)
(1.09532 0.000123434 0)
(1.46321 0.212964 0)
(1.23834 0.113193 0)
(1.224 -0.125486 -1.05429e-22)
(-0.0432183 0.0517024 4.62329e-20)
(1.15056 0.129907 4.60412e-21)
(1.37 -0.19003 -5.85548e-20)
(1.35066 -0.0280551 -2.45343e-21)
(0.173915 -0.26272 0)
(1.21636 -0.00218571 0)
(0.642964 -0.0109176 -6.59146e-22)
(0.617437 0.00651338 -7.55162e-20)
(0.0946921 0.0350428 6.04582e-20)
(0.977996 0.0267809 4.92019e-21)
(0.731272 -0.266938 0)
(0.668974 -0.0866433 0)
(1.33697 0.0232529 0)
(0.562447 0.539228 3.89034e-20)
(-0.0283436 0.101672 -3.93299e-20)
(0.928193 -0.194175 8.04909e-22)
(-0.0097845 0.0818372 6.00449e-20)
(1.067 -0.0306699 4.56938e-21)
(1.19507 0.309242 1.97173e-20)
(1.10919 -0.0927091 1.17868e-20)
(0.470638 -0.406118 6.99427e-20)
(0.876178 -0.0676244 6.38009e-21)
(1.29157 -0.187368 0)
(0.594757 0.286657 0)
(0.981339 0.121343 -6.08062e-21)
(-0.228496 0.0691155 0)
(0.621779 0.0294428 3.61313e-21)
(0.589185 -0.404347 -2.22498e-21)
(0.274775 0.0514006 -1.37582e-19)
(1.11414 -0.216235 4.27548e-20)
(1.05809 0.381379 8.9986e-21)
(0.980527 0.0307239 0)
(1.21176 -0.215664 1.87012e-23)
(0.669809 0.0122648 0)
(0.989366 -0.0117028 -5.32119e-22)
(0.43213 -0.00949453 0)
(0.716167 0.160792 0)
(0.987169 -0.026415 -5.63026e-21)
(1.47327 0.12031 -1.93572e-20)
(1.06106 0.00476645 5.88988e-21)
(0.50818 -0.473823 0)
(1.12576 -0.150812 5.10427e-21)
(0.818827 0.404341 6.51171e-20)
(-0.0330119 0.0178854 1.51162e-21)
(1.15859 -0.0446876 5.725e-21)
(1.18359 0.000143278 -1.08026e-20)
(1.05335 -0.00682154 1.37403e-21)
(0.796928 0.0113082 -4.7658e-21)
(0.0808875 0.0187707 4.85597e-20)
(-0.0194437 0.134526 -6.07733e-20)
(-0.287383 -0.0925904 0)
(-0.117083 0.0325535 0)
(1.16135 -0.598069 2.67068e-20)
(1.12462 -0.0208834 -1.54643e-21)
(0.870222 -0.453577 -3.34589e-20)
(0.947962 0.157338 -2.45463e-20)
(1.43477 0.160171 4.57256e-20)
(0.632752 0.442463 0)
(0.25558 0.442264 -1.04217e-19)
(0.611695 0.516874 0)
(0.340402 -0.0306369 0)
(1.10254 -0.460069 0)
(-0.057966 0.206047 -8.64594e-22)
(1.19428 -0.0192488 0)
(1.04179 0.389501 -4.41136e-20)
(0.621163 0.728391 2.21546e-20)
(1.35065 0.330102 7.93059e-21)
(-0.0452222 0.0277326 -9.18974e-20)
(0.98845 0.41586 -1.59289e-20)
(0.494212 0.153155 -1.65172e-20)
(1.19651 0.0444899 0)
(1.40974 0.339074 5.13382e-20)
(1.26146 0.579804 1.9349e-20)
(0.208729 -0.0278717 -2.90463e-20)
(1.14507 0.0903075 4.40341e-20)
(0.937673 -0.0164022 1.07196e-21)
(0.952602 0.0238023 -1.0658e-21)
(0.00755741 0.00221474 0)
(0.628339 -0.616414 -3.35899e-20)
(0.618491 0.236508 0)
(-0.0314468 -0.0563898 0)
(-0.0564593 0.109459 0)
(-0.0541437 0.00982556 -3.37723e-20)
(1.19361 -0.0244458 -6.63602e-21)
(-0.00202613 0.126063 0)
(-0.0478722 0.150321 0)
(1.42618 0.0608665 -9.67522e-20)
(-0.0299097 -0.00348592 4.18409e-20)
(0.119193 0.258604 -9.67966e-20)
(0.459171 0.0150601 0)
(0.163343 -0.249027 8.41589e-20)
(1.06866 -0.232884 0)
(0.983973 -0.267206 0)
(-0.030577 0.0122702 8.5243e-20)
(1.13023 0.0145013 -9.64238e-23)
(1.14741 0.349673 2.30645e-20)
(0.302402 0.027836 5.77813e-20)
(0.390791 -0.49342 -4.58464e-20)
(1.44301 -0.0134685 0)
(1.32124 0.171071 2.85783e-20)
(1.29421 0.19058 -3.50843e-20)
(0.10492 0.118658 -2.30976e-20)
(-0.0623316 0.191065 0)
(1.06749 -0.0518897 -1.99446e-20)
(1.0873 -0.20908 -2.09846e-20)
(0.571642 -0.367737 0)
(1.0925 -0.144483 -2.95204e-20)
(0.0764944 -0.0200016 0)
(0.76033 0.0431705 0)
(1.46722 0.00785348 2.94188e-20)
(0.988688 0.00397662 6.75271e-22)
(1.11333 0.770551 -5.93239e-21)
(0.21693 -0.354785 1.42656e-19)
(1.06505 -0.00602573 -2.89478e-21)
(1.19779 0.0484117 1.59878e-21)
(-0.0620413 0.199683 4.05548e-20)
(0.821523 0.764722 1.62911e-20)
(1.32354 -0.35872 -1.28974e-20)
(-0.0237279 -0.321644 6.00736e-20)
(1.16604 0.0456793 0)
(0.556285 -0.242978 -1.21064e-20)
(0.876611 -0.616755 2.007e-21)
(0.942219 0.667531 -3.53135e-20)
(0.539816 -0.0299818 -5.40951e-20)
(1.12453 -0.0188347 -6.74645e-21)
(1.07503 -0.0843454 9.20649e-21)
(1.13297 0.0777791 4.31399e-21)
(1.10871 0.111997 1.68306e-21)
(1.12544 -0.126859 0)
(1.00602 0.0930306 1.9137e-20)
(0.936003 0.476638 0)
(1.27262 0.156816 2.25081e-21)
(1.16594 0.0853505 -1.97233e-21)
(0.806388 0.273615 0)
(0.573066 0.114169 1.31239e-19)
(0.924693 0.742464 -3.32365e-22)
(1.09559 0.292022 -1.77131e-20)
(1.04275 -0.011002 1.54229e-20)
(0.427588 0.532021 0)
(1.27057 -0.457541 0)
(0.838089 -0.357379 4.7004e-21)
(1.31601 0.512248 0)
(-0.00903077 0.0751059 -5.56324e-20)
(1.25944 -0.402582 8.12964e-21)
(1.19776 0.520476 0)
(0.457223 0.258437 1.64695e-19)
(1.18835 0.32258 -1.49651e-19)
(0.794761 -0.605455 -3.03157e-20)
(1.14686 0.0782388 2.15239e-22)
(0.993187 0.153993 1.0384e-19)
(1.10015 0.16362 4.22848e-20)
(1.1107 0.728157 -4.11652e-21)
(0.886331 -0.410257 7.17986e-20)
(1.45841 0.103395 5.31186e-20)
(1.11342 -0.00545078 -9.97206e-22)
(0.00369208 0.00657875 7.7886e-20)
(1.05742 -0.678965 1.08997e-20)
(0.848944 -0.689917 6.5321e-20)
(0.242946 -0.284209 0)
(0.967845 -0.134742 7.78961e-20)
(0.371281 0.350942 -4.27512e-19)
(-0.216298 -0.0648867 1.66855e-20)
(0.344576 0.06772 3.05713e-20)
(0.666959 -0.0547218 -6.42249e-20)
(1.11113 0.548688 0)
(1.00032 0.229649 7.41461e-20)
(1.08528 0.0246798 2.99009e-21)
(0.937539 0.467369 -8.39529e-20)
(0.758733 -0.698076 -1.10209e-20)
(0.929651 0.040972 -4.90669e-20)
(1.00116 0.510672 0)
(1.1896 0.32781 -1.76631e-20)
(1.35356 -0.500154 9.76415e-21)
(1.20794 -0.326103 7.73549e-21)
(-0.0776129 -0.283872 4.8016e-20)
(0.194118 0.0534931 -1.80871e-20)
(0.968688 -0.105333 -5.87972e-20)
(0.369674 0.564278 0)
(0.924608 0.0365672 3.90974e-20)
(1.2034 0.654852 1.04285e-19)
(-0.189857 -0.0695989 1.17277e-19)
(-0.0625367 0.224242 -3.45297e-20)
(-0.0896164 0.106877 4.23272e-20)
(1.09059 0.00790736 -3.92216e-21)
(1.10913 -0.448735 0)
(1.04128 -0.705758 -5.62771e-20)
(0.712733 0.380877 0)
(-0.0632007 -0.0445847 -7.39493e-20)
(1.10059 -0.00868343 8.85314e-21)
(-0.0250607 0.0971132 -2.52131e-20)
(1.05209 0.0469351 -1.24995e-20)
(0.133926 0.0371437 7.20744e-20)
(0.938793 0.127111 0)
(1.38317 -0.0847753 3.18139e-20)
(0.133256 0.100056 -3.47044e-20)
(-0.253133 -0.146352 -5.69852e-20)
(-0.287502 -0.0845139 0)
(0.0876264 0.012649 0)
(1.34458 -0.0310727 -6.02489e-21)
(0.376567 -0.00677421 1.31877e-19)
(1.23819 -0.703302 -5.07211e-21)
(0.952536 -0.357645 7.52808e-21)
(1.08817 0.252034 -2.47075e-20)
(0.353735 -0.516433 1.47525e-19)
(1.6055 0.231723 -4.57588e-20)
(0.0324187 0.0211672 2.93196e-20)
(0.214758 0.351376 1.90539e-19)
(0.0770265 0.0279608 -1.12035e-19)
(0.927895 -0.467604 -4.62915e-20)
(1.50989 0.375895 4.6397e-20)
(0.546289 -0.642825 5.4419e-20)
(1.10314 -0.0765429 -8.80075e-21)
(0.139735 0.0117526 3.84673e-20)
(1.2653 0.290151 -6.17255e-20)
(0.683321 0.675776 -3.58769e-20)
(1.30931 -0.606365 0)
(1.4841 0.52338 4.20273e-20)
(1.0318 -0.505401 -1.14159e-20)
(1.44302 0.617167 -1.34428e-19)
(1.18102 0.0588157 0)
(-0.0548032 0.160027 0)
(1.29539 0.749472 0)
(1.21365 0.130072 -5.24352e-21)
(0.727254 -0.271774 -2.12587e-19)
(0.476457 -0.0470969 0)
(-0.0456624 0.207367 -3.43298e-20)
(1.01282 -0.232666 1.09906e-19)
(-0.268853 -0.236608 0)
(0.323617 0.06836 1.22226e-20)
(1.13955 0.0519226 0)
(1.49071 0.252057 0)
(1.18347 0.0747896 -2.30469e-22)
(0.354627 -0.250474 0)
(1.02071 0.152659 3.37275e-20)
(1.37391 0.271476 0)
(-0.0735885 0.209143 -1.74935e-21)
(0.80258 -0.365286 0)
(1.56355 0.304518 -6.87925e-20)
(1.2693 0.369822 -8.06394e-21)
(0.866989 0.677534 -8.73481e-21)
(1.01996 0.155507 -8.19717e-20)
(0.958133 -0.18976 -5.28688e-20)
(1.50722 0.267624 4.03066e-20)
(1.16668 0.0420302 0)
(0.565905 -0.0388067 0)
)
;

boundaryField
{
    FrontBack
    {
        type            empty;
    }
    Top
    {
        type            noSlip;
    }
    In
    {
        type            fixedValue;
        value           uniform (1 0 0);
    }
    Bottom
    {
        type            noSlip;
    }
    Out
    {
        type            zeroGradient;
    }
    circle
    {
        type            noSlip;
    }
}


// ************************************************************************* //
