/*--------------------------------*- C++ -*----------------------------------*\
| =========                 |                                                 |
| \\      /  F ield         | OpenFOAM: The Open Source CFD Toolbox           |
|  \\    /   O peration     | Version:  2412                                  |
|   \\  /    A nd           | Website:  www.openfoam.com                      |
|    \\/     M anipulation  |                                                 |
\*---------------------------------------------------------------------------*/
FoamFile
{
    version     2.0;
    format      ascii;
    arch        "LSB;label=32;scalar=64";
    class       volScalarField;
    location    "13";
    object      p;
}
// * * * * * * * * * * * * * * * * * * * * * * * * * * * * * * * * * * * * * //

dimensions      [0 2 -2 0 0 0 0];

internalField   nonuniform List<scalar> 
808
(
0.0933968
-0.00185011
0.0247626
0.093389
-0.24411
-0.00216288
-0.0120738
0.0100681
-0.145219
-0.0509543
0.0222451
-0.160625
0.00644586
-0.00564814
-0.268412
0.00362101
-0.277482
0.00185972
0.024219
-0.0159601
0.0297166
0.36817
0.0557853
-0.0306644
0.446766
-0.200643
-0.0819719
0.00398995
0.00613699
-0.005932
0.00524756
-0.00597996
0.00593955
0.00448812
-0.109018
0.612069
-0.00514698
0.00798933
-0.00476002
0.00862989
-0.0781368
-0.0841038
0.0159651
0.00839053
-0.243409
0.0725425
-0.00252026
-0.011083
-0.00685791
-0.184922
-0.00781764
-0.0090259
0.0258724
0.00414362
-0.091875
-0.00959636
0.00342322
0.0267282
-0.0462473
-0.015811
-0.336983
-0.020199
0.0194628
-0.20259
0.0107656
0.0272373
-0.283262
0.0113231
0.0173754
-0.294108
0.00198782
-0.326951
-0.000131671
0.00368504
0.165079
-0.000337437
-0.0306583
-0.0706556
-0.00781063
0.305275
-0.146552
-0.00664767
0.0161444
0.252934
0.00705503
-0.0530443
-0.368726
-0.11019
0.00306245
-0.207524
0.0143021
-0.126235
0.243418
0.144079
0.0220226
-0.271293
0.0114419
-0.166189
-0.133422
-0.24843
-0.00381665
-0.0225865
0.0159826
-0.0455039
-0.122046
0.0416528
-0.285845
0.0104143
-0.0122908
0.00816734
-0.0949508
0.323108
-0.004549
0.00991144
0.000904118
0.436875
-0.0102248
-0.280211
0.00179985
0.0326909
-0.31525
0.0165172
-0.00776886
0.0322721
0.0986632
-0.0558736
0.0820647
0.00561892
0.00616987
0.0499185
-0.300309
0.00294755
-0.0744233
0.114719
0.0031593
-0.0125692
0.0469912
0.00164676
-0.00151923
-0.0149333
-0.275114
0.021668
0.0384516
-0.00182048
-0.0381479
0.0450745
0.0710726
0.132751
-0.1569
0.00744376
-0.00288978
0.334997
0.00802795
0.525018
-0.28041
-0.109482
-0.00178222
-0.250096
0.0371617
-0.133358
-0.312203
-0.277639
-0.307157
-0.00289454
0.0421707
0.00387077
-0.000471034
-0.314707
-0.00800204
0.0130369
0.0145922
0.146874
0.0534441
0.101398
0.00235303
0.0455662
0.0543037
-0.173002
-7.31636e-05
-0.352909
0.0159496
-0.143169
-0.00683142
0.242721
-0.30174
0.101393
0.000714372
-0.175692
0.0128894
-0.126859
-0.272363
-0.0949256
0.000175879
0.0560695
-0.00564478
-0.259055
-0.000158885
0.0134028
0.0056887
0.0657874
0.041359
0.00864397
0.00461615
-0.326847
0.363831
-0.258938
-0.30806
0.00659188
0.0242826
-0.00329343
0.00198988
-0.401169
-0.295561
-0.000656338
0.0104262
-0.00207398
-0.334543
-0.0391222
0.00472232
0.017667
0.0142557
-0.0880766
0.00852507
0.00878744
0.00229563
0.00567715
0.109445
-0.297986
0.0228487
0.00229186
0.103552
0.00289229
-9.70548e-05
0.00418
-0.132228
0.0178381
0.00793808
0.0012979
0.00205535
0.00951703
0.00154263
0.00115454
0.0024185
0.0064359
-0.000731556
0.00104232
0.00172467
0.000912084
0.00364172
0.0398848
-0.320149
0.00265015
0.00452832
-0.137645
0.00416147
-0.0139214
0.0163456
-0.000813014
0.00276724
0.114569
0.0198461
0.00371095
0.00931611
0.00674329
0.0147142
0.00880452
0.00986223
0.0173147
0.01106
0.047473
0.0197309
-0.398249
0.266347
0.00716246
-0.105952
0.00834222
0.00567002
0.00610894
-0.236531
0.256986
0.00917041
0.0244166
0.0145308
0.0608886
-0.255522
0.00972937
0.0582459
0.0377707
0.0246346
0.0539695
0.00247609
0.0209625
0.00950592
0.0132811
0.0298535
0.0135045
0.0320391
0.0430216
0.0218052
0.0282852
0.0114641
0.00757283
0.0170348
0.00591456
-0.507507
-0.117502
0.0388238
0.02726
-0.195677
-0.32296
0.020425
0.00794504
-0.310726
0.104213
0.134586
-0.000273395
0.000398887
0.027609
0.00366482
-0.23203
0.0166453
0.000961781
0.00549152
0.0195724
0.015628
0.00823921
0.0315142
-0.0278679
0.0195439
-0.287427
0.0283627
0.00942912
-0.0228827
0.00949641
-0.0105692
0.220755
0.0223606
-0.181442
0.532939
0.0453904
0.00223717
0.00558898
-0.114033
-0.059799
0.0186568
0.0112574
-0.0195365
0.0111671
-0.0821988
-0.241445
0.0282914
0.0923251
-0.0714242
-0.277718
-0.314268
-0.295907
-0.312909
0.041869
0.00421347
0.00288754
-0.00997311
-0.0604756
0.00363611
0.00755645
0.00148086
-0.501974
0.0416906
0.00728629
0.0086253
-0.222729
0.0551821
0.00837112
0.0884582
-0.345395
0.0320482
-0.0496462
0.0291452
0.0663958
-0.293312
0.001759
-0.290462
-0.0179365
0.0817578
0.0124223
-0.00752466
0.00841465
-0.147479
-0.344015
-0.0166515
-0.00495936
-0.0578869
0.0139843
-0.0251674
0.00174461
-0.0300542
-0.026169
-0.231626
0.0131398
-0.00757846
-0.00602583
-0.279827
-0.228883
0.0538718
-0.0234748
-0.12755
-0.0582236
0.407152
-0.293061
0.00262132
-0.102332
-0.00456689
0.0220881
0.00246939
0.0683696
-0.0318793
-0.022181
-0.0839247
-0.0261727
-0.00215255
-0.00604829
-0.0062111
-0.00416132
0.0102038
0.0912013
0.0784333
0.00847667
0.00458536
0.0123901
-0.0763224
0.00593228
-0.380277
0.0552103
0.0290339
0.0113192
-0.229785
-0.309843
-0.0419494
-0.0999123
-0.0588477
0.00570406
-0.31529
-0.246923
0.228358
-0.319583
-0.453259
-0.215568
-0.088274
-0.081464
-0.286813
0.336088
-0.075602
-0.303436
-0.0128174
0.0404951
0.556086
0.00847508
-0.0117551
0.0398835
-0.0619684
-0.0337381
-0.394497
-0.259632
0.0198267
0.0376444
0.0511353
-0.269805
-0.312268
-0.220318
-0.00216436
0.0285556
0.0771183
-0.04174
-0.0656319
0.0633835
0.0143933
0.0023531
-0.196037
-0.280208
0.0133129
-0.0924354
-0.000539102
-0.00815443
0.0558768
-0.0689146
0.0175775
-0.462112
0.435774
-0.252917
-0.292239
-0.0498671
0.0114783
-0.286455
-0.27271
0.0969136
-0.334334
-0.181072
0.850986
-0.0061016
-0.356403
-0.017596
-0.0925352
-0.0272882
-0.456862
-0.288566
-0.311522
0.00741806
-0.207687
-0.360205
-0.0304974
-0.0444149
0.0993499
-0.316244
0.0149171
-0.49838
-0.303892
-0.362267
-0.0918511
0.0110404
-0.0140088
0.0909455
0.104378
-0.0531093
-0.289125
0.288879
0.0414852
0.0104447
-0.43634
-0.495119
-0.334351
-0.0189991
-0.349078
0.033702
0.0582022
0.0308824
-0.213002
-0.239373
0.00664413
-0.30526
-0.265921
0.00756309
-0.0268109
-0.326679
-0.0290792
0.021224
-0.381346
-0.321479
-0.114075
0.0923034
0.00585243
-0.328544
-0.277663
-0.280497
-0.192074
0.0285186
0.087491
0.0038206
-0.302256
-0.276176
0.0921227
0.00555567
-0.179022
0.0186421
0.0250489
-0.310883
0.0176985
-0.27403
0.0298492
-0.34022
0.0483417
0.000221472
-0.341064
-0.43007
0.00176841
-0.471821
-0.458539
0.0239338
-0.0648021
-0.273149
0.00650393
-0.296785
0.0119218
0.0749257
0.0397298
-0.365269
0.0273935
0.0679735
-0.432406
0.0141489
-0.305318
-0.00127942
-0.320172
-0.48449
0.0794098
0.269327
0.429855
0.00535566
0.00244909
-0.000134934
-0.34167
0.636526
-0.00170992
-0.204595
0.0100926
-0.0808462
0.0591635
0.48071
-0.346505
-0.0704959
-0.0615195
0.0195641
-0.00580707
-0.42636
-0.280757
-0.303785
-0.30383
-0.283045
-0.0194293
-0.363014
0.00791694
-0.251885
-0.297898
0.510328
0.585771
-0.281132
0.0949843
-0.278105
-0.0470201
-0.0616632
0.406432
-0.0536962
-0.319235
-0.0233222
-0.485427
-0.0382013
-0.187334
-0.0163476
-0.292545
-0.254334
0.00093002
0.00338176
-0.324173
0.431713
0.669044
-0.322982
-0.283378
-0.325157
-0.0806222
-0.285335
-0.27394
-0.183295
-0.321788
0.749972
-0.319022
0.729795
-0.41452
0.311821
-0.313841
-0.0144149
0.17339
-0.475276
0.207101
-0.262203
-0.292124
-0.319937
0.86343
-0.281834
0.190772
0.129257
0.629006
0.103726
-0.319046
-0.257175
-0.181559
0.00900079
0.089891
0.505432
0.00682644
-0.034886
-0.27551
0.122316
-0.137018
-0.267431
0.0136375
-0.307099
-0.17007
-0.146491
-0.36965
-0.0141271
0.0825579
-0.0220296
0.0658226
0.0885877
-0.310241
-0.341338
-0.0453443
-0.000519531
-0.444578
-0.488859
0.178785
0.190151
0.0686733
0.665519
-0.095583
-0.365274
-0.3667
-0.279726
-0.0759633
0.0846331
0.756415
-0.428587
0.359035
-0.0284588
-0.401268
0.148568
-0.068566
0.368321
-0.153146
-0.00188775
-0.333145
-0.0926458
0.178017
0.800992
0.318348
0.754825
-0.328272
-0.275174
-0.418702
0.168219
0.26375
0.0496669
0.379869
0.119984
0.48667
0.275241
-0.0472121
-0.201102
0.00525634
-0.323781
0.874441
0.397347
0.647015
0.503119
-0.254687
-0.324266
-0.276237
-0.297895
0.0342579
-0.411395
0.085992
0.592288
-0.345169
0.00641275
-0.299208
0.180001
-0.306689
-0.344415
-0.170558
-0.264723
-0.30791
-0.307145
-0.342367
-0.133447
-0.418497
-0.14694
-0.354514
0.143484
0.640231
-0.208058
-0.321887
0.821461
-0.322135
0.269547
-0.222958
0.372164
0.0672196
-0.313311
-0.374278
0.443056
-0.286361
-0.306024
0.171798
-0.262852
-0.0387316
-0.279064
-0.110398
0.0157152
0.556066
0.769643
-0.278195
0.208523
-0.312412
0.813106
-0.0299919
-0.295919
-0.0406906
0.751079
0.202259
-0.303385
-0.272363
0.439242
-0.201411
0.0383023
0.351508
0.248671
0.279323
-0.239147
-0.304113
0.678616
)
;

boundaryField
{
    FrontBack
    {
        type            empty;
    }
    Top
    {
        type            zeroGradient;
    }
    In
    {
        type            zeroGradient;
    }
    Bottom
    {
        type            zeroGradient;
    }
    Out
    {
        type            fixedValue;
        value           uniform 0;
    }
    circle
    {
        type            zeroGradient;
    }
}


// ************************************************************************* //
