/*--------------------------------*- C++ -*----------------------------------*\
| =========                 |                                                 |
| \\      /  F ield         | OpenFOAM: The Open Source CFD Toolbox           |
|  \\    /   O peration     | Version:  2412                                  |
|   \\  /    A nd           | Website:  www.openfoam.com                      |
|    \\/     M anipulation  |                                                 |
\*---------------------------------------------------------------------------*/
FoamFile
{
    version     2.0;
    format      ascii;
    arch        "LSB;label=32;scalar=64";
    class       surfaceScalarField;
    location    "13";
    object      phi;
}
// * * * * * * * * * * * * * * * * * * * * * * * * * * * * * * * * * * * * * //

dimensions      [0 3 -1 0 0 0 0];

oriented        oriented;

internalField   nonuniform List<scalar> 
1171
(
-0.94508
0.94508
0.768262
-1.08003
0.311771
-0.227755
-0.77113
0.998884
0.0549203
-0.0677552
-0.276947
0.344702
-0.768262
0.0864292
0.681833
0.92383
-0.217327
-0.706503
0.829226
-1.03722
0.20799
-0.355503
-0.0387105
0.394213
-0.00381464
0.604246
-0.600431
-0.559619
0.959941
-0.400323
-0.423258
0.995927
-0.166701
0.230158
0.10035
-0.330508
0.976187
0.0197402
0.280805
-0.0506476
0.986389
-0.0102021
0.662987
-0.890742
-0.785179
0.609483
0.175696
0.253171
-0.812789
0.557517
-0.913844
0.356327
-1.0807
0.670497
0.410206
-0.645447
0.641632
0.031457
-0.250703
0.219246
0.0362367
-0.645287
0.609051
0.466659
-0.50537
-0.839555
0.864136
-0.0245809
0.991436
-0.0050473
0.896501
-1.05617
0.159664
0.989747
0.00168977
-0.697695
-0.087484
1.22699
-0.81256
-0.414427
0.150192
-0.0773422
-0.410757
0.488099
-0.273816
0.185983
0.0878333
-0.601945
-0.478088
0.958037
-0.0615361
-0.0314613
0.877195
-0.845733
0.539644
0.687343
0.526904
0.0211884
0.445471
-0.788763
-0.107762
0.896525
0.584984
0.232775
-0.817759
0.0361081
0.624168
-0.660276
-0.509393
-0.57131
-0.378608
-0.677557
0.0264756
0.246742
-0.273218
-0.945143
-0.0359051
0.981049
0.373303
0.0209102
0.835709
0.0881206
-0.603202
-0.042245
0.0367192
-0.825482
0.0875942
0.897995
-0.98559
-0.406493
0.0299035
0.376589
-0.712626
-0.232517
-0.680677
0.768271
0.678793
0.281148
-0.579243
0.996017
-0.821603
-0.174414
-0.133686
0.0262201
0.107466
-0.458922
-0.046448
-0.308363
0.987156
-0.00562988
0.431722
-0.426092
-0.50311
1.08809
0.712293
-0.820055
0.390702
-0.069936
-0.320766
0.779354
-0.779354
-0.903433
0.0414036
-0.318351
-0.688717
0.657256
-0.0349189
-0.145254
0.180173
0.871737
0.00545776
1.03326
-0.800488
0.224488
-0.321213
0.0967253
0.959365
-0.123656
-0.673259
-0.0523964
0.725656
0.149384
-0.230829
0.0814444
0.785302
-1.00263
-0.440414
0.309503
0.13091
0.681922
-0.645685
0.85282
-0.389212
-0.463608
0.474212
-0.693818
0.0357779
0.65804
0.141605
0.665855
0.0454617
-0.711316
0.137169
-0.0957652
-0.510924
0.104431
0.0373322
-0.906115
0.868783
-0.544937
-0.757048
0.0593528
0.499681
-0.0542098
0.275735
-0.833145
0.55741
0.424802
0.575198
0.59943
-0.562711
-0.385072
-0.0130191
0.398091
0.587552
0.191801
-0.680871
0.716979
0.0889236
0.871731
0.00534828
-0.678608
-0.762952
0.800284
0.613458
0.111736
0.347495
-0.459231
-0.154984
0.559906
0.0642619
0.915011
-0.862905
-0.0521053
0.65356
0.342457
-0.432446
0.701636
-0.5899
0.408957
0.14856
-0.0590665
-0.667334
-0.233783
0.901118
-0.145477
-0.633876
-0.613438
0.362894
0.250544
0.660746
-0.655397
0.309783
1.01993
0.0133377
-0.762952
-0.192112
0.0584253
0.712293
0.783689
-0.783689
0.846763
-0.831221
-0.0155417
-0.453651
0.878453
-0.193557
-0.317366
0.763413
-0.669884
-0.0935291
-0.909847
0.242513
0.109917
-0.713118
0.820055
-0.975039
-0.196247
0.180647
0.0155996
0.123492
-0.992219
0.868728
0.545431
-0.0185275
-0.288954
0.594605
-0.305651
-0.642757
0.766249
-0.160857
0.697061
-0.851794
0.154733
1.0353
-0.60822
-0.427075
0.724622
-0.0691244
-0.00701876
0.00558735
0.00143141
-0.799293
-0.850967
0.0798378
-0.688717
0.577172
-0.547268
0.181063
0.645897
-0.826959
0.778494
0.166586
0.491934
0.508066
-0.101138
-0.696553
0.797691
0.952277
-0.0372663
-0.724622
0.800284
0.181158
-0.431861
-0.0269325
0.00861132
0.0183212
0.677226
-0.433305
-0.243921
0.681833
-0.0512254
-0.153906
0.566855
0.110371
-0.0152996
0.00124943
0.0140502
0.00486102
-0.0118798
0.142869
-0.212805
-0.944546
0.0277064
-0.144261
-0.0533771
0.135315
0.779732
0.742053
-0.166855
0.583844
-0.402781
-0.163527
0.388015
0.62942
0.0524131
0.228468
-1.05969
-0.975039
0.319093
0.657256
-0.163177
0.0179226
-0.807438
0.99737
-0.189931
0.483345
-0.106756
0.799659
0.306182
0.293419
-0.0126132
-0.680494
0.680494
0.230285
0.66624
-0.0205883
0.45231
0.467511
0.0172764
-0.0442089
0.544438
0.000992843
-0.642757
0.570825
0.192588
-0.00625807
0.0118454
-0.62942
0.168489
0.828881
-0.00466125
-0.729261
0.733922
0.760576
-0.822158
0.0615826
-0.778494
-0.0360419
0.0500601
-0.0140181
0.086156
-0.117648
-0.103446
0.221095
-0.00672888
-0.00857073
0.721785
-0.726446
0.93065
0.0682348
-0.347081
-0.538482
0.885562
-0.00105104
0.00105104
0.167628
0.4821
0.624636
-1.10674
-0.193647
-0.540287
0.733934
-0.0188091
0.198982
0.381576
-0.232191
1.05588
-0.573781
0.797225
1.06384
-0.439201
0.188018
0.766249
0.599548
0.211148
0.652988
-0.633876
0.319506
-0.0103805
-0.00463905
0.0150196
0.905073
0.0596686
-0.964742
-0.589346
0.591036
0.546349
-0.589346
-0.599548
0.591036
0.00105111
0.975968
-0.0453184
-0.587552
0.521536
0.0660166
0.534055
0.575088
-1.10914
0.508062
0.547819
0.581823
0.49823
-1.08005
0.535914
0.527922
0.521536
-0.500031
-0.487115
-0.604793
-0.549404
-0.205897
-0.00643485
0.00643485
0.54818
0.533023
-1.08243
0.707403
-0.359908
-0.984899
0.376678
-0.690913
0.458396
-0.039441
-0.885148
0.924589
0.453099
-0.0873524
0.992425
-1.02776
-0.951876
0.0755857
0.87629
0.384365
-0.21923
-0.165135
0.729379
-0.790915
0.94871
-0.909568
-0.0391424
-0.0511837
-0.811722
-0.188273
0.85532
-0.667047
-1.00929
0.958107
-0.649791
0.619809
0.0299818
-0.781675
0.00318293
0.778492
0.00390886
-0.00495991
0.424295
0.0790473
-0.914445
0.835398
-0.807509
0.706371
1.03139
0.091958
-1.12334
0.0795104
-0.00851287
0.406604
-0.36088
0.0396664
0.895355
-0.934796
-0.71344
-0.837127
0.0254056
-0.136647
-0.913966
0.0043979
0.495058
0.0887853
0.0427802
0.341585
-0.748953
0.752136
0.463608
-0.972501
-0.917333
0.0586354
0.0137927
0.704827
-0.71862
0.0106237
-0.699647
0.57975
0.180826
0.0441255
0.9483
1.03369
0.919493
-0.915095
0.0468405
-0.0468405
-0.0788301
-0.152027
-0.0672031
0.337168
-0.0180748
0.242193
0.958924
0.00673687
-0.0134658
0.658546
0.341454
0.798116
-0.601945
-0.748075
-0.658951
-0.566455
0.566455
-0.208218
-0.110132
0.654687
-0.90983
0.255143
-0.49367
-0.545704
0.326952
-1.00451
-0.946085
0.906943
-0.764975
0.79038
0.659787
0.18068
-0.840467
-0.62897
-0.186658
0.84955
-0.662892
-0.0128388
0.00559018
0.00232024
-0.00791042
-0.0756889
-0.0763382
0.981639
0.678474
-0.329682
-0.348792
0.513339
0.749971
-0.519687
0.0135437
-0.28736
0.0216624
0.786294
-0.807956
-0.344722
-0.0905301
0.143867
-1.03794
0.073201
-0.72915
0.110229
0.722922
-0.833151
-0.869232
0.140082
0.699407
-0.789937
0.235833
-0.353481
-0.59947
-0.0294993
0.369059
0.725863
-0.0242269
-0.00165104
0.00165104
-0.00518541
0.0237831
-0.0341637
-0.0137476
0.0204845
-0.510685
0.33145
0.761828
-0.811043
0.0492152
-0.668142
0.778371
0.791044
-0.0916369
-0.67713
-0.192102
-1.09846
0.020867
0.0259734
-0.489023
-0.865404
-0.842636
0.428209
-0.159821
0.185526
-0.025705
-0.387256
-0.101767
0.513076
0.713467
-0.046557
-0.00682004
1.06744
0.52243
0.187665
-0.710095
-0.379417
-0.00783867
-0.00419468
0.00978486
0.697428
-0.931212
0.00522911
-0.00522911
-0.729543
0.740072
-0.0105294
-0.336637
-0.113257
-0.690858
0.193722
0.603969
-0.054851
-0.877515
-0.380539
0.20853
0.172009
0.73996
-0.690745
0.348456
0.259951
-0.608407
-0.167975
-0.690104
-0.143047
-0.207113
-0.186817
0.469326
-0.515774
0.19114
0.728321
-0.919461
0.474212
-0.168477
0.00865531
0.0625459
-0.249363
0.596045
-0.0953834
-0.500661
-0.286321
0.306882
-0.020561
0.581922
0.125482
0.10094
-0.31257
0.170517
0.142053
-0.178865
-0.013247
-0.311782
0.116319
-0.0963201
-0.0199985
0.870426
-0.265975
-0.0706615
0.554148
0.300136
-0.629818
0.479163
-0.479163
-0.230591
-0.478913
-0.240499
-0.478913
-0.695135
-0.84952
0.179636
-0.333178
0.731446
0.0487767
0.139608
0.586255
0.110348
0.119648
0.00954135
-0.12919
-0.124648
0.649423
-0.991845
0.453363
-0.0624416
0.0763689
-0.0139273
-0.754529
-0.176516
-0.587463
0.775128
-0.509016
-0.0653788
-0.183984
-0.338841
-0.0800728
0.0800728
0.048559
0.0015011
0.140515
0.172279
-0.72153
0.134066
-0.0670806
0.472718
0.527282
0.80731
0.0210439
0.0109162
-0.0319602
-0.2985
-0.579015
-0.554786
0.114974
-0.119724
0.00475033
-0.108609
-0.41275
-0.139168
0.743137
-0.583573
-0.170956
-0.0391587
0.0110183
0.234071
-0.504548
-0.198677
-0.190835
-0.0219709
-0.475256
0.434566
0.0406905
-0.0728293
0.294546
-0.865855
-0.535621
0.618489
-0.863636
0.695661
0.443797
-0.028973
0.052467
-0.0234941
0.0876259
-0.636228
-0.00584881
0.642077
-0.893103
0.650638
-0.729469
-0.0849025
0.00750655
-0.00750655
-0.299026
0.420775
-0.0141707
0.0033835
0.0176604
0.589231
0.653372
-0.705478
0.0119948
0.00187941
-0.00353045
0.00504019
-0.00504019
-0.488232
0.613714
0.0151212
-0.0151212
-0.776588
-0.00883846
0.0127473
-0.513628
0.647694
0.609711
-0.62024
0.0698666
-0.0698666
-0.0168361
-0.0273728
0.00814747
-0.996426
0.569351
-0.513937
-0.00495991
0.604355
0.00932985
-0.613685
-0.71249
0.128918
-0.314691
-0.0136877
0.328379
-0.0265881
-0.019969
-0.607908
-0.02832
0.0259734
0.00555676
-0.000327643
-0.00327081
0.00327081
-0.272365
0.252366
-0.461065
0.13462
0.663496
-0.12384
0.00397128
-0.00397128
0.508496
-0.162963
0.0085576
0.0184669
8.02847e-05
0.592889
-0.755851
-0.706115
0.635454
-0.0931619
0.330694
0.766853
-0.00518541
-0.0834373
0.0952827
-0.663244
0.551242
-0.320631
-0.108135
-0.0281576
-0.0260078
-0.00283138
0.468504
-0.0853558
-0.415306
0.701118
0.00139466
0.00415436
-0.00415436
-0.182647
-0.100085
-0.570832
0.619608
-0.132419
0.509249
-0.190724
0.853711
0.789505
0.00555676
-0.740454
0.635599
0.0533347
-0.00544504
-0.0478897
0.562624
0.087542
-0.0115867
0.0641844
-0.0525976
0.0083159
-0.0083159
-0.776295
0.0230262
-0.0447502
0.0632171
-0.0857244
0.0857244
0.00187941
-0.00121414
0.726806
0.102075
-0.316562
-0.0961877
-0.520531
0.014176
-0.0658987
0.0658987
-0.0487962
0.0818846
-0.0818846
0.0257277
-0.0257277
-0.356979
-0.0754669
0.239594
0.0699092
0.0423731
-0.74053
-0.0636895
0.16022
0.0209373
-0.239424
0.0817003
-0.0817003
-0.466339
-0.0494358
0.229541
-0.0102953
0.00228595
-0.661019
0.659968
-0.0118385
-0.0369577
0.0576875
-0.0850604
-0.012018
-0.157791
0.16981
-0.149808
-0.203672
-0.0806268
0.0806268
0.0543965
-0.0543965
-0.0283127
-0.0938563
0.122169
-0.0396293
-0.189596
-0.00408441
0.000553954
-0.172764
0.42513
-0.0256762
0.47493
0.00821785
0.00583233
-0.0500405
0.0500405
-0.735317
0.31625
-0.128231
-0.207532
-0.0232973
-0.0160083
0.0182943
0.194535
0.0265595
-0.00119054
0.00127083
0.0849995
0.0299744
0.0560689
0.104152
-0.0162709
0.00945084
-0.00107476
0.0042136
0.00552742
0.00297928
-0.00850671
-0.00227495
0.0096125
0.0275243
-0.0275243
0.048176
-0.0430868
0.0430868
-0.190363
0.0100459
0.0283917
-0.0750972
0.0174118
0.0778115
-0.0778115
0.235225
-0.234052
0.0842432
-0.0665791
-0.167473
-0.0152899
0.0152899
0.407185
0.250855
-0.520506
-0.0806807
-0.0390435
0.541805
0.0180582
-0.0568777
-0.45307
0.0682012
-0.152345
0.169072
-0.0167277
-0.0478371
0.0478371
0.835054
-0.591451
-0.00699539
0.00472044
-0.00565165
-0.286648
-0.000184334
0.00509766
-0.0457669
-0.627822
0.569966
-0.668177
0.014728
0.154888
0.0158582
0.0243128
-0.157996
-0.333423
0.258326
-0.0551849
0.0268723
0.171851
0.135031
0.256369
0.262903
-0.247045
0.00519978
-0.114797
-0.221219
0.0674193
-0.0113504
0.158985
-0.134672
-0.0685608
0.15356
-0.408226
0.119177
-0.101765
0.0582361
-0.473542
0.17417
0.178795
-0.247356
0.00842196
-0.178537
0.178353
0.00388879
0.149672
-0.0279655
0.048482
0.460014
0.0122344
0.0119446
-0.00441069
0.0372093
-0.237947
-0.202513
0.591031
0.168038
0.0615036
0.0755336
-0.0636459
0.0456492
-0.0935388
-0.0304112
0.165601
-0.150873
0.00911323
-0.00644143
-0.106164
-0.0288653
0.0185641
0.251759
-0.00927279
-0.0394112
-0.310428
-0.00992307
0.218461
0.138166
0.178083
0.0572202
0.0964927
0.0571653
0.532066
-0.00958147
0.105302
0.0417616
0.067009
-0.108771
-0.269651
-0.195387
0.0279141
-0.221783
0.282514
)
;

boundaryField
{
    FrontBack
    {
        type            empty;
    }
    Top
    {
        type            calculated;
        value           uniform 0;
    }
    In
    {
        type            calculated;
        value           uniform -1;
    }
    Bottom
    {
        type            calculated;
        value           uniform 0;
    }
    Out
    {
        type            calculated;
        value           nonuniform List<scalar> 10(1.08988 1.03409 1.09191 1.08373 1.07332 1.07733 1.0812 1.03937 0.709754 0.719412);
    }
    circle
    {
        type            calculated;
        value           uniform 0;
    }
}


// ************************************************************************* //
