/*--------------------------------*- C++ -*----------------------------------*\
| =========                 |                                                 |
| \\      /  F ield         | OpenFOAM: The Open Source CFD Toolbox           |
|  \\    /   O peration     | Version:  2412                                  |
|   \\  /    A nd           | Website:  www.openfoam.com                      |
|    \\/     M anipulation  |                                                 |
\*---------------------------------------------------------------------------*/
FoamFile
{
    version     2.0;
    format      ascii;
    arch        "LSB;label=32;scalar=64";
    class       volVectorField;
    location    "13";
    object      U;
}
// * * * * * * * * * * * * * * * * * * * * * * * * * * * * * * * * * * * * * //

dimensions      [0 1 -1 0 0 0 0];

internalField   nonuniform List<vector> 
808
(
(0.891069 -0.0149267 0)
(1.02169 -0.0362702 0)
(1.14008 0.00570014 0)
(1.06944 0.0120462 -1.96168e-21)
(1.47614 -0.285324 0)
(0.956948 -0.0277464 0)
(1.1253 -0.0629822 2.11562e-21)
(1.1029 -0.0280745 0)
(1.34963 -0.224558 2.80051e-20)
(1.22905 -0.0875102 -1.36821e-20)
(1.16917 -0.0376771 5.08445e-21)
(1.38061 -0.253572 0)
(0.996014 -0.0305965 0)
(0.724327 -0.0236264 0)
(0.939547 0.0700917 1.92158e-20)
(1.06088 -0.0185354 0)
(0.825764 0.0466245 -6.29203e-21)
(0.974154 -0.00804504 -3.81718e-24)
(1.16113 0.0221407 0)
(1.11549 0.00327285 0)
(1.18802 -0.0414941 -7.09577e-21)
(0.928256 0.123003 1.0681e-19)
(1.07483 0.0126337 -9.71505e-21)
(1.17885 -0.0367963 0)
(0.951858 0.182146 0)
(1.3556 0.0640906 -3.35224e-20)
(1.28129 -0.174752 1.26521e-20)
(0.943594 -0.000835959 -1.7502e-21)
(1.04754 0.00272379 0)
(1.0378 0.0422202 -1.48417e-22)
(0.958164 0.00351211 1.00943e-24)
(1.12358 -0.0138542 0)
(1.00687 0.00305949 0)
(1.0433 0.0109413 1.37608e-21)
(1.30468 -0.0741332 1.04366e-20)
(0.74218 -0.116332 1.08053e-19)
(0.864868 -0.0301534 9.74232e-22)
(0.99714 0.0316512 4.92675e-22)
(1.19229 0.0554242 1.03745e-21)
(1.06357 -0.0219065 0)
(1.26081 -0.0683799 -2.07837e-20)
(1.27483 -0.130817 0)
(1.00581 -0.00607705 -3.95685e-21)
(1.10607 -0.0393766 2.80689e-21)
(1.26858 -0.0514228 0)
(1.01198 0.0162562 -1.63078e-20)
(0.981814 0.0359423 -3.89183e-22)
(1.25359 -0.249197 1.38497e-20)
(1.17068 0.0512544 2.48517e-21)
(1.40488 -0.177905 -4.04576e-20)
(1.12112 -0.0657903 -2.92448e-21)
(1.15003 -0.0704238 0)
(1.12173 -0.00115255 3.50127e-21)
(1.06773 0.00127588 0)
(1.31946 0.235126 5.19869e-21)
(1.06204 0.0472401 9.05522e-22)
(1.07044 0.00684665 0)
(1.17957 -0.0563472 2.80652e-21)
(1.23537 -0.0939587 1.46868e-20)
(1.13943 0.0391528 1.4326e-21)
(-0.311884 0.157519 0)
(1.21548 -0.21234 -1.0396e-20)
(1.16784 -0.0466948 0)
(1.4257 -0.0843205 -3.11237e-20)
(1.12661 -0.0497705 -3.35097e-21)
(1.03702 -0.0281605 -4.09137e-21)
(1.35048 -0.120776 3.06616e-20)
(0.624106 -0.00262749 0)
(1.12543 -0.0489111 0)
(1.44446 -0.35165 0)
(0.863075 0.031011 1.43185e-23)
(1.25233 -0.139226 -4.34456e-20)
(0.988884 0.059815 0)
(1.05205 -0.0503266 -3.12094e-22)
(1.12436 -0.33615 -5.20017e-20)
(1.11378 -0.0444752 -9.2449e-22)
(1.14334 0.0244055 8.97409e-22)
(1.31623 0.496777 2.46744e-20)
(1.10239 -0.0538444 0)
(1.01183 0.280291 -1.76658e-19)
(1.36556 0.0322685 2.00233e-20)
(0.720029 0.0227698 0)
(0.835324 0.028273 -1.67893e-21)
(0.967644 -0.109498 3.89698e-21)
(1.10759 -0.0470442 1.04189e-21)
(1.18987 0.0143827 2.16882e-21)
(1.28959 -0.234565 0)
(1.34419 0.287822 0)
(1.09367 -6.96648e-05 -1.51725e-21)
(1.39992 0.101757 3.77086e-20)
(1.0764 -0.0177338 5.23031e-21)
(1.32086 -0.12153 -1.61819e-21)
(0.965345 0.0257319 1.60494e-20)
(1.00391 -0.0248254 0)
(1.1164 0.0163021 8.41975e-22)
(1.30332 -0.0604449 -7.88799e-20)
(0.814347 -0.00181795 -1.46462e-21)
(1.37739 -0.0546701 0)
(1.32339 -0.0884823 0)
(1.42187 -0.0858288 -4.81347e-20)
(1.07907 -0.0499893 5.77964e-22)
(1.12138 0.00921324 1.53401e-22)
(0.953732 0.0212182 5.21895e-21)
(1.18362 0.00186843 -1.05507e-21)
(1.32125 0.0254371 -2.7831e-20)
(0.998875 0.00653425 9.6904e-21)
(1.48214 -0.0661973 0)
(1.01829 0.0432668 0)
(1.09482 0.0371653 -2.51623e-21)
(1.20356 -0.219573 -4.89339e-21)
(1.27333 0.00782085 1.55434e-20)
(1.04616 0.0457085 -1.17976e-19)
(1.15077 0.0445973 1.22309e-21)
(1.20119 0.127775 1.87713e-21)
(0.824679 -0.00292484 0)
(0.917703 -0.0486027 7.30221e-20)
(1.14348 0.0226882 2.59801e-21)
(1.43815 -0.261301 -1.96046e-20)
(1.09779 -0.0510705 -8.12155e-22)
(0.918615 0.0160246 2.36344e-21)
(-0.465432 -0.00523831 0)
(0.865391 -0.0166742 2.14421e-21)
(0.808603 0.0302025 0)
(1.06955 0.00410683 -5.48286e-23)
(1.01213 0.0311424 0)
(1.30787 0.32237 7.92965e-21)
(1.03466 -0.0529686 -2.48273e-20)
(1.33446 0.13887 8.31702e-22)
(1.15006 -0.0636684 0)
(1.09166 -0.0246186 0)
(0.613568 -0.0202077 0)
(1.10944 -0.024426 -4.98838e-22)
(1.24556 -0.0483191 1.2229e-20)
(1.0652 0.111909 -3.05857e-20)
(0.865148 -0.0132067 0)
(1.10357 0.0281212 6.12975e-22)
(1.13556 0.0774738 2.75279e-21)
(1.10669 0.00451398 -7.97468e-22)
(0.970716 0.0332368 -4.0617e-22)
(1.12526 0.00722967 -1.286e-22)
(-0.0116054 0.0539179 0)
(1.09441 -0.019532 -5.8911e-21)
(1.14342 0.0216234 1.99204e-21)
(0.726988 0.0314996 3.86269e-22)
(1.25859 0.172537 2.64616e-21)
(1.12577 0.137326 3.0988e-21)
(1.04957 0.0189078 1.23083e-20)
(0.991781 0.0276811 0)
(1.17864 -0.148758 -2.74255e-20)
(1.05377 0.0380046 0)
(0.915293 0.0328446 -9.35649e-22)
(0.967456 0.279837 1.41318e-19)
(0.958845 0.0326459 0)
(0.818468 0.096775 0)
(-0.126161 0.0253574 -6.95546e-20)
(1.3401 0.138615 -1.33153e-20)
(0.658981 -0.0244743 0)
(1.45177 0.0431503 0)
(1.12209 0.0311284 0)
(1.36153 0.100395 1.51904e-20)
(-0.0407069 -0.107038 0)
(-0.0640277 0.0638432 3.2933e-20)
(1.01132 -0.0445286 8.79571e-20)
(0.996077 0.0407247 -5.45987e-22)
(0.864581 0.00107862 0)
(1.03437 -0.0385028 1.31566e-21)
(0.897001 0.0254722 0)
(0.754958 -0.0269094 -9.50558e-20)
(1.01495 0.0520658 -3.83284e-21)
(1.11523 -0.0511708 1.18246e-21)
(1.09099 0.0121351 1.50943e-21)
(1.01342 0.0698519 -1.06738e-20)
(0.823063 0.104468 -3.08491e-21)
(1.13872 -0.350027 3.86921e-22)
(0.917105 -0.0253543 0)
(1.0657 0.00062027 -9.23673e-21)
(0.87388 0.0106749 -8.35892e-21)
(1.37759 -0.16648 2.45685e-21)
(0.687128 0.0306472 0)
(1.05328 -0.142161 0)
(1.09999 -0.0292746 1.47314e-21)
(1.38766 0.218946 1.05493e-20)
(1.11308 0.0158036 3.4604e-23)
(1.03684 0.0178122 1.74385e-20)
(0.705841 0.0877999 -8.15574e-20)
(0.812105 0.00429941 1.61557e-20)
(1.13605 -0.0217209 -1.35397e-22)
(1.37896 -0.0697745 -5.78111e-21)
(1.1035 -0.0321127 -2.72658e-21)
(1.31733 -0.0421992 4.95386e-21)
(-0.132914 0.0603678 5.04787e-20)
(1.27372 -0.0293312 0)
(0.581524 -0.0163042 0)
(1.06224 -0.0269594 -4.2846e-21)
(1.1006 0.00958553 -2.49795e-21)
(0.0318166 0.0910518 0)
(0.882054 -0.0208734 1.49578e-23)
(1.10812 -0.0353948 -1.26329e-21)
(1.00521 0.00203096 1.17711e-21)
(1.07866 0.0377804 -6.15725e-21)
(1.01088 0.021193 2.56748e-21)
(1.0448 -0.0325831 1.11437e-21)
(1.03361 0.00620288 0)
(0.346262 -0.0381998 0)
(1.04773 -0.0636084 0)
(1.13072 0.111438 -2.82055e-20)
(-0.0393952 -0.111682 4.95323e-20)
(1.07744 -0.00452688 -9.44232e-24)
(1.1766 0.017772 0)
(0.762909 0.0251184 8.9825e-22)
(1.11887 -0.00728674 4.6112e-22)
(-0.00472153 -0.0396735 -1.58904e-19)
(0.824823 0.0196456 -5.45486e-20)
(0.600705 -0.0225029 0)
(1.05183 -0.00641796 0)
(0.905164 0.0435515 2.59105e-22)
(1.02362 -0.110186 6.18487e-21)
(1.274 0.39742 6.2339e-22)
(1.09873 0.00260543 -3.85692e-23)
(1.15967 -0.047152 -2.64464e-21)
(1.05436 0.0127263 0)
(1.35682 0.423369 -3.95038e-20)
(0.636031 -0.017162 0)
(0.819113 -0.00958957 -8.51506e-22)
(1.03454 0.00669962 7.68119e-23)
(0.547634 0.00942391 0)
(1.10071 -0.00663343 0)
(0.0427336 0.0298 -4.68146e-20)
(1.19441 -0.097423 -4.10147e-21)
(0.790541 0.000971428 5.17855e-22)
(0.991057 -0.00350141 0)
(0.565224 -0.00165035 0)
(0.796699 0.00316519 -2.11842e-22)
(0.58185 -0.00496535 1.08259e-22)
(1.3426 0.0340716 3.91235e-22)
(1.18018 0.0109181 -2.27496e-21)
(0.784321 0.00224528 -1.19224e-21)
(1.06181 0.0116807 1.27221e-22)
(1.10921 0.00110995 3.63426e-23)
(0.585341 0.00327351 3.12042e-21)
(1.08761 0.0120875 1.61434e-22)
(1.09007 0.00869 0)
(1.05985 0.00471371 0)
(0.571469 0.0117628 0)
(1.0348 0.0108209 0)
(1.09123 -0.00382006 -5.12884e-22)
(1.08343 0.000435137 0)
(1.07305 0.0135211 0)
(1.07554 0.00429949 0)
(1.10963 0.0982953 0)
(-0.024774 -0.0482674 4.96375e-20)
(1.09797 -0.00115696 3.24138e-22)
(1.08335 0.021757 0)
(1.32691 0.015036 1.95122e-20)
(1.09182 -0.00197898 6.09626e-22)
(1.11366 0.0491653 -2.21636e-21)
(1.10378 -0.0503925 2.69521e-21)
(1.08356 0.00230233 0)
(0.562587 -0.00569463 1.10752e-21)
(1.0507 0.043795 1.03814e-20)
(1.20596 -0.0829647 0)
(1.09405 -0.00242134 -5.47546e-22)
(1.11505 -0.00940555 1.48387e-21)
(0.677124 0.057585 -2.84209e-21)
(1.10324 0.0316062 2.31571e-21)
(1.10293 -0.00408661 -2.2138e-21)
(1.03639 0.0446097 0)
(1.16963 0.10229 -7.87391e-21)
(1.17117 0.0357014 -1.96857e-21)
(0.801956 0.0125127 8.80541e-21)
(0.946705 -0.0153641 0)
(-0.0173599 -0.0224184 0)
(0.974141 0.111769 -1.69765e-20)
(1.07361 -0.00496965 0)
(1.3135 -0.107934 3.55629e-20)
(1.14334 -0.00294752 3.41113e-22)
(1.09528 -0.00737264 2.12808e-21)
(1.13227 -0.00779956 -1.25269e-21)
(1.35708 -0.024781 1.13588e-19)
(1.01972 -0.325799 5.25005e-20)
(1.08676 -0.0370878 -2.00378e-22)
(0.954103 -0.0238564 0)
(0.993688 0.0227298 0)
(0.899054 -0.000524597 -2.01221e-20)
(1.33089 -0.140971 -6.32227e-20)
(1.09735 -0.0182041 0)
(0.714848 0.0821774 1.26903e-20)
(0.462676 0.0504204 0)
(0.911703 -0.0442144 4.86414e-21)
(0.857806 0.0492447 -1.45585e-20)
(0.791166 0.0300011 -8.01456e-23)
(1.12385 -0.0585011 0)
(1.18928 0.0209763 -3.9789e-22)
(1.20079 0.0290978 2.47084e-21)
(0.87797 -0.0632978 -5.41692e-21)
(1.11155 -0.0237586 -2.45408e-21)
(0.873898 -0.0309804 0)
(1.09313 0.0703261 0)
(1.16858 -0.0847433 3.86365e-21)
(0.917993 -0.0651555 -4.91361e-21)
(1.15873 0.0311461 3.29006e-21)
(1.08097 -0.0151753 -1.31523e-21)
(0.99977 0.00745064 3.36847e-22)
(1.07383 -0.00884707 0)
(0.418031 -0.139085 1.43313e-20)
(1.33657 0.0903894 -2.53381e-20)
(0.894621 -0.00494995 -1.02227e-20)
(0.10941 -0.0966719 3.00543e-21)
(1.42318 -0.135057 2.77872e-20)
(0.897147 0.0231923 7.52891e-20)
(1.19692 -0.0516027 -3.97417e-21)
(1.08071 -0.0240366 -1.40544e-22)
(-0.0522668 -0.109684 -8.46821e-21)
(0.99789 -0.00602954 0)
(1.03493 -0.0871923 -1.48606e-20)
(0.854305 -0.0332955 -1.07667e-21)
(1.07749 -0.0526086 3.70708e-22)
(0.891899 -0.0566121 -1.70355e-22)
(0.589915 -0.0103651 2.66109e-22)
(1.4162 -0.383826 -1.55709e-20)
(1.07964 0.0306489 0)
(1.03943 -0.00078631 -5.98954e-22)
(1.12179 0.0290377 -4.73672e-22)
(1.18621 -0.0324648 0)
(0.941137 -0.016064 -5.81821e-21)
(1.10493 0.0319422 7.35882e-22)
(0.820879 -0.0259693 1.19174e-20)
(1.14922 -0.055173 1.49863e-20)
(0.947439 -0.0385616 3.22046e-21)
(-0.0378008 -0.0543779 0)
(0.393148 0.0470375 6.1211e-21)
(1.1176 0.0199509 0)
(0.995248 0.0852346 4.2996e-21)
(0.992175 0.144264 0)
(1.1301 -0.012976 -3.44182e-21)
(1.01573 0.0268015 0)
(1.13036 -0.0473954 0)
(1.39299 -0.117031 2.34322e-20)
(0.797025 -0.0880597 0)
(1.15798 -0.0440878 1.49197e-20)
(1.05337 0.00492108 3.6948e-23)
(1.02678 0.032465 5.69227e-22)
(1.29872 -0.0819863 -2.10908e-20)
(1.24807 0.124311 -7.23525e-21)
(1.20092 -0.0753138 7.56944e-21)
(1.1193 0.0388468 0)
(1.15191 -0.0708311 0)
(1.08748 0.0650948 1.00943e-21)
(1.23397 -0.0437979 0)
(1.39713 0.218861 -2.58922e-20)
(0.842803 -0.0136387 1.03126e-21)
(1.02694 0.0151894 1.77927e-20)
(1.25383 0.0194216 -4.19171e-22)
(-0.0112093 -0.016047 0)
(-0.0322409 -0.0777161 0)
(0.0555143 0.0857424 -4.37539e-20)
(-0.0425723 -0.102888 0)
(0.733566 0.035002 -7.74377e-21)
(1.15961 0.0420715 3.19369e-22)
(1.13206 -0.049823 -1.1742e-21)
(1.19499 -0.128504 -6.31088e-21)
(1.21315 -0.0654884 0)
(0.780165 3.9133e-05 -6.50036e-22)
(1.12943 0.0772972 0)
(1.0899 -0.00160045 3.75304e-22)
(0.507281 -0.109682 0)
(0.760377 0.0189868 -3.25703e-22)
(1.11392 0.0775233 0)
(1.12021 0.0129655 0)
(0.649693 0.0786197 4.81839e-20)
(0.598707 0.0672801 -1.6891e-21)
(1.03096 0.0401292 1.41533e-21)
(1.01595 0.0173157 -7.16974e-21)
(0.186959 -0.0754689 0)
(1.17846 -0.0393511 -1.58156e-20)
(1.2346 0.063262 -8.37046e-21)
(1.18834 -0.0666409 1.24532e-21)
(0.651798 0.0118653 9.84971e-21)
(-0.050196 -0.0803044 -1.0201e-19)
(1.1485 0.0852396 0)
(-0.0327165 0.0363251 0)
(1.19153 0.0839862 -3.50477e-21)
(0.454484 0.0309572 -1.05995e-20)
(1.09883 0.0377976 -4.90255e-21)
(1.09374 -0.0537909 0)
(1.14165 -0.0471424 7.99576e-22)
(1.28085 -0.251756 2.61957e-20)
(0.551079 -0.0463068 -1.024e-20)
(1.14378 -0.0415781 3.14237e-21)
(1.14761 -0.0682682 1.06661e-22)
(0.358157 -0.225313 2.81002e-20)
(1.18942 -0.0719536 -6.99803e-21)
(1.13743 0.0412825 0)
(1.1476 0.0896111 0)
(1.172 -0.0903451 6.14852e-21)
(1.19581 0.0710095 7.5648e-21)
(0.805806 -0.229294 -6.80535e-20)
(1.19339 -0.118807 -6.39584e-21)
(1.12101 0.0580918 -2.40038e-21)
(0.473781 -0.00474812 1.22761e-21)
(0.314023 0.0423365 -9.0329e-20)
(0.125921 -0.151362 4.2425e-20)
(1.17092 0.187033 -6.52479e-21)
(1.23699 -0.495974 6.82168e-21)
(1.37974 0.058668 -1.73174e-20)
(1.19371 -0.0689369 -7.28639e-21)
(0.937653 -0.235403 9.02194e-20)
(-0.374324 -0.0812165 0)
(1.08945 0.00387269 -2.07252e-22)
(-0.0963859 0.100775 -1.91113e-20)
(1.17785 0.103399 3.0328e-21)
(1.15802 -0.059753 3.7297e-21)
(1.07802 0.034279 0)
(0.610072 -0.0520195 0)
(1.17216 -0.0510529 0)
(1.30716 0.148693 -4.44354e-21)
(1.25412 -0.0204803 -3.16604e-20)
(1.14432 -0.0604239 -6.93641e-21)
(0.566253 0.0122455 0)
(0.715423 0.00407508 0)
(0.724564 -0.000963509 2.69211e-22)
(0.561796 -0.0110705 0)
(1.15436 0.00967281 0)
(1.02014 -0.0128988 1.95208e-20)
(0.329862 -0.115058 0)
(0.930956 -0.0141208 0)
(1.05724 -0.00266104 0)
(1.1751 0.184647 -2.8185e-21)
(1.26168 0.0339279 1.33151e-20)
(0.960794 -0.0312852 2.60798e-21)
(1.29795 -0.401542 -1.14993e-19)
(0.610205 -0.19324 5.20948e-22)
(1.2087 0.0985731 3.04642e-21)
(1.17022 -0.0232788 0)
(-0.33801 -0.0643845 0)
(-0.220032 0.15492 0)
(1.16514 -0.042024 -1.1763e-20)
(1.32279 -0.289568 -3.40999e-20)
(1.3186 0.0889216 0)
(1.0603 0.0524039 -1.65504e-21)
(0.536748 -0.0670497 0)
(1.50951 -0.163183 7.95298e-20)
(0.410885 0.517549 1.1154e-19)
(0.288335 -0.045514 0)
(1.10422 -0.277791 1.2344e-19)
(0.181931 0.0960306 0)
(-0.213409 -0.276608 1.13646e-20)
(1.34279 0.08149 0)
(-0.186522 0.0815986 2.25013e-21)
(0.983499 -0.049775 0)
(1.25738 -0.133912 -1.54866e-20)
(-0.135384 -0.0162515 -8.32191e-21)
(1.11666 -0.0328882 -1.87678e-21)
(1.14384 -0.0213923 -6.65625e-21)
(0.574974 -0.519303 -8.89813e-20)
(1.10125 -0.0002349 -9.95994e-22)
(1.19346 -0.125818 2.40093e-22)
(1.17904 0.249429 -1.71676e-20)
(1.1434 -0.235345 -3.52011e-21)
(1.1663 -0.0273521 -2.12826e-21)
(-0.0892407 0.0320247 -7.27457e-20)
(0.0268319 0.0908789 -7.35352e-21)
(1.26819 0.127705 1.36519e-21)
(1.05544 -0.050756 0)
(0.613451 0.115754 -4.19861e-21)
(1.40618 -0.44264 8.98473e-20)
(0.943743 -0.0741729 -6.48538e-20)
(1.42326 0.16287 7.82716e-20)
(1.0721 -0.0436373 -6.05818e-22)
(1.15461 -0.0388115 6.6683e-21)
(1.06263 -0.00663093 0)
(1.18081 -0.0222448 0)
(1.2504 -0.110349 5.9402e-21)
(1.08806 -0.0211797 -4.49204e-21)
(1.1497 -0.183609 4.17626e-21)
(1.08516 0.0557471 -1.00792e-21)
(1.42534 -0.024671 -5.19617e-20)
(0.417185 0.0308244 0)
(1.16758 -0.0869537 2.22553e-21)
(1.30243 0.0666979 0)
(1.10507 0.0600963 8.78904e-22)
(1.14461 0.0205729 0)
(1.045 -0.0116723 8.94744e-21)
(1.24003 0.0373207 1.98886e-20)
(1.1003 -0.0268651 0)
(0.0555923 -0.0290153 1.65994e-19)
(0.883501 -0.214436 -7.07625e-20)
(1.27817 -0.00275766 -3.19293e-20)
(-0.108495 -0.0376046 4.25083e-20)
(1.1886 0.0350662 4.65218e-22)
(0.954974 0.00375888 -2.27593e-21)
(-0.10222 -0.0152166 -4.43196e-20)
(-0.0227847 -0.00132122 -2.73395e-20)
(1.01686 -0.0298625 0)
(-0.0304954 -0.0380684 0)
(1.20035 0.0407844 0)
(0.112168 -0.106768 0)
(1.11529 -0.0311922 0)
(0.14129 0.0301934 0)
(1.12022 0.0520677 0)
(1.14981 0.0863901 0)
(1.34341 0.106627 8.67338e-22)
(0.578908 -0.286875 -2.27271e-20)
(-0.164374 0.111104 0)
(1.14545 -0.0903154 6.74926e-20)
(1.14317 0.0293739 9.93958e-22)
(1.2949 0.0361264 0)
(-0.0375455 -0.0421321 0)
(1.16368 0.00794436 7.29432e-21)
(1.17219 -0.0132228 -3.54438e-21)
(1.16511 0.388913 0)
(0.261387 -0.0691819 6.55127e-20)
(1.12372 0.0589929 7.02868e-22)
(0.237423 -0.0516519 -5.59911e-20)
(-0.0596217 0.0432101 -3.13223e-20)
(-0.0357584 0.0487367 8.09772e-20)
(0.318778 -0.0396395 1.57637e-20)
(1.05735 -0.0012147 2.14166e-21)
(1.13729 0.0653619 6.55682e-21)
(1.02494 -0.00756455 0)
(1.07179 -0.069981 -1.79806e-20)
(1.23834 0.0458906 -1.4311e-20)
(-0.010268 -0.0348762 1.04179e-19)
(0.980091 -0.0731044 -5.58926e-20)
(0.76586 0.100051 7.85115e-21)
(1.12544 0.0352891 -2.10552e-21)
(0.0765014 -0.0308223 3.6261e-20)
(0.249384 -0.037635 -5.08849e-20)
(0.414924 -0.053016 -5.94048e-20)
(1.24737 0.118806 -5.24637e-21)
(-0.0550503 -0.037799 0)
(1.09166 0.164455 1.48942e-21)
(1.11412 -0.109969 1.44438e-20)
(1.11767 -0.117523 -1.39267e-20)
(1.26355 0.0326407 0)
(1.51643 -0.222891 7.95975e-20)
(1.07466 -0.026263 -1.38498e-21)
(-0.0152371 -0.0440279 -3.58614e-20)
(0.256357 0.0942117 0)
(0.926274 0.00565394 -1.71544e-21)
(1.1288 0.0268307 -2.08684e-21)
(0.82564 -0.142063 2.68668e-20)
(1.16747 0.00914587 -2.48759e-21)
(1.1189 0.0476466 0)
(1.14862 -0.169529 -1.57996e-20)
(-0.0709529 -0.0657054 -7.18958e-20)
(1.31216 -0.0228532 2.59015e-20)
(1.10332 0.174269 -8.73265e-21)
(1.08288 0.0709053 1.15277e-21)
(-0.0419882 -0.0616668 1.66864e-20)
(-0.0220107 0.028741 -6.26628e-20)
(0.725373 0.0694914 0)
(0.760828 0.141072 0)
(1.15191 0.10199 -1.22013e-20)
(1.05192 0.0701951 1.03096e-20)
(1.06695 -0.00231127 0)
(0.518723 0.00505053 5.25707e-20)
(0.706265 0.0906132 -1.10828e-20)
(1.09796 0.110525 0)
(1.07485 0.0619321 0)
(1.341 0.0868137 0)
(1.14198 0.0325334 0)
(1.137 0.0644636 2.23535e-21)
(-0.0424333 0.0432019 3.42087e-20)
(1.16425 0.0276924 3.21424e-21)
(1.41404 -0.188362 -9.06309e-20)
(1.18204 0.0419987 -3.14102e-21)
(-0.0288888 0.152037 0)
(1.13124 -0.063139 0)
(0.729376 -0.00529974 -3.60264e-22)
(0.522117 0.00903488 -5.77765e-20)
(0.0668901 0.0366633 4.69911e-20)
(0.989531 0.00269918 8.95522e-22)
(0.746312 -0.273288 0)
(0.682792 -0.0908543 0)
(1.12175 0.0172717 0)
(0.538253 0.511944 2.21414e-20)
(-0.0147365 0.0106814 -3.00149e-20)
(1.08668 0.0291908 -1.63095e-21)
(-0.0213084 -0.0702714 6.84167e-20)
(1.09981 -0.0375698 9.26336e-22)
(1.17175 0.315515 3.27443e-20)
(1.11483 -0.0888821 5.52042e-21)
(0.31865 0.0390152 9.51052e-20)
(1.09748 0.132664 1.54939e-21)
(1.10567 -0.0551806 0)
(0.553982 0.269605 0)
(0.986821 -0.00711709 3.36336e-21)
(-0.192507 0.0607476 0)
(0.591462 0.0225957 6.35262e-23)
(0.605573 -0.418738 -3.41548e-21)
(0.232565 0.0490736 -1.10625e-19)
(1.12491 -0.226898 2.55555e-20)
(1.03617 0.363684 9.73131e-21)
(0.979485 0.0177056 0)
(1.14077 -0.000440321 1.06291e-22)
(0.732099 0.00480924 0)
(0.999599 0.00960565 -3.33109e-22)
(0.443696 -0.0188159 0)
(0.712306 0.128185 0)
(0.995826 -0.0241564 3.06715e-22)
(1.43705 0.180671 -1.49385e-20)
(1.0934 -0.0428551 9.67926e-22)
(0.523554 -0.493407 0)
(1.13285 -0.154848 4.83306e-22)
(0.803485 0.377052 6.8744e-20)
(-0.0408877 0.0201381 1.14084e-21)
(1.23202 -0.0208844 1.46363e-20)
(1.22502 0.0368484 -1.57971e-20)
(1.13022 -0.0636781 4.35383e-22)
(0.792288 -0.00125829 1.34373e-21)
(0.0584676 0.0185689 3.64496e-20)
(-0.0175919 -0.042464 -5.81693e-20)
(-0.185887 0.0879092 0)
(-0.228707 0.215921 0)
(1.18777 -0.616279 3.3788e-20)
(1.15397 -0.0308463 2.07675e-21)
(0.890724 -0.465859 -4.65052e-20)
(1.06776 0.141673 -3.80355e-21)
(1.35917 0.204795 3.39928e-20)
(0.600526 0.418589 0)
(0.245714 0.414087 -1.12753e-19)
(0.594828 0.479555 0)
(-0.0204598 0.111517 0)
(1.12393 -0.479968 0)
(-0.0474785 0.00288129 -1.59407e-22)
(1.19682 -0.0124534 0)
(0.812923 0.073371 -1.41673e-20)
(0.59311 0.690849 2.0236e-20)
(1.2973 0.129492 8.78388e-21)
(-0.0324445 -0.0996851 -1.17754e-19)
(0.666129 0.0320017 -4.51865e-21)
(0.445271 0.143374 -1.33329e-20)
(1.20884 0.0964592 0)
(1.35528 0.359669 3.60168e-20)
(1.21904 0.566577 8.37159e-21)
(0.150092 -0.0137784 -2.17093e-20)
(0.980922 0.139494 3.12263e-20)
(0.93707 0.00476852 3.476e-22)
(0.940882 0.00803717 -2.93764e-22)
(-0.00505898 -0.0331509 0)
(0.647532 -0.654636 -2.89445e-20)
(0.613437 0.19948 0)
(0.0781018 -0.0956325 0)
(-0.0457436 0.0515182 0)
(0.00412873 -0.101829 -4.46952e-20)
(1.24754 -0.00806915 -1.67808e-20)
(-0.0317878 0.0509151 0)
(-0.0320903 0.035666 0)
(1.46222 0.126497 -7.60404e-20)
(-0.0373405 -0.081971 5.3229e-20)
(0.114573 0.233285 -9.94553e-20)
(0.374638 0.0171146 0)
(0.16982 -0.279439 7.94674e-20)
(1.09245 -0.239669 0)
(0.996527 -0.285164 0)
(0.00787675 -0.0906606 1.11252e-19)
(1.15301 0.0373509 6.48809e-23)
(1.12223 0.343369 2.65405e-20)
(0.254446 0.0281628 4.54711e-20)
(0.40422 -0.518745 -3.42889e-20)
(1.27247 0.0898607 0)
(1.20335 0.200601 2.16925e-20)
(1.20895 0.215432 -2.66485e-20)
(0.102293 0.087279 -2.30618e-20)
(-0.065102 -0.0227112 0)
(1.07023 -0.0578562 -1.89828e-20)
(1.1028 -0.224041 -1.26259e-20)
(0.583269 -0.405989 0)
(1.09585 -0.15039 -2.3488e-20)
(-0.11926 0.180487 0)
(0.569509 0.046834 0)
(1.42355 0.0224076 4.1496e-20)
(0.995071 -0.00802622 2.51459e-22)
(1.07496 0.744121 -1.51919e-20)
(0.225638 -0.379864 1.27302e-19)
(1.07624 -0.0133475 -2.17509e-22)
(1.21051 0.0776059 1.84808e-21)
(-0.050366 0.0480061 2.99274e-20)
(0.784288 0.731358 2.71103e-20)
(1.34988 -0.369441 -1.34199e-20)
(-0.179645 0.0255406 7.42388e-20)
(1.09813 0.0315655 0)
(0.180486 0.0503537 -8.15819e-21)
(0.899977 -0.636445 3.08063e-21)
(0.89558 0.639789 -2.0098e-20)
(0.553437 -0.0343199 -6.717e-20)
(1.14741 -0.00874692 5.23754e-21)
(1.07794 -0.0858073 5.34543e-21)
(1.15686 0.0594603 -3.62559e-21)
(1.1049 0.122319 2.65264e-21)
(1.13202 -0.128785 0)
(0.891867 0.112777 1.40093e-20)
(0.880249 0.457431 0)
(1.29856 0.0966315 4.51073e-21)
(1.1684 0.116226 -2.28003e-21)
(0.743392 0.263172 0)
(0.510948 0.109575 1.05524e-19)
(0.891253 0.711313 -9.09471e-22)
(1.07567 0.291221 -2.03828e-20)
(1.04017 -0.00879489 9.59408e-21)
(0.41498 0.490273 0)
(1.29732 -0.473584 0)
(0.691889 -0.00827145 6.32509e-21)
(1.25753 0.504455 0)
(-0.0255102 0.0498784 -4.15535e-20)
(1.28435 -0.415693 -1.54805e-20)
(1.16275 0.510813 0)
(0.452775 0.21582 1.6647e-19)
(1.11421 0.316579 -1.17822e-19)
(0.815334 -0.641472 -2.42277e-20)
(1.1648 0.0551952 -4.66233e-21)
(0.903382 0.151837 7.91683e-20)
(1.08742 0.169788 4.77504e-20)
(1.06726 0.703295 1.3227e-22)
(0.904033 -0.438999 6.1718e-20)
(1.4295 0.192872 4.09607e-20)
(1.12845 0.00664589 4.0854e-22)
(0.00541789 -0.0557044 9.94242e-20)
(1.0833 -0.703128 3.13518e-20)
(0.871542 -0.720711 4.88136e-20)
(0.251627 -0.334381 0)
(0.972403 -0.148378 6.87706e-20)
(0.362035 0.306367 -4.3224e-19)
(-0.084994 0.0828162 2.47317e-20)
(0.2216 0.0388172 2.1546e-20)
(0.681376 -0.0583329 -7.88237e-20)
(1.07685 0.529459 0)
(0.989952 0.221935 7.68706e-20)
(1.08931 0.0301856 2.49633e-21)
(0.909054 0.441761 -8.86311e-20)
(0.782401 -0.726026 -7.59956e-21)
(0.928379 0.0219616 -4.76505e-20)
(0.976179 0.489576 0)
(1.18682 0.10073 -9.00851e-21)
(1.38192 -0.51482 1.44922e-20)
(1.22824 -0.341033 9.66045e-21)
(-0.28366 0.190544 3.60822e-20)
(0.194556 0.00215672 -1.78695e-20)
(0.974328 -0.119224 -5.63194e-20)
(0.352129 0.524087 0)
(0.916261 0.0151274 3.79671e-20)
(1.15137 0.635977 7.94461e-20)
(-0.0536885 -0.0397699 1.53591e-19)
(-0.0704699 0.0286785 -2.49163e-20)
(-0.0796498 -0.0823887 4.31809e-20)
(1.09741 0.0233164 -3.19342e-21)
(1.13302 -0.461631 0)
(1.06739 -0.735628 -3.69162e-20)
(0.698047 0.348079 0)
(0.0357305 -0.0408413 -1.11307e-19)
(1.06513 -0.0113828 2.00949e-21)
(-0.0341976 -0.0919293 -3.1272e-20)
(1.04673 0.0573861 -1.21715e-20)
(0.0980903 0.02778 5.3872e-20)
(0.82962 0.127584 0)
(1.36209 -0.0253652 5.07937e-20)
(0.0367083 0.0431505 -2.44637e-20)
(-0.236662 0.162782 -4.28544e-20)
(-0.219017 0.168434 0)
(0.0835047 -0.0165443 0)
(1.32147 -0.0139226 -1.53007e-20)
(0.383535 -0.0103875 1.63044e-19)
(1.26781 -0.727394 -2.81947e-20)
(0.936351 -0.0386233 4.31276e-20)
(1.07065 0.2514 -2.81591e-20)
(0.368298 -0.559282 1.3622e-19)
(1.54063 0.289466 -3.39137e-20)
(0.0732708 -0.0669376 3.86208e-20)
(0.208058 0.303946 1.92912e-19)
(0.100794 -0.0405705 -1.44447e-19)
(0.942995 -0.494153 -4.17008e-20)
(1.44596 0.39212 3.48896e-20)
(0.567227 -0.677417 4.69053e-20)
(1.10942 -0.0816028 -5.5932e-21)
(0.202368 0.0314563 6.02144e-20)
(1.16784 0.292821 -4.64936e-20)
(0.660781 0.638678 -3.97963e-20)
(1.33895 -0.624008 0)
(1.40807 0.521443 3.31857e-20)
(1.05382 -0.5295 -1.25395e-20)
(1.38198 0.607732 -9.99019e-20)
(1.17986 0.0285858 0)
(-0.051688 0.0647974 0)
(1.24708 0.729795 0)
(1.15611 0.032174 -3.84505e-21)
(0.741781 -0.30356 -2.01424e-19)
(0.476772 -0.0847574 0)
(-0.0563252 0.0658569 -2.53655e-20)
(1.0218 -0.247488 9.09142e-20)
(-0.290269 0.128876 0)
(0.321492 0.0236823 1.20726e-20)
(1.14472 0.0401036 0)
(1.40237 0.2809 0)
(1.186 0.0539951 4.99262e-21)
(0.361739 -0.294084 0)
(1.01345 0.150366 3.54381e-20)
(1.29782 0.290316 0)
(-0.0964549 0.044847 -3.43897e-23)
(0.812475 -0.398121 0)
(1.50999 0.345907 -5.18863e-20)
(1.23642 0.370552 -5.44105e-22)
(0.839465 0.645588 -9.59823e-21)
(1.01027 0.158618 -8.47754e-20)
(0.970108 -0.205005 -4.47117e-20)
(1.44495 0.300552 3.0519e-20)
(0.979946 0.113481 0)
(0.563944 -0.0728804 0)
)
;

boundaryField
{
    FrontBack
    {
        type            empty;
    }
    Top
    {
        type            noSlip;
    }
    In
    {
        type            fixedValue;
        value           uniform (1 0 0);
    }
    Bottom
    {
        type            noSlip;
    }
    Out
    {
        type            zeroGradient;
    }
    circle
    {
        type            noSlip;
    }
}


// ************************************************************************* //
