/*--------------------------------*- C++ -*----------------------------------*\
| =========                 |                                                 |
| \\      /  F ield         | OpenFOAM: The Open Source CFD Toolbox           |
|  \\    /   O peration     | Version:  2412                                  |
|   \\  /    A nd           | Website:  www.openfoam.com                      |
|    \\/     M anipulation  |                                                 |
\*---------------------------------------------------------------------------*/
FoamFile
{
    version     2.0;
    format      ascii;
    arch        "LSB;label=32;scalar=64";
    class       surfaceScalarField;
    location    "1155";
    object      phi;
}
// * * * * * * * * * * * * * * * * * * * * * * * * * * * * * * * * * * * * * //

dimensions      [0 3 -1 0 0 0 0];

oriented        oriented;

internalField   nonuniform List<scalar> 
1171
(
-0.9279337944517907
0.9279337943771946
0.7874281649394221
-1.099143231217748
0.3117150662306912
-0.191174186140434
-0.7648225629811396
0.9559967494316324
0.07206619834245515
-0.1167902955092987
-0.2122312707778189
0.329021566651207
-0.7874281569387742
0.0694808671936941
0.7179472897602139
0.8117050082027591
-0.1778554895311916
-0.6338495185719141
0.8743430094136283
-1.044109872889794
0.1697668635311114
-0.2853714734951598
-0.09732662451491039
0.382698098440645
-0.03607996701217744
0.5488820430001456
-0.5128020760883871
-0.5031643032624311
0.8244607740318914
-0.3212964712539176
-0.402161776164258
1.046036719250571
-0.1716937035537159
0.3931772548087664
0.0482570708082909
-0.4414343255602114
1.046055386744043
-1.866575238999486e-05
0.4433668867456748
-0.05018962328617108
1.056723382504707
-0.01066799491401639
0.5786234206305831
-0.7697976072176949
-0.7243632718184835
0.5568491132726124
0.1675141585241118
0.2188857822181599
-0.7220500865152818
0.5505560405045822
-0.9228577869299162
0.3723017456397951
-1.094175148262045
0.6864648972334285
0.4077102512442038
-0.5955281071322257
0.5594481449141689
0.01803409785808551
-0.2567890592858429
0.2387549595527398
-0.02358109588913715
-0.5213787968509136
0.5449598947268233
0.4003971183678007
-0.497723747431246
-0.9188833569354627
0.9414889163581855
-0.02260555949355505
1.06751315078169
-0.01078976775083062
0.9349152777983111
-1.116705188152467
0.1817899103543649
1.067003304083096
0.0005098463869841948
-0.6644627105893396
-0.05990055209484627
1.26234924279588
-0.8642330970277782
-0.3981161457271014
0.1481199468239259
-0.1093135142650976
-0.3264071290084758
0.4357206435442458
-0.2856579828048835
0.1912038534884861
0.09445413005701835
-0.5836050424171758
-0.5155381942009369
1.014013168687023
-0.07909788942025428
0.009929521769571903
0.8254611276466869
-0.8353906494454457
0.5718625866776554
0.690486654227079
0.4395685366129948
-0.03028096273251571
0.4306780808467431
-0.8078506401120833
-0.1025125804253674
0.9103632205118661
0.5022299551354403
0.2537103943039384
-0.7559403495489022
0.0064378265596275
0.5269215606295721
-0.533359386661945
-0.4898995991747364
-0.6042755542145498
-0.422799943310007
-0.6939052446340229
-0.0270237365456913
0.2701397339821572
-0.2431159967804198
-0.9246981359883008
-0.005069351984016996
0.9297674879545823
0.3086857971388395
0.07401229657681027
0.7620263135916759
0.04967869147520555
-0.533147514299977
-0.06238058603403595
0.04613303542263524
-0.8539836817979397
0.07480912088588956
0.8633654479108409
-0.938174568863008
-0.3469906217425502
-0.04150682068531764
0.3884974418274672
-0.6821029813803841
-0.242595155642538
-0.6329811601443135
0.7077902814038843
0.6121929433245681
0.2122678266190388
-0.5430830280305801
0.9457774966137182
-0.7791666146974657
-0.1666108820037781
0.01702033784576324
-0.0167584580217303
-0.0002618843652695639
-0.4032412533083488
-0.09448249353384412
-0.2408428128519484
0.8530357588290656
0.04666234071550725
0.3356083142716046
-0.3822706547133192
-0.4604546447438289
0.9626845986146602
0.680308817049689
-0.7828214053418301
0.3206355753507835
-0.01771893132246973
-0.3029166466630892
0.9307274479045745
-0.9307274479025124
-0.781751120311474
0.1104726811340156
-0.3227039528108636
-0.7499783878985851
0.7599079087034865
-0.08989667701076032
-0.1433536558877054
0.2332503329312751
0.8649945103668352
-0.0395333843173223
1.054200218361425
-0.8004898250645327
0.1862173371562209
-0.3156665043332132
0.1294491674564536
0.8591647220679035
-0.09713841028707842
-0.6117054836964378
-0.03900193883016096
0.6507074225025307
0.1236716548873339
-0.2309984544513204
0.10732679823524
0.8056885520782611
-0.9835440435787171
-0.4352484762899622
0.3295926878478262
0.1056557885117173
0.5317337025303198
-0.5553147963085248
1.021957411432309
-0.4561916253583534
-0.5657657861467936
0.5991574711044482
-0.7193946031105998
0.06684357256913265
0.6525510310905396
0.1032243703003585
0.5700040262892979
0.05530403581301602
-0.6253080621690242
0.1940755073511499
-0.08360282457850496
-0.4929666700358213
0.1459760449941353
0.05026637807588229
-0.8866600251486059
0.8363936470771445
-0.4731217354133855
-0.7134114400543313
0.048948734292917
0.4372147515706135
-0.006536669445744771
0.2998370394110156
-0.8552295978140425
0.5553925580040522
0.4157278490161151
0.5842721510228421
0.5604535680198194
-0.5143205348753033
-0.3672979132193315
0.03606997857483869
0.3312279353135293
0.6813551465632981
0.2493722998512443
-0.5655836136657567
0.5720214465079076
0.1108076255155597
0.8751694147383724
0.01015996323607284
-0.6218654419879511
-0.7492140403798507
0.7994804190880495
0.5310020975144671
0.07001549173949875
0.3023511644726903
-0.3723666561762588
-0.1675187924511906
0.4423716366178921
0.08454990999247559
0.8764120024660005
-0.80149014842639
-0.0749218541854457
0.6352996181085921
0.3104778820889885
-0.4302649874063341
0.5743851491398295
-0.5043696580652881
0.4172143822606756
0.1333416562386201
-0.04680336060318484
-0.5937660790381206
-0.137389017990638
0.731155097106421
-0.1497800688340906
-0.7809473811323047
-0.6109805421731832
0.3606840333113716
0.2502965098513339
0.6220730113284031
-0.6119130453760653
0.2391248911105782
1.01122546190111
0.04297475615506605
-0.7492140436431995
0.2336612704546593
-0.2166409413286687
0.6803088183514778
0.8018511039487062
-0.8018511039922045
0.8377112889514554
-0.8332411977771027
-0.004470091265683317
-0.445384252235545
0.8611120991289452
-0.1474062032923095
-0.3455604695208714
0.7347051232471945
-0.6684712672235047
-0.06623385593614274
-0.732992999773038
0.1392269218211586
0.1387522594602746
-0.6718997700977195
0.7828214116250756
-0.950340203993938
-0.3677965315108654
0.2918680710792252
0.07592845775797193
0.1459345046399425
-1.009804619019719
0.8638701143574649
0.4813222466584338
-0.0417537099800654
-0.3081642912787411
0.586471919680012
-0.2783076284712476
-0.7384632328365156
0.8843977441889772
-0.1570935978442964
0.7322231689636453
-0.8439606473595901
0.1117374779272473
0.9762591693131661
-0.5406832919215897
-0.435575877440026
0.7550477404039397
-0.06501631286039758
-0.03183851539960965
0.1861190093282351
-0.1542804926926883
-0.7757920243402757
-0.8442985555192084
0.0794759938627549
-0.7499783889391454
0.5137135314107337
-0.5552203550116986
0.09506400167940986
0.719831115453916
-0.8148951172105736
0.753684137577296
0.1742496483898056
0.5028992681870168
0.4971007318312465
-0.04970495721423281
-0.6105021448136035
0.660207102484609
0.8844770656575486
-0.008065064024154547
-0.7550477404107372
0.7994804155378716
0.1911659673623066
-0.4479550332781781
0.01839162766129054
0.003063901541205569
-0.02145553285878292
0.5885683813158471
-0.438083307963952
-0.1504850734478747
0.7179472864398817
0.01160051690830551
-0.1120753892238807
0.4371536913926217
0.1514146891411961
-0.01582832172229551
-0.005514435012294275
0.02134275735405505
-0.03163802050509693
-0.0002004690415564805
0.2439537319151452
-0.2616726659419097
-0.9589447040527964
0.001420853613116018
-0.1594642884974873
-0.1238428102021127
0.09437683630214316
0.7218417851270204
0.729042546527228
-0.1447703954570774
0.6693870512787431
-0.5743230542625587
-0.2117179504619943
0.3979352887750279
0.6954884699972359
0.02245881644416816
0.2417041087744864
-1.074945308719078
-0.9503402024870738
0.3021491341208326
0.7599079071181306
-0.2087883315720163
0.06543468398887815
-0.723262641589668
0.9108762381086339
-0.1876135966481153
0.4157100026569612
-0.02721256508395165
0.7713773322642364
0.2806053947259435
0.3731221309056361
0.07024473952024875
-0.658692082795718
0.6586920828266551
0.214596020973048
0.6957671940323039
-0.05554569420828386
0.3911539948432177
0.3801749536201518
-0.01593913613624922
0.03433077992464159
0.4490656176602708
0.0322566347818008
-0.7384632288676599
0.5340879162788497
0.2006172072208569
0.3042941040316731
-0.1181751007914307
-0.6954884696780372
0.1802397466083659
0.7306364935769933
-0.01013435143350487
-0.8137254361217366
0.8238597876090932
0.696308732288049
-0.7920907512758562
0.09578201903550575
-0.7536841356599714
-0.1495244111742941
0.2109074984866053
-0.0613830861933338
0.07714221123382529
-0.179785034860851
-0.1116792961419783
0.2914643312833921
-0.01010623612864837
-0.0057220752423581
0.7063297088976975
-0.7164640618707614
0.8853148810091546
0.07068186765700155
-0.3101735435924867
-0.5216380043478878
0.8318115483714793
0.1025343473705126
-0.1025343482061626
0.3279380510616537
0.4793867006371202
0.6082187524008004
-1.087605453325513
-0.1941421243822379
-0.5855809594852878
0.7797230838707594
0.01206512707714257
0.2211852073596814
0.3770225658041841
-0.2533509119627135
1.013662596096857
-0.5342758958731549
0.6654221639173465
0.9929271823605982
-0.3847084286411898
0.2296163659962386
0.8843977490953014
0.7127040467539532
0.2137214583450249
0.727767458119013
-0.7809473819858295
0.3413079148141829
-0.2814768053550298
0.2524491442172966
0.02902765723166888
0.851782924877668
-0.01437975037684203
-0.8374031746100074
-0.7020360515452511
0.7025458984752759
0.5546157457726061
-0.7020360521470582
-0.7127040467782245
0.70254589930209
-0.0338499172077321
0.9041075010048792
-0.01879262022142858
-0.6813551435472643
0.6122858871887282
0.06906925634219833
0.5388612017127697
0.5382257054452717
-1.077086907119338
0.4906553330715728
0.5230072626899038
0.5461031163135678
0.4592228178153985
-1.005325934201624
0.4973539268315951
0.4955732555417183
0.6122858851945189
-0.5256757881680022
-0.4660481433497039
-0.5557459208233779
-0.517546634282
-0.1241295370442764
-0.01256628049104427
0.01256628159996587
0.5102110243089771
0.5237623435676021
-1.04130897802857
0.5744164067707612
-0.2720652402022183
-0.8839289873492444
0.3432456944329117
-0.6327013522118894
0.3901061980960817
0.0002749014477248033
-0.8298748042868362
0.8295999027301548
0.4208782514320814
-0.02147508898731963
0.8732580158347393
-0.9431547042924745
-0.8353281607089799
0.05737895959308408
0.7779492010637324
0.5508231804084575
-0.4361703092470823
-0.1146528708456523
0.6499792680201126
-0.7290771581487484
0.8834541230264393
-0.8297745521654173
-0.053679570737632
-0.01145340555312265
-0.7900367437627235
-0.1105820693189848
0.7160973491381286
-0.6055152798114158
-0.9392557341245156
0.9278023291431814
-0.7367391833005777
0.689541626171608
0.04719755710563787
-0.8020921654279183
0.03052308031711334
0.7715690852077333
0.06168749687646984
0.04084684742654393
0.4331786891208923
0.05970058019761103
-0.8497552024113085
0.7900546220159712
-0.6434666962007556
0.5937617397491995
0.8907066601011612
0.07161662268205826
-0.9623232830401349
0.05537849724187439
-0.0490294472421977
0.3802573836624855
-0.3813650321728038
0.06569853083961093
0.8412848428058621
-0.8410099386991564
-0.7314102934909494
-0.8080374760276462
0.0180007313032558
-0.1681305037195266
-0.849053340179096
0.01927878799521241
0.6250017066133636
0.04438533928599189
0.01872755209151637
0.532095625887971
-0.8117803920832322
0.8423034736453875
0.5657657834842151
-0.8513498905647261
-0.8676391131054937
0.03646838823189573
-0.03760732906217945
0.835516476664943
-0.7979091476027638
-0.01945343459705877
-0.7690176194182714
0.5443198140286556
0.1519889123981056
-0.02373608952863073
0.8969941071229532
0.9851812857072919
0.8605449687880191
-0.8412661794039998
0.1473826009105314
-0.1473826035767963
-0.1181611048000544
-0.4718010509779781
0.03563074419335027
0.2714630349755831
0.0306860994277329
0.3847226534213419
0.877540673510775
0.004144221937649369
-0.01425047024246257
0.6586139977004295
0.3413860023259193
0.7835046624476605
-0.5836050463519608
-0.7780310032161323
-0.8122888940298941
-0.6799403406631461
0.6799403406389944
-0.1679548775768953
-0.1547490877987713
0.6015448209446621
-0.8115806112167187
0.2100357902729742
-0.4938294801008118
-0.5689080814517292
0.2781616999177898
-0.972066943357043
-0.8997799983768808
0.8461004282587704
-0.820064150424883
0.8380648832471189
0.648535482148924
0.1345619393463157
-0.7830974214894297
-0.7650913353954079
-0.146097437448819
0.7250888643986804
-0.5789914268793653
0.02223932460882366
-0.01430784410740223
0.01727138369916923
-0.002963538223742903
-0.3537607007121015
-0.1180403524283136
0.8797065214471319
0.7372107776306362
-0.238855570664278
-0.4983552067465225
0.6225579040497976
0.6854409020656957
-0.4708448861238542
-0.0006272426070702075
-0.2850307437161568
0.01956326273161354
0.7445541581556092
-0.7641174208546089
-0.3235314605869979
-0.07144525245080995
0.07563022279096629
-0.9639374676644542
0.1265342954655741
-0.6770186706351236
0.05343724643439065
0.6408320459069904
-0.6942692922118574
-0.7568880684626305
0.07986939777606201
0.5892615658707453
-0.6607068182749332
0.1559669291099993
-0.3357519708677956
-0.7722068209319396
0.007115485644132885
0.3712125035749504
0.6008414528253724
-0.02645630305627569
0.0236843323577779
-0.02368433503549024
-0.0180807249950552
-0.05306901933840986
-0.2284077825926616
0.01910607301944788
-0.01496182388589091
-0.7278214808423241
0.2794135518580683
0.678526753813167
-0.6905107288910727
0.01198397520892503
-0.5981138911923467
0.6515511339754517
0.6539325212589396
-0.06467095663108131
-0.6314892199727379
-0.1253988511868025
-1.049575401372711
0.01124223619382157
0.1361403743250101
-0.7082582208439084
-0.742071293031158
-0.763724795788602
0.3656086478721973
-0.4097238772840588
0.470361366301926
-0.06063748906604764
-0.6779561440215883
-0.03030207670540307
0.4997686361782423
0.7306801954653933
-0.2337085654640256
0.1098657579548024
0.956821982074193
0.4458131452186868
0.1331539412966821
-0.578967086524008
-0.67817297767655
0.0002168281940515679
-0.04452359717318165
0.03021576681798466
0.6376801174730308
-0.7750691386022656
-0.00292367133847273
0.002923670126649803
-0.5999802173077164
0.6490757550450965
-0.04909553747553496
-0.659445433550426
-0.1137455278942995
-0.6718289843372145
0.05008127859181886
0.6101258303883701
-0.1374592859497354
-0.8179264235921985
-0.5587412574374238
0.5706682452930518
-0.01192698546803762
0.6333237370326492
-0.6213397667092082
0.3222234625503019
0.2138748917015346
-0.5360983542894547
-0.1043911738965808
-0.603029958899267
-0.09123933449409728
-0.1541670716090366
-0.5086599784978022
0.4043307658646897
-0.4988132567363991
0.1259933803725592
0.6786304372213163
-0.804623817705465
0.5991574710956705
-0.3750627630391291
-0.03466111426669655
0.06017874689614167
-0.5688387248778287
0.5516470484300884
-0.0402923021319808
-0.5113547466481952
-0.3123845468475486
0.3050041441821364
0.007380404687606406
0.4511278299368817
0.1232885720883452
0.05090256066502261
-0.3159092812464748
0.1568567321201062
0.1590525494741049
0.253730993333923
-0.02006970973239346
-0.2975356523688422
-0.3139097136510748
0.3656876908009029
-0.05177797132379638
0.7919564614844699
-0.629592823861745
-0.02985260941702443
0.4995476001704507
0.2837189408333176
-0.5225745240757015
0.577448803024414
-0.5774488030246431
-0.2897887859225395
-0.5865187943494186
-0.2955132158184091
-0.586518794388476
-0.5967146371207757
-0.8384867301753305
0.1700154654882792
-0.5939620741263637
0.8212348840874433
-0.003573306170472995
0.1196085647531942
0.4812328885508061
0.09670377199504039
0.1853081320026383
-0.03611258845616993
-0.1491955433699452
-0.02329383150539301
0.5919678092633853
-0.9436677675357361
0.4220297625498624
-0.001147073219678329
-0.0001816254323344195
0.001328698180239776
-0.64366238939093
-0.1320220400069549
-0.4653670711817843
0.5985210112000217
-0.5036838687808455
-0.3143488715407654
-0.2544898435126334
-0.2722305487256742
-0.111868603601312
0.1118686051892094
0.1533133896552763
0.05759412428189897
0.1965503802097449
0.4502916626886947
-0.570736397579545
0.1053693298563074
0.251302052654706
0.4661616654770273
0.5338383351683123
0.6446642972720935
0.0801271651047897
0.003202490324844686
-0.08332965828409021
-0.2769327591568559
-0.5409936643161178
-0.5452316447622176
0.1143034621963478
-0.1262336545601304
0.0119301929756166
-0.1059797886198161
-0.3858527700032934
-0.04655041201171204
0.6566762460598564
-0.4992151633900777
-0.1444472260122091
-0.331107318225382
0.2883549553709021
0.1256398112678122
-0.6046251351499727
-0.2040674596660522
-0.2620918380648764
0.0004191788440723136
-0.4211918548996505
0.3217070491901682
0.09948480564412496
-0.0887263461653767
0.2916481027923792
-0.8959236587847658
-0.4577938915801081
0.6333824147824318
-0.7730072781419827
0.6686161043043468
0.3421245450456737
-0.1264144494470756
0.2254926022645308
-0.0990781535705777
0.030211360863875
-0.5861820490590084
0.02908498091872042
0.5570970679137276
-0.9006956607195971
0.5470661909160877
-0.665227295895729
-0.09756733867622829
0.1089438854500382
-0.108943888040658
-0.3165365296575804
0.3621603288570434
0.0180970538806371
0.02135308729370952
0.05877408575163832
0.5045457940295486
0.665575690766157
-0.7404975458777387
0.02441698743723685
0.02142932047493716
0.002255013298142178
-0.006325301869053506
0.006325303238896319
-0.4116470807742271
0.534935654702312
0.01536431787470885
-0.01536431778376679
-0.7924709617236984
-0.05981613376658145
0.1215036279884071
-0.4505907295082047
0.5559600607055643
0.4492740549074427
-0.4983695939808221
0.149839889352553
-0.1498398918452078
0.04423159121277783
-0.009900811427922164
-0.04090664016167737
-0.9771162212166891
0.5415403421253868
-0.4722845656771525
0.04084684546886141
0.5147654082666409
0.03069363961844601
-0.545459048059361
-0.6160120855008179
0.1167969177123141
-0.3296705609591967
0.01354317878563074
0.3161273806816617
-0.1537325694583413
-0.0799760037903753
-0.5408034385561301
-0.04537861557001613
0.1361403718110515
-0.04160177029773619
0.03867810453028828
0.08193763551492041
-0.08193763351532982
-0.534636587868124
0.4828586218467106
-0.4145176145717507
0.1613164013221977
0.6221882611593064
-0.09773420089455281
-0.006412965856047188
0.00641296683494295
0.5330052386094641
-0.07252951008919599
0.006409529851174748
0.02719648035723683
0.03452153828468121
0.6892553140400712
-0.7617848240615566
-0.6635937725834683
0.6337411587276355
-0.1101242441170851
0.3131371894285965
0.7458651502099678
-0.01808072330942814
-0.2662081467994667
0.148033043945339
-0.7446561831557104
0.4840965477322599
-0.4226203454463154
-0.101246683514626
0.003516369100205019
-0.01471282933509242
0.0223085603629368
0.4124315890424993
-0.1216848924734407
-0.3896698518386206
0.6290827219993866
0.01889160394809854
0.009543224903763999
-0.009543225813611007
-0.3569657137134326
-0.08434492789595936
-0.5605690395269119
0.5569957332926448
-0.238093747959642
0.4647870253693021
-0.1506293632208255
0.7292527835578411
0.6718372055380765
-0.04160176973209088
-0.6155072555253965
0.5597618165795406
0.2844550925865426
-0.2817028232305594
-0.002752270923973709
0.5450148185787214
0.09342154550215363
-0.03873378527010803
0.1970795324359483
-0.1583457468773725
0.1206714250582026
-0.1206714222608155
-0.8586968678467936
0.002457289009076017
-0.1129475502456612
0.1401440294051076
-0.131893869775533
0.1318938718626321
0.02142932493031937
-0.0244936896901088
0.6712430687899377
0.05939342856362353
-0.3230763005946031
-0.0627764697912416
-0.4712825611479949
-0.046652217501809
-0.1517025130834289
0.1517025157604623
-0.03909806196106794
0.1432997310645479
-0.1432997335791217
0.1368661155985169
-0.1368661129710739
-0.3157816061481764
-0.1144833812670587
0.2264973166481576
0.1030953705506826
0.03483708210148072
-0.8211890038887477
-0.1972754173378541
0.1702444645743718
0.02092150626488369
-0.2652249263547038
0.125843221116461
-0.1258432233307216
-0.4141414058643486
-0.08467185099037546
0.236388720023621
0.002366240733518114
0.04033586174694283
-0.5439099051996946
0.5777598224720278
-0.02415867809231888
-0.01493938563072592
-0.02670725564260304
0.01680644722953019
0.006540163378638786
-0.184293558606826
0.1777533949432528
-0.1075604359024901
-0.2281915374955346
-0.144760958468458
0.1447609610354905
0.07278965458281536
-0.072789653189367
-0.01932321092978682
-0.1086800364114749
0.1280032461597329
0.2381653406692399
-0.1829353829396707
-0.02145344589982598
0.02370844855767833
-0.1335369342906729
0.6163955516124681
-0.03907894952130386
0.4224231121299652
-0.04099561081556059
0.06233836956199054
-0.1535398687031524
0.1535398716000739
-0.6361423223110996
0.3087788107571723
-0.07916244689443602
-0.2346359502203439
0.003637489105207931
-0.1227449711020811
0.1630808335880184
0.1939164746507391
0.09754784966715986
0.09464207947081708
-0.06012054056061471
0.07272560314726786
0.04157785937631854
0.06393065032172975
0.1063138087766862
-0.09753269850478026
0.2073984499993759
0.0124668752882962
-0.1124945409289608
-0.1026807907545657
0.09744818670743408
0.005232601605086117
0.01188610832495737
-0.02210400621004247
0.03768290883110399
-0.03768290858775943
0.07433455431394491
-0.0549291559537283
0.05492915640109908
-0.2245083080289396
-0.05015617429171293
0.01163800965201219
-0.103173240788029
0.01619469054807881
0.1084372103908261
-0.1084372117511569
0.2934012785156904
-0.2713196271284276
0.1637591911583322
-0.05035568425802246
-0.2209639476764517
-0.0173261782712725
0.01732617750926472
0.3673083872150651
0.2852426442253217
-0.5274995548648852
-0.09396944007598457
-0.03226421094541023
0.5286247859875863
0.2114580675521139
-0.1686602963333586
-0.3821894786385474
0.07657870096905217
-0.1476826335787538
0.1872903570970616
-0.03960772273221552
-0.06685935353031282
0.06685935249286702
0.8224438511652915
-0.5605120999805471
-0.002052454043861012
0.01393856060906139
-0.02002527030155433
-0.2867711176643079
-0.01745651748453617
-0.01286708078300971
-0.1318407317280732
-0.572091573752583
0.5559544100492062
-0.5686846862231298
-0.006941559711225597
0.1001514138184827
-0.001837353464755888
0.01667375569606249
-0.1677079013526176
-0.3365789654970363
0.2334057243267016
-0.05442996672686896
0.03510675365945047
0.1319518272819854
0.1730523144082326
0.338070437349967
0.2766086479140266
-0.2784460025364457
-0.06400267622311927
-0.1548192960724298
-0.2210927646598193
0.07478671111114368
-0.01085606296588161
0.2141199440304444
-0.1974461889858937
-0.08623300541595821
0.1589586083905219
-0.3548097926573852
0.2087014256285882
-0.1925067347910664
0.0896705771745487
-0.4793404299328644
0.1744232778235925
0.1700539461556981
-0.2562869560948594
0.07253807995720983
-0.1943696758539979
0.1769131588693847
0.01740601659389313
0.1415525951842153
-0.03956484164616507
0.06624002155664359
0.4667652175626696
0.02035673717522034
-0.0772277080090838
0.05683229741493739
0.1254312026552798
-0.2607004766804514
-0.2309231825533221
0.559699157864179
0.1576051089836351
0.07878360732814128
0.07565328949059023
-0.03101514010395648
-0.001685466225864938
-0.00106681945330994
-0.03269050287394479
0.1711192080432464
-0.1780607684282321
-0.05491915065697828
0.02165601072352178
-0.1467382495401049
-0.05281708676033428
0.1524793179176717
0.2770849227348583
-0.04006493319520883
0.01512098332610349
-0.2554040988807008
-0.1301321894438372
0.2357524680004594
0.1791867004406714
0.1295921077482
0.02161320139370581
0.08892429080240544
0.05200180059338363
0.4525439933930414
0.01769946627710139
0.09723441169886882
0.04354657318234011
0.07182905359530897
-0.1153756247092346
-0.2422569097891027
-0.2007999013300248
-0.0201640506884232
-0.202255506417078
0.2755681535188466
)
;

boundaryField
{
    FrontBack
    {
        type            empty;
    }
    Top
    {
        type            calculated;
        value           uniform 0;
    }
    In
    {
        type            calculated;
        value           uniform -1;
    }
    Bottom
    {
        type            calculated;
        value           uniform 0;
    }
    Out
    {
        type            calculated;
        value           nonuniform List<scalar> 10(1.036758449180802 1.0645369903886 1.021794064162148 1.020361189541288 0.9974485231379283 1.013119889929838 1.033973367109909 1.062737561485188 0.8672375883010554 0.8820320102210721);
    }
    circle
    {
        type            calculated;
        value           uniform 0;
    }
}


// ************************************************************************* //
