/*--------------------------------*- C++ -*----------------------------------*\
| =========                 |                                                 |
| \\      /  F ield         | OpenFOAM: The Open Source CFD Toolbox           |
|  \\    /   O peration     | Version:  2412                                  |
|   \\  /    A nd           | Website:  www.openfoam.com                      |
|    \\/     M anipulation  |                                                 |
\*---------------------------------------------------------------------------*/
FoamFile
{
    version     2.0;
    format      ascii;
    arch        "LSB;label=32;scalar=64";
    class       volVectorField;
    location    "0.6";
    object      cellDisplacement;
}
// * * * * * * * * * * * * * * * * * * * * * * * * * * * * * * * * * * * * * //

dimensions      [0 1 0 0 0 0 0];

internalField   nonuniform List<vector> 
256
(
(0.018017 -0.00108524 0)
(0.0178374 0.00165453 0)
(0.0165198 0.00399451 0)
(0.0142201 0.00548137 0)
(0.0114305 0.0059514 0)
(0.00842981 0.00539867 0)
(0.00543632 0.00399903 0)
(0.00258037 0.00205326 0)
(0.0533868 -0.00246969 0)
(0.0528255 0.00519803 0)
(0.0491945 0.011727 0)
(0.0432842 0.016156 0)
(0.0358024 0.0179081 0)
(0.0277409 0.0170524 0)
(0.019531 0.0138578 0)
(0.0115001 0.00892441 0)
(0.0869367 -0.00304454 0)
(0.085796 0.00889851 0)
(0.0804133 0.0191332 0)
(0.0715662 0.026251 0)
(0.0605603 0.0296039 0)
(0.0484284 0.029062 0)
(0.036028 0.0250477 0)
(0.0237024 0.0182014 0)
(0.118864 -0.00284568 0)
(0.117137 0.0128748 0)
(0.110183 0.0263457 0)
(0.0991834 0.0360551 0)
(0.0854223 0.0411368 0)
(0.0702171 0.0414691 0)
(0.054541 0.0374305 0)
(0.0387681 0.0296388 0)
(0.149315 -0.00187232 0)
(0.146902 0.017178 0)
(0.138779 0.0336087 0)
(0.126074 0.0457385 0)
(0.110333 0.0527351 0)
(0.0927895 0.0543112 0)
(0.074662 0.0509111 0)
(0.0562907 0.0430788 0)
(0.178431 -8.38608e-05 0)
(0.175389 0.0219778 0)
(0.166235 0.0410613 0)
(0.152356 0.0555813 0)
(0.135088 0.0645161 0)
(0.115922 0.0677088 0)
(0.0960313 0.0654839 0)
(0.0757723 0.05835 0)
(0.206344 0.00259669 0)
(0.202597 0.0273548 0)
(0.192745 0.0489607 0)
(0.177876 0.0656924 0)
(0.159629 0.0767225 0)
(0.139361 0.0817804 0)
(0.118273 0.0811622 0)
(0.0967902 0.0754164 0)
(0.23314 0.00628068 0)
(0.228775 0.0335457 0)
(0.218193 0.0574043 0)
(0.202706 0.0763638 0)
(0.183766 0.0895001 0)
(0.162834 0.0966604 0)
(0.141035 0.0980342 0)
(0.118802 0.0941975 0)
(0.258957 0.0111532 0)
(0.253865 0.0406506 0)
(0.242715 0.066685 0)
(0.226715 0.0877415 0)
(0.207404 0.103118 0)
(0.186116 0.112547 0)
(0.16393 0.116228 0)
(0.141371 0.114811 0)
(0.283757 0.0173948 0)
(0.277917 0.0489541 0)
(0.26619 0.0769469 0)
(0.249881 0.100163 0)
(0.230377 0.117806 0)
(0.20893 0.129711 0)
(0.186632 0.136002 0)
(0.163916 0.137363 0)
(0.307482 0.0252768 0)
(0.300798 0.0586384 0)
(0.288601 0.0885841 0)
(0.272063 0.113871 0)
(0.252433 0.133924 0)
(0.230986 0.148465 0)
(0.20863 0.157662 0)
(0.185905 0.162115 0)
(0.329961 0.0351222 0)
(0.322432 0.070158 0)
(0.309768 0.101872 0)
(0.292986 0.129307 0)
(0.273304 0.151809 0)
(0.251747 0.16922 0)
(0.229358 0.181522 0)
(0.206476 0.189443 0)
(0.351 0.0474388 0)
(0.342544 0.0839056 0)
(0.329338 0.117343 0)
(0.312317 0.146859 0)
(0.292388 0.171981 0)
(0.270609 0.192393 0)
(0.247832 0.20814 0)
(0.224586 0.219786 0)
(0.369882 0.0628245 0)
(0.36038 0.100375 0)
(0.346541 0.135306 0)
(0.329089 0.16691 0)
(0.308792 0.194711 0)
(0.286444 0.21841 0)
(0.262811 0.237976 0)
(0.238397 0.253797 0)
(0.385302 0.0813776 0)
(0.37458 0.119631 0)
(0.35992 0.155822 0)
(0.341764 0.189435 0)
(0.320667 0.220018 0)
(0.297165 0.247292 0)
(0.271907 0.271048 0)
(0.245216 0.291454 0)
(0.393721 0.102281 0)
(0.3818 0.14038 0)
(0.366202 0.177127 0)
(0.347077 0.212168 0)
(0.32461 0.245166 0)
(0.299016 0.275803 0)
(0.270543 0.303783 0)
(0.239464 0.328838 0)
(0.00261321 0.0019745 0)
(0.00481428 0.00386715 0)
(0.0064095 0.00580899 0)
(0.00742297 0.00797997 0)
(0.00772613 0.0103566 0)
(0.00722568 0.012842 0)
(0.00586191 0.0151407 0)
(0.0037334 0.0169767 0)
(0.0114339 0.00884659 0)
(0.0169909 0.0142561 0)
(0.0208701 0.020002 0)
(0.0229119 0.0262275 0)
(0.0229787 0.0329702 0)
(0.0208194 0.0397977 0)
(0.0164161 0.0460859 0)
(0.0100546 0.0508973 0)
(0.0232153 0.0182721 0)
(0.0310585 0.0269322 0)
(0.0361193 0.0361066 0)
(0.0383506 0.0460934 0)
(0.0374364 0.0566697 0)
(0.0331308 0.067197 0)
(0.0254814 0.0765706 0)
(0.0150774 0.0836106 0)
(0.0376694 0.0301814 0)
(0.0466234 0.041714 0)
(0.0519779 0.054107 0)
(0.0535295 0.0674004 0)
(0.050996 0.0812808 0)
(0.0441343 0.0947817 0)
(0.0331454 0.106583 0)
(0.0188887 0.115152 0)
(0.0543014 0.0443585 0)
(0.0634166 0.0585745 0)
(0.0680993 0.0737869 0)
(0.0682769 0.0900422 0)
(0.0635697 0.106683 0)
(0.0538399 0.122577 0)
(0.0394557 0.136065 0)
(0.0215367 0.14553 0)
(0.0727641 0.0607643 0)
(0.0810153 0.0773314 0)
(0.0842639 0.0951361 0)
(0.0823728 0.113863 0)
(0.0750263 0.132739 0)
(0.062183 0.150354 0)
(0.0444191 0.16504 0)
(0.0230358 0.174862 0)
(0.0925091 0.0792173 0)
(0.0991231 0.0980132 0)
(0.10013 0.117969 0)
(0.0956154 0.138793 0)
(0.085239 0.159373 0)
(0.0691077 0.178206 0)
(0.0479799 0.193393 0)
(0.0233573 0.203182 0)
(0.113127 0.0997541 0)
(0.117245 0.120437 0)
(0.115447 0.142354 0)
(0.107778 0.164784 0)
(0.094037 0.18654 0)
(0.0745008 0.205951 0)
(0.0500644 0.221185 0)
(0.0224108 0.230577 0)
(0.13404 0.122302 0)
(0.135002 0.144735 0)
(0.129786 0.168164 0)
(0.118554 0.191785 0)
(0.101194 0.214155 0)
(0.0781561 0.233629 0)
(0.0505395 0.248397 0)
(0.0200515 0.257096 0)
(0.154744 0.147033 0)
(0.15183 0.170859 0)
(0.142693 0.195471 0)
(0.12751 0.21972 0)
(0.106351 0.242165 0)
(0.079848 0.261126 0)
(0.0491724 0.27507 0)
(0.0160726 0.282804 0)
(0.174498 0.174073 0)
(0.167143 0.199029 0)
(0.153566 0.224303 0)
(0.134148 0.248632 0)
(0.109084 0.270527 0)
(0.0791757 0.288512 0)
(0.0456404 0.301187 0)
(0.0101714 0.307651 0)
(0.192485 0.203735 0)
(0.180035 0.229427 0)
(0.161646 0.254827 0)
(0.13774 0.278587 0)
(0.10878 0.299306 0)
(0.0756045 0.315665 0)
(0.0394943 0.326608 0)
(0.00202703 0.33142 0)
(0.207412 0.23646 0)
(0.18933 0.26235 0)
(0.165702 0.287166 0)
(0.137233 0.309525 0)
(0.104523 0.328252 0)
(0.0684227 0.34232 0)
(0.0301582 0.351004 0)
(-0.00896598 0.353893 0)
(0.21731 0.272684 0)
(0.193029 0.297956 0)
(0.164037 0.321122 0)
(0.1312 0.341009 0)
(0.0951333 0.356808 0)
(0.0566748 0.367891 0)
(0.0167637 0.373833 0)
(-0.0234151 0.374467 0)
(0.218926 0.312298 0)
(0.18814 0.335554 0)
(0.154184 0.355472 0)
(0.117691 0.371531 0)
(0.0792081 0.383397 0)
(0.0393461 0.390809 0)
(-0.00118779 0.393593 0)
(-0.0416779 0.391713 0)
(0.206079 0.350726 0)
(0.17071 0.369237 0)
(0.133696 0.384191 0)
(0.0953952 0.395446 0)
(0.0561754 0.402892 0)
(0.0164146 0.406458 0)
(-0.0235044 0.40611 0)
(-0.0631969 0.401851 0)
)
;

boundaryField
{
    walls
    {
        type            cellMotion;
        value           uniform (0 0 0);
    }
    cylinder
    {
        type            cellMotion;
        value           nonuniform List<vector> 
16
(
(0.393721 0.102281 0)
(0.3818 0.14038 0)
(0.366202 0.177127 0)
(0.347077 0.212168 0)
(0.32461 0.245166 0)
(0.299016 0.275803 0)
(0.270543 0.303783 0)
(0.239464 0.328838 0)
(0.206079 0.350726 0)
(0.17071 0.369237 0)
(0.133696 0.384191 0)
(0.0953952 0.395446 0)
(0.0561754 0.402892 0)
(0.0164146 0.406458 0)
(-0.0235044 0.40611 0)
(-0.0631969 0.401851 0)
)
;
    }
    outlet
    {
        type            cellMotion;
        value           uniform (0 0 0);
    }
    inlet
    {
        type            cellMotion;
        value           nonuniform List<vector> 0();
    }
    frontAndBack
    {
        type            empty;
    }
    procBoundary1to0
    {
        type            processor;
        value           nonuniform List<vector> 
16
(
(0.0169852 -0.00372588 0)
(0.0509187 -0.0100351 0)
(0.0836414 -0.0150459 0)
(0.115198 -0.018844 0)
(0.145585 -0.021481 0)
(0.174936 -0.0229691 0)
(0.20327 -0.0232806 0)
(0.230687 -0.0223211 0)
(0.257214 -0.0199612 0)
(0.282936 -0.0159735 0)
(0.307779 -0.0100821 0)
(0.331548 -0.00193923 0)
(0.353994 0.00901898 0)
(0.374527 0.0234531 0)
(0.391732 0.0416869 0)
(0.401851 0.0631969 0)
)
;
    }
    procBoundary1to3
    {
        type            processor;
        value           nonuniform List<vector> 
16
(
(0.00107994 0.0180338 0)
(0.00244725 0.0534732 0)
(0.0030184 0.0870321 0)
(0.00280643 0.118995 0)
(0.00183996 0.149422 0)
(4.41886e-05 0.178549 0)
(-0.00262032 0.206419 0)
(-0.00631343 0.233211 0)
(-0.0111567 0.258977 0)
(-0.0174188 0.283776 0)
(-0.0252736 0.307465 0)
(-0.0351404 0.329939 0)
(-0.0474271 0.350975 0)
(-0.0628437 0.369858 0)
(-0.0813876 0.385297 0)
(-0.102281 0.393721 0)
)
;
    }
}


// ************************************************************************* //
