/*--------------------------------*- C++ -*----------------------------------*\
| =========                 |                                                 |
| \\      /  F ield         | OpenFOAM: The Open Source CFD Toolbox           |
|  \\    /   O peration     | Version:  2412                                  |
|   \\  /    A nd           | Website:  www.openfoam.com                      |
|    \\/     M anipulation  |                                                 |
\*---------------------------------------------------------------------------*/
FoamFile
{
    version     2.0;
    format      ascii;
    arch        "LSB;label=32;scalar=64";
    class       surfaceScalarField;
    location    "0.6";
    object      meshPhi;
}
// * * * * * * * * * * * * * * * * * * * * * * * * * * * * * * * * * * * * * //

dimensions      [0 3 -1 0 0 0 0];

internalField   nonuniform List<scalar> 
480
(
0.00267584
-0.00258537
0.00273868
-0.00058514
0.00280591
0.00168612
0.00272121
0.00356781
0.00244875
0.00455434
0.00199684
0.00458389
0.00126565
0.00375198
0.00286006
0.000963572
0.00791457
-0.00470076
0.00805623
-0.000960873
0.00819493
0.00302515
0.00794909
0.00625997
0.00716991
0.00796985
0.00598562
0.00813486
0.00409935
0.00697174
0.00554957
0.00323486
0.012917
-0.00634018
0.0130982
-0.00118208
0.0130912
0.00393752
0.0126763
0.00802728
0.0116225
0.0103601
0.00998672
0.0107806
0.00748628
0.00957328
0.00796218
0.00623231
0.0177158
-0.00743971
0.0179042
-0.00129223
0.0175744
0.0045909
0.0170072
0.00928592
0.0159159
0.0120785
0.0140591
0.0127213
0.0113797
0.0116654
0.0101289
0.00999831
0.0223394
-0.00812068
0.0225362
-0.00133715
0.0220187
0.00508582
0.021382
0.0102679
0.0202261
0.0133288
0.0183403
0.0141342
0.015797
0.0133333
0.0120249
0.014566
0.0267183
-0.00846717
0.0269545
-0.00133102
0.0265252
0.00540898
0.025906
0.01086
0.0247276
0.0141168
0.0230402
0.0151895
0.0207948
0.0146987
0.0136164
0.0199245
0.030792
-0.00856375
0.0310655
-0.00123738
0.0308995
0.00560567
0.0303821
0.0110823
0.029441
0.0144338
0.0281944
0.0157674
0.0263061
0.0155357
0.0146264
0.0258656
0.0347967
-0.00840528
0.0350521
-0.00106496
0.035101
0.0056863
0.0347645
0.010946
0.0342154
0.0141978
0.0334903
0.0156385
0.0320994
0.015653
0.0150503
0.0322335
0.0389258
-0.00792963
0.0391296
-0.00082385
0.0392242
0.00559251
0.039162
0.0104981
0.0390594
0.0135558
0.0388175
0.0150271
0.0381667
0.0153335
0.0151502
0.0391554
0.0430827
-0.00725599
0.0432249
-0.000644393
0.0434221
0.00524935
0.0437726
0.00974931
0.0442554
0.0126456
0.0446329
0.0142677
0.0448795
0.0149595
0.0151316
0.047001
0.0471733
-0.00646177
0.0473262
-0.000567668
0.0478436
0.00465715
0.0487838
0.00869238
0.0500662
0.0114718
0.0513569
0.0132621
0.0526093
0.0142363
0.0146444
0.0558515
0.0512696
-0.0055783
0.0516253
-0.000590046
0.0526285
0.00389413
0.0543441
0.00742742
0.0565712
0.00997922
0.058965
0.0117576
0.061362
0.0128356
0.0133905
0.0654672
0.0554679
-0.0040231
0.056198
-0.000121692
0.057864
0.00339596
0.0604211
0.00621547
0.0636099
0.00834646
0.0671628
0.009912
0.0708731
0.010975
0.0116158
0.0758682
0.0596034
-0.00157177
0.0608693
0.00101015
0.0632763
0.00332574
0.0666679
0.00524967
0.0708364
0.0067792
0.0755618
0.00796938
0.0806636
0.008843
0.00945793
0.0867499
0.0631745
0.00102757
0.0649819
0.00219959
0.0680225
0.00328807
0.072182
0.00423475
0.0772914
0.00503682
0.0831743
0.00570484
0.0896225
0.00622734
0.006645
0.0967635
0.0613528
0.0637457
0.0672783
0.0718193
0.077204
0.0832504
0.0897246
0.0964316
0.0012854
-0.00292274
0.00168707
-0.00455691
0.00187016
-0.00588011
0.00210789
-0.00663493
0.00236707
-0.00711112
0.0024518
-0.00685855
0.00232452
-0.00561838
-0.00374727
0.00400178
-0.00652087
0.00517585
-0.00916138
0.00573989
-0.0114907
0.00639338
-0.0127122
0.00708832
-0.0132541
0.00743485
-0.0126275
0.00727361
-0.0104627
-0.00706653
0.0071446
-0.010745
0.00889481
-0.0138632
0.00989794
-0.0168155
0.010831
-0.0183293
0.0117812
-0.0186469
0.0123595
-0.0174042
0.0124525
-0.0143174
-0.00971712
0.0108227
-0.0152916
0.0129311
-0.0185155
0.014332
-0.0217065
0.0154307
-0.0231969
0.0164993
-0.0231133
0.0170609
-0.0211256
0.0173706
-0.0170567
-0.0114888
0.0151763
-0.0200666
0.0173931
-0.023137
0.0190078
-0.0260887
0.0201789
-0.0272973
0.0212394
-0.026707
0.0216743
-0.0240088
0.0220702
-0.0191045
-0.0126786
0.0203205
-0.0247134
0.0224177
-0.0275557
0.0239176
-0.029925
0.0249746
-0.0304105
0.0258287
-0.0290621
0.0262584
-0.0256919
0.0267422
-0.0202851
-0.0133194
0.0260677
-0.0286401
0.0279497
-0.0312299
0.0291158
-0.0329878
0.0298261
-0.0327095
0.0303672
-0.030576
0.0308168
-0.0266028
0.0312827
-0.0207574
-0.0134754
0.0321374
-0.031534
0.033748
-0.0337272
0.0346463
-0.0349766
0.0349725
-0.0341773
0.0351781
-0.0314365
0.035426
-0.026894
0.0356384
-0.0206511
-0.0132513
0.0386297
-0.0333713
0.0398325
-0.0351237
0.0404205
-0.0357325
0.0404447
-0.0344499
0.0402446
-0.0313238
0.0400324
-0.0264208
0.039874
-0.0199628
-0.0126176
0.0459626
-0.03419
0.046426
-0.0354084
0.0464233
-0.035221
0.0459754
-0.0333961
0.0452794
-0.0300167
0.0445446
-0.0250684
0.0440339
-0.0187122
-0.011639
0.0541332
-0.0334434
0.0535594
-0.0341604
0.0526143
-0.033249
0.0514156
-0.0309361
0.0501523
-0.0274111
0.0489683
-0.0226393
0.0481366
-0.0167326
-0.0102968
0.0627777
-0.0307371
0.0610213
-0.0308219
0.0589767
-0.0293394
0.0569123
-0.0267448
0.0550267
-0.0233061
0.0533834
-0.0190262
0.0521957
-0.0139167
-0.00847031
0.0718701
-0.0258072
0.0687449
-0.0252842
0.0655193
-0.0233697
0.0624778
-0.0207372
0.0599029
-0.017675
0.057785
-0.0142546
0.0562384
-0.0103036
-0.00607341
0.0814048
-0.0181973
0.076674
-0.017442
0.0720849
-0.0155043
0.0679376
-0.013269
0.0645364
-0.0109172
0.0619087
-0.00848711
0.0601119
-0.00585964
-0.00308287
0.0901279
-0.00785179
0.0836407
-0.00714835
0.0776779
-0.00598824
0.072503
-0.00479052
0.0683043
-0.00357521
0.0652212
-0.00233959
0.0633195
-0.00109328
0.000147104
0.0883297
0.0807719
0.0742179
0.0688147
0.0646519
0.0618239
0.0603547
)
;

boundaryField
{
    walls
    {
        type            calculated;
        value           uniform 0;
    }
    cylinder
    {
        type            calculated;
        value           nonuniform List<scalar> 
16
(
1.36561e-11
-1.6769e-11
-5.56385e-12
1.0119e-11
-2.85002e-11
2.06452e-11
3.19705e-11
-1.61861e-11
1.61854e-11
-3.19704e-11
-2.06466e-11
2.84983e-11
-1.0121e-11
5.56231e-12
1.67673e-11
-1.36581e-11
)
;
    }
    outlet
    {
        type            calculated;
        value           uniform 0;
    }
    inlet
    {
        type            calculated;
        value           nonuniform List<scalar> 0();
    }
    frontAndBack
    {
        type            empty;
    }
    procBoundary1to0
    {
        type            processor;
        value           nonuniform List<scalar> 
16
(
-0.00229672
-0.00709143
-0.0120828
-0.0169546
-0.0215903
-0.02604
-0.0303508
-0.0345874
-0.0388076
-0.0430324
-0.0472525
-0.0514387
-0.0555537
-0.0594271
-0.0626527
-0.0602068
)
;
    }
    procBoundary1to3
    {
        type            processor;
        value           nonuniform List<scalar> 
16
(
0.00250924
0.0077121
0.013047
0.0181843
0.0230102
0.0275668
0.0318905
0.0360454
0.0401057
0.0441129
0.0480409
0.0519019
0.055759
0.0594959
0.0626985
0.0602293
)
;
    }
}


// ************************************************************************* //
