/*--------------------------------*- C++ -*----------------------------------*\
| =========                 |                                                 |
| \\      /  F ield         | OpenFOAM: The Open Source CFD Toolbox           |
|  \\    /   O peration     | Version:  2412                                  |
|   \\  /    A nd           | Website:  www.openfoam.com                      |
|    \\/     M anipulation  |                                                 |
\*---------------------------------------------------------------------------*/
FoamFile
{
    version     2.0;
    format      ascii;
    arch        "LSB;label=32;scalar=64";
    class       pointVectorField;
    location    "0.6";
    object      pointDisplacement;
}
// * * * * * * * * * * * * * * * * * * * * * * * * * * * * * * * * * * * * * //

dimensions      [0 1 0 0 0 0 0];

internalField   nonuniform List<vector> 
578
(
(0 0 0)
(0 0 0)
(0 0 0)
(0 0 0)
(0 0 0)
(0 0 0)
(0 0 0)
(0 0 0)
(0 0 0)
(0.0348658 -0.00434818 0)
(0.0355672 0.000817628 0)
(0.034149 0.00565119 0)
(0.0308543 0.00935923 0)
(0.0262208 0.0113987 0)
(0.0208704 0.0115989 0)
(0.0152852 0.0100871 0)
(0.00974469 0.00720212 0)
(0.00685574 0.00531321 0)
(0.0687592 -0.00766391 0)
(0.0697825 0.00214135 0)
(0.0671062 0.0112464 0)
(0.0611605 0.0183333 0)
(0.052842 0.0225021 0)
(0.0431602 0.0234293 0)
(0.0329467 0.0212732 0)
(0.0226936 0.0165174 0)
(0.0172391 0.0133861 0)
(0.101197 -0.00995572 0)
(0.102226 0.00396933 0)
(0.0984258 0.0168203 0)
(0.0903787 0.0269607 0)
(0.0792215 0.0332816 0)
(0.0661896 0.0353411 0)
(0.0523283 0.0332754 0)
(0.03828 0.0276011 0)
(0.0305812 0.0238679 0)
(0.132276 -0.0112671 0)
(0.133093 0.00633495 0)
(0.128289 0.0225093 0)
(0.118593 0.0354499 0)
(0.105291 0.0439344 0)
(0.0897257 0.0474354 0)
(0.0730838 0.0460562 0)
(0.0560987 0.0402944 0)
(0.0464805 0.0365865 0)
(0.162101 -0.011604 0)
(0.162543 0.00930339 0)
(0.15686 0.0284642 0)
(0.145896 0.0440092 0)
(0.130999 0.0546587 0)
(0.11357 0.0598391 0)
(0.0948865 0.0596303 0)
(0.0757307 0.0544895 0)
(0.0644983 0.0513937 0)
(0.190777 -0.0109333 0)
(0.190721 0.0129667 0)
(0.184272 0.0348467 0)
(0.172335 0.0528346 0)
(0.156271 0.0656425 0)
(0.137536 0.0727017 0)
(0.117434 0.0740598 0)
(0.0967632 0.070138 0)
(0.0841803 0.0681826 0)
(0.218389 -0.00917735 0)
(0.217741 0.0174512 0)
(0.210604 0.0418246 0)
(0.197908 0.062115 0)
(0.181025 0.0770823 0)
(0.161432 0.0861837 0)
(0.140412 0.0894338 0)
(0.118772 0.0872358 0)
(0.105044 0.0868862 0)
(0.245026 -0.00620607 0)
(0.243708 0.0229154 0)
(0.23591 0.0495794 0)
(0.222607 0.0720572 0)
(0.205176 0.0891918 0)
(0.185062 0.100472 0)
(0.163514 0.105889 0)
(0.14133 0.105848 0)
(0.126596 0.107505 0)
(0.27074 -0.0018385 0)
(0.268645 0.0295467 0)
(0.260192 0.0583169 0)
(0.246397 0.0828915 0)
(0.228619 0.102216 0)
(0.208236 0.115809 0)
(0.186434 0.123641 0)
(0.164004 0.126126 0)
(0.148309 0.130118 0)
(0.29551 0.00416408 0)
(0.292507 0.0375751 0)
(0.283394 0.0682879 0)
(0.269203 0.0948974 0)
(0.251211 0.116448 0)
(0.230708 0.132487 0)
(0.208824 0.142976 0)
(0.186308 0.148305 0)
(0.169594 0.154894 0)
(0.319212 0.012106 0)
(0.315184 0.047308 0)
(0.305414 0.0798193 0)
(0.290871 0.108413 0)
(0.272716 0.132233 0)
(0.25214 0.150862 0)
(0.230206 0.164228 0)
(0.207624 0.172698 0)
(0.189711 0.1821 0)
(0.341642 0.0224234 0)
(0.336497 0.0591655 0)
(0.326032 0.0933251 0)
(0.311116 0.123848 0)
(0.292765 0.149991 0)
(0.272031 0.171353 0)
(0.249908 0.187824 0)
(0.22709 0.199727 0)
(0.207655 0.212132 0)
(0.362364 0.0356993 0)
(0.355961 0.0736463 0)
(0.34471 0.109238 0)
(0.329332 0.141606 0)
(0.31066 0.170114 0)
(0.289574 0.194371 0)
(0.266943 0.214227 0)
(0.24343 0.229919 0)
(0.22189 0.245484 0)
(0.38037 0.052355 0)
(0.372543 0.0910644 0)
(0.360362 0.12779 0)
(0.344337 0.161869 0)
(0.325089 0.192765 0)
(0.303281 0.2201 0)
(0.279599 0.243671 0)
(0.254605 0.263553 0)
(0.229971 0.282407 0)
(0.393159 0.072168 0)
(0.383856 0.110941 0)
(0.37063 0.148257 0)
(0.353746 0.183649 0)
(0.333537 0.216704 0)
(0.310376 0.247075 0)
(0.284673 0.274487 0)
(0.256802 0.29879 0)
(0.227442 0.3208 0)
(0.398746 0.0829386 0)
(0.388697 0.121623 0)
(0.374904 0.159136 0)
(0.3575 0.195117 0)
(0.336654 0.229219 0)
(0.312566 0.261113 0)
(0.285467 0.290492 0)
(0.255619 0.317074 0)
(0.22331 0.340602 0)
(0 0 0)
(0 0 0)
(0 0 0)
(0 0 0)
(0 0 0)
(0 0 0)
(0 0 0)
(0 0 0)
(0 0 0)
(0.0348658 -0.00434818 0)
(0.0355672 0.000817628 0)
(0.034149 0.00565119 0)
(0.0308543 0.00935923 0)
(0.0262208 0.0113987 0)
(0.0208704 0.0115989 0)
(0.0152852 0.0100871 0)
(0.00974469 0.00720212 0)
(0.00685574 0.00531321 0)
(0.0687592 -0.00766391 0)
(0.0697825 0.00214135 0)
(0.0671062 0.0112464 0)
(0.0611605 0.0183333 0)
(0.052842 0.0225021 0)
(0.0431602 0.0234293 0)
(0.0329467 0.0212732 0)
(0.0226936 0.0165174 0)
(0.0172391 0.0133861 0)
(0.101197 -0.00995572 0)
(0.102226 0.00396933 0)
(0.0984258 0.0168203 0)
(0.0903787 0.0269607 0)
(0.0792215 0.0332816 0)
(0.0661896 0.0353411 0)
(0.0523283 0.0332754 0)
(0.03828 0.0276011 0)
(0.0305812 0.0238679 0)
(0.132276 -0.0112671 0)
(0.133093 0.00633495 0)
(0.128289 0.0225093 0)
(0.118593 0.0354499 0)
(0.105291 0.0439344 0)
(0.0897257 0.0474354 0)
(0.0730838 0.0460562 0)
(0.0560987 0.0402944 0)
(0.0464805 0.0365865 0)
(0.162101 -0.011604 0)
(0.162543 0.00930339 0)
(0.15686 0.0284642 0)
(0.145896 0.0440092 0)
(0.130999 0.0546587 0)
(0.11357 0.0598391 0)
(0.0948865 0.0596303 0)
(0.0757307 0.0544895 0)
(0.0644983 0.0513937 0)
(0.190777 -0.0109333 0)
(0.190721 0.0129667 0)
(0.184272 0.0348467 0)
(0.172335 0.0528346 0)
(0.156271 0.0656425 0)
(0.137536 0.0727017 0)
(0.117434 0.0740598 0)
(0.0967632 0.070138 0)
(0.0841803 0.0681826 0)
(0.218389 -0.00917735 0)
(0.217741 0.0174512 0)
(0.210604 0.0418246 0)
(0.197908 0.062115 0)
(0.181025 0.0770823 0)
(0.161432 0.0861837 0)
(0.140412 0.0894338 0)
(0.118772 0.0872358 0)
(0.105044 0.0868862 0)
(0.245026 -0.00620607 0)
(0.243708 0.0229154 0)
(0.23591 0.0495794 0)
(0.222607 0.0720572 0)
(0.205176 0.0891918 0)
(0.185062 0.100472 0)
(0.163514 0.105889 0)
(0.14133 0.105848 0)
(0.126596 0.107505 0)
(0.27074 -0.0018385 0)
(0.268645 0.0295467 0)
(0.260192 0.0583169 0)
(0.246397 0.0828915 0)
(0.228619 0.102216 0)
(0.208236 0.115809 0)
(0.186434 0.123641 0)
(0.164004 0.126126 0)
(0.148309 0.130118 0)
(0.29551 0.00416408 0)
(0.292507 0.0375751 0)
(0.283394 0.0682879 0)
(0.269203 0.0948974 0)
(0.251211 0.116448 0)
(0.230708 0.132487 0)
(0.208824 0.142976 0)
(0.186308 0.148305 0)
(0.169594 0.154894 0)
(0.319212 0.012106 0)
(0.315184 0.047308 0)
(0.305414 0.0798193 0)
(0.290871 0.108413 0)
(0.272716 0.132233 0)
(0.25214 0.150862 0)
(0.230206 0.164228 0)
(0.207624 0.172698 0)
(0.189711 0.1821 0)
(0.341642 0.0224234 0)
(0.336497 0.0591655 0)
(0.326032 0.0933251 0)
(0.311116 0.123848 0)
(0.292765 0.149991 0)
(0.272031 0.171353 0)
(0.249908 0.187824 0)
(0.22709 0.199727 0)
(0.207655 0.212132 0)
(0.362364 0.0356993 0)
(0.355961 0.0736463 0)
(0.34471 0.109238 0)
(0.329332 0.141606 0)
(0.31066 0.170114 0)
(0.289574 0.194371 0)
(0.266943 0.214227 0)
(0.24343 0.229919 0)
(0.22189 0.245484 0)
(0.38037 0.052355 0)
(0.372543 0.0910644 0)
(0.360362 0.12779 0)
(0.344337 0.161869 0)
(0.325089 0.192765 0)
(0.303281 0.2201 0)
(0.279599 0.243671 0)
(0.254605 0.263553 0)
(0.229971 0.282407 0)
(0.393159 0.072168 0)
(0.383856 0.110941 0)
(0.37063 0.148257 0)
(0.353746 0.183649 0)
(0.333537 0.216704 0)
(0.310376 0.247075 0)
(0.284673 0.274487 0)
(0.256802 0.29879 0)
(0.227442 0.3208 0)
(0.398746 0.0829386 0)
(0.388697 0.121623 0)
(0.374904 0.159136 0)
(0.3575 0.195117 0)
(0.336654 0.229219 0)
(0.312566 0.261113 0)
(0.285467 0.290492 0)
(0.255619 0.317074 0)
(0.22331 0.340602 0)
(0 0 0)
(0 0 0)
(0 0 0)
(0 0 0)
(0 0 0)
(0 0 0)
(0 0 0)
(0 0 0)
(0.00894534 0.00721412 0)
(0.012268 0.0109661 0)
(0.0144126 0.014992 0)
(0.0152776 0.0193756 0)
(0.0147118 0.0239912 0)
(0.0126084 0.0284764 0)
(0.00904287 0.032299 0)
(0.00434805 0.0348838 0)
(0.0206713 0.0170618 0)
(0.0262679 0.0243142 0)
(0.0295782 0.0321 0)
(0.0304408 0.0404879 0)
(0.0286166 0.0491634 0)
(0.0239882 0.0574278 0)
(0.0167802 0.0643175 0)
(0.00766455 0.0687915 0)
(0.0346509 0.0292662 0)
(0.0414608 0.0397097 0)
(0.0450152 0.0509251 0)
(0.0451021 0.0628639 0)
(0.0414498 0.0749924 0)
(0.0339969 0.0863019 0)
(0.0231671 0.0955077 0)
(0.00995849 0.101235 0)
(0.0505205 0.0437015 0)
(0.0575525 0.057046 0)
(0.0604953 0.0713367 0)
(0.0591185 0.0863594 0)
(0.0531596 0.101345 0)
(0.0426649 0.115025 0)
(0.0282712 0.125863 0)
(0.0112743 0.13231 0)
(0.0679 0.0602553 0)
(0.0742263 0.0762112 0)
(0.0757805 0.0932145 0)
(0.0723374 0.110844 0)
(0.0636778 0.128107 0)
(0.0499919 0.143535 0)
(0.032122 0.155405 0)
(0.0116166 0.162124 0)
(0.086383 0.0788311 0)
(0.0911644 0.0971214 0)
(0.0906241 0.116452 0)
(0.0845888 0.136208 0)
(0.0729096 0.15519 0)
(0.0559361 0.171777 0)
(0.0347039 0.18415 0)
(0.0109533 0.190784 0)
(0.105535 0.0993581 0)
(0.108018 0.119705 0)
(0.104771 0.140991 0)
(0.0956912 0.162393 0)
(0.0807385 0.182544 0)
(0.0604228 0.199714 0)
(0.035955 0.212115 0)
(0.00920486 0.218376 0)
(0.124889 0.121811 0)
(0.124402 0.143938 0)
(0.117919 0.166791 0)
(0.105412 0.189341 0)
(0.0869855 0.210097 0)
(0.0633204 0.227321 0)
(0.0357648 0.239343 0)
(0.00624191 0.244992 0)
(0.143941 0.14624 0)
(0.139859 0.169826 0)
(0.129661 0.193809 0)
(0.11342 0.216985 0)
(0.0913961 0.2378 0)
(0.0644298 0.254586 0)
(0.0339539 0.265869 0)
(0.00187898 0.270687 0)
(0.162089 0.172759 0)
(0.153836 0.197439 0)
(0.1395 0.22206 0)
(0.119286 0.245293 0)
(0.0936183 0.265615 0)
(0.0634553 0.281504 0)
(0.0302557 0.291704 0)
(-0.00412228 0.295445 0)
(0.178572 0.20158 0)
(0.165621 0.226924 0)
(0.146791 0.251619 0)
(0.122444 0.274297 0)
(0.0931585 0.293536 0)
(0.0599698 0.308022 0)
(0.0243213 0.316741 0)
(-0.0120655 0.319137 0)
(0.192342 0.233011 0)
(0.174195 0.258475 0)
(0.150588 0.282562 0)
(0.122067 0.303954 0)
(0.0893226 0.321419 0)
(0.0534054 0.333927 0)
(0.0156631 0.340753 0)
(-0.02239 0.341573 0)
(0.201789 0.267386 0)
(0.178031 0.292187 0)
(0.149539 0.314747 0)
(0.117009 0.333937 0)
(0.0811693 0.348851 0)
(0.0429838 0.358788 0)
(0.00361544 0.363318 0)
(-0.0356784 0.362311 0)
(0.204354 0.30466 0)
(0.174835 0.327575 0)
(0.141755 0.347331 0)
(0.105778 0.363227 0)
(0.0675583 0.374758 0)
(0.0278683 0.381554 0)
(-0.0124053 0.383416 0)
(-0.0523507 0.380343 0)
(0.195916 0.342042 0)
(0.161622 0.361192 0)
(0.125177 0.376723 0)
(0.0870543 0.388363 0)
(0.0477277 0.395922 0)
(0.00771643 0.399263 0)
(-0.0324335 0.398329 0)
(-0.0721684 0.393153 0)
(0.188849 0.36085 0)
(0.15257 0.377623 0)
(0.114822 0.39076 0)
(0.0759682 0.400132 0)
(0.0363826 0.405652 0)
(-0.00355346 0.407265 0)
(-0.0434553 0.404955 0)
(-0.0829386 0.398746 0)
(0 0 0)
(0 0 0)
(0 0 0)
(0 0 0)
(0 0 0)
(0 0 0)
(0 0 0)
(0 0 0)
(0.00894534 0.00721412 0)
(0.012268 0.0109661 0)
(0.0144126 0.014992 0)
(0.0152776 0.0193756 0)
(0.0147118 0.0239912 0)
(0.0126084 0.0284764 0)
(0.00904287 0.032299 0)
(0.00434805 0.0348838 0)
(0.0206713 0.0170618 0)
(0.0262679 0.0243142 0)
(0.0295782 0.0321 0)
(0.0304408 0.0404879 0)
(0.0286166 0.0491634 0)
(0.0239882 0.0574278 0)
(0.0167802 0.0643175 0)
(0.00766455 0.0687915 0)
(0.0346509 0.0292662 0)
(0.0414608 0.0397097 0)
(0.0450152 0.0509251 0)
(0.0451021 0.0628639 0)
(0.0414498 0.0749924 0)
(0.0339969 0.0863019 0)
(0.0231671 0.0955077 0)
(0.00995849 0.101235 0)
(0.0505205 0.0437015 0)
(0.0575525 0.057046 0)
(0.0604953 0.0713367 0)
(0.0591185 0.0863594 0)
(0.0531596 0.101345 0)
(0.0426649 0.115025 0)
(0.0282712 0.125863 0)
(0.0112743 0.13231 0)
(0.0679 0.0602553 0)
(0.0742263 0.0762112 0)
(0.0757805 0.0932145 0)
(0.0723374 0.110844 0)
(0.0636778 0.128107 0)
(0.0499919 0.143535 0)
(0.032122 0.155405 0)
(0.0116166 0.162124 0)
(0.086383 0.0788311 0)
(0.0911644 0.0971214 0)
(0.0906241 0.116452 0)
(0.0845888 0.136208 0)
(0.0729096 0.15519 0)
(0.0559361 0.171777 0)
(0.0347039 0.18415 0)
(0.0109533 0.190784 0)
(0.105535 0.0993581 0)
(0.108018 0.119705 0)
(0.104771 0.140991 0)
(0.0956912 0.162393 0)
(0.0807385 0.182544 0)
(0.0604228 0.199714 0)
(0.035955 0.212115 0)
(0.00920486 0.218376 0)
(0.124889 0.121811 0)
(0.124402 0.143938 0)
(0.117919 0.166791 0)
(0.105412 0.189341 0)
(0.0869855 0.210097 0)
(0.0633204 0.227321 0)
(0.0357648 0.239343 0)
(0.00624191 0.244992 0)
(0.143941 0.14624 0)
(0.139859 0.169826 0)
(0.129661 0.193809 0)
(0.11342 0.216985 0)
(0.0913961 0.2378 0)
(0.0644298 0.254586 0)
(0.0339539 0.265869 0)
(0.00187898 0.270687 0)
(0.162089 0.172759 0)
(0.153836 0.197439 0)
(0.1395 0.22206 0)
(0.119286 0.245293 0)
(0.0936183 0.265615 0)
(0.0634553 0.281504 0)
(0.0302557 0.291704 0)
(-0.00412228 0.295445 0)
(0.178572 0.20158 0)
(0.165621 0.226924 0)
(0.146791 0.251619 0)
(0.122444 0.274297 0)
(0.0931585 0.293536 0)
(0.0599698 0.308022 0)
(0.0243213 0.316741 0)
(-0.0120655 0.319137 0)
(0.192342 0.233011 0)
(0.174195 0.258475 0)
(0.150588 0.282562 0)
(0.122067 0.303954 0)
(0.0893226 0.321419 0)
(0.0534054 0.333927 0)
(0.0156631 0.340753 0)
(-0.02239 0.341573 0)
(0.201789 0.267386 0)
(0.178031 0.292187 0)
(0.149539 0.314747 0)
(0.117009 0.333937 0)
(0.0811693 0.348851 0)
(0.0429838 0.358788 0)
(0.00361544 0.363318 0)
(-0.0356784 0.362311 0)
(0.204354 0.30466 0)
(0.174835 0.327575 0)
(0.141755 0.347331 0)
(0.105778 0.363227 0)
(0.0675583 0.374758 0)
(0.0278683 0.381554 0)
(-0.0124053 0.383416 0)
(-0.0523507 0.380343 0)
(0.195916 0.342042 0)
(0.161622 0.361192 0)
(0.125177 0.376723 0)
(0.0870543 0.388363 0)
(0.0477277 0.395922 0)
(0.00771643 0.399263 0)
(-0.0324335 0.398329 0)
(-0.0721684 0.393153 0)
(0.188849 0.36085 0)
(0.15257 0.377623 0)
(0.114822 0.39076 0)
(0.0759682 0.400132 0)
(0.0363826 0.405652 0)
(-0.00355346 0.407265 0)
(-0.0434553 0.404955 0)
(-0.0829386 0.398746 0)
)
;

boundaryField
{
    walls
    {
        type            fixedValue;
        value           uniform (0 0 0);
    }
    cylinder
    {
        type            solidBodyMotionDisplacement;
        value           nonuniform List<vector> 
34
(
(0.398746 0.0829386 0)
(0.398746 0.0829386 0)
(0.388697 0.121623 0)
(0.388697 0.121623 0)
(0.374904 0.159136 0)
(0.374904 0.159136 0)
(0.3575 0.195117 0)
(0.3575 0.195117 0)
(0.336654 0.229219 0)
(0.336654 0.229219 0)
(0.312566 0.261113 0)
(0.312566 0.261113 0)
(0.285467 0.290492 0)
(0.285467 0.290492 0)
(0.255619 0.317074 0)
(0.255619 0.317074 0)
(0.22331 0.340602 0)
(0.22331 0.340602 0)
(0.188849 0.36085 0)
(0.188849 0.36085 0)
(0.15257 0.377623 0)
(0.15257 0.377623 0)
(0.114822 0.39076 0)
(0.114822 0.39076 0)
(0.0759682 0.400132 0)
(0.0759682 0.400132 0)
(0.0363826 0.405652 0)
(0.0363826 0.405652 0)
(-0.00355346 0.407265 0)
(-0.00355346 0.407265 0)
(-0.0434553 0.404955 0)
(-0.0434553 0.404955 0)
(-0.0829386 0.398746 0)
(-0.0829386 0.398746 0)
)
;
        solidBodyMotionFunction oscillatingRotatingMotion;
        oscillatingRotatingMotionCoeffs
        {
            origin          ( 0 0 0 );
            axis            ( 0 0 1 );
            omega           1.5;
            amplitude       ( 0 0 30 );
        }
    }
    outlet
    {
        type            fixedValue;
        value           uniform (0 0 0);
    }
    inlet
    {
        type            fixedValue;
        value           nonuniform List<vector> 0();
    }
    frontAndBack
    {
        type            empty;
    }
    procBoundary1to0
    {
        type            processor;
    }
    procBoundary1to3
    {
        type            processor;
    }
}


// ************************************************************************* //
