/*--------------------------------*- C++ -*----------------------------------*\
| =========                 |                                                 |
| \\      /  F ield         | OpenFOAM: The Open Source CFD Toolbox           |
|  \\    /   O peration     | Version:  2412                                  |
|   \\  /    A nd           | Website:  www.openfoam.com                      |
|    \\/     M anipulation  |                                                 |
\*---------------------------------------------------------------------------*/
FoamFile
{
    version     2.0;
    format      ascii;
    arch        "LSB;label=32;scalar=64";
    class       volScalarField;
    location    "1113";
    object      p;
}
// * * * * * * * * * * * * * * * * * * * * * * * * * * * * * * * * * * * * * //

dimensions      [0 2 -2 0 0 0 0];

internalField   nonuniform List<scalar> 
808
(
-0.0345547417850693
0.04432861807939191
-0.01121210556795714
0.03639623411206784
-0.2996211420534321
-0.05534085366827487
-0.01524130585405772
-0.02409350093879429
-0.19726879982785
-0.08421413702240332
-0.01049727856657626
-0.2544690837074205
-0.03065401737560745
-0.01365261531619753
-0.1204375967156173
-0.01416836710028026
-0.1371572190804651
-0.01368234785124295
-0.01244487675373056
-0.05580583810039961
-0.007176557079244699
0.1175697106881815
-0.06217160472677434
-0.07195315591158127
0.1756289098054686
-0.1000636207253955
-0.1528340400035017
-0.020392827688966
-0.01746364150305535
-0.02567187971998169
-0.02029415597258834
-0.05864000761356972
-0.02275661383433095
-0.01685987582510797
-0.09991526054643245
0.3444337526687292
-0.03936745738460615
-0.01644656855878267
-0.02283425629790812
-0.02649577311451878
-0.09064628026325623
-0.1270567117691982
-0.05187622138000683
-0.02119741270827362
-0.05415054239867165
-0.04121564059626949
-0.01203140851244156
-0.184935998456891
-0.02702468749539609
-0.2046059227607343
-0.01686290244202349
-0.0674995673668316
-0.06069898784143951
-0.01437122321546667
-0.1930964515410416
-0.02831590474080075
-0.01051802371426724
-0.01399895848557146
-0.1006703442373597
-0.03979562180050585
-0.1099872130799611
-0.1263694716676088
-0.01410118268406771
-0.1296517495497363
-0.01744478564826327
-0.05166514351344619
-0.1656241708648515
-0.0354713189346948
-0.01508237461374995
-0.4412050520706274
-0.02648059137264253
-0.3022081998600623
-0.02162765183961278
-0.02096057750068679
-0.06537934510297189
-0.01778371478234704
-0.04258267622373361
-0.3619837746888225
-0.03614281541915087
0.0406614799998622
-0.09116108817661479
-0.01696964850187219
0.05710108504281171
0.04471268566487654
-0.01708625591860682
-0.05230394399823232
-0.5426585421651712
-0.2258770292644381
-0.05227169342202125
-0.1124343094831718
-0.05676794183292286
-0.133070249629885
0.03953000928322622
-0.0252015359099443
-0.06177736375010413
-0.1215575821651168
-0.0383128842787636
-0.05179325999648045
-0.1165820223063796
-0.1404200375347644
-0.05275094662294998
-0.0473824479139477
-0.05452388295264623
-0.04484732547506534
-0.05737984394325886
-0.07447734130955774
-0.04001894691255772
-0.01076413796692275
-0.04026646089262502
-0.1243963480077989
-0.05036943726523744
0.08239097110320305
-0.04238009225325184
-0.007653288318188631
-0.02761921340521535
0.1805738379118107
-0.03887277531724972
-0.2690541900487045
-0.02064053030517142
-0.05370431243959593
-0.03821696488987526
-0.04881717998007311
0.01342730907646812
-0.04884371052241657
-0.03540265535632703
-0.2169758565470961
-0.04142482213807302
-0.004462638761340365
-0.07613622946461905
-0.06875981920385524
-0.1521909042869399
-0.02122845161008161
-0.0754356252058897
-0.04265636322934209
-0.02297878322364816
-0.01568020049850377
-0.006057679233849532
-0.007613903870183216
-0.05239353127489073
-0.04985016859205074
-0.2103352818502568
-0.05674018112239533
-0.008321095434854158
-0.02222769868521333
-0.1471197034172864
-0.002045505888974915
-0.07647860677749344
-0.02232889096419571
-0.0003054798098218397
-0.01007153922151201
-0.03328354262282276
0.09447068716558844
-0.03879244445710651
0.2522190356764238
-0.2589930456070736
-0.1322663169318885
-0.03773102130628446
-0.09084840934619079
-0.008993888017907565
-0.1133709126088151
-0.1736033173547296
-0.2126330132644876
-0.1817455624090581
0.05623994744789212
-0.06296443820415244
-0.02048941532816099
-0.06696252989341618
-0.1743152262517698
-0.02338306527965717
-0.01875597534896545
-0.05210595333756267
-0.01941618948749555
-0.00687765950782432
-0.1083498632465305
-0.02332350976467534
-0.04534038294225973
-0.0700329294707789
-0.161734781541389
-0.03330431371819847
-0.3890620198030185
-0.01784861659871482
-0.2252569627483226
-0.04437483231143524
0.03183940220763477
-0.1051187362183699
-0.01547173583621921
-0.0425894503563265
-0.1054798683574327
-0.01783693466095451
-0.09634249628002003
-0.203087907790837
-0.07207487065828169
-0.02404085537363254
-0.04840206106374153
-0.04282016887871746
-0.2011245850264179
-0.02223660790199467
-0.01921280571911766
-0.01131903244497747
-0.0561173967983089
-0.05083010956137485
-0.02263928042637587
-0.02064600549793935
-0.2384957164422341
0.1275145039781962
-0.204121226418433
-0.1971356960179949
-0.0117231173063424
-0.01141607604550698
-0.06700151723076141
-0.009852574677788073
-0.5001673397233766
-0.1273091310662252
-0.01942083404262459
-0.001353267177279888
-0.02391070607603254
-0.2813100387475138
-0.2765714612359376
-0.007486822355029893
-0.01794633064201215
-0.002231249618965743
-0.3473594703423697
-0.02849464585886726
-0.02933621927813964
-0.01264034262318352
-0.01954129209821797
0.04970537563345466
-0.1218283415692189
-0.01397085098115958
-0.02085456254858502
-0.04428788226897801
-0.01833220636879576
-0.01633185276052689
-0.023455445175954
-0.06741056103771638
-0.0113497980439844
-0.01895036632769116
-0.008860729604705407
-0.001312954449695793
-0.02938307032136946
-0.001921271084477802
-0.002075306865023678
-0.005896630657777175
-0.02552648245124884
-0.008109677808745252
0.001658937571611742
-0.004090679262519429
0.001170747469481114
0.002341776937073683
-0.008658068384189107
-0.1323450674407564
-0.002962146232042745
-0.0002844582651476239
-0.04758760425896738
-0.02138040188018107
-0.02418950462076236
-0.01411536552154032
-0.006153682138259546
-0.02106509212913353
-0.03879738623849531
-0.01484807450856292
-0.01261890629372962
-0.01182849449535463
0.005666299571329626
-0.009785943087528745
-0.01302394079764363
-0.01130359970806955
-0.01027964872138549
-0.01004436923136395
-0.01091638433217789
-0.01374725889782987
-0.2976928517738732
0.05999191836427575
-0.01508803827854387
-0.01614479159571375
-0.01256796697432138
-0.01253953634027789
-0.008344390946780165
-0.09955517277998462
0.01075361410396242
-0.01428482722621367
-0.01421330991295548
-0.01071847302710104
-0.05204769703006204
-0.008276269740861604
-0.01397775228380862
-0.009412339157955437
-0.0023397074722081
-0.01061785458198305
-0.01044093179881896
-0.02450778463122049
-0.01591237639690075
-0.01234922219806386
-0.01335042506589107
-0.00969608683621463
-0.01329212065391284
-0.0109492662458978
-0.0586488309895282
-0.01310792695342382
-0.01212511911936781
-0.009005710773669443
-0.01524785046499621
-0.01416081695262462
-0.01571768659798332
-1.374293384099103
-0.09946161437101536
-0.01199511576383126
0.02278560979655184
-0.1637391988797403
-0.0939552977951256
-0.01175433700904134
-0.01419709658993213
-0.2487065556087923
-0.02949355273482513
-0.0190776109622171
-0.011733938071057
-0.0202469879482488
-0.01110787436000203
-0.03074063114463556
-0.4118390076492756
-0.01203229835405718
-0.01408187246620598
-0.004598751901844131
-0.01049280971169144
-0.0091666297559786
-0.01405903612807253
-0.009118826423676969
-0.02691398356613964
-0.01152516553609855
-0.1650300079251462
0.01867385633728251
-0.00754708080615217
0.003311692802170473
0.01198939993706184
-0.04827265397475967
0.02871961310136695
-0.01273411985140266
-0.1346149199672086
0.2824543467561098
-0.00791552320630938
-0.0132944019160064
-0.008138035006679803
-0.03340719976724375
-0.1241864750773397
-0.01341171399104018
-0.01212992680555797
-0.017483145090505
-0.01357257912069163
-0.04137086334418728
-0.2171665823730914
-0.01019294352839592
-0.04249991884843603
-0.03895833744594348
-0.1736289519309158
-0.1558524057858401
-0.1547368019911177
-0.2494264998244725
-0.00425275898553593
-0.02093479118968818
-0.01531567854712443
-0.01360510366860565
-0.0333312090618863
-0.02443468942390748
-0.0141691783816182
-0.01499619697155872
-1.076380286441244
-0.00316592443598692
-0.01362685456137753
-0.01814248183423284
-0.01791180550183067
0.005661089875745509
-0.01397043065267843
-0.02654771651679122
-0.1626081903433665
-0.01356306700180387
-0.02130559949049859
-0.0144524680064781
0.002067791080828406
-0.1777162587828151
-0.01298183697529037
-0.1528377670316278
-0.01567651929646606
0.00879722749074094
-0.01410638638104797
-0.02378476617808827
-0.01623635535592092
0.006975784674944373
-0.2706752342552662
-0.02624264577842624
-0.01666743445939919
-0.0137836320126511
-0.01037011522413593
-0.02985402775981393
-0.01397530336371146
-0.02089637063506642
-0.02084116457405619
0.008447362047355644
-0.09925780750223526
-0.02157180561450498
0.009476998658592431
-0.05447572292162287
0.1695499766132705
-0.1047305361463919
-0.3196392498211224
-0.02950229591345551
-0.02568678267010991
0.1499702349065271
0.09570780026243159
-0.00354585673143219
0.05219239654126736
-0.0154547425898342
-0.01372431666209895
0.002526500259456991
0.009914105366585343
-0.06589512970624505
-0.004670127449964541
-0.05665712307046576
-0.02297340290900881
-0.01568055507891516
-0.03650638063910357
-0.03293227767976661
-0.006679044282198002
-0.01460494869837396
-0.03795117864864475
0.03267480026665717
-0.03870644793448107
-0.01365476017886405
-0.1180586567182495
-0.03122158608339388
-0.03935730752383475
-0.6736038618231986
0.01436900341327017
-0.01099081886433697
-0.005396385763705669
0.1806019424177161
-0.09555255434043558
-0.03558363058192259
-0.244585092373633
-0.01565795676176191
-0.01627140340859609
0.06927878814697692
-0.1831270236893585
-0.2267498160948017
-0.1903284813734376
-0.6816324019306114
0.01132806227403283
-0.019009305778902
-0.01542872676940221
-0.09100780048962363
0.118238981906123
-0.02182509568193315
-0.2488706556343639
-0.03575244605027404
-0.006722399489883411
0.27739694642879
-0.01093598016282785
-0.09232619230524955
-0.1509009712842304
-0.004832899731019647
-0.041167569029921
-0.04536919588830257
-0.1987054902885534
-0.008359962538671769
-0.04096595720902899
-0.003467144876376243
-0.5480448591866035
-0.1972233425713207
-0.1770526789783306
-0.02331428158422573
-0.008237521678595039
-0.06108774496621314
-0.05725931857005423
-0.01605203784282062
-0.06864710685666026
0.003829292197400414
-0.01788138750201319
-0.09561608947664195
-0.2725299745876461
-0.009372415216059264
-0.02527019849840315
-0.02160133831904731
-0.07540360267523916
-0.09001078662556625
-0.08884816129562238
-0.01114500345883473
-0.9163843604376869
0.1613195949429111
-0.08248683554059151
-0.2541205961988711
-0.04189858937423229
-0.009490522914808125
-0.2461802364139327
-0.1895096221104285
-0.03201492273009995
-0.1170532151712806
-0.01776663352396507
0.5624381856332146
-0.02464040186997753
-0.2182730554471107
-0.02553749778635319
-0.004193244406900671
-0.01121938569970806
-1.251883191491551
-0.1833756431884502
-0.2303943773561035
0.005337127493298316
-0.03841783666782132
-0.2397236063332917
-0.06633500260804401
-0.05163518905356665
-0.1437182788463427
-0.1875375287813388
-0.06898014399437104
-1.222817764833789
-0.1553522131838138
-0.5323448013041662
0.07881510138726995
-0.006718704035673361
-0.02141887032609576
-0.04370237868407208
-0.0393626493388991
-0.02808294340151499
-0.1312677073612113
0.08064886469747783
-0.004439797608446151
-0.009754318115282006
-0.5693219872797227
-0.8561400191510286
-0.1803830138995578
-0.007714909242402735
-0.1262781851166163
0.0006999047948960943
-0.0007827099634734808
-0.002586202895236199
-0.06122067217191306
-0.2361516931021718
-0.01340427024446785
-0.1139793009501745
-0.1549278177833824
-0.01314677445700823
-0.03505629652288229
0.02554433052838173
-0.05815313616389399
-0.07098275344682482
-0.4972813372075
-0.241130325793237
-0.08051795847851169
-0.07404884173909861
-0.0195395100950126
-0.1130908318861414
-0.1623170883574214
-0.08047640420032641
0.02688445127970397
-0.08591631913186867
-0.04928346417386902
-0.01495217442812852
-0.1144277925029678
-0.2773763913516069
-0.05818296643966885
-0.01823016610816225
0.001890009715355995
-0.01020895447521959
-0.01076821598031559
-0.230458404835124
-0.0141723290603127
-0.2196508709580778
-0.01077802416808782
-0.06757496808523504
-0.003696655315984768
-0.02322107699022502
-0.3860303447481399
-0.9185692777939927
-0.01125690424299772
-1.046369536256455
-0.6069174415865046
-0.01072877528333665
-0.6551223781026164
-0.1817268427823953
-0.00497099428893204
-0.1259814964923684
-0.01720456653079277
-0.1234584045260342
-0.06610011437794872
-0.07624022116739559
-0.005577276128500449
-0.003475111206774315
-1.338073708829893
-0.0111993446190815
-0.1905497739533877
0.0008326976905282251
-1.012180504665942
-1.239183115865771
-0.07996452071513702
0.01846735271373848
0.1645347632519397
-0.004961867282121062
-0.02296535041045379
-0.004350130722234652
-0.2436264739318536
0.3659224245048192
-0.04167261633452356
-0.2122978193722864
-0.01518456373495634
-0.6567778267944469
-0.07361278610110333
0.1904984298219368
-0.2963724400427824
-0.05044360862430278
-0.06967446810298661
-0.01579072990944481
-0.02150426460069749
-0.5853656687411364
-0.1500339256559522
-0.09227095022179016
-0.1210416847917223
-0.554524505178084
-0.04492907003775835
-0.9073222581780672
-0.001036724348245417
-0.2410645347034013
-1.048129519356365
0.1693591553484209
0.2917846091259386
-0.1727355078068341
-0.1916747744414324
-0.2092795639574477
-0.06714370239195322
0.02485305044702125
0.04943928515558128
0.004933808820313953
-0.1556107239648445
0.02539480054685904
-1.358702445306279
-0.08627819990821138
-0.4756254987987771
-0.3313230019184576
-0.2137441009221185
-0.1780157938274708
-0.01696302543278844
-0.01538094025652791
-0.09625660233420799
0.1713285772357632
0.3854043470716838
-0.2177703844333465
-0.1521003098439057
-0.2330181085898818
-0.06313550586916232
-0.1595982178387879
-0.1688387992963552
-0.1266310516447618
-0.1122846224241973
0.4668054711903169
-0.2773161100218764
0.4306354082083033
-0.5942996309061963
0.07168589353449481
-0.1945770819580941
-0.06709666508778597
-0.07559972820111811
-0.8853885733954112
-0.2215803323390002
-0.1907645040991273
-0.3510260007234683
-0.4619695356962054
0.5702555307529403
-0.2076972484542303
0.001426791588777043
-0.0692039784536283
0.3436435674915618
-0.03622137921115048
-0.1201992041962564
-0.1799077498867006
-0.06456758791015552
-0.01638079245936791
-0.1954694906981262
0.1930325494936065
-0.01259287651019257
-0.09757844583668042
-0.1722979956412646
-0.3142534520374997
-0.3108470848920184
-0.07772154185990773
-0.009850440956195606
-0.07576560645514202
-0.6550004236674282
-0.6692430304441537
-0.3300307864102708
-0.0585474134766464
-0.05072916514933922
-0.02481436387557894
-0.0689109336595579
-0.05638262299021876
-0.3639441178889692
-0.9574995552153903
-0.009050816671013576
-0.0842012458606045
-1.139284408520748
-1.035733374412587
-0.1052785884544737
-0.03992626307558463
-0.06891872894196847
0.3906029697745887
-0.3424493745444536
-0.05241803247595234
-0.6007315393929192
-0.1333116241284349
-0.250985811181383
-0.2112702895500008
0.4741148714484145
-0.6314633548326732
0.07377612496630589
-0.02889589265483251
-0.5636041242018267
-0.05287275950442212
-0.3618417916848328
0.1075561731810516
-0.1918407815171389
-0.06072843480473185
-0.1283877770548115
-0.3614026754786923
-0.08762306247215118
0.5141187171151989
0.08611512831279722
0.4709493243210488
-0.1233942789530051
-0.2032280106852027
-0.5148091562468926
-0.1315845372269682
0.02571266457074103
-0.05459475529350594
0.1020491988797138
-0.3078543209571178
0.2363625420410408
0.007499712224058962
-0.002973022439341633
-0.5115919408742342
-0.1838019313952502
-0.09867552722170096
0.5811951219451837
0.1389925683307914
0.3463165574229445
0.2255227277428805
-0.562385339078548
-0.2146100315331568
-0.2184290093842322
-0.234474133088859
-0.06133651116033731
-0.6921310398282824
-0.1931425631458867
0.3058364913809944
-0.2092723590216011
-0.01108345843515026
-0.1672130235964218
-0.01058685341362451
-0.1658517867110744
-0.4411560245700574
-0.07693712160125131
-0.2015026062055334
-0.0744685496109036
-0.106101329986085
-0.1357899721679366
-0.07322483142833937
-0.4461773124017131
-0.4139400681928149
-0.02596849808627131
-0.07584415790448445
0.3267814129834909
-0.2495064134154491
-0.176229284389234
0.5255904242420564
-0.1983573169169344
0.01885737063812697
-0.4518073031975722
0.04638104555965876
-0.06081820019402027
-0.1577342519926898
-0.586847050466889
0.1615256441828789
-0.5790635683544139
-0.5366461570297371
-0.1047487462030961
-0.5087236617348677
-0.03662706002181787
-0.1516009444244814
-0.4107680364116016
-0.01621237770754852
0.2868282699274337
0.4895798513597224
-0.1636548849114772
-0.00698250931388962
-0.07392793320386615
0.5253139601038944
-0.03267423193751503
-0.4420035468769287
-0.03208387423007219
0.460535556068372
-0.01599949132109382
-0.5462606956891144
-0.239796409186675
0.1764680957357405
-0.3125134511316072
-0.1801030756179532
0.05101016490292209
0.03254473696117349
0.05529673261308189
-0.301585308890174
-0.1574962723550928
0.4128434640368072
)
;

boundaryField
{
    FrontBack
    {
        type            empty;
    }
    Top
    {
        type            zeroGradient;
    }
    In
    {
        type            zeroGradient;
    }
    Bottom
    {
        type            zeroGradient;
    }
    Out
    {
        type            fixedValue;
        value           uniform 0;
    }
    circle
    {
        type            zeroGradient;
    }
}


// ************************************************************************* //
