/*--------------------------------*- C++ -*----------------------------------*\
| =========                 |                                                 |
| \\      /  F ield         | OpenFOAM: The Open Source CFD Toolbox           |
|  \\    /   O peration     | Version:  2412                                  |
|   \\  /    A nd           | Website:  www.openfoam.com                      |
|    \\/     M anipulation  |                                                 |
\*---------------------------------------------------------------------------*/
FoamFile
{
    version     2.0;
    format      ascii;
    arch        "LSB;label=32;scalar=64";
    class       volVectorField;
    location    "1342";
    object      U;
}
// * * * * * * * * * * * * * * * * * * * * * * * * * * * * * * * * * * * * * //

dimensions      [0 1 -1 0 0 0 0];

internalField   nonuniform List<vector> 
808
(
(0.7562749997022972 -0.01752497581472699 0)
(1.031379905717925 -0.01252374334009959 0)
(1.11396728570382 -0.0008059517737813461 -1.746212285910783e-20)
(1.085131056144554 0.01256976039905331 0)
(1.360495935626091 0.01313235451159584 -3.820665960602199e-19)
(1.038690139143365 -0.009426970543944736 -7.29046307935975e-20)
(1.014405585704374 -0.02042936471502411 -2.417226543444015e-20)
(1.07896687794386 -0.004813854733626288 9.00082825944724e-21)
(1.252346264307556 -0.02170615974651501 6.261912479669181e-20)
(1.085033376228512 0.008781636602819706 0)
(1.00877219975093 -0.01219175536127261 0)
(1.303402315030069 -0.05433282360121056 -3.464190638291867e-19)
(1.08631491359107 -0.001721635809936676 2.040983225529891e-20)
(0.6751216196955127 0.006381415041360892 0)
(1.277349571685379 -0.122987184282092 0)
(1.081942799112734 -0.0002651760106507246 -3.857394044763649e-20)
(1.227079065415044 -0.152376227001354 -9.776766136549841e-20)
(1.074413132840903 -0.0003628693991678863 3.196885997098248e-20)
(0.9892655359322424 0.0057535437501737 0)
(1.026968995384092 0.009319112346181097 0)
(1.036448632654372 -0.0159373306769601 0)
(0.987586049152842 0.04543528977152189 0)
(1.051033254530534 -0.006202695808444634 5.79215645921927e-20)
(1.053778374200448 0.008277534088503862 0)
(0.9338759410265626 0.1999128076781529 4.56412023609878e-19)
(1.161063382535129 -0.09029727062284147 0)
(1.184440395845829 -0.02003227000626973 1.541050625450632e-19)
(1.077165624766094 0.009636477755289254 5.237602352205546e-20)
(1.08395993657063 0.001844324876787416 5.121267748929751e-21)
(1.071907442110677 0.03097280920464878 0)
(1.075409428096242 0.002596377660371376 -1.183692263254186e-20)
(1.033459474780166 0.006350470390534249 -1.877845082334869e-19)
(1.060015577741876 0.01455795023055452 -2.36668170083811e-20)
(1.088741546185325 0.005423302215778902 -2.936658138966254e-20)
(1.121181550297118 0.03638261583339933 0)
(0.7548558585488199 -0.1200106479373365 -4.550362918549214e-19)
(0.9545335778280453 -0.005739594983261018 0)
(1.068862806487651 0.02235607438374088 0)
(1.068819902365625 0.007209582752729215 0)
(1.073747943527494 0.008618823256205376 -2.818056643493305e-20)
(1.093113544548174 0.02267891498674182 1.078528537590128e-19)
(1.149941887745787 0.001856544607483243 2.114487942505542e-19)
(1.095585642383179 -0.002394515670952204 0)
(1.01534633273902 -0.00942662872978307 0)
(1.127111875398505 -0.0958567020163537 -1.652395725615536e-19)
(1.0440553623929 -0.01179687043826248 -8.352513899558922e-20)
(1.05831765378553 0.02668842813416605 -2.714268565805548e-20)
(1.229094797462999 -0.1122953477005316 -5.56998456964517e-20)
(1.067578041781854 0.01212876984046013 -4.088319191241003e-20)
(1.255900097216447 0.01483515200450322 0)
(0.9973481944659111 -0.01856923572329006 2.172186751375092e-21)
(1.044669510311701 -0.002564490419674292 0)
(1.087299086140543 -0.002306511568770334 0)
(0.9978863003432723 0.00793923313777881 -1.917175391607002e-20)
(1.252618538100507 0.03251248294327186 -2.388198807561451e-19)
(1.063593933364044 0.0182988802309563 5.897734861905405e-20)
(0.9885558680316104 0.01089242109013903 0)
(1.014358861735598 -0.009106873739618505 2.560799031175741e-20)
(1.107068134429854 -0.001764310221765715 -1.155907218083035e-19)
(1.061577687599047 0.03132297588830924 0)
(-0.07200847876988971 -0.0266570334629722 7.637522500561772e-20)
(1.153633226782799 -0.05238420819316807 -1.848814825143015e-19)
(1.002067706039026 -0.007009183011964065 -2.813633529050428e-20)
(1.186735512121325 0.06422346071452417 -1.198456404141847e-19)
(0.9971539269025771 -0.01052753028358907 3.08173937286421e-20)
(1.083894596062891 -0.005489657289921622 0)
(1.245897918853637 0.0909641469231233 0)
(0.6960457568818377 0.003162241204601106 -7.444492913719381e-20)
(0.9888123088307598 -0.01595940571772177 -3.21000781143505e-20)
(1.456326124941112 -0.01954886999625567 4.400654102843726e-19)
(1.060652205798041 0.007576325397626044 -6.56564931509575e-20)
(1.364308156248873 0.09353328024454398 2.848258978137583e-19)
(1.054865411468874 0.006733806884657084 -1.904582688733425e-22)
(1.080960338293475 -0.01413707678360732 -3.132273131093585e-22)
(1.162542891963345 -0.234958757922597 0)
(1.022629014965492 -0.01489704291314453 0)
(1.017861058337396 0.01796320590338513 -3.005651605500209e-20)
(1.389798065716625 0.3496761256249145 4.235569401217736e-19)
(1.097324392561885 -0.04219236699680162 9.538583800009227e-20)
(1.046920626030518 0.2112759720993648 2.404881632954779e-19)
(1.122528028995806 -0.06284093593978672 1.179704956743245e-19)
(0.9220819085413738 0.005202214272172577 0)
(0.9754412239886195 0.01857691046337891 0)
(1.003971582272932 -0.04842716005680773 3.155109128721759e-21)
(1.01053480716055 -0.01372928382340678 7.716199902053846e-21)
(1.031226937758501 0.02631620262866375 1.35564418780039e-20)
(1.525096179178113 0.03416153014283733 3.217793161046369e-19)
(1.291842680670341 0.07005941633905573 5.628313499486237e-19)
(1.072694683782142 0.002963194941382953 -8.840384283563483e-20)
(1.194833787581901 -0.09919138510466116 0)
(1.033984510628198 0.001548635008040259 1.290990883007877e-19)
(1.164142696421715 0.01995406187106531 -3.125240113576294e-19)
(1.001530343994607 0.03254986220859565 0)
(0.9996298097796454 0.001975392700007901 0)
(1.044147334310034 -0.0003087847376196256 7.985033691248698e-20)
(1.216144709968211 0.1016465480014928 4.001193206815694e-19)
(1.011152622064113 0.006943025176142446 0)
(1.087534880368094 -0.06976711631433678 -1.070226667550948e-19)
(1.150542208540372 0.03485916693590133 0)
(1.213418726836348 0.08853160326170452 -1.879631512091087e-19)
(1.108262736387909 -0.02878326386418032 -7.78522880768986e-20)
(1.027957813605255 0.01178577587547628 0)
(1.085420489966336 -0.004629295799291062 0)
(1.020162227952211 0.02616851406076899 7.858559761237496e-20)
(1.075488518855962 0.05528961864995694 -9.284760375445131e-21)
(1.103626111265056 -0.004353674463941869 6.425262996219501e-20)
(1.103713790090753 -0.09405188254267617 1.532069272301472e-19)
(0.9612448574290484 -0.002401642725423446 0)
(1.066358973036752 0.03145131686483095 3.702654288055706e-20)
(1.16733863011043 -0.07665453548490755 2.259427725145235e-19)
(1.053877320423577 0.04637859972848533 -2.853783560068809e-20)
(1.023055050624541 0.06817724174970251 3.643124718747824e-20)
(1.090497470042098 0.02622900815561806 0)
(1.014330569407684 0.01376737141599313 0)
(1.028962838076793 0.009383977608625372 7.861627607790575e-20)
(0.9485625429067495 -0.0320174912622546 0)
(1.053255667600832 -0.005477396688726967 -7.435734719974672e-21)
(1.338877341617812 0.05610120935300936 -1.545831446014956e-19)
(1.079654475125051 -0.01328851096320606 2.639724472432975e-20)
(0.744192075777807 -0.001771184958666001 0)
(0.5547546810298816 0.1687106338628187 -1.041808918463976e-19)
(0.705882651613813 -0.002486153617579804 0)
(0.6990347278689716 0.01466665357969848 0)
(1.077833145585331 0.003492145604340374 -6.466084004847737e-22)
(0.9906439623901803 0.01443306926959664 0)
(1.281227245135649 0.1221782578737151 2.550437873201558e-19)
(1.012211583690636 -0.02796938045772051 -7.394790912398886e-21)
(1.039882938944326 0.01705896091578726 1.271828859571207e-21)
(1.058433447329878 -0.01241036044713635 0)
(1.126376126244972 -0.009234694768667536 -5.121415066841621e-20)
(1.263287745392779 0.1223625477137132 -2.179115668420095e-19)
(1.088821592530267 -0.01087666574428305 -8.565169456775676e-20)
(1.071113040370405 0.02527323829350351 -1.069008741409727e-19)
(1.041119368458805 0.04678539127728441 7.415050232686804e-20)
(1.02239711931208 -0.003540320844944391 -3.469541192007983e-20)
(1.061289558902634 0.02370868207703406 5.727300953975951e-21)
(1.138806350826091 0.001280182095196917 1.049056646584779e-20)
(1.040528097978693 -0.01257890933846792 -4.688443999057441e-22)
(1.087618566602708 0.03480178926157473 0)
(1.028726389843321 0.01348077790847886 0)
(0.7914095474858167 -0.0788342120403987 -1.841746477823625e-19)
(1.030307754446795 -0.002104433534561225 -6.549611597129581e-20)
(1.136664093656941 0.002515421568770456 -1.280822225525203e-20)
(0.7035298596293457 0.006544308627062893 7.159905357364329e-20)
(1.176086163652427 0.01866082312646545 -1.969132982182555e-19)
(1.131404321786621 -0.002312786887582226 5.656175949561653e-21)
(1.129053772786418 -0.01010350227459041 3.368220454326946e-20)
(1.000935263603246 -0.002989769978350476 -6.725222900705877e-20)
(1.095933152363501 -0.05728981819568136 0)
(0.9885543228409895 0.001501366942218652 0)
(1.057935915322067 0.007029907502286843 0)
(1.006285461602107 0.1898411945850492 -2.359749113672934e-19)
(0.7794681150301349 0.01243435216661108 0)
(0.8570558932198568 0.1036612147198556 -8.197979025015243e-20)
(0.1050969974963833 0.0318817394123395 -3.016010019751655e-19)
(1.172612446185518 -0.03265539693766149 -2.288473359591894e-20)
(0.6712357247160063 -0.007370441291691259 2.450000267915086e-20)
(1.162354808556262 -0.1049118410384024 6.99997555088331e-20)
(1.129121178533662 0.000888860186449046 -6.048942430580053e-21)
(1.154110655978019 -0.05105244851217935 2.223829703666424e-20)
(0.07205861013198578 -0.1902185557888776 0)
(0.25769759736293 0.06363386022330789 0)
(1.256945099908847 0.1035922611741883 1.843763319429963e-19)
(1.021468307421773 0.01988255811289263 0)
(0.7375654378044856 -0.006299020953688996 0)
(1.074800701084343 -0.01158256348898346 2.727088154650756e-20)
(0.9751564503296566 0.002881135742296178 0)
(1.290422421076782 0.1180426364533854 -1.437186542039862e-19)
(1.05736273431246 0.01103222421626068 0)
(0.992351539385261 -0.007892362593634733 0)
(1.065325133980636 0.008089279489164086 0)
(1.006259461234867 0.02091263248680369 2.18017619001236e-20)
(0.9255542580138942 0.003822980784168963 1.285113208879805e-20)
(1.175015518862835 -0.198952316087919 0)
(1.004980345465538 -0.005223542581190802 7.992064111172274e-20)
(1.059237872612612 0.006168799642783157 0)
(0.7745361450108585 -0.003345008336927024 0)
(1.216368321859607 0.0255765693405304 1.617695913391585e-20)
(0.7051178272399654 0.001350470821449502 0)
(1.431109236274428 0.08468098992049859 -5.121864673669896e-20)
(0.9938892313109593 -0.005469385520679314 1.660625392880867e-20)
(1.275607609511752 -0.004438651162432484 -3.002316500741715e-19)
(1.06000593817663 0.008895116023510466 1.330230869488618e-19)
(1.000899784240465 -0.01355584161050834 0)
(1.211600823167518 -0.1522866643983432 2.047350536334945e-19)
(0.7331651342969593 0.01378753958465558 0)
(1.098024168919892 -0.004987451021743345 0)
(1.155736691390125 0.06428057287123345 1.896165553671632e-20)
(1.006287817014327 -0.006975916113491726 -3.044310505059376e-20)
(1.122754997261963 0.04972757141366919 -1.711612710281552e-19)
(0.1561431904409217 -0.09183588185749508 0)
(1.074066530706866 0.03759222717285367 0)
(0.6615424752384417 -0.002873383835450581 -5.210186022437145e-22)
(1.012065373820377 -0.01972768521371194 9.049381460824951e-20)
(1.061759666307441 0.0008069775664283497 0)
(1.086194839997079 -0.1408971472835394 3.799420611198934e-19)
(1.002503183774324 -0.006137471735953088 -3.321343578749282e-21)
(1.002400528888461 -0.003875462442137439 1.299220704701068e-21)
(1.094037076383287 -0.009173408332627263 0)
(1.020806290176951 0.02014302346780682 -6.633927512644179e-20)
(1.10680611080358 -0.001659300998676849 6.34376298486525e-22)
(1.074008562201059 -0.01061324407387459 6.603407302408824e-20)
(1.085634524215017 0.02223311308389443 0)
(1.323973940736206 0.1572799600374774 0)
(1.002094489358898 0.0005664857541973372 4.406565522472189e-20)
(1.321859178223986 -0.1339362801052168 1.59917940893996e-19)
(0.008167466380758031 -0.1372514756106305 -2.335402247911083e-19)
(1.071151317928847 -0.005444126145710495 0)
(1.112944643586747 -0.001438701298168286 1.19114567741088e-20)
(0.7268709011467271 0.01783341885626514 0)
(1.058653155489031 0.007300055702748089 0)
(0.8619463833407859 0.1621531819834876 4.628371484399917e-19)
(1.281660335819393 0.1176932920924021 1.834765590351649e-19)
(0.6541166138707021 -0.003113516231787769 -6.480927726907943e-20)
(1.040867532744618 0.001394922485810818 -2.437817744079088e-21)
(1.054934764094224 -0.0002207414564333203 6.471860952008066e-20)
(1.359629879435114 0.1178619157850658 6.574471966066299e-19)
(1.338164930111085 0.252539736374808 0)
(1.057079747623383 0.009312608027270559 0)
(0.9961218166429295 -0.004814576505709338 1.387449240721851e-20)
(0.9943354804507035 -0.004338820747855034 1.316284297510011e-21)
(1.386172923731608 0.1996536191911496 4.327838319665869e-19)
(0.6817799393187026 0.0006031310403229893 9.932755904770568e-20)
(1.005718673821803 -0.002110915899775499 -6.006160116921178e-20)
(1.098022067384825 0.01313227864939709 2.55376070485986e-20)
(0.6694529566515094 0.004971613393081282 0)
(1.066081367744219 -0.01203463060820988 0)
(0.9955027652154119 0.1256671659426349 -1.344994452481509e-19)
(1.083161506209059 0.00572865606988681 -2.556915424869616e-20)
(0.9818884766342192 3.091495267938106e-05 3.308150430713166e-20)
(0.9912113204214503 0.005988215564309919 0)
(0.6381597913292157 -0.001143483961004552 0)
(0.9768037305157977 -0.001307053147464983 0)
(0.641958821082661 -0.001433293782032375 2.680940197530932e-21)
(1.086876293850387 -0.05685580222561262 1.218174547333988e-19)
(1.109164226664283 -0.004716228966010967 1.178213645317838e-21)
(0.9580681650571989 -0.000879933586320494 3.889532748760693e-20)
(1.016714145708406 0.01076094003594267 1.705506200132619e-20)
(1.064026674035242 0.01064699741347391 -2.209790965022258e-21)
(0.6348266231016924 0.008851889536906719 -3.624440071472955e-20)
(1.003821869484968 0.01268485519322128 -6.350385295591907e-22)
(1.037097875434749 0.01143279418379625 5.098073709936007e-21)
(0.9867573918244075 -0.003523427482027586 0)
(0.6100583615879848 -0.0004486976055715413 0)
(1.06898454402739 0.02263801976138649 0)
(1.015680751843611 -0.0163250600459565 1.045751702991179e-20)
(1.021922014173455 -0.00244438200587243 0)
(0.9931835055395213 0.01454327774452799 -9.509709009728143e-21)
(1.010703253468846 0.006621916716269522 0)
(1.13308293105574 -0.002042520038131363 -1.265701076865942e-20)
(0.030784968940762 -0.1382027831276863 -4.288114125991485e-20)
(1.03488151038339 -0.0163470776936259 -6.956470571045783e-22)
(1.045477199530155 0.009352073530932708 0)
(1.087528743927102 0.06829864429293708 8.401229709604991e-20)
(0.9686829970913199 -0.0007446012527214915 3.115142074234924e-20)
(1.020265729643454 0.01704901219781545 -2.252886286427659e-20)
(1.007089866865885 -0.0002083936827000829 2.408487058169274e-20)
(1.039787148685749 -0.006125615855637042 0)
(0.6409844879710875 -0.00406484077905822 0)
(1.026025838757901 0.02447495515285094 -7.935763494667777e-20)
(1.082810482433637 0.004785338120893998 5.038671423477779e-20)
(1.011592208774744 0.005197385545544395 0)
(0.981798961431382 -0.0009483655516515158 -1.911663664603407e-21)
(0.8613366298110409 0.01660438198784753 -1.376208663630686e-20)
(1.013940519217573 0.002992600971305178 -9.719121057796963e-21)
(1.024933049983949 -0.001003044524768617 1.806912075197368e-20)
(0.9790183570033536 -0.001477830692765531 0)
(1.0074342995362 0.009020358590022325 3.241453115799599e-20)
(1.108318522643801 -0.004280603671784912 0)
(0.9342486033310025 0.008491127916254698 -3.380402753878061e-20)
(0.9555928135081302 0.004557665529377957 0)
(0.902328015334833 0.2038037040193889 5.001152954742578e-20)
(1.01122464263837 0.06762063055645717 0)
(0.9906938565013111 0.004167925096174497 -2.310172736959797e-20)
(1.054393497170966 -0.04923313283696149 -2.733527400456482e-20)
(0.993278504044521 -0.001119000395725315 3.310758874178885e-20)
(1.007576067049266 0.003214179871214811 0)
(0.9806277758743822 -0.0002681953537198774 -3.077372311995656e-20)
(1.177797528883836 0.09593816856257791 -3.32087064534785e-19)
(1.067603999777879 -0.2631255000254428 0)
(0.9950120213340637 0.001372456512402555 -2.231505531789629e-20)
(0.9783836757536972 0.007964665243769022 4.774539983471243e-21)
(0.957770795493273 -0.002281863046438734 1.059991038745938e-21)
(0.7460384772100751 -0.001091616594847448 0)
(1.113741068166882 -0.07032486942996004 0)
(1.006838581318054 -0.00075548990265288 -2.181405025427008e-20)
(0.9021510401207917 -1.858138650586192e-05 -1.09147853591827e-20)
(0.8432900889770529 0.0062921330399663 5.350072532540869e-21)
(1.010267568500405 0.0007941973820375312 0)
(0.958855585383638 0.008477124633007265 1.585600613701065e-20)
(1.005773697037068 -0.0001945577190915005 -2.251268484610642e-20)
(1.025660548847093 0.001188170410625337 -2.4914896683984e-20)
(1.112050601326746 -0.006039939147025891 -4.893657389949981e-21)
(1.114179082753567 -0.005581955828213882 0)
(1.009701835809821 0.005627571039163551 0)
(1.025388395140987 -0.001800554426455253 0)
(0.9496866578767622 0.01077128803222117 -2.089144408540211e-20)
(1.017880494709799 0.01315775941916542 5.611092949904284e-20)
(1.084675585625374 0.003846819813916442 -2.329737716764553e-20)
(1.036911256338626 0.004737097864263195 0)
(1.108296007565456 -0.004465428007165228 1.812070038917448e-21)
(0.9954192376375894 0.000929054216671465 -2.231319234735861e-20)
(0.9795339842494181 0.0007452577648121147 0)
(1.010571116956513 0.001882073597107512 4.704249050813302e-20)
(1.361879173939077 -0.3135181112646631 -1.119348524017881e-18)
(1.120841080890162 -0.04580440939287055 -1.11093210389893e-19)
(0.9760205028935928 0.01232679807858721 4.712619480028346e-20)
(0.7772188362540438 0.02121684850821112 -3.633345977345469e-20)
(1.222003085175676 0.04844842727088822 0)
(1.213525983402489 -0.1345295566497773 -1.482099900588356e-19)
(1.085149501155628 -0.0002216498087160035 0)
(1.009459246626535 0.0008973037126808637 2.255762140320579e-20)
(-0.190492972427019 -0.07405691011920985 0)
(0.9939716423145541 -0.004676644571296527 0)
(1.012328127504613 -0.02305397231670515 3.907574720878136e-20)
(0.706226082706284 -0.01941157063904324 0)
(1.096800687157795 -0.01503149889692572 2.369843924600082e-21)
(1.039211052040942 0.003920633469516713 1.406930873988516e-20)
(0.6331638710449277 0.004174208593284235 0)
(1.44469719987934 -0.1236693506378544 0)
(0.9860954411518426 0.002216776368080387 -1.07124554515915e-20)
(1.06959810223533 -0.01500186183215204 0)
(1.037995890082492 0.0005850918296293319 2.073872003694718e-20)
(1.087404849068321 -0.004038762529030389 0)
(1.010333160414389 -0.005331434224664962 -1.264037708158107e-21)
(1.006217268210152 0.003260665463753304 0)
(1.0109183582543 -0.002119563593173945 -6.941849925194838e-22)
(1.003675204382187 -0.0200254730677116 0)
(1.03474182817363 -0.003414810482381262 1.862116011198982e-20)
(-0.2118348357260849 0.05204465778474295 2.801779115615559e-19)
(0.8181619080119841 0.03892090252024848 5.997153770389508e-20)
(1.005091149485136 0.002371918159947359 0)
(1.122493685274611 0.01832486820520605 -1.29765646095751e-20)
(1.108904175947184 0.008815095491134631 9.716584158163728e-21)
(1.05386809756758 -0.01292043969381476 -1.323790960833371e-19)
(0.9987737481733548 0.01039941470044287 -2.771068681656861e-22)
(1.085157994669985 -0.003997352153121525 0)
(1.18744804207017 0.04923812957563563 0)
(0.8350217892727542 -0.07361454075077332 4.608145755187965e-19)
(1.094850290687475 -0.01261262924830102 0)
(1.033110738038288 0.008056826840809767 -7.693420381427885e-21)
(1.042737380293813 0.005397828894436381 5.719267582383387e-21)
(1.050749705554866 -0.05924451986851383 -7.554066327487532e-21)
(1.13992387602128 -0.00264301205797273 1.720202843407982e-19)
(1.076982560368156 0.002266002063168288 0)
(0.9948686261315469 0.001868006307772438 0)
(0.9981713809744659 -0.02477276946449284 -2.373038402321215e-21)
(0.9914552922238634 0.003224651185987145 0)
(1.02919935879772 -0.03671855102299276 6.504952511517644e-20)
(1.293542935339651 -0.09901466481449715 0)
(1.044111959710049 -0.007334320178765064 -2.191373276637923e-21)
(0.9861784709037399 0.01680067800344849 -9.051418946815152e-20)
(1.035130263104018 0.04278544927747236 -2.332173559854428e-21)
(-0.08776478589450119 0.1961249219144499 -1.715536462915773e-19)
(-0.06571296143171501 -0.2791598471962461 -1.337925409136254e-19)
(0.8605557297615118 0.1105746676028014 0)
(0.2766975514433712 -0.01062706684801612 -2.885068024842491e-19)
(1.012498371822036 -0.01629419573055835 -1.066677553177429e-20)
(1.064021160946698 0.002660136859079437 -2.070672107627839e-20)
(0.9932667652321466 -0.02132135352215661 3.009709902732714e-20)
(1.026755823143913 -0.02736778639124213 2.620080079704973e-21)
(1.008806900889632 -0.03028368383348775 -6.698958705311356e-20)
(0.9887270472294978 0.004920341304473237 -3.492993814626808e-20)
(0.9939210295780565 0.004482140612709691 0)
(1.024351654894903 -0.001890684240475781 -3.536043709332611e-21)
(1.929614007961968 -0.1560290843790591 1.065345282672918e-18)
(1.052382824822744 -0.01870227517416079 0)
(0.9966612355233551 0.007260353396071673 1.488346175691595e-20)
(1.003275879276629 -0.0004533508949382497 4.021707028842729e-20)
(1.177540149352692 0.1494425991667786 0)
(1.008315269627307 -0.02206190550988718 -3.872890297160052e-22)
(0.9532952254308129 0.001426873236081348 0)
(1.037850465612426 0.04170974667067404 0)
(1.292751288134102 0.150755471676692 2.154784370299276e-19)
(1.077439200005473 -0.006683232118661236 2.318989659855713e-20)
(1.016811941434403 0.03202093451630662 4.523809281317873e-20)
(1.077450192985595 -0.0005414624667802346 -2.234450114157885e-20)
(1.058715197028393 -0.02160970193610111 6.676314777502605e-22)
(-0.3871280763298935 -0.03623990991085544 0)
(0.9986384371414968 0.01269139375756081 0)
(0.1260563279435626 0.05649642009332597 -9.197892140654103e-20)
(1.005458365508308 0.02164238246643042 -4.011927907701355e-20)
(1.003386592492971 -0.01607530127030591 0)
(1.00041167430645 0.005511722304156573 -4.936158454926117e-21)
(1.081787306665948 -0.04215269724160185 0)
(0.995048684463084 -0.0192077816724383 -8.025141255744727e-21)
(1.093529115645361 -0.04560341151977464 0)
(1.440470319585357 0.1708361829548645 0)
(1.054429096654799 -0.01168263552264518 0)
(0.9919504106448843 -0.02367574201387427 -4.047586433113875e-20)
(0.9824695271148838 -0.01979433082049886 -2.853107005041153e-21)
(1.019748735590144 -0.02029105066607357 -2.074705712804978e-20)
(0.9970834932515087 0.01726350226792892 -5.417895604205712e-20)
(0.9956177806532167 0.009323720018011914 -1.450496938561105e-20)
(0.9948602121069294 -0.02640128581755514 0)
(1.001792184302223 0.02530739642322894 1.889893930092271e-20)
(1.035367281690304 -0.02440741180032572 0)
(1.110425082901862 -0.03648500575338997 2.526253826534594e-19)
(0.9951045552136976 0.01691044098118166 4.491605471706938e-20)
(0.6150794042725268 -0.00868443762555844 0)
(1.154771036928079 0.1466142100820925 -7.268493809710277e-22)
(0.8250394251676407 -0.0901569193336418 0)
(1.139254426356052 0.07257834147062658 -2.794928229690349e-19)
(1.313033519928357 -0.3875610540125332 1.274450210529243e-19)
(1.075164240149626 0.06620490311508363 -1.306158486460441e-20)
(1.010700173238415 -0.02934416348950264 0)
(0.9546916283344044 -0.2137261643819896 0)
(0.5390000491650743 0.1683166228428677 0)
(1.012820017934776 0.01391617647668935 1.005994812129057e-21)
(0.7140503660162547 -0.01105712556562026 0)
(0.9980735577092762 0.01692748722734645 3.454110864936788e-20)
(1.023127766754222 0.0002013205082166165 -2.664971968234895e-20)
(1.079137385065631 -0.008006542288986427 2.659106147731724e-21)
(1.048832326772659 -0.01456308014923396 2.726108554279224e-20)
(1.042985851696248 0.01095397989444507 0)
(1.053006819128459 0.02521817163799462 -9.525687489764044e-21)
(1.051639005391676 0.03525538571891489 -1.770237402818226e-20)
(0.9834290663521184 -0.02171476145464472 0)
(0.6248971730027246 0.005134920191026415 9.178615913735925e-20)
(0.8941738021382092 -0.00593083437845203 -8.853823683730629e-20)
(0.9093509021756736 0.005251740232279535 1.446281393691162e-20)
(0.6296332836302644 -0.006411870100017848 1.410842985157615e-20)
(0.9796165564010036 -0.0004693411511370323 2.546522807588467e-20)
(1.004421927546931 -0.0176233327352631 -3.306828177499504e-20)
(0.9715129228772469 -0.01436256667208029 -2.938155543650096e-20)
(1.08559612387827 0.001468579793370019 0)
(1.018639140260177 0.004962401839569309 1.085010658042341e-20)
(1.133320097946918 0.04809269391746927 1.347695715394854e-19)
(1.033255781329037 0.04295563801842174 0)
(1.022261437807149 0.00263755576357656 0)
(1.580087047248308 -0.1675751927846095 4.355624682172662e-19)
(1.043542423761911 -0.02716640089913704 0)
(1.022667321500754 0.008775389719502832 -3.580999694183522e-20)
(1.086401708656677 -0.001680824655313181 0)
(0.4892254004221403 -0.008282610994989874 0)
(-0.03673883049288414 0.002140803480016986 0)
(0.9903120778245414 -0.02343374410373407 1.249079450685999e-20)
(1.299226723776872 -0.0964170460159231 3.665922648624106e-19)
(1.03225120763526 0.03914713694657879 0)
(1.022657643511465 0.00344239271062384 -2.18945307655118e-20)
(0.9349805704828441 -0.16547658376249 -4.006642686757215e-21)
(1.25369452175025 0.07300228670766103 0)
(0.5992428829803621 0.7326335624338414 0)
(1.304681827540291 0.1430337678291103 1.053781485975693e-19)
(1.672799197378722 -0.02618503429317103 0)
(1.072189129501423 0.1298294338407082 0)
(0.7324824293681524 0.00362040476322728 3.33790005772465e-21)
(1.049092788453225 0.04949412413543366 0)
(0.7222596657126462 0.1010507982762118 1.313850033885207e-19)
(0.9968264004262241 -0.01625378412748801 3.585227361630575e-19)
(1.035961007556121 -0.03814837863993663 2.64280160862574e-20)
(-0.3691852980992257 -0.04696637361277232 0)
(1.071730990220686 -0.01612104911560054 0)
(1.09166245987923 -0.0170725277604564 0)
(0.6470636773276661 -0.500220558390172 -2.508812461062188e-19)
(0.9918770553463764 6.030529652276862e-05 0)
(1.091829976294916 -0.02222212396714794 6.5407813278426e-22)
(1.189337337996613 0.1208924080511536 -2.046809112513025e-19)
(1.095529125174258 -0.03773832785669103 0)
(1.0050706032117 -0.0208172892759138 0)
(0.8007348265989254 -0.1980007828846353 -1.729779494026131e-19)
(0.8985753398443841 -0.1439701913064982 1.486123101706362e-19)
(1.031819690342062 0.01024824166141038 -2.079228616179473e-20)
(1.023132995200762 -0.009255756349699331 -4.285027773719472e-20)
(0.8669068806936524 -0.001951493884022115 -2.594033325088425e-22)
(1.501878674365051 -0.1940967893937041 0)
(1.303310409693938 0.1108248141316226 3.101083763113086e-20)
(1.242697145058557 -0.07988985042649147 -3.116955666418607e-21)
(1.0959159570766 -0.01881835233225153 -3.972228828004784e-20)
(1.042417682409919 -0.01816335659513427 2.959003407444022e-20)
(1.092799236929834 -0.03919108995678074 9.537863153463874e-20)
(1.03275595831946 0.01996468163869215 0)
(1.049493106948123 -0.03170399842124129 0)
(1.115850953944764 -0.009047842383301308 0)
(1.096958590405223 -0.02924099036397279 0)
(0.9980753428341461 0.01071005591718656 0)
(1.154093470354053 0.07609324409887026 9.323708004699624e-20)
(1.345573952738814 -0.1594813245399417 0)
(1.04305293661123 -0.02366510067105094 -2.316742338251464e-22)
(1.051736716817736 0.05511269285233054 0)
(1.009926069513304 0.01429512108341152 -3.823798195808159e-20)
(1.033485775551938 -0.008134423706719723 9.356346494205206e-21)
(1.088998258744171 0.01330983659065614 -3.168469620444161e-20)
(1.084169578898463 -0.02964557040198885 0)
(1.076058348623453 -0.005516761875490513 0)
(1.100914285368547 0.09273267614166811 -1.400410478056476e-18)
(0.9348398883097691 -0.1479738033282663 -7.111323856121026e-20)
(1.180278639197521 0.1090049233158132 1.120726514607113e-19)
(-0.4554533565609461 -0.01827559895604752 -2.931720801934588e-19)
(1.019261927785523 0.02963097303507889 -8.574890049338459e-20)
(1.006992385945551 -0.005553210886598279 0)
(-0.2592255898811433 0.01682152027062949 3.573203062430507e-19)
(-0.0453120256603441 0.3406798123681362 7.661672539471998e-21)
(0.9952167930912201 -0.006330898993661207 8.9474163219824e-20)
(0.1854563933796481 -0.04189900946605633 1.339758628540121e-19)
(1.095383018306016 0.09047964363417593 1.485186190109806e-20)
(0.09337018108730229 -0.1067086014041467 -5.354571417201918e-20)
(1.10800238909301 0.003166591432964836 0)
(1.093983082784569 0.2505686877619996 0)
(1.021405771893768 0.02196205513032481 -1.679798369398867e-20)
(1.067599363663456 0.06125615023598583 0)
(1.024046974543722 0.02575278577624604 -8.786655482474414e-21)
(1.259969799916689 -0.5474253921298429 7.979374536801353e-19)
(-0.08364423849943077 -0.220325084857604 2.09597209922527e-19)
(1.296577371299973 0.1112513598620251 -6.119878802115011e-19)
(1.124959408259658 0.0007748156598220548 0)
(1.134721280664264 0.1047162137677009 0)
(0.5208979512628293 0.07764427402064857 2.443574359982518e-19)
(1.022884981751375 -0.02090572470469109 9.580437366061093e-20)
(1.005332675483498 -0.02342870861925948 0)
(1.213415208137006 0.2715929417582042 -9.834230412678423e-20)
(1.249902977999167 0.1284917768420795 -1.505491745691647e-19)
(1.026490498181308 0.002690021566770301 1.589757752510084e-20)
(1.295469707514486 -0.08491155553313093 -4.9521342041256e-19)
(0.3088192532384035 -0.02269633399483725 2.825354052974855e-19)
(0.8352928199542721 -0.1503217212603924 6.896999515330733e-19)
(1.056257468284727 0.07145089949585287 1.08800304042819e-19)
(1.040496655856027 -0.00470329769217446 1.267561342456138e-21)
(1.000803300064844 0.01983672894737275 2.858906675798496e-20)