/*--------------------------------*- C++ -*----------------------------------*\
| =========                 |                                                 |
| \\      /  F ield         | OpenFOAM: The Open Source CFD Toolbox           |
|  \\    /   O peration     | Version:  2412                                  |
|   \\  /    A nd           | Website:  www.openfoam.com                      |
|    \\/     M anipulation  |                                                 |
\*---------------------------------------------------------------------------*/
FoamFile
{
    version     2.0;
    format      ascii;
    arch        "LSB;label=32;scalar=64";
    class       volVectorField;
    location    "386.5";
    object      U;
}
// * * * * * * * * * * * * * * * * * * * * * * * * * * * * * * * * * * * * * //

dimensions      [0 1 -1 0 0 0 0];

internalField   nonuniform List<vector> 
808
(
(0.7562728632118317 -0.01751561043316472 0)
(1.03154588819717 -0.01259675630730884 0)
(1.1114152225309 -0.004387951181693417 -1.716923596301064e-20)
(1.085126411616201 0.01258257059689145 0)
(1.362137837841057 0.01278385909238711 -3.815259484436939e-19)
(1.038746138689574 -0.009428247075684421 -7.325963628531773e-20)
(1.014535773723593 -0.02088344272165878 -2.439243733571215e-20)
(1.079238947830438 -0.005178337796974833 9.049355982404213e-21)
(1.253677349276729 -0.02172822750191704 6.256486978007891e-20)
(1.085322070251085 0.009400204094038685 0)
(1.00755105807836 -0.009990844606506044 0)
(1.304822448254152 -0.05462619137201966 -3.460377654170147e-19)
(1.086419493421984 -0.00196073027501255 2.04471479615333e-20)
(0.6752039859306243 0.006356516274976333 0)
(1.275097554851595 -0.1194175069983664 0)
(1.081785306415767 -0.0004507386642725736 -3.871672857021134e-20)
(1.223966617797679 -0.1473474117395129 -9.520753408197046e-20)
(1.074212272680872 -0.0003618010973770575 3.210200680508409e-20)
(0.9888581559918961 0.004059752265032924 0)
(1.026695273549745 0.0096270740796512 0)
(1.03282343410674 -0.01385074441589622 0)
(0.987587824554837 0.04523392250108326 0)
(1.051069095044425 -0.006061655187986348 5.808923883127121e-20)
(1.053824326965708 0.008773124052990184 0)
(0.9334717676701563 0.1988322486644335 4.56738902660357e-19)
(1.161432464555801 -0.08713004764790865 0)
(1.185363600465629 -0.01991745634490768 1.539564529183083e-19)
(1.07723826377086 0.009673380874591738 5.235857319979016e-20)
(1.083672966133858 0.002072574212278632 5.125647506402101e-21)
(1.071760355226308 0.0309193556025447 0)
(1.075254807848506 0.002766016119816461 -1.183812246389238e-20)
(1.03331487267479 0.006679634208041951 -1.874661729254118e-19)
(1.06007545635684 0.01451140206116967 -2.350604658304102e-20)
(1.088751936580814 0.005635533564410536 -2.93896411059628e-20)
(1.121710091778254 0.03761631415660931 0)
(0.7548867099713386 -0.1215595532096523 -4.549895731656596e-19)
(0.9547653470211844 -0.005804599699074363 0)
(1.068763729363344 0.02223062859882124 0)
(1.068800681610855 0.007220508943539697 0)
(1.073795133666989 0.008702350699533245 -2.818238650361086e-20)
(1.093287425530354 0.02365392261454673 1.078808547108899e-19)
(1.150731250764675 0.002310474123463501 2.114873837052152e-19)
(1.09580465466869 -0.002276258864567927 0)
(1.015164933064799 -0.009348752442664079 0)
(1.129312979859981 -0.0930641121414308 -1.63017520245539e-19)
(1.044070086647287 -0.01170317442653358 -8.376685182653884e-20)
(1.058152128196823 0.02665395717162824 -2.675757225854456e-20)
(1.230156551321876 -0.1126644089963458 -5.559163856620127e-20)
(1.067484630090859 0.01202457481092644 -4.070452090514213e-20)
(1.257517238207703 0.01505046338401824 0)
(0.9970775215774637 -0.01917564420241324 2.214499793213987e-21)
(1.044750714970426 -0.002260153840642173 0)
(1.087440475738606 -0.002140712349933127 0)
(0.9988745415436086 0.007848036689203584 -1.886581213323552e-20)
(1.251502473195503 0.03275882171629795 -2.391285875780558e-19)
(1.063427111083014 0.01811191461011247 5.87194681439276e-20)
(0.9904526262178284 0.01147819705037648 0)
(1.015427475896101 -0.006741717847063487 2.531238779049318e-20)
(1.10751945236908 -0.001294459725115257 -1.155114696229869e-19)
(1.061211405723771 0.03124459109180688 0)
(-0.08624155911113218 -0.008658057489853144 7.707105625670211e-20)
(1.154316472040503 -0.05242468263570998 -1.84693666569491e-19)
(1.004480684400728 -0.005700731970609997 -2.780012143443097e-20)
(1.18820598898042 0.06643296654291229 -1.204894141046716e-19)
(0.9970861916931447 -0.009837194983270759 3.10423172772792e-20)
(1.084166562747658 -0.005455514157981435 0)
(1.248919903946032 0.09262297734678515 0)
(0.6960806356931339 0.003162238481499846 -7.423090214397385e-20)
(0.988287574077592 -0.01490092995245124 -3.233930636260975e-20)
(1.457947805210078 -0.02009820744938156 4.394422208410593e-19)
(1.060549282926192 0.007605231674873793 -6.528352882559446e-20)
(1.366316876310142 0.09290055936716259 2.837433800492326e-19)
(1.054870580331255 0.00679854821547927 -1.954230825732533e-22)
(1.080942330304161 -0.0139927915122408 -2.405072383464182e-22)
(1.163574366072537 -0.2357094600901883 0)
(1.022173848070945 -0.01512130599063094 0)
(1.017324158945466 0.01808993024456917 -2.992091551716418e-20)
(1.388152965023491 0.3488235524882818 4.230396559337285e-19)
(1.097443823582275 -0.0424385294545446 9.594877456511979e-20)
(1.046441240254817 0.2105145483566489 2.410891039312925e-19)
(1.122889657973327 -0.0611723882233286 1.179934596796931e-19)
(0.9219729708741699 0.005178076506749051 0)
(0.9753455928368443 0.01853243394342098 0)
(1.003999677946766 -0.04851970562720181 3.155918469823167e-21)
(1.009971185171192 -0.01372563393657244 7.827286521240516e-21)
(1.030596413050132 0.02682633931746031 1.351379034775641e-20)
(1.526853802244036 0.03357112442545451 3.212117615348282e-19)
(1.290556748868251 0.07003151646166961 5.636821961615205e-19)
(1.07248945917699 0.003086904235737601 -8.81567005007937e-20)
(1.194233991166993 -0.0960259944384516 0)
(1.033885961990054 0.001783837858829296 1.288777609165359e-19)
(1.165137209730489 0.02060228079660259 -3.125869498019138e-19)
(1.001504434043549 0.03252588674004706 0)
(0.999627775056757 0.002000727591011589 0)
(1.044267084717128 -7.702792725130287e-05 8.010965014737498e-20)
(1.218352125650152 0.106363018635357 4.067369141496195e-19)
(1.011146526486969 0.006966939442906162 0)
(1.089486352169927 -0.0679924051632686 -1.066920171451399e-19)
(1.151421130389202 0.03598304891905596 0)
(1.216264190763468 0.09088273283237752 -1.905131233300295e-19)
(1.108314253160993 -0.02890617221561527 -7.824383745421159e-20)
(1.02755705729476 0.01192407840418755 0)
(1.085172678123433 -0.004591507672773574 0)
(1.019484746649459 0.02647161203224863 7.834055105483021e-20)
(1.073804619598791 0.05657534917830338 -9.509486936143718e-21)
(1.103716262301776 -0.004219923213814806 6.441221596868225e-20)
(1.106383539831282 -0.09179334412421267 1.501472487513715e-19)
(0.9636146655654139 0.001910110907811687 0)
(1.066038153660535 0.03130207860284595 3.685006269668106e-20)
(1.168097320186327 -0.07690192345204312 2.257222594215545e-19)
(1.052482044256408 0.04728403305959869 -2.847677170707161e-20)
(1.022972121647554 0.06799285993925611 3.644895136964996e-20)
(1.090231396672168 0.02610477281112265 0)
(1.017324761631069 0.01419900191289563 0)
(1.028982180228389 0.009362521573759544 7.839024445646224e-20)
(0.9485368589775566 -0.03241068477634643 0)
(1.05292260897039 -0.005435360829216086 -7.39825505727164e-21)
(1.340749587864746 0.05567996340217748 -1.540694906575886e-19)
(1.079674367334289 -0.01317063632945356 2.666665750724896e-20)
(0.7440617621790776 -0.001735429234072236 0)
(0.5869148274284663 0.1886622458401735 -1.132473395338152e-19)
(0.7060892206650007 -0.002480349608033872 0)
(0.6988304308894447 0.01463863821239977 0)
(1.077741292995952 0.003604303477904567 -6.454337793432615e-22)
(0.9906524770767466 0.0144685553731788 0)
(1.280017586209302 0.1219811253214343 2.552163619761674e-19)
(1.012234007510761 -0.02789778234020027 -7.384738614152447e-21)
(1.043764564946775 0.01648561542414632 1.445382103964416e-21)
(1.058602676082507 -0.01216369583445688 0)
(1.126521250141974 -0.009154672139717726 -5.13411938442362e-20)
(1.271076283138333 0.1270442422294951 -2.247262517746338e-19)
(1.089089979140771 -0.01089801544515995 -8.619826817163103e-20)
(1.070986000593154 0.02619604350821362 -1.069341771316855e-19)
(1.041031507728027 0.04679725144945585 7.431156458869956e-20)
(1.022567994608817 -0.003642875253333586 -3.479035500987812e-20)
(1.060979192328681 0.02368253702233077 5.698436472480582e-21)
(1.138566467656577 0.004220304615761884 1.034595834114879e-20)
(1.039358614530312 -0.01392618717465814 -4.76506931783188e-22)
(1.087403853472999 0.0347370909259923 0)
(1.028370672836132 0.01370196603054832 0)
(0.7822031044955348 -0.07971252469239486 -1.819795116772368e-19)
(1.030296716195411 -0.001857141970302762 -6.537914995987021e-20)
(1.132419776248159 -0.0006004362084037183 -1.247832546483151e-20)
(0.7034627012919302 0.006555014633443564 7.119216665420286e-20)
(1.175348405669859 0.01897852743240601 -1.972930037146686e-19)
(1.136599132424945 0.003795530355070325 5.219370667390036e-21)
(1.129019240780004 -0.01005826611207221 3.365124450634125e-20)
(1.000933327042354 -0.002967348954006892 -6.713424119317647e-20)
(1.101185297428091 -0.05753138338612528 0)
(0.9898745706046486 0.004735737081289607 0)
(1.05783676530729 0.007021513461086465 0)
(1.005992298935968 0.1891604897810433 -2.36432444928438e-19)
(0.7792713208217722 0.01243772096024293 0)
(0.8570415397971793 0.1025247318360494 -8.210415659279298e-20)
(0.09520724796805281 0.03213639017474436 -2.97289347582561e-19)
(1.171845114126151 -0.03179999754459163 -2.293208739751256e-20)
(0.6712577466711301 -0.007341271761371301 2.453969772099612e-20)
(1.163861972964207 -0.1013942442867812 6.93730815297545e-20)
(1.126690333449246 0.000570064422670259 -5.840338253223641e-21)
(1.153597109706501 -0.04979546397763304 2.228421920343007e-20)
(0.0799019678863052 -0.2039929877775307 0)
(0.2415148632996159 0.06330555228767895 0)
(1.261308506248298 0.1046100926309076 1.853997943171488e-19)
(1.021182396701665 0.01983920280827102 0)
(0.7377038262585138 -0.006255450182601935 0)
(1.074965207174764 -0.01142673058699474 2.741908635640527e-20)
(0.9748880888528249 0.00288170860906003 0)
(1.29652402175977 0.1190176084444616 -1.475090659050131e-19)
(1.057354074533866 0.0109546539984538 0)
(0.9928623287149768 -0.00718448805349537 0)
(1.065183795589261 0.008259813872091236 0)
(1.006245027410001 0.02090900211748228 2.193602827873181e-20)
(0.9338291270624159 0.009547280651593987 1.282768709363416e-20)
(1.175936028934163 -0.1995404184423415 0)
(1.005068502521306 -0.005198521568688892 8.051720301279953e-20)
(1.059195289675277 0.006299792038627173 0)
(0.774584062811279 -0.003306820609011995 0)
(1.217884901008009 0.02610454509765727 1.618344863762556e-20)
(0.7050290647663358 0.001368459757197973 0)
(1.432934669982399 0.08379526991662128 -5.102712921927118e-20)
(0.9948242921513173 -0.005273458323757316 1.673731399586627e-20)
(1.274208273532657 -0.004034584975258122 -3.00718048836879e-19)
(1.059731820194356 0.009025816406808928 1.326512893089374e-19)
(1.000907585418907 -0.01353336260198821 0)
(1.209386372395443 -0.1451867810396954 2.053573000583828e-19)
(0.7331729881705147 0.0137848805077271 0)
(1.098303859477309 -0.004915379769911592 0)
(1.156450133447889 0.0667228152796082 1.886960721369486e-20)
(1.006394361006452 -0.006501357215135355 -3.047608450459016e-20)
(1.123006309422832 0.05156748031486421 -1.717230323448584e-19)
(0.1320152486541793 -0.09409390655583721 0)
(1.073542181767595 0.03885333369740572 0)
(0.6616843874023118 -0.002874070430613979 -4.949445845999153e-22)
(1.012103457102927 -0.01958897752560187 9.03047281030249e-20)
(1.061480916122729 0.0008753507647085896 0)
(1.079907615285624 -0.1387565922100824 3.771515628767443e-19)
(1.002670285898826 -0.006131811756611435 -3.289790707091183e-21)
(1.003146470732247 -0.004082764850939486 1.042063800296331e-21)
(1.094005163778249 -0.009197404857113995 0)
(1.020762608974192 0.02029621936763572 -6.655228671130688e-20)
(1.106668370025196 -0.001598292439776722 6.332247877247208e-22)
(1.074465553655065 -0.0107791126755943 6.649956373137557e-20)
(1.08563456172976 0.02216951068719938 0)
(1.325756299343891 0.1554958559229621 0)
(1.002079971328048 0.0005345354707964292 4.407406415586212e-20)
(1.319308370499938 -0.1332317189239394 1.605499880437187e-19)
(0.00797930346583002 -0.1567286522053899 -2.307693555611254e-19)
(1.071103870049731 -0.005357644442845471 0)
(1.111243605725363 -0.004951166359570798 1.165221866126409e-20)
(0.7267550166738488 0.01779778425245088 0)
(1.058121829616946 0.011018774377008 0)
(0.8613360472430649 0.1612834806716837 4.590952245661026e-19)
(1.284659131421918 0.1237089025992273 1.892133176407028e-19)
(0.654210580156496 -0.003103673196023059 -6.533354363035834e-20)
(1.03968987733974 0.005416131644313715 -3.893298561458548e-21)
(1.054821100958933 -0.0002056313982988492 6.443293128563551e-20)
(1.362237112111884 0.116541313905045 6.554746574069355e-19)
(1.336752468943843 0.2519735122860928 0)
(1.057951891073887 0.009661128873828397 0)
(0.9989166879407784 -0.004099263964575305 1.376669309635618e-20)
(0.9932640331600028 -0.002063045195073901 2.617514323779774e-21)
(1.384683869044876 0.1992452588626871 4.326691700990277e-19)
(0.6818575133073934 0.0005038489326753357 9.967602989419628e-20)
(1.005705085315894 -0.002194235342330866 -6.022097353033039e-20)
(1.098157590975435 0.01315362455929182 2.561541321044068e-20)
(0.6694516568962043 0.004951315786724821 0)
(1.066085031332911 -0.01202695904282378 0)
(1.011124801374427 0.1380896643230966 -1.422180123630887e-19)
(1.088392775430645 0.001859284491678532 -2.586397454497593e-20)
(0.9819170226028076 9.141316857000627e-05 3.311332746462355e-20)
(0.9912118173822916 0.005999069660820548 0)
(0.6381234267415964 -0.001098177360789617 0)
(0.9767135251491155 -0.001260134193290801 0)
(0.6420268388100218 -0.001415998221627263 2.642917126095289e-21)
(1.087617978181029 -0.05555721996676205 1.214988561567274e-19)
(1.109716867730091 -0.005779408241178442 1.141884910094926e-21)
(0.9579868532495004 -0.0008544427106018464 3.878328379654226e-20)
(1.017219919641443 0.01038063256548115 1.738932175197341e-20)
(1.065618816611712 0.007691875327581381 -2.410663980286806e-21)
(0.6347864531220803 0.008868131872756346 -3.613998125400774e-20)
(1.005769179642839 0.01073903079360294 -6.275804735021082e-22)
(1.037855050941932 0.008150238379712673 5.332639177915424e-21)
(0.9856791229613339 -0.00472522244849987 0)
(0.6099872736374048 -0.0004414583840280503 0)
(1.069011275481365 0.02250730992909678 0)
(1.016145969050309 -0.01686516241812618 1.03234532247826e-20)
(1.022982615991439 -0.006421192360178856 0)
(0.9931702234533926 0.01363882698301389 -9.8197594951353e-21)
(1.009223204480234 0.003843217038362884 0)
(1.134746177185926 0.002575657255642036 -1.217333437720469e-20)
(0.03122501798016194 -0.1411279156696233 -3.905716945705974e-20)
(1.03430831222857 -0.01794481878465757 -6.017737571565327e-22)
(1.043146570563888 0.007541624023212136 0)
(1.084516781734164 0.07044759302440713 8.427934087939998e-20)
(0.9673715501233846 -0.001294951307406919 3.109822527079858e-20)
(1.020072521048473 0.01678173398724399 -2.236317929875658e-20)
(1.005810864927509 -0.002494432688445273 2.398519203455197e-20)
(1.038932709099931 -0.007790594952584453 0)
(0.6409326942021635 -0.00408754770361489 0)
(1.025969486394818 0.02450319987757768 -7.95511271239815e-20)
(1.087276102523738 -0.0009125067943086169 5.09811189337354e-20)
(1.012476744668002 0.007574862803851562 0)
(0.980789643735708 -0.000398227952021172 -1.934874928474538e-21)
(0.854781647916104 0.009285939477101978 -1.101266791990791e-20)
(1.013970486113525 0.002739170004044204 -9.508917189213545e-21)
(1.022450584495025 0.002116705679822781 1.865253278063559e-20)
(0.9823736891960593 0.001088322999698544 0)
(1.00770839764661 0.01092073194459335 3.214007023240329e-20)
(1.110715943423574 -0.00126713091604768 0)
(0.93442936723613 0.01208228374281514 -3.18916032455455e-20)
(0.9533923237352118 -0.0003141848020736727 0)
(0.9009860997240208 0.2020324487115557 4.945977370856467e-20)
(1.011153757299856 0.06746154673331703 0)
(0.9908017032423747 0.004849531175421942 -2.2850612235163e-20)
(1.057806536515028 -0.04909439424935006 -2.789970743814746e-20)
(0.9940180081726505 8.37659347587685e-05 3.246866877527458e-20)
(1.006765639462305 0.005993757582090092 0)
(0.9803197993741501 0.0006346609727146055 -3.008399732712899e-20)
(1.17856295886654 0.1010412119765859 -3.382172404724188e-19)
(1.068398060098658 -0.2640702308354522 0)
(0.9944024702526412 0.000510028919180201 -2.266450752933043e-20)
(0.9739646504442 0.003383621126405296 4.757730271994994e-21)
(0.9597698055573424 -0.001707354300794315 1.022417870191865e-21)
(0.7459984985279555 -0.001063660544304566 0)
(1.119505292203777 -0.06930424331224561 0)
(1.003909020019125 -0.0003140245504271775 -2.249813661749733e-20)
(0.9083772007493527 0.008191352588910026 -1.075370868575942e-20)
(0.8406020555279374 -0.001139624659958798 3.67053191679779e-21)
(1.012246226032382 -0.006707510283084956 0)
(0.9622686835650947 0.01369673732658772 1.496697800774004e-20)
(1.005635259899181 -0.0001948955685005464 -2.241050706093484e-20)
(1.026493174947927 -0.002032869181574332 -2.479973121634793e-20)
(1.114081520218539 -0.003917883905789759 -4.907679082855897e-21)
(1.116281953171893 -0.004852122026904375 0)
(1.009756984411722 0.0008297997403142192 0)
(1.022921204474215 -0.002987323308298108 0)
(0.9451172816743065 0.006681886068796857 -1.984380411479298e-20)
(1.017864684943866 0.01335581448901617 5.628320557636252e-20)
(1.088079352610885 -0.003532202745234577 -2.361204715026837e-20)
(1.03860018860565 -0.003105672081961798 0)
(1.109060620595237 -0.002512185612667314 1.833803915669462e-21)
(0.9943147799026876 0.00105562112494516 -2.245348150521248e-20)
(0.9800649150963399 -0.0008426374508239713 0)
(1.009933658624241 0.002423920896753039 4.69392662472967e-20)
(1.363142385679525 -0.3139819120932191 -1.119713338458315e-18)
(1.120670692572236 -0.04453440371519118 -1.111141498695625e-19)
(0.9720983262633116 0.01114408607785519 4.46968957267305e-20)
(0.7673634096615635 0.009111647359970654 -3.578224059223041e-20)
(1.223794683427865 0.04941653225873889 0)
(1.215908334843526 -0.1289572096479147 -1.482356477303218e-19)
(1.085589515860926 -0.004626881924294497 0)
(1.00872506072322 0.0004394848581705419 2.291087458730721e-20)
(-0.2005892733562931 -0.1076321852869322 0)
(0.9939693457239561 -0.004670803797759249 0)
(1.01232967828542 -0.02303532427802666 3.901368792866079e-20)
(0.7063966974087067 -0.01943074061960109 0)
(1.096791220915715 -0.0149119068276794 2.337734691183383e-21)
(1.039046026646876 0.003182530111240975 1.524110800231379e-20)
(0.6332228896815226 0.004140933134042502 0)
(1.446228264039815 -0.1241713121223638 0)
(0.9857742313344284 0.002018444003744724 -1.06670937188347e-20)
(1.06966270298693 -0.01507954178366912 0)
(1.037825964523599 0.0005267442873611876 2.044329558874876e-20)
(1.084263963849365 -0.001379900128138114 0)
(1.012081367134176 -0.006049238135934358 -1.211830041161258e-21)
(1.006006651809714 0.003308917236084268 0)
(1.008044979379816 0.00363338983917113 -1.254782760134629e-21)
(1.004343797658946 -0.02028460070252142 0)
(1.036190937861846 -0.007853043511023075 1.79938295174051e-20)
(-0.1945194806324317 0.0415319271747161 2.813649771521724e-19)
(0.8048869762758911 0.02928861278471175 5.952906844509623e-20)
(1.005066338261662 0.002136757694579055 0)
(1.121777918658379 0.01092752411287568 -1.20868265097889e-20)
(1.1100412460488 0.003916573965507404 9.301722125301322e-21)
(1.054217859260125 -0.01275824247443628 -1.328702534371709e-19)
(0.9987719695514508 0.01040198432789745 -3.257981289521095e-22)
(1.083978104363419 -0.005923597859747443 0)
(1.18892697739235 0.05050527437046848 0)
(0.8350632709442259 -0.07465732946221727 4.607455772949539e-19)
(1.089503683623333 -0.004264672639246145 0)
(1.033823616959273 0.007869381797711092 -7.711885152018718e-21)
(1.042557049120603 0.005364956738396924 5.639574517171525e-21)
(1.053308754981676 -0.05833476109907349 -7.596762617268408e-21)
(1.139401737085615 -0.002096472129554446 1.723395376816343e-19)
(1.081194237478112 0.002477447766251844 0)
(0.9943214709650307 0.001956701705094458 0)
(0.9981048333796942 -0.02631716773624622 -2.436116330622861e-21)
(0.9906639936152553 0.003610155596909835 0)
(1.030553675813397 -0.03656416991157502 6.519531126472087e-20)
(1.291445228526988 -0.09827066078721805 0)
(1.040803261995396 0.001316912002038303 -4.157874051237689e-21)
(0.9861872321057649 0.01688939405188799 -9.08108781383424e-20)
(1.033666903827165 0.04317385380972531 -2.320247663756325e-21)
(-0.07610223414766142 0.1892129835009329 -1.739324429889018e-19)
(-0.06980212418299978 -0.2858161937152123 -1.296598707295266e-19)
(0.8797146834305832 0.1173386615529606 0)
(0.2767714275295772 -0.02707796152970351 -3.006390348567499e-19)
(1.008217228799627 -0.005912093396491912 -9.478576314989366e-21)
(1.063958362962917 0.002714870918288237 -2.062666150061295e-20)
(0.9921825092890781 -0.0217719401549029 3.099006920654032e-20)
(1.026897218480417 -0.03013370167145306 2.689650274714641e-21)
(1.00984318357855 -0.03050984647024998 -6.713461054788325e-20)
(0.9888258520998897 0.004886295898883216 -3.49237622853202e-20)
(0.9936976090767514 0.004993583133946825 0)
(1.024442970420014 -0.002192400246881991 -3.476480188662605e-21)
(1.931183293725481 -0.156486374806851 1.065723363937403e-18)
(1.047599403705195 -0.01070678309197019 0)
(0.9967020899349223 0.00790227819347928 1.48760196537176e-20)
(1.003625799558123 -0.0005507705295331617 3.991770439701744e-20)
(1.169895926191921 0.1592431872123797 0)
(1.00632455768143 -0.01965990698747132 4.739759871704391e-21)
(0.9533279261476629 0.003755491627007464 0)
(1.037845161592303 0.04172389282973969 0)
(1.300441790924169 0.1494429685904206 2.214094492671829e-19)
(1.076429524817157 -0.0007120849175091805 2.334485625647063e-20)
(1.016003359835649 0.03069649489010039 4.457112730462095e-20)
(1.078704463224039 0.004207579117898281 -2.247603752934629e-20)
(1.057632921516823 -0.02337582669536389 -5.034095477781665e-21)
(-0.3897573697594282 -0.04440515216687075 0)
(0.9995454186868881 0.01252127489291822 0)
(0.1245338625874225 0.0536204633601811 -9.481389362937893e-20)
(1.005923792398693 0.02037318247660455 -3.989467776879214e-20)
(1.007119290112189 -0.02646235833551474 0)
(1.001051676071862 0.005309455157716169 -4.869468845085619e-21)
(1.082026593314742 -0.04236274216426546 0)
(0.9940597941869862 -0.01884419024979977 -8.141322057486434e-21)
(1.100049218226054 -0.05045903391844381 0)
(1.44278795747743 0.1692783669818317 0)
(1.05482582230665 -0.01191389346264978 0)
(0.99158856163419 -0.02485374771400297 -4.165608687771783e-20)
(0.9923123004038574 -0.02386175023743096 -3.447025610178682e-21)
(1.016839200004373 -0.02183977438242102 -2.173703719053166e-20)
(0.9966377035297569 0.01695889156084893 -5.387607595159051e-20)
(0.9961018176040417 0.009534202280894962 -1.449774213419434e-20)
(0.9954608208154077 -0.02757227870981267 0)
(1.001600545188043 0.02420251355573906 1.873210129243659e-20)
(1.043516515630644 -0.02370425896902472 0)
(1.110867772445913 -0.03640615422870299 2.523743617961728e-19)
(0.995295160895955 0.01656574535495718 4.458022604552163e-20)
(0.6150406387790851 -0.008695032769083171 0)
(1.15558871341698 0.1610336070631465 8.094187008270601e-22)
(0.8255196939037197 -0.07957456804655531 0)
(1.138653033700882 0.07255778708200002 -2.799951782284676e-19)
(1.314461613978489 -0.3885856176388877 1.27716432659961e-19)
(1.071082974991988 0.06703793654245549 -1.254988466791266e-20)
(1.011758584693458 -0.03043671531400373 0)
(0.9552157882019316 -0.2147616935237487 0)
(0.5499138413111214 0.1781900308495711 0)
(1.015177454290469 0.01329702517120602 1.064690641666128e-21)
(0.7102277342504686 -0.0147443829476743 0)
(0.9987818392355721 0.01623433365564752 3.435026533010154e-20)
(1.026437269471075 -0.0008338618485060464 -2.669381991020755e-20)
(1.079024885529608 -0.008017336177367454 2.63067182898601e-21)
(1.054649510292646 -0.02545831220729668 2.531879376339204e-20)
(1.042913481835462 0.0114446421975835 0)
(1.056299766194547 0.02081151683731256 -8.793664157212701e-21)
(1.050786478649434 0.03621331564192821 -1.764713638227794e-20)
(0.9838758939430697 -0.022260131836161 0)
(0.624879954859343 0.00511438585767181 9.170825795658279e-20)
(0.8941618740115148 -0.005950662131725732 -8.846288953428258e-20)
(0.9093599267435358 0.005224820884994095 1.450955660873048e-20)
(0.6296490537035765 -0.006439830434966377 1.410987829166631e-20)
(0.9808850257711969 -0.0001435086771959875 2.470458467262903e-20)
(1.004408224644011 -0.01754945795024204 -3.30055493820738e-20)
(0.981048369906479 -0.02773951477988025 -2.731956450483072e-20)
(1.085641892747572 0.001572921336556687 0)
(1.019146585965384 0.005325977411070522 1.052719139122116e-20)
(1.132829855364994 0.04822899024707605 1.350275062905838e-19)
(1.031560505897822 0.04260388759037462 0)
(1.022556157161853 0.00261202161179089 0)
(1.581925837808772 -0.1681802433615224 4.357149915601181e-19)
(1.054158326440072 -0.03639406399264548 0)
(1.021277445355347 0.01056586142651585 -3.599714672837449e-20)
(1.083010424406354 0.004138996302689712 0)
(0.4931535532191149 0.00363772755138257 0)
(-0.007206992510605252 0.007140480177637045 0)
(0.9910679796492646 -0.02353050027124948 1.254191162284669e-20)
(1.300528591482571 -0.09681250766709948 3.663616750953634e-19)
(1.030856361186935 0.03685192255828969 0)
(1.022558369264612 0.003564907160301801 -2.177049184199197e-20)
(0.9303113607633886 -0.1613980193873079 -6.342330448398152e-21)
(1.256107799311446 0.07366395231157942 0)
(0.5982167434823306 0.730625176667909 0)
(1.306801789494268 0.1406780890502796 1.037093500430423e-19)
(1.674578241785379 -0.02667472300002555 0)
(1.064652534838579 0.1334993329566785 0)
(0.7273251512464632 -0.002797626139250342 4.040535546071673e-21)
(1.046382351643729 0.0473230803925962 0)
(0.7471975115436831 0.1136576710066804 1.38588366434878e-19)
(0.9968162845664408 -0.01628820993007237 3.58570940024269e-19)
(1.038737577166894 -0.03906341256120639 2.697034584153768e-20)
(-0.3735747052280077 -0.05554612918406385 0)
(1.072137708462651 -0.01617736113905932 0)
(1.08545850403886 -0.0120467240766553 0)
(0.6479908460586209 -0.5025745224572974 -2.494575726430625e-19)
(0.9903564005067571 -6.809114262925904e-05 0)
(1.09220082286009 -0.0220143739272378 6.834818157551916e-22)
(1.188437442350321 0.1207065122568184 -2.047877468237379e-19)
(1.099539849430802 -0.04328807543563122 0)
(1.005719891970069 -0.02072541528277767 0)
(0.7777143046775257 -0.1916706676720591 -1.647563140743983e-19)
(0.8880075620945098 -0.1419327842170638 1.456124813872434e-19)
(1.033976020875089 0.01246960944007213 -2.048972208084876e-20)
(1.023132489911208 -0.009098455536063138 -4.276533275183479e-20)
(0.8719880099176098 0.0004149274674437177 9.144020845909974e-23)
(1.503519726635454 -0.1948017811874076 0)
(1.307404365813171 0.1096975616873864 2.999838050716373e-20)
(1.241042177694138 -0.07809981669945441 -3.260674837242336e-21)
(1.095826435555351 -0.01876882369431943 -4.016357369613623e-20)
(1.037579794867599 -0.01832112368236513 3.089561013925778e-20)
(1.09281236165896 -0.03913464820540942 9.565481155466892e-20)
(1.032381317464913 0.02049813137659947 0)
(1.051441864920358 -0.03438096914034641 0)
(1.115890942258805 -0.00900051336145319 0)
(1.100699221149622 -0.03799017150463636 0)
(0.9982668144702395 0.01078674047390152 0)
(1.154039593142041 0.07967515145009393 9.389001248049423e-20)
(1.342436279363753 -0.1601900989729301 0)
(1.040938196514871 -0.02687327814370875 -2.586315303483226e-22)
(1.048634272472479 0.05461663769783019 0)
(1.010084266973467 0.01415711652114861 -3.795101296279179e-20)
(1.033559935577163 -0.007710310609146028 9.38106398687939e-21)
(1.088970615130897 0.01338552732246308 -3.165556814933539e-20)
(1.084319698564439 -0.02873193484239402 0)
(1.072931662609176 -0.0004121303868002958 0)
(1.101036650121198 0.09243188925355804 -1.396947665852e-18)
(0.9350682910522375 -0.1488450528841767 -7.108343775471649e-20)
(1.178692795610253 0.1155460624200111 1.143146426046143e-19)
(-0.4548745431243572 -0.0306608235091481 -2.918980373765305e-19)
(1.018349977816243 0.02968208144148964 -8.548433608406469e-20)
(1.007230998521711 -0.0004062271468773617 0)
(-0.2423755239681431 -0.002786494494316933 3.579394962865633e-19)
(-0.0337428370231064 0.3184229016291651 7.679797409719773e-21)
(0.9952080263826937 -0.006297415649980321 8.93058061235486e-20)
(0.1829758851296743 -0.04463751246055887 1.283675818065591e-19)
(1.088491957690889 0.09152455660560441 1.428076238507865e-20)
(0.09338218455228822 -0.1087819826396774 -5.391010261508074e-20)
(1.10830510882681 0.003104075185403139 0)
(1.094071445689752 0.2489394768537215 0)
(1.02108067035847 0.02167466425174824 -1.674231630740629e-20)
(1.062378788823781 0.05748227977576828 0)
(1.024640655711378 0.02387463330610182 -8.300153788678199e-21)
(1.261400116168386 -0.5482285766461947 7.990551088888624e-19)
(-0.09853215140102992 -0.2386385287609787 2.074528780654897e-19)
(1.299653831092805 0.1107282101650641 -6.113915087644145e-19)
(1.123901116087012 4.500008244628307e-05 0)
(1.128410702249478 0.1081024098971568 0)
(0.5199075927373689 0.07589275514429264 2.400569089793188e-19)
(1.023197939308051 -0.02043142595139268 9.606263032355509e-20)
(1.005937289862537 -0.02313249667158443 0)
(1.212323035857255 0.2708958119312744 -9.807243126665894e-20)
(1.254642626081299 0.125422016155758 -1.491537718121032e-19)
(1.026492725750216 0.002996889555990311 1.594282179054048e-20)
(1.296290964001734 -0.08517073606512696 -4.947266275124704e-19)
(0.3097410040755361 -0.02411812612012485 2.921054877066206e-19)
(0.8349005075190521 -0.1505883056953846 6.935068954877552e-19)
(1.046127577924945 0.063584608809265 1.101915060624029e-19)
(1.038865395713578 0.001429463068221928 1.409523942311459e-21)
(1.000715827999558 0.01933856465016273 2.838709688146739e-20)