/*--------------------------------*- C++ -*----------------------------------*\
| =========                 |                                                 |
| \\      /  F ield         | OpenFOAM: The Open Source CFD Toolbox           |
|  \\    /   O peration     | Version:  2412                                  |
|   \\  /    A nd           | Website:  www.openfoam.com                      |
|    \\/     M anipulation  |                                                 |
\*---------------------------------------------------------------------------*/
FoamFile
{
    version     2.0;
    format      ascii;
    arch        "LSB;label=32;scalar=64";
    class       volVectorField;
    location    "0.4";
    object      cellDisplacement;
}
// * * * * * * * * * * * * * * * * * * * * * * * * * * * * * * * * * * * * * //

dimensions      [0 1 0 0 0 0 0];

internalField   nonuniform List<vector> 
256
(
(0.00165947 -0.00193631 0)
(0.00316469 -0.00348627 0)
(0.00472186 -0.00462219 0)
(0.00643457 -0.00530824 0)
(0.00821835 -0.00541977 0)
(0.00993887 -0.00489514 0)
(0.0115304 -0.00376879 0)
(0.0127154 -0.0020948 0)
(0.00724155 -0.00829959 0)
(0.0115869 -0.0122681 0)
(0.0161098 -0.0149661 0)
(0.0208888 -0.0162591 0)
(0.0258198 -0.015995 0)
(0.0306602 -0.0140776 0)
(0.034896 -0.0105276 0)
(0.0379587 -0.00561327 0)
(0.0148638 -0.0167985 0)
(0.0216972 -0.0223134 0)
(0.0288035 -0.0257694 0)
(0.0363536 -0.0270755 0)
(0.0440478 -0.0259645 0)
(0.051356 -0.0223277 0)
(0.0576312 -0.0163122 0)
(0.0620563 -0.00838223 0)
(0.024308 -0.0271035 0)
(0.0333552 -0.0333977 0)
(0.0428004 -0.0369505 0)
(0.0526738 -0.0376419 0)
(0.0626202 -0.0352551 0)
(0.0720224 -0.0297208 0)
(0.079857 -0.0212384 0)
(0.0851814 -0.0104847 0)
(0.0354791 -0.0389836 0)
(0.0464248 -0.0452762 0)
(0.0578369 -0.0482604 0)
(0.0697451 -0.0478867 0)
(0.0815967 -0.0438944 0)
(0.0925117 -0.0362642 0)
(0.101485 -0.025353 0)
(0.107327 -0.0119702 0)
(0.0481507 -0.0520761 0)
(0.0607554 -0.0577139 0)
(0.0739197 -0.0596065 0)
(0.0874502 -0.0577021 0)
(0.100724 -0.0518077 0)
(0.112831 -0.0419842 0)
(0.122546 -0.0286814 0)
(0.128637 -0.0128555 0)
(0.0622461 -0.0661309 0)
(0.0762569 -0.0704801 0)
(0.0908111 -0.0707587 0)
(0.105699 -0.0669973 0)
(0.120095 -0.0589854 0)
(0.132924 -0.0468718 0)
(0.143004 -0.0312344 0)
(0.149112 -0.0131415 0)
(0.0775944 -0.0807835 0)
(0.0927993 -0.0833399 0)
(0.108572 -0.0816158 0)
(0.124433 -0.0756516 0)
(0.139529 -0.065342 0)
(0.152809 -0.0508983 0)
(0.162936 -0.032992 0)
(0.168861 -0.0127886 0)
(0.0941705 -0.09578 0)
(0.110388 -0.0960614 0)
(0.127041 -0.0919576 0)
(0.143592 -0.0835364 0)
(0.159125 -0.070783 0)
(0.17241 -0.0539829 0)
(0.182325 -0.0339062 0)
(0.187888 -0.0117416 0)
(0.111893 -0.11074 0)
(0.128909 -0.10833 0)
(0.146251 -0.101537 0)
(0.163173 -0.0904541 0)
(0.178694 -0.0751519 0)
(0.191747 -0.0560173 0)
(0.2012 -0.0338698 0)
(0.206243 -0.00990109 0)
(0.130803 -0.125296 0)
(0.148462 -0.11982 0)
(0.166157 -0.110035 0)
(0.183097 -0.0961195 0)
(0.198335 -0.0782276 0)
(0.210787 -0.0568138 0)
(0.219545 -0.032738 0)
(0.223916 -0.00712761 0)
(0.151018 -0.138972 0)
(0.169081 -0.130062 0)
(0.186855 -0.11702 0)
(0.203452 -0.100173 0)
(0.217965 -0.07967 0)
(0.22951 -0.056108 0)
(0.237325 -0.0302641 0)
(0.24086 -0.00323101 0)
(0.172716 -0.151113 0)
(0.190949 -0.138387 0)
(0.208384 -0.121943 0)
(0.224184 -0.102016 0)
(0.237575 -0.0790431 0)
(0.24784 -0.0534556 0)
(0.254402 -0.0261274 0)
(0.256882 0.00206957 0)
(0.196052 -0.160693 0)
(0.214055 -0.143881 0)
(0.230637 -0.12378 0)
(0.245076 -0.100912 0)
(0.256817 -0.0755841 0)
(0.265374 -0.0483789 0)
(0.270364 -0.0199111 0)
(0.271602 0.00902983 0)
(0.220847 -0.165909 0)
(0.23793 -0.144745 0)
(0.25284 -0.121234 0)
(0.265208 -0.0957309 0)
(0.274746 -0.0686048 0)
(0.281211 -0.0402718 0)
(0.284431 -0.0112217 0)
(0.284326 0.0180525 0)
(0.244723 -0.16332 0)
(0.259553 -0.138547 0)
(0.271883 -0.112439 0)
(0.281595 -0.0852484 0)
(0.288595 -0.0572368 0)
(0.292815 -0.0286739 0)
(0.294216 0.000165025 0)
(0.292783 0.0290024 0)
(-9.20508e-05 -0.0132175 0)
(0.00188071 -0.0128689 0)
(0.00349385 -0.0117389 0)
(0.00448619 -0.0100411 0)
(0.0047356 -0.00802359 0)
(0.00429351 -0.00596341 0)
(0.00322702 -0.00390781 0)
(0.00170772 -0.00190894 0)
(6.65826e-05 -0.0391668 0)
(0.00559575 -0.03821 0)
(0.0101874 -0.0352323 0)
(0.0132023 -0.0307455 0)
(0.0143369 -0.0253844 0)
(0.0135638 -0.0196622 0)
(0.0111212 -0.013975 0)
(0.00728137 -0.00835297 0)
(0.000547956 -0.0636931 0)
(0.00917922 -0.0621494 0)
(0.0164248 -0.0577073 0)
(0.0214053 -0.0510653 0)
(0.0236481 -0.0430374 0)
(0.0231256 -0.0344497 0)
(0.0200374 -0.0257592 0)
(0.0147319 -0.0171161 0)
(0.00134536 -0.0869945 0)
(0.0127181 -0.0849236 0)
(0.0223595 -0.0793177 0)
(0.0292469 -0.0710103 0)
(0.0328161 -0.0609675 0)
(0.0329251 -0.050053 0)
(0.0298153 -0.0389642 0)
(0.0238174 -0.0278826 0)
(0.00245556 -0.109161 0)
(0.0162723 -0.106591 0)
(0.0280992 -0.100061 0)
(0.0368535 -0.0905265 0)
(0.0418546 -0.0789187 0)
(0.042981 -0.0663006 0)
(0.0403767 -0.0533605 0)
(0.0343913 -0.0403917 0)
(0.00391273 -0.130327 0)
(0.019936 -0.127323 0)
(0.0337939 -0.120096 0)
(0.0443542 -0.109616 0)
(0.0509285 -0.0969107 0)
(0.0533032 -0.0829821 0)
(0.0516464 -0.0686756 0)
(0.0462591 -0.0542938 0)
(0.00574966 -0.150576 0)
(0.0237806 -0.147157 0)
(0.0395368 -0.139419 0)
(0.0518644 -0.128259 0)
(0.0600565 -0.114737 0)
(0.06394 -0.0999373 0)
(0.0635856 -0.0846643 0)
(0.0593189 -0.0692927 0)
(0.00803393 -0.169989 0)
(0.0279114 -0.166189 0)
(0.0454461 -0.158058 0)
(0.0594934 -0.146419 0)
(0.069409 -0.132403 0)
(0.0749401 -0.116994 0)
(0.0761839 -0.101075 0)
(0.0734605 -0.0850585 0)
(0.0108445 -0.188629 0)
(0.032421 -0.184472 0)
(0.0516282 -0.176014 0)
(0.067374 -0.164093 0)
(0.0790254 -0.149744 0)
(0.0863805 -0.133989 0)
(0.089472 -0.117698 0)
(0.0886486 -0.101294 0)
(0.0142959 -0.206507 0)
(0.0374375 -0.202025 0)
(0.0582055 -0.193305 0)
(0.0756072 -0.181191 0)
(0.0890747 -0.166708 0)
(0.0983649 -0.150796 0)
(0.1035 -0.134287 0)
(0.104863 -0.11766 0)
(0.0185326 -0.223646 0)
(0.0430775 -0.218792 0)
(0.0653107 -0.209857 0)
(0.0843576 -0.197686 0)
(0.0996724 -0.183167 0)
(0.111016 -0.167211 0)
(0.118397 -0.150606 0)
(0.122181 -0.13381 0)
(0.0237133 -0.239953 0)
(0.0494922 -0.234681 0)
(0.0730975 -0.225606 0)
(0.0937646 -0.213412 0)
(0.110985 -0.198944 0)
(0.124513 -0.183002 0)
(0.13432 -0.16632 0)
(0.140725 -0.149328 0)
(0.0300053 -0.255207 0)
(0.0568546 -0.249542 0)
(0.0817355 -0.240321 0)
(0.103987 -0.228163 0)
(0.123164 -0.213746 0)
(0.139003 -0.19778 0)
(0.151424 -0.180945 0)
(0.160699 -0.163632 0)
(0.0377297 -0.269101 0)
(0.0653936 -0.262992 0)
(0.0913828 -0.253648 0)
(0.115161 -0.241494 0)
(0.136316 -0.227068 0)
(0.154614 -0.210946 0)
(0.169887 -0.19374 0)
(0.182292 -0.175797 0)
(0.0470465 -0.280937 0)
(0.0752248 -0.274362 0)
(0.102089 -0.264826 0)
(0.127213 -0.252627 0)
(0.150347 -0.238054 0)
(0.171203 -0.221537 0)
(0.189568 -0.203503 0)
(0.205407 -0.184294 0)
(0.0575605 -0.28853 0)
(0.0855642 -0.281499 0)
(0.112744 -0.271757 0)
(0.138838 -0.259397 0)
(0.163595 -0.24454 0)
(0.186776 -0.227327 0)
(0.208159 -0.207925 0)
(0.227536 -0.186521 0)
)
;

boundaryField
{
    walls
    {
        type            cellMotion;
        value           uniform (0 0 0);
    }
    cylinder
    {
        type            cellMotion;
        value           nonuniform List<vector> 
16
(
(0.244723 -0.16332 0)
(0.259553 -0.138547 0)
(0.271883 -0.112439 0)
(0.281595 -0.0852484 0)
(0.288595 -0.0572368 0)
(0.292815 -0.0286739 0)
(0.294216 0.000165025 0)
(0.292783 0.0290024 0)
(0.0575605 -0.28853 0)
(0.0855642 -0.281499 0)
(0.112744 -0.271757 0)
(0.138838 -0.259397 0)
(0.163595 -0.24454 0)
(0.186776 -0.227327 0)
(0.208159 -0.207925 0)
(0.227536 -0.186521 0)
)
;
    }
    outlet
    {
        type            cellMotion;
        value           nonuniform List<vector> 0();
    }
    inlet
    {
        type            cellMotion;
        value           uniform (0 0 0);
    }
    frontAndBack
    {
        type            empty;
    }
    procBoundary0to1
    {
        type            processor;
        value           nonuniform List<vector> 
16
(
(0.013211 -8.99296e-05 0)
(0.0391465 7.71255e-05 0)
(0.0636603 0.00057227 0)
(0.0869514 0.00138831 0)
(0.109109 0.00252132 0)
(0.130272 0.00400554 0)
(0.15052 0.00587287 0)
(0.169933 0.00819047 0)
(0.188579 0.0110257 0)
(0.206462 0.0144969 0)
(0.223606 0.0187253 0)
(0.23991 0.0238761 0)
(0.255177 0.0300869 0)
(0.269048 0.0377616 0)
(0.280915 0.0470426 0)
(0.28853 0.0575605 0)
)
;
    }
    procBoundary0to2
    {
        type            processor;
        value           nonuniform List<vector> 
16
(
(-0.0020757 -0.012726 0)
(-0.00556487 -0.03799 0)
(-0.00831582 -0.0621041 0)
(-0.010411 -0.0852419 0)
(-0.0119015 -0.107394 0)
(-0.0128012 -0.128705 0)
(-0.0131116 -0.149175 0)
(-0.0127872 -0.168913 0)
(-0.0117763 -0.187927 0)
(-0.00996669 -0.206269 0)
(-0.00721404 -0.223934 0)
(-0.00331619 -0.240874 0)
(0.00200909 -0.256908 0)
(0.00901426 -0.271618 0)
(0.018054 -0.284343 0)
(0.0290024 -0.292783 0)
)
;
    }
}


// ************************************************************************* //
