/*--------------------------------*- C++ -*----------------------------------*\
| =========                 |                                                 |
| \\      /  F ield         | OpenFOAM: The Open Source CFD Toolbox           |
|  \\    /   O peration     | Version:  2412                                  |
|   \\  /    A nd           | Website:  www.openfoam.com                      |
|    \\/     M anipulation  |                                                 |
\*---------------------------------------------------------------------------*/
FoamFile
{
    version     2.0;
    format      ascii;
    arch        "LSB;label=32;scalar=64";
    class       surfaceScalarField;
    location    "0.4";
    object      meshPhi;
}
// * * * * * * * * * * * * * * * * * * * * * * * * * * * * * * * * * * * * * //

dimensions      [0 3 -1 0 0 0 0];

internalField   nonuniform List<scalar> 
480
(
0.00215819
-0.0054242
-0.00210662
0.00254013
-0.00645349
0.00302454
-0.00786258
0.00330942
-0.00885301
0.00327509
-0.00890205
0.00327925
-0.00813603
0.00336186
-0.00681061
-0.00476067
0.00683594
-0.0112088
-0.00660536
0.00794671
-0.0131251
0.00914538
-0.0153309
0.00987983
-0.0165745
0.00985277
-0.0163719
0.00973956
-0.0147612
0.00992791
-0.0120879
-0.00837745
0.0121635
-0.0170917
-0.0117223
0.0138743
-0.0195661
0.0154218
-0.0221505
0.0163829
-0.0232913
0.0164235
-0.0226381
0.016056
-0.0201389
0.016222
-0.016171
-0.0110487
0.0180678
-0.0228318
-0.0174988
0.0202071
-0.0256031
0.0218539
-0.0281942
0.0228577
-0.0288857
0.0229897
-0.0276538
0.022474
-0.024436
0.0224845
-0.0194095
-0.0130388
0.0245533
-0.0282989
-0.0240519
0.0269279
-0.0310138
0.0284974
-0.0333832
0.0293763
-0.0335363
0.0294935
-0.0315993
0.0289525
-0.0276238
0.0287789
-0.0217579
-0.014438
0.0315886
-0.033105
-0.0313826
0.033938
-0.0355059
0.0353166
-0.0374229
0.0358957
-0.0369687
0.0357565
-0.0342614
0.0351935
-0.0295687
0.0349249
-0.0231243
-0.0152248
0.0391623
-0.0370921
-0.0394747
0.0411003
-0.0388864
0.0421446
-0.0401013
0.0423326
-0.0391155
0.0418396
-0.0358594
0.0412134
-0.0305876
0.0408532
-0.0236951
-0.0154489
0.0474186
-0.0402101
-0.0484307
0.0486282
-0.0413996
0.0490401
-0.0418131
0.0487497
-0.0401502
0.0479681
-0.0364298
0.0471571
-0.030779
0.0465972
-0.0235677
-0.0151779
0.0564245
-0.0421323
-0.0582075
0.0567048
-0.042731
0.0562305
-0.0424051
0.0553282
-0.0401769
0.0541737
-0.0360603
0.0529993
-0.0301018
0.0521588
-0.0227051
-0.0143805
0.0658969
-0.0423508
-0.0685372
0.0651127
-0.0423808
0.0637022
-0.0414292
0.0620355
-0.0388275
0.0602943
-0.0345103
0.0586768
-0.0284914
0.0575347
-0.0212169
-0.0132044
0.0756111
-0.040772
-0.07923
0.073607
-0.0401685
0.0711843
-0.0385259
0.0686675
-0.0356904
0.066243
-0.0314457
0.0641581
-0.0257504
0.062738
-0.0190216
-0.0116974
0.0855691
-0.0368206
-0.0903562
0.0822068
-0.035656
0.0787091
-0.0334997
0.0752851
-0.0305955
0.0721085
-0.0267149
0.0694951
-0.0217129
0.067806
-0.0159415
-0.0097633
0.0958486
-0.0302576
-0.101912
0.0910989
-0.0288257
0.0863838
-0.0264826
0.0819381
-0.0237576
0.077923
-0.020452
0.0747377
-0.0164243
0.072744
-0.01195
-0.00720302
0.106402
-0.0213446
-0.113798
0.100065
-0.0199828
0.0939474
-0.0178335
0.0883447
-0.0155727
0.0834572
-0.0130212
0.079722
-0.0101555
0.0774045
-0.00709493
-0.00390683
0.116233
-0.00992207
-0.125052
0.108014
-0.00892615
0.100407
-0.00760897
0.0936572
-0.00626339
0.0880508
-0.00484204
0.0838971
-0.00335117
0.0813421
-0.00181108
-0.000264199
0.117747
-0.12831
0.108003
0.0994265
0.0922193
0.0865712
0.082618
0.0804256
0.00364752
-0.00218705
0.00374393
0.000494503
0.00374626
0.00312841
0.00365739
0.00534436
0.00354982
0.00693506
0.00326425
0.00760021
0.00257659
0.0069765
0.00577443
0.0108056
-0.0038904
0.011115
0.000881524
0.0111584
0.00556155
0.0109176
0.00956067
0.0106106
0.0124994
0.00976717
0.0138091
0.00785684
0.0128831
0.0109487
0.0176423
-0.00514161
0.0181505
0.00115131
0.0182811
0.00727693
0.0179835
0.0126175
0.0175223
0.0166397
0.0161567
0.0184831
0.0133525
0.0175154
0.0154099
0.0241511
-0.00602066
0.0246831
0.00126521
0.0249056
0.0083172
0.0247569
0.014663
0.0241977
0.0195254
0.0224137
0.0218295
0.0191116
0.0211148
0.019246
0.0303929
-0.00658379
0.0308239
0.00132923
0.0311323
0.00898058
0.0312855
0.0160046
0.0307328
0.0214507
0.0288354
0.0242842
0.025447
0.0241396
0.0227107
0.0364416
-0.00680838
0.0369026
0.00146993
0.0372938
0.00946135
0.0376652
0.0167982
0.0372484
0.0225575
0.0355762
0.025881
0.0324361
0.0263901
0.0254971
0.0422981
-0.00673614
0.0429336
0.00160994
0.0434692
0.00966759
0.0439608
0.0170687
0.0438165
0.0229892
0.0425706
0.0267412
0.0399575
0.0279251
0.0276811
0.0479248
-0.00644935
0.0486966
0.0017364
0.0495128
0.00967909
0.0502487
0.0169507
0.0504979
0.0228764
0.0498466
0.0269408
0.0480806
0.0287113
0.0290748
0.0533807
-0.00592207
0.0542807
0.00191229
0.0554392
0.00955896
0.0565319
0.0164855
0.057248
0.0221909
0.0573725
0.0263525
0.0567304
0.0284908
0.0294107
0.058699
-0.0050828
0.0598313
0.00224335
0.0612745
0.00930921
0.0627494
0.0156818
0.0640305
0.0209754
0.0650345
0.0248785
0.0656769
0.0271463
0.028515
0.0638924
-0.00391904
0.065237
0.00272448
0.0669595
0.0089907
0.0688944
0.0145996
0.0708947
0.0192631
0.0729198
0.0227538
0.0749637
0.0249635
0.0264802
0.0689364
-0.00245678
0.070409
0.00322001
0.0724698
0.00851769
0.0750096
0.0132569
0.0779831
0.0171468
0.0812941
0.0200383
0.0847971
0.0220226
0.0235926
0.0737178
-0.000955387
0.0753203
0.00349524
0.0778137
0.007678
0.0811768
0.0114126
0.0853741
0.0144184
0.0901955
0.0166467
0.0952103
0.0183205
0.019915
0.0780966
0.000296805
0.0799274
0.00335452
0.083019
0.00631269
0.0873158
0.00897448
0.0928269
0.0111152
0.0992409
0.0126397
0.105892
0.0138497
0.0152492
0.081718
0.00155368
0.0839639
0.00305993
0.0877746
0.00454602
0.0930058
0.00592103
0.0996536
0.00708457
0.107393
0.00793117
0.115701
0.00865505
0.00949399
0.0814607
0.0844262
0.0889642
0.0948965
0.102055
0.110167
0.118941
)
;

boundaryField
{
    walls
    {
        type            calculated;
        value           uniform 0;
    }
    cylinder
    {
        type            calculated;
        value           nonuniform List<scalar> 
16
(
2.13978e-11
-4.22659e-11
-2.72935e-11
3.76793e-11
-1.33791e-11
7.35471e-12
2.21697e-11
-1.80544e-11
1.80552e-11
-2.21682e-11
-7.35356e-12
1.3379e-11
-3.7679e-11
2.72942e-11
4.22664e-11
-2.13975e-11
)
;
    }
    outlet
    {
        type            calculated;
        value           nonuniform List<scalar> 0();
    }
    inlet
    {
        type            calculated;
        value           uniform 0;
    }
    frontAndBack
    {
        type            empty;
    }
    procBoundary0to1
    {
        type            processor;
        value           nonuniform List<scalar> 
16
(
0.00344867
0.0102659
0.0168482
0.0231755
0.0292977
0.0352397
0.0410034
0.0466039
0.0520079
0.0571623
0.0621758
0.0671478
0.0719736
0.0765091
0.0804195
0.0800042
)
;
    }
    procBoundary0to2
    {
        type            processor;
        value           nonuniform List<scalar> 
16
(
-0.003506
-0.0104335
-0.0171131
-0.0235239
-0.0297146
-0.03572
-0.0415669
-0.0472783
-0.0528105
-0.0580904
-0.0632312
-0.0683098
-0.073129
-0.0774596
-0.0809551
-0.0801393
)
;
    }
}


// ************************************************************************* //
