/*--------------------------------*- C++ -*----------------------------------*\
| =========                 |                                                 |
| \\      /  F ield         | OpenFOAM: The Open Source CFD Toolbox           |
|  \\    /   O peration     | Version:  2412                                  |
|   \\  /    A nd           | Website:  www.openfoam.com                      |
|    \\/     M anipulation  |                                                 |
\*---------------------------------------------------------------------------*/
FoamFile
{
    version     2.0;
    format      ascii;
    arch        "LSB;label=32;scalar=64";
    class       pointVectorField;
    location    "0.4";
    object      pointDisplacement;
}
// * * * * * * * * * * * * * * * * * * * * * * * * * * * * * * * * * * * * * //

dimensions      [0 1 0 0 0 0 0];

internalField   nonuniform List<vector> 
578
(
(0 0 0)
(0 0 0)
(0 0 0)
(0 0 0)
(0 0 0)
(0 0 0)
(0 0 0)
(0 0 0)
(0 0 0)
(0.00436107 -0.00499653 0)
(0.00589614 -0.00648544 0)
(0.00888388 -0.00883498 0)
(0.0120321 -0.0102974 0)
(0.0153391 -0.0107603 0)
(0.0186645 -0.0101155 0)
(0.0217704 -0.00833698 0)
(0.0242985 -0.00551799 0)
(0.0257902 -0.00194027 0)
(0.0108875 -0.0124794 0)
(0.0138377 -0.0149194 0)
(0.0195443 -0.0188369 0)
(0.0255371 -0.0210302 0)
(0.0317806 -0.0213402 0)
(0.0379806 -0.0196097 0)
(0.0436524 -0.015829 0)
(0.0481594 -0.0102228 0)
(0.0507357 -0.00334415 0)
(0.0192661 -0.0220396 0)
(0.0235517 -0.0249114 0)
(0.0316638 -0.0296212 0)
(0.0401613 -0.0318758 0)
(0.0489314 -0.031502 0)
(0.0575239 -0.0283345 0)
(0.0652352 -0.0224152 0)
(0.0712057 -0.0141155 0)
(0.0744908 -0.00423179 0)
(0.0293186 -0.0333907 0)
(0.0348921 -0.0362057 0)
(0.0451091 -0.0409894 0)
(0.0557711 -0.0427032 0)
(0.0666697 -0.0411875 0)
(0.0772034 -0.0363 0)
(0.0864889 -0.028157 0)
(0.0934866 -0.0172698 0)
(0.0971685 -0.00463922 0)
(0.0408806 -0.0462325 0)
(0.0477062 -0.0485328 0)
(0.0597423 -0.0527352 0)
(0.072249 -0.0533837 0)
(0.0848931 -0.0503404 0)
(0.0969332 -0.0435021 0)
(0.107364 -0.033081 0)
(0.115022 -0.0197205 0)
(0.11886 -0.00457559 0)
(0.0537999 -0.060248 0)
(0.061859 -0.0616244 0)
(0.0754477 -0.0646625 0)
(0.0894835 -0.0637858 0)
(0.103508 -0.0588896 0)
(0.116663 -0.0499247 0)
(0.127848 -0.0372006 0)
(0.135847 -0.0214812 0)
(0.139657 -0.00402882 0)
(0.067962 -0.075127 0)
(0.0772332 -0.0752094 0)
(0.0921239 -0.0765714 0)
(0.107395 -0.073775 0)
(0.122458 -0.0667588 0)
(0.13636 -0.0555343 0)
(0.14794 -0.0405042 0)
(0.156 -0.0225398 0)
(0.159627 -0.00296445 0)
(0.0832798 -0.0905558 0)
(0.093749 -0.0890176 0)
(0.109717 -0.0882657 0)
(0.125928 -0.0832079 0)
(0.14169 -0.0738407 0)
(0.15599 -0.0602589 0)
(0.167641 -0.0429473 0)
(0.175522 -0.0228558 0)
(0.178833 -0.00132512 0)
(0.0997134 -0.106217 0)
(0.111353 -0.102753 0)
(0.128166 -0.0994916 0)
(0.145035 -0.0918863 0)
(0.161168 -0.0799911 0)
(0.175516 -0.0639882 0)
(0.186941 -0.044444 0)
(0.194432 -0.0223516 0)
(0.197309 0.000974288 0)
(0.117266 -0.12175 0)
(0.130031 -0.11607 0)
(0.147465 -0.109948 0)
(0.164691 -0.0995485 0)
(0.180847 -0.0849946 0)
(0.194912 -0.0665539 0)
(0.205839 -0.0448571 0)
(0.212743 -0.0209044 0)
(0.215071 0.00405351 0)
(0.136027 -0.136753 0)
(0.149857 -0.128557 0)
(0.167661 -0.119248 0)
(0.184913 -0.105845 0)
(0.200735 -0.0885501 0)
(0.21417 -0.0677026 0)
(0.22431 -0.0439758 0)
(0.230427 -0.0183337 0)
(0.232086 0.00806661 0)
(0.156152 -0.150692 0)
(0.170959 -0.139649 0)
(0.188841 -0.126862 0)
(0.205743 -0.110292 0)
(0.220817 -0.0902234 0)
(0.233243 -0.0670632 0)
(0.242286 -0.0414806 0)
(0.24738 -0.01438 0)
(0.248218 0.0132072 0)
(0.177824 -0.16277 0)
(0.193463 -0.148527 0)
(0.211032 -0.132 0)
(0.227096 -0.11216 0)
(0.240936 -0.0893812 0)
(0.251921 -0.0641046 0)
(0.25951 -0.0369567 0)
(0.263324 -0.0087244 0)
(0.263185 0.0197446 0)
(0.201065 -0.171663 0)
(0.217245 -0.153807 0)
(0.233894 -0.133403 0)
(0.248467 -0.110402 0)
(0.260484 -0.0851925 0)
(0.269554 -0.0581933 0)
(0.275358 -0.0299302 0)
(0.27769 -0.000999645 0)
(0.276479 0.027981 0)
(0.224601 -0.175018 0)
(0.240804 -0.153111 0)
(0.255589 -0.129216 0)
(0.267912 -0.103635 0)
(0.277559 -0.0766769 0)
(0.284359 -0.0486703 0)
(0.28818 -0.0199775 0)
(0.288946 0.00901822 0)
(0.286643 0.0379283 0)
(0.2367 -0.175343 0)
(0.252746 -0.151298 0)
(0.266359 -0.125796 0)
(0.277407 -0.0990823 0)
(0.285783 -0.0714145 0)
(0.291406 -0.043059 0)
(0.294224 -0.0142889 0)
(0.294208 0.0146189 0)
(0.291358 0.0433859 0)
(0 0 0)
(0 0 0)
(0 0 0)
(0 0 0)
(0 0 0)
(0 0 0)
(0 0 0)
(0 0 0)
(0 0 0)
(0.00436107 -0.00499653 0)
(0.00589614 -0.00648544 0)
(0.00888388 -0.00883498 0)
(0.0120321 -0.0102974 0)
(0.0153391 -0.0107603 0)
(0.0186645 -0.0101155 0)
(0.0217704 -0.00833698 0)
(0.0242985 -0.00551799 0)
(0.0257902 -0.00194027 0)
(0.0108875 -0.0124794 0)
(0.0138377 -0.0149194 0)
(0.0195443 -0.0188369 0)
(0.0255371 -0.0210302 0)
(0.0317806 -0.0213402 0)
(0.0379806 -0.0196097 0)
(0.0436524 -0.015829 0)
(0.0481594 -0.0102228 0)
(0.0507357 -0.00334415 0)
(0.0192661 -0.0220396 0)
(0.0235517 -0.0249114 0)
(0.0316638 -0.0296212 0)
(0.0401613 -0.0318758 0)
(0.0489314 -0.031502 0)
(0.0575239 -0.0283345 0)
(0.0652352 -0.0224152 0)
(0.0712057 -0.0141155 0)
(0.0744908 -0.00423179 0)
(0.0293186 -0.0333907 0)
(0.0348921 -0.0362057 0)
(0.0451091 -0.0409894 0)
(0.0557711 -0.0427032 0)
(0.0666697 -0.0411875 0)
(0.0772034 -0.0363 0)
(0.0864889 -0.028157 0)
(0.0934866 -0.0172698 0)
(0.0971685 -0.00463922 0)
(0.0408806 -0.0462325 0)
(0.0477062 -0.0485328 0)
(0.0597423 -0.0527352 0)
(0.072249 -0.0533837 0)
(0.0848931 -0.0503404 0)
(0.0969332 -0.0435021 0)
(0.107364 -0.033081 0)
(0.115022 -0.0197205 0)
(0.11886 -0.00457559 0)
(0.0537999 -0.060248 0)
(0.061859 -0.0616244 0)
(0.0754477 -0.0646625 0)
(0.0894835 -0.0637858 0)
(0.103508 -0.0588896 0)
(0.116663 -0.0499247 0)
(0.127848 -0.0372006 0)
(0.135847 -0.0214812 0)
(0.139657 -0.00402882 0)
(0.067962 -0.075127 0)
(0.0772332 -0.0752094 0)
(0.0921239 -0.0765714 0)
(0.107395 -0.073775 0)
(0.122458 -0.0667588 0)
(0.13636 -0.0555343 0)
(0.14794 -0.0405042 0)
(0.156 -0.0225398 0)
(0.159627 -0.00296445 0)
(0.0832798 -0.0905558 0)
(0.093749 -0.0890176 0)
(0.109717 -0.0882657 0)
(0.125928 -0.0832079 0)
(0.14169 -0.0738407 0)
(0.15599 -0.0602589 0)
(0.167641 -0.0429473 0)
(0.175522 -0.0228558 0)
(0.178833 -0.00132512 0)
(0.0997134 -0.106217 0)
(0.111353 -0.102753 0)
(0.128166 -0.0994916 0)
(0.145035 -0.0918863 0)
(0.161168 -0.0799911 0)
(0.175516 -0.0639882 0)
(0.186941 -0.044444 0)
(0.194432 -0.0223516 0)
(0.197309 0.000974288 0)
(0.117266 -0.12175 0)
(0.130031 -0.11607 0)
(0.147465 -0.109948 0)
(0.164691 -0.0995485 0)
(0.180847 -0.0849946 0)
(0.194912 -0.0665539 0)
(0.205839 -0.0448571 0)
(0.212743 -0.0209044 0)
(0.215071 0.00405351 0)
(0.136027 -0.136753 0)
(0.149857 -0.128557 0)
(0.167661 -0.119248 0)
(0.184913 -0.105845 0)
(0.200735 -0.0885501 0)
(0.21417 -0.0677026 0)
(0.22431 -0.0439758 0)
(0.230427 -0.0183337 0)
(0.232086 0.00806661 0)
(0.156152 -0.150692 0)
(0.170959 -0.139649 0)
(0.188841 -0.126862 0)
(0.205743 -0.110292 0)
(0.220817 -0.0902234 0)
(0.233243 -0.0670632 0)
(0.242286 -0.0414806 0)
(0.24738 -0.01438 0)
(0.248218 0.0132072 0)
(0.177824 -0.16277 0)
(0.193463 -0.148527 0)
(0.211032 -0.132 0)
(0.227096 -0.11216 0)
(0.240936 -0.0893812 0)
(0.251921 -0.0641046 0)
(0.25951 -0.0369567 0)
(0.263324 -0.0087244 0)
(0.263185 0.0197446 0)
(0.201065 -0.171663 0)
(0.217245 -0.153807 0)
(0.233894 -0.133403 0)
(0.248467 -0.110402 0)
(0.260484 -0.0851925 0)
(0.269554 -0.0581933 0)
(0.275358 -0.0299302 0)
(0.27769 -0.000999645 0)
(0.276479 0.027981 0)
(0.224601 -0.175018 0)
(0.240804 -0.153111 0)
(0.255589 -0.129216 0)
(0.267912 -0.103635 0)
(0.277559 -0.0766769 0)
(0.284359 -0.0486703 0)
(0.28818 -0.0199775 0)
(0.288946 0.00901822 0)
(0.286643 0.0379283 0)
(0.2367 -0.175343 0)
(0.252746 -0.151298 0)
(0.266359 -0.125796 0)
(0.277407 -0.0990823 0)
(0.285783 -0.0714145 0)
(0.291406 -0.043059 0)
(0.294224 -0.0142889 0)
(0.294208 0.0146189 0)
(0.291358 0.0433859 0)
(0 0 0)
(0 0 0)
(0 0 0)
(0 0 0)
(0 0 0)
(0 0 0)
(0 0 0)
(0 0 0)
(-0.00192646 -0.0258074 0)
(0.00186241 -0.0259034 0)
(0.00529894 -0.02455 0)
(0.00785908 -0.0219711 0)
(0.00920917 -0.0185705 0)
(0.00924765 -0.0147681 0)
(0.00805806 -0.0108751 0)
(0.00582815 -0.00702229 0)
(-0.00332409 -0.0507688 0)
(0.00384768 -0.0508387 0)
(0.0103548 -0.0483587 0)
(0.0153191 -0.0437182 0)
(0.0181655 -0.0375824 0)
(0.0186859 -0.03065 0)
(0.0169752 -0.0234691 0)
(0.0132992 -0.0163006 0)
(-0.00421353 -0.0745368 0)
(0.00594881 -0.0744706 0)
(0.0151774 -0.0710551 0)
(0.0223712 -0.0648041 0)
(0.026795 -0.0565458 0)
(0.0281464 -0.0471475 0)
(0.0264932 -0.0373215 0)
(0.022116 -0.0274417 0)
(-0.0046308 -0.097224 0)
(0.00819986 -0.0969448 0)
(0.0198686 -0.0927509 0)
(0.0291502 -0.0852561 0)
(0.035207 -0.0753815 0)
(0.0376619 -0.0640837 0)
(0.0365443 -0.0521899 0)
(0.0321221 -0.0401698 0)
(-0.00458454 -0.118921 0)
(0.0106469 -0.118375 0)
(0.0245312 -0.113543 0)
(0.0357842 -0.1051 0)
(0.0435104 -0.0940183 0)
(0.0472835 -0.0813029 0)
(0.0470975 -0.0678535 0)
(0.0431937 -0.0542066 0)
(-0.00406186 -0.139718 0)
(0.0133481 -0.138868 0)
(0.0292672 -0.133521 0)
(0.0423951 -0.12437 0)
(0.0518119 -0.112405 0)
(0.0570725 -0.0986671 0)
(0.0581391 -0.0840904 0)
(0.055229 -0.0692615 0)
(-0.00302668 -0.159683 0)
(0.0163727 -0.158497 0)
(0.0341737 -0.152725 0)
(0.0490918 -0.14306 0)
(0.0602154 -0.130477 0)
(0.0671001 -0.116042 0)
(0.0696815 -0.100694 0)
(0.0681629 -0.085054 0)
(-0.00141804 -0.178882 0)
(0.0198067 -0.177337 0)
(0.0393561 -0.171201 0)
(0.0559909 -0.161165 0)
(0.0688333 -0.148186 0)
(0.0774507 -0.133306 0)
(0.0817613 -0.117465 0)
(0.0819648 -0.101313 0)
(0.000853498 -0.197349 0)
(0.0237539 -0.195423 0)
(0.044927 -0.188969 0)
(0.0632081 -0.178668 0)
(0.0777766 -0.165453 0)
(0.0882211 -0.150332 0)
(0.0944441 -0.134217 0)
(0.0966411 -0.117765 0)
(0.00391693 -0.215103 0)
(0.0283402 -0.212755 0)
(0.0510111 -0.206008 0)
(0.0708734 -0.195525 0)
(0.0871824 -0.182205 0)
(0.0995393 -0.166991 0)
(0.107831 -0.150748 0)
(0.112251 -0.134118 0)
(0.00793472 -0.232114 0)
(0.0337082 -0.229279 0)
(0.0577472 -0.222245 0)
(0.0791345 -0.211653 0)
(0.0971975 -0.198317 0)
(0.111551 -0.183099 0)
(0.12207 -0.166805 0)
(0.128917 -0.15004 0)
(0.0131096 -0.248246 0)
(0.0400206 -0.244855 0)
(0.065297 -0.237547 0)
(0.0881469 -0.226886 0)
(0.107976 -0.213579 0)
(0.124418 -0.198384 0)
(0.137319 -0.182029 0)
(0.146798 -0.165077 0)
(0.0196971 -0.263217 0)
(0.0475002 -0.259218 0)
(0.0738431 -0.251633 0)
(0.098066 -0.240915 0)
(0.119655 -0.227629 0)
(0.138273 -0.212398 0)
(0.153732 -0.195868 0)
(0.166075 -0.178547 0)
(0.0279705 -0.276506 0)
(0.056354 -0.271853 0)
(0.0835244 -0.263963 0)
(0.10896 -0.253156 0)
(0.132256 -0.239819 0)
(0.153116 -0.224412 0)
(0.171313 -0.207445 0)
(0.186782 -0.18935 0)
(0.0379297 -0.286653 0)
(0.0663582 -0.281336 0)
(0.0939104 -0.273115 0)
(0.120222 -0.262156 0)
(0.144997 -0.248661 0)
(0.167977 -0.232873 0)
(0.188923 -0.215085 0)
(0.207664 -0.195576 0)
(0.0433859 -0.291358 0)
(0.0717351 -0.285702 0)
(0.0993934 -0.277295 0)
(0.126094 -0.266218 0)
(0.151581 -0.252577 0)
(0.175608 -0.236503 0)
(0.197944 -0.218151 0)
(0.218373 -0.197699 0)
(0 0 0)
(0 0 0)
(0 0 0)
(0 0 0)
(0 0 0)
(0 0 0)
(0 0 0)
(0 0 0)
(-0.00192646 -0.0258074 0)
(0.00186241 -0.0259034 0)
(0.00529894 -0.02455 0)
(0.00785908 -0.0219711 0)
(0.00920917 -0.0185705 0)
(0.00924765 -0.0147681 0)
(0.00805806 -0.0108751 0)
(0.00582815 -0.00702229 0)
(-0.00332409 -0.0507688 0)
(0.00384768 -0.0508387 0)
(0.0103548 -0.0483587 0)
(0.0153191 -0.0437182 0)
(0.0181655 -0.0375824 0)
(0.0186859 -0.03065 0)
(0.0169752 -0.0234691 0)
(0.0132992 -0.0163006 0)
(-0.00421353 -0.0745368 0)
(0.00594881 -0.0744706 0)
(0.0151774 -0.0710551 0)
(0.0223712 -0.0648041 0)
(0.026795 -0.0565458 0)
(0.0281464 -0.0471475 0)
(0.0264932 -0.0373215 0)
(0.022116 -0.0274417 0)
(-0.0046308 -0.097224 0)
(0.00819986 -0.0969448 0)
(0.0198686 -0.0927509 0)
(0.0291502 -0.0852561 0)
(0.035207 -0.0753815 0)
(0.0376619 -0.0640837 0)
(0.0365443 -0.0521899 0)
(0.0321221 -0.0401698 0)
(-0.00458454 -0.118921 0)
(0.0106469 -0.118375 0)
(0.0245312 -0.113543 0)
(0.0357842 -0.1051 0)
(0.0435104 -0.0940183 0)
(0.0472835 -0.0813029 0)
(0.0470975 -0.0678535 0)
(0.0431937 -0.0542066 0)
(-0.00406186 -0.139718 0)
(0.0133481 -0.138868 0)
(0.0292672 -0.133521 0)
(0.0423951 -0.12437 0)
(0.0518119 -0.112405 0)
(0.0570725 -0.0986671 0)
(0.0581391 -0.0840904 0)
(0.055229 -0.0692615 0)
(-0.00302668 -0.159683 0)
(0.0163727 -0.158497 0)
(0.0341737 -0.152725 0)
(0.0490918 -0.14306 0)
(0.0602154 -0.130477 0)
(0.0671001 -0.116042 0)
(0.0696815 -0.100694 0)
(0.0681629 -0.085054 0)
(-0.00141804 -0.178882 0)
(0.0198067 -0.177337 0)
(0.0393561 -0.171201 0)
(0.0559909 -0.161165 0)
(0.0688333 -0.148186 0)
(0.0774507 -0.133306 0)
(0.0817613 -0.117465 0)
(0.0819648 -0.101313 0)
(0.000853498 -0.197349 0)
(0.0237539 -0.195423 0)
(0.044927 -0.188969 0)
(0.0632081 -0.178668 0)
(0.0777766 -0.165453 0)
(0.0882211 -0.150332 0)
(0.0944441 -0.134217 0)
(0.0966411 -0.117765 0)
(0.00391693 -0.215103 0)
(0.0283402 -0.212755 0)
(0.0510111 -0.206008 0)
(0.0708734 -0.195525 0)
(0.0871824 -0.182205 0)
(0.0995393 -0.166991 0)
(0.107831 -0.150748 0)
(0.112251 -0.134118 0)
(0.00793472 -0.232114 0)
(0.0337082 -0.229279 0)
(0.0577472 -0.222245 0)
(0.0791345 -0.211653 0)
(0.0971975 -0.198317 0)
(0.111551 -0.183099 0)
(0.12207 -0.166805 0)
(0.128917 -0.15004 0)
(0.0131096 -0.248246 0)
(0.0400206 -0.244855 0)
(0.065297 -0.237547 0)
(0.0881469 -0.226886 0)
(0.107976 -0.213579 0)
(0.124418 -0.198384 0)
(0.137319 -0.182029 0)
(0.146798 -0.165077 0)
(0.0196971 -0.263217 0)
(0.0475002 -0.259218 0)
(0.0738431 -0.251633 0)
(0.098066 -0.240915 0)
(0.119655 -0.227629 0)
(0.138273 -0.212398 0)
(0.153732 -0.195868 0)
(0.166075 -0.178547 0)
(0.0279705 -0.276506 0)
(0.056354 -0.271853 0)
(0.0835244 -0.263963 0)
(0.10896 -0.253156 0)
(0.132256 -0.239819 0)
(0.153116 -0.224412 0)
(0.171313 -0.207445 0)
(0.186782 -0.18935 0)
(0.0379297 -0.286653 0)
(0.0663582 -0.281336 0)
(0.0939104 -0.273115 0)
(0.120222 -0.262156 0)
(0.144997 -0.248661 0)
(0.167977 -0.232873 0)
(0.188923 -0.215085 0)
(0.207664 -0.195576 0)
(0.0433859 -0.291358 0)
(0.0717351 -0.285702 0)
(0.0993934 -0.277295 0)
(0.126094 -0.266218 0)
(0.151581 -0.252577 0)
(0.175608 -0.236503 0)
(0.197944 -0.218151 0)
(0.218373 -0.197699 0)
)
;

boundaryField
{
    walls
    {
        type            fixedValue;
        value           uniform (0 0 0);
    }
    cylinder
    {
        type            solidBodyMotionDisplacement;
        value           nonuniform List<vector> 
34
(
(0.2367 -0.175343 0)
(0.2367 -0.175343 0)
(0.252746 -0.151298 0)
(0.252746 -0.151298 0)
(0.266359 -0.125796 0)
(0.266359 -0.125796 0)
(0.277407 -0.0990823 0)
(0.277407 -0.0990823 0)
(0.285783 -0.0714145 0)
(0.285783 -0.0714145 0)
(0.291406 -0.043059 0)
(0.291406 -0.043059 0)
(0.294224 -0.0142889 0)
(0.294224 -0.0142889 0)
(0.294208 0.0146189 0)
(0.294208 0.0146189 0)
(0.291358 0.0433859 0)
(0.291358 0.0433859 0)
(0.0433859 -0.291358 0)
(0.0433859 -0.291358 0)
(0.0717351 -0.285702 0)
(0.0717351 -0.285702 0)
(0.0993934 -0.277295 0)
(0.0993934 -0.277295 0)
(0.126094 -0.266218 0)
(0.126094 -0.266218 0)
(0.151581 -0.252577 0)
(0.151581 -0.252577 0)
(0.175608 -0.236503 0)
(0.175608 -0.236503 0)
(0.197944 -0.218151 0)
(0.197944 -0.218151 0)
(0.218373 -0.197699 0)
(0.218373 -0.197699 0)
)
;
        solidBodyMotionFunction oscillatingRotatingMotion;
        oscillatingRotatingMotionCoeffs
        {
            origin          ( 0 0 0 );
            axis            ( 0 0 1 );
            omega           1.5;
            amplitude       ( 0 0 30 );
        }
    }
    outlet
    {
        type            fixedValue;
        value           nonuniform List<vector> 0();
    }
    inlet
    {
        type            fixedValue;
        value           uniform (0 0 0);
    }
    frontAndBack
    {
        type            empty;
    }
    procBoundary0to1
    {
        type            processor;
    }
    procBoundary0to2
    {
        type            processor;
    }
}


// ************************************************************************* //
