/*--------------------------------*- C++ -*----------------------------------*\
| =========                 |                                                 |
| \\      /  F ield         | OpenFOAM: The Open Source CFD Toolbox           |
|  \\    /   O peration     | Version:  2412                                  |
|   \\  /    A nd           | Website:  www.openfoam.com                      |
|    \\/     M anipulation  |                                                 |
\*---------------------------------------------------------------------------*/
FoamFile
{
    version     2.0;
    format      ascii;
    arch        "LSB;label=32;scalar=64";
    class       surfaceScalarField;
    location    "44.7";
    object      phi;
}
// * * * * * * * * * * * * * * * * * * * * * * * * * * * * * * * * * * * * * //

dimensions      [0 3 -1 0 0 0 0];

oriented        oriented;

internalField   nonuniform List<scalar> 
1171
(
-0.944906
0.944906
0.765795
-1.07662
0.310824
-0.249061
-0.63755
0.886611
0.055094
-0.0744157
-0.282557
0.356972
-0.765795
0.0892695
0.676526
0.918243
-0.209316
-0.708926
0.853545
-1.08536
0.231814
-0.359406
-0.0488638
0.408269
-0.0191011
0.612989
-0.593888
-0.490447
0.835288
-0.344841
-0.433821
1.03794
-0.184394
0.241686
0.0842761
-0.325963
0.998259
0.03968
0.235026
0.00666011
1.03911
-0.0408533
0.615009
-0.86407
-0.776025
0.591884
0.184141
0.26739
-0.757838
0.552711
-0.911674
0.358963
-1.07809
0.667894
0.410201
-0.643464
0.624363
0.0239355
-0.24337
0.219435
0.0371721
-0.61109
0.573918
0.462441
-0.511305
-0.833008
0.865798
-0.0327895
0.983513
0.0555997
0.8965
-1.05703
0.160527
1.00023
-0.0167172
-0.701554
-0.0744704
1.29727
-0.842094
-0.455175
0.167222
-0.10267
-0.399444
0.502113
-0.273493
0.191435
0.0820578
-0.6008
-0.475819
0.98148
-0.0849805
-0.0240714
0.885764
-0.861692
0.546324
0.750945
0.510319
0.00567939
0.456761
-0.788287
-0.107304
0.895591
0.544941
0.241376
-0.786318
0.111081
0.501745
-0.612826
-0.506029
-0.572066
-0.374119
-0.682908
0.0190923
0.255351
-0.274443
-0.947084
-0.0248931
0.971977
0.377698
0.0305713
0.805853
0.112389
-0.59318
-0.0502839
0.036465
-0.824752
0.0526463
0.935729
-0.988376
-0.395009
0.0202417
0.374768
-0.697703
-0.249381
-0.664629
0.717276
0.745698
0.08959
-0.588208
0.973305
-0.80271
-0.170595
-0.254913
0.201558
0.0533555
-0.458333
-0.052972
-0.228267
0.973966
0.0185233
0.421734
-0.440257
-0.485475
1.03042
0.710357
-0.817662
0.412056
-0.0674813
-0.344575
0.797093
-0.797093
-0.830316
0.0456119
-0.328169
-0.696995
0.672923
-0.0408437
-0.152881
0.193724
0.896184
-0.0104207
1.03349
-0.792112
0.227406
-0.326688
0.099282
0.936683
-0.130829
-0.663442
-0.0377411
0.701183
0.144455
-0.228054
0.083599
0.7882
-0.997516
-0.43299
0.308175
0.124815
0.652543
-0.615371
0.871299
-0.397649
-0.47365
0.497179
-0.695974
0.0346977
0.661276
0.150365
0.633796
0.0638222
-0.697619
0.145321
-0.099709
-0.505495
0.110486
0.0304061
-0.885962
0.855556
-0.526814
-0.751065
0.04951
0.50253
-0.0457685
0.278508
-0.835581
0.557073
0.42317
0.57683
0.59492
-0.558455
-0.43058
0.0138347
0.416745
0.565083
0.23201
-0.640565
0.751646
0.103086
0.87747
0.000523962
-0.663966
-0.759183
0.789589
0.596055
0.0669602
0.365293
-0.432253
-0.156858
0.520442
-0.0186968
0.937297
-0.661768
-0.27553
0.648714
0.324591
-0.43924
0.64381
-0.57685
0.409055
0.143656
-0.048989
-0.821652
-0.133978
0.95563
-0.139386
-0.657707
-0.614346
0.359837
0.25451
0.647217
-0.646693
0.316129
1.00036
0.0331289
-0.759183
-0.062261
-0.192652
0.710357
0.770877
-0.770877
0.836452
-0.819035
-0.017417
-0.453415
0.876585
-0.186707
-0.318788
0.764835
-0.675369
-0.0894661
-0.836163
0.0145109
0.122392
-0.715571
0.817662
-0.974519
-0.25067
0.248725
0.00194493
0.123699
-1.00653
0.882833
0.546734
-0.0364145
-0.292224
0.594492
-0.302268
-0.664183
0.787882
-0.155493
0.613547
-0.972777
0.35923
1.14188
-0.803162
-0.338718
0.721888
-0.0720821
0.0245377
-0.0171087
-0.00742895
-0.801348
-0.943334
0.305784
-0.696995
0.564443
-0.544201
0.214956
0.647676
-0.862632
0.7766
0.168306
0.49256
0.50744
-0.0330427
-0.716322
0.749365
0.972727
-0.0354298
-0.721888
0.789589
0.184729
-0.428099
-0.0611737
0.0554107
0.00576299
0.655621
-0.429477
-0.226144
0.676526
-0.0389083
-0.329787
0.53925
0.116371
-0.0290499
-0.00158938
0.0306393
0.0108474
0.0136903
0.170411
-0.237892
-0.926369
-0.00617222
-0.13678
-0.0802588
0.110285
0.802149
0.74125
-0.164419
0.717226
-0.502271
-0.166074
0.39348
0.631054
0.045472
0.236436
-1.05547
-0.974519
0.33193
0.672923
-0.17258
0.0196997
-0.795977
1.06849
-0.272518
0.469639
-0.0948719
0.783474
0.304026
0.19303
0.0419966
-0.680297
0.680297
0.228283
0.667309
-0.0480414
0.469775
0.454072
-0.0454196
-0.0157541
0.513028
0.0337058
-0.664183
0.564913
0.199923
0.00746927
-0.024578
-0.631054
0.202526
0.865969
0.0433934
-0.757223
0.713829
0.754269
-0.819581
0.0653119
-0.7766
-0.0396949
0.0551343
-0.0154395
0.0883264
-0.132862
-0.102209
0.235071
-0.00349593
-0.025554
0.811551
-0.768158
0.81665
0.0699611
-0.344112
-0.435738
0.77985
-0.00180354
0.00180354
0.26256
0.478289
0.497405
-0.975694
-0.199273
-0.548866
0.74814
-0.0198656
0.21359
0.377507
-0.233052
0.878918
-0.400629
0.701447
0.995467
-0.498062
0.1908
0.787882
0.603487
0.21064
0.655157
-0.657707
0.319703
-0.136225
0.111823
0.0244014
0.964651
-0.22347
-0.741181
-0.562634
0.545917
0.546585
-0.562634
-0.603487
0.545917
0.0119777
0.707511
0.109139
-0.565083
0.473679
0.0914034
0.565996
0.580374
-1.14637
0.649119
0.2298
0.45521
0.641286
-1.0965
0.723711
0.271757
0.473679
-0.533438
-0.422989
-0.705948
-0.782475
-0.325101
-0.00815505
0.00815505
0.718892
0.431615
-1.21409
0.670032
-0.304739
-1.1626
0.359433
-0.672777
0.423395
-0.0696107
-1.01213
1.08175
0.449026
-0.0439163
1.00857
-1.00874
-1.08486
0.0941923
0.990671
0.195404
-0.376413
0.181009
0.677483
-0.762463
0.867027
-1.02024
0.153218
0.158953
-0.820721
-0.196156
0.98105
-0.784894
-0.860427
1.01938
-0.840879
0.449363
0.391516
-0.612341
-0.106079
0.71842
0.00373839
-0.00554193
0.422164
0.141714
-0.962868
0.821154
-0.800269
0.767226
1.16149
-0.0473668
-1.11412
0.0766227
-0.0530657
0.469811
-0.365923
0.0392353
0.972479
-1.04209
-0.54238
-0.518136
-0.302584
-0.195881
-0.915354
-0.104891
0.481649
0.235578
-0.30763
0.503034
-0.800615
0.694536
0.47365
-1.05605
-0.907794
-0.200284
-0.212768
0.767449
-0.554681
0.166391
-0.755148
0.576644
0.177626
0.0331661
0.975401
1.11357
0.907269
-1.01216
0.0490888
-0.0490888
-0.0761216
-0.124528
-0.251885
0.337171
-0.00524106
0.154121
1.14179
0.0401734
-0.0436694
0.655864
0.344136
0.796587
-0.6008
-0.74664
-0.778151
-0.513127
0.513127
-0.212945
-0.115223
0.609769
-0.94466
0.334891
-0.465036
-0.557085
0.320359
-1.00327
-0.930114
1.08333
-0.906214
0.60363
0.652776
0.218117
-0.870892
-0.386635
-0.196171
0.873427
-0.677256
-0.211678
0.0304204
-0.000403891
-0.0300165
-0.167874
0.0433461
0.930128
0.404993
-0.122167
-0.282825
0.586002
0.749654
-0.521372
0.017207
-0.2907
0.032528
0.693495
-0.726023
-0.350491
-0.0486224
0.134966
-1.04009
0.29891
-0.726543
0.159432
0.708744
-0.868176
-0.92956
0.203017
0.722473
-0.771096
0.222448
-0.35531
-0.643642
0.257007
0.370556
0.681027
-0.0372166
-0.0120088
0.0120088
-0.00974443
-0.056018
-0.0802069
-0.0136553
0.0538288
-0.408065
0.347318
0.679951
-0.821134
0.141183
-0.709525
0.868957
0.80288
-0.0804064
-0.732954
-0.196606
-1.17098
0.0216958
0.027393
-0.375537
-0.929109
-0.829752
0.374577
-0.244363
0.403408
-0.159044
-0.466156
0.0906193
0.474665
0.710958
-0.0613844
-0.0188744
0.783085
0.514618
0.129518
-0.644136
-0.260424
-0.205731
0.0067269
0.0236935
0.781074
-0.915052
0.00431272
-0.00431272
-0.677121
0.79017
-0.113049
-0.568054
-0.15227
-0.686693
0.0493529
0.700012
-0.0595605
-0.882863
-0.395704
0.375084
0.0206199
0.784068
-0.642886
0.348185
0.235387
-0.583573
-0.148036
-0.703675
-0.1645
-0.162503
-0.346351
0.465817
-0.518789
0.124882
0.768352
-0.893234
0.497179
-0.350176
0.105813
-0.243421
-0.10293
0.58645
-0.0851188
-0.501332
-0.293447
0.314141
-0.0206937
0.47582
0.194212
0.0992044
-0.318318
0.175203
0.143115
0.179267
-0.241528
-0.37922
0.0641537
0.147255
-0.211408
1.00036
-0.341897
-0.226157
0.549892
0.374685
-0.496853
0.420945
-0.420945
-0.209478
-0.415672
-0.219175
-0.415672
-0.739542
-0.851576
0.176206
-0.593782
0.778334
0.0422495
0.145792
0.535235
0.109557
0.125134
0.00860295
-0.133737
-0.218698
0.655949
-0.972561
0.536823
-0.0249842
0.0229308
0.00205343
-0.757663
-0.178471
-0.500289
0.629807
-0.523574
-0.0897882
-0.0131419
-0.349816
-0.0790259
0.0790259
0.0564056
-0.00127124
0.14683
0.16188
-0.621612
0.121323
0.0868393
0.47398
0.52602
0.86643
-0.00443806
0.0614107
-0.0569726
-0.301047
-0.581816
-0.458633
0.119603
-0.123725
0.00412175
-0.171924
-0.403907
-0.156905
0.856917
-0.589824
-0.167838
0.111769
-0.0379503
0.170737
-0.411651
-0.204342
-0.210474
-0.0274185
-0.465943
0.410442
0.0555009
0.0262308
0.294222
-0.866288
-0.513478
0.638219
-0.878637
0.730601
0.416709
-0.0432148
0.0696925
-0.0264778
0.226071
-0.631111
-0.00250291
0.633614
-0.887164
0.64178
-0.717902
0.110771
0.00771448
-0.00771448
-0.301111
0.406596
0.0632149
-0.0413805
0.0369425
0.558839
0.438871
-0.714401
0.0140302
-0.00584584
-0.00616296
0.00505917
-0.00505917
-0.415046
0.609258
0.0179944
-0.0179944
-0.776866
-0.00919681
0.0129352
-0.44819
0.569513
0.461478
-0.574527
0.0727502
-0.0727502
0.0588274
-0.0745815
0.00311617
-1.07814
0.739425
-0.574091
-0.00554192
0.598907
0.00591699
-0.604824
-0.701245
0.111421
-0.313295
-0.0101024
0.323398
-0.0289871
-0.0323974
-0.60174
-0.0293715
0.027393
0.00512169
-0.000808968
-0.00139531
0.00139531
-0.322948
0.11154
-0.469838
0.135929
0.660657
-0.108901
0.0116049
-0.0116049
0.508678
0.0913832
0.00951802
0.0196785
-0.000482754
0.691896
-0.600512
-0.864291
0.638133
-0.167495
0.3467
0.827567
-0.00974443
-0.104179
0.0796014
-0.665819
0.530588
-0.209023
-0.102338
-0.0250963
-0.0272595
0.0477554
0.487778
-0.0915183
-0.409813
0.72018
0.00309588
0.000345507
-0.000345507
-0.286961
-0.161068
-0.568286
0.610535
-0.145424
0.502974
-0.167664
0.782673
0.858965
0.00512168
-0.630403
0.529178
-0.0381715
0.0143848
0.0237866
0.664364
0.0974556
-0.0129344
0.0731004
-0.060166
0.0115391
-0.0115391
-0.766564
0.0236614
-0.0471206
0.0667991
-0.0855135
0.0855135
-0.00584584
0.00186048
0.810276
0.0556928
-0.313561
-0.0903457
-0.515649
0.073598
-0.0678628
0.0678628
0.00185474
0.0848777
-0.0848777
0.0291414
-0.0291414
-0.359083
-0.080157
0.234886
0.0732896
0.0527342
-0.752613
-0.0687573
0.158094
0.026635
-0.243495
0.0845726
-0.0845726
-0.463247
-0.0555423
0.225466
-0.0060311
0.00372637
-0.659675
0.647697
0.0544908
-0.052636
-0.0250912
-0.0494903
-0.0121275
-0.162806
0.174933
-0.144925
-0.210385
-0.0814433
0.0814433
0.0528875
-0.0528875
-0.0253608
-0.0937507
0.119112
-0.0312902
-0.194165
0.0159863
-0.0221493
-0.12794
0.239479
-0.0261385
0.441573
0.0114421
0.0191971
-0.053124
0.053124
-0.720405
0.315153
-0.124353
-0.20698
-0.0210739
-0.0232721
0.0269985
0.19086
0.0442112
-0.00298703
0.00250428
0.0888677
0.0307355
0.0583123
0.0997818
-0.0509083
0.0320339
-0.00396721
0.0029205
0.000288209
-0.00229537
0.00200716
-0.00619135
0.014538
0.0260713
-0.0260713
0.0498282
-0.0458324
0.0458324
-0.19072
0.0221177
0.0287898
-0.0784093
0.0176023
0.0806896
-0.0806896
0.246361
-0.240521
0.0955957
-0.0657491
-0.174772
-0.0128899
0.0128899
0.407474
0.253802
-0.525157
-0.0808005
-0.0429244
0.543404
-0.0563814
-0.0599682
-0.472234
0.112515
-0.149382
0.168158
-0.0187759
-0.0499541
0.0499541
0.940082
-0.585439
0.00269602
-0.00888737
-0.00648761
-0.293694
-0.00030511
0.00407028
-0.0490576
-0.62371
0.571191
-0.632341
0.0135804
0.0552795
0.0147388
0.0239826
-0.15587
-0.329984
0.251575
-0.052177
0.0268162
0.174657
0.139484
0.227719
0.263073
-0.248334
-0.000520759
-0.119037
-0.217083
0.0653584
-0.00704607
0.162703
-0.13872
-0.0694125
0.15828
-0.396954
0.125915
-0.108313
0.0619863
-0.4718
0.172229
0.184338
-0.25375
0.011551
-0.183805
0.1835
0.00388298
0.154397
-0.027838
0.0466014
0.462076
0.0131814
-0.00152725
0.00972432
0.0395396
-0.235859
-0.205169
0.587826
0.162569
0.0628969
0.0691366
-0.0648581
0.0791955
-0.0554089
-0.0308843
0.164735
-0.151155
0.0462281
-0.0194532
-0.110075
-0.0294075
0.078262
0.254805
-0.055525
0.0297053
-0.305257
-0.0102797
0.223573
0.142343
0.172809
0.0543898
0.0929731
0.0529844
0.505854
-0.00196005
0.110635
0.0379303
0.0707624
-0.108693
-0.271356
-0.196733
0.0219614
-0.216995
0.283295
)
;

boundaryField
{
    FrontBack
    {
        type            empty;
    }
    Top
    {
        type            calculated;
        value           uniform 0;
    }
    In
    {
        type            calculated;
        value           uniform -1;
    }
    Bottom
    {
        type            calculated;
        value           uniform 0;
    }
    Out
    {
        type            calculated;
        value           nonuniform List<scalar> 10(1.10433 1.09943 1.12894 0.95351 1.22166 1.05423 1.15051 1.02212 0.630423 0.634847);
    }
    circle
    {
        type            calculated;
        value           uniform 0;
    }
}


// ************************************************************************* //
