/*--------------------------------*- C++ -*----------------------------------*\
| =========                 |                                                 |
| \\      /  F ield         | OpenFOAM: The Open Source CFD Toolbox           |
|  \\    /   O peration     | Version:  2412                                  |
|   \\  /    A nd           | Website:  www.openfoam.com                      |
|    \\/     M anipulation  |                                                 |
\*---------------------------------------------------------------------------*/
FoamFile
{
    version     2.0;
    format      ascii;
    arch        "LSB;label=32;scalar=64";
    class       volVectorField;
    location    "44.7";
    object      U;
}
// * * * * * * * * * * * * * * * * * * * * * * * * * * * * * * * * * * * * * //

dimensions      [0 1 -1 0 0 0 0];

internalField   nonuniform List<vector> 
808
(
(0.896845 -0.0120272 0)
(1.00901 -0.0303122 0)
(1.07619 0.0984824 0)
(1.06682 0.013808 -2.4532e-21)
(1.50265 -0.267622 0)
(0.940436 -0.0220679 0)
(1.12412 -0.0518279 -6.21835e-21)
(1.16703 -0.0401509 0)
(1.38849 -0.218195 2.97648e-20)
(1.2315 -0.066557 -9.81427e-21)
(0.978464 -0.0199852 9.5207e-21)
(1.417 -0.233988 0)
(1.0289 -0.0529743 0)
(0.733238 -0.0340354 0)
(0.882888 0.0268573 1.16433e-20)
(1.10922 -0.0454976 0)
(0.758025 -0.0709547 -2.60369e-21)
(1.02068 -0.0461828 -1.01459e-22)
(1.03413 0.0257155 0)
(1.10029 0.0143623 0)
(1.09986 -0.0347759 -1.32875e-20)
(0.932005 0.121805 1.10708e-19)
(1.07182 0.0102872 -1.64258e-20)
(1.1635 0.00103333 0)
(0.946866 0.162519 0)
(1.31344 0.0455089 -1.81814e-20)
(1.29624 -0.143664 1.05696e-20)
(0.935407 -0.00845842 -5.76902e-21)
(1.09611 -0.0331175 0)
(1.03388 0.0401128 -5.0812e-22)
(0.964979 -0.0211343 4.80543e-24)
(1.11168 0.00729305 0)
(1.07232 -0.0135879 0)
(1.0522 -0.00984527 3.91568e-21)
(1.31035 -0.0214669 8.89138e-21)
(0.744117 -0.132914 1.08307e-19)
(0.86793 -0.0366036 -1.32026e-20)
(1.0201 -0.0081263 1.92665e-21)
(1.20516 0.0442648 -5.56579e-21)
(1.12313 -0.00404651 0)
(1.25293 -0.00815874 -1.55265e-20)
(1.27666 -0.0996015 0)
(1.00777 -0.00253724 -1.09927e-20)
(1.07934 -0.0491145 1.5896e-20)
(1.19647 0.0985783 0)
(1.00983 0.0119397 -2.20446e-20)
(0.991351 0.0228249 2.56607e-21)
(1.26897 -0.231853 1.39699e-20)
(1.16242 0.0339053 -1.26519e-20)
(1.4414 -0.134904 -4.30038e-20)
(1.09839 -0.0968267 1.1267e-20)
(1.1424 -0.056615 0)
(1.11478 -0.00334291 9.87287e-21)
(1.09633 0.053468 0)
(1.29184 0.216461 4.26289e-21)
(1.05527 0.0208912 -4.85938e-21)
(1.1069 0.030278 0)
(1.0837 0.10968 6.17313e-21)
(1.23934 -0.0597842 1.05351e-20)
(1.11237 0.0281211 -1.54543e-21)
(-0.143845 0.546968 0)
(1.22169 -0.209714 -8.6843e-21)
(1.08358 0.0810583 0)
(1.44055 0.0182874 -3.05966e-20)
(1.05767 0.0150791 -1.67265e-20)
(1.03784 -0.028906 -1.12258e-20)
(1.49262 -0.0743482 3.77616e-20)
(0.677185 0.0190114 0)
(1.02816 -0.0530321 0)
(1.50346 -0.352636 0)
(0.900154 0.0304435 -3.55842e-22)
(1.33942 -0.127247 -4.60677e-20)
(1.01552 0.0491049 0)
(1.03482 -0.0156395 -5.36505e-21)
(1.14625 -0.340183 -5.22753e-20)
(1.08709 -0.0787291 -2.1548e-20)
(1.10687 0.0283885 -1.49873e-22)
(1.3115 0.470697 2.55634e-20)
(1.08885 -0.050904 0)
(1.00619 0.261087 -1.82155e-19)
(1.29406 0.061696 8.87108e-21)
(0.737803 0.0188604 0)
(0.847401 0.0166878 -1.35586e-20)
(0.973019 -0.117135 4.00508e-21)
(1.0561 -0.0342205 1.68061e-20)
(1.14996 0.0316704 5.89568e-22)
(1.35434 -0.234769 0)
(1.33408 0.250979 0)
(1.06848 0.0147146 -1.80272e-20)
(1.31271 0.0646644 1.94565e-20)
(1.07315 -0.00371421 1.28962e-20)
(1.33359 -0.0811804 -1.60385e-21)
(0.966092 0.0243696 1.72347e-20)
(1.00355 -0.0225122 0)
(1.10648 0.0182221 2.1245e-21)
(1.50938 0.0816549 -9.90905e-20)
(0.787724 0.0153698 -4.95504e-21)
(1.30551 0.039659 0)
(1.33306 -0.0365628 0)
(1.47651 -0.05596 -5.72102e-20)
(1.1002 -0.061235 -5.61254e-21)
(1.09618 0.0263081 -1.47974e-22)
(0.934265 0.0226931 1.23006e-20)
(1.13681 0.0402959 1.76202e-22)
(1.23987 0.0880752 -2.10088e-20)
(1.00128 0.00078529 1.60659e-20)
(1.33418 0.0392041 0)
(0.870539 -0.190195 0)
(1.07163 0.0241369 1.04983e-20)
(1.22129 -0.204575 -5.18185e-21)
(1.19593 0.0777315 3.52672e-21)
(1.03721 0.0388278 -1.21934e-19)
(1.13279 0.0340194 -4.09975e-21)
(1.27263 -0.0753123 -3.74169e-22)
(0.815612 0.00524342 0)
(0.919384 -0.055813 7.42728e-20)
(1.12026 0.0264447 -8.51926e-21)
(1.50531 -0.257515 -2.10568e-20)
(1.10468 -0.0102412 -1.31267e-20)
(0.92461 0.0219076 2.08132e-21)
(0.0522399 0.409436 0)
(0.857618 -0.0145237 2.0569e-21)
(0.775846 0.0231224 0)
(1.05076 0.00934672 -9.61927e-23)
(1.00899 0.027686 0)
(1.29359 0.300092 7.78834e-21)
(1.03901 -0.0505966 -3.06983e-20)
(1.30845 -0.0955672 -9.74181e-22)
(1.14912 -0.0354266 0)
(1.08997 -0.0213619 0)
(0.832929 -0.0541178 0)
(1.1271 -0.0223261 -6.98073e-21)
(1.22666 -0.0146511 8.3321e-21)
(1.0637 0.106372 -3.42729e-20)
(0.868612 -0.0203891 0)
(1.07836 0.0247967 -2.44366e-21)
(1.22441 0.281619 -1.54493e-22)
(1.22449 0.143806 2.65965e-21)
(0.980112 0.0232839 6.59476e-21)
(1.09978 0.0189519 1.24047e-22)
(-0.0667138 -0.105442 0)
(1.0911 -0.00569818 -1.42241e-20)
(1.11378 0.22221 2.21114e-21)
(0.71739 0.0222604 -6.7121e-21)
(1.23987 0.137399 2.29997e-21)
(1.20561 0.190229 -4.52433e-21)
(1.04378 0.0191265 1.70305e-20)
(0.992995 0.0325827 0)
(1.22754 0.0233292 -2.78941e-20)
(1.05371 -0.0427961 0)
(0.938715 0.0279822 1.40123e-20)
(0.968011 0.268201 1.45719e-19)
(0.957142 0.030499 0)
(0.820454 0.0798268 0)
(-0.162966 -0.21244 -7.74612e-20)
(1.30242 0.0977291 -1.01923e-20)
(0.659991 -0.0142446 0)
(1.31527 0.0725987 0)
(1.21994 0.262467 0)
(1.29741 0.0936743 9.21273e-21)
(-0.0354422 -0.229354 0)
(-0.0853306 -0.116908 3.70646e-20)
(1.16977 -0.0284026 1.03236e-19)
(0.985613 0.0331355 1.92892e-21)
(0.858662 0.00169358 0)
(1.02735 -0.0097447 1.96913e-20)
(0.870435 0.0247996 0)
(0.931919 -0.0563538 -1.11486e-19)
(1.02686 0.0343764 2.01667e-20)
(1.09567 0.00610655 5.25674e-21)
(1.08125 0.0200694 8.14906e-21)
(1.01405 0.0641076 -1.25649e-20)
(0.938144 0.117323 4.50375e-21)
(1.15173 -0.347752 3.9705e-22)
(0.901345 -0.0266059 0)
(1.06259 0.00881583 -1.34802e-20)
(0.874153 0.00614343 -1.28384e-20)
(1.41268 -0.14405 2.43505e-21)
(0.695146 0.0352931 0)
(1.11887 -0.143151 0)
(1.13729 0.0361126 6.53187e-21)
(1.36899 0.176106 8.56481e-21)
(1.09318 0.0229972 6.61322e-21)
(1.03514 0.0291937 1.85833e-20)
(0.533045 -0.109699 -1.20741e-20)
(0.813631 0.000969627 2.23173e-20)
(1.13338 -0.0250852 8.82361e-21)
(1.39451 0.0140664 -5.41641e-21)
(1.10583 0.00494167 -1.01885e-20)
(1.31977 0.0288915 4.64178e-21)
(-0.153206 -0.19713 5.57596e-20)
(1.24167 0.0503468 0)
(0.625973 -0.0076056 0)
(1.06651 -0.0115116 -5.9499e-21)
(1.07846 0.0219087 1.00316e-20)
(0.0124631 -0.0689621 0)
(0.879795 -0.0213726 7.86382e-22)
(1.16936 0.0152959 -5.30714e-21)
(1.00147 0.0496025 2.8334e-21)
(1.07243 0.0331354 -8.1264e-21)
(0.997389 0.0199579 2.43536e-21)
(1.08038 -0.0107383 4.68147e-21)
(1.05463 0.0108303 0)
(0.384933 -0.0435995 0)
(1.04257 -0.0656281 0)
(1.16041 0.0625404 -3.02018e-20)
(-0.0138434 -0.282435 5.68392e-20)
(1.15089 0.0395005 -1.87963e-23)
(0.939484 -0.0191665 0)
(0.739317 0.0166129 -1.3014e-20)
(1.00014 -0.0330341 2.07566e-21)
(-0.01036 -0.0438535 -1.70129e-19)
(1.12086 0.0297389 -8.39559e-20)
(0.617622 -0.00691354 0)
(0.830313 0.0627246 0)
(0.932018 0.0539717 1.14591e-20)
(1.09537 -0.113076 6.53899e-21)
(1.27048 0.375094 -7.19692e-23)
(0.9544 0.13333 -2.67995e-22)
(1.18088 0.117291 -6.92472e-21)
(1.0499 0.0751805 0)
(1.35212 0.394839 -4.01039e-20)
(0.683875 -0.0319879 0)
(0.81371 -0.0224855 -5.78183e-21)
(1.04714 -0.000831082 -1.023e-21)
(0.602854 0.0113513 0)
(1.10015 -0.00601551 0)
(0.498865 0.0313157 -8.17174e-20)
(1.13489 0.189147 -1.40752e-21)
(0.731079 -0.0131449 2.41159e-21)
(0.990631 -0.00238349 0)
(0.550948 -0.0144091 0)
(0.767221 -0.0203249 -4.66347e-21)
(0.544909 -0.00960839 -3.0787e-22)
(1.2965 0.0441169 9.32275e-23)
(0.976947 -0.138229 -6.06006e-21)
(0.732348 0.0138297 -3.6436e-21)
(1.10785 0.0366389 1.44634e-21)
(0.893032 0.278401 2.52503e-22)
(0.573668 0.0110463 9.88319e-21)
(1.12521 0.168485 2.37328e-21)
(1.10161 0.177692 0)
(0.925763 0.328918 0)
(0.511625 0.0191955 0)
(1.09586 0.00478724 0)
(1.1356 0.0695852 1.87033e-21)
(0.952116 0.260003 0)
(1.21241 0.0707697 0)
(1.06138 0.229875 0)
(1.2295 0.275507 0)
(-0.0204782 -0.0658787 5.5591e-20)
(1.2034 0.163006 -1.0188e-21)
(1.26998 0.25262 0)
(1.26116 0.147203 3.8992e-21)
(1.27266 0.105066 -5.46836e-22)
(1.09372 0.0207418 6.80177e-21)
(1.26724 -0.10152 3.60199e-21)
(1.14781 0.141143 0)
(0.588037 -0.015724 1.06761e-20)
(1.04688 0.0361752 1.22207e-20)
(1.21363 0.0116503 0)
(1.005 -0.0394637 -2.75068e-21)
(1.3057 0.0634136 3.10785e-21)
(0.471876 -0.353318 -1.67143e-21)
(1.09487 0.0213119 9.83308e-21)
(1.0964 -0.170646 -4.92893e-21)
(0.951626 -0.237677 0)
(1.33894 0.101724 -1.44566e-22)
(1.11097 -0.11653 1.56895e-21)
(0.902678 0.357924 6.43731e-21)
(0.740178 -0.164947 0)
(-0.0267493 -0.0237633 0)
(0.975503 0.106621 -1.77376e-20)
(1.09239 -0.0532005 0)
(1.37201 -0.0575443 2.63455e-20)
(1.23561 -0.0553865 5.3172e-22)
(1.09002 -0.0856654 4.73803e-21)
(1.26115 -0.033699 -2.83262e-21)
(1.42279 0.0753828 1.40974e-19)
(1.03415 -0.335258 5.27816e-20)
(1.22828 -0.05355 5.413e-22)
(0.796777 0.0396578 0)
(0.731871 -0.328675 0)
(0.906259 0.00732719 -2.90852e-20)
(1.27595 0.0330152 -3.35396e-20)
(1.15589 -0.185897 0)
(0.9011 0.220429 -5.10784e-21)
(0.472899 -0.46691 0)
(0.929353 -0.133614 -1.2985e-20)
(1.0021 0.297139 4.93567e-21)
(0.811827 0.0241606 -6.85735e-21)
(1.29136 -0.0494607 0)
(1.09176 -0.202178 -6.20205e-22)
(0.956455 -0.227121 7.16313e-21)
(0.825292 0.192647 7.55785e-21)
(1.21284 -0.183769 -3.71847e-21)
(0.793943 0.19675 0)
(1.08814 0.0646111 0)
(1.25072 -0.128909 -9.48328e-21)
(0.982088 -0.00269773 1.3117e-20)
(1.25307 -0.0319342 -3.29905e-21)
(1.16526 -0.0793703 -4.12505e-21)
(0.814093 -0.256737 4.19535e-22)
(1.07487 -0.0997339 0)
(0.439832 -0.146193 1.54731e-20)
(1.28535 0.0762845 -1.09532e-20)
(0.879759 0.305075 -8.18021e-21)
(0.376377 -0.434663 1.76751e-21)
(1.45417 -0.0648814 2.80944e-20)
(0.719704 -0.0441919 1.33576e-20)
(1.28057 -0.212713 9.4781e-21)
(1.16167 -0.0411016 -3.06347e-22)
(-0.0208229 -0.327179 -9.74162e-21)
(0.999849 -0.00496836 0)
(1.03476 -0.0909134 -1.54708e-20)
(0.845435 -0.0330162 1.45907e-20)
(1.08378 -0.0416647 6.37267e-21)
(0.862748 0.277154 -4.44645e-21)
(0.537998 -0.0227209 1.68602e-21)
(1.44812 -0.379317 -1.67108e-20)
(1.06357 0.0935425 0)
(1.02767 0.0275981 1.72816e-21)
(1.10429 0.0232556 -3.31584e-21)
(1.26237 -0.230059 0)
(0.888076 -0.343836 7.05791e-21)
(1.13191 0.0614872 3.83935e-21)
(0.743191 0.424374 1.21104e-22)
(1.17515 -0.0551297 3.09118e-22)
(0.993674 -0.254923 -5.20202e-21)
(-0.0327171 -0.254938 0)
(0.291552 -0.0595914 7.93395e-21)
(1.07666 0.0321083 0)
(0.7005 -0.146153 -2.00047e-20)
(0.691897 -0.321739 0)
(1.12965 -0.00599159 8.12597e-21)
(1.01687 0.0247361 0)
(1.26563 -0.275027 0)
(1.41642 -0.0727184 2.2389e-20)
(0.806818 -0.100769 0)
(0.908039 -0.0245857 3.99955e-20)
(1.07412 0.0213298 -3.82013e-22)
(1.0352 0.0510603 3.98475e-21)
(1.34641 0.0446091 -1.43344e-20)
(1.21852 0.11612 -3.9299e-21)
(1.05164 0.267207 1.03054e-20)
(1.13485 0.0997689 0)
(1.17162 -0.123311 0)
(1.14242 0.0706746 1.52357e-21)
(1.22741 -0.0276359 0)
(1.40893 0.152217 -2.38779e-20)
(0.720207 0.292739 3.12123e-21)
(1.02453 0.0136652 2.38276e-20)
(1.15485 0.0882409 8.97309e-24)
(-0.0033761 -0.0976953 0)
(-0.033497 -0.132167 0)
(0.366672 -0.105709 -6.77987e-20)
(0.0282563 -0.315475 0)
(0.710188 0.244889 -7.36486e-21)
(1.19272 0.0504441 -3.92209e-21)
(1.12887 -0.117588 -8.36748e-21)
(1.31587 -0.202635 -2.18868e-21)
(1.24508 -0.0441926 0)
(0.710156 -0.00970528 -2.18589e-21)
(1.20256 0.0853034 0)
(1.16797 0.0717247 -1.53836e-21)
(0.531635 -0.114421 0)
(0.59063 -0.0297699 -7.05986e-22)
(1.21755 0.0644115 0)
(1.14215 -0.00907203 0)
(0.901268 0.382307 6.22012e-20)
(0.576433 -0.154004 3.99586e-22)
(1.07017 0.0995355 -9.12688e-21)
(1.00726 0.0169993 -9.18648e-21)
(0.270433 -0.167297 0)
(0.995365 0.147766 -3.898e-20)
(1.13358 -0.0188813 7.61868e-21)
(0.967417 0.271053 3.35977e-21)
(0.567657 -0.304062 4.29198e-21)
(-0.033326 -0.295337 -1.18575e-19)
(1.21278 0.00817564 0)
(-0.0345734 0.0278612 0)
(1.1807 -0.0522727 1.27796e-20)
(0.573122 -0.369533 -4.6199e-21)
(1.04979 -0.0502875 -2.01717e-20)
(1.09709 -0.0605961 0)
(1.02467 -0.106809 5.59409e-21)
(1.35128 -0.134634 2.66454e-20)
(0.601231 -0.0493467 -1.08286e-20)
(1.14562 -0.0574587 -3.87494e-21)
(1.12402 -0.0960876 -3.22926e-22)
(0.662267 -0.0822945 9.49787e-21)
(1.12926 -0.201526 -3.94678e-21)
(1.09451 0.0283313 0)
(1.23249 0.0534435 0)
(1.19719 -0.130586 1.36566e-21)
(1.12909 0.00269417 -6.88595e-21)
(0.749067 0.050829 -7.7623e-20)
(1.19667 -0.0953448 -1.13605e-20)
(1.11686 0.0190049 1.73692e-20)
(0.517641 -0.00247102 1.66765e-20)
(0.905711 0.404868 -1.2655e-19)
(0.159995 0.466199 3.57772e-20)
(1.16363 0.164918 -6.45203e-21)
(1.26801 -0.504502 8.17079e-21)
(1.19405 0.130502 -8.71832e-21)
(1.22605 -0.0710462 -1.61837e-21)
(0.954292 -0.247068 9.10206e-20)
(0.0271637 0.556672 0)
(1.03615 0.109663 -3.04694e-21)
(0.0571943 0.371547 -1.99732e-20)
(1.19492 -0.0430296 -1.10593e-20)
(1.19018 0.0890529 1.07316e-20)
(1.08864 0.0290718 0)
(0.765031 -0.325702 0)
(1.15257 -0.0219214 0)
(1.09376 -0.100803 1.50948e-20)
(1.1995 0.039918 -1.01358e-20)
(1.16805 -0.0743365 2.91862e-22)
(0.478808 0.0169103 0)
(0.635315 0.0102605 0)
(0.642509 -0.0012347 3.66019e-23)
(0.460145 -0.0187003 0)
(1.14006 -0.110834 0)
(1.02317 -0.00729493 2.41062e-20)
(0.74551 -0.350756 0)
(0.98168 0.0310737 0)
(1.04566 -0.0201136 0)
(1.16133 0.175345 -7.145e-21)
(1.15726 0.0326835 -3.57855e-21)
(0.963376 -0.0313808 1.03509e-20)
(1.34955 -0.410644 -1.24104e-19)
(0.891919 -0.300392 3.58603e-20)
(1.35275 0.183016 5.63719e-22)
(1.16613 -0.168032 0)
(0.0982268 0.300787 0)
(-0.00823707 0.0260711 0)
(1.17724 -0.0253489 2.83205e-22)
(1.35563 -0.282772 -3.61379e-20)
(1.1724 0.0366834 0)
(1.09502 0.0619482 -9.95781e-21)
(0.424392 0.19913 0)
(1.54529 -0.133635 8.93808e-20)
(0.408019 0.508296 1.20966e-19)
(0.323066 -0.0630999 0)
(1.15256 -0.284992 1.33261e-19)
(0.592311 0.505538 0)
(0.343709 -0.0293747 3.77685e-22)
(1.08562 0.0679005 0)
(0.230235 0.130249 4.56287e-21)
(0.984315 -0.0501235 0)
(1.3635 -0.112107 -1.26182e-20)
(-0.119287 -0.27348 -1.02344e-20)
(1.12776 -0.0280642 3.27429e-21)
(1.0579 -0.138884 -1.84913e-20)
(0.590137 -0.548413 -8.77547e-20)
(1.28535 0.0714567 3.62763e-22)
(1.20303 -0.107301 2.27243e-21)
(1.16534 0.222314 -2.07699e-20)
(1.26502 -0.202524 -2.06788e-20)
(1.17007 -0.022739 1.43836e-21)
(-0.239787 0.416401 -2.41177e-20)
(-0.0762974 -0.10939 -7.8334e-21)
(1.43089 0.0479648 2.41569e-21)
(1.05715 -0.0387498 0)
(0.649929 -0.125757 6.93114e-21)
(1.45542 -0.447195 9.62824e-20)
(1.03276 -0.090194 -6.96542e-20)
(1.37386 0.100678 5.61594e-20)
(1.05626 -0.0360214 5.88301e-21)
(1.08502 -0.204971 6.76708e-21)
(1.06304 -0.00855373 0)
(1.14845 0.0184637 0)
(1.34014 -0.170254 6.47314e-21)
(1.08619 -0.0185373 -4.38021e-21)
(1.34985 -0.340806 2.14547e-20)
(1.12518 0.0309895 -9.78605e-21)
(1.41862 0.101932 -4.96909e-20)
(0.512494 -0.00810175 0)
(1.21015 -0.208862 -6.30253e-21)
(1.15705 0.12359 0)
(1.14046 0.0165604 -9.46565e-21)
(1.13331 0.0232084 0)
(1.03632 -0.00532857 1.3058e-20)
(1.21516 0.0465914 5.3214e-21)
(1.12316 -0.232137 0)
(0.0574703 -0.0318244 1.77978e-19)
(0.890746 -0.226487 -7.13951e-20)
(1.47662 0.254529 -3.86333e-20)
(-0.0754678 -0.296339 4.97927e-20)
(1.13854 0.0250013 -9.95739e-24)
(0.771544 -0.240425 -2.34572e-21)
(-0.119498 -0.267561 -5.19518e-20)
(-0.00954684 -0.129967 -3.06279e-20)
(1.02235 -0.0268484 0)
(-0.0283294 -0.0384474 0)
(1.12782 0.267682 0)
(0.113874 -0.12871 0)
(1.11252 -0.0358178 0)
(0.14735 0.0309521 0)
(1.08516 0.0247662 0)
(1.0446 0.0926703 0)
(1.23292 -0.031368 -7.51081e-21)
(0.603947 -0.299524 -2.49728e-20)
(-0.25346 -0.160458 0)
(1.25725 -0.0724548 7.2529e-20)
(1.33317 0.228388 -3.31548e-21)
(1.33652 0.306647 0)
(-0.0427968 -0.0453205 0)
(1.14671 0.0153882 -5.33875e-21)
(1.15777 0.00399204 1.90756e-21)
(1.15878 0.370777 0)
(0.335609 -0.12681 6.95066e-20)
(1.11482 0.0582342 1.62816e-21)
(0.252429 -0.0549242 -6.009e-20)
(-0.0559242 0.033299 -3.61826e-20)
(-0.0186779 0.0470675 9.2632e-20)
(0.211637 0.290952 -2.4838e-20)
(0.988092 -0.145561 2.20784e-21)
(1.1094 0.0129131 -1.99666e-20)
(1.02548 -0.00819414 0)
(1.07137 -0.0587153 -1.99717e-20)
(1.13469 0.0575211 3.84626e-21)
(-0.00850496 -0.101419 1.21115e-19)
(0.982276 -0.0710159 -5.66089e-20)
(0.690038 -0.234208 -1.00695e-20)
(1.21351 0.105015 2.03212e-21)
(0.0763981 -0.0363908 3.87858e-20)
(0.260526 -0.0411251 -5.45223e-20)
(0.473386 -0.0774921 -6.30627e-20)
(1.131 -0.147497 1.99065e-20)
(-0.0623355 -0.0362678 0)
(1.00691 -0.158244 -2.55283e-21)
(1.21262 -0.286918 -7.82935e-21)
(1.21859 -0.356266 7.54966e-21)
(1.28722 0.255707 0)
(1.53909 -0.197359 8.55604e-20)
(1.18303 0.00478884 -5.64974e-21)
(-0.0149033 -0.0848654 -4.1972e-20)
(0.35409 -0.0330744 0)
(0.948644 0.0456392 -4.12875e-21)
(1.09237 0.0308876 2.25106e-21)
(0.640351 0.150383 2.04348e-20)
(1.1542 0.0119442 2.57395e-21)
(1.11002 0.0463671 0)
(1.21487 -0.169208 -1.69652e-20)
(-0.00408465 -0.324088 -9.15528e-20)
(1.29806 0.0365276 2.35525e-20)
(1.09863 0.162741 -8.91077e-21)
(1.1228 0.0472218 1.11922e-20)
(-0.0420431 -0.0737032 1.8473e-20)
(-0.0202893 -0.00294969 -6.94142e-20)
(1.11506 0.212266 0)
(0.712229 0.32048 0)
(1.13968 0.0856376 -1.921e-20)
(1.04979 0.0661671 1.38639e-20)
(1.15219 0.062602 0)
(0.920089 0.111246 8.08962e-20)
(0.801648 0.0429692 -1.27083e-20)
(1.09506 0.0949461 0)
(1.10577 0.0580809 0)
(1.20225 0.171384 0)
(1.05955 0.00327141 0)
(1.22462 0.194371 3.13571e-21)
(-0.0400268 0.0443117 3.95145e-20)
(1.11314 -0.103512 1.04112e-20)
(1.50074 -0.173381 -9.91765e-20)
(1.15903 0.176996 -4.51918e-21)
(-0.218984 -0.0399393 0)
(1.23701 -0.203584 0)
(0.653916 -0.0170072 -1.8907e-21)
(0.587093 -0.000983769 -6.54814e-20)
(0.0971444 0.0298892 5.25564e-20)
(0.968252 0.0174954 -1.4674e-21)
(0.778429 -0.282775 0)
(0.71902 -0.0974445 0)
(1.09811 0.159619 0)
(0.538058 0.507821 1.92513e-20)
(-0.0070531 -0.051325 -3.31338e-20)
(1.17549 0.165871 1.05167e-20)
(-0.0195392 -0.172395 7.96461e-20)
(1.20666 -0.00951217 3.49409e-21)
(1.15916 0.294125 3.96158e-20)
(1.11549 -0.0797437 7.66599e-21)
(-0.0481571 0.206609 3.2763e-20)
(1.14219 0.0145515 -2.43123e-21)
(1.13895 -0.264245 0)
(0.571296 0.272969 0)
(0.93946 -0.29284 -2.47222e-21)
(-0.147057 -0.241556 0)
(0.603345 0.0287494 3.27945e-21)
(0.627656 -0.43572 -3.92732e-21)
(0.26571 0.0473233 -1.18535e-19)
(1.13274 -0.227559 2.66054e-20)
(1.03123 0.345249 1.01061e-20)
(0.980795 0.0112 0)
(1.01127 0.130767 8.11656e-22)
(0.660536 0.0172428 0)
(1.00711 -0.0240553 -4.52611e-23)
(0.479906 -0.0219271 0)
(0.71254 0.108372 0)
(1.00016 -0.0218942 -7.92501e-21)
(1.4175 0.134096 -9.87584e-21)
(1.20333 -0.0471206 1.30099e-21)
(0.540582 -0.513029 0)
(1.13709 -0.147131 1.57473e-21)
(0.799052 0.355109 7.07263e-20)
(-0.0179397 0.0195825 1.3134e-21)
(1.22455 0.0190306 2.44369e-21)
(1.20531 0.0405307 -3.44007e-21)
(1.27576 0.0655091 8.62987e-22)
(0.805671 0.00357269 -5.1835e-21)
(0.0895936 0.0138254 4.19789e-20)
(-0.00966624 -0.17883 -6.74437e-20)
(-0.133029 -0.142193 0)
(-0.280662 -0.0574605 0)
(1.2248 -0.632381 3.71124e-20)
(1.15014 -0.0269026 -1.40355e-21)
(0.924771 -0.481246 -5.17103e-20)
(0.934065 -0.265301 3.47603e-21)
(1.36725 0.166283 3.42215e-20)
(0.606978 0.419373 0)
(0.242589 0.401325 -1.18142e-19)
(0.589829 0.453955 0)
(-0.117592 -0.121573 0)
(1.15195 -0.489448 0)
(-0.0379194 -0.182147 -1.93668e-22)
(1.17038 0.0245082 0)
(0.577301 0.0843552 1.63052e-20)
(0.587704 0.674607 2.00253e-20)
(1.11702 0.0703677 -1.80437e-20)
(-0.0206489 -0.209367 -1.27305e-19)
(0.286749 -0.162081 2.65967e-20)
(0.473711 0.145911 -1.40616e-20)
(1.1871 0.0793641 0)
(1.358 0.333319 3.71802e-20)
(1.21533 0.545796 7.45118e-21)
(0.216839 -0.0359558 -2.56988e-20)
(1.04856 0.0541079 3.34347e-20)
(0.954094 -0.0161334 2.32051e-21)
(0.933503 0.0259401 -7.96432e-23)
(-0.0174139 -0.043621 0)
(0.665457 -0.683078 -2.77374e-20)
(0.613588 0.175176 0)
(0.236317 -0.233197 0)
(-0.041283 0.0126874 0)
(0.0727306 -0.283714 -4.90688e-20)
(1.22547 0.0151621 -2.82761e-21)
(-0.01605 -0.0249555 0)
(-0.0246174 -0.0520415 0)
(1.42143 0.0738635 -5.21519e-20)
(-0.0392013 -0.128335 5.73042e-20)
(0.112692 0.219353 -1.02282e-19)
(0.447527 -0.00312327 0)
(0.173956 -0.301002 7.88323e-20)
(1.14594 -0.247678 0)
(1.01308 -0.292291 0)
(0.0577639 -0.206893 1.21405e-19)
(1.13756 0.0391166 -2.69572e-22)
(1.11598 0.320776 2.79199e-20)
(0.299159 0.0219713 4.98135e-20)
(0.416057 -0.540151 -3.0405e-20)
(1.26278 0.04539 0)
(1.25204 0.15482 2.36851e-20)
(1.24035 0.185822 -2.90822e-20)
(0.101703 0.0674366 -2.34081e-20)
(-0.0609436 -0.245877 0)
(1.07637 -0.0443689 -1.90887e-20)
(1.11188 -0.224161 -1.31562e-20)
(0.594722 -0.432118 0)
(1.10058 -0.156172 -2.39617e-20)
(-0.294943 -0.0882214 0)
(0.636639 -0.0186608 0)
(1.36553 0.15878 3.30935e-20)
(1.04003 0.0432767 7.02671e-22)
(1.06748 0.722363 -1.74471e-20)
(0.232392 -0.399288 1.23294e-19)
(1.17068 0.0404318 2.69476e-21)
(1.18889 0.0703128 -2.31144e-21)
(-0.040375 -0.0847059 3.33539e-20)
(0.783669 0.72223 3.05284e-20)
(1.38956 -0.366959 -1.42806e-20)
(0.582716 0.393757 1.23799e-19)
(1.034 0.0213624 0)
(-0.0262684 -0.116777 -3.08629e-21)
(0.932213 -0.657294 3.5422e-21)
(0.903591 0.636764 -1.74767e-20)
(0.596659 -0.0352319 -7.21004e-20)
(1.13617 0.00262381 -1.14745e-20)
(1.07783 -0.07601 6.46743e-21)
(1.11734 0.0131163 7.90198e-21)
(1.10252 0.115338 5.58082e-21)
(1.13445 -0.110378 0)
(0.951177 0.0785161 1.60646e-20)
(0.900766 0.457807 0)
(1.06681 -0.0642463 -9.78053e-21)
(1.15635 0.103388 2.85158e-21)
(0.777253 0.264077 0)
(0.554645 0.108294 1.13021e-19)
(0.886357 0.694231 -1.34778e-21)
(1.06757 0.274172 -2.14421e-20)
(1.03956 -0.00452572 1.22082e-20)
(0.410646 0.464013 0)
(1.33485 -0.478757 0)
(0.383108 0.140801 8.52272e-22)
(1.26958 0.491102 0)
(0.00403849 0.0179792 -4.84863e-20)
(1.31494 -0.416134 -1.74095e-20)
(1.15611 0.487321 0)
(0.453267 0.187646 1.6985e-19)
(1.14341 0.307678 -1.25482e-19)
(0.837768 -0.667174 -2.28052e-20)
(1.10693 0.0161174 3.01438e-21)
(0.951019 0.142928 8.71535e-20)
(1.08199 0.157135 5.2453e-20)
(1.06757 0.6895 9.08747e-22)
(0.925336 -0.457514 6.07615e-20)
(1.3795 0.161245 3.24683e-20)
(1.12293 0.00428551 -1.83338e-21)
(-0.00304092 -0.085687 1.03362e-19)
(1.11526 -0.723229 3.8042e-20)
(0.896643 -0.745153 4.4725e-20)
(0.259232 -0.371027 0)
(0.975664 -0.15353 6.95356e-20)
(0.359098 0.276911 -4.41071e-19)
(0.0209769 -0.199091 4.3809e-20)
(0.296711 -0.0203719 2.4962e-20)
(0.723626 -0.0619931 -8.46421e-20)
(1.07093 0.508494 0)
(0.987067 0.209487 7.99124e-20)
(1.08137 0.026303 4.31641e-21)
(0.901153 0.420812 -9.11865e-20)
(0.809995 -0.751381 -6.45619e-21)
(0.924914 0.0102796 -4.82173e-20)
(0.969343 0.467607 0)
(1.02598 -0.0460523 1.2273e-20)
(1.41893 -0.521007 1.57722e-20)
(1.25007 -0.343264 1.14956e-20)
(-0.277264 -0.0170167 3.50386e-20)
(0.196475 -0.0333498 -1.80587e-20)
(0.987394 -0.124998 -5.72982e-20)
(0.345873 0.502083 0)
(0.913347 0.00130128 3.84179e-20)
(1.15947 0.625361 7.93997e-20)
(0.0965153 -0.273304 1.97707e-19)
(-0.0703662 -0.155954 -2.77872e-20)
(-0.0562608 -0.313242 5.02385e-20)
(1.09367 0.018981 -5.94885e-21)
(1.17383 -0.47583 0)
(1.09848 -0.758284 -3.24896e-20)
(0.694008 0.326385 0)
(0.186329 -0.253921 -1.43586e-19)
(1.18045 0.0401269 3.55612e-21)
(-0.0309998 -0.255027 -3.5725e-20)
(1.04718 0.0521283 -1.12684e-20)
(0.148087 0.00643751 6.31546e-20)
(0.895524 0.110826 0)
(1.35947 0.118341 4.85748e-20)
(0.0469355 -0.0534247 -2.83448e-20)
(-0.320731 -0.118071 -4.15876e-20)
(-0.169083 -0.0476241 0)
(0.0817043 -0.0211178 0)
(1.30857 0.0852125 -1.55876e-20)
(0.407886 -0.0134764 1.7503e-19)
(1.30742 -0.746813 -3.51913e-20)
(0.709546 0.225012 1.5912e-20)
(1.06113 0.235477 -3.05511e-20)
(0.381041 -0.591459 1.34297e-19)
(1.52753 0.241796 -3.46795e-20)
(0.10222 -0.146629 4.00161e-20)
(0.205663 0.274331 1.97005e-19)
(0.112903 -0.0797426 -1.49975e-19)
(0.962408 -0.510797 -4.14127e-20)
(1.45147 0.363299 3.58161e-20)
(0.58748 -0.705626 4.49572e-20)
(1.10674 -0.0650983 -6.61386e-21)
(0.497745 -0.0974863 7.85379e-20)
(1.21096 0.274902 -5.24446e-20)
(0.655101 0.617335 -4.1942e-20)
(1.38452 -0.639555 0)
(1.42641 0.501736 3.50676e-20)
(1.07933 -0.544518 -1.34939e-20)
(1.38781 0.589359 -9.98962e-20)
(1.12025 0.0385324 0)
(-0.0421498 -0.0106726 0)
(1.24425 0.71145 0)
(1.04019 -0.0365312 -1.1729e-20)
(0.755338 -0.323035 -2.01916e-19)
(0.478707 -0.110335 0)
(-0.0625842 -0.0664057 -2.83019e-20)
(1.02442 -0.247371 9.37879e-20)
(-0.164052 0.128097 0)
(0.322589 -0.00603278 1.21983e-20)
(1.09384 0.0316105 0)
(1.42545 0.243299 0)
(1.12712 0.0212332 -3.22778e-21)
(0.367254 -0.324651 0)
(1.01161 0.140123 3.80747e-20)
(1.31963 0.26423 0)
(-0.106789 -0.159212 -1.7902e-22)
(0.825351 -0.418686 0)
(1.49983 0.310569 -5.28901e-20)
(1.22949 0.343819 6.28084e-23)
(0.831051 0.620915 -1.00324e-20)
(1.00444 0.150359 -8.83685e-20)
(0.969314 -0.212014 -4.5901e-20)
(1.44388 0.264626 3.08886e-20)
(0.98904 -0.00556081 0)
(0.565885 -0.0955691 0)
)
;

boundaryField
{
    FrontBack
    {
        type            empty;
    }
    Top
    {
        type            noSlip;
    }
    In
    {
        type            fixedValue;
        value           uniform (1 0 0);
    }
    Bottom
    {
        type            noSlip;
    }
    Out
    {
        type            zeroGradient;
    }
    circle
    {
        type            noSlip;
    }
}


// ************************************************************************* //
