/*--------------------------------*- C++ -*----------------------------------*\
| =========                 |                                                 |
| \\      /  F ield         | OpenFOAM: The Open Source CFD Toolbox           |
|  \\    /   O peration     | Version:  2412                                  |
|   \\  /    A nd           | Website:  www.openfoam.com                      |
|    \\/     M anipulation  |                                                 |
\*---------------------------------------------------------------------------*/
FoamFile
{
    version     2.0;
    format      ascii;
    arch        "LSB;label=32;scalar=64";
    class       volVectorField;
    location    "0.6";
    object      cellDisplacement;
}
// * * * * * * * * * * * * * * * * * * * * * * * * * * * * * * * * * * * * * //

dimensions      [0 1 0 0 0 0 0];

internalField   nonuniform List<vector> 
256
(
(-0.0180064 0.00108351 0)
(-0.0178311 -0.00165561 0)
(-0.0165165 -0.00399542 0)
(-0.0142186 -0.00548257 0)
(-0.01143 -0.00595235 0)
(-0.00842979 -0.00539937 0)
(-0.00543644 -0.00399917 0)
(-0.0025802 -0.00205278 0)
(-0.0533565 0.00246683 0)
(-0.0528069 -0.00519944 0)
(-0.0491839 -0.0117289 0)
(-0.0432789 -0.0161584 0)
(-0.0358002 -0.017911 0)
(-0.0277402 -0.0170545 0)
(-0.0195309 -0.0138586 0)
(-0.0114998 -0.00892375 0)
(-0.0868881 0.00304415 0)
(-0.0857651 -0.00889759 0)
(-0.0803951 -0.0191339 0)
(-0.0715562 -0.0262535 0)
(-0.0605555 -0.0296074 0)
(-0.0484264 -0.029065 0)
(-0.0360274 -0.0250492 0)
(-0.0237019 -0.018201 0)
(-0.118799 0.00285114 0)
(-0.117095 -0.0128689 0)
(-0.110156 -0.0263425 0)
(-0.0991682 -0.0360556 0)
(-0.085414 -0.0411396 0)
(-0.070213 -0.0414723 0)
(-0.0545391 -0.0374325 0)
(-0.0387672 -0.029639 0)
(-0.149235 0.00188809 0)
(-0.146848 -0.0171626 0)
(-0.138744 -0.0335991 0)
(-0.126052 -0.0457344 0)
(-0.110321 -0.0527354 0)
(-0.0927826 -0.0543135 0)
(-0.0746583 -0.0509132 0)
(-0.0562888 -0.0430795 0)
(-0.178338 0.000113874 0)
(-0.175324 -0.0219506 0)
(-0.166192 -0.0410417 0)
(-0.152329 -0.0555706 0)
(-0.135071 -0.0645119 0)
(-0.115912 -0.0677087 0)
(-0.0960252 -0.0654853 0)
(-0.0757691 -0.0583509 0)
(-0.20624 -0.0025498 0)
(-0.202523 -0.027312 0)
(-0.192695 -0.0489295 0)
(-0.177843 -0.0656724 0)
(-0.159607 -0.0767121 0)
(-0.139347 -0.0817763 0)
(-0.118264 -0.0811615 0)
(-0.0967851 -0.0754168 0)
(-0.233028 -0.00621468 0)
(-0.228695 -0.0334872 0)
(-0.218137 -0.0573592 0)
(-0.202667 -0.0763335 0)
(-0.18374 -0.0894816 0)
(-0.162816 -0.0966508 0)
(-0.141023 -0.0980303 0)
(-0.118795 -0.0941967 0)
(-0.258844 -0.0110699 0)
(-0.253782 -0.0405759 0)
(-0.242656 -0.0666273 0)
(-0.226673 -0.0877 0)
(-0.207374 -0.103091 0)
(-0.186095 -0.112531 0)
(-0.163915 -0.116219 0)
(-0.141361 -0.114808 0)
(-0.283648 -0.0172948 0)
(-0.277836 -0.0488666 0)
(-0.266132 -0.0768773 0)
(-0.249839 -0.100112 0)
(-0.230347 -0.117771 0)
(-0.208908 -0.129689 0)
(-0.186615 -0.13599 0)
(-0.163904 -0.137357 0)
(-0.307383 -0.0251695 0)
(-0.300726 -0.0585428 0)
(-0.288548 -0.0885081 0)
(-0.272025 -0.113815 0)
(-0.252404 -0.133885 0)
(-0.230965 -0.148439 0)
(-0.208614 -0.157646 0)
(-0.185893 -0.162108 0)
(-0.329877 -0.0350122 0)
(-0.322371 -0.0700632 0)
(-0.309725 -0.101797 0)
(-0.292955 -0.129251 0)
(-0.273281 -0.15177 0)
(-0.25173 -0.169194 0)
(-0.229344 -0.181506 0)
(-0.206464 -0.189435 0)
(-0.350937 -0.0473442 0)
(-0.342501 -0.0838261 0)
(-0.329308 -0.117282 0)
(-0.312296 -0.146814 0)
(-0.292373 -0.171948 0)
(-0.270597 -0.192371 0)
(-0.247822 -0.208127 0)
(-0.224577 -0.219779 0)
(-0.369845 -0.0627591 0)
(-0.360357 -0.100325 0)
(-0.346527 -0.135268 0)
(-0.32908 -0.166882 0)
(-0.308785 -0.194691 0)
(-0.286438 -0.218396 0)
(-0.262806 -0.237968 0)
(-0.238392 -0.253793 0)
(-0.385291 -0.0813523 0)
(-0.374574 -0.119612 0)
(-0.359917 -0.155809 0)
(-0.341762 -0.189425 0)
(-0.320666 -0.220012 0)
(-0.297164 -0.247287 0)
(-0.271906 -0.271045 0)
(-0.245214 -0.291454 0)
(-0.393721 -0.102281 0)
(-0.3818 -0.14038 0)
(-0.366202 -0.177127 0)
(-0.347077 -0.212168 0)
(-0.32461 -0.245166 0)
(-0.299016 -0.275803 0)
(-0.270543 -0.303783 0)
(-0.239464 -0.328838 0)
(-0.00261312 -0.00197464 0)
(-0.00481448 -0.00386752 0)
(-0.00640975 -0.00580945 0)
(-0.00742325 -0.0079805 0)
(-0.0077265 -0.0103576 0)
(-0.00722623 -0.0128439 0)
(-0.00586146 -0.0151427 0)
(-0.00373015 -0.0169802 0)
(-0.0114336 -0.00884659 0)
(-0.0169913 -0.0142569 0)
(-0.0208706 -0.0200029 0)
(-0.0229124 -0.0262287 0)
(-0.0229793 -0.0329726 0)
(-0.0208195 -0.0398018 0)
(-0.0164135 -0.0460926 0)
(-0.0100433 -0.0509092 0)
(-0.023215 -0.0182723 0)
(-0.0310587 -0.026933 0)
(-0.0361196 -0.0361078 0)
(-0.038351 -0.046095 0)
(-0.0374367 -0.0566732 0)
(-0.0331301 -0.0672039 0)
(-0.0254749 -0.0765816 0)
(-0.0150563 -0.0836307 0)
(-0.0376687 -0.0301815 0)
(-0.046623 -0.0417149 0)
(-0.0519777 -0.0541082 0)
(-0.0535292 -0.0674026 0)
(-0.0509954 -0.0812857 0)
(-0.0441312 -0.0947908 0)
(-0.0331341 -0.106599 0)
(-0.018858 -0.115181 0)
(-0.0542999 -0.0443588 0)
(-0.0634154 -0.0585752 0)
(-0.0680981 -0.0737884 0)
(-0.0682756 -0.0900451 0)
(-0.0635675 -0.106689 0)
(-0.0538343 -0.122589 0)
(-0.039439 -0.136086 0)
(-0.0214963 -0.145568 0)
(-0.0727615 -0.0607645 0)
(-0.0810127 -0.0773321 0)
(-0.0842615 -0.0951378 0)
(-0.0823701 -0.113867 0)
(-0.0750222 -0.132747 0)
(-0.0621738 -0.150369 0)
(-0.0443972 -0.165066 0)
(-0.0229875 -0.174909 0)
(-0.0925049 -0.0792172 0)
(-0.099119 -0.0980136 0)
(-0.100126 -0.117971 0)
(-0.0956108 -0.138798 0)
(-0.0852324 -0.159383 0)
(-0.0690952 -0.178224 0)
(-0.0479535 -0.193425 0)
(-0.0233028 -0.203239 0)
(-0.113121 -0.0997532 0)
(-0.117239 -0.120437 0)
(-0.11544 -0.142356 0)
(-0.107771 -0.16479 0)
(-0.0940279 -0.186552 0)
(-0.0744852 -0.205973 0)
(-0.050035 -0.221224 0)
(-0.0223531 -0.230642 0)
(-0.134032 -0.1223 0)
(-0.134994 -0.144734 0)
(-0.129778 -0.168166 0)
(-0.118546 -0.191793 0)
(-0.101182 -0.214169 0)
(-0.0781387 -0.233654 0)
(-0.0505091 -0.248441 0)
(-0.0199933 -0.257168 0)
(-0.154734 -0.14703 0)
(-0.151821 -0.170859 0)
(-0.142683 -0.195475 0)
(-0.1275 -0.21973 0)
(-0.106338 -0.242182 0)
(-0.0798303 -0.261155 0)
(-0.0491431 -0.275117 0)
(-0.0160164 -0.282878 0)
(-0.174487 -0.174069 0)
(-0.167133 -0.199029 0)
(-0.153556 -0.224308 0)
(-0.134137 -0.248643 0)
(-0.109072 -0.270545 0)
(-0.0791594 -0.288543 0)
(-0.0456138 -0.301237 0)
(-0.0101165 -0.307725 0)
(-0.192475 -0.203733 0)
(-0.180025 -0.229429 0)
(-0.161636 -0.254833 0)
(-0.137731 -0.278599 0)
(-0.108769 -0.299326 0)
(-0.0755913 -0.315696 0)
(-0.0394691 -0.326659 0)
(-0.00197494 -0.331491 0)
(-0.207404 -0.236459 0)
(-0.189323 -0.262353 0)
(-0.165694 -0.287173 0)
(-0.137226 -0.309537 0)
(-0.104516 -0.328271 0)
(-0.0684103 -0.342351 0)
(-0.0301328 -0.351051 0)
(0.0090308 -0.353959 0)
(-0.217305 -0.272685 0)
(-0.193024 -0.29796 0)
(-0.164033 -0.321129 0)
(-0.131195 -0.341019 0)
(-0.0951262 -0.356825 0)
(-0.0566623 -0.367915 0)
(-0.0167275 -0.373874 0)
(0.0234863 -0.374504 0)
(-0.218924 -0.312299 0)
(-0.188138 -0.335557 0)
(-0.154182 -0.355476 0)
(-0.117688 -0.371537 0)
(-0.0792031 -0.383405 0)
(-0.0393332 -0.390823 0)
(0.001213 -0.393608 0)
(0.0417221 -0.391732 0)
(-0.206079 -0.350726 0)
(-0.17071 -0.369237 0)
(-0.133696 -0.384191 0)
(-0.0953952 -0.395446 0)
(-0.0561754 -0.402892 0)
(-0.0164146 -0.406458 0)
(0.0235044 -0.40611 0)
(0.0631969 -0.401851 0)
)
;

boundaryField
{
    walls
    {
        type            cellMotion;
        value           uniform (0 0 0);
    }
    cylinder
    {
        type            cellMotion;
        value           nonuniform List<vector> 
16
(
(-0.393721 -0.102281 0)
(-0.3818 -0.14038 0)
(-0.366202 -0.177127 0)
(-0.347077 -0.212168 0)
(-0.32461 -0.245166 0)
(-0.299016 -0.275803 0)
(-0.270543 -0.303783 0)
(-0.239464 -0.328838 0)
(-0.206079 -0.350726 0)
(-0.17071 -0.369237 0)
(-0.133696 -0.384191 0)
(-0.0953952 -0.395446 0)
(-0.0561754 -0.402892 0)
(-0.0164146 -0.406458 0)
(0.0235044 -0.40611 0)
(0.0631969 -0.401851 0)
)
;
    }
    outlet
    {
        type            cellMotion;
        value           nonuniform List<vector> 0();
    }
    inlet
    {
        type            cellMotion;
        value           uniform (0 0 0);
    }
    frontAndBack
    {
        type            empty;
    }
    procBoundary2to0
    {
        type            processor;
        value           nonuniform List<vector> 
16
(
(-0.0010706 -0.0180411 0)
(-0.00241945 -0.053498 0)
(-0.00297057 -0.0870721 0)
(-0.00274072 -0.119051 0)
(-0.00175753 -0.149491 0)
(5.12196e-05 -0.178631 0)
(0.00272521 -0.206512 0)
(0.00642369 -0.233312 0)
(0.0112674 -0.259081 0)
(0.0175282 -0.283879 0)
(0.0253764 -0.30756 0)
(0.0352447 -0.330025 0)
(0.0475434 -0.351031 0)
(0.0629503 -0.369907 0)
(0.0814492 -0.385309 0)
(0.102281 -0.393721 0)
)
;
    }
    procBoundary2to3
    {
        type            processor;
        value           nonuniform List<vector> 
16
(
(-0.0169686 0.00372305 0)
(-0.0508724 0.0100295 0)
(-0.0835684 0.0150418 0)
(-0.115102 0.018845 0)
(-0.14547 0.0214924 0)
(-0.174807 0.0229939 0)
(-0.203129 0.0233231 0)
(-0.230541 0.0223818 0)
(-0.257067 0.0200413 0)
(-0.282796 0.0160689 0)
(-0.307652 0.0101898 0)
(-0.331437 0.00204734 0)
(-0.353907 -0.00891814 0)
(-0.374474 -0.0233808 0)
(-0.391715 -0.0416552 0)
(-0.401851 -0.0631969 0)
)
;
    }
}


// ************************************************************************* //
