/*--------------------------------*- C++ -*----------------------------------*\
| =========                 |                                                 |
| \\      /  F ield         | OpenFOAM: The Open Source CFD Toolbox           |
|  \\    /   O peration     | Version:  2412                                  |
|   \\  /    A nd           | Website:  www.openfoam.com                      |
|    \\/     M anipulation  |                                                 |
\*---------------------------------------------------------------------------*/
FoamFile
{
    version     2.0;
    format      ascii;
    arch        "LSB;label=32;scalar=64";
    class       surfaceScalarField;
    location    "0.6";
    object      meshPhi;
}
// * * * * * * * * * * * * * * * * * * * * * * * * * * * * * * * * * * * * * //

dimensions      [0 3 -1 0 0 0 0];

internalField   nonuniform List<scalar> 
480
(
0.00268389
-0.00277441
0.00273683
-0.00075086
0.00279578
0.00153978
0.00270533
0.00343616
0.00242912
0.00443634
0.00197476
0.00447835
0.00123936
0.00365722
0.0027898
0.000940645
0.00793947
-0.00505374
0.00805129
-0.00127097
0.00816558
0.00275531
0.00790247
0.00601809
0.00711196
0.00775138
0.00591963
0.00793809
0.00402331
0.0067982
0.0054183
0.00316694
0.0129625
-0.00678816
0.0130943
-0.00158427
0.0130471
0.00358498
0.0126029
0.00770833
0.0115292
0.0100677
0.00987925
0.0105147
0.00736665
0.00934133
0.00778384
0.00612358
0.017789
-0.00791694
0.0179089
-0.00173631
0.0175231
0.00419478
0.0169143
0.00892236
0.0157935
0.0117401
0.0139162
0.0124106
0.011224
0.0113948
0.00991726
0.00985534
0.0224502
-0.00852071
0.0225602
-0.00173367
0.0219711
0.00470789
0.0212798
0.00990536
0.020084
0.0129801
0.0181708
0.0138074
0.0156142
0.0130467
0.0117959
0.0143962
0.0268801
-0.0086814
0.027013
-0.00158934
0.0264962
0.00511569
0.0258086
0.0105459
0.0245786
0.0137943
0.0228562
0.0148762
0.0205955
0.0144183
0.013385
0.0197363
0.031016
-0.00853451
0.031174
-0.00130906
0.0309057
0.00544351
0.0303055
0.0108551
0.0292998
0.0141687
0.0280093
0.0154923
0.0261019
0.0152802
0.0144068
0.0256683
0.0350906
-0.00810762
0.0352232
-0.000929417
0.0351572
0.00567173
0.0347236
0.0108253
0.0340967
0.01401
0.0333185
0.015421
0.0319039
0.0154394
0.0148576
0.0320396
0.0392904
-0.00741456
0.0393686
-0.000523199
0.039339
0.00570217
0.0391683
0.0104771
0.038978
0.013452
0.0386762
0.0148801
0.0379983
0.0151763
0.0149991
0.0389827
0.0435031
-0.00656058
0.0435256
-0.000204437
0.0435959
0.00546345
0.0438343
0.00981868
0.0442266
0.0126254
0.0445426
0.0141972
0.0447605
0.0148673
0.0150312
0.0468709
0.0476199
-0.00558753
0.0476743
4.25751e-06
0.0480738
0.00497566
0.048907
0.00884894
0.0501044
0.0115316
0.051337
0.0132652
0.0525592
0.0142062
0.0145928
0.0557828
0.0517085
-0.00441525
0.0520057
0.000223391
0.0529123
0.00435743
0.0545334
0.00768069
0.0566851
0.0101123
0.0590247
0.0118198
0.0613883
0.0128521
0.013375
0.0654678
0.0558785
-0.00284994
0.0565899
0.000708016
0.0581852
0.00388606
0.0606636
0.0064944
0.0637858
0.00850168
0.0672878
0.00999366
0.0709611
0.0110091
0.011617
0.0759261
0.0599477
-0.000855221
0.0612131
0.0015089
0.0635722
0.00362741
0.0669048
0.00542358
0.0710201
0.00687614
0.0757025
0.00801973
0.0807702
0.0088634
0.00945796
0.0868285
0.0633879
0.0012356
0.0651913
0.00234601
0.0682036
0.00336962
0.0723295
0.00427945
0.0774084
0.00505998
0.0832656
0.0057153
0.0896929
0.0062298
0.00664228
0.0968167
0.0614148
0.0638028
0.0673267
0.0718584
0.0772349
0.0832743
0.0897428
0.0964451
0.00127841
-0.00286967
0.00169248
-0.00452505
0.00188489
-0.00586734
0.0021346
-0.006639
0.00240907
-0.00714213
0.0025107
-0.00693031
0.00240772
-0.00575873
-0.00402056
0.00397548
-0.00642811
0.00518482
-0.00910086
0.00577707
-0.0114637
0.00646615
-0.0127199
0.00720795
-0.0133161
0.00760951
-0.0127738
0.00752686
-0.0107508
-0.00760906
0.00709284
-0.0106281
0.00889662
-0.0137828
0.00994642
-0.0167793
0.0109375
-0.0183458
0.0119664
-0.0187452
0.0126424
-0.0176319
0.0128717
-0.0147593
-0.0105102
0.0107451
-0.0151639
0.0129205
-0.0184253
0.0143851
-0.0216682
0.015563
-0.0232282
0.0167404
-0.0232544
0.0174435
-0.0214416
0.0179434
-0.0176562
-0.0125138
0.0150753
-0.0199402
0.0173683
-0.0230472
0.0190619
-0.0260565
0.0203316
-0.0273509
0.0215284
-0.0268975
0.0221457
-0.0244167
0.0227785
-0.0198533
-0.0139021
0.0202002
-0.024598
0.022379
-0.0274751
0.0239705
-0.0299062
0.0251433
-0.0304916
0.0261571
-0.0293039
0.0268028
-0.0261879
0.0275589
-0.0211678
-0.0147046
0.0259338
-0.0285434
0.0278988
-0.0311651
0.0291662
-0.0329868
0.0300063
-0.0328195
0.0307253
-0.0308661
0.0314158
-0.0271746
0.0321744
-0.0217429
-0.0149606
0.0319982
-0.0314629
0.0336884
-0.0336832
0.0346934
-0.0349954
0.035159
-0.0343133
0.0355545
-0.0317643
0.0360574
-0.0275192
0.0365638
-0.0216972
-0.0147679
0.038498
-0.0333321
0.0397708
-0.0351045
0.0404643
-0.0357705
0.0406315
-0.0346038
0.0406266
-0.0316721
0.0406714
-0.0270679
0.0407901
-0.0210123
-0.0140813
0.045855
-0.0341854
0.0463727
-0.0354167
0.0464661
-0.0352769
0.0461577
-0.033559
0.0456545
-0.0303647
0.0451654
-0.0256956
0.0449002
-0.0196917
-0.0129481
0.0540667
-0.0334709
0.0535266
-0.0341954
0.0526618
-0.0333213
0.051592
-0.0311004
0.0505097
-0.0277377
0.0495481
-0.0232023
0.0489187
-0.0175678
-0.0113519
0.0627618
-0.0307854
0.0610193
-0.0308762
0.0590369
-0.0294221
0.0570839
-0.0268996
0.0553582
-0.0235858
0.0539029
-0.0194742
0.0528724
-0.0145185
-0.00911217
0.0718998
-0.0258572
0.068776
-0.0253408
0.0655932
-0.0234458
0.0626384
-0.0208588
0.0601912
-0.0178707
0.0582155
-0.0145262
0.0567652
-0.0105786
-0.00623677
0.0814561
-0.0182302
0.0767212
-0.0174796
0.072155
-0.0155506
0.0680628
-0.0133329
0.0647438
-0.0110058
0.0622015
-0.00857921
0.0604288
-0.00588785
-0.00299058
0.0901653
-0.00786142
0.0836737
-0.00715937
0.077718
-0.00600061
0.0725661
-0.00480572
0.0684034
-0.00359253
0.0653501
-0.00234894
0.0634455
-0.00107613
0.000208621
0.0883393
0.0807801
0.0742267
0.0688274
0.0646717
0.061846
0.0603775
)
;

boundaryField
{
    walls
    {
        type            calculated;
        value           uniform 0;
    }
    cylinder
    {
        type            calculated;
        value           nonuniform List<scalar> 
16
(
1.36561e-11
-1.6769e-11
-5.56385e-12
1.0119e-11
-2.85002e-11
2.06452e-11
3.19705e-11
-1.61861e-11
1.61854e-11
-3.19704e-11
-2.06466e-11
2.84983e-11
-1.0121e-11
5.56231e-12
1.67673e-11
-1.36581e-11
)
;
    }
    outlet
    {
        type            calculated;
        value           nonuniform List<scalar> 0();
    }
    inlet
    {
        type            calculated;
        value           uniform 0;
    }
    frontAndBack
    {
        type            empty;
    }
    procBoundary2to0
    {
        type            processor;
        value           nonuniform List<scalar> 
16
(
0.00262955
0.0080722
0.0136312
0.0189676
0.0239585
0.0286333
0.0330229
0.0371839
0.0411948
0.0451036
0.0489006
0.0525965
0.0562532
0.0597887
0.062817
0.060247
)
;
    }
    procBoundary2to3
    {
        type            processor;
        value           nonuniform List<scalar> 
16
(
-0.00231651
-0.00715198
-0.0121867
-0.0171068
-0.0217965
-0.0263062
-0.0306801
-0.0349778
-0.0392498
-0.0434996
-0.0477005
-0.0518197
-0.055848
-0.0596498
-0.0627999
-0.0602524
)
;
    }
}


// ************************************************************************* //
