/*--------------------------------*- C++ -*----------------------------------*\
| =========                 |                                                 |
| \\      /  F ield         | OpenFOAM: The Open Source CFD Toolbox           |
|  \\    /   O peration     | Version:  2412                                  |
|   \\  /    A nd           | Website:  www.openfoam.com                      |
|    \\/     M anipulation  |                                                 |
\*---------------------------------------------------------------------------*/
FoamFile
{
    version     2.0;
    format      ascii;
    arch        "LSB;label=32;scalar=64";
    class       pointVectorField;
    location    "0.6";
    object      pointDisplacement;
}
// * * * * * * * * * * * * * * * * * * * * * * * * * * * * * * * * * * * * * //

dimensions      [0 1 0 0 0 0 0];

internalField   nonuniform List<vector> 
578
(
(0 0 0)
(0 0 0)
(0 0 0)
(0 0 0)
(0 0 0)
(0 0 0)
(0 0 0)
(0 0 0)
(0 0 0)
(-0.0348398 0.00434489 0)
(-0.0355506 -0.000819406 0)
(-0.0341392 -0.00565252 0)
(-0.0308491 -0.00936085 0)
(-0.0262185 -0.0114005 0)
(-0.0208695 -0.0116006 0)
(-0.015285 -0.010088 0)
(-0.00974459 -0.00720204 0)
(-0.00685553 -0.00531296 0)
(-0.0687096 0.00766066 0)
(-0.0697503 -0.00214228 0)
(-0.0670866 -0.0112471 0)
(-0.0611495 -0.0183352 0)
(-0.0528364 -0.0225049 0)
(-0.0431578 -0.0234321 0)
(-0.0329458 -0.021275 0)
(-0.0226932 -0.0165177 0)
(-0.0172387 -0.0133858 0)
(-0.101127 0.00995621 0)
(-0.102179 -0.00396634 0)
(-0.0983962 -0.0168179 0)
(-0.0903612 -0.0269608 0)
(-0.079212 -0.0332839 0)
(-0.0661848 -0.0353442 0)
(-0.0523262 -0.0332779 0)
(-0.038279 -0.0276019 0)
(-0.0305805 -0.0238679 0)
(-0.132187 0.0112755 0)
(-0.133032 -0.00632429 0)
(-0.128249 -0.0225007 0)
(-0.118568 -0.0354458 0)
(-0.105276 -0.0439343 0)
(-0.0897178 -0.0474376 0)
(-0.0730797 -0.0460586 0)
(-0.0560966 -0.0402957 0)
(-0.0464793 -0.0365868 0)
(-0.161996 0.0116245 0)
(-0.16247 -0.00928127 0)
(-0.156811 -0.0284463 0)
(-0.145864 -0.0439982 0)
(-0.130979 -0.0546541 0)
(-0.113558 -0.0598387 0)
(-0.0948798 -0.0596317 0)
(-0.075727 -0.0544908 0)
(-0.064496 -0.0513942 0)
(-0.19066 0.0109694 0)
(-0.190637 -0.0129299 0)
(-0.184214 -0.0348165 0)
(-0.172296 -0.0528142 0)
(-0.156246 -0.0656312 0)
(-0.13752 -0.072697 0)
(-0.117424 -0.0740589 0)
(-0.0967573 -0.0701385 0)
(-0.0841765 -0.068183 0)
(-0.218263 0.0092314 0)
(-0.217648 -0.0173976 0)
(-0.210539 -0.0417801 0)
(-0.197864 -0.0620833 0)
(-0.180995 -0.0770625 0)
(-0.161412 -0.086173 0)
(-0.140399 -0.0894292 0)
(-0.118764 -0.0872346 0)
(-0.105038 -0.0868858 0)
(-0.244897 0.00627864 0)
(-0.243611 -0.0228447 0)
(-0.235841 -0.0495204 0)
(-0.222558 -0.0720136 0)
(-0.205142 -0.0891624 0)
(-0.185038 -0.100454 0)
(-0.163497 -0.10588 0)
(-0.141319 -0.105844 0)
(-0.126588 -0.107503 0)
(-0.270613 0.00192826 0)
(-0.268549 -0.0294603 0)
(-0.260122 -0.0582444 0)
(-0.246347 -0.0828366 0)
(-0.228584 -0.102178 0)
(-0.20821 -0.115784 0)
(-0.186416 -0.123627 0)
(-0.163991 -0.126119 0)
(-0.148299 -0.130115 0)
(-0.295391 -0.00406139 0)
(-0.292417 -0.0374774 0)
(-0.283328 -0.0682057 0)
(-0.269155 -0.0948342 0)
(-0.251176 -0.116403 0)
(-0.230682 -0.132456 0)
(-0.208804 -0.142956 0)
(-0.186294 -0.148295 0)
(-0.169583 -0.154889 0)
(-0.319106 -0.0119977 0)
(-0.315105 -0.047206 0)
(-0.305357 -0.0797341 0)
(-0.290829 -0.108347 0)
(-0.272686 -0.132185 0)
(-0.252118 -0.150829 0)
(-0.230188 -0.164207 0)
(-0.207611 -0.172686 0)
(-0.1897 -0.182095 0)
(-0.341555 -0.02232 0)
(-0.336434 -0.0590708 0)
(-0.325988 -0.0932476 0)
(-0.311084 -0.123789 0)
(-0.292742 -0.149948 0)
(-0.272014 -0.171323 0)
(-0.249895 -0.187804 0)
(-0.227079 -0.199716 0)
(-0.207646 -0.212127 0)
(-0.362304 -0.035616 0)
(-0.35592 -0.0735738 0)
(-0.344683 -0.10918 0)
(-0.329313 -0.141563 0)
(-0.310646 -0.170082 0)
(-0.289564 -0.194349 0)
(-0.266935 -0.214212 0)
(-0.243423 -0.229911 0)
(-0.221883 -0.245481 0)
(-0.380341 -0.0523063 0)
(-0.372524 -0.0910245 0)
(-0.36035 -0.12776 0)
(-0.344329 -0.161847 0)
(-0.325084 -0.192749 0)
(-0.303277 -0.220089 0)
(-0.279596 -0.243663 0)
(-0.254602 -0.26355 0)
(-0.229968 -0.282406 0)
(-0.393152 -0.0721538 0)
(-0.383851 -0.11093 0)
(-0.370627 -0.148249 0)
(-0.353745 -0.183644 0)
(-0.333536 -0.2167 0)
(-0.310375 -0.247072 0)
(-0.284672 -0.274485 0)
(-0.256801 -0.298789 0)
(-0.227441 -0.3208 0)
(-0.398746 -0.0829386 0)
(-0.388697 -0.121623 0)
(-0.374904 -0.159136 0)
(-0.3575 -0.195117 0)
(-0.336654 -0.229219 0)
(-0.312566 -0.261113 0)
(-0.285467 -0.290492 0)
(-0.255619 -0.317074 0)
(-0.22331 -0.340602 0)
(0 0 0)
(0 0 0)
(0 0 0)
(0 0 0)
(0 0 0)
(0 0 0)
(0 0 0)
(0 0 0)
(0 0 0)
(-0.0348398 0.00434489 0)
(-0.0355506 -0.000819406 0)
(-0.0341392 -0.00565252 0)
(-0.0308491 -0.00936085 0)
(-0.0262185 -0.0114005 0)
(-0.0208695 -0.0116006 0)
(-0.015285 -0.010088 0)
(-0.00974459 -0.00720204 0)
(-0.00685553 -0.00531296 0)
(-0.0687096 0.00766066 0)
(-0.0697503 -0.00214228 0)
(-0.0670866 -0.0112471 0)
(-0.0611495 -0.0183352 0)
(-0.0528364 -0.0225049 0)
(-0.0431578 -0.0234321 0)
(-0.0329458 -0.021275 0)
(-0.0226932 -0.0165177 0)
(-0.0172387 -0.0133858 0)
(-0.101127 0.00995621 0)
(-0.102179 -0.00396634 0)
(-0.0983962 -0.0168179 0)
(-0.0903612 -0.0269608 0)
(-0.079212 -0.0332839 0)
(-0.0661848 -0.0353442 0)
(-0.0523262 -0.0332779 0)
(-0.038279 -0.0276019 0)
(-0.0305805 -0.0238679 0)
(-0.132187 0.0112755 0)
(-0.133032 -0.00632429 0)
(-0.128249 -0.0225007 0)
(-0.118568 -0.0354458 0)
(-0.105276 -0.0439343 0)
(-0.0897178 -0.0474376 0)
(-0.0730797 -0.0460586 0)
(-0.0560966 -0.0402957 0)
(-0.0464793 -0.0365868 0)
(-0.161996 0.0116245 0)
(-0.16247 -0.00928127 0)
(-0.156811 -0.0284463 0)
(-0.145864 -0.0439982 0)
(-0.130979 -0.0546541 0)
(-0.113558 -0.0598387 0)
(-0.0948798 -0.0596317 0)
(-0.075727 -0.0544908 0)
(-0.064496 -0.0513942 0)
(-0.19066 0.0109694 0)
(-0.190637 -0.0129299 0)
(-0.184214 -0.0348165 0)
(-0.172296 -0.0528142 0)
(-0.156246 -0.0656312 0)
(-0.13752 -0.072697 0)
(-0.117424 -0.0740589 0)
(-0.0967573 -0.0701385 0)
(-0.0841765 -0.068183 0)
(-0.218263 0.0092314 0)
(-0.217648 -0.0173976 0)
(-0.210539 -0.0417801 0)
(-0.197864 -0.0620833 0)
(-0.180995 -0.0770625 0)
(-0.161412 -0.086173 0)
(-0.140399 -0.0894292 0)
(-0.118764 -0.0872346 0)
(-0.105038 -0.0868858 0)
(-0.244897 0.00627864 0)
(-0.243611 -0.0228447 0)
(-0.235841 -0.0495204 0)
(-0.222558 -0.0720136 0)
(-0.205142 -0.0891624 0)
(-0.185038 -0.100454 0)
(-0.163497 -0.10588 0)
(-0.141319 -0.105844 0)
(-0.126588 -0.107503 0)
(-0.270613 0.00192826 0)
(-0.268549 -0.0294603 0)
(-0.260122 -0.0582444 0)
(-0.246347 -0.0828366 0)
(-0.228584 -0.102178 0)
(-0.20821 -0.115784 0)
(-0.186416 -0.123627 0)
(-0.163991 -0.126119 0)
(-0.148299 -0.130115 0)
(-0.295391 -0.00406139 0)
(-0.292417 -0.0374774 0)
(-0.283328 -0.0682057 0)
(-0.269155 -0.0948342 0)
(-0.251176 -0.116403 0)
(-0.230682 -0.132456 0)
(-0.208804 -0.142956 0)
(-0.186294 -0.148295 0)
(-0.169583 -0.154889 0)
(-0.319106 -0.0119977 0)
(-0.315105 -0.047206 0)
(-0.305357 -0.0797341 0)
(-0.290829 -0.108347 0)
(-0.272686 -0.132185 0)
(-0.252118 -0.150829 0)
(-0.230188 -0.164207 0)
(-0.207611 -0.172686 0)
(-0.1897 -0.182095 0)
(-0.341555 -0.02232 0)
(-0.336434 -0.0590708 0)
(-0.325988 -0.0932476 0)
(-0.311084 -0.123789 0)
(-0.292742 -0.149948 0)
(-0.272014 -0.171323 0)
(-0.249895 -0.187804 0)
(-0.227079 -0.199716 0)
(-0.207646 -0.212127 0)
(-0.362304 -0.035616 0)
(-0.35592 -0.0735738 0)
(-0.344683 -0.10918 0)
(-0.329313 -0.141563 0)
(-0.310646 -0.170082 0)
(-0.289564 -0.194349 0)
(-0.266935 -0.214212 0)
(-0.243423 -0.229911 0)
(-0.221883 -0.245481 0)
(-0.380341 -0.0523063 0)
(-0.372524 -0.0910245 0)
(-0.36035 -0.12776 0)
(-0.344329 -0.161847 0)
(-0.325084 -0.192749 0)
(-0.303277 -0.220089 0)
(-0.279596 -0.243663 0)
(-0.254602 -0.26355 0)
(-0.229968 -0.282406 0)
(-0.393152 -0.0721538 0)
(-0.383851 -0.11093 0)
(-0.370627 -0.148249 0)
(-0.353745 -0.183644 0)
(-0.333536 -0.2167 0)
(-0.310375 -0.247072 0)
(-0.284672 -0.274485 0)
(-0.256801 -0.298789 0)
(-0.227441 -0.3208 0)
(-0.398746 -0.0829386 0)
(-0.388697 -0.121623 0)
(-0.374904 -0.159136 0)
(-0.3575 -0.195117 0)
(-0.336654 -0.229219 0)
(-0.312566 -0.261113 0)
(-0.285467 -0.290492 0)
(-0.255619 -0.317074 0)
(-0.22331 -0.340602 0)
(0 0 0)
(0 0 0)
(0 0 0)
(0 0 0)
(0 0 0)
(0 0 0)
(0 0 0)
(0 0 0)
(-0.0089454 -0.00721444 0)
(-0.0122683 -0.0109667 0)
(-0.014413 -0.0149927 0)
(-0.0152781 -0.0193769 0)
(-0.0147123 -0.0239936 0)
(-0.0126078 -0.0284801 0)
(-0.0090385 -0.032305 0)
(-0.00433517 -0.0348956 0)
(-0.0206713 -0.0170622 0)
(-0.0262682 -0.0243151 0)
(-0.0295786 -0.0321012 0)
(-0.0304412 -0.0404901 0)
(-0.0286166 -0.0491676 0)
(-0.0239858 -0.0574349 0)
(-0.0167699 -0.0643299 0)
(-0.0076376 -0.0688156 0)
(-0.0346506 -0.0292667 0)
(-0.0414608 -0.0397108 0)
(-0.0450153 -0.0509267 0)
(-0.0451021 -0.062867 0)
(-0.0414488 -0.0749985 0)
(-0.0339915 -0.0863126 0)
(-0.0231497 -0.0955267 0)
(-0.0099172 -0.101271 0)
(-0.0505196 -0.043702 0)
(-0.0575518 -0.0570471 0)
(-0.0604946 -0.0713386 0)
(-0.0591175 -0.0863634 0)
(-0.0531567 -0.101353 0)
(-0.0426557 -0.115039 0)
(-0.0282464 -0.125889 0)
(-0.0112196 -0.132358 0)
(-0.067898 -0.0602557 0)
(-0.0742245 -0.0762123 0)
(-0.0757787 -0.093217 0)
(-0.0723349 -0.110849 0)
(-0.0636725 -0.128118 0)
(-0.0499786 -0.143553 0)
(-0.0320902 -0.155439 0)
(-0.0115501 -0.162184 0)
(-0.0863796 -0.0788314 0)
(-0.0911611 -0.0971226 0)
(-0.0906206 -0.116455 0)
(-0.0845843 -0.136215 0)
(-0.0729015 -0.155203 0)
(-0.0559186 -0.1718 0)
(-0.0346661 -0.184191 0)
(-0.0108776 -0.190854 0)
(-0.10553 -0.099358 0)
(-0.108013 -0.119706 0)
(-0.104766 -0.140995 0)
(-0.0956844 -0.162401 0)
(-0.0807275 -0.182559 0)
(-0.0604018 -0.199741 0)
(-0.035913 -0.212163 0)
(-0.00912308 -0.218455 0)
(-0.124882 -0.12181 0)
(-0.124395 -0.143939 0)
(-0.117911 -0.166796 0)
(-0.105403 -0.189351 0)
(-0.0869721 -0.210116 0)
(-0.0632971 -0.227354 0)
(-0.0357209 -0.239398 0)
(-0.00615772 -0.245077 0)
(-0.143932 -0.146238 0)
(-0.13985 -0.169828 0)
(-0.129652 -0.193815 0)
(-0.113409 -0.216997 0)
(-0.0913813 -0.237821 0)
(-0.0644062 -0.254622 0)
(-0.0339104 -0.265929 0)
(-0.00179539 -0.270776 0)
(-0.162079 -0.172757 0)
(-0.153827 -0.197441 0)
(-0.13949 -0.222067 0)
(-0.119274 -0.245306 0)
(-0.0936035 -0.265638 0)
(-0.0634329 -0.281543 0)
(-0.030214 -0.291765 0)
(0.00420312 -0.295532 0)
(-0.178562 -0.201578 0)
(-0.165611 -0.226927 0)
(-0.14678 -0.251628 0)
(-0.122433 -0.274312 0)
(-0.0931454 -0.293561 0)
(-0.0599495 -0.308063 0)
(-0.0242816 -0.316802 0)
(0.0121441 -0.319219 0)
(-0.192334 -0.233011 0)
(-0.174187 -0.258479 0)
(-0.150579 -0.282572 0)
(-0.122058 -0.30397 0)
(-0.0893116 -0.321445 0)
(-0.0533864 -0.333967 0)
(-0.0156212 -0.340811 0)
(0.0224744 -0.341642 0)
(-0.201783 -0.267388 0)
(-0.178025 -0.292192 0)
(-0.149533 -0.314756 0)
(-0.117002 -0.333952 0)
(-0.0811594 -0.348874 0)
(-0.0429622 -0.358823 0)
(-0.00356601 -0.363365 0)
(0.0357682 -0.362363 0)
(-0.204351 -0.304662 0)
(-0.174832 -0.32758 0)
(-0.141751 -0.347337 0)
(-0.105773 -0.363237 0)
(-0.0675489 -0.374773 0)
(-0.0278466 -0.381578 0)
(0.0124496 -0.383445 0)
(0.0524217 -0.380373 0)
(-0.195915 -0.342043 0)
(-0.161621 -0.361194 0)
(-0.125176 -0.376725 0)
(-0.0870523 -0.388367 0)
(-0.0477233 -0.395927 0)
(-0.00770691 -0.399271 0)
(0.0324508 -0.398338 0)
(0.0721948 -0.39316 0)
(-0.188849 -0.36085 0)
(-0.15257 -0.377623 0)
(-0.114822 -0.39076 0)
(-0.0759682 -0.400132 0)
(-0.0363826 -0.405652 0)
(0.00355346 -0.407265 0)
(0.0434553 -0.404955 0)
(0.0829386 -0.398746 0)
(0 0 0)
(0 0 0)
(0 0 0)
(0 0 0)
(0 0 0)
(0 0 0)
(0 0 0)
(0 0 0)
(-0.0089454 -0.00721444 0)
(-0.0122683 -0.0109667 0)
(-0.014413 -0.0149927 0)
(-0.0152781 -0.0193769 0)
(-0.0147123 -0.0239936 0)
(-0.0126078 -0.0284801 0)
(-0.0090385 -0.032305 0)
(-0.00433517 -0.0348956 0)
(-0.0206713 -0.0170622 0)
(-0.0262682 -0.0243151 0)
(-0.0295786 -0.0321012 0)
(-0.0304412 -0.0404901 0)
(-0.0286166 -0.0491676 0)
(-0.0239858 -0.0574349 0)
(-0.0167699 -0.0643299 0)
(-0.0076376 -0.0688156 0)
(-0.0346506 -0.0292667 0)
(-0.0414608 -0.0397108 0)
(-0.0450153 -0.0509267 0)
(-0.0451021 -0.062867 0)
(-0.0414488 -0.0749985 0)
(-0.0339915 -0.0863126 0)
(-0.0231497 -0.0955267 0)
(-0.0099172 -0.101271 0)
(-0.0505196 -0.043702 0)
(-0.0575518 -0.0570471 0)
(-0.0604946 -0.0713386 0)
(-0.0591175 -0.0863634 0)
(-0.0531567 -0.101353 0)
(-0.0426557 -0.115039 0)
(-0.0282464 -0.125889 0)
(-0.0112196 -0.132358 0)
(-0.067898 -0.0602557 0)
(-0.0742245 -0.0762123 0)
(-0.0757787 -0.093217 0)
(-0.0723349 -0.110849 0)
(-0.0636725 -0.128118 0)
(-0.0499786 -0.143553 0)
(-0.0320902 -0.155439 0)
(-0.0115501 -0.162184 0)
(-0.0863796 -0.0788314 0)
(-0.0911611 -0.0971226 0)
(-0.0906206 -0.116455 0)
(-0.0845843 -0.136215 0)
(-0.0729015 -0.155203 0)
(-0.0559186 -0.1718 0)
(-0.0346661 -0.184191 0)
(-0.0108776 -0.190854 0)
(-0.10553 -0.099358 0)
(-0.108013 -0.119706 0)
(-0.104766 -0.140995 0)
(-0.0956844 -0.162401 0)
(-0.0807275 -0.182559 0)
(-0.0604018 -0.199741 0)
(-0.035913 -0.212163 0)
(-0.00912308 -0.218455 0)
(-0.124882 -0.12181 0)
(-0.124395 -0.143939 0)
(-0.117911 -0.166796 0)
(-0.105403 -0.189351 0)
(-0.0869721 -0.210116 0)
(-0.0632971 -0.227354 0)
(-0.0357209 -0.239398 0)
(-0.00615772 -0.245077 0)
(-0.143932 -0.146238 0)
(-0.13985 -0.169828 0)
(-0.129652 -0.193815 0)
(-0.113409 -0.216997 0)
(-0.0913813 -0.237821 0)
(-0.0644062 -0.254622 0)
(-0.0339104 -0.265929 0)
(-0.00179539 -0.270776 0)
(-0.162079 -0.172757 0)
(-0.153827 -0.197441 0)
(-0.13949 -0.222067 0)
(-0.119274 -0.245306 0)
(-0.0936035 -0.265638 0)
(-0.0634329 -0.281543 0)
(-0.030214 -0.291765 0)
(0.00420312 -0.295532 0)
(-0.178562 -0.201578 0)
(-0.165611 -0.226927 0)
(-0.14678 -0.251628 0)
(-0.122433 -0.274312 0)
(-0.0931454 -0.293561 0)
(-0.0599495 -0.308063 0)
(-0.0242816 -0.316802 0)
(0.0121441 -0.319219 0)
(-0.192334 -0.233011 0)
(-0.174187 -0.258479 0)
(-0.150579 -0.282572 0)
(-0.122058 -0.30397 0)
(-0.0893116 -0.321445 0)
(-0.0533864 -0.333967 0)
(-0.0156212 -0.340811 0)
(0.0224744 -0.341642 0)
(-0.201783 -0.267388 0)
(-0.178025 -0.292192 0)
(-0.149533 -0.314756 0)
(-0.117002 -0.333952 0)
(-0.0811594 -0.348874 0)
(-0.0429622 -0.358823 0)
(-0.00356601 -0.363365 0)
(0.0357682 -0.362363 0)
(-0.204351 -0.304662 0)
(-0.174832 -0.32758 0)
(-0.141751 -0.347337 0)
(-0.105773 -0.363237 0)
(-0.0675489 -0.374773 0)
(-0.0278466 -0.381578 0)
(0.0124496 -0.383445 0)
(0.0524217 -0.380373 0)
(-0.195915 -0.342043 0)
(-0.161621 -0.361194 0)
(-0.125176 -0.376725 0)
(-0.0870523 -0.388367 0)
(-0.0477233 -0.395927 0)
(-0.00770691 -0.399271 0)
(0.0324508 -0.398338 0)
(0.0721948 -0.39316 0)
(-0.188849 -0.36085 0)
(-0.15257 -0.377623 0)
(-0.114822 -0.39076 0)
(-0.0759682 -0.400132 0)
(-0.0363826 -0.405652 0)
(0.00355346 -0.407265 0)
(0.0434553 -0.404955 0)
(0.0829386 -0.398746 0)
)
;

boundaryField
{
    walls
    {
        type            fixedValue;
        value           uniform (0 0 0);
    }
    cylinder
    {
        type            solidBodyMotionDisplacement;
        value           nonuniform List<vector> 
34
(
(-0.398746 -0.0829386 0)
(-0.398746 -0.0829386 0)
(-0.388697 -0.121623 0)
(-0.388697 -0.121623 0)
(-0.374904 -0.159136 0)
(-0.374904 -0.159136 0)
(-0.3575 -0.195117 0)
(-0.3575 -0.195117 0)
(-0.336654 -0.229219 0)
(-0.336654 -0.229219 0)
(-0.312566 -0.261113 0)
(-0.312566 -0.261113 0)
(-0.285467 -0.290492 0)
(-0.285467 -0.290492 0)
(-0.255619 -0.317074 0)
(-0.255619 -0.317074 0)
(-0.22331 -0.340602 0)
(-0.22331 -0.340602 0)
(-0.188849 -0.36085 0)
(-0.188849 -0.36085 0)
(-0.15257 -0.377623 0)
(-0.15257 -0.377623 0)
(-0.114822 -0.39076 0)
(-0.114822 -0.39076 0)
(-0.0759682 -0.400132 0)
(-0.0759682 -0.400132 0)
(-0.0363826 -0.405652 0)
(-0.0363826 -0.405652 0)
(0.00355346 -0.407265 0)
(0.00355346 -0.407265 0)
(0.0434553 -0.404955 0)
(0.0434553 -0.404955 0)
(0.0829386 -0.398746 0)
(0.0829386 -0.398746 0)
)
;
        solidBodyMotionFunction oscillatingRotatingMotion;
        oscillatingRotatingMotionCoeffs
        {
            origin          ( 0 0 0 );
            axis            ( 0 0 1 );
            omega           1.5;
            amplitude       ( 0 0 30 );
        }
    }
    outlet
    {
        type            fixedValue;
        value           nonuniform List<vector> 0();
    }
    inlet
    {
        type            fixedValue;
        value           uniform (0 0 0);
    }
    frontAndBack
    {
        type            empty;
    }
    procBoundary2to0
    {
        type            processor;
    }
    procBoundary2to3
    {
        type            processor;
    }
}


// ************************************************************************* //
