/*--------------------------------*- C++ -*----------------------------------*\
| =========                 |                                                 |
| \\      /  F ield         | OpenFOAM: The Open Source CFD Toolbox           |
|  \\    /   O peration     | Version:  2412                                  |
|   \\  /    A nd           | Website:  www.openfoam.com                      |
|    \\/     M anipulation  |                                                 |
\*---------------------------------------------------------------------------*/
FoamFile
{
    version     2.0;
    format      ascii;
    arch        "LSB;label=32;scalar=64";
    class       volScalarField;
    location    "520.5";
    object      p;
}
// * * * * * * * * * * * * * * * * * * * * * * * * * * * * * * * * * * * * * //

dimensions      [0 2 -2 0 0 0 0];

internalField   nonuniform List<scalar> 
808
(
-0.03562458805130561
0.04505211787208217
-0.01191878558881937
0.03531639252527323
-0.3031010329371913
-0.05461542191049941
-0.01452664877360467
-0.02385539631758695
-0.1995790194562504
-0.08532755231839409
-0.009367079704449031
-0.257161897701944
-0.03055903102136685
-0.01294041106211763
-0.1224951156973434
-0.01399078147584481
-0.1412192128937196
-0.01355248133658941
-0.01256337889493435
-0.056763126992133
-0.00589534062439835
0.1181921305525165
-0.06098438260287902
-0.07311438452117991
0.176283537044603
-0.09929677342783197
-0.1547959107665772
-0.0203089668149831
-0.01738938558428879
-0.02602914235370558
-0.02016134952601999
-0.05964535797652253
-0.02297950655480404
-0.01684403543088899
-0.1007445639330501
0.3442433569001259
-0.03857640801377171
-0.01683768633485302
-0.02324409527300022
-0.02658569774204361
-0.09155966930502391
-0.1285716876035598
-0.05084346413145342
-0.02060861511512203
-0.05505259321924434
-0.04002959927618118
-0.01236423725269712
-0.1870239396081184
-0.02751280279937564
-0.2068491867365177
-0.016062686806535
-0.06867612179828664
-0.05958716350110849
-0.01489740468329765
-0.19068462116272
-0.02890873102829203
-0.01071561585689184
-0.01451717855413586
-0.1020329347782746
-0.04057220261728044
-0.09590703463669767
-0.1281830645098693
-0.01339783470652641
-0.1296189042991624
-0.01689568430348571
-0.05065756606590069
-0.166162887804954
-0.03567289627130543
-0.01489650593896192
-0.4453404148720855
-0.02695941631121602
-0.3074249794298624
-0.02198345369568721
-0.02030562984813583
-0.06673411627606782
-0.01737156079781675
-0.04340734715092349
-0.3602485608318117
-0.03543818578675495
0.04166574938010555
-0.09066683558249765
-0.01727522172586798
0.05681103267613909
0.04379379924785511
-0.01658135291594598
-0.05313154037209486
-0.5481517401973024
-0.2232661683167687
-0.05323613576573937
-0.1116917201294972
-0.05779069203621868
-0.1344623012991862
0.04057120131016013
-0.02399606235471208
-0.06063878159057379
-0.1184125704840279
-0.0384990408588446
-0.05215084278057203
-0.1177341221876116
-0.1392122835611215
-0.05207786344493675
-0.04828384860751027
-0.05544273939397285
-0.04565945420795715
-0.05783775375424099
-0.07334034289236004
-0.0416426456760695
-0.01130708437971731
-0.04100872191427198
-0.1262553833809488
-0.05117513187057249
0.08318568661630107
-0.0430677199351276
-0.008193085043961714
-0.02784444760586068
0.1802782492591385
-0.03972459338923395
-0.2729522659785756
-0.02027416551442062
-0.05465751988765501
-0.02673063323877873
-0.04787242543713189
0.01271312395164618
-0.04985969824820156
-0.03417899782475458
-0.2146728500564805
-0.04259876215156135
-0.005141919588218013
-0.07742474975407765
-0.06764361895337895
-0.1451766199725246
-0.02087026729032715
-0.07628188886151854
-0.04135746997832258
-0.02270956438070048
-0.01648203774787193
-0.006451895950508896
-0.00731249517934274
-0.05307653777944246
-0.05079747621712197
-0.2113910543715782
-0.05785507205820493
-0.008557994705805266
-0.02273238210820706
-0.1450818746356383
-0.002528115488338703
-0.07753161003466018
-0.02342151646701487
-0.001190454547212968
-0.01065281562141093
-0.03385558062759639
0.09535037458071977
-0.03964183892079545
0.2526478990618563
-0.2673638566749034
-0.1305190544666327
-0.03711751022246572
-0.09119853735817945
-0.009270245464351548
-0.111915364401333
-0.1858569831635207
-0.2162025805136268
-0.181486200873217
0.0555240762230817
-0.06190634518517859
-0.02028479435530327
-0.0678013233033305
-0.1700144103295382
-0.0238692418154403
-0.01842874273944559
-0.05311529058453039
-0.01822252830678684
-0.006038780921911798
-0.1099379749446863
-0.02275000256899508
-0.04640717325996108
-0.06888262031299509
-0.163319142490207
-0.03371404695897871
-0.3956252297723131
-0.0178035434018647
-0.2227882677447659
-0.04529375643967685
0.03085789744411349
-0.1056275608127789
-0.01429099058434397
-0.04163741935639702
-0.1052773527417138
-0.0176621061076727
-0.09661869205279529
-0.2063254573881677
-0.07274691038828517
-0.02368396265411115
-0.04958414575156899
-0.04369690124653433
-0.2047020209556105
-0.02183004093096695
-0.0189419036327063
-0.01135830032859023
-0.0547557195694277
-0.05183164373201552
-0.02236299422356977
-0.02086309735680096
-0.2474684981363928
0.1279497473397235
-0.2010211475312222
-0.2064738493750066
-0.01179388716513281
-0.01159398328701267
-0.06763298370369951
-0.009620222013847983
-0.5143569613473383
-0.1211629371478615
-0.01892663759805468
-0.0009696231579175769
-0.02426865290688266
-0.2865508481234738
-0.2744938614836648
-0.007031789589657134
-0.01748450870104776
-0.00182046928599638
-0.3450296276656351
-0.02823954767114649
-0.02912401163203516
-0.01248380511886509
-0.01977552213240687
0.05088612555692643
-0.1070932074698053
-0.01389738420842888
-0.02073276839638245
-0.04309045576667767
-0.01818218423267904
-0.01611119002162495
-0.02336942676061262
-0.06696851100119131
-0.01183371980171146
-0.01907882742347244
-0.008498946261628776
-0.0007297913978124303
-0.02956814491755861
-0.001556942533594995
-0.002293684249062098
-0.006044838878618133
-0.02562764271208819
-0.007976558758474649
0.001529410741661289
-0.004209163889398375
0.0012151024678515
0.002549463521451862
-0.008623997765455509
-0.1431105349868453
-0.003027561243858279
-0.001473978315350976
-0.04847682286905806
-0.02154882821010259
-0.02484369478912881
-0.01439495916976473
-0.00610417565902856
-0.02084525856135876
-0.0375393333021747
-0.01393305302536518
-0.01285695571275502
-0.01180777221445209
0.007451396774522683
-0.01029725811787097
-0.0118135720667472
-0.01133863230213052
-0.01079397956442405
-0.01015400510924517
-0.01173197113796186
-0.01413061339869371
-0.3111975001180297
0.0608977698636246
-0.01558904314398702
-0.01628287681001622
-0.01309483295300949
-0.01217200178445471
-0.008807595802650713
-0.09722848929712517
0.00969442588487647
-0.0136494595818646
-0.01467821699545561
-0.01077146179123174
-0.05307808364670504
-0.01017126013385332
-0.01375100013208099
-0.009480670067988192
-0.0003697406983719672
-0.009922500709860477
-0.01143909155378515
-0.02487373870680799
-0.01613813500106294
-0.01182139869685397
-0.01338319140367336
-0.007482651433804335
-0.01258860865011498
-0.0117416074976928
-0.05734229162222146
-0.0130425251570766
-0.01123479798978436
-0.008683462092560115
-0.01484065888306596
-0.01385854049749836
-0.01570499836793352
-1.377775062462522
-0.09837673167710868
-0.01334384891212392
0.02417566486090471
-0.1650428561550415
-0.09236730146289952
-0.01146387660905565
-0.01403846592614559
-0.2510061006360045
-0.03058562111319114
-0.02018957161529282
-0.01092369966028307
-0.01960775828786166
-0.01074866727416558
-0.03070209516235067
-0.4151667115161272
-0.01237107771865325
-0.01410519765325658
-0.00488192597777404
-0.01079429780073918
-0.01004568034119924
-0.01432457359702004
-0.008444900559507541
-0.02607410490678921
-0.01134386183735513
-0.1631498974666419
0.01726141417808215
-0.007707098948998192
0.003341839368571985
0.01361931325620165
-0.04729421392182271
0.02980952203772624
-0.01303486833682853
-0.135188464459093
0.2821421034924621
-0.007179392666536646
-0.01327451770264353
-0.008410085906804015
-0.03293062752856939
-0.1224647109553886
-0.01268481129746384
-0.01235146008527495
-0.01679321799932306
-0.01358988951000282
-0.04095528771167596
-0.2142298538546364
-0.01134553479283631
-0.04125374309595689
-0.03991516802507757
-0.1656710838122092
-0.165471516779905
-0.1370902131410445
-0.2498506160890595
-0.007307663451122691
-0.02127768110525022
-0.01410726325644563
-0.01259370820112445
-0.03285026443948705
-0.02440794897906417
-0.0144717171130564
-0.01500140936618934
-1.081460824980134
-0.006116697439266555
-0.01357647707601
-0.01848768595915638
-0.02131787850096386
0.0008829933309354661
-0.01434961496205087
-0.02763114919434882
-0.1608012105484858
-0.01358303634520699
-0.02228048550354902
-0.01374459672644522
0.0005052141876932765
-0.1795156127731083
-0.01326720299360816
-0.1410083250485732
-0.01608975294254802
0.00728349849836536
-0.01465456470433626
-0.02307313351208967
-0.01554618616601834
0.004840143980159793
-0.2787079244856351
-0.02545702099320439
-0.01590618789336952
-0.002079746757813752
-0.009324439654930195
-0.03054067702715833
-0.01438708639697064
-0.02031575433078733
-0.02137631152168715
0.01404706774435091
-0.1008399292072867
-0.02211779098397062
0.009177858958366527
-0.05133406980370891
0.1597622993906031
-0.1029287032291529
-0.3209765210030398
-0.03087952362916124
-0.02538502500828158
0.1493771979973479
0.08101950986088266
-0.003347083353550551
0.04914382954494742
-0.01560380077036222
-0.01465955656922448
0.002226262127772005
0.01176957715247803
-0.06695372245311267
-0.005892527488324563
-0.05759356173436602
-0.02208847936556545
-0.0157259655931698
-0.03653510533049092
-0.03291315580987319
-0.006636727974130065
-0.01509846324714346
-0.03909099997214376
0.03795884172392693
-0.0388970249800501
-0.01363637898315278
-0.1162514691324207
-0.0320660875388203
-0.03848032763202747
-0.6773076831748088
0.01999411277962004
-0.01076809829806086
-0.005460749056297604
0.1582244681384399
-0.08344948401779788
-0.03490089104610115
-0.2469665511265569
-0.01672193453846129
-0.01660810673833484
0.06363357499854583
-0.1844591091527811
-0.2288579392520825
-0.1984239702396084
-0.6865285056167094
0.003039472040261618
-0.01873155274631646
-0.01692912678862544
-0.07807970237889002
0.1178166677097804
-0.02090859690817872
-0.2404090535406352
-0.03490327413486961
-0.006445463187758774
0.2779421965939191
-0.01132323132296342
-0.09368891803528487
-0.1489410798136976
-0.004297489698463079
-0.04034610835047898
-0.04978137666313955
-0.2065135153511868
-0.008768344420204398
-0.04207292283798929
-0.002388994007800772
-0.5509514342430366
-0.1993656932189858
-0.1757183999742128
-0.02264857270031805
-0.006852164528168002
-0.05991435247588418
-0.05820710636080048
-0.01427822456150837
-0.06747938433619839
0.003152793902592993
-0.01838458847829156
-0.0944988416464885
-0.2669796177472629
-0.007286669629683146
-0.0264480217062598
-0.02210686134967979
-0.07414969329019473
-0.09107655274328698
-0.08772139489573381
-0.01185564834553201
-0.9275725387635853
0.160856511181535
-0.07884052984345008
-0.2563786510362386
-0.04257633972988802
-0.01051574602136257
-0.2538029875479483
-0.1845224379054268
-0.03313478539774457
-0.1286895154751161
-0.01935994918412082
0.5630406100329833
-0.02381121788396911
-0.2299451381450527
-0.02616347285869361
-0.00573278959750217
-0.0119963510077816
-1.252917799162518
-0.1826559572650407
-0.2334812071404607
0.005376080941349096
-0.03725464200762003
-0.2540026332298477
-0.06533606743647785
-0.05088886820679828
-0.14212756451995
-0.1902662073646977
-0.0677185030280517
-1.229912939355772
-0.1421837592178504
-0.5191476706268484
0.0784406273833385
-0.006777736948476136
-0.02197956711032287
-0.04251721456542673
-0.04056387069382981
-0.0288625506191352
-0.1311374326715588
0.07995583771150062
-0.00227948252529975
-0.009801508592703586
-0.5812430566315751
-0.8645411825357339
-0.1857521496534255
-0.008307209054049308
-0.138864612852822
0.001114663747342654
-0.0005086744294342024
-0.001787126189247958
-0.05985346570896033
-0.2389319917910062
-0.01338910947391468
-0.1250351727697856
-0.1557564685511461
-0.01323812264674494
-0.03590750944718374
0.02219180274655231
-0.05720870526602889
-0.06961674472024483
-0.5035028969113087
-0.2336942342182332
-0.08076700365153437
-0.07248652088454478
-0.01994910530641241
-0.1246682947271158
-0.1518379033720742
-0.07420333739466471
0.02295482252232547
-0.08429713367254021
-0.04798688727490109
-0.01489045606281437
-0.1058881335504571
-0.2719650894860264
-0.0567083478518803
-0.01851388035277959
-0.0001110239136185147
-0.009982887551197476
-0.01115144363125425
-0.2164544301896677
-0.0153105527254118
-0.2222130016341194
-0.01029071047114349
-0.06708855423508869
-0.003956459064653489
-0.02320369020598179
-0.3772542336844606
-0.9086542071026379
-0.0113454295158833
-1.048924441812958
-0.6142362284299345
-0.01062975116825863
-0.6569059457814422
-0.1766528587664067
-0.005975103294126366
-0.1311118870469854
-0.01688056084546854
-0.1216869782706415
-0.0673468504250006
-0.07791261530017184
-0.005042025476501252
-0.002390820598337865
-1.337612895455764
-0.01120202455453954
-0.181887730363689
0.0005195559507674985
-1.011526899459648
-1.233084345471768
-0.08153430459047727
0.01955925751696467
0.1643690193029316
-0.004583958239391625
-0.02305215942426628
-0.00418374396068278
-0.2536233887179952
0.3661701306835666
-0.04077706033479316
-0.2103794746143467
-0.0148597159785289
-0.6551447016651712
-0.07504099112587143
0.1908802930466283
-0.2832805652576538
-0.04968471914570444
-0.06862794391671222
-0.01589676743833178
-0.0217650939911654
-0.5745734504858316
-0.1442450642966309
-0.08528640348512259
-0.1289902249250185
-0.5560741737960864
-0.04404794526091926
-0.9080232830325455
0.0002821855904779843
-0.237492754379612
-1.049069666988881
0.1673884276250537
0.2915607218604812
-0.1848034212756561
-0.192878711906546
-0.208092677361938
-0.06807860073231281
0.02227646213335944
0.04799401135139889
0.00349011317663183
-0.1680605797197867
0.02559124845674961
-1.355802330261702
-0.08498475951024781
-0.4728718273367445
-0.3301690806097647
-0.20305453034217
-0.1761116483672884
-0.01690273554914041
-0.01547403744313384
-0.1077809175237741
0.171685047505373
0.3854830118364426
-0.2124816579650415
-0.1385490578900642
-0.2357650647482537
-0.06235573509678363
-0.1492447427075152
-0.1625630945658341
-0.1254560923365417
-0.1243392242532127
0.4658003807515738
-0.2684294158346695
0.4316366230574437
-0.6001423681896901
0.07076222442183326
-0.2044619159528555
-0.06595267231462032
-0.0741975679610249
-0.8777520656778255
-0.2198002556767034
-0.1901719282763329
-0.3460577763834007
-0.4570019716706809
0.5706188781886626
-0.2075864628894057
0.0002627541133605191
-0.07060978729775398
0.3440331952759057
-0.0375010124972814
-0.1325812968198494
-0.1790741756664363
-0.06333319626270684
-0.01655028218220145
-0.1950079917071338
0.1944781601228413
-0.01288226372917387
-0.09602529835016642
-0.1689641242707988
-0.3154324903446706
-0.3135667821367094
-0.06376546331045468
-0.01031526469581172
-0.07889507345358439
-0.6544840863970142
-0.6698711117780511
-0.3390842046406924
-0.05753261498531465
-0.05193407301517294
-0.02549882813289392
-0.06743177311875739
-0.05784600694615242
-0.3580134725162158
-0.9570764732805236
-0.0104795923466704
-0.08272813478628575
-1.137293214330004
-1.031185068907972
-0.1052127188264336
-0.03851251939570679
-0.07000622872773292
0.3902373919054296
-0.3443497303258484
-0.05001916433588909
-0.5979896050140672
-0.1213123538857342
-0.2532480235712842
-0.2101475793628776
0.4741120401440575
-0.6270734826347097
0.07383085171469529
-0.02957775921163258
-0.5570193314749611
-0.0513959652285723
-0.3612737213829609
0.107262931522728
-0.1897507809490223
-0.0596370822167693
-0.1391309816306602
-0.3620369580388668
-0.08757030817097866
0.5147072005176805
0.08541705499181573
0.4707251336456686
-0.1013906884107041
-0.1996069557707746
-0.5229738569898718
-0.1308570977215476
0.02692772900786996
-0.05336376159186761
0.1025100648051065
-0.3067049374139607
0.2362841232546602
0.00830722162954704
-0.003253219607408258
-0.5137433260603063
-0.1857475695902214
-0.08075228320856205
0.5816128133371232
0.138489353277842
0.3451746519971405
0.2258227065462339
-0.561017958983132
-0.1990156552715924
-0.2228004145880536
-0.2334705362652548
-0.06012441105271164
-0.6949392440441928
-0.1935724596510603
0.3060243531384088
-0.1979294029815558
-0.01126500925993534
-0.1716114971254857
-0.00934654318265319
-0.1564575847172513
-0.4339681555264465
-0.07646483064953274
-0.1988455367483089
-0.07088830905417144
-0.08641936522252343
-0.1465233762513624
-0.07313724806114374
-0.4558855306016776
-0.4151493384871985
-0.02603105904978199
-0.07429047980031205
0.3278559383686652
-0.2462404766541055
-0.1852655531849428
0.5252336029811004
-0.2085693896502355
0.01817102339267238
-0.4485260652458092
0.04759691306128529
-0.06213685665155659
-0.1446919013600373
-0.5817618297699662
0.1611474119614182
-0.5811135612497125
-0.5333267748926823
-0.1054563146211259
-0.5066412671204873
-0.03739613952664193
-0.1384673346732498
-0.4097525290895791
-0.01629977701805205
0.2868335461026613
0.4896460071753682
-0.1581366562759904
-0.008123878248494797
-0.0758090463100009
0.5253393699531631
-0.03344633817240519
-0.4377797949741725
-0.03283511885433865
0.4608945457104917
-0.01468859092129099
-0.5422111260231565
-0.2476055184119989
0.1761566739145172
-0.3092833563419081
-0.1782040521421376
0.05104593388961251
0.03375769322672092
0.05434624345181672
-0.2980525584835773
-0.1580789779657643
0.4128062953302954
)
;

boundaryField
{
    FrontBack
    {
        type            empty;
    }
    Top
    {
        type            zeroGradient;
    }
    In
    {
        type            zeroGradient;
    }
    Bottom
    {
        type            zeroGradient;
    }
    Out
    {
        type            fixedValue;
        value           uniform 0;
    }
    circle
    {
        type            zeroGradient;
    }
}


// ************************************************************************* //
