/*--------------------------------*- C++ -*----------------------------------*\
| =========                 |                                                 |
| \\      /  F ield         | OpenFOAM: The Open Source CFD Toolbox           |
|  \\    /   O peration     | Version:  2412                                  |
|   \\  /    A nd           | Website:  www.openfoam.com                      |
|    \\/     M anipulation  |                                                 |
\*---------------------------------------------------------------------------*/
FoamFile
{
    version     2.0;
    format      ascii;
    arch        "LSB;label=32;scalar=64";
    class       volScalarField;
    location    "1679";
    object      p;
}
// * * * * * * * * * * * * * * * * * * * * * * * * * * * * * * * * * * * * * //

dimensions      [0 2 -2 0 0 0 0];

internalField   nonuniform List<scalar> 
808
(
-0.03401591290100766
0.04446939308566283
-0.01175467160970504
0.03694878284804107
-0.2982846207266863
-0.05506721991430318
-0.01502223466405304
-0.0238602296820601
-0.1961435759017243
-0.08349198262556527
-0.009643592064948208
-0.2532000194795314
-0.03059087736859927
-0.01346026376262299
-0.1244507222368854
-0.01405102813223084
-0.142543400752572
-0.01361834074060315
-0.01292052662420564
-0.05542191639926288
-0.006861350862597712
0.1171816018282604
-0.06242705818048207
-0.07134529751737405
0.1749038977279722
-0.09973677218829692
-0.1518608805741072
-0.02039620240646974
-0.01752976885452555
-0.02590026070882915
-0.02026190760298007
-0.05818387568898564
-0.02294835421102241
-0.01692011961313591
-0.09887716897047011
0.3449167085084593
-0.03927190860357409
-0.0167673815824906
-0.0228161814239232
-0.0265670509738659
-0.08975895832636725
-0.1260040901737595
-0.05193074858152395
-0.02090750711462202
-0.05550958797270579
-0.04151207323666119
-0.01219564516739978
-0.1836481273330568
-0.02691656391344767
-0.203270369560103
-0.01649759375618979
-0.06689679229149656
-0.06082514678443808
-0.01520832543263533
-0.1937973231701384
-0.02824077175533514
-0.01091928169106511
-0.01524747662155599
-0.09986279357502238
-0.03964014774567735
-0.09975808302785256
-0.1254712760168061
-0.01390322353029881
-0.1271943906660207
-0.01708785569584747
-0.05173143391246384
-0.1622092145161776
-0.03556328109875503
-0.01517006156598832
-0.4395483812544829
-0.02652045405088406
-0.3017132562612701
-0.02161573211899025
-0.0205423567896439
-0.06382773609373803
-0.01778606777567139
-0.04239122587275732
-0.3651871583728106
-0.0359241553884428
0.03950159295754269
-0.09187027754275626
-0.01702622817696282
0.05701417028998795
0.04541237325555171
-0.01705531658969487
-0.05200733906329061
-0.5411407885879798
-0.2268983402361411
-0.05193637001152725
-0.112959934604097
-0.05628706188012456
-0.1318392769524734
0.03910402352063796
-0.02560313548537088
-0.06191387279284876
-0.1161806452917346
-0.03837818715814133
-0.05238148722324536
-0.1154005420923349
-0.1365762283960419
-0.05253243427121958
-0.04719867357125117
-0.0541482529514299
-0.04464321166768818
-0.05719059445987548
-0.07466390341381798
-0.04138803382228342
-0.01119602352627032
-0.04018112373692653
-0.1234055588182576
-0.05026791353326904
0.08186299628699563
-0.04230513597897851
-0.008244461597779399
-0.02773573114625654
0.1808338094653378
-0.03863975313817326
-0.2679998638331478
-0.02044454254263489
-0.05327645092366706
-0.03141672318611007
-0.04880619397944858
0.01363270298224337
-0.04835307117205085
-0.03575110094314281
-0.2182778111463486
-0.04079432055135344
-0.004923438597590066
-0.07546471635080768
-0.06892826263392199
-0.1423461017180512
-0.02090647579158322
-0.07477924409377414
-0.04322478602425146
-0.02281915403131351
-0.01547661196306559
-0.006364734271205302
-0.007279953050194974
-0.05229773201674137
-0.04953669162393108
-0.2175084945281219
-0.05619255246498472
-0.008397577091169122
-0.02221913307427316
-0.1476483311269514
-0.002799931858974176
-0.0759353795396409
-0.02164823518804031
-0.0009037272729740014
-0.01105272519461638
-0.03326140366776342
0.09378997805238125
-0.03846965429017447
0.251855047839082
-0.2691940678654105
-0.1326414787438147
-0.03751232886264374
-0.09098033002592901
-0.009414235252725708
-0.1136934170524655
-0.1781440784277183
-0.2197508323268789
-0.1763884181979835
0.05654012532089804
-0.06307664921322556
-0.02042058165234777
-0.06669738574396869
-0.1653267033442995
-0.02337483866488881
-0.01837285432332615
-0.05168077385331917
-0.01988208611539941
-0.006914589547001338
-0.1069569592191827
-0.02309412930311512
-0.04479635409340977
-0.0702159650968035
-0.1602591708171305
-0.03335306084929256
-0.3889654162473214
-0.01785705918035809
-0.2260343403639551
-0.044061116217107
0.03248062982132895
-0.1064220781946994
-0.01571377268283302
-0.04260813749553265
-0.1037344280158797
-0.01768271220906195
-0.09496510522431943
-0.2078990199571369
-0.07142163664129643
-0.02384900224110495
-0.04779645015916131
-0.04255051274014776
-0.2046224356940121
-0.02206342948634115
-0.01909015679072671
-0.01128829473669998
-0.05641889231473769
-0.05035003904351995
-0.02238214298240407
-0.0207964791970928
-0.2407832570972478
0.1272012709106883
-0.2051772334940631
-0.1954126179020761
-0.01178697345848303
-0.01139450102067439
-0.06693436756199755
-0.01018988987108321
-0.5036452291701161
-0.1201274110398773
-0.01920617039053216
-9.863915181348343e-05
-0.0239487541283619
-0.2806885397475915
-0.2786736805189183
-0.007097338508980248
-0.01716383611063
-0.001220214021859472
-0.3495968666166602
-0.02834392334541137
-0.02918109877534551
-0.01252956861477195
-0.01963251300042854
0.04943393310180027
-0.1112992830480349
-0.01425395780870667
-0.02082564327215915
-0.04461236283169972
-0.01825207582700781
-0.01618973866811249
-0.02345812971804772
-0.06769358431797472
-0.0114272553311378
-0.0190226039716676
-0.008628946239101255
-0.0007337407452674406
-0.02948543866053272
-0.001785551064243626
-0.002142106890943995
-0.005813705797697871
-0.0255907230959265
-0.007960872181141693
0.0014699746440766
-0.004282798796651732
0.001378252778257245
0.002529248511357721
-0.008922478563780256
-0.1392875985311889
-0.002969146000087087
-0.001402517426835752
-0.04814306378183392
-0.02158135954940355
-0.02417850127560736
-0.01429561907821586
-0.006185849459913221
-0.02091739327093443
-0.03928360068352028
-0.01424919543322674
-0.01290579136151097
-0.01141906314402262
0.008766627062952234
-0.01012089050921441
-0.01189015238491258
-0.01151926410438872
-0.01055635651149073
-0.01035895390895281
-0.01214929384766798
-0.0138866271962925
-0.3028363448487044
0.0594780570284892
-0.01585973296756569
-0.01523913728877404
-0.01287971941707519
-0.01182805271729701
-0.008705770818167849
-0.09646649813657063
0.01229639960007122
-0.01366977574335931
-0.01411585700627965
-0.01060946574803068
-0.05153485638782121
-0.01021652624658976
-0.01354414955972919
-0.01016087445469966
-0.000288996397066586
-0.01093519342585376
-0.01218885338836632
-0.0245492009511573
-0.01562753464501061
-0.01190810702295367
-0.0135410571180436
-0.007474292612382277
-0.01211150230324183
-0.01171895051378779
-0.05892060803696351
-0.01342254243705838
-0.0113241451688901
-0.008920425714093828
-0.01501901672792191
-0.01365647123439193
-0.01562386634303835
-1.366979738687825
-0.0997845679226106
-0.01327458375669111
0.02624112069472272
-0.161853331927919
-0.09150231979793423
-0.0120020287297179
-0.01406106515493401
-0.2361953859122982
-0.02887717621482454
-0.01836311591751951
-0.01165095026408719
-0.01991913876492381
-0.01019634215581788
-0.03077216152263586
-0.4098633196566581
-0.012410548831067
-0.0141035898909974
-0.004669607894244953
-0.01127540262404875
-0.01071927464171652
-0.0140854355450865
-0.006743094979296148
-0.02660579421816117
-0.01168783025645622
-0.1702500222769741
0.01873366001549842
-0.007456950427485299
0.004081258887096794
0.01356168440959755
-0.04824433969890158
0.02832523445527345
-0.01335808383759501
-0.132647215240643
0.2827689823340416
-0.007421929700685862
-0.01361323434960938
-0.008169450600493667
-0.03264191368755431
-0.1246422095452363
-0.01222437573840703
-0.01212296208846474
-0.01686768442797226
-0.01353283954626676
-0.04136041671935687
-0.2182784072889698
-0.01014255593444326
-0.04282532886919095
-0.03909326441699369
-0.1734986806747044
-0.1594270393708008
-0.1348940181144377
-0.2292159683727382
-0.005566783510629018
-0.02096159823798355
-0.01427953367194705
-0.01300611399126116
-0.0333745555558558
-0.02449902388370157
-0.01423662089155825
-0.01489432629565987
-1.071483415861526
-0.006007356633376443
-0.01326146621311067
-0.01831113806713552
-0.02438055140506017
5.225061104588413e-05
-0.01485010860251811
-0.02595890244884647
-0.1504206025483519
-0.01360679081762632
-0.02186840686517174
-0.0139605135287066
-0.001321158923408209
-0.1779591402815331
-0.01279810656094649
-0.1462924368898677
-0.01582207223989651
0.0032323870272496
-0.01447080618761547
-0.02366315879895531
-0.01567524176504061
0.005104326869167763
-0.2720704342962704
-0.02606078261224558
-0.01616635612851948
-0.004294214119059539
-0.0100539725548458
-0.02980350301905991
-0.01408228273559813
-0.02061353486474431
-0.02093008556568799
0.01469074713171316
-0.0984470264836115
-0.02158563729027593
0.009357718703119787
-0.05574737521490652
0.1736432167824978
-0.1053531705274412
-0.3163883018178781
-0.03088270789008205
-0.02567503390817128
0.1511429421907066
0.07790723678580806
-0.003681043999470437
0.05023775787029573
-0.01524315253781224
-0.0139746121669349
0.002471692345077606
0.009280575319326469
-0.06538838211308926
-0.005732265269558101
-0.05652492988807487
-0.02243497214927895
-0.01572767872173786
-0.03653650794030723
-0.03291490024964323
-0.006655719074875525
-0.01504125693113877
-0.03732592916747016
0.03580236764090174
-0.03879907133744707
-0.01391813522386205
-0.1185317971164864
-0.03157643837359491
-0.03933118090391365
-0.6701350228472076
0.01988667005414931
-0.01033808743742437
-0.005822247747842322
0.1651778053078252
-0.09025983040144417
-0.03539280377385633
-0.2431332708009963
-0.01618611081584415
-0.01632279834748703
0.07499158758035419
-0.1806566324715396
-0.234534931991536
-0.1920483282122022
-0.6787862007239194
0.002158906237202126
-0.01819624279144928
-0.01674269287583467
-0.08539310623954206
0.1185618612018716
-0.02092982634778639
-0.2294569830493004
-0.03562885728127558
-0.006704811293235238
0.2806383167021372
-0.01113663273296174
-0.09153255485363922
-0.1519319262144002
-0.003476574230695428
-0.041041859172851
-0.05233940923937493
-0.2012746044812582
-0.008142019418523003
-0.04039248243198656
-0.00265490371765069
-0.5449442482056941
-0.1939789387572332
-0.1781694734160896
-0.02304069772843827
-0.007896679211926123
-0.06137377544197482
-0.05693967757656836
-0.01385809124994851
-0.06887679751061353
0.004664181319321952
-0.01797331051418357
-0.09341720777215412
-0.2734169548002259
-0.00773882650307684
-0.02586527223116581
-0.02168055953426634
-0.07560210586759426
-0.08944987592206431
-0.08908174647857271
-0.01204489026554824
-0.9153121851067163
0.1621526650355526
-0.07925058520107824
-0.2497166410031905
-0.04171997952929649
-0.01003723484400018
-0.2551969127616319
-0.1945103067824373
-0.03138424982554694
-0.1246249328228396
-0.01960253884074978
0.563767615747425
-0.02456404572057262
-0.2227025648683679
-0.02543690744829852
-0.005442489585990247
-0.01163447213648349
-1.243547296715071
-0.1800535534614134
-0.2281575573399657
0.005247053029070506
-0.03860734764925806
-0.2466789500619825
-0.06649408369099807
-0.05167919216936264
-0.1455356605776092
-0.1817353335464331
-0.06921504029856539
-1.218120419876597
-0.1486381624983069
-0.5323907526875074
0.07964979241251226
-0.006074359666236897
-0.02137976082447317
-0.04399068903591719
-0.03865015952888192
-0.0282774412803263
-0.1289725379706553
0.0812802258639759
-0.00209066363219008
-0.009963503192289494
-0.5708114312813027
-0.8540712594040393
-0.1786346045221986
-0.008201451520941394
-0.1339770227013173
0.000739843895968117
-0.0001456124393581289
-0.002180014690900689
-0.06051164553680994
-0.2345780615060754
-0.01328410736250176
-0.1200559348210248
-0.1576576971229731
-0.01317014924425339
-0.03496363485464871
0.0265197812711796
-0.05820784906463168
-0.07124448470853412
-0.4963852231340064
-0.2143807933649967
-0.07953153189224313
-0.07470323584499972
-0.01961784349043685
-0.1214320504712207
-0.156286624119527
-0.07663162278651338
0.02296509596817537
-0.08627345143941535
-0.04963766049969889
-0.01487707025977258
-0.1077072065120235
-0.2777085239992101
-0.05865903832166651
-0.01820420052060103
-0.000584123212293286
-0.0100167523850635
-0.01083206191568709
-0.2256660326806884
-0.01512015600941345
-0.2177104533712902
-0.01029706441870664
-0.07234769505195028
-0.004387927070503751
-0.02325301365358577
-0.3866228608219916
-0.9230310437380626
-0.01131358011365985
-1.040159708792019
-0.6057882666399431
-0.01047321882781617
-0.6640074745167983
-0.1843477397278724
-0.005948734558893814
-0.1274311708347901
-0.01668522552834864
-0.1245727070825766
-0.06543562616722177
-0.08113092679345622
-0.00508646598814899
-0.002304499904147332
-1.347848747105212
-0.01146610705399304
-0.1782111161719287
0.0007931689519596348
-1.003378714097821
-1.246555448171724
-0.07901098091922165
0.01683111020865733
0.1646028045874459
-0.004487543879867164
-0.02303494549815964
-0.004191664259068463
-0.2464080871296377
0.3656926105034746
-0.04165546888333251
-0.2133084394332361
-0.01494590938111631
-0.6481752061918786
-0.07282090105940507
0.1887243724401148
-0.293558286225839
-0.05035452663403845
-0.06969467572614856
-0.0158518142668989
-0.02161467944005379
-0.5869240108253885
-0.1487618553886584
-0.08922319006479212
-0.1236919817333884
-0.5500199783621856
-0.04481322399399662
-0.9003517838094184
0.0006445101587053302
-0.2419966204574232
-1.057659614422513
0.1632152055352649
0.2890778359590318
-0.18118395270581
-0.1890077725940063
-0.2144863186216402
-0.06657116441341519
0.02282647004726994
0.04358230006877748
0.00318094795316399
-0.163823587705206
0.02613160728137851
-1.367548235533157
-0.08643778972842718
-0.4784816144746577
-0.3350178151730081
-0.2113782952656654
-0.179650467967641
-0.01691804005223691
-0.01544612827753502
-0.103009248492236
0.1748038549410496
0.3843661183561829
-0.20056603082637
-0.143276175833593
-0.2218614170674012
-0.06317299876319055
-0.1537372528860153
-0.1679938412144741
-0.127091211078599
-0.1211211626098979
0.4632251176472934
-0.2767012818043672
0.4340987910416621
-0.5925360027891113
0.07286214301579473
-0.1954499657690649
-0.06721769008144611
-0.07711776506613158
-0.890129486556554
-0.2143280066509809
-0.1930081041325075
-0.3519421838136763
-0.4636519872731451
0.5699690026063186
-0.2139146971951038
0.002193468215857407
-0.06799422556540959
0.3460880493114629
-0.03545757614042194
-0.1305787282337058
-0.181742597577828
-0.06341553632827196
-0.01648684398739434
-0.1995439401504196
0.1983636936446997
-0.01289632466563807
-0.09782646717012861
-0.1747224285883705
-0.3210669156698472
-0.3091117374681432
-0.07055389600099414
-0.01005462175446788
-0.082271686084253
-0.647828171688892
-0.6768030891278559
-0.3316149810658789
-0.05859737282590389
-0.05002788915158687
-0.02491870951043782
-0.06931084317892783
-0.05561821064988355
-0.3645440593948192
-0.9653402286570015
-0.01010669028138014
-0.08449198743642848
-1.147107044145986
-1.042122900324648
-0.109534546737099
-0.04093270865333146
-0.06832515666435714
0.3880340924892707
-0.3397360709777805
-0.04902406405088605
-0.6049751560758702
-0.1266000999549841
-0.2491967862511671
-0.2141913482124387
0.473184068726341
-0.6352100265614187
0.07719326005831934
-0.02888738745085694
-0.5662494341727262
-0.05364159716138833
-0.3666696871232137
0.110061152394819
-0.1925359234195652
-0.06082180835466755
-0.1345463734244671
-0.356852927209499
-0.08339463980565534
0.516163810908743
0.08687897827189515
0.4691589076012614
-0.1016688076645227
-0.204894484872038
-0.5146716594562013
-0.1347529808243822
0.02490859770692875
-0.05487268279422688
0.09967721756820269
-0.301195475230826
0.2364941038285959
0.005225299581889438
-0.002901212560525318
-0.5080271287254805
-0.1823036373825071
-0.08363429067181215
0.5816525142626658
0.1395731543139078
0.3421526954133747
0.2253911201169127
-0.5674161278537478
-0.1915863188482126
-0.2256629884410153
-0.2222311401050116
-0.06156041143437486
-0.6879222307076459
-0.1891596226958927
0.3042890463906453
-0.1890917820454951
-0.0114493023289559
-0.1639184784979689
-0.01111850216937811
-0.1628014976284136
-0.4426274214902641
-0.07585592978777637
-0.2059717257065468
-0.07199724261076361
-0.0919318145402441
-0.1409065531953206
-0.07218810404723226
-0.4473163450076121
-0.4098596246477228
-0.02355380246398776
-0.07681297893816313
0.33084319798481
-0.2504259625672333
-0.1782850235994475
0.5236598440957304
-0.2016536556128814
0.02111067668109223
-0.4541942546921175
0.0518036998635876
-0.06011452511560551
-0.1390456992994049
-0.5899417126093673
0.1578245677392677
-0.5749362101178744
-0.5399972902792504
-0.1017142199749814
-0.5128475933940843
-0.03656180190024075
-0.1439291599140718
-0.4152748656676912
-0.01612080399791252
0.2885641837060025
0.4900462874198988
-0.1631892758442978
-0.005976818132382745
-0.08468263379945773
0.5250740178809404
-0.03260593022526347
-0.4438865212576639
-0.03221444588033272
0.462228195619766
-0.01665197252519015
-0.5489971467034639
-0.2483766041908821
0.1782717841562004
-0.3139887055453774
-0.1816867984305771
0.04753478804785245
0.0319699360408889
0.05622742878146814
-0.3028061679626921
-0.1601884022272428
0.4128676652883552
)
;

boundaryField
{
    FrontBack
    {
        type            empty;
    }
    Top
    {
        type            zeroGradient;
    }
    In
    {
        type            zeroGradient;
    }
    Bottom
    {
        type            zeroGradient;
    }
    Out
    {
        type            fixedValue;
        value           uniform 0;
    }
    circle
    {
        type            zeroGradient;
    }
}


// ************************************************************************* //
