/*--------------------------------*- C++ -*----------------------------------*\
| =========                 |                                                 |
| \\      /  F ield         | OpenFOAM: The Open Source CFD Toolbox           |
|  \\    /   O peration     | Version:  2412                                  |
|   \\  /    A nd           | Website:  www.openfoam.com                      |
|    \\/     M anipulation  |                                                 |
\*---------------------------------------------------------------------------*/
FoamFile
{
    version     2.0;
    format      ascii;
    arch        "LSB;label=32;scalar=64";
    class       volVectorField;
    location    "1950.5";
    object      U;
}
// * * * * * * * * * * * * * * * * * * * * * * * * * * * * * * * * * * * * * //

dimensions      [0 1 -1 0 0 0 0];

internalField   nonuniform List<vector> 
808
(
(0.7562741992481545 -0.01751760559076643 0)
(1.03153007228814 -0.01258724172877648 0)
(1.111660503858142 -0.003871632485927134 -1.718872580979547e-20)
(1.085127396249035 0.01257969826506709 0)
(1.361803384870735 0.01269192396145872 -3.812050404579608e-19)
(1.038740387274074 -0.009432489253064381 -7.323956443051407e-20)
(1.014556520186391 -0.02082035117724297 -2.43846963083837e-20)
(1.079221068280327 -0.005124580473232669 9.039750536680141e-21)
(1.253457648583688 -0.02183347126747449 6.252583325624336e-20)
(1.085310134224405 0.009273646267055567 0)
(1.007503294441528 -0.0103740460295833 0)
(1.304555665957025 -0.05468671534508161 -3.45672281542406e-19)
(1.086421878633423 -0.001933528619071257 2.043708938759529e-20)
(0.6751963736937504 0.006358248002506496 0)
(1.275055748422464 -0.1201322552031703 0)
(1.081822719030144 -0.0004460402899269431 -3.8685046520224e-20)
(1.224120422721048 -0.1481431869047268 -9.546125912880773e-20)
(1.07425159685672 -0.0003781926166167168 3.207169718395277e-20)
(0.9887505806035343 0.004266498910008442 0)
(1.026748732229469 0.009591684940787984 0)
(1.033113973966378 -0.01429541953714415 0)
(0.9875929583448438 0.04529857512461061 0)
(1.05106156438377 -0.006085668747519896 5.816798052994469e-20)
(1.053835567603673 0.008687049260120738 0)
(0.9335651638760076 0.1990590637470681 4.565297222935921e-19)
(1.161165603776187 -0.08764113858122581 0)
(1.185211960161397 -0.02001367539948247 1.53768800860285e-19)
(1.077219893498854 0.009679212043543 5.237053637121244e-20)
(1.0837026418501 0.002031568778070639 5.125375809596753e-21)
(1.071773766495211 0.03092746874311203 0)
(1.075265692856617 0.002745126341921974 -1.18398738909537e-20)
(1.033349130165157 0.006632685887880079 -1.871619645671989e-19)
(1.060075575831753 0.01450388732939285 -2.351827641611996e-20)
(1.088734644066697 0.005616667166555899 -2.938693618327905e-20)
(1.121711736362435 0.03737596926960238 0)
(0.7548697358821161 -0.1212414719177707 -4.550661428388785e-19)
(0.9547391419242742 -0.005793164043729619 0)
(1.068771120998163 0.02224222199794251 0)
(1.068802417178599 0.007213700200611269 0)
(1.073795518300312 0.008678794927922378 -2.817977545784816e-20)
(1.093314429602461 0.02348250515561941 1.077220907906189e-19)
(1.150627355489697 0.002171000771457352 2.111746255921912e-19)
(1.095767659440313 -0.002289308245211235 0)
(1.015162675681326 -0.00937505803362294 0)
(1.128778809673886 -0.09332924941238566 -1.633011427579364e-19)
(1.044066949124577 -0.01172014545840205 -8.389157227772921e-20)
(1.058170672897104 0.02665991175397723 -2.678049564810409e-20)
(1.229945359498742 -0.11265422204056 -5.557872818338598e-20)
(1.067488871976279 0.01203205550681673 -4.067184180890891e-20)
(1.257283912415414 0.01486520285573351 0)
(0.997149221190291 -0.01911386878807488 2.210197575704284e-21)
(1.044745267581723 -0.002318837739790093 0)
(1.087413682306824 -0.002163144475840411 0)
(0.9987315137951395 0.007912610587711102 -1.892690579498643e-20)
(1.251695126629742 0.03263568888224884 -2.393679439655812e-19)
(1.063438197293294 0.01813329305599686 5.867233689033161e-20)
(0.9901410103458503 0.01150940717970084 0)
(1.015062800850797 -0.006989045305914144 2.538313853285392e-20)
(1.107468930011514 -0.00141312432227346 -1.153296703549768e-19)
(1.061257776561715 0.03126573152337243 0)
(-0.0842900856738851 -0.01194108651121414 7.734570730109552e-20)
(1.154186155694166 -0.0524637702640588 -1.844111437337418e-19)
(1.004060570627942 -0.005801294812576162 -2.787894868761512e-20)
(1.188163669626467 0.06596769942720909 -1.202679161609704e-19)
(0.9970445380488432 -0.009945385653356559 3.10002016246944e-20)
(1.08412712393558 -0.005457369330410681 0)
(1.248624925893008 0.09209466548793183 0)
(0.6960769506379236 0.003160550721142082 -7.424644330593326e-20)
(0.9883000710332145 -0.01510556657944245 -3.229459081462587e-20)
(1.457570425825948 -0.02014850241548066 4.390761232107976e-19)
(1.06056535799754 0.007602110520359348 -6.525994542271024e-20)
(1.365931223235379 0.09274449608339563 2.835334460279454e-19)
(1.054875936570262 0.006786302240733509 -1.948064901200847e-22)
(1.080931827201856 -0.01401705868343517 -2.422090534545109e-22)
(1.163352454492323 -0.2355786052014657 0)
(1.022251815564878 -0.01511664421303177 0)
(1.017405580365416 0.01809222143508969 -2.98867702163896e-20)
(1.388515656916767 0.3489372275105143 4.234434143492595e-19)
(1.097443521867315 -0.04241146667473412 9.592725042639592e-20)
(1.046560047722764 0.2106768296104364 2.404862651979618e-19)
(1.122711191890212 -0.06142742889101521 1.181070091589262e-19)
(0.9219861341492394 0.005183539894892724 0)
(0.9753552135107971 0.01853875059313275 0)
(1.003989865178639 -0.04848595029285071 3.176560212222338e-21)
(1.010035623424 -0.0137587946140825 7.813657196384157e-21)
(1.030713895620288 0.02678191868142983 1.35001423638385e-20)
(1.526435846813114 0.03350109899157001 3.210026194744279e-19)
(1.290812616517636 0.06995154391959799 5.641922069487074e-19)
(1.072523826842027 0.003072305355292408 -8.802302672934472e-20)
(1.194096974513257 -0.09660309923369041 0)
(1.033907969749622 0.001749032212077674 1.286691279956684e-19)
(1.165026363974053 0.02041198362420149 -3.1211800406102e-19)
(1.001511193587888 0.03253959131099499 0)
(0.9996281038994906 0.001995926797652133 0)
(1.044241160490077 -0.0001114995645077592 8.018269359984816e-20)
(1.218389036902827 0.1054949092768879 4.05520670093551e-19)
(1.011150999763408 0.006962736836860972 0)
(1.089087219306333 -0.06814020518214541 -1.067930544469217e-19)
(1.151363655465558 0.0357298676961771 0)
(1.21605653753181 0.09029161496231342 -1.899592220285814e-19)
(1.108317793636915 -0.02890061136081053 -7.822792407427212e-20)
(1.027622692166426 0.01191606877009094 0)
(1.085210076813774 -0.00459441414834682 0)
(1.019597897960447 0.02645967145185901 7.825863854074396e-20)
(1.074128220971211 0.05648665136329774 -9.477976152209913e-21)
(1.103699355072852 -0.004240076290337959 6.446874038715483e-20)
(1.105750011152941 -0.09194593541625641 1.505051193057248e-19)
(0.9633645769311853 0.001264207978396843 0)
(1.066075873891535 0.03132903678681852 3.681601526998538e-20)
(1.167944665627185 -0.07690539153385006 2.253758763392311e-19)
(1.052718276596818 0.04723730112526956 -2.84582130744865e-20)
(1.023003576719 0.06805301782852223 3.640583388163423e-20)
(1.090259958073824 0.02612355770356356 0)
(1.017004758412474 0.01397952771760875 0)
(1.028978661133749 0.009362860988023613 7.840665752403322e-20)
(0.9485331701635098 -0.0323003625744085 0)
(1.052971199183513 -0.005431539550532813 -7.384414475175467e-21)
(1.34039945509001 0.05554402083086863 -1.539202331746161e-19)
(1.079657073014866 -0.01318587881093366 2.663147434629252e-20)
(0.7440836118608881 -0.001739835958053453 0)
(0.5835091756457109 0.1863832463892831 -1.12962073901495e-19)
(0.7060595384444118 -0.002478738538398779 0)
(0.6988560493467638 0.01464246998602274 0)
(1.077758036085662 0.003587666556632505 -6.441916980049891e-22)
(0.9906518921171726 0.01446153250116153 0)
(1.280268815291934 0.1219617558758517 2.55496028244313e-19)
(1.012225665328222 -0.02791096919119559 -7.363959481067986e-21)
(1.043203616475005 0.01634133487698114 1.424000283570511e-21)
(1.058578175646208 -0.01221879206101414 0)
(1.126497137333218 -0.009166115720768865 -5.138626167652148e-20)
(1.27030407637006 0.1258310477941002 -2.236428310760398e-19)
(1.089044355978902 -0.0108810885821021 -8.609478339799152e-20)
(1.071055647146073 0.02605538702166382 -1.067753676498355e-19)
(1.041057377267016 0.04679935636165205 7.450460985500455e-20)
(1.022547184725225 -0.003624074817004521 -3.477119457010354e-20)
(1.061020727794496 0.02369358564522094 5.687772169098183e-21)
(1.138959463260256 0.004142105949170897 1.036966678840779e-20)
(1.039493701861681 -0.01367334337846576 -4.753977406448466e-22)
(1.087426640053517 0.03474503850930581 0)
(1.028431544849287 0.01368014879440763 0)
(0.7840631657170157 -0.08038624588042265 -1.822390008693498e-19)
(1.030304045648545 -0.001899387878009125 -6.523316913188573e-20)
(1.133063567918054 6.200301479555365e-05 -1.251707494089033e-20)
(0.7034729170510879 0.006552539374105381 7.11664849899453e-20)
(1.175470803167859 0.01886615761931235 -1.974838427813587e-19)
(1.13610225938387 0.002909277694541547 5.287255604045192e-21)
(1.129026119255826 -0.01006622074493665 3.360844432693047e-20)
(1.000933315946718 -0.002971840095141638 -6.676590979454385e-20)
(1.100485729643266 -0.05701784432567172 0)
(0.9898662959294251 0.004402638941716113 0)
(1.057847458206244 0.007020268359021238 0)
(1.006064205123875 0.1893147064015936 -2.35926529417283e-19)
(0.7792990305130892 0.01243848910017453 0)
(0.8570511883492561 0.1027746282039638 -8.199025512813241e-20)
(0.09728877344774202 0.03169862721843731 -2.975955171346388e-19)
(1.171916103740604 -0.03201505099758347 -2.295258282194513e-20)
(0.6712514601530464 -0.007347101466353065 2.454169509483133e-20)
(1.163373363098695 -0.1018886990149556 6.947423773149836e-20)
(1.127186916565155 0.0009102608034042372 -5.884305835606734e-21)
(1.153588027522611 -0.05005302357038365 2.230414189512851e-20)
(0.07771349195210867 -0.2014437608293291 0)
(0.2432593128958714 0.06238815543379028 0)
(1.260908595293374 0.1041015518620374 1.848924437481967e-19)
(1.02121835386328 0.01984693627322615 0)
(0.7376799891789133 -0.006259955306172202 0)
(1.074924169574722 -0.01143265590810736 2.739053835433054e-20)
(0.974925272497323 0.002885576446212883 0)
(1.29582000844021 0.1183403355413108 -1.465321439598814e-19)
(1.057350637362239 0.01095515984075904 0)
(0.9927519216806787 -0.007272026464036647 0)
(1.065210054686899 0.008236528008600549 0)
(1.006250569001861 0.02091397243721748 2.207377583805648e-20)
(0.9326641361472768 0.008501160746218057 1.294407420129667e-20)
(1.175739002502545 -0.1994437770794025 0)
(1.005050511303879 -0.005202199323812764 8.04699914903704e-20)
(1.059203826559236 0.006277892796561329 0)
(0.7745736606229284 -0.003312730939682226 0)
(1.217704336627121 0.02588667930791932 1.615939827267058e-20)
(0.7050440729165484 0.001367405872098854 0)
(1.432528718256239 0.08368494729762456 -5.095996830820939e-20)
(0.9946989764125592 -0.005237209650117614 1.668346174092469e-20)
(1.274427816720325 -0.004227701150214917 -3.009753431648645e-19)
(1.059776036013736 0.009014171596000932 1.324500428432384e-19)
(1.00090646938037 -0.01353395108204563 0)
(1.209429170248001 -0.1462230143066552 2.053441523432475e-19)
(0.7331709886328813 0.01378501785829036 0)
(1.098259294440614 -0.004917802460022358 0)
(1.156539791507411 0.06627991121663011 1.882752928321935e-20)
(1.00635057063846 -0.006552795227513359 -3.045142093678089e-20)
(1.123094726190095 0.051264610872906 -1.714508024585091e-19)
(0.1366055524591563 -0.0940696877273416 0)
(1.073685029111721 0.03869662898366772 0)
(0.6616632209538572 -0.002871810574516447 -4.936170784382661e-22)
(1.01209578047891 -0.0196158986805807 9.005032880744584e-20)
(1.061522264781615 0.0008723314776385668 0)
(1.080893738225073 -0.1395798159397069 3.776649613118728e-19)
(1.002641918492059 -0.006129182067782162 -3.288767183297737e-21)
(1.003065580581564 -0.004001788740036899 1.084173388524498e-21)
(1.094013100596111 -0.009188436883213765 0)
(1.02077317704857 0.02026390980020234 -6.666359894915486e-20)
(1.106691486013707 -0.001606869762606334 6.320061653083447e-22)
(1.07440901715121 -0.01073249087845787 6.641241289964808e-20)
(1.085626997964191 0.02217136681593673 0)
(1.325269673259324 0.1553642170622097 0)
(1.002085373423375 0.0005561654525689176 4.407141938771524e-20)
(1.319590665237325 -0.1336866327939407 1.607014858448949e-19)
(0.006350745552886682 -0.1527839191690038 -2.302428376279554e-19)
(1.071101910985303 -0.005363521895583036 0)
(1.111253911095877 -0.004611086857112387 1.16780188563378e-20)
(0.726767144820057 0.01780084124505085 0)
(1.058011323431754 0.01072481424686867 0)
(0.8610291392794095 0.1611892965242431 4.589122532126151e-19)
(1.284775385422903 0.1224776089278732 1.882953111529322e-19)
(0.6541919981193678 -0.003105160299517434 -6.528297478011329e-20)
(1.039782194878234 0.005168839419247643 -3.563450543048505e-21)
(1.054839097446782 -0.0002045218218869573 6.44292151761597e-20)
(1.361812130195464 0.1163939309770717 6.547192171491017e-19)
(1.337063373087396 0.2520359194544534 0)
(1.057730814730115 0.009977263884232116 0)
(0.9985078244154063 -0.004078162983472076 1.370818415453073e-20)
(0.9934101766916543 -0.002046984543712127 2.327919313576512e-21)
(1.385009210956002 0.1992617550399172 4.330293079947027e-19)
(0.6818522113155046 0.0005166362414895509 9.961402840603687e-20)
(1.005712331595191 -0.002186314210140945 -6.018829015483286e-20)
(1.098138246260743 0.01315594667493816 2.560845007721899e-20)
(0.6694509927266586 0.004952196030199377 0)
(1.066084297276734 -0.01202863448341326 0)
(1.008977424508964 0.1357781217452737 -1.41472597372013e-19)
(1.087589966920582 0.002842658160445862 -2.586413335061491e-20)
(0.9819046679449104 8.58967337791538e-05 3.311368993457719e-20)
(0.9912117965239327 0.00599599576976918 0)
(0.6381219714093921 -0.001104809185255067 0)
(0.9767222678334784 -0.001270065654993568 0)
(0.6420129215062125 -0.001415228735837814 2.648556862820955e-21)
(1.087392509305068 -0.05571620951092199 1.216087673665306e-19)
(1.109486519425427 -0.005825860155663331 1.144290477599652e-21)
(0.9580006233371761 -0.0008558493163256176 3.879134445817295e-20)
(1.017199059352529 0.01044457053021464 1.736015260051844e-20)
(1.065354117146678 0.008371002936184537 -2.380015785039927e-21)
(0.6347955362309856 0.008865831133776796 -3.614749516266378e-20)
(1.00559419161554 0.01109844612359622 -6.172569231939602e-22)
(1.037838877471854 0.008602364805386432 5.301721312380228e-21)
(0.9857644597082752 -0.004236696638042562 0)
(0.6099971591073542 -0.0004404600596730067 0)
(1.069022339683792 0.02252016902283639 0)
(1.016047630237439 -0.01682859214647072 1.033701061350212e-20)
(1.022815651519593 -0.00576151066633825 0)
(0.9932480820706656 0.01374416063732686 -9.782334366448907e-21)
(1.00936044860243 0.004326140423768304 0)
(1.13479195944595 0.002093870224515912 -1.230364192750589e-20)
(0.03086654933672704 -0.1406500007483154 -3.949016419767972e-20)
(1.034309707072461 -0.01773767128692087 -6.128335978390435e-22)
(1.043527774801511 0.007919870694603712 0)
(1.085056431364959 0.07031736987765368 8.42444363305743e-20)
(0.9675075210841919 -0.001173828541221025 3.110679539096772e-20)
(1.020080802103291 0.01681694738612552 -2.234821642866256e-20)
(1.006165912922048 -0.002263350091186865 2.39521467246927e-20)
(1.038998043264802 -0.007618150592276917 0)
(0.6409417400208802 -0.004087491735334296 0)
(1.025984538196207 0.02449825465363102 -7.977336468966864e-20)
(1.086814195803413 2.82655708858275e-05 5.099399178932082e-20)
(1.012168400331763 0.00737867038986159 0)
(0.9809993340029308 -0.0003785616108481719 -1.93144408905599e-21)
(0.8550451805323697 0.009940652060812591 -1.135058421901706e-20)
(1.013963683034827 0.00277722964730867 -9.522335685644658e-21)
(1.022678484667771 0.001551187485700856 1.857954047611826e-20)
(0.981873256950573 0.0005822794263597323 0)
(1.007875532190223 0.01064570486671725 3.212840588857251e-20)
(1.110467603582775 -0.001705743127326411 0)
(0.9347912327648146 0.0120273155940951 -3.21820345663142e-20)
(0.9534609865720794 0.0001920654734325175 0)
(0.9005930493115629 0.2019426695454052 4.944609506765731e-20)
(1.011180320247558 0.06751276426652876 0)
(0.990699639913978 0.004774125488510982 -2.288630934073619e-20)
(1.057354597279243 -0.04890994088677066 -2.776181290057766e-20)
(0.9940145628300264 -9.703173343152958e-05 3.251523668804921e-20)
(1.006680513274273 0.005628119872540025 0)
(0.9804595737448756 0.0005301637642810298 -3.013469718139606e-20)
(1.178830535704482 0.1002296295628923 -3.372380600806725e-19)
(1.068221507257301 -0.2638871860841773 0)
(0.9945440638897667 0.000600409007793879 -2.26270323718318e-20)
(0.97441156052051 0.004022003663821211 4.749810254602457e-21)
(0.959328202103229 -0.002087156918112139 1.028476838497252e-21)
(0.7460073821137869 -0.001067811488189019 0)
(1.118543796365728 -0.06891307745787481 0)
(1.004293228564347 -0.0005556758710974829 -2.241223979851923e-20)
(0.9076776950602012 0.006994620314211746 -1.084184605023961e-20)
(0.8404378560511768 -0.000662794233602475 3.877996451701184e-21)
(1.011902134995857 -0.005823068879554764 0)
(0.9622385526566468 0.01322849350870131 1.513542850402562e-20)
(1.005655461074511 -0.0001920591961963336 -2.240932432245233e-20)
(1.026604506289875 -0.001595038190047929 -2.476733107392365e-20)
(1.113801845520825 -0.004312562005762096 -4.905749728204719e-21)
(1.11586073613153 -0.005177894496503545 0)
(1.009560263622407 0.001966628251718175 0)
(1.023385234334242 -0.003050240305070452 0)
(0.9458348651329086 0.007541077128002965 -1.995597509551297e-20)
(1.017867661179946 0.0133182175383965 5.636333502173198e-20)
(1.08785884530855 -0.0025958211502001 -2.361918478235485e-20)
(1.038299699033352 -0.001899600224148029 0)
(1.10906493741109 -0.002681031786134346 1.830572247017968e-21)
(0.9944312268328005 0.0009741082367194096 -2.244389177764306e-20)
(0.9797210554103547 -0.0008873519735227704 0)
(1.009956413148836 0.002314961504903215 4.696454344678635e-20)
(1.3627781858331 -0.3138900634499077 -1.11909771532545e-18)
(1.120613087012774 -0.04475986807164624 -1.112210772891708e-19)
(0.9729319333456196 0.01165796408748417 4.49876697319783e-20)
(0.7685218348832552 0.01086186217557548 -3.604497877239925e-20)
(1.223615047085331 0.04909662969688417 0)
(1.215251657146509 -0.129749200397451 -1.482953143030992e-19)
(1.08581510155923 -0.004332833901386285 0)
(1.008844339085956 0.0004624895287351436 2.287301319196981e-20)
(-0.2002529531445583 -0.1022111975490832 0)
(0.993969774679975 -0.00467265925889095 0)
(1.012324580299248 -0.02303256376339837 3.874866827256272e-20)
(0.7063776943900117 -0.01942698435584915 0)
(1.096792424297844 -0.0149331991908543 2.35099691804535e-21)
(1.038878356096519 0.003897535525681471 1.496094828657955e-20)
(0.6332172571963005 0.004145948417604519 0)
(1.445869585488812 -0.1241666719401277 0)
(0.9857822659677178 0.002076321248822604 -1.067619171783817e-20)
(1.069647293907202 -0.0150711753808701 0)
(1.03784590617724 0.0005409667005628964 2.046349172036652e-20)
(1.084800936683745 -0.002072622466241004 0)
(1.011915931921513 -0.00639527561421295 -1.227039486500721e-21)
(1.006043282517214 0.003315395094257497 0)
(1.008286674867452 0.003408650815538906 -1.221684446521973e-21)
(1.004271799616065 -0.02022428779837245 0)
(1.036041862619338 -0.007660283585323443 1.81246350334728e-20)
(-0.1977398560557256 0.04340426832040525 2.819689924044286e-19)
(0.8067754895685367 0.03085696727500457 5.987279241578372e-20)
(1.005043900081314 0.002182119226663973 0)
(1.121466844622956 0.01163709096555103 -1.219113645440663e-20)
(1.109399209838794 0.004090407535763938 9.378110926263087e-21)
(1.054158019700169 -0.01277131651037359 -1.329696274822822e-19)
(0.9987716839719875 0.01040388499440962 -3.750408325953777e-22)
(1.084410601707084 -0.006128561035630684 0)
(1.188821559460604 0.05017818044683379 0)
(0.8350415362352186 -0.07442628347291844 4.608378320924477e-19)
(1.089923859324645 -0.005488394902772541 0)
(1.033753650967891 0.007917250028085366 -7.7213444383672e-21)
(1.04258481723633 0.005378172503720674 5.64121318490382e-21)
(1.052868223728408 -0.05833435583452889 -7.591524848526645e-21)
(1.139465252136696 -0.002232599914276036 1.725102324468773e-19)
(1.080402928082549 0.0028819420263959 0)
(0.994385530858355 0.001971283035294108 0)
(0.9982012892191784 -0.02613092505363212 -2.429270543842774e-21)
(0.9907874856489534 0.003586299004744688 0)
(1.030346580118686 -0.03649968111996936 6.521580414921115e-20)
(1.291713754759241 -0.09862020699598481 0)
(1.041111942837356 0.0004638607611572786 -3.93055027490412e-21)
(0.9861872675383242 0.01687207935228226 -9.098105509347212e-20)
(1.033885561338552 0.04320531796278273 -2.318561602169374e-21)
(-0.07752044464519446 0.1919440917311307 -1.739316039091407e-19)
(-0.06931295348948396 -0.2842463056233925 -1.2992645065565e-19)
(0.8765589125383775 0.1154887256943399 0)
(0.2761913900187469 -0.02476789015688486 -2.977729944843438e-19)
(1.008868573930569 -0.007470496603799928 -9.425955540408384e-21)
(1.063972850598558 0.002709079218502803 -2.06246551205955e-20)
(0.9923547899536884 -0.02183207894128318 3.087377793140274e-20)
(1.02710754541041 -0.02972773543967432 2.682033555556414e-21)
(1.009712670152113 -0.03040340837794455 -6.716284359763332e-20)
(0.9888123206794097 0.004894345065953603 -3.492963975959351e-20)
(0.9937634424608494 0.004925800327899245 0)
(1.024393960187903 -0.00214854937711433 -3.482620056320098e-21)
(1.930640844554543 -0.1564593164038827 1.065128667046759e-18)
(1.048401132744344 -0.01219810817300642 0)
(0.9967549401633349 0.007791343235849335 1.486718548316946e-20)
(1.003598383909104 -0.0005517706672468388 3.994027368824995e-20)
(1.171306994991906 0.1586350974006794 0)
(1.006976014171516 -0.02075838457788046 3.796509871288768e-21)
(0.9535104524220581 0.003646812496010601 0)
(1.037846299378633 0.04171991226986024 0)
(1.298973037960766 0.1489931727678232 2.199553033462727e-19)
(1.076186305333954 -0.001373587178512411 2.331518952135794e-20)
(1.016031065279893 0.03090372663706008 4.460204770697278e-20)
(1.078157915066692 0.004003689876461155 -2.244803586125766e-20)
(1.05823973493639 -0.02387087742333165 -3.986974040420438e-21)
(-0.3898360255254879 -0.04306039423219103 0)
(0.9994400107604872 0.01246863915191958 0)
(0.1254699274971517 0.05386311963727153 -9.471136921875828e-20)
(1.005807798173591 0.02049526557267556 -3.98968717827759e-20)
(1.007087698536292 -0.02564275946713232 0)
(1.000954360717351 0.005320854720652158 -4.874090437950695e-21)
(1.082005899582264 -0.04233207370777816 0)
(0.9941633876984204 -0.01898675110903422 -8.12709917225196e-21)
(1.099272740771914 -0.04938066808881452 0)
(1.4423647161088 0.1691316551100597 0)
(1.054782646711508 -0.01187140217063711 0)
(0.9916949897035203 -0.02474176111911974 -4.150423556925484e-20)
(0.9907317793897948 -0.02230977373239789 -3.387577480674078e-21)
(1.017321734421143 -0.02177794862238902 -2.168997554612413e-20)
(0.9966791643952283 0.01701574526216867 -5.382634144527963e-20)
(0.996062952218228 0.009459590630544485 -1.448913057450553e-20)
(0.9954367166615262 -0.02737643796954926 0)
(1.001564502933985 0.02435424630446676 1.873053536508081e-20)
(1.041843045453912 -0.02295104080589729 0)
(1.110785173219269 -0.03645259427571903 2.519353124124143e-19)
(0.9952500152889618 0.0165932984136434 4.457021901829482e-20)
(0.6150444154753877 -0.00869430362714518 0)
(1.156353076287796 0.1596138763926515 7.901429234789337e-22)
(0.8241113207245132 -0.08017806704119633 0)
(1.138773529276855 0.07253215783108982 -2.80375930902136e-19)
(1.314141176822962 -0.3884120612611181 1.275686122514037e-19)
(1.071670914278212 0.0671634333466673 -1.262092941841355e-20)
(1.011671315487165 -0.03021396046761338 0)
(0.9550985719928242 -0.2145410094645212 0)
(0.5502855794850916 0.1779236207985274 0)
(1.014841370634428 0.01356435399118303 1.046347285265761e-21)
(0.7116882466617865 -0.01348085172626801 0)
(0.9986558302376766 0.01626796981432083 3.435196724095875e-20)
(1.026038530695446 -0.0005021095687581795 -2.6608819322557e-20)
(1.079040704473203 -0.008012130917921339 2.630842533851933e-21)
(1.054297999966762 -0.02426274910172752 2.527771643242327e-20)
(1.042945649322983 0.01136820129072534 0)
(1.055479280830646 0.02120731306234035 -8.889413018982576e-21)
(1.050956563112814 0.03611565380414492 -1.762910344091943e-20)
(0.9838540730636014 -0.02216720894713451 0)
(0.6248801681074461 0.005117614920699162 9.171871209759738e-20)
(0.8941638087288978 -0.005950633279985514 -8.847298333525835e-20)
(0.9093578708528355 0.005224698894746154 1.450440449193502e-20)
(0.6296504805365757 -0.006437353009940873 1.411122090612298e-20)
(0.9807703317665727 -0.0002530248199251631 2.477708863435834e-20)
(1.004408256649367 -0.0175630419269972 -3.288859137450763e-20)
(0.979865865973642 -0.02566573630553648 -2.727461324874618e-20)
(1.085640315513836 0.001556368065544342 0)
(1.019032864764415 0.005304209378990041 1.058651926832912e-20)
(1.132923607011851 0.04817644803323579 1.351907781171471e-19)
(1.0317663872024 0.0427500241704764 0)
(1.022518929802098 0.002618712869687374 0)
(1.58148348580193 -0.1681390816170281 4.354094215314284e-19)
(1.05273289293582 -0.03471966027937796 0)
(1.021664171182418 0.01042477580034243 -3.592796389359316e-20)
(1.083386027667075 0.003385962723977344 0)
(0.493172897999659 0.003324464266585574 0)
(-0.01195518344314834 0.005135541649761231 0)
(0.9909700911578191 -0.02348003419590991 1.2545821573098e-20)
(1.300267835963239 -0.0968205551399258 3.659464823674743e-19)
(1.030889137060248 0.03723090558872925 0)
(1.022585910571385 0.003554030123419756 -2.177099275030667e-20)
(0.929694855292634 -0.1618619682847164 -6.373212018203974e-21)
(1.255807946248784 0.07334116983051024 0)
(0.5984215785834568 0.7309975658858455 0)
(1.30620884537314 0.1406115657123657 1.036484674528988e-19)
(1.674105739678358 -0.02668689802931887 0)
(1.066318805449744 0.133994447934926 0)
(0.7288402594011606 -0.001034396506759376 3.969222087297734e-21)
(1.046586207129229 0.04778193901032986 0)
(0.7436380393662554 0.1116985638115612 1.379251632736392e-19)
(0.9968199702428863 -0.01627228731934453 3.586521413307804e-19)
(1.038468601244856 -0.03879022356050327 2.683667324395041e-20)
(-0.3725003023140001 -0.05640275807585875 0)
(1.072083166021055 -0.01615695415666014 0)
(1.086148338633054 -0.01305785452326719 0)
(0.6478039294678373 -0.5021264667313341 -2.498073241866023e-19)
(0.9905762781638874 1.479814795993483e-05 0)
(1.092142691363657 -0.02207580080124926 6.911511815363503e-22)
(1.188625440321556 0.1207060759549878 -2.050186673193122e-19)
(1.099327751933407 -0.04230888653758542 0)
(1.005618134604027 -0.02071202806351299 0)
(0.7803416257146937 -0.1932551680878599 -1.659866941908616e-19)
(0.889673350721941 -0.1427339595425592 1.457146375012183e-19)
(1.03387564913134 0.01208365583935876 -2.049355563970572e-20)
(1.023133368230706 -0.00912581946869612 -4.263372678055424e-20)
(0.8709450670840441 -0.0005252842528210878 2.885981185133048e-23)
(1.50312798594022 -0.1947539845255396 0)
(1.306870467626009 0.1094236278108886 3.010929422572362e-20)
(1.241150728337387 -0.07854533171192953 -3.245678972897338e-21)
(1.095844280530396 -0.01879037565922223 -4.012480567870184e-20)
(1.038262495994041 -0.01857117113225244 3.08247389453129e-20)
(1.092809472557487 -0.03914547401902638 9.579720328946519e-20)
(1.032461793332826 0.02043539654042237 0)
(1.051410699806992 -0.0338778869861696 0)
(1.115882849879062 -0.009009323037881246 0)
(1.100631990153867 -0.0368367019024652 0)
(0.9982490489847139 0.01075768074005863 0)
(1.154303220839472 0.07914062677359819 9.371527137506849e-20)
(1.343052889873807 -0.1605586310531141 0)
(1.041472398258666 -0.02653289961957787 -2.562558935392876e-22)
(1.049006586937634 0.05486953987618332 0)
(1.010055432955668 0.01415724533119934 -3.794253984401633e-20)
(1.033534782947133 -0.007780000532103229 9.389549827715876e-21)
(1.088976338760467 0.01337182150420326 -3.161530681259912e-20)
(1.084251015223086 -0.02888172475958784 0)
(1.073416942889481 -0.001361616994604157 0)
(1.100700848649398 0.09237966246339059 -1.39619975979678e-18)
(0.9350107279277999 -0.1486478564209342 -7.111068111904228e-20)
(1.179375698695401 0.1147633207194056 1.140654102996741e-19)
(-0.4538849167351173 -0.03041903629067205 -2.92161578291362e-19)
(1.018480857274998 0.02971989882817818 -8.539406918104599e-20)
(1.007322408243686 -0.001284585379367105 0)
(-0.243154691952068 -0.0009970636951773708 3.580258527305419e-19)
(-0.03478770448372209 0.3228681434791036 7.746940661446223e-21)
(0.9952086336508568 -0.006303781168718681 8.893367482890583e-20)
(0.1830853344999999 -0.04436522883072849 1.287007110133812e-19)
(1.089498605469605 0.09179117888380878 1.43599254450385e-20)
(0.09334928713754989 -0.1083713694556265 -5.379496677149309e-20)
(1.108266099258433 0.003118162849324255 0)
(1.09362986007185 0.2487937086147776 0)
(1.021108562136636 0.02172059472204615 -1.672671306084045e-20)
(1.062783116512276 0.05828920742088382 0)
(1.024457468064792 0.0240829199215747 -8.344031856778214e-21)
(1.261058164047687 -0.5480588140753452 7.985587180303759e-19)
(-0.09581430778320156 -0.2368125693387866 2.071769799816724e-19)
(1.299227517134904 0.1104915881707956 -6.104459212458165e-19)
(1.124149658029801 0.0003007074042823605 0)
(1.129553895656398 0.108053965849975 0)
(0.5196822262413043 0.07588220036338028 2.400946504836826e-19)
(1.023129061537716 -0.02049398552043244 9.61390039797051e-20)
(1.005830392203194 -0.02314700793427822 0)
(1.212567111218655 0.2710139790075577 -9.823601465254815e-20)
(1.253589691397327 0.1253763580569013 -1.488972325698975e-19)
(1.026486439164791 0.002942137226209411 1.596111445619698e-20)
(1.295931067189657 -0.08515312831462887 -4.944579907877925e-19)
(0.310296016519382 -0.02432557283476481 2.917425800324772e-19)
(0.8353611692537828 -0.1507820698911113 6.940689601423213e-19)
(1.047651413005218 0.06533709705537245 1.100934328817537e-19)
(1.039076335576652 0.0006706104315206692 1.37103084734329e-21)
(1.000697482851424 0.01940025619229077 2.836624423563825e-20)