/*--------------------------------*- C++ -*----------------------------------*\
| =========                 |                                                 |
| \\      /  F ield         | OpenFOAM: The Open Source CFD Toolbox           |
|  \\    /   O peration     | Version:  2412                                  |
|   \\  /    A nd           | Website:  www.openfoam.com                      |
|    \\/     M anipulation  |                                                 |
\*---------------------------------------------------------------------------*/
FoamFile
{
    version     2.0;
    format      ascii;
    arch        "LSB;label=32;scalar=64";
    class       surfaceScalarField;
    location    "5.4";
    object      phi;
}
// * * * * * * * * * * * * * * * * * * * * * * * * * * * * * * * * * * * * * //

dimensions      [0 3 -1 0 0 0 0];

oriented        oriented;

internalField   nonuniform List<scalar> 
1171
(
-0.944215
0.944215
0.789957
-1.05854
0.268586
-0.196489
-0.695138
0.891627
0.0557851
-0.0729423
-0.273531
0.346474
-0.789957
0.0494369
0.74052
0.861641
-0.173285
-0.688357
0.83226
-1.00612
0.173858
-0.353543
-0.0479155
0.401458
-0.0129261
0.608792
-0.595866
-0.507575
0.841336
-0.333761
-0.426485
1.00402
-0.171758
0.308748
0.0777599
-0.386508
1.00508
-0.00106054
0.360188
-0.0514395
1.00816
-0.00308617
0.608518
-0.805007
-0.767805
0.569159
0.198646
0.217807
-0.725382
0.562623
-0.913703
0.351081
-1.0848
0.661663
0.423133
-0.631539
0.618613
0.0320944
-0.253065
0.220971
-0.00870754
-0.646188
0.654896
0.463744
-0.511659
-0.863182
0.899211
-0.0360289
1.02207
-0.0139077
0.895096
-1.08607
0.190977
1.02193
0.000140408
-0.701226
-0.0665787
1.23987
-0.826782
-0.413089
0.15875
-0.0945348
-0.401335
0.49587
-0.273133
0.184041
0.0890923
-0.585767
-0.472775
0.987584
-0.0924878
0.0136821
0.813657
-0.827339
0.548044
0.691826
0.514257
0.0117647
0.451979
-0.793756
-0.096746
0.890502
0.512399
0.254826
-0.767225
-0.0246088
0.660505
-0.635896
-0.510482
-0.574314
-0.386244
-0.699829
0.0188061
0.252597
-0.271403
-0.948237
0.0102707
0.937966
0.372929
0.0285295
0.786028
0.075613
-0.585845
-0.0456949
0.0393119
-0.833068
0.0868744
0.882159
-0.969033
-0.399107
0.0120875
0.387019
-0.689092
-0.259145
-0.649604
0.736479
0.632642
0.208695
-0.584101
0.989804
-0.813766
-0.176038
-0.0726286
-0.0618304
0.134459
-0.45664
-0.0550194
-0.247514
0.880155
0.00976457
0.422387
-0.432151
-0.490874
1.00327
0.704368
-0.801114
0.394335
-0.0651561
-0.329179
0.937918
-0.937918
-0.824635
0.0450701
-0.318601
-0.740702
0.754384
-0.0400844
-0.146882
0.186967
0.839131
-0.0254747
0.999296
-0.74447
0.221444
-0.319095
0.0976509
0.881068
-0.0950397
-0.677201
-0.034366
0.711567
0.147852
-0.23288
0.0850287
0.77011
-0.943394
-0.443934
0.313662
0.130273
0.643488
-0.652196
0.972383
-0.404392
-0.567991
0.586139
-0.695278
0.0360782
0.6592
0.113843
0.647416
0.0667836
-0.714199
0.140766
-0.0956956
-0.512451
0.113344
0.0163214
-0.891904
0.875583
-0.568429
-0.743502
0.0422759
0.499202
-0.0472232
0.270881
-0.838056
0.567175
0.426139
0.573861
0.593588
-0.554276
-0.4041
0.00139777
0.402702
0.706672
0.231246
-0.668475
0.643866
0.0978673
0.819547
-0.0223112
-0.654889
-0.762162
0.778483
0.61305
0.0778046
0.370624
-0.448428
-0.171406
0.528675
0.13183
0.929666
-0.851281
-0.078385
0.687265
0.30254
-0.437834
0.668429
-0.590625
0.41184
0.150783
-0.00182699
-0.57265
-0.175645
0.748295
-0.160802
-0.777116
-0.609789
0.364575
0.245213
0.649807
-0.672119
0.306389
0.955261
0.044035
-0.762162
-0.0786546
0.00602603
0.704368
0.732258
-0.732258
0.849628
-0.841029
-0.00859876
-0.453166
0.879306
-0.189967
-0.322484
0.760152
-0.670136
-0.0900159
-0.762344
0.189694
0.117593
-0.703437
0.801114
-0.97252
-0.220938
0.208616
0.0123221
0.144957
-0.963887
0.818931
0.550738
-0.036481
-0.295352
0.607056
-0.311704
-0.764592
0.909549
-0.163959
0.666392
-0.772929
0.106536
0.959361
-0.551657
-0.407703
0.730431
-0.0857301
-0.0306436
0.034157
-0.00351339
-0.789197
-0.773881
0.0787429
-0.740702
0.572076
-0.559989
0.105528
0.642204
-0.747732
0.770761
0.173454
0.498367
0.501633
-0.116049
-0.620249
0.736297
0.941712
-0.0120457
-0.730431
0.778483
0.17946
-0.432525
-0.0255802
-0.00491951
0.0304997
0.678945
-0.456153
-0.222792
0.74052
0.0189995
-0.107489
0.539598
0.139347
-0.0175609
0.00172316
0.0158377
2.78355e-05
-0.0306714
0.158579
-0.223735
-0.896217
-0.00862606
-0.117734
-0.0623598
0.110628
0.755759
0.735805
-0.161944
0.727538
-0.622009
-0.167356
0.3888
0.720557
0.0199631
0.219707
-1.06074
-0.97252
0.325706
0.754384
-0.166682
0.0197998
-0.747133
0.942948
-0.195815
0.483316
-0.0962965
0.789853
0.304722
0.307973
0.0522147
-0.673432
0.673432
0.236726
0.653776
-0.0371985
0.459585
0.458671
0.0386493
-0.0642295
0.523841
0.0268967
-0.764592
0.56949
0.190661
0.0327143
0.00144267
-0.720557
0.187186
0.755762
-0.00958038
-0.780698
0.790279
0.749151
-0.809277
0.0601261
-0.770761
-0.0403251
0.055321
-0.0149959
0.0862967
-0.134532
-0.110597
0.245129
-0.0116925
-0.00586837
0.700619
-0.710199
0.816196
0.075431
-0.302549
-0.493487
0.796035
-0.000506388
0.000506388
0.210014
0.472074
0.616287
-1.08836
-0.186394
-0.537367
0.723761
-0.0177176
0.204684
0.383706
-0.235854
0.98864
-0.516566
0.68434
1.03158
-0.415293
0.193739
0.909549
0.73779
0.226429
0.672782
-0.777116
0.326568
-0.0422286
0.0210237
0.0212049
0.804886
-0.0060129
-0.798873
-0.734704
0.734845
0.546834
-0.734704
-0.73779
0.734845
-0.0249866
0.838137
-0.0219409
-0.706672
0.644065
0.0626075
0.52319
0.585398
-1.10859
0.469762
0.518878
0.561815
0.454134
-1.01595
0.513161
0.518419
0.644065
-0.509462
-0.447297
-0.592114
-0.511602
-0.130725
-0.00709012
0.00709012
0.512064
0.524035
-1.03564
0.703295
-0.332671
-0.905345
0.353687
-0.680028
0.420883
-0.000737357
-0.838383
0.83912
0.440453
-0.0315389
0.836425
-0.952153
-0.873627
0.0690397
0.804588
0.580868
-0.392746
-0.188122
0.670534
-0.763022
0.893472
-0.839974
-0.0534984
-0.0126339
-0.838647
-0.124998
0.730117
-0.60512
-0.872561
0.859927
-0.786862
0.747331
0.0395307
-0.863634
0.0373201
0.826314
0.00449219
-0.00499858
0.421663
0.0586809
-0.868964
0.810283
-0.742038
0.625989
0.931558
0.0701121
-1.00167
0.0579303
-0.0329123
0.435614
-0.359397
0.0403023
0.86515
-0.865887
-0.788203
-0.862002
0.023355
-0.0915732
-0.858756
0.0187824
0.680325
0.0472122
0.03208
0.548788
-0.810715
0.848035
0.567991
-0.869922
-0.802449
0.0356884
-0.0378713
0.836268
-0.798397
-0.0196361
-0.826074
0.573106
0.176045
-0.0255528
0.861977
0.928967
0.882871
-0.864089
0.0477462
-0.0477462
-0.112598
-0.433534
0.0407879
0.334284
-0.00857833
0.326972
0.842341
-5.05891e-05
-0.0116419
0.661972
0.338028
0.80309
-0.585767
-0.724507
-0.80441
-0.698816
0.698816
-0.205774
-0.112828
0.63375
-0.857956
0.224206
-0.462192
-0.565936
0.286919
-0.986748
-0.861956
0.808457
-0.828421
0.851776
0.66738
0.152576
-0.819956
-0.764879
-0.169538
0.814308
-0.64477
0.0196145
-0.00551556
0.00647784
-0.000962285
-0.24356
-0.189974
0.920669
0.712393
-0.340409
-0.371984
0.524271
0.721218
-0.484492
0.00999713
-0.28313
0.031438
0.717663
-0.749101
-0.319369
-0.0981717
0.115924
-0.920722
0.121849
-0.70538
0.111215
0.670468
-0.781683
-0.794277
0.0888975
0.664978
-0.76315
0.233401
-0.367934
-0.759243
-0.00563618
0.368824
0.691261
-0.0228317
0.00535218
-0.00535218
-0.00536696
0.00728045
-0.049509
-0.0255842
0.0255336
-0.712031
0.301764
0.710792
-0.746081
0.0352886
-0.592004
0.703219
0.747259
-0.082281
-0.653595
-0.140682
-1.05431
0.0205396
0.0272066
-0.680593
-0.778593
-0.791778
0.378689
-0.241349
0.330673
-0.0893244
-0.644405
-0.0361872
0.526419
0.717757
-0.0543315
-0.00802826
0.926358
0.475664
0.179138
-0.654802
-0.618259
-0.0261467
-0.0156252
0.0101097
0.652198
-0.827844
0.0062478
-0.0062478
-0.67203
0.656678
0.0153529
-0.586179
-0.121244
-0.674809
0.149945
0.586353
-0.0580427
-0.844347
-0.397411
0.377841
0.01957
0.656479
-0.621191
0.377489
0.233266
-0.610755
-0.126394
-0.655732
-0.125951
-0.196366
-0.247466
0.466508
-0.521528
0.171166
0.700116
-0.871282
0.586139
-0.242099
0.000750481
0.134394
-0.38186
0.595733
-0.0874878
-0.508245
-0.285468
0.305071
-0.0196034
0.525014
0.178281
0.0915276
-0.307848
0.166668
0.141179
-0.0206455
-0.0580091
-0.27947
-0.113748
0.22399
-0.110242
0.806189
-0.510423
-0.0757555
0.552035
0.246012
-0.586421
0.608926
-0.608926
-0.259481
-0.602091
-0.260045
-0.602091
-0.622981
-0.839661
0.169525
-0.469635
0.77929
0.0357435
0.137952
0.55331
0.118601
0.121507
0.00765205
-0.129159
-0.0917944
0.599392
-0.913627
0.420141
-0.0278002
0.103417
-0.0756168
-0.727051
-0.173888
-0.500425
0.679563
-0.518192
-0.080264
-0.301596
-0.337757
-0.0809144
0.0809144
0.0527423
0.00257868
0.142047
0.272664
-0.662966
0.162541
-0.00677651
0.476508
0.523492
0.717517
0.0521524
0.0144745
-0.0666269
-0.299602
-0.544745
-0.531294
0.114176
-0.118984
0.00480781
-0.100757
-0.409972
-0.125513
0.711866
-0.550577
-0.176473
-0.142094
0.0713636
0.143176
-0.658197
-0.198122
-0.201846
-0.0218889
-0.493925
0.429082
0.0648434
-0.068903
0.299087
-0.873401
-0.515554
0.620071
-0.810744
0.684349
0.426673
-0.0368475
0.0658407
-0.0289932
0.0820279
-0.639254
0.0277326
0.611521
-0.887282
0.618097
-0.730696
-0.10517
0.00840207
-0.00840207
-0.297851
0.424734
0.0108804
0.0248853
0.0272672
0.590218
0.668221
-0.746606
0.0199658
0.00883424
-0.00348206
0.00511033
-0.00511033
-0.46655
0.644831
0.0147695
-0.0147695
-0.772377
-0.00990472
0.0143969
-0.486704
0.649245
0.516332
-0.500979
0.0702149
-0.0702149
-0.0124272
-0.0518023
0.00283866
-0.916921
0.509218
-0.555875
-0.00499858
0.57027
0.0303922
-0.600662
-0.690224
0.139647
-0.317735
-0.0113325
0.329068
-0.0308534
-0.0234781
-0.594351
-0.0449028
0.0272066
0.00546241
0.000785388
-0.00270802
0.00270802
-0.430791
0.320549
-0.4504
0.138984
0.664105
-0.101493
0.00112567
-0.00112567
0.512586
-0.109409
0.00890846
0.0188045
0.000111755
0.604556
-0.713965
-0.702099
0.626344
-0.131141
0.334919
0.749757
-0.00536696
-0.111064
0.112506
-0.718091
0.535529
-0.393169
-0.119955
-0.0212456
-0.0259165
-0.0111098
0.485568
-0.0946412
-0.413603
0.658875
0.00197978
0.00828174
-0.00828174
-0.231219
-0.158127
-0.572541
0.608285
-0.147444
0.512415
-0.157648
0.766166
0.68829
0.00546241
-0.644922
0.580801
0.0764615
-0.100958
0.0244965
0.557441
0.0967244
-0.0131981
0.0727574
-0.0595592
0.0104901
-0.0104901
-0.825417
0.0224687
-0.0463511
0.0651557
-0.0873217
0.0873217
0.00883424
-0.00424129
0.692029
0.0637321
-0.316758
-0.0932137
-0.512776
-0.0656329
-0.0689959
0.0689959
-0.0790541
0.081718
-0.081718
0.0288931
-0.0288931
-0.354622
-0.0832116
0.24069
0.0729717
0.0351383
-0.769506
-0.0679474
0.160154
0.0193062
-0.260524
0.0812689
-0.0812689
-0.460214
-0.0613131
0.231059
-0.0100884
0.00275439
-0.623503
0.64849
0.0270801
-0.106134
0.0288192
-0.0806215
-0.0115031
-0.157557
0.16906
-0.151118
-0.216816
-0.0830239
0.0830239
0.0546784
-0.0546784
-0.0282721
-0.0943412
0.122613
0.0199241
-0.187817
-0.0190035
0.0155214
-0.241408
0.561958
-0.026236
0.407837
0.00814679
0.00769095
-0.0537399
0.0537399
-0.702963
0.321101
-0.127362
-0.211012
-0.021868
-0.020255
0.0230094
0.209158
0.0359709
-0.000487271
0.000599026
0.084339
0.0298369
0.0557242
0.10443
-0.0219644
0.0139362
0.00203394
0.0035692
0.00519849
0.0127655
-0.017964
0.000552493
0.0101266
0.027624
-0.027624
0.0525024
-0.0426497
0.0426497
-0.192729
0.0112601
0.0108595
-0.0770452
0.018403
0.0772944
-0.0772944
0.274002
-0.246059
0.0949418
-0.0684268
-0.177633
-0.015481
0.015481
0.404442
0.254758
-0.521978
-0.0804612
-0.0385225
0.543426
0.0487433
-0.0750928
-0.463812
0.0611994
-0.153047
0.171656
-0.0186089
-0.0474575
0.0474575
0.810956
-0.587039
-0.0153497
0.0159022
-0.00640727
-0.286716
-0.000449062
0.00429775
-0.0481476
-0.604447
0.574089
-0.646766
0.014028
0.178584
0.015256
0.0248468
-0.159455
-0.332356
0.255311
-0.0553265
0.0270544
0.169319
0.135752
0.261339
0.268399
-0.253143
0.00598388
-0.117397
-0.222345
0.0674695
-0.0117453
0.165883
-0.141036
-0.0681597
0.152499
-0.413499
0.127986
-0.109583
0.0614468
-0.47505
0.175954
0.1766
-0.244759
0.0096393
-0.177609
0.17716
0.00397445
0.148524
-0.0278802
0.0526371
0.459949
0.012143
0.0343606
-0.00925213
0.0392391
-0.240954
-0.202084
0.599178
0.167982
0.0630773
0.0814448
-0.0623695
0.0833387
-0.0588422
-0.0302505
0.168114
-0.154086
0.0232508
0.000171691
-0.10669
-0.0290852
0.037187
0.255471
-0.0371395
0.00271716
-0.313113
-0.012218
0.216902
0.14473
0.176371
0.0563
0.0963772
0.0752261
0.514992
-0.0159301
0.10358
0.0419958
0.0664027
-0.108399
-0.26722
-0.20103
0.0233977
-0.21958
0.289715
)
;

boundaryField
{
    FrontBack
    {
        type            empty;
    }
    Top
    {
        type            calculated;
        value           uniform 0;
    }
    In
    {
        type            calculated;
        value           uniform -1;
    }
    Bottom
    {
        type            calculated;
        value           uniform 0;
    }
    Out
    {
        type            calculated;
        value           nonuniform List<scalar> 10(1.03158 1.03265 1.03941 1.03204 1.03953 1.03002 1.0361 1.02813 0.868408 0.862136);
    }
    circle
    {
        type            calculated;
        value           uniform 0;
    }
}


// ************************************************************************* //
