/*--------------------------------*- C++ -*----------------------------------*\
| =========                 |                                                 |
| \\      /  F ield         | OpenFOAM: The Open Source CFD Toolbox           |
|  \\    /   O peration     | Version:  2412                                  |
|   \\  /    A nd           | Website:  www.openfoam.com                      |
|    \\/     M anipulation  |                                                 |
\*---------------------------------------------------------------------------*/
FoamFile
{
    version     2.0;
    format      ascii;
    arch        "LSB;label=32;scalar=64";
    class       volVectorField;
    location    "114.5";
    object      U;
}
// * * * * * * * * * * * * * * * * * * * * * * * * * * * * * * * * * * * * * //

dimensions      [0 1 -1 0 0 0 0];

internalField   nonuniform List<vector> 
808
(
(0.75627526065843 -0.01752485854597698 0)
(1.031387867283838 -0.01252699288297621 0)
(1.11383962050121 -0.0009459122499450702 -1.743386258297514e-20)
(1.08513100582831 0.01256986657927091 0)
(1.360528222014519 0.01307369283884667 -3.819752290386641e-19)
(1.038691909623729 -0.009428425839292388 -7.290558970661175e-20)
(1.014421378397436 -0.02044807122718424 -2.417248898394866e-20)
(1.078982119687489 -0.004828272286475233 8.99832497791971e-21)
(1.252388625947221 -0.02174138596041018 6.260444366417449e-20)
(1.085054453953615 0.008792727728572411 0)
(1.008659477910961 -0.01212573544175664 0)
(1.303437101582081 -0.05437658258794079 -3.463483340017052e-19)
(1.086321894077606 -0.001733256439763144 2.040462704570103e-20)
(0.6751254975127187 0.006379847703508389 0)
(1.27716232630413 -0.1229029782665584 0)
(1.081938789354843 -0.0002789811546548574 -3.856070314194571e-20)
(1.226878897630325 -0.1522040097370624 -9.765186373073219e-20)
(1.074406095702912 -0.0003677008767654134 3.195773915979322e-20)
(0.9892044430354472 0.005676552371097915 0)
(1.026963854213806 0.009332877343359797 0)
(1.036242449915967 -0.0158960027129194 0)
(0.9875874993902268 0.04543762758317949 0)
(1.051034015155105 -0.006198273798928375 5.795691298695025e-20)
(1.053786507389525 0.008291057185038066 0)
(0.9338707829491278 0.19989308969771 4.563359071346235e-19)
(1.161021670414488 -0.09018678320175227 0)
(1.184470573345821 -0.02005314717702635 1.540758145515268e-19)
(1.077164327540395 0.009640594096330961 5.236640555064597e-20)
(1.0839437549847 0.001850971996788305 5.119648205308689e-21)
(1.071900962376838 0.030970878795697 0)
(1.075398398431747 0.002603766179327235 -1.183445191479807e-20)
(1.033458967099567 0.006362422193916117 -1.877507430588123e-19)
(1.060022203086442 0.01455209390894265 -2.365282929538432e-20)
(1.08873606841734 0.005434484590658343 -2.936245961225169e-20)
(1.12122640463298 0.03640942067502544 0)
(0.7548531069136273 -0.1200409200882687 -4.55020282039914e-19)
(0.9545441513454843 -0.005741670942364666 0)
(1.068858672539491 0.02234933131669298 0)
(1.068820052493087 0.007208504657745219 0)
(1.073753639742515 0.008618848014364282 -2.817543624228214e-20)
(1.093137086593066 0.02270545692745204 1.078527103058598e-19)
(1.149975811317023 0.001850297225854928 2.114311767081889e-19)
(1.095592527515253 -0.002389000686126561 0)
(1.01533057077711 -0.009428299798963114 0)
(1.12714319835109 -0.09572054122973715 -1.650730816780475e-19)
(1.04405564982036 -0.01179424473352852 -8.358066611628327e-20)
(1.058311209161657 0.02668739345011049 -2.710486726368732e-20)
(1.229117051992101 -0.1123234893980504 -5.569144926404561e-20)
(1.067573027297195 0.0121226456723445 -4.086416719308838e-20)
(1.255961897459212 0.01479576094815226 0)
(0.997346458624139 -0.0186003999089235 2.171965762099563e-21)
(1.044675364577969 -0.002558226830252769 0)
(1.087302813997541 -0.002299790442599931 0)
(0.9979236715781878 0.007949053372362042 -1.915909081956877e-20)
(1.252586238114155 0.03249858894978676 -2.38926327175088e-19)
(1.063585054780548 0.01829015804641989 5.89498937834951e-20)
(0.9886181522759221 0.01094683381953768 0)
(1.014339341468264 -0.008989234908128547 2.558075254985634e-20)
(1.107090586312566 -0.001762977893314615 -1.155746020681635e-19)
(1.061563076985059 0.03132266867083339 0)
(-0.07242961240588357 -0.02617915274837182 7.647437555091142e-20)
(1.15365029219489 -0.05240059285147151 -1.848397466890093e-19)
(1.002140072294292 -0.006934376089382356 -2.810580913312639e-20)
(1.186842797684358 0.0642633100597207 -1.198856302545341e-19)
(0.9971362062421654 -0.01050368859853996 3.079390666461912e-20)
(1.083904817075133 -0.005487548695868634 0)
(1.246053377072369 0.09093914474420765 0)
(0.6960486002427499 0.00316174097638389 -7.442477681132036e-20)
(0.9887734847774613 -0.01593380735870078 -3.207576698749473e-20)
(1.456342473878268 -0.01961155508334774 4.399613480037338e-19)
(1.060649989384164 0.007577722322676126 -6.561920784906301e-20)
(1.364355087306983 0.09343080135903584 2.847145931743852e-19)
(1.054868520790869 0.006735427716058302 -1.907095089524128e-22)
(1.080955096405145 -0.01413285423527951 -3.08920388526588e-22)
(1.162559170192533 -0.2349813209728406 0)
(1.022614246385968 -0.01491382967178207 0)
(1.017843346070278 0.01797353880249718 -3.004709245458308e-20)
(1.389772009849873 0.3496427908992798 4.236466279115977e-19)
(1.097333189638327 -0.04220465596986688 9.538677431167075e-20)
(1.04691669420285 0.2112628438747967 2.402962250743156e-19)
(1.122509571142497 -0.06278062402724675 1.179976743742096e-19)
(0.922078287638513 0.005201820151123034 0)
(0.9754377820799339 0.01857515243580514 0)
(1.003970919525551 -0.04842545602630809 3.156630975622758e-21)
(1.010507600729332 -0.01373874051556201 7.713445618890732e-21)
(1.031212606087753 0.02634337136556545 1.355489991148248e-20)
(1.525110277520348 0.03408915645478613 3.216966366309376e-19)
(1.291814584828801 0.07003615459607032 5.63074832540026e-19)
(1.072689023753029 0.002968455185026459 -8.838190484876569e-20)
(1.194751888913923 -0.09910183511613427 0)
(1.033983877775372 0.001556701996142031 1.290758318227815e-19)
(1.1641912854955 0.01994810938375302 -3.124961287168843e-19)
(1.001530246081269 0.03255172730286977 0)
(0.999629752697059 0.001975984724524143 0)
(1.044149701517213 -0.0003002510534369596 7.988539194229979e-20)
(1.216336172848412 0.1017698032623795 4.005321375033765e-19)
(1.011155030635191 0.006943682428538994 0)
(1.087578291103797 -0.06967307155589388 -1.070004366276495e-19)
(1.150597516027297 0.03487320207274337 0)
(1.213591964107553 0.08854447157380158 -1.881067937266552e-19)
(1.108266945520042 -0.02879175759106936 -7.785314163440092e-20)
(1.027946175105493 0.01179397803423352 0)
(1.08541239344321 -0.004627285964629768 0)
(1.02014269531508 0.02618859169183696 7.857158617295815e-20)
(1.075450934608705 0.05536580612049289 -9.298871038742798e-21)
(1.103628496135476 -0.004348784054114365 6.427898737193343e-20)
(1.103749966869144 -0.0939297164514009 1.52977798109785e-19)
(0.9613581717130772 -0.002237418742953719 0)
(1.066345462445346 0.03144708494590028 3.701131530894702e-20)
(1.167354579693991 -0.07667706898983212 2.258921773815085e-19)
(1.053837088311806 0.04643658183876592 -2.854009980310621e-20)
(1.023057362325238 0.06817970382065375 3.641347282494363e-20)
(1.090485680835202 0.02622444984040185 0)
(1.014479284195327 0.01373924857124638 0)
(1.028964977113496 0.00938232108705471 7.859499339270863e-20)
(0.94855950860111 -0.03201706487748853 0)
(1.053244158576881 -0.005473224520622397 -7.432532270663023e-21)
(1.338923944644391 0.0560224897610669 -1.545267622129604e-19)
(1.079650096827332 -0.01328375212696617 2.639193675884677e-20)
(0.7441884707903195 -0.001769733467181164 0)
(0.5562994343695695 0.1697097948427274 -1.048290126184579e-19)
(0.7058905121776181 -0.002485319560494763 0)
(0.6990266330562905 0.0146654853795201 0)
(1.077831116583214 0.003495972258333387 -6.464535831811732e-22)
(0.9906444280140783 0.01443387194078803 0)
(1.281203836241638 0.1221586407150039 2.551536338857083e-19)
(1.012211250682914 -0.02796805682535439 -7.392654425351464e-21)
(1.040033063593712 0.01697211484520723 1.27118221862895e-21)
(1.058440651207245 -0.01240773049851858 0)
(1.126380756750829 -0.00923162124479578 -5.123515140255535e-20)
(1.263680463737648 0.1223807320109585 -2.182890635669149e-19)
(1.08882875273718 -0.01087398181737253 -8.562410754938141e-20)
(1.071125029465145 0.02530472138877075 -1.069007522846524e-19)
(1.041119828137885 0.04678715116167066 7.423081420098294e-20)
(1.022402757803357 -0.003543336427364048 -3.468672450446033e-20)
(1.06127784085458 0.02370957181746763 5.72483366021413e-21)
(1.138903132427526 0.001490481512886417 1.047412860449606e-20)
(1.040477466802946 -0.01261721038862917 -4.690341722990875e-22)
(1.087609369498478 0.03479892682684241 0)
(1.028716736381815 0.01349156326256336 0)
(0.7912065811861656 -0.07909584501838253 -1.841096792738445e-19)
(1.030309744891992 -0.002097660051341696 -6.547997224137463e-20)
(1.136514118288223 0.002454525378528082 -1.278225304457432e-20)
(0.7035283423250913 0.006544462551337285 7.155839041413365e-20)
(1.176063562222244 0.01865527834434086 -1.970067176525379e-19)
(1.13167960946717 -0.002078570063883256 5.63773495814055e-21)
(1.129053195049354 -0.01010234627901085 3.36772939804276e-20)
(1.000935112745341 -0.002989587659478334 -6.721799418058109e-20)
(1.09614156458383 -0.05716321007865977 0)
(0.9886531685076712 0.001667007770046632 0)
(1.057932459292503 0.00702889381069459 0)
(1.006282888675196 0.1898318920466433 -2.358064182205455e-19)
(0.7794611769258244 0.01243477191562983 0)
(0.8570573203120627 0.1036436982189957 -8.194111644794378e-20)
(0.1049367593792834 0.03169701114993378 -3.013931267834095e-19)
(1.17257361877762 -0.03264735839107713 -2.289495111173661e-20)
(0.6712349855424381 -0.007369885263258505 2.450340821275995e-20)
(1.162346631233244 -0.1047781009248141 6.995407799974583e-20)
(1.129074849132811 0.000959154083845555 -6.036411388755003e-21)
(1.154069987617159 -0.05102504320981226 2.224822057339111e-20)
(0.07205953592969433 -0.1906109268623859 0)
(0.2569487118830851 0.06336150496173003 0)
(1.257177649488558 0.1035120376807622 1.84391392921077e-19)
(1.021457034296411 0.01988131193476298 0)
(0.7375696514080036 -0.00629688645146859 0)
(1.074801178432609 -0.0115723253178634 2.72599206850066e-20)
(0.9751467546969553 0.002882195421781421 0)
(1.290706623279628 0.1179209643064101 -1.438272296619138e-19)
(1.057362281788164 0.0110261906286175 0)
(0.992360288154107 -0.007861437759201288 0)
(1.065322081788055 0.008095724733876503 0)
(1.006259843931859 0.02091372993420124 2.186226522159144e-20)
(0.9258762661611205 0.003982560910735095 1.286136810280477e-20)
(1.175030473869532 -0.1989720676263139 0)
(1.004980867726707 -0.005222799608433951 7.991347537106826e-20)
(1.059237322366774 0.006172532911580606 0)
(0.774536985635207 -0.003343666419991497 0)
(1.216438144434318 0.02555248116340736 1.61755284605127e-20)
(0.7051159846925827 0.001351587647500569 0)
(1.431133172256749 0.0845701110924001 -5.120079138836039e-20)
(0.9939269824070859 -0.005444401862147893 1.658799652063642e-20)
(1.275560662762939 -0.004459634212724543 -3.00358953891191e-19)
(1.059997773049954 0.008901772468522175 1.329900526496113e-19)
(1.000900013932786 -0.01355469480244843 0)
(1.211441488412868 -0.1519892735259535 2.048186091382185e-19)
(0.7331651814110577 0.01378737021573207 0)
(1.098033704468708 -0.004982649568444674 0)
(1.155821262170039 0.06434527976970351 1.894553719392113e-20)
(1.006282938051398 -0.006953352425899641 -3.04184975526335e-20)
(1.122803087077192 0.04978440614430418 -1.712029116662337e-19)
(0.1554954465183718 -0.09201390232482511 0)
(1.074068450957362 0.03764630729807807 0)
(0.6615464617835536 -0.002872861340663278 -5.199185930000977e-22)
(1.012066656997922 -0.01972507854519432 9.046539141910835e-20)
(1.061750305781116 0.0008112548618256549 0)
(1.085968688922183 -0.1409637322259175 3.79934865581106e-19)
(1.002506701977441 -0.006136477100760276 -3.319758047922345e-21)
(1.002435663180729 -0.003869692505010765 1.289508303742043e-21)
(1.094038708792036 -0.00917296840305634 0)
(1.020806028204966 0.02014625514407511 -6.639213844038085e-20)
(1.106802327286908 -0.001657090282299393 6.342244752354926e-22)
(1.074027683108989 -0.01061372091879735 6.601521210340968e-20)
(1.085633973441356 0.02222854295826899 0)
(1.323965020440796 0.1570804716498545 0)
(1.002094805364321 0.0005697882517835603 4.405947014961847e-20)
(1.321740651924324 -0.1340063119586894 1.60024473519805e-19)
(0.007674823951008686 -0.1376803894027957 -2.332537038152995e-19)
(1.071148873148487 -0.005439074688791855 0)
(1.112817860629588 -0.001623847430569211 1.18907834307298e-20)
(0.7268660772668242 0.01783145932178776 0)
(1.058580894143719 0.00751388944346522 0)
(0.8617966314500667 0.1620495864773921 4.625217272125629e-19)
(1.281937392003234 0.1178227644192801 1.837925552362622e-19)
(0.6541178029754002 -0.003113267923298412 -6.479727358656034e-20)
(1.040801091294453 0.00164628065214067 -2.454499342482056e-21)
(1.054932074750506 -0.0002192944610948888 6.468600144048375e-20)
(1.359716895347375 0.1176976536219383 6.572239498789167e-19)
(1.338142471521458 0.252514228333557 0)
(1.057089803070404 0.009426585139817095 0)
(0.9962275121715924 -0.004752726251915656 1.383771612149562e-20)
(0.9942881532172143 -0.004154327290718142 1.33316805914382e-21)
(1.386148512784948 0.1996275320775368 4.328928745795809e-19)
(0.6817831143646549 0.0005987178627295034 9.930303952177526e-20)
(1.005717218421461 -0.002115403052827253 -6.004790336661506e-20)
(1.098025612670235 0.01313406743938879 2.553780269649151e-20)
(0.669453706183476 0.004970245032350298 0)
(1.066081441404911 -0.01203449741995186 0)
(0.9961134825373475 0.1260029158086707 -1.351383519846641e-19)
(1.08335189225879 0.005696029294134997 -2.55737960235824e-20)
(0.9818845361138745 3.401234917805966e-05 3.307671236699763e-20)
(0.9912113537609752 0.005988213146852493 0)
(0.6381546750872797 -0.001141746869458352 0)
(0.9767965069112036 -0.001306182483261931 0)
(0.6419583507131713 -0.001431830383248955 2.680582069833893e-21)
(1.086875039459624 -0.05680071530039878 1.217952641678495e-19)
(1.109150759153181 -0.004814968336232978 1.175518699799303e-21)
(0.9580672314283035 -0.0008783627418961995 3.888481698804832e-20)
(1.016746758994363 0.01074754008139125 1.706964474623763e-20)
(1.064082516549841 0.01059753411963025 -2.216012461226848e-21)
(0.6348270116309558 0.008852503356818213 -3.623460663425176e-20)
(1.003926038371733 0.01262776236869047 -6.316598636023081e-22)
(1.037153106719717 0.01129508113714992 5.105567005990713e-21)
(0.9866927862762362 -0.003486767044888137 0)
(0.6100565861842772 -0.0004478673585743148 0)
(1.068987437564126 0.02263069897006306 0)
(1.015694540776459 -0.0163585663415947 1.044837655108895e-20)
(1.02196005157504 -0.002581720732583189 0)
(0.9932011659124307 0.01449938615219571 -9.521400085895362e-21)
(1.010622259082748 0.006531926000390503 0)
(1.133232973223347 -0.001812646178407513 -1.263329943079287e-20)
(0.03071912316097678 -0.138330782899718 -4.272308514345994e-20)
(1.03484202796943 -0.01641822165539317 -6.900059367138239e-22)
(1.045397301132156 0.009311911892478705 0)
(1.087447900512121 0.06843137920554314 8.406814443602129e-20)
(0.9686176536608708 -0.0007550106945017681 3.114737946839066e-20)
(1.020254129644301 0.01703781124019701 -2.251276657341991e-20)
(1.007086069610347 -0.0003259452655557741 2.405211512329594e-20)
(1.039741259903513 -0.006211335500363256 0)
(0.6409813272748778 -0.004066636306421499 0)
(1.026025710562867 0.02447593307500527 -7.945073917479191e-20)
(1.083034734553076 0.004596221142728761 5.040169595650938e-20)
(1.01157594339599 0.005331636148286594 0)
(0.981778980002292 -0.0008991215648783547 -1.912011478447175e-21)
(0.860883282108401 0.01620270789646903 -1.368524246982141e-20)
(1.013943226147425 0.002982959584175785 -9.70147493777363e-21)
(1.024798189117663 -0.0009122101363521374 1.808517531289138e-20)
(0.9791420091315084 -0.001414304574551978 0)
(1.007505128380561 0.009093175816669959 3.235928963482651e-20)
(1.108446206719537 -0.004163052180237562 0)
(0.9343552345070978 0.008761507423715601 -3.370817542302656e-20)
(0.9554316288118985 0.00431051333197283 0)
(0.9020890332283544 0.2036246031086133 4.996888032373451e-20)
(1.011226578465667 0.0676225208757804 0)
(0.9906724294061412 0.004200896048058318 -2.308258596427211e-20)
(1.054534229225937 -0.04917009666130526 -2.729948077787453e-20)
(0.9933386567561784 -0.001073707061150826 3.305823644089238e-20)
(1.007486777941102 0.003333872868324519 0)
(0.9806434268499368 -0.0002253084901135413 -3.072220289960918e-20)
(1.17793663383633 0.09610332587498945 -3.32500787453335e-19)
(1.067614982653319 -0.2631476291080616 0)
(0.9950018365843903 0.001328540802761663 -2.231638610299662e-20)
(0.978153624910123 0.007778131372132745 4.768319667016271e-21)
(0.9578014739889764 -0.002342246898675657 1.058173828343051e-21)
(0.746038050995113 -0.001090665853177851 0)
(1.113917472645101 -0.07014153100290128 0)
(1.006711565730665 -0.0007883743266465236 -2.183243882663971e-20)
(0.9024380958511885 0.0002962821029823583 -1.091114505130358e-20)
(0.8430202064094017 0.005837155233059161 5.302430363782453e-21)
(1.010328600080408 0.0004440699741261021 0)
(0.9591096742900567 0.008759508902201537 1.581855068059712e-20)
(1.005769837185642 -0.0001938676629040186 -2.250128121261124e-20)
(1.025756216575862 0.001054617277601308 -2.488054919214283e-20)
(1.112141718092206 -0.005981577116515769 -4.8926300948561e-21)
(1.114235165117973 -0.005615813957720129 0)
(1.009652857226049 0.005564270019739138 0)
(1.025320777565559 -0.001913447275571285 0)
(0.949518654468378 0.01068692349181384 -2.082568540394548e-20)
(1.017880280618918 0.01316297772975572 5.614788408263705e-20)
(1.084883768304267 0.003522689351648055 -2.330837751635712e-20)
(1.036963337332774 0.004450977127393658 0)
(1.1083654340939 -0.004357204633909905 1.812383379463249e-21)
(0.9953622984120761 0.0009162663344141279 -2.231097527970182e-20)
(0.9794764907505371 0.0006055481099021567 0)
(1.010524872979937 0.001895019791057209 4.702067277947918e-20)
(1.361869302900278 -0.3135277109550123 -1.11922942851857e-18)
(1.120813188684338 -0.04576703486048787 -1.11118752434008e-19)
(0.9759370821543006 0.01237813054565572 4.698188865402127e-20)
(0.7767559371433541 0.02075134564222259 -3.641245748866936e-20)
(1.222095191048031 0.04842843986599973 0)
(1.213547562293361 -0.1342880161834706 -1.482627178680595e-19)
(1.085246851678115 -0.000490038904386831 0)
(1.009432826397596 0.0008667939692963244 2.255896776512409e-20)
(-0.1912047231357997 -0.07521326673937599 0)
(0.99397160620826 -0.004676839510425913 0)
(1.012326905624369 -0.023052339212067 3.905244429301411e-20)
(0.7062338583349428 -0.01941203754549903 0)
(1.096799277546164 -0.01502832104297437 2.370009314886049e-21)
(1.039154181405744 0.004061714026328744 1.406770823886012e-20)
(0.6331646807608631 0.004172813589372481 0)
(1.44471185005046 -0.1237104154000848 0)
(0.986073912095908 0.00221689017181084 -1.070570932636534e-20)
(1.06960045479191 -0.01500556334780481 0)
(1.037989427476137 0.0005843393266521329 2.071138194669928e-20)
(1.087304469714735 -0.004020832772560314 0)
(1.010425440922149 -0.005485170994496817 -1.262394435906882e-21)
(1.006212183479141 0.003266103298825338 0)
(1.010759138692745 -0.001727263519383956 -7.278690817922951e-22)
(1.003707609662921 -0.02002964368184641 0)
(1.034816130805292 -0.003714623799401495 1.859692773449363e-20)
(-0.2114102403553856 0.05173593539154617 2.805123153679706e-19)
(0.8176371076165017 0.03860721209636075 6.011265780621877e-20)
(1.005084714417072 0.002365698283288578 0)
(1.122349183003275 0.01794128989146492 -1.296624987275227e-20)
(1.10881322622638 0.00847147283991033 9.723784888085609e-21)
(1.053879024172803 -0.01291158457144938 -1.324267597980696e-19)
(0.9987735658470924 0.01040005095015615 -2.994205188676122e-22)
(1.085184792307095 -0.004208473007356328 0)
(1.187537795116071 0.04924102252414913 0)
(0.8350186631271848 -0.07363029873516459 4.607983749428096e-19)
(1.094548972047501 -0.01229605292744742 0)
(1.033146384466765 0.008054349314375419 -7.696187281065085e-21)
(1.042732214459261 0.005398733683383642 5.709462134080249e-21)
(1.050826717692385 -0.05917456951144157 -7.551822351185646e-21)
(1.139901839530672 -0.002637422528578079 1.721020091176859e-19)
(1.077094719791707 0.002394492248516013 0)
(0.9948448508007181 0.001878938909418268 0)
(0.9981929132730221 -0.02484322035062049 -2.372598946701294e-21)
(0.9914292447909768 0.003248413544726021 0)
(1.029247916163442 -0.03668898305271805 6.503547036120731e-20)
(1.29345547970862 -0.09905253312649058 0)
(1.043939548249732 -0.006891045996435557 -2.286777113006237e-21)
(0.986179181699005 0.01680284927082848 -9.059250386933859e-20)
(1.035079279466897 0.04282475666803651 -2.331589156684856e-21)
(-0.08731154015186439 0.1963658809922995 -1.717928770006389e-19)
(-0.06590812333063094 -0.2792899252078022 -1.335981199867337e-19)
(0.8611554975013969 0.110589592069473 0)
(0.2765518354954018 -0.01129376989631107 -2.888306585711419e-19)
(1.012341206690494 -0.01590938057592924 -1.054137017438055e-20)
(1.064021406627319 0.002662753050191799 -2.069769509732346e-20)
(0.9932285456181621 -0.02137460563517509 3.009856022360855e-20)
(1.026827186088038 -0.0274728311663671 2.619572490773636e-21)
(1.008851984059593 -0.03027244894581153 -6.697713195314379e-20)
(0.9887279145270997 0.004919629710524088 -3.492490803123034e-20)
(0.9939238622795489 0.004503539412720086 0)
(1.024346625232429 -0.001902490283977223 -3.532488748014863e-21)
(1.929572528154085 -0.1560589501767159 1.065231697706893e-18)
(1.052229745228453 -0.01848923273446306 0)
(0.9966813182754632 0.007279777203320256 1.487383809806952e-20)
(1.003298210707997 -0.0004614265306836107 4.019143700164647e-20)
(1.177341400078534 0.1500575891236964 0)
(1.008338894716639 -0.02218699521542392 -2.272733332169628e-22)
(0.9533408429353437 0.00158229095355255 0)
(1.037850445019237 0.04170956966785808 0)
(1.292949834844053 0.1505167652761651 2.156644281788869e-19)
(1.077291470128069 -0.006395864092448297 2.316767135945024e-20)
(1.016757984051338 0.03197517015984085 4.519870788164761e-20)
(1.077397214932841 -0.0002251755685469928 -2.232187836020464e-20)
(1.058804521506642 -0.02190227013283478 4.857322024029789e-22)
(-0.3874044302425086 -0.03653194695556777 0)
(0.9986823342443081 0.01266285117397058 0)
(0.1261912221990183 0.05633835639197566 -9.219320403793316e-20)
(1.005464295508918 0.0215765268137044 -4.00901955241801e-20)
(1.003676614773879 -0.01666686027141578 0)
(1.000437249620467 0.005498684695938411 -4.93079834890099e-21)
(1.081799924097688 -0.04216102593304488 0)
(0.9949986912262755 -0.01921935277858725 -8.022314439723977e-21)
(1.093819057155008 -0.04567662670128245 0)
(1.440529063865588 0.1706523518961311 0)
(1.054448075180945 -0.01168940308401244 0)
(0.9919511920974634 -0.02373851308297692 -4.047759080135375e-20)
(0.9827985019753837 -0.01966177121271057 -2.876252225816523e-21)
(1.019653590796924 -0.02039846546978431 -2.076585559099255e-20)
(0.9970615597731635 0.01725552901550853 -5.415370465822677e-20)
(0.9956469307081319 0.009319218188598155 -1.449559202782976e-20)
(0.994900577468095 -0.02643939278923021 0)
(1.001768622590214 0.02526321302667595 1.888544799220389e-20)
(1.035542512257045 -0.02411952271793024 0)
(1.110436951369108 -0.0364936189386678 2.525739844764733e-19)
(0.9951083721794776 0.01689104921695999 4.488293600709602e-20)
(0.615078360222886 -0.008685077702590251 0)
(1.155078187843124 0.1473548992794475 -6.070697083295035e-22)
(0.8246567429709905 -0.08951176229189786 0)
(1.139241679997854 0.07257037902012384 -2.796661008337909e-19)
(1.313051817399169 -0.387592332384822 1.274347142936409e-19)
(1.075012260257502 0.06630733928442062 -1.304607725523619e-20)
(1.010759210338304 -0.02936886279164546 0)
(0.9546986978862686 -0.2137445366698449 0)
(0.5399235107304817 0.1690341500781251 0)
(1.012913134830807 0.01393951086592081 1.005052334489819e-21)
(0.7141592777529855 -0.01098851370251144 0)
(0.998095708961052 0.01688214036446848 3.451621653312587e-20)
(1.023277026018016 0.0002118100849381815 -2.660952725097724e-20)
(1.079134175119426 -0.008006040425819969 2.655881014011585e-21)
(1.04919763944461 -0.01509492401635814 2.712990352096123e-20)
(1.042990709274417 0.01096992154310931 0)
(1.053033697091603 0.02498206178033138 -9.482520249872866e-21)
(1.051622657443522 0.03530248170371128 -1.770033441313013e-20)
(0.9834579022203829 -0.02173232687155738 0)
(0.6248970361781575 0.00513419169722251 9.178128010993963e-20)
(0.8941751457059176 -0.005932458179986176 -8.853351124037213e-20)
(0.9093475832857061 0.005249510433608894 1.446434096252281e-20)
(0.6296322243418505 -0.006413439505507129 1.410742871512756e-20)
(0.9796867504372659 -0.0004741263145737656 2.54168400088851e-20)
(1.004421084054296 -0.017621825165282 -3.305585752114949e-20)
(0.9719326889964004 -0.014838495661085 -2.924178837896526e-20)
(1.085601171897368 0.001472169434047764 0)
(1.018646505028458 0.004984755934373389 1.083807068411376e-20)
(1.133308510040293 0.04808945100093474 1.348469150729265e-19)
(1.033183070753588 0.04296932842999389 0)
(1.022273906807319 0.002637296064873871 0)
(1.580100428640185 -0.1676129814117512 4.355090590871756e-19)
(1.043980715406147 -0.02742319643897741 0)
(1.022668443779722 0.008877929807166458 -3.577823991854686e-20)
(1.086236989369137 -0.00142702156089412 0)
(0.4895222026845364 -0.007446180457587702 0)
(-0.03607424401990944 0.001864855296812248 0)
(0.9903443081392738 -0.02342795733218979 1.248988350724013e-20)
(1.299253484882246 -0.09645302412643418 3.665193396356498e-19)
(1.032152418602611 0.03907404632298144 0)
(1.022658773146184 0.003448968038195461 -2.188013153076264e-20)
(0.9344124973212057 -0.1653636797934699 -4.271881582860169e-21)
(1.253798093565581 0.07295910465337133 0)
(0.5992210353960915 0.7325831661014286 0)
(1.304664583768983 0.1428147220142166 1.052619743597109e-19)
(1.672797821343071 -0.02623001625472998 0)
(1.072060057373898 0.1302598168260264 0)
(0.7324909688238572 0.003623119001576913 3.365102972408635e-21)
(1.048938848853521 0.04945369650364226 0)
(0.7231207566718043 0.1014443018968598 1.320002341469714e-19)
(0.9968266057007145 -0.01625231193610657 3.584937885749931e-19)
(1.036104811387956 -0.03814452603514441 2.639304199681508e-20)
(-0.3692531842569474 -0.04793081675136426 0)
(1.071747651374777 -0.01612019942043794 0)
(1.091368085939274 -0.01696368442468612 0)
(0.6470823204163834 -0.5002761186358805 -2.50848749527292e-19)
(0.9918187792993123 7.288049260604621e-05 0)
(1.091843587071442 -0.02222473495025019 6.595369514393823e-22)
(1.189320345250915 0.1208787972235184 -2.047684151232592e-19)
(1.095786268774567 -0.03789807232339875 0)
(1.005093453892327 -0.02080680145866834 0)
(0.7997441221036171 -0.1980730280042791 -1.725663665535521e-19)
(0.8981982481688791 -0.144034689396847 1.484302868363995e-19)
(1.031964706531663 0.01031498958110397 -2.074839339160095e-20)
(1.023133746395325 -0.009251742534806161 -4.283569260141448e-20)
(0.8670052901224539 -0.002026641177368277 -2.44555061493732e-22)
(1.501891734220589 -0.1941411278515577 0)
(1.303493554508594 0.1106306819983588 3.095885180883624e-20)
(1.242599741966864 -0.07987209470732022 -3.123205872295527e-21)
(1.09591308127348 -0.01882079235247506 -3.972017480764909e-20)
(1.042226252482448 -0.01824662088956937 2.960111859737258e-20)
(1.092799432874718 -0.03918969554648749 9.544204412260295e-20)
(1.032750991718875 0.01998823688730973 0)
(1.049639298752772 -0.03177541269766479 0)
(1.11585180783375 -0.009046609110146547 0)
(1.097239979790349 -0.02960824139761467 0)
(0.9980869248733005 0.01070792251175705 0)
(1.154168144576597 0.07622118167962176 9.328306920546933e-20)
(1.345501729126538 -0.1596370131307761 0)
(1.043037433884312 -0.02382490075344959 -2.321367454545218e-22)
(1.051599725225244 0.05514648691857221 0)
(1.009931793046136 0.01428431747925392 -3.820971662053959e-20)
(1.033485183008816 -0.008120461104497625 9.360457904544651e-21)
(1.088997991203022 0.01331161561584258 -3.168007628580049e-20)
(1.084163458128203 -0.02961526590575219 0)
(1.075944555263987 -0.005374753209618808 0)
(1.100817373243357 0.09269086415046041 -1.399978976903587e-18)
(0.9348410849012244 -0.1479860523921338 -7.111074957667745e-20)
(1.180352611677997 0.109302619577886 1.122552841553774e-19)
(-0.4551903390372269 -0.0192037333478423 -2.932236562741214e-19)
(1.019229158322075 0.02964561681578377 -8.573359944251133e-20)
(1.007035955360852 -0.005386926623088849 0)
(-0.2581638687635266 0.01571688956114259 3.574849877851642e-19)
(-0.04474687888442693 0.3402651262976525 7.685954519653384e-21)
(0.9952164468334369 -0.006330513317217065 8.943663267701198e-20)
(0.1852755009393187 -0.04204264360689347 1.336910010989379e-19)
(1.095128468835203 0.09063893828725358 1.483461763544391e-20)
(0.09336188126774464 -0.1067535394805386 -5.35427282417747e-20)
(1.108015058446305 0.003165302453503248 0)
(1.093849099451032 0.2503834957046683 0)
(1.021389312150061 0.02195236761887368 -1.679220365254187e-20)
(1.067305845730462 0.06118857711751379 0)
(1.024044387298329 0.02566353433787926 -8.753450370177161e-21)
(1.259981110152768 -0.5474386428206623 7.979035814224875e-19)
(-0.08403145745582402 -0.2212592962972837 2.094128050142892e-19)
(1.29670975181148 0.1111364985811377 -6.118528555330757e-19)
(1.124951975871585 0.0007869817788682554 0)
(1.134552588533158 0.104974680349759 0)
(0.5207413794056829 0.07749260101650692 2.440632464923528e-19)
(1.022891038903769 -0.02088632308343453 9.583297124554406e-20)
(1.005350630317032 -0.02340998182300686 0)
(1.213398918918318 0.271572710455838 -9.837624637556041e-20)
(1.249980808387115 0.1282236157809967 -1.504361549407103e-19)
(1.026489324871079 0.002698958153213122 1.590600868983497e-20)
(1.295423980017355 -0.08492751475127158 -4.9511360274708e-19)
(0.3090408090152781 -0.02286101763504974 2.832491491866751e-19)
(0.8353888195635185 -0.1503950135119929 6.901871694770113e-19)
(1.055890888285569 0.07132934212676001 1.089527399665745e-19)
(1.040425520342162 -0.004425238500242627 1.266836834835698e-21)