/*--------------------------------*- C++ -*----------------------------------*\
| =========                 |                                                 |
| \\      /  F ield         | OpenFOAM: The Open Source CFD Toolbox           |
|  \\    /   O peration     | Version:  2412                                  |
|   \\  /    A nd           | Website:  www.openfoam.com                      |
|    \\/     M anipulation  |                                                 |
\*---------------------------------------------------------------------------*/
FoamFile
{
    version     2.0;
    format      ascii;
    arch        "LSB;label=32;scalar=64";
    class       volVectorField;
    location    "0.1";
    object      cellDisplacement;
}
// * * * * * * * * * * * * * * * * * * * * * * * * * * * * * * * * * * * * * //

dimensions      [0 1 0 0 0 0 0];

internalField   nonuniform List<vector> 
256
(
(0.0035322 0.000273374 0)
(0.00341265 0.000799731 0)
(0.00309921 0.00120602 0)
(0.00265642 0.00145247 0)
(0.00216856 0.00152516 0)
(0.00160245 0.00136539 0)
(0.00112461 0.00110751 0)
(0.000600201 0.000651771 0)
(0.0104139 0.000792743 0)
(0.0100642 0.00227236 0)
(0.0092232 0.00344644 0)
(0.0080516 0.00421894 0)
(0.00667327 0.00448623 0)
(0.0052911 0.00432484 0)
(0.00384818 0.00364838 0)
(0.00247646 0.00260928 0)
(0.0170098 0.00128722 0)
(0.0164262 0.00360302 0)
(0.0151482 0.00549138 0)
(0.0133702 0.00678237 0)
(0.0113286 0.00738834 0)
(0.00912178 0.00723427 0)
(0.00702755 0.00650328 0)
(0.00490805 0.00508729 0)
(0.0232466 0.0017492 0)
(0.0224351 0.00480344 0)
(0.0208066 0.00734723 0)
(0.018559 0.00916375 0)
(0.0159276 0.0101068 0)
(0.0132233 0.0102362 0)
(0.0104685 0.00948633 0)
(0.00778538 0.00795971 0)
(0.029209 0.00219275 0)
(0.0282209 0.00591446 0)
(0.0263008 0.00907114 0)
(0.0236644 0.0113999 0)
(0.0206343 0.0127924 0)
(0.0173802 0.0131584 0)
(0.0142192 0.0126555 0)
(0.0110618 0.0111883 0)
(0.0348795 0.00261364 0)
(0.0337358 0.00694363 0)
(0.0315847 0.0106677 0)
(0.0286701 0.0135188 0)
(0.0252581 0.0153253 0)
(0.02172 0.016133 0)
(0.0181217 0.0158718 0)
(0.0146129 0.0146336 0)
(0.0403009 0.00302435 0)
(0.0390509 0.00791158 0)
(0.0367272 0.0121747 0)
(0.0335806 0.0155242 0)
(0.0299555 0.0178376 0)
(0.0260567 0.0190156 0)
(0.022218 0.0191841 0)
(0.0184294 0.0183003 0)
(0.0454899 0.0034259 0)
(0.0441422 0.00882234 0)
(0.0416995 0.0135924 0)
(0.0384112 0.0174512 0)
(0.0345585 0.0202225 0)
(0.0305164 0.0219295 0)
(0.0264013 0.0225068 0)
(0.022388 0.0220608 0)
(0.0504472 0.00382343 0)
(0.0490547 0.00968735 0)
(0.0465369 0.0149389 0)
(0.0431412 0.0192836 0)
(0.0392113 0.0225945 0)
(0.0349515 0.0247596 0)
(0.0306875 0.025874 0)
(0.0265225 0.0259584 0)
(0.0552079 0.00421434 0)
(0.0537784 0.0105123 0)
(0.0512286 0.0162147 0)
(0.0478112 0.0210581 0)
(0.0437736 0.0248563 0)
(0.0394518 0.0276089 0)
(0.035076 0.0292584 0)
(0.0307379 0.0299367 0)
(0.0597508 0.00461629 0)
(0.0583257 0.0112916 0)
(0.0557953 0.0174267 0)
(0.052368 0.0227404 0)
(0.0483538 0.0270949 0)
(0.0440061 0.0303965 0)
(0.0395243 0.0327055 0)
(0.035118 0.0340191 0)
(0.0641 0.00501037 0)
(0.062696 0.012038 0)
(0.0602072 0.0185708 0)
(0.0568853 0.0243509 0)
(0.0529292 0.0292377 0)
(0.0485927 0.0331861 0)
(0.0441059 0.0361544 0)
(0.0395481 0.0382301 0)
(0.0681996 0.00543874 0)
(0.0668456 0.0127379 0)
(0.0644968 0.0196348 0)
(0.0613125 0.0258456 0)
(0.0574882 0.0313084 0)
(0.0532361 0.0359014 0)
(0.0486994 0.03964 0)
(0.0440346 0.0425093 0)
(0.0720103 0.00584447 0)
(0.0707524 0.0134039 0)
(0.0685835 0.0205559 0)
(0.0655905 0.0272312 0)
(0.0619681 0.0332152 0)
(0.0577818 0.0385402 0)
(0.0532505 0.0430664 0)
(0.0484228 0.0468558 0)
(0.0753767 0.0063608 0)
(0.0742364 0.0139836 0)
(0.0722499 0.0213765 0)
(0.0695154 0.0283733 0)
(0.0660621 0.0349387 0)
(0.0620459 0.0409238 0)
(0.0574728 0.0463471 0)
(0.0525416 0.051079 0)
(0.0778277 0.00688306 0)
(0.0767782 0.0144784 0)
(0.0749894 0.0219342 0)
(0.0724784 0.0291789 0)
(0.0692694 0.0361425 0)
(0.0653932 0.042758 0)
(0.0608873 0.0489618 0)
(0.055795 0.054694 0)
(0.000599997 0.000629511 0)
(0.00104075 0.00117442 0)
(0.00127579 0.00163066 0)
(0.00140978 0.00215866 0)
(0.00135409 0.00262863 0)
(0.00110278 0.00296048 0)
(0.000731532 0.00325296 0)
(0.000242758 0.00349645 0)
(0.00247982 0.00264661 0)
(0.00343048 0.00398361 0)
(0.00405478 0.00541221 0)
(0.00420207 0.00673365 0)
(0.00390206 0.00793498 0)
(0.00318618 0.00901516 0)
(0.00208501 0.00986671 0)
(0.000653858 0.0103005 0)
(0.00478544 0.00514034 0)
(0.00613854 0.00729318 0)
(0.00681755 0.00934361 0)
(0.00689746 0.011402 0)
(0.00630209 0.0132951 0)
(0.00505162 0.0148675 0)
(0.00325764 0.0160853 0)
(0.00101195 0.0168786 0)
(0.00757067 0.00819342 0)
(0.00896609 0.0108292 0)
(0.0096458 0.0135342 0)
(0.00948 0.0161104 0)
(0.00850179 0.0184869 0)
(0.00676284 0.02059 0)
(0.00431891 0.0221956 0)
(0.00130989 0.0230811 0)
(0.0106176 0.0115445 0)
(0.0119992 0.0147086 0)
(0.012425 0.0177812 0)
(0.0119771 0.0208469 0)
(0.0105969 0.0237062 0)
(0.00831759 0.0261268 0)
(0.00525523 0.0279581 0)
(0.00157001 0.0290581 0)
(0.013983 0.0152687 0)
(0.0150725 0.0186939 0)
(0.0152383 0.0222007 0)
(0.0143873 0.0256009 0)
(0.0125426 0.0287607 0)
(0.00975661 0.0315178 0)
(0.00610564 0.0336007 0)
(0.00178864 0.0347087 0)
(0.0174837 0.0191442 0)
(0.0182731 0.0229082 0)
(0.0179983 0.026633 0)
(0.016723 0.030345 0)
(0.0144054 0.0338142 0)
(0.0110778 0.0367477 0)
(0.00686239 0.0389173 0)
(0.00197548 0.04015 0)
(0.0211801 0.0232527 0)
(0.0214704 0.027158 0)
(0.0207652 0.031175 0)
(0.0189868 0.0350956 0)
(0.0161491 0.0387142 0)
(0.0123022 0.0418236 0)
(0.00754872 0.044121 0)
(0.00212428 0.0453212 0)
(0.0249373 0.02744 0)
(0.0247417 0.0315683 0)
(0.023475 0.0357149 0)
(0.0211715 0.0398049 0)
(0.017809 0.0435934 0)
(0.0134261 0.0467621 0)
(0.00815537 0.0490526 0)
(0.00223973 0.0502989 0)
(0.0288356 0.031794 0)
(0.0279885 0.0360266 0)
(0.0261601 0.0403323 0)
(0.0232751 0.044525 0)
(0.0193535 0.0483401 0)
(0.0144462 0.0515458 0)
(0.00868021 0.0538686 0)
(0.00231289 0.055051 0)
(0.0327689 0.0362729 0)
(0.0312696 0.0406253 0)
(0.028766 0.0449972 0)
(0.0252654 0.0492153 0)
(0.0207793 0.0530528 0)
(0.0153474 0.0562214 0)
(0.00911362 0.0584591 0)
(0.00234245 0.0596318 0)
(0.0367748 0.0408933 0)
(0.0344874 0.0453335 0)
(0.0312658 0.0497562 0)
(0.0271184 0.0539527 0)
(0.0220342 0.0576964 0)
(0.0160826 0.0607531 0)
(0.00944161 0.0629313 0)
(0.00230676 0.0640036 0)
(0.0407404 0.0456523 0)
(0.037607 0.0501953 0)
(0.0335876 0.0546146 0)
(0.0287481 0.0587077 0)
(0.0230262 0.0623182 0)
(0.0166405 0.0652104 0)
(0.00957658 0.0672153 0)
(0.00218711 0.0681906 0)
(0.044575 0.0505236 0)
(0.0404631 0.0551757 0)
(0.0356353 0.0595339 0)
(0.0299852 0.0635011 0)
(0.0237432 0.0668665 0)
(0.0168382 0.0695124 0)
(0.00952221 0.0712955 0)
(0.00188642 0.0721069 0)
(0.0479173 0.055417 0)
(0.0428229 0.0601169 0)
(0.0370542 0.0643811 0)
(0.0307485 0.068083 0)
(0.0239149 0.0711386 0)
(0.016684 0.0734561 0)
(0.00913791 0.0749583 0)
(0.00143558 0.0755935 0)
(0.0501654 0.0598995 0)
(0.0440527 0.0645282 0)
(0.0375157 0.0685354 0)
(0.0306174 0.0718825 0)
(0.0234242 0.0745374 0)
(0.0160055 0.0764745 0)
(0.00843262 0.077675 0)
(0.000778534 0.0781276 0)
)
;

boundaryField
{
    walls
    {
        type            cellMotion;
        value           uniform (0 0 0);
    }
    cylinder
    {
        type            cellMotion;
        value           nonuniform List<vector> 
16
(
(0.0778277 0.00688306 0)
(0.0767782 0.0144784 0)
(0.0749894 0.0219342 0)
(0.0724784 0.0291789 0)
(0.0692694 0.0361425 0)
(0.0653932 0.042758 0)
(0.0608873 0.0489618 0)
(0.055795 0.054694 0)
(0.0501654 0.0598995 0)
(0.0440527 0.0645282 0)
(0.0375157 0.0685354 0)
(0.0306174 0.0718825 0)
(0.0234242 0.0745374 0)
(0.0160055 0.0764745 0)
(0.00843262 0.077675 0)
(0.000778534 0.0781276 0)
)
;
    }
    outlet
    {
        type            cellMotion;
        value           uniform (0 0 0);
    }
    inlet
    {
        type            cellMotion;
        value           nonuniform List<vector> 0();
    }
    frontAndBack
    {
        type            empty;
    }
    procBoundary1to0
    {
        type            processor;
        value           nonuniform List<vector> 
16
(
(0.00358313 -0.000277378 0)
(0.0105062 -0.000745962 0)
(0.017098 -0.00113565 0)
(0.0233107 -0.00145137 0)
(0.0292756 -0.00171414 0)
(0.0349359 -0.00192319 0)
(0.040382 -0.0020886 0)
(0.0455725 -0.00221054 0)
(0.0505692 -0.00229079 0)
(0.0553427 -0.00232188 0)
(0.05992 -0.00230778 0)
(0.0642804 -0.00223019 0)
(0.068414 -0.00209 0)
(0.0722557 -0.00180446 0)
(0.0756516 -0.00139779 0)
(0.0781276 -0.000778534 0)
)
;
    }
    procBoundary1to3
    {
        type            processor;
        value           nonuniform List<vector> 
16
(
(-0.000310405 0.00358451 0)
(-0.000894802 0.010536 0)
(-0.00142672 0.0170863 0)
(-0.00191065 0.023289 0)
(-0.00235757 0.0291859 0)
(-0.00277364 0.0348237 0)
(-0.00316523 0.0401855 0)
(-0.00353688 0.0453472 0)
(-0.00389393 0.0502654 0)
(-0.0042433 0.0550274 0)
(-0.00459137 0.0595455 0)
(-0.00494716 0.0639223 0)
(-0.00534182 0.0680312 0)
(-0.00576342 0.0719059 0)
(-0.00631171 0.0753386 0)
(-0.00688306 0.0778277 0)
)
;
    }
}


// ************************************************************************* //
