/*--------------------------------*- C++ -*----------------------------------*\
| =========                 |                                                 |
| \\      /  F ield         | OpenFOAM: The Open Source CFD Toolbox           |
|  \\    /   O peration     | Version:  2412                                  |
|   \\  /    A nd           | Website:  www.openfoam.com                      |
|    \\/     M anipulation  |                                                 |
\*---------------------------------------------------------------------------*/
FoamFile
{
    version     2.0;
    format      ascii;
    arch        "LSB;label=32;scalar=64";
    class       surfaceScalarField;
    location    "0.1";
    object      meshPhi;
}
// * * * * * * * * * * * * * * * * * * * * * * * * * * * * * * * * * * * * * //

dimensions      [0 3 -1 0 0 0 0];

internalField   nonuniform List<scalar> 
480
(
0.00506948
0.00238839
0.00553601
0.00714411
0.00572334
0.0110457
0.00559354
0.0134761
0.00504392
0.0139972
0.00410335
0.0125919
0.00321178
0.0102654
0.00856451
0.00295456
0.0148453
0.00429916
0.0160476
0.0125167
0.016568
0.0193333
0.0162619
0.0237519
0.0148242
0.0250455
0.0124611
0.0233157
0.0101015
0.0199465
0.0171221
0.00939135
0.0239803
0.00577518
0.0255319
0.0163961
0.0263084
0.0253104
0.0259565
0.0312986
0.0240975
0.0335677
0.0210909
0.0322774
0.0178534
0.0287036
0.025235
0.0168105
0.0324634
0.00683772
0.034091
0.0190203
0.0350505
0.0293392
0.0347798
0.0365279
0.0329435
0.0398297
0.0298909
0.0394013
0.0262516
0.0361585
0.0325605
0.0251398
0.0403211
0.00750851
0.0419078
0.0206567
0.0430012
0.0318893
0.0429399
0.039966
0.0414276
0.0441979
0.0387303
0.0446937
0.0351099
0.0420772
0.0386947
0.0342219
0.047574
0.0078183
0.0490806
0.0214071
0.0502901
0.0330953
0.0505368
0.0417124
0.0495545
0.0466817
0.0474696
0.048069
0.0442332
0.0462138
0.0433374
0.0438393
0.0542349
0.00781326
0.0556636
0.0214201
0.057003
0.0331915
0.0576457
0.0420445
0.0573342
0.0475158
0.0560556
0.0496302
0.0534996
0.0485742
0.0463263
0.0538029
0.0603496
0.00753609
0.0617185
0.0207472
0.0632274
0.0322306
0.064343
0.0410199
0.0648383
0.0467499
0.064466
0.049419
0.0627914
0.0490746
0.0475662
0.0640043
0.0659795
0.00704162
0.0673323
0.019512
0.0690528
0.0303919
0.0707382
0.0388324
0.0720498
0.0445428
0.0726096
0.0474963
0.0720337
0.0478017
0.047039
0.0742743
0.0712504
0.00638548
0.0726289
0.0177577
0.0746272
0.0277238
0.0768783
0.0355306
0.0789686
0.0409551
0.0805491
0.0440362
0.0812206
0.0448761
0.0448235
0.0845574
0.0762561
0.0055345
0.0777175
0.0155639
0.0800313
0.0243642
0.0828381
0.0312925
0.0857844
0.0362256
0.0884901
0.0392353
0.0905808
0.0405523
0.0411965
0.0952399
0.0810983
0.00457084
0.0827383
0.0130057
0.0854474
0.0204138
0.0889279
0.0262342
0.0928276
0.0304945
0.0968042
0.0333411
0.100604
0.0350046
0.0362082
0.106714
0.0857739
0.00347195
0.0877367
0.0100266
0.0910151
0.0158012
0.0953309
0.0203999
0.100367
0.0238897
0.105852
0.0264697
0.11152
0.0283469
0.0298771
0.119213
0.0903208
0.00238672
0.0927196
0.00676087
0.0966943
0.010657
0.101997
0.0138954
0.108359
0.0165217
0.115498
0.0186675
0.123181
0.0204636
0.0219683
0.132583
0.0945095
0.00145936
0.0973527
0.00349135
0.102038
0.00536301
0.108329
0.00704217
0.116031
0.00853571
0.124826
0.00986185
0.134532
0.0110574
0.0120951
0.145596
0.0973557
0.100622
0.105869
0.112898
0.121531
0.131472
0.142482
0.154441
0.00330647
-0.00715576
0.0040828
-0.00903552
0.0048509
-0.0111729
0.00513023
-0.0122775
0.00490368
-0.0116364
0.00463977
-0.00958615
0.00453248
-0.00660811
-0.00271646
0.0102554
-0.0144607
0.0124962
-0.0176247
0.0144317
-0.0209999
0.0151222
-0.0223397
0.0146058
-0.0209889
0.0138694
-0.0173662
0.0134552
-0.0119727
-0.00499576
0.0179841
-0.0216818
0.0212174
-0.0254962
0.0237205
-0.0292096
0.0245853
-0.0303206
0.0239425
-0.0282168
0.0228521
-0.0233133
0.0221213
-0.0160873
-0.00685027
0.0263833
-0.0283645
0.0300251
-0.0322615
0.0326113
-0.035735
0.0334614
-0.036243
0.0327501
-0.0334318
0.0314584
-0.0276165
0.0304812
-0.0190922
-0.00825233
0.0352624
-0.0342371
0.0388521
-0.037864
0.041151
-0.0407117
0.0418355
-0.0405085
0.0410375
-0.037027
0.039616
-0.0304646
0.0384456
-0.0210449
-0.00921124
0.0444435
-0.0389534
0.0476538
-0.0420673
0.0494364
-0.0441774
0.0497768
-0.0431747
0.0488086
-0.0390718
0.0472509
-0.0320089
0.0459295
-0.0220754
-0.00973099
0.0537709
-0.0423737
0.056388
-0.0448633
0.0574875
-0.0461463
0.0573349
-0.0444409
0.0560976
-0.0398501
0.0543578
-0.0324453
0.0529086
-0.0223037
-0.00986242
0.0631579
-0.0443194
0.0649355
-0.0460261
0.0652638
-0.0465221
0.0645132
-0.0442408
0.0629159
-0.0393436
0.0609667
-0.0318814
0.0594134
-0.0218451
-0.00964511
0.072393
-0.0445725
0.0731673
-0.0455237
0.0726681
-0.0453326
0.0712917
-0.0426844
0.0692911
-0.0377174
0.0671189
-0.0304177
0.0654647
-0.0207424
-0.00912277
0.0815506
-0.0433102
0.0811533
-0.043545
0.0797549
-0.0427096
0.0777003
-0.0398066
0.0752613
-0.0349671
0.0728569
-0.0280981
0.0711169
-0.0190865
-0.00836718
0.0909429
-0.0406632
0.0890927
-0.0401744
0.0866168
-0.0387033
0.083792
-0.0357077
0.0808872
-0.0311902
0.0782537
-0.024978
0.0764377
-0.0169667
-0.00748022
0.100897
-0.0364981
0.0972986
-0.0353727
0.0935667
-0.0334361
0.0898459
-0.0304779
0.0863766
-0.0263911
0.083476
-0.0210827
0.0815531
-0.0143142
-0.00631432
0.111735
-0.0305197
0.106206
-0.0290659
0.100974
-0.0269356
0.096119
-0.0241235
0.0919377
-0.0206449
0.0886034
-0.0163409
0.0864325
-0.0109412
-0.00476356
0.123386
-0.0223618
0.115806
-0.0209673
0.108796
-0.0189959
0.102618
-0.0166373
0.0974654
-0.0139377
0.0934797
-0.0107256
0.090937
-0.00695819
-0.00285884
0.134738
-0.0117562
0.125048
-0.0107187
0.116242
-0.009418
0.10864
-0.00798223
0.102399
-0.00641211
0.0977354
-0.00467541
0.094835
-0.00280296
-0.000837964
0.142127
0.130804
0.120702
0.112088
0.105175
0.100148
0.0971397
)
;

boundaryField
{
    walls
    {
        type            calculated;
        value           uniform 0;
    }
    cylinder
    {
        type            calculated;
        value           nonuniform List<scalar> 
16
(
2.15447e-11
-2.64525e-11
-8.77395e-12
1.59661e-11
-4.49582e-11
3.25709e-11
5.04362e-11
-2.55317e-11
2.55348e-11
-5.04334e-11
-3.25679e-11
4.49626e-11
-1.59627e-11
8.777e-12
2.6455e-11
-2.15427e-11
)
;
    }
    outlet
    {
        type            calculated;
        value           uniform 0;
    }
    inlet
    {
        type            calculated;
        value           nonuniform List<scalar> 0();
    }
    frontAndBack
    {
        type            empty;
    }
    procBoundary1to0
    {
        type            processor;
        value           nonuniform List<scalar> 
16
(
-0.0049897
-0.0145847
-0.0235372
-0.0319007
-0.0396955
-0.0469281
-0.0536121
-0.059785
-0.0654948
-0.0708373
-0.0758813
-0.0807214
-0.0853393
-0.0897116
-0.0936399
-0.0961714
)
;
    }
    procBoundary1to3
    {
        type            processor;
        value           nonuniform List<scalar> 
16
(
0.00484228
0.014134
0.0227927
0.0309199
0.0385862
0.0458151
0.0525999
0.0589664
0.0649439
0.0705796
0.0758905
0.080955
0.085705
0.0900632
0.0938499
0.0962275
)
;
    }
}


// ************************************************************************* //
