/*--------------------------------*- C++ -*----------------------------------*\
| =========                 |                                                 |
| \\      /  F ield         | OpenFOAM: The Open Source CFD Toolbox           |
|  \\    /   O peration     | Version:  2412                                  |
|   \\  /    A nd           | Website:  www.openfoam.com                      |
|    \\/     M anipulation  |                                                 |
\*---------------------------------------------------------------------------*/
FoamFile
{
    version     2.0;
    format      ascii;
    arch        "LSB;label=32;scalar=64";
    class       pointVectorField;
    location    "0.1";
    object      pointDisplacement;
}
// * * * * * * * * * * * * * * * * * * * * * * * * * * * * * * * * * * * * * //

dimensions      [0 1 0 0 0 0 0];

internalField   nonuniform List<vector> 
578
(
(0 0 0)
(0 0 0)
(0 0 0)
(0 0 0)
(0 0 0)
(0 0 0)
(0 0 0)
(0 0 0)
(0 0 0)
(0.00701849 1.0212e-05 0)
(0.00686519 0.00103663 0)
(0.00645807 0.00193533 0)
(0.0057638 0.00258637 0)
(0.0048909 0.0029259 0)
(0.00393543 0.00293001 0)
(0.00296464 0.00261282 0)
(0.00200888 0.00200295 0)
(0.00150143 0.0015944 0)
(0.0137657 4.92446e-05 0)
(0.0134872 0.00199052 0)
(0.0127233 0.00370676 0)
(0.0114547 0.00498941 0)
(0.00986073 0.00572426 0)
(0.00810591 0.00586276 0)
(0.00632372 0.00543201 0)
(0.00456416 0.00446375 0)
(0.00361762 0.0038238 0)
(0.0201741 0.000112149 0)
(0.0197872 0.00286207 0)
(0.0187112 0.00531406 0)
(0.0169774 0.00720013 0)
(0.0148014 0.00836487 0)
(0.0124049 0.00874692 0)
(0.00996261 0.00836955 0)
(0.00754924 0.00726358 0)
(0.00621213 0.00654249 0)
(0.0262676 0.000194028 0)
(0.025785 0.00366608 0)
(0.0244476 0.00678634 0)
(0.0223389 0.0092488 0)
(0.0197022 0.0108701 0)
(0.0167958 0.0115781 0)
(0.0138273 0.0113901 0)
(0.0108872 0.0103284 0)
(0.00920664 0.00966692 0)
(0.0320814 0.00029229 0)
(0.0315176 0.00441702 0)
(0.0299668 0.00815103 0)
(0.0275611 0.0111672 0)
(0.0245624 0.0132627 0)
(0.021254 0.0143574 0)
(0.0178649 0.0144601 0)
(0.0145088 0.0135941 0)
(0.012516 0.0131037 0)
(0.0376303 0.000406669 0)
(0.0369975 0.00512403 0)
(0.0352804 0.00942582 0)
(0.0326465 0.0129736 0)
(0.0293721 0.0155548 0)
(0.025753 0.017082 0)
(0.022035 0.017557 0)
(0.0183513 0.0170046 0)
(0.0160762 0.0167835 0)
(0.0429414 0.000537966 0)
(0.0422511 0.0057966 0)
(0.0404102 0.0106263 0)
(0.0376102 0.0146874 0)
(0.0341321 0.0177614 0)
(0.030278 0.0197554 0)
(0.0263038 0.020664 0)
(0.0223653 0.0205197 0)
(0.0198219 0.0206391 0)
(0.0480242 0.000687243 0)
(0.0472881 0.00644016 0)
(0.0453631 0.0117609 0)
(0.0424524 0.0163177 0)
(0.0388363 0.0198902 0)
(0.0348151 0.0223796 0)
(0.0306454 0.0237722 0)
(0.0265064 0.0241063 0)
(0.0237125 0.0246316 0)
(0.0528957 0.000856565 0)
(0.0521261 0.00705962 0)
(0.050154 0.0128387 0)
(0.0471844 0.0178746 0)
(0.0434896 0.0219496 0)
(0.039353 0.0249576 0)
(0.0350478 0.0268791 0)
(0.0307623 0.0277624 0)
(0.0277181 0.02874 0)
(0.0575588 0.00105056 0)
(0.0567692 0.00765875 0)
(0.0547859 0.0138614 0)
(0.0518053 0.0193603 0)
(0.0480818 0.0239384 0)
(0.043902 0.027491 0)
(0.0395204 0.0299956 0)
(0.0351206 0.0314844 0)
(0.0318298 0.0329682 0)
(0.0620158 0.00127252 0)
(0.0612212 0.00823905 0)
(0.0592595 0.0148316 0)
(0.0563181 0.0207721 0)
(0.0526389 0.0258563 0)
(0.0484758 0.02998 0)
(0.0440631 0.0331128 0)
(0.0395801 0.0352809 0)
(0.0360226 0.0373213 0)
(0.066251 0.0015326 0)
(0.0654629 0.00880611 0)
(0.0635645 0.0157449 0)
(0.0607292 0.0220999 0)
(0.0571582 0.0276854 0)
(0.0530666 0.0324087 0)
(0.0486639 0.0362218 0)
(0.0441028 0.0391357 0)
(0.0402507 0.0417944 0)
(0.070222 0.00184763 0)
(0.0694541 0.00935599 0)
(0.0676722 0.0165823 0)
(0.064999 0.0233159 0)
(0.0615938 0.0293991 0)
(0.057623 0.0347408 0)
(0.0532469 0.0392871 0)
(0.0486072 0.0430188 0)
(0.0444261 0.0463646 0)
(0.0738252 0.00225127 0)
(0.0730956 0.00989791 0)
(0.0714576 0.0173291 0)
(0.0689874 0.0243828 0)
(0.0657872 0.0309381 0)
(0.0619684 0.036903 0)
(0.0576421 0.0422183 0)
(0.0529269 0.0468363 0)
(0.0483542 0.0509552 0)
(0.0767469 0.00276757 0)
(0.0760558 0.0104262 0)
(0.0745648 0.0179422 0)
(0.0723101 0.0252141 0)
(0.0693337 0.0321563 0)
(0.0656956 0.0386885 0)
(0.0614534 0.0447453 0)
(0.0566785 0.0502681 0)
(0.0516015 0.0552666 0)
(0.0781658 0.00305963 0)
(0.0774895 0.0107065 0)
(0.076067 0.0182502 0)
(0.0739118 0.0256182 0)
(0.0710449 0.0327395 0)
(0.0674938 0.0395455 0)
(0.0632927 0.0459706 0)
(0.058482 0.051953 0)
(0.0531081 0.0574351 0)
(0 0 0)
(0 0 0)
(0 0 0)
(0 0 0)
(0 0 0)
(0 0 0)
(0 0 0)
(0 0 0)
(0 0 0)
(0.00701849 1.0212e-05 0)
(0.00686519 0.00103663 0)
(0.00645807 0.00193533 0)
(0.0057638 0.00258637 0)
(0.0048909 0.0029259 0)
(0.00393543 0.00293001 0)
(0.00296464 0.00261282 0)
(0.00200888 0.00200295 0)
(0.00150143 0.0015944 0)
(0.0137657 4.92446e-05 0)
(0.0134872 0.00199052 0)
(0.0127233 0.00370676 0)
(0.0114547 0.00498941 0)
(0.00986073 0.00572426 0)
(0.00810591 0.00586276 0)
(0.00632372 0.00543201 0)
(0.00456416 0.00446375 0)
(0.00361762 0.0038238 0)
(0.0201741 0.000112149 0)
(0.0197872 0.00286207 0)
(0.0187112 0.00531406 0)
(0.0169774 0.00720013 0)
(0.0148014 0.00836487 0)
(0.0124049 0.00874692 0)
(0.00996261 0.00836955 0)
(0.00754924 0.00726358 0)
(0.00621213 0.00654249 0)
(0.0262676 0.000194028 0)
(0.025785 0.00366608 0)
(0.0244476 0.00678634 0)
(0.0223389 0.0092488 0)
(0.0197022 0.0108701 0)
(0.0167958 0.0115781 0)
(0.0138273 0.0113901 0)
(0.0108872 0.0103284 0)
(0.00920664 0.00966692 0)
(0.0320814 0.00029229 0)
(0.0315176 0.00441702 0)
(0.0299668 0.00815103 0)
(0.0275611 0.0111672 0)
(0.0245624 0.0132627 0)
(0.021254 0.0143574 0)
(0.0178649 0.0144601 0)
(0.0145088 0.0135941 0)
(0.012516 0.0131037 0)
(0.0376303 0.000406669 0)
(0.0369975 0.00512403 0)
(0.0352804 0.00942582 0)
(0.0326465 0.0129736 0)
(0.0293721 0.0155548 0)
(0.025753 0.017082 0)
(0.022035 0.017557 0)
(0.0183513 0.0170046 0)
(0.0160762 0.0167835 0)
(0.0429414 0.000537966 0)
(0.0422511 0.0057966 0)
(0.0404102 0.0106263 0)
(0.0376102 0.0146874 0)
(0.0341321 0.0177614 0)
(0.030278 0.0197554 0)
(0.0263038 0.020664 0)
(0.0223653 0.0205197 0)
(0.0198219 0.0206391 0)
(0.0480242 0.000687243 0)
(0.0472881 0.00644016 0)
(0.0453631 0.0117609 0)
(0.0424524 0.0163177 0)
(0.0388363 0.0198902 0)
(0.0348151 0.0223796 0)
(0.0306454 0.0237722 0)
(0.0265064 0.0241063 0)
(0.0237125 0.0246316 0)
(0.0528957 0.000856565 0)
(0.0521261 0.00705962 0)
(0.050154 0.0128387 0)
(0.0471844 0.0178746 0)
(0.0434896 0.0219496 0)
(0.039353 0.0249576 0)
(0.0350478 0.0268791 0)
(0.0307623 0.0277624 0)
(0.0277181 0.02874 0)
(0.0575588 0.00105056 0)
(0.0567692 0.00765875 0)
(0.0547859 0.0138614 0)
(0.0518053 0.0193603 0)
(0.0480818 0.0239384 0)
(0.043902 0.027491 0)
(0.0395204 0.0299956 0)
(0.0351206 0.0314844 0)
(0.0318298 0.0329682 0)
(0.0620158 0.00127252 0)
(0.0612212 0.00823905 0)
(0.0592595 0.0148316 0)
(0.0563181 0.0207721 0)
(0.0526389 0.0258563 0)
(0.0484758 0.02998 0)
(0.0440631 0.0331128 0)
(0.0395801 0.0352809 0)
(0.0360226 0.0373213 0)
(0.066251 0.0015326 0)
(0.0654629 0.00880611 0)
(0.0635645 0.0157449 0)
(0.0607292 0.0220999 0)
(0.0571582 0.0276854 0)
(0.0530666 0.0324087 0)
(0.0486639 0.0362218 0)
(0.0441028 0.0391357 0)
(0.0402507 0.0417944 0)
(0.070222 0.00184763 0)
(0.0694541 0.00935599 0)
(0.0676722 0.0165823 0)
(0.064999 0.0233159 0)
(0.0615938 0.0293991 0)
(0.057623 0.0347408 0)
(0.0532469 0.0392871 0)
(0.0486072 0.0430188 0)
(0.0444261 0.0463646 0)
(0.0738252 0.00225127 0)
(0.0730956 0.00989791 0)
(0.0714576 0.0173291 0)
(0.0689874 0.0243828 0)
(0.0657872 0.0309381 0)
(0.0619684 0.036903 0)
(0.0576421 0.0422183 0)
(0.0529269 0.0468363 0)
(0.0483542 0.0509552 0)
(0.0767469 0.00276757 0)
(0.0760558 0.0104262 0)
(0.0745648 0.0179422 0)
(0.0723101 0.0252141 0)
(0.0693337 0.0321563 0)
(0.0656956 0.0386885 0)
(0.0614534 0.0447453 0)
(0.0566785 0.0502681 0)
(0.0516015 0.0552666 0)
(0.0781658 0.00305963 0)
(0.0774895 0.0107065 0)
(0.076067 0.0182502 0)
(0.0739118 0.0256182 0)
(0.0710449 0.0327395 0)
(0.0674938 0.0395455 0)
(0.0632927 0.0459706 0)
(0.058482 0.051953 0)
(0.0531081 0.0574351 0)
(0 0 0)
(0 0 0)
(0 0 0)
(0 0 0)
(0 0 0)
(0 0 0)
(0 0 0)
(0 0 0)
(0.0018865 0.00210516 0)
(0.00245117 0.00304746 0)
(0.00273946 0.00398457 0)
(0.00272197 0.00486695 0)
(0.00239131 0.00563945 0)
(0.00178083 0.0062808 0)
(0.000931123 0.00673801 0)
(-7.67461e-05 0.00698885 0)
(0.00420921 0.00476378 0)
(0.00511404 0.00650931 0)
(0.0054971 0.00822463 0)
(0.00533066 0.00984495 0)
(0.00461517 0.0112839 0)
(0.00339881 0.0124656 0)
(0.00175431 0.0132906 0)
(-0.000163629 0.0137091 0)
(0.00686947 0.00786586 0)
(0.00789606 0.0102517 0)
(0.00821514 0.0126012 0)
(0.00779993 0.0148283 0)
(0.00665844 0.0168152 0)
(0.00485079 0.0184412 0)
(0.00247635 0.0195678 0)
(-0.000253705 0.0200916 0)
(0.00979322 0.0113211 0)
(0.0107647 0.0142175 0)
(0.0108866 0.0170722 0)
(0.0101431 0.0197923 0)
(0.00854827 0.0222334 0)
(0.00616608 0.0242241 0)
(0.00311479 0.02558 0)
(-0.000347007 0.0261607 0)
(0.0129248 0.0150586 0)
(0.013689 0.0183501 0)
(0.0135118 0.0216125 0)
(0.0123798 0.0247341 0)
(0.0103062 0.0275333 0)
(0.00736068 0.0298068 0)
(0.00368081 0.0313378 0)
(-0.000443164 0.0319505 0)
(0.0162094 0.0190081 0)
(0.0166513 0.0226145 0)
(0.016091 0.0262 0)
(0.0145178 0.0296355 0)
(0.011948 0.0327158 0)
(0.00845201 0.0352017 0)
(0.00418361 0.0368498 0)
(-0.000543787 0.0374727 0)
(0.0196088 0.0231215 0)
(0.0196318 0.0269736 0)
(0.0186224 0.0308177 0)
(0.0165689 0.0344979 0)
(0.0134854 0.0377803 0)
(0.00944873 0.0404077 0)
(0.00462802 0.0421327 0)
(-0.000650752 0.0427561 0)
(0.0230884 0.02736 0)
(0.022618 0.03141 0)
(0.021103 0.0354532 0)
(0.0185313 0.0393073 0)
(0.0149229 0.0427287 0)
(0.0103586 0.0454449 0)
(0.00501706 0.047203 0)
(-0.000766913 0.0478127 0)
(0.0266317 0.031713 0)
(0.0255953 0.0359161 0)
(0.0235233 0.0400999 0)
(0.020404 0.0440713 0)
(0.0162595 0.0475653 0)
(0.0111771 0.0503118 0)
(0.00534686 0.052072 0)
(-0.000896402 0.0526646 0)
(0.0302204 0.0361853 0)
(0.0285496 0.0405012 0)
(0.0258688 0.0447731 0)
(0.0221694 0.0487884 0)
(0.0174819 0.0522947 0)
(0.0118966 0.0550279 0)
(0.00561189 0.0567563 0)
(-0.00104511 0.0573174 0)
(0.0338292 0.0407868 0)
(0.0314498 0.0451837 0)
(0.0281053 0.0494858 0)
(0.0237998 0.0534844 0)
(0.0185606 0.0569354 0)
(0.0124957 0.059595 0)
(0.00580051 0.0612597 0)
(-0.00122264 0.0617788 0)
(0.0374051 0.045524 0)
(0.0342385 0.0499804 0)
(0.0301805 0.0542631 0)
(0.0252315 0.0581735 0)
(0.019445 0.0614986 0)
(0.0129344 0.064031 0)
(0.00587716 0.065588 0)
(-0.00144912 0.0660395 0)
(0.0408478 0.0503919 0)
(0.0368235 0.0548852 0)
(0.0319887 0.0590943 0)
(0.0263744 0.0628529 0)
(0.0200607 0.0659806 0)
(0.0131428 0.0683114 0)
(0.00579204 0.0697045 0)
(-0.00175837 0.0700607 0)
(0.0439441 0.0553135 0)
(0.0389928 0.0598069 0)
(0.033354 0.0638794 0)
(0.0270959 0.0674013 0)
(0.0202928 0.0702466 0)
(0.0130437 0.0723081 0)
(0.00549418 0.0734904 0)
(-0.00218882 0.0737378 0)
(0.0462369 0.0599957 0)
(0.0403582 0.0643952 0)
(0.0339807 0.0682246 0)
(0.027173 0.0714137 0)
(0.0200042 0.0739042 0)
(0.0125626 0.0756428 0)
(0.00494454 0.0765899 0)
(-0.00274587 0.0767228 0)
(0.0472227 0.062364 0)
(0.0408826 0.0666923 0)
(0.0341488 0.0703784 0)
(0.027086 0.0733867 0)
(0.0197625 0.0756882 0)
(0.0122486 0.0772608 0)
(0.00461669 0.0780893 0)
(-0.00305963 0.0781658 0)
(0 0 0)
(0 0 0)
(0 0 0)
(0 0 0)
(0 0 0)
(0 0 0)
(0 0 0)
(0 0 0)
(0.0018865 0.00210516 0)
(0.00245117 0.00304746 0)
(0.00273946 0.00398457 0)
(0.00272197 0.00486695 0)
(0.00239131 0.00563945 0)
(0.00178083 0.0062808 0)
(0.000931123 0.00673801 0)
(-7.67461e-05 0.00698885 0)
(0.00420921 0.00476378 0)
(0.00511404 0.00650931 0)
(0.0054971 0.00822463 0)
(0.00533066 0.00984495 0)
(0.00461517 0.0112839 0)
(0.00339881 0.0124656 0)
(0.00175431 0.0132906 0)
(-0.000163629 0.0137091 0)
(0.00686947 0.00786586 0)
(0.00789606 0.0102517 0)
(0.00821514 0.0126012 0)
(0.00779993 0.0148283 0)
(0.00665844 0.0168152 0)
(0.00485079 0.0184412 0)
(0.00247635 0.0195678 0)
(-0.000253705 0.0200916 0)
(0.00979322 0.0113211 0)
(0.0107647 0.0142175 0)
(0.0108866 0.0170722 0)
(0.0101431 0.0197923 0)
(0.00854827 0.0222334 0)
(0.00616608 0.0242241 0)
(0.00311479 0.02558 0)
(-0.000347007 0.0261607 0)
(0.0129248 0.0150586 0)
(0.013689 0.0183501 0)
(0.0135118 0.0216125 0)
(0.0123798 0.0247341 0)
(0.0103062 0.0275333 0)
(0.00736068 0.0298068 0)
(0.00368081 0.0313378 0)
(-0.000443164 0.0319505 0)
(0.0162094 0.0190081 0)
(0.0166513 0.0226145 0)
(0.016091 0.0262 0)
(0.0145178 0.0296355 0)
(0.011948 0.0327158 0)
(0.00845201 0.0352017 0)
(0.00418361 0.0368498 0)
(-0.000543787 0.0374727 0)
(0.0196088 0.0231215 0)
(0.0196318 0.0269736 0)
(0.0186224 0.0308177 0)
(0.0165689 0.0344979 0)
(0.0134854 0.0377803 0)
(0.00944873 0.0404077 0)
(0.00462802 0.0421327 0)
(-0.000650752 0.0427561 0)
(0.0230884 0.02736 0)
(0.022618 0.03141 0)
(0.021103 0.0354532 0)
(0.0185313 0.0393073 0)
(0.0149229 0.0427287 0)
(0.0103586 0.0454449 0)
(0.00501706 0.047203 0)
(-0.000766913 0.0478127 0)
(0.0266317 0.031713 0)
(0.0255953 0.0359161 0)
(0.0235233 0.0400999 0)
(0.020404 0.0440713 0)
(0.0162595 0.0475653 0)
(0.0111771 0.0503118 0)
(0.00534686 0.052072 0)
(-0.000896402 0.0526646 0)
(0.0302204 0.0361853 0)
(0.0285496 0.0405012 0)
(0.0258688 0.0447731 0)
(0.0221694 0.0487884 0)
(0.0174819 0.0522947 0)
(0.0118966 0.0550279 0)
(0.00561189 0.0567563 0)
(-0.00104511 0.0573174 0)
(0.0338292 0.0407868 0)
(0.0314498 0.0451837 0)
(0.0281053 0.0494858 0)
(0.0237998 0.0534844 0)
(0.0185606 0.0569354 0)
(0.0124957 0.059595 0)
(0.00580051 0.0612597 0)
(-0.00122264 0.0617788 0)
(0.0374051 0.045524 0)
(0.0342385 0.0499804 0)
(0.0301805 0.0542631 0)
(0.0252315 0.0581735 0)
(0.019445 0.0614986 0)
(0.0129344 0.064031 0)
(0.00587716 0.065588 0)
(-0.00144912 0.0660395 0)
(0.0408478 0.0503919 0)
(0.0368235 0.0548852 0)
(0.0319887 0.0590943 0)
(0.0263744 0.0628529 0)
(0.0200607 0.0659806 0)
(0.0131428 0.0683114 0)
(0.00579204 0.0697045 0)
(-0.00175837 0.0700607 0)
(0.0439441 0.0553135 0)
(0.0389928 0.0598069 0)
(0.033354 0.0638794 0)
(0.0270959 0.0674013 0)
(0.0202928 0.0702466 0)
(0.0130437 0.0723081 0)
(0.00549418 0.0734904 0)
(-0.00218882 0.0737378 0)
(0.0462369 0.0599957 0)
(0.0403582 0.0643952 0)
(0.0339807 0.0682246 0)
(0.027173 0.0714137 0)
(0.0200042 0.0739042 0)
(0.0125626 0.0756428 0)
(0.00494454 0.0765899 0)
(-0.00274587 0.0767228 0)
(0.0472227 0.062364 0)
(0.0408826 0.0666923 0)
(0.0341488 0.0703784 0)
(0.027086 0.0733867 0)
(0.0197625 0.0756882 0)
(0.0122486 0.0772608 0)
(0.00461669 0.0780893 0)
(-0.00305963 0.0781658 0)
)
;

boundaryField
{
    walls
    {
        type            fixedValue;
        value           uniform (0 0 0);
    }
    cylinder
    {
        type            solidBodyMotionDisplacement;
        value           nonuniform List<vector> 
34
(
(0.0781658 0.00305963 0)
(0.0781658 0.00305963 0)
(0.0774895 0.0107065 0)
(0.0774895 0.0107065 0)
(0.076067 0.0182502 0)
(0.076067 0.0182502 0)
(0.0739118 0.0256182 0)
(0.0739118 0.0256182 0)
(0.0710449 0.0327395 0)
(0.0710449 0.0327395 0)
(0.0674938 0.0395455 0)
(0.0674938 0.0395455 0)
(0.0632927 0.0459706 0)
(0.0632927 0.0459706 0)
(0.058482 0.051953 0)
(0.058482 0.051953 0)
(0.0531081 0.0574351 0)
(0.0531081 0.0574351 0)
(0.0472227 0.062364 0)
(0.0472227 0.062364 0)
(0.0408826 0.0666923 0)
(0.0408826 0.0666923 0)
(0.0341488 0.0703784 0)
(0.0341488 0.0703784 0)
(0.027086 0.0733867 0)
(0.027086 0.0733867 0)
(0.0197625 0.0756882 0)
(0.0197625 0.0756882 0)
(0.0122486 0.0772608 0)
(0.0122486 0.0772608 0)
(0.00461669 0.0780893 0)
(0.00461669 0.0780893 0)
(-0.00305963 0.0781658 0)
(-0.00305963 0.0781658 0)
)
;
        solidBodyMotionFunction oscillatingRotatingMotion;
        oscillatingRotatingMotionCoeffs
        {
            origin          ( 0 0 0 );
            axis            ( 0 0 1 );
            omega           1.5;
            amplitude       ( 0 0 30 );
        }
    }
    outlet
    {
        type            fixedValue;
        value           uniform (0 0 0);
    }
    inlet
    {
        type            fixedValue;
        value           nonuniform List<vector> 0();
    }
    frontAndBack
    {
        type            empty;
    }
    procBoundary1to0
    {
        type            processor;
    }
    procBoundary1to3
    {
        type            processor;
    }
}


// ************************************************************************* //
