/*--------------------------------*- C++ -*----------------------------------*\
| =========                 |                                                 |
| \\      /  F ield         | OpenFOAM: The Open Source CFD Toolbox           |
|  \\    /   O peration     | Version:  2412                                  |
|   \\  /    A nd           | Website:  www.openfoam.com                      |
|    \\/     M anipulation  |                                                 |
\*---------------------------------------------------------------------------*/
FoamFile
{
    version     2.0;
    format      ascii;
    arch        "LSB;label=32;scalar=64";
    class       surfaceScalarField;
    location    "3.2";
    object      phi;
}
// * * * * * * * * * * * * * * * * * * * * * * * * * * * * * * * * * * * * * //

dimensions      [0 3 -1 0 0 0 0];

oriented        oriented;

internalField   nonuniform List<scalar> 
1171
(
-0.9372
0.9372
0.851184
-1.12025
0.269068
-0.177908
-0.699278
0.877186
0.0628
-0.0816591
-0.271617
0.353276
-0.851184
0.0653305
0.785854
0.825936
-0.162789
-0.663147
0.828464
-1.00059
0.172123
-0.349725
-0.0447838
0.394508
-0.00758984
0.59023
-0.58264
-0.498719
0.829245
-0.330526
-0.431384
0.992341
-0.163877
0.375326
0.0469234
-0.422249
0.988457
0.00388372
0.39763
-0.0223041
1.00725
-0.0187928
0.603234
-0.781142
-0.791987
0.593786
0.198201
0.209292
-0.708011
0.55534
-0.912626
0.357287
-1.06347
0.653402
0.410065
-0.650526
0.642936
0.0356214
-0.256016
0.220395
-0.0410148
-0.60367
0.644684
0.446266
-0.491049
-0.854491
0.869896
-0.015406
1.00356
0.00368849
0.894135
-1.07714
0.183003
1.00424
-0.000680097
-0.702615
-0.0893719
1.21781
-0.812319
-0.405495
0.149751
-0.108629
-0.367912
0.476541
-0.267155
0.180053
0.0871027
-0.621274
-0.498979
0.988072
-0.0939363
0.0115319
0.793695
-0.805227
0.552966
0.664848
0.481601
0.0241301
0.422136
-0.783733
-0.0866884
0.870421
0.509657
0.256866
-0.766523
-0.0487234
0.633114
-0.58439
-0.507715
-0.555752
-0.386195
-0.690943
0.0107591
0.261056
-0.271815
-0.88611
-0.0229495
0.909059
0.35837
0.0361386
0.772556
0.0533798
-0.632812
-0.0177143
0.0389077
-0.82264
0.0851781
0.876004
-0.961182
-0.381052
0.00292386
0.378128
-0.653492
-0.232618
-0.628416
0.713594
0.61574
0.213505
-0.55851
0.957522
-0.791065
-0.166457
-0.00269972
-0.0364057
0.0391054
-0.453792
-0.0372572
-0.249081
0.864821
0.0345391
0.376514
-0.411053
-0.469012
0.978669
0.7181
-0.804788
0.387835
-0.0491065
-0.338728
1.00346
-1.00346
-0.799538
0.0519415
-0.323559
-0.771874
0.783406
-0.0475226
-0.153645
0.201167
0.841371
-0.0476761
1.01367
-0.756804
0.218926
-0.322724
0.103797
0.858826
-0.0862697
-0.653906
-0.0242562
0.678162
0.145378
-0.233261
0.0878828
0.754711
-0.9175
-0.440949
0.311291
0.129657
0.570619
-0.611634
1.0309
-0.428827
-0.602069
0.644702
-0.701571
0.0349332
0.666638
0.0923025
0.598156
0.0904349
-0.68859
0.149717
-0.0977759
-0.504309
0.123257
0.0975919
-0.944772
0.84718
-0.556746
-0.798155
0.0955396
0.466297
-0.0441614
0.300988
-0.831652
0.530664
0.42412
0.57588
0.575459
-0.536551
-0.422374
0.0543046
0.368069
0.767602
0.235855
-0.633135
0.584412
0.098385
0.820041
-0.0139719
-0.639934
-0.71711
0.814702
0.573899
0.0366054
0.36113
-0.397735
-0.169239
0.490452
0.142661
0.920154
-0.834545
-0.0856089
0.637618
0.319904
-0.443033
0.596394
-0.559789
0.405327
0.150012
-0.0158739
-0.572291
-0.147688
0.719979
-0.175753
-0.827704
-0.599931
0.35825
0.241682
0.641516
-0.655488
0.305754
0.967405
0.0462657
-0.71711
0.13701
-0.13971
0.7181
0.810698
-0.810698
0.849233
-0.818958
-0.0302749
-0.470221
0.894341
-0.185763
-0.318546
0.773289
-0.700215
-0.0730745
-0.714455
0.142164
0.0973134
-0.730125
0.804788
-0.974027
-0.276592
0.233092
0.0435
0.148194
-0.958104
0.809911
0.544776
-0.063175
-0.302161
0.589454
-0.287293
-0.809087
0.95728
-0.149549
0.650904
-0.7578
0.106896
0.985314
-0.583762
-0.401552
0.794824
-0.0461479
-0.0318902
0.0491221
-0.0172319
-0.815869
-0.766361
0.0670829
-0.771874
0.545514
-0.54259
0.0944684
0.632118
-0.726586
0.747385
0.189815
0.494328
0.505672
-0.0947587
-0.587458
0.682217
0.923296
-0.0031422
-0.794824
0.814702
0.181898
-0.437914
-0.0478037
0.0144549
0.0333488
0.637693
-0.447997
-0.189696
0.785854
0.060294
-0.115458
0.478671
0.159023
-0.0309096
0.00122824
0.0296814
-0.0015733
-0.0303169
0.198362
-0.247468
-0.960247
0.00930042
-0.145545
-0.0782302
0.103832
0.729588
0.744228
-0.168348
0.732778
-0.638309
-0.181663
0.400589
0.762821
0.0230328
0.239114
-1.05807
-0.974027
0.314208
0.783406
-0.176529
0.0228837
-0.738888
0.93081
-0.191921
0.458902
-0.0807732
0.801032
0.298429
0.299774
0.0978562
-0.686542
0.686542
0.200114
0.670307
-0.0690007
0.445515
0.40754
0.00520809
-0.0530118
0.469354
0.0754222
-0.809087
0.576755
0.196534
0.0829402
-0.0338181
-0.762821
0.190676
0.740133
-0.00425861
-0.750146
0.754404
0.768673
-0.828693
0.0600201
-0.747385
-0.0472925
0.0653329
-0.0180404
0.0873735
-0.15761
-0.113872
0.271482
-0.0181182
-0.0127914
0.683736
-0.687994
0.810505
0.0666809
-0.324254
-0.501425
0.825679
0.000241302
-0.000241302
0.287397
0.441495
0.613123
-1.05462
-0.181337
-0.570104
0.751441
-0.0177358
0.218903
0.387403
-0.242025
0.978618
-0.537123
0.6729
1.0285
-0.415379
0.20164
0.95728
0.793403
0.200214
0.669682
-0.827704
0.313458
-0.107083
0.136165
-0.0290822
0.808297
-0.00271654
-0.805581
-0.77461
0.77393
0.529779
-0.77461
-0.793403
0.77393
-0.0625161
0.846471
-0.0359658
-0.767602
0.705492
0.0621101
0.512813
0.563405
-1.07622
0.468997
0.50962
0.550143
0.452007
-1.00215
0.518842
0.50966
0.705492
-0.521283
-0.468541
-0.56157
-0.50692
-0.125682
-0.0109107
0.0109107
0.516773
0.501945
-1.00886
0.628803
-0.267674
-0.932257
0.348495
-0.640884
0.408267
0.00172898
-0.825069
0.82334
0.442067
-0.0101444
0.818441
-0.95267
-0.86437
0.052064
0.812306
0.633806
-0.511894
-0.121912
0.642634
-0.73657
0.87164
-0.822562
-0.0490776
-0.00206154
-0.832483
-0.118194
0.718071
-0.599877
-0.855639
0.853578
-0.793396
0.741583
0.0518127
-0.844311
0.0306367
0.813674
0.00529761
-0.00505631
0.451
0.0810306
-0.892461
0.811431
-0.685732
0.590974
0.906681
0.0606536
-0.967335
0.0423111
-0.0840162
0.452086
-0.364946
0.0422218
0.861217
-0.859488
-0.77763
-0.865159
0.0326759
-0.097006
-0.846235
0.0236725
0.686499
0.0462784
0.0300223
0.603783
-0.809138
0.839775
0.602069
-0.835214
-0.794986
0.0514854
-0.0310361
0.831869
-0.800833
-0.0228942
-0.808666
0.60282
0.165853
-0.0227313
0.841173
0.905642
0.888773
-0.8651
0.0507899
-0.0507899
-0.132963
-0.543957
0.032063
0.312668
0.00154003
0.360068
0.818279
0.00601959
-0.0241378
0.660448
0.339552
0.792757
-0.621274
-0.733771
-0.80355
-0.758524
0.758524
-0.201931
-0.121628
0.614702
-0.822079
0.207378
-0.470661
-0.557683
0.284797
-0.97574
-0.850101
0.801023
-0.807952
0.840628
0.653126
0.139229
-0.792355
-0.751737
-0.155469
0.757501
-0.602032
0.0318223
-0.00242919
0.0101669
-0.00773771
-0.41582
-0.128137
0.899499
0.663311
-0.240152
-0.423159
0.541399
0.687325
-0.487211
0.0104668
-0.277622
0.0224135
0.691424
-0.713837
-0.322614
-0.101321
0.0975172
-0.915126
0.109545
-0.682851
0.0558296
0.676721
-0.732551
-0.779684
0.0968333
0.623344
-0.724665
0.220481
-0.378091
-0.761934
0.0101971
0.386627
0.645041
-0.0486461
0.00693581
-0.00693581
-0.00968246
-0.0020293
-0.105054
-0.035601
0.0416206
-0.715655
0.271267
0.707235
-0.730101
0.0228661
-0.582097
0.637927
0.70125
-0.0779059
-0.646559
-0.133125
-1.03223
0.0205015
0.0302884
-0.693242
-0.764753
-0.767241
0.361746
-0.275854
0.425819
-0.149965
-0.650689
-0.042553
0.507917
0.723248
-0.0793431
0.00111292
0.904929
0.456252
0.147785
-0.604037
-0.653627
0.00293845
-0.021672
0.0192428
0.651997
-0.799685
0.00742731
-0.00742731
-0.630067
0.666666
-0.0365987
-0.623605
-0.124607
-0.648432
0.126504
0.555713
-0.0650283
-0.803901
-0.508862
0.512725
-0.00386252
0.625054
-0.602188
0.320981
0.237721
-0.558702
-0.112756
-0.638197
-0.0943542
-0.173815
-0.382358
0.461197
-0.498454
0.133019
0.710813
-0.843831
0.644702
-0.349292
0.0734379
0.0849695
-0.467328
0.584803
-0.0895967
-0.495207
-0.2878
0.303574
-0.0157737
0.447284
0.181519
0.0630531
-0.306484
0.167326
0.139158
0.238428
-0.101417
-0.288556
-0.323397
0.419682
-0.0962852
0.782445
-0.587518
-0.0360875
0.553564
0.264143
-0.504295
0.644963
-0.644963
-0.257251
-0.646436
-0.260487
-0.646436
-0.605589
-0.845224
0.14501
-0.555455
0.788821
0.0422129
0.147602
0.497439
0.0968259
0.12731
0.00300247
-0.130312
-0.04273
0.592388
-0.895221
0.393797
-0.0698934
0.0793411
-0.00944765
-0.679938
-0.170328
-0.457529
0.605313
-0.521088
-0.156878
-0.31045
-0.337188
-0.0813984
0.0813984
0.065232
0.000100873
0.147811
0.324402
-0.594886
0.137357
0.066272
0.487442
0.512558
0.654027
0.0612743
0.0294382
-0.0907125
-0.268154
-0.535747
-0.504545
0.110586
-0.115342
0.00475598
-0.119951
-0.408143
-0.0719296
0.627643
-0.528359
-0.151578
-0.193283
0.0881483
0.120102
-0.680862
-0.198928
-0.223607
-0.0238614
-0.489686
0.397724
0.0919622
-0.0829572
0.287484
-0.843237
-0.490389
0.584913
-0.814645
0.701889
0.361499
-0.0535571
0.0899433
-0.0363862
0.0357385
-0.654062
0.0177025
0.63636
-0.868257
0.590933
-0.723896
-0.0941978
0.0101351
-0.0101351
-0.296018
0.361108
0.0909774
0.0154645
0.0458098
0.525253
0.660822
-0.74643
0.0299194
0.0127949
-0.0058591
0.00585518
-0.00585518
-0.390195
0.571714
0.0137407
-0.0137407
-0.767133
-0.0111266
0.0164243
-0.415618
0.552975
0.450312
-0.486911
0.0719566
-0.0719566
0.0185744
-0.0715861
-0.00470394
-0.9025
0.500947
-0.54016
-0.00505631
0.566883
0.041983
-0.608866
-0.682624
0.154265
-0.32355
-0.0098945
0.333444
-0.0413706
-0.0379725
-0.614695
-0.0393673
0.0302884
0.00564834
0.00177897
-0.00149034
0.00149034
-0.480499
0.384213
-0.435565
0.140191
0.652566
-0.106598
0.00323109
-0.00323109
0.522376
-0.077079
0.00989379
0.0201533
0.000798875
0.606484
-0.683563
-0.620651
0.584564
-0.179052
0.341892
0.707159
-0.00968246
-0.14759
0.113772
-0.688036
0.511705
-0.407456
-0.115742
-0.0118748
-0.0268111
-0.00616282
0.482962
-0.0711365
-0.42407
0.654213
0.00505552
0.0117007
-0.0117007
-0.258315
-0.156097
-0.578338
0.620551
-0.167429
0.518318
-0.162929
0.766162
0.689222
0.00564834
-0.641555
0.573764
0.0980104
-0.147742
0.0497321
0.501606
0.112088
-0.0151723
0.0841442
-0.0689719
0.0136819
-0.0136819
-0.814933
0.0211667
-0.0500352
0.0701885
-0.0877565
0.0877565
0.0127949
-0.00645137
0.687365
0.0527689
-0.316724
-0.0914194
-0.533591
-0.0952729
-0.0709197
0.0709197
-0.0721382
0.0816915
-0.0816915
0.0326685
-0.0326685
-0.354779
-0.0882546
0.240315
0.0709762
0.0605289
-0.78177
-0.0761549
0.162189
0.0197096
-0.269205
0.0798717
-0.0798717
-0.452554
-0.0459002
0.232212
-0.0118176
0.004158
-0.5704
0.632916
0.0309645
-0.103103
-0.0159579
-0.0556282
-0.00973487
-0.157947
0.167682
-0.147995
-0.230096
-0.0839162
0.0839162
0.0552326
-0.0552326
-0.0292351
-0.0947337
0.123969
0.0658441
-0.184003
-0.0221817
0.0163226
-0.167083
0.551296
-0.0261659
0.385892
0.0117757
0.0179057
-0.0571123
0.0571123
-0.706193
0.32495
-0.123309
-0.212393
-0.0208684
-0.0272118
0.0313698
0.216515
0.0549672
-0.000817293
0.00161617
0.0814047
0.029181
0.0556373
0.106551
-0.0376686
0.0387816
0.00427343
0.00395197
0.00323738
0.0199114
-0.0231488
0.00109417
0.0168312
0.0280646
-0.0280646
0.0569323
-0.0411659
0.0411659
-0.197619
0.0218577
0.0274937
-0.0832349
0.0189866
0.0751029
-0.0751029
0.308477
-0.258491
0.110497
-0.0683061
-0.190185
-0.0159448
0.0159448
0.400617
0.266021
-0.536441
-0.0785256
-0.0368162
0.540808
0.0498862
-0.0926229
-0.446726
0.100785
-0.153818
0.172346
-0.0185286
-0.0459218
0.0459218
0.807945
-0.608676
-0.0193545
0.0204487
-0.00635805
-0.291956
-0.00181977
0.00384024
-0.0532712
-0.602953
0.579491
-0.60938
0.0129965
0.118402
0.0138074
0.0244438
-0.160176
-0.344188
0.260953
-0.056403
0.0271679
0.163182
0.140392
0.264795
0.270005
-0.256197
0.00501635
-0.128774
-0.222287
0.0685228
-0.0128855
0.171139
-0.146695
-0.0676421
0.149047
-0.371658
0.137278
-0.118291
0.0557704
-0.47984
0.176187
0.173043
-0.240685
0.0160139
-0.17554
0.17372
0.00476883
0.144278
-0.0274252
0.054336
0.46804
0.0121198
0.0289352
-0.00267955
0.0433774
-0.240816
-0.214531
0.575918
0.169839
0.0623729
0.0806273
-0.0585363
0.0793898
-0.0296578
-0.0296855
0.168315
-0.155318
0.0227724
-0.00303192
-0.109145
-0.0312622
0.061554
0.243371
-0.0852273
0.0237616
-0.310869
-0.0161148
0.215265
0.152986
0.171963
0.0528479
0.0978029
0.0469966
0.478257
-0.0188754
0.101527
0.042571
0.0642413
-0.106812
-0.27042
-0.205834
0.0156489
-0.236469
0.29522
)
;

boundaryField
{
    FrontBack
    {
        type            empty;
    }
    Top
    {
        type            calculated;
        value           uniform 0;
    }
    In
    {
        type            calculated;
        value           uniform -1;
    }
    Bottom
    {
        type            calculated;
        value           uniform 0;
    }
    Out
    {
        type            calculated;
        value           nonuniform List<scalar> 10(1.01914 1.0341 1.03011 1.02846 1.01541 1.01658 1.01872 1.02834 0.902214 0.906923);
    }
    circle
    {
        type            calculated;
        value           uniform 0;
    }
}


// ************************************************************************* //
