/*--------------------------------*- C++ -*----------------------------------*\
| =========                 |                                                 |
| \\      /  F ield         | OpenFOAM: The Open Source CFD Toolbox           |
|  \\    /   O peration     | Version:  2412                                  |
|   \\  /    A nd           | Website:  www.openfoam.com                      |
|    \\/     M anipulation  |                                                 |
\*---------------------------------------------------------------------------*/
FoamFile
{
    version     2.0;
    format      ascii;
    arch        "LSB;label=32;scalar=64";
    class       surfaceScalarField;
    location    "741.5";
    object      phi;
}
// * * * * * * * * * * * * * * * * * * * * * * * * * * * * * * * * * * * * * //

dimensions      [0 3 -1 0 0 0 0];

oriented        oriented;

internalField   nonuniform List<scalar> 
1171
(
-0.9279375240576071
0.9279375240616397
0.7874095573581914
-1.099076852341166
0.3116672949914116
-0.1918893181795732
-0.7648730594210421
0.956762377578062
0.07206248398471178
-0.1167509658859958
-0.2121456310379223
0.3288965968769151
-0.7874095711977077
0.06947159141700257
0.7179379797800053
0.8116613915835136
-0.1777766729793326
-0.6338847186127986
0.8743857023393858
-1.044024307325717
0.1696386049840604
-0.2852874529471796
-0.09727589545656203
0.3825633483873265
-0.03599736918664135
0.5488063536898109
-0.5128089844987233
-0.502864317922639
0.8245534592338245
-0.3216891412830842
-0.4020384128612737
1.046043514767854
-0.1716578125738084
0.3936668302952711
0.04794378789016095
-0.4416106182388638
1.046121654467679
-7.814036971587172e-05
0.4435592689008365
-0.04989242488839937
1.056801675683126
-0.01068002130701228
0.5782297873497131
-0.7701191057362853
-0.724412966784014
0.5569333608587145
0.167479605924781
0.2199201566752831
-0.7227844669060592
0.5506186508940383
-0.9228802922090577
0.3722616413416484
-1.094168064099185
0.686431707201385
0.4077363568873605
-0.5954952129225486
0.5594978426312333
0.01816332267004801
-0.2569441748423774
0.2387808522669208
-0.02387137149935668
-0.5212065615609407
0.5450779329247646
0.4003417283003274
-0.497617623475985
-0.9188528493595729
0.9414522392449262
-0.02259938988040328
1.067501964555139
-0.0107002894296806
0.9349587674181271
-1.116742365005437
0.1817835975841957
1.067017511416142
0.0004844535159445758
-0.664454223914809
-0.05995875611395116
1.262339609264223
-0.8642398265528204
-0.3980997827142355
0.1481646636449505
-0.1091642184497895
-0.3264584466621085
0.4356226651045947
-0.2856932739105469
0.1910820668797906
0.09461120699510275
-0.5835633535455937
-0.5155134903325178
1.014011454542186
-0.07905269337465595
0.009938376706845968
0.8254513943462511
-0.8353897710488654
0.5718788669421042
0.6904607388035852
0.4396421289090474
-0.03020056203525458
0.4305422886061374
-0.8077930472456621
-0.1025223950712507
0.9103154423155095
0.5023144380383542
0.2536763655450638
-0.7559908035762609
0.006026176524960196
0.5269090823743913
-0.5329352589580136
-0.4898789507302971
-0.6042891148967254
-0.4228207948930373
-0.6939215755698159
-0.02703406273608606
0.2700704419229514
-0.243036379200068
-0.9247094016522864
-0.005079368539912323
0.9297887701949916
0.3086077580318066
0.07395558739920303
0.7621422438180855
0.04951915764926192
-0.5331626990618961
-0.06233252025358791
0.04618165447823423
-0.8539746993537672
0.07478777998924613
0.8632208656828615
-0.9380086456670411
-0.3470682433459757
-0.04156488494269465
0.3886331283350979
-0.6821500090739437
-0.2425593899306379
-0.6325523146384424
0.707340094791384
0.6114543607524451
0.2130991061642838
-0.5430095486113501
0.9458537792076032
-0.7792360026127891
-0.1666177765879022
0.01868697886068774
-0.01805196523644748
-0.0006350134281764414
-0.4031634295572076
-0.09445419284067305
-0.2409338336488717
0.8523881978650193
0.04640792747897168
0.3356884468743428
-0.3820963743573631
-0.4603083112757704
0.9626227550392524
0.6802562438011939
-0.7827786360976488
0.3205553495597667
-0.01784627267190856
-0.3027090767017013
0.9307195492989931
-0.9307195492985382
-0.7819974394281825
0.1104468746254447
-0.3225924999337045
-0.7499954269706534
0.7599338041465635
-0.08986851469429259
-0.1432793689865536
0.2331478837022189
0.8650053585321373
-0.03955396254704144
1.054184154790092
-0.8005077805843334
0.1861149482377606
-0.3155544852829346
0.1294395370192804
0.8592837086341246
-0.09714146073476396
-0.6117641056628764
-0.03903599765800098
0.6508001033236982
0.1237318062837784
-0.2310939306280508
0.107362124399421
0.8057003348477629
-0.9834769972434597
-0.4353883361675908
0.3296563026297609
0.1057320335120844
0.5314994357235407
-0.5553707960675671
1.021985142398974
-0.4561989037996124
-0.565786238593371
0.5991643381083633
-0.7193965994076084
0.06686633536361689
0.6525302640195102
0.1032929158985285
0.5701401096677355
0.05522932811780639
-0.6253694377849711
0.1940087663011658
-0.08356189633776917
-0.4931084108579795
0.1460401635049821
0.05028354740002323
-0.8867190941008803
0.8364355466998781
-0.4732627877357062
-0.7134487073782799
0.04899447891121654
0.4371390493799733
-0.006596758399184695
0.2998187999029966
-0.85522619611747
0.555407396232479
0.4157214012461237
0.584278598748828
0.5604589437575332
-0.5142772898814114
-0.366963287316349
0.03547603620804617
0.3314872511262813
0.6813680098044881
0.2493515365090902
-0.5655123051396568
0.5715384911504645
0.1106805978496082
0.8751719350027484
0.01016781195557591
-0.6219319285213074
-0.7492517625475156
0.7995353100143838
0.5311040951159347
0.07019364053473696
0.3023750631449127
-0.3725687036896373
-0.1675429948430427
0.4419177642300501
0.0849912999755266
0.8766047895618622
-0.8004201735651393
-0.07618461598941506
0.6353207163171322
0.3105330595682496
-0.4301975044638841
0.5746406347144625
-0.5044469959293159
0.417225013914141
0.1333936329959378
-0.04682929899798931
-0.5932974428828154
-0.1372947676306683
0.7305922105080063
-0.1497716211774693
-0.7809479294408798
-0.6109844566035598
0.3607455841931286
0.2502388723773508
0.6221247988473351
-0.6119569912204755
0.2390280877497349
1.011222941685066
0.04296121514609332
-0.7492517576867548
0.2324206676907087
-0.2137336768245694
0.680256241954326
0.8019040887712238
-0.8019040887666998
0.8377246107990256
-0.8332761844230975
-0.004448426371596162
-0.4453892194242921
0.8611106225475355
-0.1474547037054683
-0.3456537106299616
0.7347000800720828
-0.6684593463000119
-0.06624073377606847
-0.7323483190711089
0.1390508740826171
0.1387032654230345
-0.6718659681276095
0.7827786382578193
-0.9503216331043268
-0.3673013564033706
0.2918926372736984
0.0754087193807997
0.1459580266072454
-1.009725603175758
0.8637675765688317
0.4812913589835893
-0.04164923007649052
-0.3081787418090973
0.5864954104701737
-0.2783166686622096
-0.7384219043218146
0.8843799322183893
-0.1571112097811323
0.7327173453467857
-0.8436897567048692
0.1109724113907226
0.9764668101464964
-0.5410705581097242
-0.4353962520308199
0.7550747952993809
-0.06499858156565839
-0.03198415222699403
0.1865556216990371
-0.1545714695400946
-0.7757812313896587
-0.8451542145807893
0.08028115612762049
-0.7499954276250025
0.5137650644654831
-0.555329951849927
0.09358844612998592
0.7201010931248304
-0.813689539251316
0.7537001816327853
0.1742373504398601
0.5028914867749469
0.4971085132245083
-0.0495642189709202
-0.6095226039193327
0.6590868228367766
0.8842544539989734
-0.007649666109399483
-0.7550747952993938
0.7995353157122499
0.1910893193048245
-0.448033499736578
0.01927982182266649
0.002800291741067746
-0.02208011343839937
0.5886483406473608
-0.4382268064462622
-0.1504215342110207
0.7179379859354909
0.01214269293430796
-0.1124368646496063
0.4370456947635741
0.1516026353275688
-0.01545339187230235
-0.005404886758927293
0.02085827857711953
-0.03201494743048704
3.083935818974908e-05
0.2436185410973049
-0.2614648004659031
-0.9590152942853474
0.001497336864993495
-0.1594799785745209
-0.1236828219623995
0.09439900127899292
0.7216889258705759
0.72905240257959
-0.144773806573897
0.6674834402957975
-0.573894993349819
-0.2117162443553314
0.3978311981935109
0.6954606873975051
0.02247729853843565
0.2416728154471761
-1.074948995252636
-0.9503216351915948
0.3020110072910639
0.7599338049450457
-0.2087060364379389
0.06542667751651024
-0.7231862645980746
0.91068344880149
-0.1874971841945877
0.4158092565304611
-0.02717613123996553
0.7714369689919157
0.2806033913620098
0.3726040944043902
0.07095515312115527
-0.6586894523081681
0.6586894523067438
0.2146006736143322
0.6957147693429959
-0.05532609193007115
0.391014526711662
0.3802965635587185
-0.01587440893482141
0.0351542403278153
0.4492176765679447
0.03207367731229305
-0.7384219056632327
0.5341084167600517
0.200591658969538
0.305031477329008
-0.1184758610755405
-0.6954606898281616
0.1802567320418724
0.7304267203672614
-0.01013859699821049
-0.8137307085797135
0.8238693055745542
0.6962909656917804
-0.7921053274070283
0.09581436170925715
-0.7537001829843125
-0.1494893023964925
0.2108134786932965
-0.06132417634603574
0.0771197052078674
-0.1799309054524837
-0.1116958630142379
0.2916267684130114
-0.01000366492451178
-0.005449730823837092
0.7063669397233154
-0.7165055375611217
0.8849966688710331
0.07176570903511742
-0.3107977486126877
-0.520815611897654
0.8316133604854905
0.10253394380137
-0.1025339438323968
0.3273686742401568
0.4791346024540425
0.6089514091650801
-1.088086011600902
-0.1941475557383636
-0.5855996832776367
0.7797472390150093
0.01210278859626618
0.221045106417928
0.3771536482602927
-0.2534218445512035
1.013262026861367
-0.5341274251815937
0.6648910181310069
0.9932366497867157
-0.3842852398980649
0.2296989363411633
0.8843799308289624
0.7127221185203253
0.2136940245778812
0.7277582160487482
-0.7809479311642633
0.341310541337778
-0.2802342248104639
0.2501323441297165
0.03010188097012483
0.8513250034711125
-0.0152318308203686
-0.8360931726518229
-0.7020420979265308
0.7025265519966944
0.5546107795940404
-0.702042097412215
-0.7127221185184186
0.7025265517663565
-0.03401288183177817
0.9037550843299864
-0.01875841850907355
-0.6813680084709679
0.6123028468860405
0.06906516158627662
0.5388902275314543
0.5380246628362756
-1.076914890370629
0.4912907592950012
0.5219712673469112
0.545320296091739
0.4595057357034789
-1.004826031791526
0.4980560543956514
0.4951805960511054
0.6123028462153214
-0.525656741154933
-0.4658272480050232
-0.5557993531159948
-0.518318678847717
-0.1235886622604231
-0.01248257282801766
0.01248257278694271
0.5106395620085697
0.5235382279742111
-1.041856906814005
0.5748653047384354
-0.2724902378667791
-0.8842823615683097
0.3432118039321124
-0.6327359215488935
0.3901765323639577
0.0006054764462584827
-0.830397971333895
0.829792494897403
0.4208736618515987
-0.02037692134004177
0.8717019266914133
-0.9433500632992393
-0.8354052227852919
0.05713781951752177
0.7782674032752113
0.5518968004693438
-0.4362785034706264
-0.1156182970198276
0.6499516429937154
-0.7290043379102112
0.8832726445420096
-0.8305833591888773
-0.05268928535324728
-0.01069019028826058
-0.7897299840753683
-0.1103510854224833
0.7161230788168255
-0.6057719933950887
-0.9384859826137238
0.927795792208036
-0.7362516742957829
0.6900350397711809
0.04621663452864103
-0.803266769226457
0.0320104330624195
0.7712563361606051
0.06165404612425897
0.04087990929055192
0.4332124371559728
0.0600774179477338
-0.8499213995394649
0.7898439816013847
-0.6429915321149391
0.5934273105972234
0.8909001289098499
0.07110826090911601
-0.9620083898026246
0.05549490378117725
-0.04858980188719098
0.3800770745596021
-0.3812870065193456
0.06573252659413327
0.8415456697080547
-0.8409401928790849
-0.7315010642741747
-0.8076336920295668
0.01790370722734718
-0.1676048442921551
-0.8497375166535834
0.01915415719511446
0.6252792545771538
0.04220418376133989
0.02037873011155933
0.5315180722275279
-0.8104521710662111
0.842462600516912
0.5657862454854915
-0.8507748930440272
-0.8673777229817959
0.03637735939220906
-0.03881513468805457
0.8361044880522776
-0.7972893533632139
-0.01994502078207776
-0.7703161988901542
0.5443294816750842
0.1519614834534477
-0.02565231660394176
0.897354242933658
0.9849336092395864
0.8606216878386495
-0.8414675298581582
0.1473340376555478
-0.147334037523888
-0.1183250976099809
-0.4743660744267636
0.03808758161224878
0.2714157715989549
0.03059523568302587
0.3847467822174529
0.8774092207015727
0.003536833675957873
-0.01354050457615567
0.6586169838699151
0.34138301612837
0.7834948778611669
-0.5835633492342741
-0.7780304808956877
-0.8125211845779758
-0.6799271631286505
0.6799271631302286
-0.1678835613433458
-0.1547089506143163
0.6014961625564792
-0.8117092250978926
0.2102130625418929
-0.4937793894069962
-0.5689320338175236
0.2781933571876632
-0.9721149360340906
-0.9002365429029405
0.8475472587079422
-0.8196352779166984
0.8375389837863463
0.6485666160761537
0.1345594015855917
-0.783126017662869
-0.766304546028905
-0.1460219954011841
0.7249374203553284
-0.5789154249597972
0.02282732209786257
-0.01472718739067605
0.01770917931268445
-0.002981991983109221
-0.3541555224848293
-0.1202105606702531
0.87968951562194
0.7374231261915382
-0.2395380609107037
-0.4978850653145284
0.6218048254604814
0.6853691070548827
-0.470768428887039
-0.00071956891564527
-0.2849737105162156
0.02154469468156743
0.7440654984713929
-0.7656101931462604
-0.3235483254861098
-0.07145303830445222
0.07553824722896364
-0.9628519121165728
0.1267587399828308
-0.6771498303122265
0.05306073483890638
0.6410268327382138
-0.6940875675863181
-0.7569583257518532
0.07980849544325302
0.5890870882933075
-0.6605401265982349
0.1559562572969317
-0.335887168746124
-0.7719918468506725
0.00568730081641118
0.3712316635140046
0.601092026723844
-0.02645139199112303
0.02414804368396435
-0.02414804354355278
-0.01788745094815239
-0.05294518788092459
-0.2272890329151155
0.01884734889131708
-0.01531047674003984
-0.7297876593153069
0.2794056703161507
0.6787045156852842
-0.6905460047039524
0.01184148901262003
-0.5983609255338543
0.6514216670838797
0.6537061168007784
-0.06461903010316475
-0.6316186633724271
-0.1253396599399439
-1.049578742979742
0.01123121307487242
0.1361028357841981
-0.7082429620318312
-0.7419697465177082
-0.7636099930711562
0.3655102077002878
-0.4107841894056684
0.470836842739818
-0.06005265328409912
-0.6786335004660745
-0.02960946157585936
0.4999692140141621
0.7306794676578438
-0.2333879917865766
0.1097051696638689
0.9571646097616925
0.4457286898305625
0.1334651196946753
-0.579193809527316
-0.6783760821113611
-0.000257420499944984
-0.04450321317240882
0.02977605217449951
0.6376192637422755
-0.7749140351929404
-0.002898521928981634
0.002898522012535125
-0.6000527244941958
0.6488529102619204
-0.04880018578986766
-0.6579973416394387
-0.1136583539945088
-0.6718096914676815
0.04928166326136352
0.6098051641693228
-0.1373865156001892
-0.8178316809887036
-0.5568503481552032
0.5698356863379043
-0.01298533834715226
0.6339079653385246
-0.6220664678827811
0.3222028754267895
0.2139615411314421
-0.5361644165555999
-0.1043504872530181
-0.6030348436194822
-0.09105271709801219
-0.1543240389790038
-0.5075686896793034
0.4043062873043038
-0.4987604829197702
0.1260611405044102
0.6785654705230786
-0.8046266110179303
0.5991643381090087
-0.3746782170958631
-0.0361059842580484
0.06202617213261419
-0.5695948620069525
0.5517183624029873
-0.04029868717071552
-0.5114196752143804
-0.3122790965409106
0.3048837779890704
0.007395318443204329
0.4515003996431238
0.1233648930902109
0.05067127932958783
-0.3158207192755458
0.1567510536919806
0.159069665565406
0.251980101945629
-0.01955942399305127
-0.2974859361361371
-0.3140062722149998
0.3671408815261742
-0.05313460963950745
0.7916497619283657
-0.6294969858803657
-0.02850035578335485
0.4995390781618041
0.2830302096216368
-0.5225682769502745
0.5774551716961061
-0.5774551716960048
-0.2897849450408348
-0.5865139698290188
-0.2955146702141676
-0.586513969781026
-0.5964981856225937
-0.8384915280706016
0.1700321756392575
-0.5914093943159792
0.821230402497095
-0.003611600103353443
0.1197562192195007
0.4813358075830083
0.09669289272746721
0.1852453111495987
-0.03611099825129344
-0.1491343128644465
-0.02157371728821413
0.5925344159300906
-0.9441908736024065
0.4233752620227746
-0.0002926956191440304
-1.948457920191426e-05
0.0003121802823768741
-0.6435344456877697
-0.1319679764283986
-0.46534083077136
0.598805950230873
-0.5037203506074519
-0.3149657884583985
-0.2546290539714102
-0.2721138398200874
-0.1119443787330971
0.1119443786347399
0.1531733990182148
0.05764007076032798
0.1964765133299237
0.4512774030775762
-0.571256620859323
0.1059157933440412
0.2498396510507905
0.4661352352660922
0.5338647647117351
0.6440985801372767
0.08018729548739162
0.002697262593474426
-0.08288455783649624
-0.2768941818424431
-0.5409374991571821
-0.5456900318246941
0.1142035748802027
-0.1261534320321898
0.01194985712526005
-0.1060149586002056
-0.3859524005635354
-0.04573764913287142
0.6555428050529775
-0.4991028285329305
-0.14443161715315
-0.3330177467187749
0.2891570722641155
0.1248202161311335
-0.6035044509292364
-0.2039945684289593
-0.2619149246183729
0.000450119274325864
-0.421343971561378
0.32166016130088
0.09968381027567626
-0.08887649689116164
0.2916322001764356
-0.8959213159634654
-0.4578898450234741
0.6339690909936032
-0.7729644625161649
0.6686139752601026
0.3424247264795657
-0.1265150151383413
0.2256776916517826
-0.09916267648707129
0.02935520581405498
-0.5861917689699285
0.02916581047056723
0.5570259585043568
-0.9007116431188449
0.5469393591031999
-0.665264456702884
-0.09664361651044236
0.1089232899147441
-0.1089232898355534
-0.3165402929288456
0.3628693811171131
0.01720769115187079
0.02214357933077696
0.05804372840024404
0.50465270673859
0.6647107487142583
-0.7408953656860436
0.02494387898109313
0.02199717039268916
0.002150879889943805
-0.006390045926645885
0.006390045855201708
-0.4125527664805215
0.535917662758474
0.01528984188719529
-0.01528984188884792
-0.7924076655919897
-0.05982641381008908
0.1214804608886488
-0.4509259102901839
0.5568417068140632
0.4493181038209718
-0.4981182982988327
0.1497835710018099
-0.1497835708672995
0.0435210752577292
-0.008366842691102367
-0.04086983853329759
-0.9772839442131362
0.5418876919279358
-0.472605420790662
0.04087991950034475
0.5146584755909055
0.03077738729471578
-0.5454358628842138
-0.6159390916014063
0.1168362676938112
-0.3297507339997037
0.01352015615630804
0.3162305779215133
-0.1536235475224406
-0.07976444961463401
-0.5407712184621266
-0.04542054960665478
0.1361028255063847
-0.04160976479114385
0.03871123131429657
0.08197300002845531
-0.08197300005291053
-0.5362691371012807
0.4831345397347934
-0.4144500888682103
0.1613217653221486
0.6221731125383686
-0.0978579999834894
-0.006438881465043912
0.006438881379410403
0.5330015540293115
-0.07198637548924391
0.006389346040948062
0.02717954419888016
0.03448987798554218
0.6888693181151461
-0.7608556936131597
-0.6633243056891222
0.6348239411395171
-0.1097360267143106
0.3129836783032502
0.7459556416711448
-0.01788745102700532
-0.2664692225742899
0.1479933533463429
-0.7446655482855575
0.4841823175741535
-0.4222339025528629
-0.1012806148408272
0.003558262648306913
-0.01469727058699568
0.02154457739888934
0.4123702408824984
-0.1216960382706104
-0.3897236412822126
0.6290600092694864
0.01887258921861937
0.009758762911080226
-0.009758762849155334
-0.357470548195071
-0.08499173616857471
-0.560613733064849
0.5570021329578403
-0.2382108680361944
0.4647993698222459
-0.1506851744058701
0.7289149611741732
0.6723429130147714
-0.04160976341484927
-0.6152566046316778
0.5599060483542623
0.285513565834608
-0.2829426770686993
-0.002570888589113759
0.5459474488415023
0.0934131948066545
-0.03874920006460374
0.1971737491609568
-0.1584245490985299
0.1207222063963994
-0.1207222064971133
-0.8587169792000623
0.002449536085155584
-0.1129146214632011
0.1400941657001817
-0.131961948549931
0.1319619484248984
0.02199716648107361
-0.02432632607600517
0.6713015889143463
0.05912513204500106
-0.3231436743773189
-0.06280872614341756
-0.4712743149391713
-0.0475041797530262
-0.1517626735992465
0.1517626734485125
-0.03936348912939344
0.1432376914233646
-0.1432376912771659
0.1369195871948075
-0.1369195873134197
-0.3157035172573355
-0.1144939872030181
0.2265828680779306
0.1030734343007664
0.03484767432503102
-0.8211714109522927
-0.1972129254937794
0.1703044756306285
0.02078484362259979
-0.2653877118067509
0.125777086072922
-0.1257770859445138
-0.4141024290774886
-0.08465805676597618
0.2365027565419849
0.002278094353064261
0.04036322978166662
-0.5437038627772033
0.577716744609567
-0.02336640759111328
-0.01599708131516752
-0.02727712118632316
0.01891027396702698
0.006545868769884626
-0.1842235518047325
0.1776776830566331
-0.1075778138445964
-0.2283093590284904
-0.144823918796518
0.1448239186473386
0.07286718743760559
-0.07286718752197706
-0.01939312383235987
-0.1086970076040795
0.1280901314965105
0.2392646478394773
-0.1828395608271744
-0.02196189245763889
0.0241127634612795
-0.1349610634555954
0.6180956145121593
-0.039077200747372
0.4218806354738908
-0.04107432042202873
0.06193257957115918
-0.1535985613119769
0.1535985611589096
-0.6360986423694512
0.3088936915707767
-0.07919475509148127
-0.234719279329332
0.003625339638530224
-0.1228137286056355
0.1631769583694438
0.193933442603256
0.09769331650305228
0.09464615861438035
-0.06015628068130286
0.07263837986869401
0.04156518638739939
0.06388555819846824
0.1064189112991204
-0.09694216487321772
0.2066473427821822
0.01265729253027401
-0.1122526583775979
-0.1027255062880678
0.09766968710148902
0.005055819325599094
0.01223839172411199
-0.0222017198185534
0.03775582997618139
-0.03775582999151679
0.07436001752299887
-0.0548473961636381
0.05484739614200256
-0.22453595707415
-0.05032005553741745
0.01159009563415029
-0.1031678710382876
0.01619737517319346
0.1083624203185314
-0.1083624202395179
0.2936172581714984
-0.2714286635162529
0.1638508471087577
-0.05036502865561598
-0.2210636485895333
-0.01742839811047855
0.01742839815500398
0.3672746535705453
0.2852556036338709
-0.5274197661958455
-0.09397956577715429
-0.03217387682252906
0.5285964152232737
0.2119875149639548
-0.1687759071251451
-0.3822262643503558
0.07656485420898433
-0.1477729069853414
0.1873724230612092
-0.03959951612278798
-0.06679724550217933
0.06679724556540474
0.8225204958811394
-0.5605603951320318
-0.00206346670529396
0.01430185858870367
-0.02001757165664212
-0.2866769226011233
-0.01746060563207246
-0.01286197894692247
-0.1317862413725507
-0.5720490395538493
0.5559323720822724
-0.5687741278444604
-0.006938751535387365
0.1006876462400125
-0.001835893307425736
0.0166789811465877
-0.167790483677263
-0.3366455620931156
0.2334776910780061
-0.05450447096270995
0.03511135465682912
0.1318821129817425
0.173001664883623
0.3372426023733385
0.2767232570326122
-0.2785591502744745
-0.06401427175365829
-0.1547948161110561
-0.2211991256973368
0.07483191332852172
-0.01094635179084842
0.2142074864140896
-0.1975285052377609
-0.08623852463530811
0.1588768989402637
-0.3548125962632144
0.2087895780434879
-0.1925922028944804
0.08966599094965726
-0.4793896338421689
0.1745104329725691
0.1699336375312008
-0.2561721643672252
0.07244444434209549
-0.1942888367329648
0.1768282310807338
0.01741466575824218
0.1414622400224334
-0.03955756740463957
0.06630142919023192
0.4667001248206114
0.02032743412801499
-0.07631161939426236
0.05690177476048107
0.1253968953258256
-0.2607986431964791
-0.2309135346734346
0.5596978370003849
0.1577252194110227
0.07877754079124173
0.07577186273286676
-0.03099290229900681
-0.00289375678106352
0.0003228267157295007
-0.03271823350262858
0.1711970267718528
-0.1781357782744319
-0.05476704188106437
0.02204930169924145
-0.1466847821492208
-0.05282659957606721
0.1518803084800233
0.2770907312248889
-0.03980153790537477
0.01601653328536593
-0.2554854943814169
-0.1300845103163221
0.235666160496459
0.1792615797861664
0.1296321181689486
0.0216152854754978
0.08901293836710916
0.05198210424489191
0.4526706024970722
0.01771310708174353
0.09710249733007321
0.04366458791078506
0.07173144913104455
-0.11539603714892
-0.2421641650474782
-0.2008768625511703
-0.0201867885908869
-0.2022989024982887
0.2756722835936758
)
;

boundaryField
{
    FrontBack
    {
        type            empty;
    }
    Top
    {
        type            calculated;
        value           uniform 0;
    }
    In
    {
        type            calculated;
        value           uniform -1;
    }
    Bottom
    {
        type            calculated;
        value           uniform 0;
    }
    Out
    {
        type            calculated;
        value           nonuniform List<scalar> 10(1.036611054934537 1.064546968982536 1.021626601121617 1.020027321949834 0.9975303982626132 1.013499274741914 1.034177790657759 1.062711423229297 0.8672401164135851 0.8820286400388118);
    }
    circle
    {
        type            calculated;
        value           uniform 0;
    }
}


// ************************************************************************* //
