/*--------------------------------*- C++ -*----------------------------------*\
| =========                 |                                                 |
| \\      /  F ield         | OpenFOAM: The Open Source CFD Toolbox           |
|  \\    /   O peration     | Version:  2412                                  |
|   \\  /    A nd           | Website:  www.openfoam.com                      |
|    \\/     M anipulation  |                                                 |
\*---------------------------------------------------------------------------*/
FoamFile
{
    version     2.0;
    format      ascii;
    arch        "LSB;label=32;scalar=64";
    class       volVectorField;
    location    "1";
    object      cellDisplacement;
}
// * * * * * * * * * * * * * * * * * * * * * * * * * * * * * * * * * * * * * //

dimensions      [0 1 0 0 0 0 0];

internalField   nonuniform List<vector> 
256
(
(0.00279218 0.0222874 0)
(-0.000650262 0.0225792 0)
(-0.00371298 0.0212987 0)
(-0.00580409 0.018657 0)
(-0.00659483 0.0151161 0)
(-0.00608004 0.0111585 0)
(-0.00451087 0.00716679 0)
(-0.00226763 0.00333482 0)
(0.00700907 0.0661486 0)
(-0.00262899 0.0666708 0)
(-0.0111311 0.0632176 0)
(-0.0171186 0.0563244 0)
(-0.019816 0.0470445 0)
(-0.0191547 0.0365376 0)
(-0.0156122 0.0256815 0)
(-0.00993676 0.0149386 0)
(0.00974473 0.108006 0)
(-0.00530493 0.108327 0)
(-0.0184887 0.102948 0)
(-0.0279753 0.0927251 0)
(-0.0327434 0.0790895 0)
(-0.0326509 0.0635385 0)
(-0.028237 0.0472673 0)
(-0.0203546 0.0308387 0)
(0.0110611 0.148026 0)
(-0.00874463 0.147821 0)
(-0.0260173 0.140764 0)
(-0.0386961 0.127961 0)
(-0.0456391 0.111048 0)
(-0.0466618 0.0917409 0)
(-0.0422683 0.0713534 0)
(-0.0333034 0.0504693 0)
(0.0109498 0.186351 0)
(-0.0130659 0.185416 0)
(-0.0339589 0.176888 0)
(-0.0495935 0.162101 0)
(-0.0587925 0.142794 0)
(-0.0613428 0.120771 0)
(-0.057695 0.097406 0)
(-0.0486471 0.0732452 0)
(0.00934761 0.223125 0)
(-0.0184217 0.221313 0)
(-0.0425897 0.211576 0)
(-0.0610111 0.195277 0)
(-0.0725258 0.174248 0)
(-0.0769101 0.150314 0)
(-0.0745962 0.124928 0)
(-0.0663269 0.098529 0)
(0.00612415 0.258482 0)
(-0.0250415 0.255754 0)
(-0.0521939 0.244941 0)
(-0.0732564 0.227488 0)
(-0.0871545 0.205297 0)
(-0.0936408 0.180109 0)
(-0.0931334 0.153436 0)
(-0.0863873 0.125698 0)
(0.00106616 0.292596 0)
(-0.0331652 0.288824 0)
(-0.0630385 0.276976 0)
(-0.0866494 0.258651 0)
(-0.10299 0.235702 0)
(-0.111844 0.209835 0)
(-0.113538 0.182462 0)
(-0.108952 0.154078 0)
(-0.00609612 0.325496 0)
(-0.0430765 0.320506 0)
(-0.0754763 0.307699 0)
(-0.101565 0.288691 0)
(-0.120431 0.265281 0)
(-0.131859 0.239112 0)
(-0.136157 0.211504 0)
(-0.134275 0.182976 0)
(-0.0156981 0.357092 0)
(-0.0551601 0.350784 0)
(-0.089935 0.337055 0)
(-0.11847 0.31748 0)
(-0.139941 0.293777 0)
(-0.154163 0.26752 0)
(-0.161424 0.239986 0)
(-0.1627 0.211614 0)
(-0.0282302 0.387298 0)
(-0.0699412 0.379577 0)
(-0.106959 0.364905 0)
(-0.137921 0.344786 0)
(-0.162099 0.32083 0)
(-0.179333 0.294546 0)
(-0.189873 0.267159 0)
(-0.194784 0.239061 0)
(-0.0443735 0.415975 0)
(-0.0880886 0.40666 0)
(-0.127219 0.390947 0)
(-0.160622 0.370222 0)
(-0.187657 0.345927 0)
(-0.208133 0.319464 0)
(-0.222286 0.292042 0)
(-0.231265 0.264078 0)
(-0.0649397 0.442525 0)
(-0.110316 0.431407 0)
(-0.151441 0.414467 0)
(-0.187342 0.392957 0)
(-0.217405 0.368134 0)
(-0.24144 0.341206 0)
(-0.259675 0.313255 0)
(-0.273144 0.284778 0)
(-0.0907448 0.465891 0)
(-0.137471 0.452737 0)
(-0.180491 0.434311 0)
(-0.218951 0.411628 0)
(-0.252278 0.385759 0)
(-0.280298 0.357711 0)
(-0.303099 0.328455 0)
(-0.321561 0.298387 0)
(-0.122312 0.483903 0)
(-0.169854 0.468467 0)
(-0.214418 0.448277 0)
(-0.255361 0.423972 0)
(-0.292227 0.396303 0)
(-0.324757 0.366009 0)
(-0.352899 0.333812 0)
(-0.377134 0.300011 0)
(-0.157447 0.491129 0)
(-0.204828 0.473331 0)
(-0.250236 0.450975 0)
(-0.293235 0.424276 0)
(-0.333409 0.393491 0)
(-0.370372 0.358917 0)
(-0.403769 0.320886 0)
(-0.433277 0.279764 0)
(-0.00216809 0.0033653 0)
(-0.00423653 0.00617587 0)
(-0.00646152 0.00831168 0)
(-0.00897373 0.00969617 0)
(-0.0118157 0.0102378 0)
(-0.0148928 0.00982557 0)
(-0.0179494 0.00838765 0)
(-0.0205647 0.00595856 0)
(-0.00979926 0.0147976 0)
(-0.015865 0.0220215 0)
(-0.0224484 0.0271709 0)
(-0.0298397 0.0301227 0)
(-0.0380332 0.0306435 0)
(-0.0466711 0.0285042 0)
(-0.0549792 0.0236005 0)
(-0.0618263 0.0161639 0)
(-0.0203996 0.0301531 0)
(-0.0301942 0.0403719 0)
(-0.0409082 0.0472138 0)
(-0.0528798 0.0505802 0)
(-0.0659534 0.0501252 0)
(-0.0794245 0.0455403 0)
(-0.0920184 0.0367911 0)
(-0.102092 0.0244145 0)
(-0.03388 0.0489573 0)
(-0.0471771 0.0607803 0)
(-0.0618055 0.0680901 0)
(-0.0780316 0.0708091 0)
(-0.0954491 0.0684953 0)
(-0.112993 0.0608457 0)
(-0.128929 0.0479666 0)
(-0.141331 0.0307847 0)
(-0.0501639 0.0706495 0)
(-0.066782 0.082778 0)
(-0.0850924 0.0894018 0)
(-0.105191 0.0904847 0)
(-0.126385 0.0855345 0)
(-0.147232 0.0743053 0)
(-0.165673 0.0571284 0)
(-0.179458 0.0352764 0)
(-0.069229 0.0946543 0)
(-0.08899 0.105844 0)
(-0.110738 0.110729 0)
(-0.134292 0.109277 0)
(-0.158635 0.100995 0)
(-0.182002 0.0857619 0)
(-0.202146 0.0642069 0)
(-0.216504 0.0378753 0)
(-0.0911005 0.12034 0)
(-0.113865 0.129481 0)
(-0.138737 0.131609 0)
(-0.165262 0.126804 0)
(-0.192112 0.114598 0)
(-0.217249 0.0950501 0)
(-0.238215 0.0690562 0)
(-0.252514 0.0384864 0)
(-0.115891 0.147041 0)
(-0.141485 0.153096 0)
(-0.169155 0.151575 0)
(-0.198131 0.142667 0)
(-0.226769 0.12601 0)
(-0.252862 0.101909 0)
(-0.273857 0.0715092 0)
(-0.28754 0.0369434 0)
(-0.143774 0.173997 0)
(-0.171975 0.175967 0)
(-0.202057 0.169987 0)
(-0.232864 0.156325 0)
(-0.262526 0.134799 0)
(-0.288723 0.105978 0)
(-0.309064 0.0712808 0)
(-0.321685 0.0329737 0)
(-0.175051 0.200347 0)
(-0.205548 0.197279 0)
(-0.237511 0.186052 0)
(-0.269434 0.167054 0)
(-0.299285 0.140357 0)
(-0.324797 0.106789 0)
(-0.343863 0.0679626 0)
(-0.354901 0.0262151 0)
(-0.210156 0.225021 0)
(-0.242532 0.216006 0)
(-0.275717 0.198804 0)
(-0.30791 0.173996 0)
(-0.337052 0.141939 0)
(-0.361043 0.103685 0)
(-0.378114 0.0610033 0)
(-0.386997 0.0161946 0)
(-0.249744 0.246675 0)
(-0.283408 0.230794 0)
(-0.316948 0.20694 0)
(-0.348371 0.175944 0)
(-0.375722 0.138484 0)
(-0.397221 0.095792 0)
(-0.411519 0.0496631 0)
(-0.417804 0.00221611 0)
(-0.294644 0.263167 0)
(-0.328682 0.239536 0)
(-0.361361 0.208507 0)
(-0.390663 0.171217 0)
(-0.414954 0.128605 0)
(-0.432915 0.0819348 0)
(-0.443663 0.032885 0)
(-0.446818 -0.0166605 0)
(-0.345758 0.271234 0)
(-0.3787 0.238997 0)
(-0.408682 0.200572 0)
(-0.434053 0.157321 0)
(-0.453749 0.110254 0)
(-0.467042 0.0605623 0)
(-0.473473 0.0095691 0)
(-0.472998 -0.0413168 0)
(-0.403306 0.265462 0)
(-0.432543 0.224515 0)
(-0.457047 0.179565 0)
(-0.476176 0.131657 0)
(-0.489584 0.081643 0)
(-0.497055 0.0303381 0)
(-0.498515 -0.021359 0)
(-0.494051 -0.0725387 0)
(-0.458612 0.235949 0)
(-0.479531 0.189861 0)
(-0.495832 0.141944 0)
(-0.507357 0.0926605 0)
(-0.513996 0.0424847 0)
(-0.515685 -0.00810036 0)
(-0.512408 -0.0586074 0)
(-0.504196 -0.10855 0)
)
;

boundaryField
{
    walls
    {
        type            cellMotion;
        value           uniform (0 0 0);
    }
    cylinder
    {
        type            cellMotion;
        value           nonuniform List<vector> 
16
(
(-0.157447 0.491129 0)
(-0.204828 0.473331 0)
(-0.250236 0.450975 0)
(-0.293235 0.424276 0)
(-0.333409 0.393491 0)
(-0.370372 0.358917 0)
(-0.403769 0.320886 0)
(-0.433277 0.279764 0)
(-0.458612 0.235949 0)
(-0.479531 0.189861 0)
(-0.495832 0.141944 0)
(-0.507357 0.0926605 0)
(-0.513996 0.0424847 0)
(-0.515685 -0.00810036 0)
(-0.512408 -0.0586074 0)
(-0.504196 -0.10855 0)
)
;
    }
    outlet
    {
        type            cellMotion;
        value           uniform (0 0 0);
    }
    inlet
    {
        type            cellMotion;
        value           nonuniform List<vector> 0();
    }
    frontAndBack
    {
        type            empty;
    }
    procBoundary3to1
    {
        type            processor;
        value           nonuniform List<vector> 
16
(
(0.00596075 0.0205618 0)
(0.0161717 0.061817 0)
(0.0244283 0.102076 0)
(0.0308045 0.14131 0)
(0.0353016 0.179433 0)
(0.0379046 0.216477 0)
(0.0385184 0.252487 0)
(0.0369765 0.287514 0)
(0.0330059 0.321662 0)
(0.0262453 0.354881 0)
(0.0162206 0.386981 0)
(0.00223736 0.417794 0)
(-0.0166461 0.446812 0)
(-0.0413092 0.472996 0)
(-0.0725363 0.494051 0)
(-0.10855 0.504196 0)
)
;
    }
    procBoundary3to2
    {
        type            processor;
        value           nonuniform List<vector> 
16
(
(-0.0222922 0.00278847 0)
(-0.0661626 0.00699693 0)
(-0.108028 0.00972427 0)
(-0.148053 0.0110332 0)
(-0.186382 0.0109156 0)
(-0.223158 0.00930912 0)
(-0.258513 0.0060833 0)
(-0.292625 0.00102528 0)
(-0.325522 -0.00613503 0)
(-0.357113 -0.0157326 0)
(-0.387314 -0.028259 0)
(-0.415986 -0.0443945 0)
(-0.44253 -0.0649533 0)
(-0.465893 -0.0907514 0)
(-0.483904 -0.122314 0)
(-0.491129 -0.157447 0)
)
;
    }
}


// ************************************************************************* //
