/*--------------------------------*- C++ -*----------------------------------*\
| =========                 |                                                 |
| \\      /  F ield         | OpenFOAM: The Open Source CFD Toolbox           |
|  \\    /   O peration     | Version:  2412                                  |
|   \\  /    A nd           | Website:  www.openfoam.com                      |
|    \\/     M anipulation  |                                                 |
\*---------------------------------------------------------------------------*/
FoamFile
{
    version     2.0;
    format      ascii;
    arch        "LSB;label=32;scalar=64";
    class       surfaceScalarField;
    location    "1";
    object      meshPhi;
}
// * * * * * * * * * * * * * * * * * * * * * * * * * * * * * * * * * * * * * //

dimensions      [0 3 -1 0 0 0 0];

internalField   nonuniform List<scalar> 
480
(
0.00038084
-0.00108073
0.000400889
-0.000784164
0.000422025
-0.000455731
0.000409399
-0.000181904
0.000337448
-2.46301e-05
0.000256729
5.75613e-05
0.000165502
0.000130011
0.000163067
9.39921e-05
0.00110531
-0.0019072
0.00116353
-0.00136657
0.00124438
-0.000786793
0.00121584
-0.000315828
0.00100895
-5.54196e-05
0.000789507
8.64061e-05
0.000521141
0.000198314
0.000219507
0.000314598
0.00176456
-0.00253564
0.0018523
-0.00179674
0.00203247
-0.00101772
0.0020059
-0.000411786
0.00166473
-0.000108038
0.00134872
7.25969e-05
0.000927076
0.000210789
0.000201108
0.000611545
0.0023717
-0.00295289
0.00246436
-0.00206869
0.00267331
-0.00122267
0.00264766
-0.000625654
0.00227109
-0.000267494
0.00191415
1.06823e-05
0.00138397
0.000180508
0.000137815
0.000997711
0.00294248
-0.00322445
0.00301209
-0.00226966
0.00304518
-0.00146215
0.00299322
-0.000912542
0.00279866
-0.000455436
0.00246607
-6.74708e-05
0.00189208
0.000118584
5.20822e-05
0.00148017
0.00349036
-0.00333912
0.0035433
-0.0023615
0.00339974
-0.00156332
0.00331383
-0.000979404
0.00330096
-0.000480342
0.00300972
-0.000107642
0.0024486
5.13884e-05
-3.82938e-05
0.00206021
0.00402968
-0.00330926
0.00409038
-0.00232852
0.00397205
-0.00151282
0.00388919
-0.000890907
0.00385613
-0.000420615
0.00357514
-0.000116798
0.00305783
9.2685e-07
-0.000115876
0.00273642
0.00457102
-0.00315232
0.00464247
-0.00219004
0.00461576
-0.00139863
0.00455957
-0.000796713
0.00446031
-0.000364671
0.00419445
-0.00010768
0.00374525
-2.55475e-05
-0.000164395
0.00352804
0.00511403
-0.00286947
0.00518877
-0.00194927
0.00520955
-0.00122062
0.00518207
-0.00067557
0.00509181
-0.000292825
0.00488178
-8.17166e-05
0.00454179
-3.16317e-05
-0.000186118
0.00446012
0.00566421
-0.00254511
0.00573199
-0.00168148
0.00578023
-0.00101295
0.00579576
-0.000528807
0.00576323
-0.000204762
0.00565659
-3.53008e-05
0.00547695
-1.14919e-05
-0.000175016
0.00555674
0.00622729
-0.00219193
0.00628572
-0.0014109
0.0063643
-0.000806237
0.00644179
-0.000379967
0.00650755
-0.000103785
0.0065538
2.82817e-05
0.00657794
2.70148e-05
-0.000139118
0.00684795
0.0068128
-0.00173391
0.00687609
-0.00110193
0.00699944
-0.000597867
0.00716866
-0.000236667
0.00736967
-1.09905e-05
0.00759608
8.63865e-05
0.00785081
6.90924e-05
-8.64738e-05
0.00832917
0.00739739
-0.00116457
0.00749755
-0.000724085
0.00769444
-0.000354673
0.00798591
-7.7394e-05
0.00834793
8.92652e-05
0.00876917
0.000156546
0.00925419
0.000140454
2.23708e-05
0.00993305
0.00793068
-0.000540484
0.00809538
-0.000272885
0.00838992
-4.20976e-05
0.00881317
0.000137843
0.00934514
0.00025124
0.00996718
0.000304934
0.010672
0.000309498
0.00025442
0.0115279
0.00833206
6.93842e-05
0.00856896
0.000193559
0.00896428
0.000301133
0.00950639
0.000389868
0.0101827
0.000457658
0.0109729
0.000504873
0.0118519
0.000532235
0.000538929
0.0128096
0.00766448
0.00798025
0.00843574
0.00901109
0.00968744
0.0104403
0.0112371
0.0120364
7.66383e-05
-0.000352115
0.000100909
-0.000564953
0.000137547
-0.000872546
0.000174797
-0.00115288
0.000208022
-0.00137972
0.000241103
-0.00152606
0.000276093
-0.00157466
-0.0015162
0.000276444
-0.000889003
0.000353783
-0.00128203
0.000449471
-0.0018066
0.000549317
-0.00225168
0.000643546
-0.00259857
0.000733567
-0.00281085
0.000827466
-0.00285168
-0.0027119
0.000573756
-0.00157974
0.000697723
-0.00210886
0.000830038
-0.00275369
0.000972642
-0.0032815
0.00111202
-0.00367868
0.00124212
-0.00389618
0.001378
-0.00388896
-0.00364597
0.000967603
-0.0023455
0.00113478
-0.00296867
0.00129114
-0.00367641
0.00145532
-0.00421142
0.00162019
-0.00457312
0.00177528
-0.00473294
0.00193762
-0.00464246
-0.00428822
0.00146042
-0.00314934
0.00166888
-0.00383351
0.00184128
-0.00454367
0.00200768
-0.00503454
0.00217566
-0.00531246
0.00234295
-0.00537329
0.00251505
-0.00517944
-0.00471004
0.0020524
-0.00391876
0.00229525
-0.00462639
0.00248169
-0.00530318
0.00263627
-0.00571613
0.00278245
-0.00585863
0.00294289
-0.00577011
0.00310681
-0.0054529
-0.00488934
0.00274305
-0.00461324
0.00301285
-0.00531691
0.00320644
-0.00591713
0.00334418
-0.00622342
0.00345321
-0.00622225
0.00357673
-0.00596791
0.00370771
-0.00551317
-0.00486343
0.00354059
-0.00520363
0.00381312
-0.00585133
0.00400564
-0.00633113
0.0041278
-0.00651764
0.0041918
-0.00637778
0.00424748
-0.00596747
0.0043195
-0.00538017
-0.00465705
0.00444974
-0.00564997
0.00468818
-0.00618915
0.00485414
-0.00649159
0.00495642
-0.00652468
0.00497585
-0.00626691
0.00495205
-0.00574596
0.00495341
-0.00506446
-0.00429063
0.00549429
-0.00590925
0.00565015
-0.00630086
0.005743
-0.00639186
0.00579295
-0.00624558
0.00576577
-0.00587875
0.00568093
-0.00531335
0.00561938
-0.00461113
-0.00383496
0.00670219
-0.00593036
0.00673248
-0.00617158
0.00669505
-0.00606214
0.00662127
-0.00572826
0.00651838
-0.00523865
0.00639186
-0.00464454
0.00628711
-0.00397655
-0.00327361
0.00807259
-0.00560305
0.00793914
-0.00570321
0.00771863
-0.00542838
0.00746347
-0.00495107
0.00723614
-0.004363
0.0070534
-0.00374542
0.00692063
-0.003139
-0.00254421
0.00953743
-0.00475957
0.0091971
-0.00473165
0.00876885
-0.00435852
0.00831832
-0.00383527
0.00793823
-0.0032496
0.007666
-0.002681
0.0074977
-0.00216599
-0.0016967
0.0109654
-0.00328335
0.010386
-0.00319009
0.00973477
-0.00283257
0.00910571
-0.0023951
0.00858642
-0.0019457
0.00822013
-0.00153186
0.00800122
-0.00116852
-0.000850696
0.0120345
-0.00125026
0.0111928
-0.00115701
0.0103558
-0.000973093
0.00961327
-0.00076812
0.00901899
-0.000567118
0.00859965
-0.000383215
0.00835123
-0.000218371
-6.94908e-05
0.0110284
0.0100678
0.0092248
0.00853445
0.00801457
0.00767095
0.00750331
)
;

boundaryField
{
    walls
    {
        type            calculated;
        value           uniform 0;
    }
    cylinder
    {
        type            calculated;
        value           nonuniform List<scalar> 
16
(
1.7026e-12
-2.0897e-12
-6.92476e-13
1.26247e-12
-3.55262e-12
2.57483e-12
3.98697e-12
-2.01752e-12
2.0182e-12
-3.98439e-12
-2.57325e-12
3.55304e-12
-1.26102e-12
6.94056e-13
2.09138e-12
-1.70164e-12
)
;
    }
    outlet
    {
        type            calculated;
        value           uniform 0;
    }
    inlet
    {
        type            calculated;
        value           nonuniform List<scalar> 0();
    }
    frontAndBack
    {
        type            empty;
    }
    procBoundary3to1
    {
        type            processor;
        value           nonuniform List<scalar> 
16
(
-0.000332331
-0.000979006
-0.00159365
-0.0021857
-0.00276286
-0.00332846
-0.00388604
-0.00444559
-0.00501662
-0.00560926
-0.00621543
-0.00681984
-0.0073922
-0.00789618
-0.00825868
-0.00750261
)
;
    }
    procBoundary3to2
    {
        type            processor;
        value           nonuniform List<scalar> 
16
(
0.000320815
0.000944532
0.00153833
0.00211513
0.00268543
0.00325379
0.00382275
0.00440046
0.00499392
0.00561016
0.00623724
0.00685122
0.00742207
0.00792011
0.00827115
0.00750491
)
;
    }
}


// ************************************************************************* //
