/*--------------------------------*- C++ -*----------------------------------*\
| =========                 |                                                 |
| \\      /  F ield         | OpenFOAM: The Open Source CFD Toolbox           |
|  \\    /   O peration     | Version:  2412                                  |
|   \\  /    A nd           | Website:  www.openfoam.com                      |
|    \\/     M anipulation  |                                                 |
\*---------------------------------------------------------------------------*/
FoamFile
{
    version     2.0;
    format      ascii;
    arch        "LSB;label=32;scalar=64";
    class       pointVectorField;
    location    "1";
    object      pointDisplacement;
}
// * * * * * * * * * * * * * * * * * * * * * * * * * * * * * * * * * * * * * //

dimensions      [0 1 0 0 0 0 0];

internalField   nonuniform List<vector> 
578
(
(0 0 0)
(0 0 0)
(0 0 0)
(0 0 0)
(0 0 0)
(0 0 0)
(0 0 0)
(0 0 0)
(0 0 0)
(0.00801367 0.0427421 0)
(0.00164725 0.04448 0)
(-0.00453246 0.0435119 0)
(-0.00946028 0.0399437 0)
(-0.0123613 0.034341 0)
(-0.0129377 0.0274973 0)
(-0.0113536 0.0201432 0)
(-0.00807661 0.0127616 0)
(-0.00589251 0.00888263 0)
(0.0143636 0.0845529 0)
(0.0022167 0.0873434 0)
(-0.00939176 0.0853536 0)
(-0.0186948 0.078866 0)
(-0.024438 0.0688505 0)
(-0.0261182 0.0565938 0)
(-0.0239362 0.0432807 0)
(-0.0185486 0.0296913 0)
(-0.0149282 0.022394 0)
(0.0190286 0.124897 0)
(0.00169532 0.128097 0)
(-0.0146445 0.125021 0)
(-0.0278094 0.116155 0)
(-0.0362856 0.102758 0)
(-0.0394503 0.0863999 0)
(-0.0374817 0.0685112 0)
(-0.0310679 0.0500153 0)
(-0.0267546 0.0397741 0)
(0.0220414 0.163823 0)
(5.10779e-05 0.166951 0)
(-0.0204544 0.162772 0)
(-0.0370808 0.151978 0)
(-0.0482004 0.136025 0)
(-0.0531345 0.116636 0)
(-0.0520214 0.0953611 0)
(-0.0455142 0.0731685 0)
(-0.0412404 0.0604754 0)
(0.0233817 0.20139 0)
(-0.00280111 0.204095 0)
(-0.0270187 0.198842 0)
(-0.0468023 0.186504 0)
(-0.0604992 0.16865 0)
(-0.0674168 0.147079 0)
(-0.0676661 0.123401 0)
(-0.0618562 0.0985873 0)
(-0.0583104 0.0839065 0)
(0.0229738 0.237684 0)
(-0.00700508 0.239708 0)
(-0.0345728 0.233435 0)
(-0.0572764 0.21986 0)
(-0.073504 0.200619 0)
(-0.0825802 0.177537 0)
(-0.0845995 0.152244 0)
(-0.0801514 0.125712 0)
(-0.0779606 0.109449 0)
(0.0206664 0.272809 0)
(-0.0127644 0.27395 0)
(-0.043372 0.266658 0)
(-0.0687978 0.252049 0)
(-0.0875283 0.231822 0)
(-0.098928 0.207777 0)
(-0.103067 0.181506 0)
(-0.100541 0.153982 0)
(-0.100267 0.136452 0)
(0.0162288 0.306853 0)
(-0.0203307 0.306888 0)
(-0.053702 0.298531 0)
(-0.0816948 0.283034 0)
(-0.102923 0.262115 0)
(-0.116799 0.23752 0)
(-0.123375 0.210771 0)
(-0.123264 0.182815 0)
(-0.125395 0.164216 0)
(0.0093509 0.339817 0)
(-0.0300222 0.338498 0)
(-0.0659248 0.329036 0)
(-0.0963731 0.312757 0)
(-0.120114 0.291337 0)
(-0.136614 0.266457 0)
(-0.145923 0.239569 0)
(-0.148666 0.211573 0)
(-0.153612 0.191968 0)
(-0.000382147 0.371594 0)
(-0.0422728 0.368712 0)
(-0.0805113 0.358102 0)
(-0.113331 0.341079 0)
(-0.139618 0.319244 0)
(-0.158897 0.294198 0)
(-0.171216 0.267336 0)
(-0.177215 0.2395 0)
(-0.18533 0.218795 0)
(-0.0135558 0.402039 0)
(-0.0576745 0.397399 0)
(-0.0980637 0.385541 0)
(-0.133189 0.367734 0)
(-0.162082 0.345463 0)
(-0.184314 0.320217 0)
(-0.199918 0.293331 0)
(-0.209562 0.265622 0)
(-0.221143 0.243551 0)
(-0.030953 0.430799 0)
(-0.0769464 0.424159 0)
(-0.119277 0.410885 0)
(-0.156662 0.392164 0)
(-0.188259 0.369328 0)
(-0.213661 0.343704 0)
(-0.232887 0.316516 0)
(-0.246589 0.288568 0)
(-0.261862 0.264583 0)
(-0.0534364 0.457075 0)
(-0.100886 0.448153 0)
(-0.144939 0.433242 0)
(-0.184559 0.413353 0)
(-0.218992 0.389634 0)
(-0.247849 0.363221 0)
(-0.271119 0.335178 0)
(-0.289349 0.306245 0)
(-0.308461 0.279372 0)
(-0.0817603 0.479224 0)
(-0.130119 0.467758 0)
(-0.175571 0.450955 0)
(-0.217308 0.429556 0)
(-0.254698 0.404428 0)
(-0.287376 0.376463 0)
(-0.315241 0.34652 0)
(-0.338637 0.315197 0)
(-0.361686 0.283824 0)
(-0.11528 0.493329 0)
(-0.163664 0.479212 0)
(-0.209877 0.460265 0)
(-0.253347 0.436879 0)
(-0.293588 0.409517 0)
(-0.330221 0.378689 0)
(-0.362985 0.344917 0)
(-0.391817 0.308629 0)
(-0.418077 0.270321 0)
(-0.13332 0.498864 0)
(-0.181575 0.483394 0)
(-0.228081 0.463269 0)
(-0.272391 0.438682 0)
(-0.314078 0.409871 0)
(-0.35274 0.377112 0)
(-0.388005 0.340722 0)
(-0.419533 0.30105 0)
(-0.447021 0.258479 0)
(0 0 0)
(0 0 0)
(0 0 0)
(0 0 0)
(0 0 0)
(0 0 0)
(0 0 0)
(0 0 0)
(0 0 0)
(0.00801367 0.0427421 0)
(0.00164725 0.04448 0)
(-0.00453246 0.0435119 0)
(-0.00946028 0.0399437 0)
(-0.0123613 0.034341 0)
(-0.0129377 0.0274973 0)
(-0.0113536 0.0201432 0)
(-0.00807661 0.0127616 0)
(-0.00589251 0.00888263 0)
(0.0143636 0.0845529 0)
(0.0022167 0.0873434 0)
(-0.00939176 0.0853536 0)
(-0.0186948 0.078866 0)
(-0.024438 0.0688505 0)
(-0.0261182 0.0565938 0)
(-0.0239362 0.0432807 0)
(-0.0185486 0.0296913 0)
(-0.0149282 0.022394 0)
(0.0190286 0.124897 0)
(0.00169532 0.128097 0)
(-0.0146445 0.125021 0)
(-0.0278094 0.116155 0)
(-0.0362856 0.102758 0)
(-0.0394503 0.0863999 0)
(-0.0374817 0.0685112 0)
(-0.0310679 0.0500153 0)
(-0.0267546 0.0397741 0)
(0.0220414 0.163823 0)
(5.10779e-05 0.166951 0)
(-0.0204544 0.162772 0)
(-0.0370808 0.151978 0)
(-0.0482004 0.136025 0)
(-0.0531345 0.116636 0)
(-0.0520214 0.0953611 0)
(-0.0455142 0.0731685 0)
(-0.0412404 0.0604754 0)
(0.0233817 0.20139 0)
(-0.00280111 0.204095 0)
(-0.0270187 0.198842 0)
(-0.0468023 0.186504 0)
(-0.0604992 0.16865 0)
(-0.0674168 0.147079 0)
(-0.0676661 0.123401 0)
(-0.0618562 0.0985873 0)
(-0.0583104 0.0839065 0)
(0.0229738 0.237684 0)
(-0.00700508 0.239708 0)
(-0.0345728 0.233435 0)
(-0.0572764 0.21986 0)
(-0.073504 0.200619 0)
(-0.0825802 0.177537 0)
(-0.0845995 0.152244 0)
(-0.0801514 0.125712 0)
(-0.0779606 0.109449 0)
(0.0206664 0.272809 0)
(-0.0127644 0.27395 0)
(-0.043372 0.266658 0)
(-0.0687978 0.252049 0)
(-0.0875283 0.231822 0)
(-0.098928 0.207777 0)
(-0.103067 0.181506 0)
(-0.100541 0.153982 0)
(-0.100267 0.136452 0)
(0.0162288 0.306853 0)
(-0.0203307 0.306888 0)
(-0.053702 0.298531 0)
(-0.0816948 0.283034 0)
(-0.102923 0.262115 0)
(-0.116799 0.23752 0)
(-0.123375 0.210771 0)
(-0.123264 0.182815 0)
(-0.125395 0.164216 0)
(0.0093509 0.339817 0)
(-0.0300222 0.338498 0)
(-0.0659248 0.329036 0)
(-0.0963731 0.312757 0)
(-0.120114 0.291337 0)
(-0.136614 0.266457 0)
(-0.145923 0.239569 0)
(-0.148666 0.211573 0)
(-0.153612 0.191968 0)
(-0.000382147 0.371594 0)
(-0.0422728 0.368712 0)
(-0.0805113 0.358102 0)
(-0.113331 0.341079 0)
(-0.139618 0.319244 0)
(-0.158897 0.294198 0)
(-0.171216 0.267336 0)
(-0.177215 0.2395 0)
(-0.18533 0.218795 0)
(-0.0135558 0.402039 0)
(-0.0576745 0.397399 0)
(-0.0980637 0.385541 0)
(-0.133189 0.367734 0)
(-0.162082 0.345463 0)
(-0.184314 0.320217 0)
(-0.199918 0.293331 0)
(-0.209562 0.265622 0)
(-0.221143 0.243551 0)
(-0.030953 0.430799 0)
(-0.0769464 0.424159 0)
(-0.119277 0.410885 0)
(-0.156662 0.392164 0)
(-0.188259 0.369328 0)
(-0.213661 0.343704 0)
(-0.232887 0.316516 0)
(-0.246589 0.288568 0)
(-0.261862 0.264583 0)
(-0.0534364 0.457075 0)
(-0.100886 0.448153 0)
(-0.144939 0.433242 0)
(-0.184559 0.413353 0)
(-0.218992 0.389634 0)
(-0.247849 0.363221 0)
(-0.271119 0.335178 0)
(-0.289349 0.306245 0)
(-0.308461 0.279372 0)
(-0.0817603 0.479224 0)
(-0.130119 0.467758 0)
(-0.175571 0.450955 0)
(-0.217308 0.429556 0)
(-0.254698 0.404428 0)
(-0.287376 0.376463 0)
(-0.315241 0.34652 0)
(-0.338637 0.315197 0)
(-0.361686 0.283824 0)
(-0.11528 0.493329 0)
(-0.163664 0.479212 0)
(-0.209877 0.460265 0)
(-0.253347 0.436879 0)
(-0.293588 0.409517 0)
(-0.330221 0.378689 0)
(-0.362985 0.344917 0)
(-0.391817 0.308629 0)
(-0.418077 0.270321 0)
(-0.13332 0.498864 0)
(-0.181575 0.483394 0)
(-0.228081 0.463269 0)
(-0.272391 0.438682 0)
(-0.314078 0.409871 0)
(-0.35274 0.377112 0)
(-0.388005 0.340722 0)
(-0.419533 0.30105 0)
(-0.447021 0.258479 0)
(0 0 0)
(0 0 0)
(0 0 0)
(0 0 0)
(0 0 0)
(0 0 0)
(0 0 0)
(0 0 0)
(-0.00799152 0.011566 0)
(-0.0122314 0.0159143 0)
(-0.016912 0.0188337 0)
(-0.0221502 0.0201946 0)
(-0.0278439 0.0198312 0)
(-0.0336247 0.0176141 0)
(-0.038848 0.0135637 0)
(-0.0427498 0.00800721 0)
(-0.0190459 0.0268303 0)
(-0.0273386 0.0342023 0)
(-0.0365052 0.0387888 0)
(-0.046666 0.0403926 0)
(-0.0575168 0.0387343 0)
(-0.068281 0.0336436 0)
(-0.0777521 0.0252756 0)
(-0.0845681 0.01435 0)
(-0.0328984 0.0450743 0)
(-0.0450104 0.0541323 0)
(-0.0583966 0.0591971 0)
(-0.0730727 0.0600315 0)
(-0.0884569 0.0562845 0)
(-0.103355 0.0478194 0)
(-0.116121 0.0350179 0)
(-0.124919 0.019008 0)
(-0.0494885 0.0658108 0)
(-0.0652069 0.075289 0)
(-0.0825242 0.0797258 0)
(-0.101263 0.0788632 0)
(-0.120523 0.0723288 0)
(-0.138727 0.0600925 0)
(-0.153881 0.0428124 0)
(-0.163849 0.0220146 0)
(-0.0687799 0.0885096 0)
(-0.0878964 0.0972208 0)
(-0.108827 0.100007 0)
(-0.13113 0.0966073 0)
(-0.153578 0.0866822 0)
(-0.174289 0.0703778 0)
(-0.190982 0.0486391 0)
(-0.201418 0.0233498 0)
(-0.0907849 0.112614 0)
(-0.113082 0.119453 0)
(-0.13726 0.119642 0)
(-0.162586 0.112954 0)
(-0.18752 0.0991322 0)
(-0.209935 0.0785414 0)
(-0.227384 0.0524171 0)
(-0.237714 0.0229386 0)
(-0.115574 0.137529 0)
(-0.140813 0.141481 0)
(-0.167829 0.138203 0)
(-0.195585 0.127555 0)
(-0.222275 0.10942 0)
(-0.245582 0.084398 0)
(-0.263072 0.0540035 0)
(-0.272837 0.0206297 0)
(-0.143271 0.162569 0)
(-0.171174 0.162699 0)
(-0.200565 0.155178 0)
(-0.230096 0.139983 0)
(-0.257753 0.117197 0)
(-0.281166 0.0876797 0)
(-0.298076 0.0531756 0)
(-0.30688 0.0161925 0)
(-0.174079 0.186944 0)
(-0.204284 0.182364 0)
(-0.235487 0.169892 0)
(-0.266058 0.149663 0)
(-0.293871 0.121997 0)
(-0.316653 0.0880062 0)
(-0.332418 0.0496009 0)
(-0.339839 0.00931689 0)
(-0.208316 0.209711 0)
(-0.240345 0.199577 0)
(-0.272672 0.181511 0)
(-0.303458 0.155859 0)
(-0.330588 0.123201 0)
(-0.351997 0.0848559 0)
(-0.366007 0.0428307 0)
(-0.371612 -0.000412049 0)
(-0.246459 0.229671 0)
(-0.279677 0.213175 0)
(-0.312274 0.188948 0)
(-0.342309 0.157604 0)
(-0.367807 0.119974 0)
(-0.387018 0.0775231 0)
(-0.398644 0.0322503 0)
(-0.402052 -0.0135801 0)
(-0.289126 0.245087 0)
(-0.322636 0.221475 0)
(-0.354384 0.190668 0)
(-0.382481 0.153562 0)
(-0.405253 0.11119 0)
(-0.421372 0.0650461 0)
(-0.429983 0.0170007 0)
(-0.430808 -0.0309706 0)
(-0.336965 0.253269 0)
(-0.369409 0.221918 0)
(-0.398752 0.1844 0)
(-0.423416 0.141829 0)
(-0.442217 0.0953072 0)
(-0.454313 0.0462022 0)
(-0.459266 -0.00391385 0)
(-0.457079 -0.0534469 0)
(-0.390128 0.250061 0)
(-0.419325 0.21089 0)
(-0.44407 0.167237 0)
(-0.463459 0.120165 0)
(-0.47691 0.0706418 0)
(-0.484057 0.0197236 0)
(-0.484782 -0.031457 0)
(-0.479225 -0.081765 0)
(-0.443675 0.228831 0)
(-0.466391 0.183833 0)
(-0.484219 0.136317 0)
(-0.496861 0.08698 0)
(-0.504135 0.0364734 0)
(-0.50595 -0.0145337 0)
(-0.502312 -0.0653481 0)
(-0.493329 -0.115281 0)
(-0.470204 0.213418 0)
(-0.488858 0.166303 0)
(-0.502805 0.117585 0)
(-0.511909 0.0677357 0)
(-0.516083 0.0172336 0)
(-0.515287 -0.0334344 0)
(-0.509529 -0.0837804 0)
(-0.498864 -0.13332 0)
(0 0 0)
(0 0 0)
(0 0 0)
(0 0 0)
(0 0 0)
(0 0 0)
(0 0 0)
(0 0 0)
(-0.00799152 0.011566 0)
(-0.0122314 0.0159143 0)
(-0.016912 0.0188337 0)
(-0.0221502 0.0201946 0)
(-0.0278439 0.0198312 0)
(-0.0336247 0.0176141 0)
(-0.038848 0.0135637 0)
(-0.0427498 0.00800721 0)
(-0.0190459 0.0268303 0)
(-0.0273386 0.0342023 0)
(-0.0365052 0.0387888 0)
(-0.046666 0.0403926 0)
(-0.0575168 0.0387343 0)
(-0.068281 0.0336436 0)
(-0.0777521 0.0252756 0)
(-0.0845681 0.01435 0)
(-0.0328984 0.0450743 0)
(-0.0450104 0.0541323 0)
(-0.0583966 0.0591971 0)
(-0.0730727 0.0600315 0)
(-0.0884569 0.0562845 0)
(-0.103355 0.0478194 0)
(-0.116121 0.0350179 0)
(-0.124919 0.019008 0)
(-0.0494885 0.0658108 0)
(-0.0652069 0.075289 0)
(-0.0825242 0.0797258 0)
(-0.101263 0.0788632 0)
(-0.120523 0.0723288 0)
(-0.138727 0.0600925 0)
(-0.153881 0.0428124 0)
(-0.163849 0.0220146 0)
(-0.0687799 0.0885096 0)
(-0.0878964 0.0972208 0)
(-0.108827 0.100007 0)
(-0.13113 0.0966073 0)
(-0.153578 0.0866822 0)
(-0.174289 0.0703778 0)
(-0.190982 0.0486391 0)
(-0.201418 0.0233498 0)
(-0.0907849 0.112614 0)
(-0.113082 0.119453 0)
(-0.13726 0.119642 0)
(-0.162586 0.112954 0)
(-0.18752 0.0991322 0)
(-0.209935 0.0785414 0)
(-0.227384 0.0524171 0)
(-0.237714 0.0229386 0)
(-0.115574 0.137529 0)
(-0.140813 0.141481 0)
(-0.167829 0.138203 0)
(-0.195585 0.127555 0)
(-0.222275 0.10942 0)
(-0.245582 0.084398 0)
(-0.263072 0.0540035 0)
(-0.272837 0.0206297 0)
(-0.143271 0.162569 0)
(-0.171174 0.162699 0)
(-0.200565 0.155178 0)
(-0.230096 0.139983 0)
(-0.257753 0.117197 0)
(-0.281166 0.0876797 0)
(-0.298076 0.0531756 0)
(-0.30688 0.0161925 0)
(-0.174079 0.186944 0)
(-0.204284 0.182364 0)
(-0.235487 0.169892 0)
(-0.266058 0.149663 0)
(-0.293871 0.121997 0)
(-0.316653 0.0880062 0)
(-0.332418 0.0496009 0)
(-0.339839 0.00931689 0)
(-0.208316 0.209711 0)
(-0.240345 0.199577 0)
(-0.272672 0.181511 0)
(-0.303458 0.155859 0)
(-0.330588 0.123201 0)
(-0.351997 0.0848559 0)
(-0.366007 0.0428307 0)
(-0.371612 -0.000412049 0)
(-0.246459 0.229671 0)
(-0.279677 0.213175 0)
(-0.312274 0.188948 0)
(-0.342309 0.157604 0)
(-0.367807 0.119974 0)
(-0.387018 0.0775231 0)
(-0.398644 0.0322503 0)
(-0.402052 -0.0135801 0)
(-0.289126 0.245087 0)
(-0.322636 0.221475 0)
(-0.354384 0.190668 0)
(-0.382481 0.153562 0)
(-0.405253 0.11119 0)
(-0.421372 0.0650461 0)
(-0.429983 0.0170007 0)
(-0.430808 -0.0309706 0)
(-0.336965 0.253269 0)
(-0.369409 0.221918 0)
(-0.398752 0.1844 0)
(-0.423416 0.141829 0)
(-0.442217 0.0953072 0)
(-0.454313 0.0462022 0)
(-0.459266 -0.00391385 0)
(-0.457079 -0.0534469 0)
(-0.390128 0.250061 0)
(-0.419325 0.21089 0)
(-0.44407 0.167237 0)
(-0.463459 0.120165 0)
(-0.47691 0.0706418 0)
(-0.484057 0.0197236 0)
(-0.484782 -0.031457 0)
(-0.479225 -0.081765 0)
(-0.443675 0.228831 0)
(-0.466391 0.183833 0)
(-0.484219 0.136317 0)
(-0.496861 0.08698 0)
(-0.504135 0.0364734 0)
(-0.50595 -0.0145337 0)
(-0.502312 -0.0653481 0)
(-0.493329 -0.115281 0)
(-0.470204 0.213418 0)
(-0.488858 0.166303 0)
(-0.502805 0.117585 0)
(-0.511909 0.0677357 0)
(-0.516083 0.0172336 0)
(-0.515287 -0.0334344 0)
(-0.509529 -0.0837804 0)
(-0.498864 -0.13332 0)
)
;

boundaryField
{
    walls
    {
        type            fixedValue;
        value           uniform (0 0 0);
    }
    cylinder
    {
        type            solidBodyMotionDisplacement;
        value           nonuniform List<vector> 
34
(
(-0.13332 0.498864 0)
(-0.13332 0.498864 0)
(-0.181575 0.483394 0)
(-0.181575 0.483394 0)
(-0.228081 0.463269 0)
(-0.228081 0.463269 0)
(-0.272391 0.438682 0)
(-0.272391 0.438682 0)
(-0.314078 0.409871 0)
(-0.314078 0.409871 0)
(-0.35274 0.377112 0)
(-0.35274 0.377112 0)
(-0.388005 0.340722 0)
(-0.388005 0.340722 0)
(-0.419533 0.30105 0)
(-0.419533 0.30105 0)
(-0.447021 0.258479 0)
(-0.447021 0.258479 0)
(-0.470204 0.213418 0)
(-0.470204 0.213418 0)
(-0.488858 0.166303 0)
(-0.488858 0.166303 0)
(-0.502805 0.117585 0)
(-0.502805 0.117585 0)
(-0.511909 0.0677357 0)
(-0.511909 0.0677357 0)
(-0.516083 0.0172336 0)
(-0.516083 0.0172336 0)
(-0.515287 -0.0334344 0)
(-0.515287 -0.0334344 0)
(-0.509529 -0.0837804 0)
(-0.509529 -0.0837804 0)
(-0.498864 -0.13332 0)
(-0.498864 -0.13332 0)
)
;
        solidBodyMotionFunction oscillatingRotatingMotion;
        oscillatingRotatingMotionCoeffs
        {
            origin          ( 0 0 0 );
            axis            ( 0 0 1 );
            omega           1.5;
            amplitude       ( 0 0 30 );
        }
    }
    outlet
    {
        type            fixedValue;
        value           uniform (0 0 0);
    }
    inlet
    {
        type            fixedValue;
        value           nonuniform List<vector> 0();
    }
    frontAndBack
    {
        type            empty;
    }
    procBoundary3to1
    {
        type            processor;
    }
    procBoundary3to2
    {
        type            processor;
    }
}


// ************************************************************************* //
