/*--------------------------------*- C++ -*----------------------------------*\
| =========                 |                                                 |
| \\      /  F ield         | OpenFOAM: The Open Source CFD Toolbox           |
|  \\    /   O peration     | Version:  2412                                  |
|   \\  /    A nd           | Website:  www.openfoam.com                      |
|    \\/     M anipulation  |                                                 |
\*---------------------------------------------------------------------------*/
FoamFile
{
    version     2.0;
    format      ascii;
    arch        "LSB;label=32;scalar=64";
    class       volVectorField;
    location    "1635";
    object      U;
}
// * * * * * * * * * * * * * * * * * * * * * * * * * * * * * * * * * * * * * //

dimensions      [0 1 -1 0 0 0 0];

internalField   nonuniform List<vector> 
808
(
(0.756246915304204 -0.01749813637049412 0)
(1.031341207296183 -0.01257380330387162 0)
(1.114453488292348 -0.004466169866888785 -1.795598635196508e-20)
(1.085118366082412 0.01260901078641326 0)
(1.364668978435259 0.01648493922754893 -3.918142865605319e-19)
(1.038687330541989 -0.009317744924966001 -7.161002795544401e-20)
(1.013524830363412 -0.02084091921678463 -2.325326932922905e-20)
(1.078700466555579 -0.005224866633126289 8.977929504261638e-21)
(1.254374031417908 -0.01891015661176143 6.375084604480733e-20)
(1.084530485024599 0.01037096507711874 0)
(1.013330015725945 -0.008373041388826247 0)
(1.306423294322486 -0.0519446017421722 -3.568882402347808e-19)
(1.085968069809042 -0.001782336710218269 2.032813331356089e-20)
(0.6750945273661869 0.00640414142872893 0)
(1.284990749384936 -0.1139310615032881 0)
(1.081408599724133 8.819010891972656e-05 -3.816540708965414e-20)
(1.231897250699279 -0.1453782115916014 -9.840941918616467e-20)
(1.073957725629254 6.372062243966081e-05 3.165044345788523e-20)
(0.9930549715155267 0.005000121672523907 0)
(1.026330511932549 0.009388587775343595 0)
(1.038494184030079 -0.01009032869382985 0)
(0.9874507374842951 0.04432866184105037 0)
(1.051138202709249 -0.005961794163933376 5.508445915789836e-20)
(1.053350076359197 0.009142544453152232 0)
(0.9325501825578468 0.1970202066486099 4.614329797687987e-19)
(1.167582801841553 -0.08594637545983899 0)
(1.185821896561482 -0.01786687824549335 1.593706898689732e-19)
(1.077434942801955 0.009395244155804026 5.190257288869921e-20)
(1.083980262193827 0.002257496131809867 5.047695727347994e-21)
(1.071955188319659 0.03090701714504583 0)
(1.075549775961883 0.002669320783125388 -1.172017298624096e-20)
(1.03296164766636 0.006665783167082552 -1.970511682037704e-19)
(1.059855803350843 0.01487465879992351 -2.392331672420887e-20)
(1.089153183844732 0.005341247079264489 -2.927726538085081e-20)
(1.119630700816457 0.03922588909206481 0)
(0.7552098349976094 -0.1240010841702426 -4.533866971619901e-19)
(0.9545849006582892 -0.005859293595466956 0)
(1.06893778275788 0.02239133487999245 0)
(1.068833147780272 0.007355954767571322 0)
(1.073614655973136 0.008998020613960832 -2.837331191273099e-20)
(1.091914707930969 0.02442888087000543 1.120055864867575e-19)
(1.15046584521954 0.004219928435082115 2.195072013952527e-19)
(1.095950805721885 -0.002377083194567443 0)
(1.015869923260663 -0.008965391630653409 0)
(1.134025450792874 -0.09672318146923171 -1.644513913376674e-19)
(1.04410228467738 -0.01160567583702816 -7.907546072691632e-20)
(1.058284591500534 0.02663183471800495 -2.830098615834102e-20)
(1.231657726847655 -0.1115410278668188 -5.633220984295896e-20)
(1.067728510334826 0.01221288677339185 -4.269962603243739e-20)
(1.257483256389158 0.01903358844287508 0)
(0.9962301433171248 -0.01851812909622494 2.086798403185676e-21)
(1.044577709518441 -0.001877215427076883 0)
(1.087611763373221 -0.002180435140314494 0)
(0.9988992832964763 0.006550801634525896 -1.837755796624424e-20)
(1.250703410619097 0.03507189536946381 -2.313686900127074e-19)
(1.063763135462195 0.0182496934980725 6.159775414931622e-20)
(0.9914429272107732 0.008542311729845313 0)
(1.020929529110234 -0.00922632554341252 2.346722980230555e-20)
(1.107126041398597 2.745126488329407e-05 -1.205750063434561e-19)
(1.061376342480607 0.03098731337302314 0)
(-0.07803881047924413 0.004910502210295776 7.008190198875439e-20)
(1.155122578410906 -0.05125114118320469 -1.927237273893651e-19)
(1.006345631343031 -0.007900814398792465 -2.578635741423675e-20)
(1.183803964925592 0.07015565018659939 -1.238208426176451e-19)
(0.9983728375783661 -0.009613922782940055 2.989935195365912e-20)
(1.084181759717736 -0.005535010342037583 0)
(1.245240588198016 0.100175850561176 0)
(0.6960473961502739 0.003205837881405903 -7.492784031368404e-20)
(0.9898844114096067 -0.01355195715858039 -3.11516181276651e-20)
(1.461682594017093 -0.01672380503665168 4.512001754257905e-19)
(1.060524199281401 0.007580124228493499 -6.814021518539667e-20)
(1.368842342949904 0.09933856005069711 2.932000336465099e-19)
(1.054720805281375 0.006876554622214611 -1.880344925790707e-22)
(1.081267830906654 -0.0138933546330365 -4.996715560536032e-22)
(1.165469718138441 -0.2362773537925069 0)
(1.021857304836438 -0.01441644247103857 0)
(1.017217884087408 0.0175595088600149 -3.150891810842604e-20)
(1.384869298314702 0.3490831490975562 4.141500045614452e-19)
(1.097012396541373 -0.04222673387957494 9.305510753406538e-20)
(1.045153991699847 0.2091833890202577 2.556009457617597e-19)
(1.126194535556889 -0.06120646579719222 1.147610489290476e-19)
(0.9220383612381876 0.005128547585757253 0)
(0.9754532930405886 0.01853548062520497 0)
(1.004147027706441 -0.04903529519979555 2.619903992775492e-21)
(1.010397745411134 -0.01290941571616764 7.443443878727812e-21)
(1.029908839801569 0.02606322978711636 1.407143595670247e-20)
(1.53114662536626 0.03760862765912266 3.287175399613536e-19)
(1.288730365714932 0.07226096131950831 5.463675955429159e-19)
(1.072362591332639 0.003004444068863946 -9.292733917408726e-20)
(1.200501935302541 -0.0926672012492348 0)
(1.033678032631301 0.001806210175877886 1.354632214181613e-19)
(1.164275181336274 0.02310241174475417 -3.245986814823966e-19)
(1.001424939484541 0.03227559133411629 0)
(0.9996266826934772 0.002034448153142719 0)
(1.044500937535884 -4.927770276996217e-05 7.681959232476666e-20)
(1.208912438834385 0.1108388821411578 4.132839990517161e-19)
(1.01105635105062 0.006986226378003296 0)
(1.092248156690771 -0.07063677728147717 -1.049558975891441e-19)
(1.149601800454324 0.03834775077185739 0)
(1.210800883081537 0.09755115043287091 -1.952205782282266e-19)
(1.108035451791136 -0.02859559181489793 -7.62521220441535e-20)
(1.027353878235651 0.0116135871686041 0)
(1.085126272975017 -0.004657198501550107 0)
(1.019090928020326 0.02564653321290324 8.1819758539344e-20)
(1.071735152445263 0.05402930683820206 -9.433235180582332e-21)
(1.10382470337476 -0.0041959306765538 6.203569055655152e-20)
(1.111564526452581 -0.09628364991904956 1.523594878646066e-19)
(0.9613019462700294 0.002599930848250523 0)
(1.066258020641978 0.03115584860834427 3.875384657865876e-20)
(1.169205954241877 -0.07587788228081423 2.355305324675705e-19)
(1.051592968733811 0.04507843153033299 -2.927526436722458e-20)
(1.022472503664579 0.06714486586548604 3.760705343063791e-20)
(1.090482414505667 0.02607886878929602 0)
(1.01455391989978 0.01815952615538414 0)
(1.029003048755625 0.009433685822337418 7.912625018749323e-20)
(0.9487235712485181 -0.03377724671373839 0)
(1.05290776144278 -0.005694263410156424 -7.96257056606053e-21)
(1.342842716388615 0.06083030331412395 -1.598369914335055e-19)
(1.080038299814816 -0.01321002847658188 2.586591499542925e-20)
(0.7439819303876392 -0.001753429288212469 0)
(0.5563041557876264 0.1703906150688226 -8.541296526559352e-20)
(0.7060912697427976 -0.0025416102546254 0)
(0.698930802799088 0.01464207087940961 0)
(1.077647447802471 0.003615163940424264 -6.842472003380395e-22)
(0.9906386443520723 0.01452560380070617 0)
(1.278022275368572 0.1232585857882012 2.468650141848758e-19)
(1.012359459175123 -0.02781596824709771 -7.972875530118631e-21)
(1.043947340003153 0.02221608283112527 1.700476159072992e-21)
(1.058590668086113 -0.01166045513343576 0)
(1.126611547030806 -0.009156115769163647 -4.944716937901471e-20)
(1.261577628278632 0.1416027178054098 -2.25778711069219e-19)
(1.089266466856522 -0.01124777385055362 -8.515608287108903e-20)
(1.069654904771441 0.02637517018801074 -1.110396330919877e-19)
(1.040699798713548 0.04672111932054016 6.814000307676105e-20)
(1.022469892692674 -0.003745278281581341 -3.447141604076086e-20)
(1.061063449171282 0.02349176565267671 6.133187985715592e-21)
(1.129641785863104 -0.004482998813678248 1.070922969840089e-20)
(1.040182938926385 -0.01541983886161687 -4.77829001417101e-22)
(1.08761537963186 0.03477159633698029 0)
(1.028124756297672 0.01343602396093729 0)
(0.7660307366409457 -0.05748709181780898 -1.822405116616042e-19)
(1.030142065966458 -0.001688180172824177 -6.976953213719825e-20)
(1.131514118439076 -0.005965505367963601 -1.295161564016331e-20)
(0.7034554807176421 0.006578475860162374 7.430705946049261e-20)
(1.174972993173359 0.02073915302770333 -1.905075112962126e-19)
(1.130076193106275 0.003820856180602677 5.334009095407229e-21)
(1.128968287458775 -0.01002064766188288 3.493639940717439e-20)
(1.000940617051572 -0.002934486227045805 -7.732505964601793e-20)
(1.09957103659415 -0.06891466915979091 0)
(0.9852561421809718 0.001419732167294002 0)
(1.057935010806012 0.007084618218281102 0)
(1.005219831134813 0.1877350216932793 -2.488320449429455e-19)
(0.7792864598378766 0.01240645661020711 0)
(0.8568414708611164 0.1003127233924029 -8.482030931394823e-20)
(0.07385218386500222 0.04002046736064195 -3.036223520976341e-19)
(1.172970424315932 -0.0293983338396494 -2.218812790468549e-20)
(0.6713340793946073 -0.007303038152977771 2.434631004912297e-20)
(1.171020399805714 -0.1026415927716709 6.928697267972285e-20)
(1.122992082575474 -0.006745135499946902 -5.907389045687799e-21)
(1.155869434089429 -0.04787303433357346 2.156147373703723e-20)
(0.1083105214094619 -0.2202320305557978 0)
(0.2518043416342036 0.08955518801272554 0)
(1.255524642921001 0.1143177849625223 1.945994847233396e-19)
(1.021315709561972 0.01979496125834293 0)
(0.7378083524667206 -0.006299269225912404 0)
(1.075404664311011 -0.01184228940672994 2.700352514584803e-20)
(0.9749247662343317 0.002779981623092206 0)
(1.29160764700816 0.1330838882548878 -1.586948044318819e-19)
(1.057482463701898 0.01122913858544035 0)
(0.9937563858902748 -0.00754640625779385 0)
(1.065029623958743 0.008224178131546359 0)
(1.006157390249783 0.02080764331970995 1.740649282120951e-20)
(0.9330127600365067 0.01484267086922036 1.062149790748909e-20)
(1.177598986991958 -0.1998287544351617 0)
(1.005197978849978 -0.005193192490990763 7.784397995763026e-20)
(1.059128514168808 0.006377315710100974 0)
(0.7746785991464662 -0.00329429025778228 0)
(1.216871850293209 0.02980022626149233 1.678613657904178e-20)
(0.7049769664023142 0.001328658524076396 0)
(1.436664196170435 0.08998885453694408 -5.347893803808938e-20)
(0.9945905030248472 -0.006867320644637153 1.704347035150824e-20)
(1.273783633576339 -0.0004586058668309646 -2.91762784134698e-19)
(1.05960763866477 0.008843748092073339 1.398323130746618e-19)
(1.000907557760395 -0.0135990138445785 0)
(1.217503964190349 -0.1458602457957116 2.036087737279719e-19)
(0.7331955606704142 0.01379119400249586 0)
(1.098419946534366 -0.005120328251622027 0)
(1.15143150543079 0.06894343970431535 2.040452953578029e-20)
(1.007112589186883 -0.006922251556461124 -3.021963350964079e-20)
(1.119739436819508 0.05251843683231947 -1.767305453774965e-19)
(0.1011670909214924 -0.08317512109628487 0)
(1.071803828015002 0.03817147169820467 0)
(0.6617028735182006 -0.002929611798730609 -6.823103004772543e-22)
(1.012154073350487 -0.01940931773970558 9.787635394218132e-20)
(1.061449518018511 0.0007004249790632138 0)
(1.077868332813454 -0.1244087505767667 3.720436955342336e-19)
(1.002776333303351 -0.006217460928891758 -3.477175869757282e-21)
(1.002499961292466 -0.005360266782781911 7.622005579706846e-22)
(1.09392023737043 -0.009336412753635486 0)
(1.020665293758185 0.02057220969924123 -6.246112933275446e-20)
(1.106580703743101 -0.001604432862673487 6.7130141818441e-22)
(1.074238995686146 -0.01135940592128017 6.5767719796388e-20)
(1.085827295233035 0.02235391146764958 0)
(1.331823753742467 0.1657721823073899 0)
(1.001995802179527 0.0001019640034459536 4.415785478383065e-20)
(1.321439315629951 -0.1238053878596956 1.538877222744179e-19)
(0.05216135732804927 -0.1897589148540172 -2.554412501972398e-19)
(1.071326230163328 -0.005524329051927568 0)
(1.117177989893036 -0.0008419773162259916 1.211560196977799e-20)
(0.7268769508478654 0.01784972396568611 0)
(1.062866766500036 0.004899884109192312 0)
(0.8716015575007385 0.1670028671670855 4.777622764450746e-19)
(1.269610619974908 0.1333621588981412 1.902792577967449e-19)
(0.6543353466758043 -0.003101694964467566 -6.305816952153523e-20)
(1.041645790348877 -0.002970808720499704 -7.099725540138597e-21)
(1.054784374808905 -0.0002865934417537433 6.638261978155143e-20)
(1.363491140386942 0.1255101918234608 6.822418617631866e-19)
(1.333953721628157 0.2525007972249645 0)
(1.060364141826144 0.0003601258057392981 0)
(0.999060056154957 -0.007206542108734914 1.534452798673754e-20)
(0.9934978449799379 -0.01076787884895937 5.344584788703121e-21)
(1.381795803427654 0.2003807959696538 4.233732879810926e-19)
(0.6817084333373348 0.0005411965726069225 9.850230219853674e-20)
(1.005568651415951 -0.002092466711667411 -5.972413379268347e-20)
(1.098153987909643 0.01301847137449558 2.544436460549567e-20)
(0.669474625953822 0.005002961640713974 0)
(1.066090545351243 -0.01201193977771669 0)
(1.005506019829384 0.1493504557541273 -1.232548520500424e-19)
(1.089555651695303 -0.008772882426739901 -2.444626219795208e-20)
(0.9821277174590491 9.109971342497464e-06 3.279406601811223e-20)
(0.9912105071938623 0.006039684467516959 0)
(0.6382999139586818 -0.001097536587197353 0)
(0.9768234782652951 -0.001177540185530696 0)
(0.6421328971711862 -0.001495385313019988 2.687395458639783e-21)
(1.090517306557772 -0.05655279618009966 1.194422396068878e-19)
(1.113558213351295 -0.0007154105788572969 1.22149207276143e-21)
(0.9579350513112697 -0.0009112395296900687 3.909971675122536e-20)
(1.01590395176008 0.01014587219630565 1.687155740014852e-20)
(1.0665219478158 0.001257959055042524 -2.442977525674792e-21)
(0.6347030489625638 0.008867125661699884 -3.643482509973076e-20)
(1.003105459748182 0.00873527733979354 -9.22611071642091e-22)
(1.035514815167346 0.008667221666111476 5.242943395437985e-21)
(0.987446195502099 -0.01272713191039949 0)
(0.609995811226542 -0.0004926881316051832 0)
(1.068635043523712 0.02265534095015118 0)
(1.016940066724089 -0.015823147040634 1.049771882931749e-20)
(1.023338613371587 -0.008625098456738447 0)
(0.991248784361018 0.01426419218348822 -9.613833149493173e-21)
(1.01113178061682 0.001712294586437009 0)
(1.127605527739741 -0.002243367739725455 -1.150898925507433e-20)
(0.03988139682625704 -0.1428397203785395 -4.170986565485697e-20)
(1.036353401808005 -0.0173747607047453 -6.766012992302594e-22)
(1.041978491558577 0.004541779622529824 0)
(1.081810842960149 0.06576993860484295 8.436578305708089e-20)
(0.9687023149152932 -0.002358715898717761 3.112084412265475e-20)
(1.020577774589474 0.01686011747985265 -2.373021819344251e-20)
(1.001519329846266 -7.626877998254244e-05 2.496133787315366e-20)
(1.040394637072508 -0.006107623151456111 0)
(0.6408913972270533 -0.004005724391138582 0)
(1.025797714850246 0.02454296099199265 -7.239646443391396e-20)
(1.082715348998306 -0.003827476034968901 4.806079742700715e-20)
(1.01707470727563 0.003872437597402637 0)
(0.979151340043664 -0.002892882613241641 -1.944911449710656e-21)
(0.8717846809676668 0.01933706767775168 -1.07291594652519e-20)
(1.014030742471087 0.00269655783670998 -1.011551191543682e-20)
(1.025707538598915 0.005138636595795567 1.830737700213024e-20)
(0.9828728295930895 0.004524811155081705 0)
(1.002420406184138 0.0109901543919592 3.507802665040099e-20)
(1.108277858631071 -0.001168583435083483 0)
(0.9247030363769596 0.0005303554957547579 -3.208928661579067e-20)
(0.9595969469542391 0.004629195621722012 0)
(0.9162381311366856 0.2110126114136285 5.186844017314188e-20)
(1.010733301678683 0.06675175432565481 0)
(0.9930043378721298 0.004250403115960937 -2.277398819339145e-20)
(1.056937612238581 -0.05419476160360242 -2.883107428428788e-20)
(0.9914100095615084 0.0002840507751026167 3.387298639012319e-20)
(1.011876773016377 0.005126811383676825 0)
(0.9778937716373917 -3.432530225198739e-06 -3.155912211921208e-20)
(1.16876792808132 0.1027502710585313 -3.404195379046606e-19)
(1.070001976700617 -0.2652664628923147 0)
(0.9930497254267135 0.001356643889247533 -2.223244037181924e-20)
(0.9786803532229178 0.003845669885359552 5.049545764798863e-21)
(0.9637111748997115 0.005824049813944307 1.006671981460328e-21)
(0.7459170814837426 -0.001059673333901062 0)
(1.121916615694855 -0.08193937509843631 0)
(1.00483605726631 0.00423706772768531 -2.209882954577624e-20)
(0.9030936449123312 0.00838402402538747 -9.636394294560664e-21)
(0.8546914336696875 0.01453181777514374 3.50985658170506e-21)
(1.013779028333543 -0.001785521494939118 0)
(0.9504850444839035 0.006628727670570076 1.443314516808019e-20)
(1.005633881197426 -0.0002640359805004819 -2.308936257429974e-20)
(1.020678744488929 -0.001397022755794977 -2.580812285011961e-20)
(1.113750703221236 -0.001631598628012423 -4.93495770043076e-21)
(1.119289735951745 0.000782319092818471 0)
(1.014480239397175 -0.01046805702967927 0)
(1.020158870369202 0.002860668624335566 0)
(0.9435985960077867 -0.0002395558897423795 -2.098710903913886e-20)
(1.017862931291798 0.01359826720992185 5.323889211209736e-20)
(1.081333077291873 -0.0003776469045487355 -2.219903803036212e-20)
(1.040072384333001 -0.005088702847489312 0)
(1.106190807891997 -0.005372359973045224 1.843783685745747e-21)
(0.995368366707761 0.002701169589044641 -2.213667914798341e-20)
(0.9868093600127363 0.006095597727714522 0)
(1.011676076165606 0.003188464854735691 4.653320436557113e-20)
(1.367873902124914 -0.3146324691724145 -1.134252533842626e-18)
(1.122871060711512 -0.04346951035048411 -1.080728654791225e-19)
(0.9653789825602105 0.00249278206335133 4.670768629260705e-20)
(0.7734862340133433 0.008098955405018848 -3.094945611432447e-20)
(1.221725009867212 0.05411094965471516 0)
(1.225528988082514 -0.1318672745761383 -1.461643126195099e-19)
(1.078277487716047 0.00383365862436205 0)
(1.008364602597767 0.001522867499431831 2.247413456390753e-20)
(-0.1681225514056174 -0.1303296763860543 0)
(0.9939666055937204 -0.004646283463311317 0)
(1.012452384650924 -0.02316775348892945 4.622317263060442e-20)
(0.706259486532779 -0.01945600409795955 0)
(1.096789843594505 -0.01481778377202085 2.110300245711715e-21)
(1.043859895754871 -0.01210920345911733 1.810252353870918e-20)
(0.633154838125195 0.004134496537146923 0)
(1.449813322660324 -0.1224063413820558 0)
(0.9867370545499932 0.001276559210535522 -1.083221626467144e-20)
(1.069816762455212 -0.01500854381116724 0)
(1.037943984567917 0.0003867031040643044 2.149811741507992e-20)
(1.082082163335281 0.006500930963551096 0)
(1.009942059280257 0.00531263785836725 -1.038972740461226e-21)
(1.005852765744704 0.002968577242470017 0)
(1.012505479905673 -0.01159988914728519 2.791521242653057e-22)
(1.003727934400544 -0.02086901302763672 0)
(1.034726478472013 0.003385181274852879 1.699780915894039e-20)
(-0.1844382986184184 0.02999835081647962 2.635204303322209e-19)
(0.805547211278795 0.02353490779794386 5.223831521060222e-20)
(1.005734492793875 0.001852956552169987 0)
(1.132438299313149 0.01904484024767302 -1.157692113287204e-20)
(1.122693988407131 0.01695069607652614 8.3203266962325e-21)
(1.054462790833349 -0.01302397389005753 -1.276317206502455e-19)
(0.9987852020427961 0.01034906536687775 1.301160536485546e-21)
(1.077307796406035 0.006200849545130541 0)
(1.186132280974164 0.05425671199769663 0)
(0.8354666191832496 -0.07672822841470381 4.588028409644022e-19)
(1.09824443879627 -0.003520751977163561 0)
(1.032995488208347 0.007343974848130603 -7.390251980922069e-21)
(1.042518764714065 0.005154135531107576 6.111928493363177e-21)
(1.055108645563198 -0.06140320346010541 -7.525106448208163e-21)
(1.139760043441686 -0.0006165277949679664 1.663565509994554e-19)
(1.085864204588731 -0.008620735410019694 0)
(0.9946706180743016 0.001258534172840033 0)
(0.9959223456877211 -0.02548740948553471 -2.295967469557114e-21)
(0.9904109933673787 0.002806769835318545 0)
(1.030829712241602 -0.0387624864246691 6.358189660317135e-20)
(1.292331784643311 -0.09180681866125623 0)
(1.04508167645528 -0.008828624318618092 -2.457088981507078e-21)
(0.9861589088508991 0.01701648485847772 -8.46459821615325e-20)
(1.033508619177114 0.04091298413784753 -2.423844227845687e-21)
(-0.08506381128669671 0.1465713191252616 -1.643983739943231e-19)
(-0.06685739157575839 -0.3040578955097463 -1.375098088540038e-19)
(0.8900388506895246 0.1420502812332665 0)
(0.295140884224426 -0.0246370037204684 -3.318480571237128e-19)
(1.007318413772589 -0.004436442359978653 -1.573621246470409e-20)
(1.063825927447905 0.002664785811029588 -2.11809517807819e-20)
(0.9917181458542911 -0.01857115461817636 2.935236731640525e-20)
(1.021116841820963 -0.03049284489874357 2.536543789500061e-21)
(1.00938359019107 -0.03240849410962134 -6.527176235411396e-20)
(0.9888120710524719 0.00480701431702043 -3.465564256555993e-20)
(0.9928619538899572 0.00486077656854095 0)
(1.025351224036742 -0.002200900742058941 -3.545033483958221e-21)
(1.939395389864093 -0.1554775072624917 1.079674695269583e-18)
(1.044886895175885 -0.001991549147766173 0)
(0.9952476651758281 0.008405061713543344 1.555887274942271e-20)
(1.003046970007695 -0.0001698002519769859 4.068547184218261e-20)
(1.161888271726047 0.1380281951884173 0)
(0.9971816711585492 0.0001225791257558465 5.889004061094214e-21)
(0.9485934810787552 -0.00197363755250013 0)
(1.037835741106769 0.04177353971364647 0)
(1.309327800159332 0.166401861549784 2.368458635631042e-19)
(1.086233414748708 -0.005846561800121271 2.271756770604125e-20)
(1.018253216376751 0.03028263548331013 4.691134808918075e-20)
(1.088034220840039 -0.008258794139487666 -2.192623490735016e-20)
(1.046121544678949 -0.004077497193150018 -6.236207647064191e-21)
(-0.3841880956502646 -0.04970746132648844 0)
(0.9989266307181773 0.01448234436811665 0)
(0.1065675585490853 0.05683220189289409 -8.661091423446464e-20)
(1.007171648256872 0.02190877657163853 -4.172608537069435e-20)
(0.9944690215120452 -0.009324310347397415 0)
(1.001186472994486 0.005750917174492286 -5.036694411561724e-21)
(1.081678962481534 -0.04238163349731248 0)
(0.9950377161078117 -0.01656584479491603 -7.740958450015214e-21)
(1.096129566115837 -0.0596218782522053 0)
(1.445145643596227 0.1791064913848622 0)
(1.054477670682994 -0.01215534311369802 0)
(0.9901784451782556 -0.02340671774725368 -3.942004667765329e-20)
(0.9960123808025033 -0.04843841379189865 -2.641516454156556e-21)
(1.015060982301141 -0.01774921522924716 -1.711993595619985e-20)
(0.9972201493666534 0.0166198938850935 -5.691508942438983e-20)
(0.9953507945096515 0.01066892387769407 -1.51631892558892e-20)
(0.9939243671169486 -0.02827491395578303 0)
(1.003213778815834 0.02438526431184119 1.970543430717588e-20)
(1.055901043341152 -0.04432583707272263 0)
(1.111338616806332 -0.03549467667721636 2.647934023398238e-19)
(0.9957542858272403 0.01712321449005366 4.685653776108409e-20)
(0.615088334326847 -0.008674450533845499 0)
(1.134280840868869 0.1437853752823762 -5.016457603223194e-21)
(0.8605499659973787 -0.09861647551353819 0)
(1.137796795195332 0.07333556839337599 -2.673746227858495e-19)
(1.317433416419921 -0.3892501050538086 1.305109391660478e-19)
(1.071167656164355 0.06081943639037035 -1.283664063334876e-20)
(1.010151470318383 -0.03208017582071078 0)
(0.9562894482975137 -0.2165867037501676 0)
(0.503401390412483 0.145421686571404 0)
(1.015099174592933 0.008780544333056998 1.31407360013935e-21)
(0.685834741789641 -0.03084235279576736 0)
(0.9994023523482306 0.0179032412886405 3.592247458396466e-20)
(1.024427731869258 -0.005406126746313541 -2.806441006798597e-20)
(1.079037860384426 -0.008108987729116919 2.808505098135544e-21)
(1.042066415776434 -0.01661792214241503 3.30235898358594e-20)
(1.042343217765713 0.01158607801289283 0)
(1.065007783640968 0.02675889053168758 -9.472513579163731e-21)
(1.049569968472815 0.03515366385559294 -1.837924585512162e-20)
(0.9828049186718326 -0.02264822577420673 0)
(0.6249368673856504 0.005107372585349324 9.17684723533285e-20)
(0.8941557710901022 -0.005879233907718423 -8.852147096599215e-20)
(0.9093805451009713 0.005325741042543239 1.445897018020599e-20)
(0.6295570606735986 -0.00640151144987943 1.40434864964195e-20)
(0.9791750015203621 0.001445669433644256 2.578866398164543e-20)
(1.004453757593273 -0.01746600858008835 -3.63692379119703e-20)
(0.9756697137852655 -0.03211127509649497 -3.551721437910653e-20)
(1.085516271016525 0.001612413518176154 0)
(1.020187168787346 0.004547572711912759 1.01866942642734e-20)
(1.132262072599572 0.04910203637539242 1.294529167894081e-19)
(1.032566490334591 0.04016725403787973 0)
(1.022430829309559 0.00253431266467672 0)
(1.586529525469907 -0.1669824420246979 4.43021389054638e-19)
(1.051655134838797 -0.04573493902305892 0)
(1.016550261359336 0.007677874221848419 -3.835388457314177e-20)
(1.085826439307029 0.00204901481055929 0)
(0.4814195265345568 -0.02941444467253549 0)
(-0.00318888438836851 0.02638676333246052 0)
(0.9908030673547203 -0.02445645760800628 1.212474121661547e-20)
(1.302416687519217 -0.0951214353481248 3.779378154192332e-19)
(1.035168268912823 0.03561559981812367 0)
(1.022222352914856 0.003392370087745379 -2.258564670343808e-20)
(0.9619922239118307 -0.1614305718379247 1.89334952748855e-21)
(1.254871387172656 0.07955020217936638 0)
(0.5967224764731049 0.7284508076670445 0)
(1.314587314054553 0.1512973255775495 1.116900202297206e-19)
(1.680189742512693 -0.02452593840770997 0)
(1.050104543765837 0.1076869107598144 0)
(0.7074445605436566 -0.02361048148854869 3.106025836316306e-21)
(1.051173790185707 0.04368440697701194 0)
(0.7435708441578346 0.1214570905831778 1.198652236695107e-19)
(0.9967596972633831 -0.01656753980384169 3.565790902741013e-19)
(1.035503263762822 -0.04266938669634756 2.789224413645595e-20)
(-0.3822015541305907 -0.004294756202243032 0)
(1.072037351477631 -0.01649127590670535 0)
(1.090482675990119 -0.004032313832695271 0)
(0.6493715518647234 -0.5053833525099655 -2.458335341023979e-19)
(0.9903227576815998 -0.00169928793554892 0)
(1.092301727000941 -0.02120328279563112 3.817154601437466e-22)
(1.186932408110509 0.1214518750497624 -1.980368403187256e-19)
(1.090919062276249 -0.0478682280290282 0)
(1.005944085779127 -0.02140033816135707 0)
(0.7951519980550523 -0.1773187254964874 -1.646846015988384e-19)
(0.8843991033130562 -0.1259489923659696 1.548196477123007e-19)
(1.028615435259907 0.01411511494017293 -2.268051949948227e-20)
(1.023105794115442 -0.008977021638658336 -4.659785026845267e-20)
(0.8802399198505126 0.01560560052269626 9.350395824952281e-23)
(1.50755193147116 -0.193402923833651 0)
(1.305733129515765 0.1216318714349453 3.090509441934794e-20)
(1.244622936290331 -0.07301381654452074 -3.150143947608773e-21)
(1.09570270572204 -0.01841231398124489 -3.846909579818372e-20)
(1.037655337275774 -0.01115853923889093 2.431224398753564e-20)
(1.092840452734301 -0.03906177690684472 9.029780700286657e-20)
(1.031694726604603 0.02012518839087139 0)
(1.045269422771793 -0.03741012940606513 0)
(1.115953988420532 -0.008946419198558739 0)
(1.089419225151862 -0.03573681517234236 0)
(0.9980347242480518 0.01124908779183097 0)
(1.147423112719612 0.08006710754149444 9.589096269601056e-20)
(1.337831531107778 -0.1479948554380415 0)
(1.035034580341237 -0.024021045342737 -1.996427500143437e-22)
(1.050590291099198 0.05004214869908725 0)
(1.010250096578749 0.01465449939088849 -3.989170230045051e-20)
(1.03395026969276 -0.007499535715540046 9.035270544750219e-21)
(1.088922904033624 0.01346225581649222 -3.286451843360787e-20)
(1.085572829351301 -0.02831812746588994 0)
(1.07197894929144 0.005120714667755759 0)
(1.109303741349734 0.09491225123565819 -1.429168279415194e-18)
(0.9356992360766792 -0.1506734542661436 -7.052417550876042e-20)
(1.167044559711426 0.1113438202824752 1.123402414175105e-19)
(-0.4846549303949141 0.00581530104158185 -2.908394370728287e-19)
(1.018371852440251 0.02852216497412659 -8.929102787927739e-20)
(1.004022153283135 0.003144364745622946 0)
(-0.2865924410009167 0.02094299548449668 3.552502699555546e-19)
(-0.04586169522902917 0.290056399569655 7.982338349812909e-21)
(0.9952227340172795 -0.0062546343001324 9.985761506236108e-20)
(0.1896211262145519 -0.04153780723612112 1.404994854252798e-19)
(1.088744568212269 0.08056484806933699 1.460882404647362e-20)
(0.09419765912876983 -0.1116294060146729 -5.554284010406895e-20)
(1.108193960961392 0.002971241442540087 0)
(1.105225014726502 0.2588385940161809 0)
(1.021566378004515 0.02154910462813022 -1.747750452358558e-20)
(1.071127142563215 0.05100898010887757 0)
(1.027137126846624 0.02544176730596217 -9.344899362575918e-21)
(1.264929749756368 -0.549634312725126 8.076986793664042e-19)
(-0.117236042867833 -0.2104375110791246 2.213748485639804e-19)
(1.299082279384425 0.1187722463866676 -6.378386851795584e-19)
(1.121447831677646 -0.003762367044024516 0)
(1.122726626243526 0.09627771803471127 0)
(0.5294817062485748 0.08274827849120432 2.550689054478251e-19)
(1.023815567520877 -0.02060033806341384 9.265153696748841e-20)
(1.006439635047429 -0.0238424390966527 0)
(1.210070936721906 0.2704639044909301 -9.466490487275805e-20)
(1.264313534248128 0.1386309079410801 -1.613405321031473e-19)
(1.026663179237805 0.003267512907218377 1.522091586464599e-20)
(1.302563773177692 -0.08466059144181169 -5.034808607393623e-19)
(0.2919074233806012 -0.01373060673260313 2.649972579144155e-19)
(0.8243369846600024 -0.1445333169691947 6.640835611836264e-19)
(1.044137034163549 0.04913987139365251 1.059268068893879e-19)
(1.039463263179534 -0.001661214786715467 1.889509569337623e-21)