/*--------------------------------*- C++ -*----------------------------------*\
| =========                 |                                                 |
| \\      /  F ield         | OpenFOAM: The Open Source CFD Toolbox           |
|  \\    /   O peration     | Version:  2412                                  |
|   \\  /    A nd           | Website:  www.openfoam.com                      |
|    \\/     M anipulation  |                                                 |
\*---------------------------------------------------------------------------*/
FoamFile
{
    version     2.0;
    format      ascii;
    arch        "LSB;label=32;scalar=64";
    class       volVectorField;
    location    "1789.5";
    object      U;
}
// * * * * * * * * * * * * * * * * * * * * * * * * * * * * * * * * * * * * * //

dimensions      [0 1 -1 0 0 0 0];

internalField   nonuniform List<vector> 
808
(
(0.7562467952451325 -0.01749881569095248 0)
(1.031324998198656 -0.01256720022450656 0)
(1.114708409426888 -0.00415703831019631 -1.801170729662809e-20)
(1.085118684610242 0.01260816457324438 0)
(1.364550857947053 0.01655529464036148 -3.919997969638895e-19)
(1.03868217634852 -0.00931675716860135 -7.161429218161107e-20)
(1.013503159621027 -0.0207999085120453 -2.325806104211276e-20)
(1.078670682975091 -0.005193755419601378 8.981417422515248e-21)
(1.254263285709665 -0.01887861577597672 6.376919318969883e-20)
(1.084496729907829 0.0103253463194496 0)
(1.013502782745226 -0.00855866949945047 0)
(1.306314562755283 -0.05189014823031126 -3.57077165119213e-19)
(1.085953640497885 -0.001759513588910543 2.03367278068424e-20)
(0.6750865386830003 0.006406851971648664 0)
(1.285309911342785 -0.1142084854040687 0)
(1.081418328501205 0.0001093839617523554 -3.818866442844505e-20)
(1.232289914372466 -0.145818837737195 -9.870220503594843e-20)
(1.073973562880894 6.78696573015617e-05 3.166954366139777e-20)
(0.9931328313512281 0.005158744821763258 0)
(1.02635142550495 0.00935891253643833 0)
(1.038879527154079 -0.01025526490617175 0)
(0.9874492214682143 0.04433717045531142 0)
(1.051135918659125 -0.005973157020855416 5.507235691237535e-20)
(1.053341331431786 0.009102118012165735 0)
(0.9325752262867602 0.1970967744015395 4.613977914482856e-19)
(1.167603174271146 -0.08622834352571877 0)
(1.18574475559435 -0.01785560093797559 1.594635779463142e-19)
(1.077430571988834 0.009389285089778491 5.192033014967143e-20)
(1.084009239890352 0.002238741642485954 5.050967201144703e-21)
(1.071969940394247 0.03091146276016757 0)
(1.075566187899452 0.002653604970796502 -1.172469680444003e-20)
(1.032971136610071 0.006636364106342298 -1.972470260181757e-19)
(1.059848265855767 0.01488254876007692 -2.395260220214713e-20)
(1.089155950094518 0.005319909242283789 -2.928324574849881e-20)
(1.119562435167328 0.03913131082888235 0)
(0.7552097855713865 -0.1238901625732628 -4.53337560750846e-19)
(0.9545630038209729 -0.005854177308254207 0)
(1.068948158416056 0.02240389905862524 0)
(1.068835115814122 0.007356468252872724 0)
(1.07360853944988 0.008993639037690803 -2.838547306539325e-20)
(1.09188561919963 0.02434964078513149 1.120759189026181e-19)
(1.150392772422911 0.004199258997358791 2.196297015333917e-19)
(1.09593332981803 -0.002388308281652595 0)
(1.015892434028583 -0.00896836494421308 0)
(1.133854853059175 -0.09699742715760067 -1.647382788764274e-19)
(1.04410149132382 -0.01161286841141824 -7.906006307841585e-20)
(1.058300192802576 0.02663443267104412 -2.839066273697032e-20)
(1.231579915451935 -0.1114966494852612 -5.635011100288222e-20)
(1.067739160093579 0.01222421642776372 -4.275822075033473e-20)
(1.257339286299127 0.01905699743310267 0)
(0.9962461138118481 -0.01845768972799425 2.086857818493112e-21)
(1.044568809399772 -0.001900445690176921 0)
(1.087601249288306 -0.002195217531697542 0)
(0.9988127270834286 0.006546145099406704 -1.840862398482668e-20)
(1.250794003684392 0.0350754924679645 -2.312877280043368e-19)
(1.063781358995426 0.0182677578117621 6.168229641321566e-20)
(0.9912868174762425 0.008461492617677292 0)
(1.020887575805741 -0.009455918088899859 2.35174175847756e-20)
(1.107081929932122 -8.825647120833113e-07 -1.206645865237414e-19)
(1.061410581519902 0.03099172667604554 0)
(-0.07675288660370294 0.003583097400524892 6.991840876367747e-20)
(1.155070437424381 -0.05123548557974678 -1.928631054396293e-19)
(1.006146884430138 -0.008033930295488387 -2.584258301565368e-20)
(1.183625742724323 0.06999313101617312 -1.23826216869764e-19)
(0.9983894956558266 -0.009674135186255928 2.99288158061076e-20)
(1.084158269017678 -0.005538734973939529 0)
(1.244926746827494 0.1001087507051324 0)
(0.6960438582408589 0.003206258065107259 -7.497410954700637e-20)
(0.989948378202974 -0.0136336179752085 -3.118190243258356e-20)
(1.461579054898128 -0.01663926332202158 4.514128299429451e-19)
(1.060532860027198 0.007577354300773364 -6.82404650103613e-20)
(1.368692376121282 0.09946386580456465 2.934186940443256e-19)
(1.054718696091525 0.006871647776970906 -1.87471781183618e-22)
(1.081272584950492 -0.01390501925522305 -5.060555981703655e-22)
(1.165398967549688 -0.2362173819735499 0)
(1.021895452903325 -0.01439026282380274 0)
(1.017264670176443 0.01754295198149474 -3.155188436548789e-20)
(1.384978302271837 0.3491617611700547 4.141210211976201e-19)
(1.09699794299626 -0.04220298835266385 9.306660758767967e-20)
(1.045182417289518 0.2092367821746038 2.555929288642788e-19)
(1.126193876958034 -0.06135273246249797 1.147696881502533e-19)
(0.9220484586979777 0.005130141132176226 0)
(0.975462660434368 0.0185394099285367 0)
(1.004146128327425 -0.04903243016570857 2.61031288518266e-21)
(1.01045232477735 -0.01290262027792493 7.446319454917047e-21)
(1.02995845356029 0.02601028796670196 1.408623561038724e-20)
(1.531037410586391 0.03770397515808468 3.288630510572547e-19)
(1.288824645759713 0.07228828700369272 5.461783312198872e-19)
(1.072379631245028 0.002992702978780615 -9.303468327850186e-20)
(1.200618339028459 -0.09292745114980804 0)
(1.033684845920571 0.001785539498818018 1.355980586565951e-19)
(1.164177359945603 0.0230705363802912 -3.247806853324915e-19)
(1.001426205008557 0.03227557294156789 0)
(0.9996268197607232 0.002032955805921776 0)
(1.044492989132967 -6.919485809039189e-05 7.680794884575831e-20)
(1.208613182223577 0.1104526853545737 4.128401933792832e-19)
(1.011055771609343 0.00698431639988823 0)
(1.092104771988799 -0.0708039087065485 -1.050365165023976e-19)
(1.149504238357365 0.03827123260454823 0)
(1.210484919102362 0.09740764316861177 -1.950744168399612e-19)
(1.108028629192664 -0.02858192103951981 -7.625960786563944e-20)
(1.027387534407966 0.01159817714735832 0)
(1.085147893819121 -0.004661206170973858 0)
(1.019147505602799 0.02561158901354089 8.191276518449561e-20)
(1.071865730743636 0.05388905116740112 -9.412740033296748e-21)
(1.103818049933406 -0.004207418194402003 6.202818112201726e-20)
(1.111365439904348 -0.09650813657567205 1.527271107267277e-19)
(0.9610694376591197 0.00223039108423283 0)
(1.066288793806293 0.0311677202131306 3.880856025888399e-20)
(1.169150534770406 -0.07584524441381137 2.356999613999274e-19)
(1.051709106747269 0.04497631725491556 -2.929969600731029e-20)
(1.022474588326979 0.06715260519366215 3.760665091688726e-20)
(1.090508589731606 0.02608970288924325 0)
(1.01425829563161 0.01815895459020226 0)
(1.029001369623568 0.009436340407437021 7.917511327564699e-20)
(0.948727644342426 -0.03375726589844296 0)
(1.05293729696016 -0.00570060704531505 -7.976577579419237e-21)
(1.342699064433428 0.06092266939060442 -1.599600823738692e-19)
(1.080040041032364 -0.01322110657689558 2.587151669134545e-20)
(0.7439927467515696 -0.001756781187375684 0)
(0.5532801998888747 0.1683757114998832 -8.452149989545945e-20)
(0.7060734501555183 -0.002542739429844489 0)
(0.6989499827325631 0.01464462542474818 0)
(1.077654740299721 0.003605323511681816 -6.850067026031611e-22)
(0.9906378753275019 0.01452347418973239 0)
(1.278107551117506 0.1232903455709331 2.467960457817837e-19)
(1.012358803801758 -0.0278217487011252 -7.983578240139917e-21)
(1.043605086236733 0.02232057119600107 1.693300547934275e-21)
(1.058575690275108 -0.01167730897330314 0)
(1.126599819871187 -0.009163082827537188 -4.944119954053557e-20)
(1.260773903111169 0.1413339247402669 -2.252117930660832e-19)
(1.089244500195501 -0.01124940441015877 -8.519387540919142e-20)
(1.069652857317532 0.0262947309305277 -1.111090122642518e-19)
(1.04070408227274 0.04671950068770979 6.811350530812034e-20)
(1.022453757667136 -0.003737403789841921 -3.448605634379404e-20)
(1.061091894010922 0.02349220682313179 6.143977463739497e-21)
(1.129577318650838 -0.004818584343788579 1.074916419511865e-20)
(1.040293315359393 -0.01531650464802558 -4.773803094837464e-22)
(1.087636561211899 0.03477770791231262 0)
(1.028154108395147 0.01341386213985273 0)
(0.7666905514554152 -0.05713284920393723 -1.824669880441326e-19)
(1.03014160028369 -0.001708490118513384 -6.985375487177156e-20)
(1.131872877241149 -0.005750721751484262 -1.300346582586193e-20)
(0.7034613319572296 0.006577832234826214 7.441639326451189e-20)
(1.175034647216816 0.0207300281869836 -1.904453222184889e-19)
(1.12955879939143 0.003273060452994998 5.379445234827449e-21)
(1.128970876363746 -0.01002431516053168 3.496038429351278e-20)
(1.000940869297819 -0.002935980162069666 -7.75080641353014e-20)
(1.099104465091474 -0.0690118314026488 0)
(0.9850937308383927 0.001102789020850125 0)
(1.057944695013753 0.00708598777843441 0)
(1.005237141122588 0.1877804434576776 -2.488258035159505e-19)
(0.7793040963156014 0.01240583373740379 0)
(0.8568403036872438 0.1003891321395791 -8.481445833945518e-20)
(0.07442797567330307 0.04036457868133041 -3.041450926402029e-19)
(1.173050850367382 -0.02944954219045162 -2.218186957688899e-20)
(0.6713329766678601 -0.007305166679631436 2.434276291291325e-20)
(1.170935993799915 -0.1029774721097374 6.937460942728612e-20)
(1.123164069110605 -0.006786694720382389 -5.94594604705249e-21)
(1.155938375861685 -0.04796495162894204 2.155540227149891e-20)
(0.1079813063203666 -0.219195604857297 0)
(0.2533115779463854 0.08998224446634388 0)
(1.255064696998277 0.1143312272386259 1.946458084346922e-19)
(1.021342498056321 0.01979840759876698 0)
(0.737797468813485 -0.006303549823255243 0)
(1.075394580776367 -0.0118601190465605 2.701974179566394e-20)
(0.9749490341009313 0.002778882129578993 0)
(1.290995564407666 0.1331404845350272 -1.585076979484195e-19)
(1.057484408772102 0.01123890674342547 0)
(0.9937186340092392 -0.007612728689530637 0)
(1.065040750045622 0.008208769557123859 0)
(1.006157762156618 0.0208074587825273 1.738927346302892e-20)
(0.932264005101787 0.01437933137546304 1.064147544934523e-20)
(1.177535468612079 -0.1997801311312178 0)
(1.005191751126734 -0.005195416132323982 7.786135360296274e-20)
(1.059131734245102 0.006366369246800351 0)
(0.7746755175651693 -0.003297571767375941 0)
(1.216725884029704 0.02979212874592714 1.679470204227867e-20)
(0.7049842075083281 0.001326747656127408 0)
(1.436543002918069 0.09013332822431266 -5.353102165579715e-20)
(0.9945065038158675 -0.006900244723551307 1.706187843410736e-20)
(1.273904238402709 -0.0004550825984472092 -2.916628835816605e-19)
(1.059630851287024 0.008830274594812967 1.399938556740951e-19)
(1.000906894278464 -0.01360148646513833 0)
(1.217819831825758 -0.1465457316375906 2.036170694760845e-19)
(0.7331951897858261 0.01379151924254895 0)
(1.098396840402265 -0.0051286393617212 0)
(1.151317503543016 0.06874520523887909 2.042844484984612e-20)
(1.00711155363245 -0.006967658887481143 -3.025624444501153e-20)
(1.119684596560153 0.05236310232956394 -1.767775085483331e-19)
(0.1031763140861127 -0.08287512399838935 0)
(1.071833351324111 0.03805230986345992 0)
(0.6616904508319473 -0.002930114542551162 -6.837629504428477e-22)
(1.012151251511558 -0.01941992121506134 9.801947751113667e-20)
(1.061474018047657 0.0006925532492169737 0)
(1.078433713744524 -0.1244345735608158 3.722976062479153e-19)
(1.002762771276157 -0.006218987032090168 -3.479219621822503e-21)
(1.002428610892737 -0.005355750380578348 7.846453101917308e-22)
(1.093922051862239 -0.009335620082066454 0)
(1.020668326102836 0.02056167323990559 -6.243906180155574e-20)
(1.106592172708991 -0.001609893102982385 6.720464441427429e-22)
(1.074196511383175 -0.01135090402456169 6.57918914289613e-20)
(1.085829119387678 0.02236144235607689 0)
(1.331727067010452 0.1660382025132265 0)
(1.001996261393077 0.000100429503888777 4.41504070079294e-20)
(1.321695711280683 -0.1237618785121016 1.537741858882209e-19)
(0.05270792202225588 -0.1886198154726897 -2.560781666413708e-19)
(1.071332493200875 -0.005533477113609052 0)
(1.117388225539109 -0.0004921511931960103 1.215853740323381e-20)
(0.726888472426806 0.01785346513096333 0)
(1.062959581859018 0.004511382367194072 0)
(0.8717657165239949 0.1671414303244338 4.783174093005152e-19)
(1.269177809670491 0.1329028564354968 1.898032889050495e-19)
(0.654328424754261 -0.003102595859279598 -6.308087001773854e-20)
(1.041768760256914 -0.003407524319836026 -7.016566121320081e-21)
(1.054793815225857 -0.0002887137192344075 6.646345479903987e-20)
(1.363274897211003 0.1257203583863133 6.827866074406253e-19)
(1.334047736975773 0.2525570527173672 0)
(1.060310711581475 0.0002382585368891604 0)
(0.9988119431091693 -0.007298872345874295 1.539265151949933e-20)
(0.9935947274562986 -0.01105493942787889 5.267733285124788e-21)
(1.381895649469928 0.2004298921997393 4.23306948273006e-19)
(0.6816998322512736 0.000550180928632779 9.854317739601784e-20)
(1.005568283950325 -0.002083954113590516 -5.974686965037239e-20)
(1.098142260976943 0.01301507081186265 2.544261478776688e-20)
(0.6694748995044257 0.005005282136387589 0)
(1.066090291292185 -0.01201236676317098 0)
(1.004064506722858 0.1482725289833733 -1.224336099493146e-19)
(1.089107381615035 -0.008531153551913154 -2.444256621131095e-20)
(0.9821273403996764 3.223718968066712e-06 3.280354719832044e-20)
(0.9912104510352485 0.006039403397847999 0)
(0.6383046909743071 -0.001101542382356405 0)
(0.9768324627413868 -0.001180844277101904 0)
(0.6421281394769631 -0.001497654122390386 2.688002428636961e-21)
(1.090480713877913 -0.05667242261999267 1.195281621451513e-19)
(1.113547795150681 -0.0005692781813473191 1.226484709998119e-21)
(0.9579414680072926 -0.0009140001065627377 3.912036055565647e-20)
(1.015846541346641 0.01017665107665345 1.684336675221127e-20)
(1.066391776295182 0.001454695148859022 -2.427885910254771e-21)
(0.6347056166003815 0.008865681300284785 -3.645406274413294e-20)
(1.002908436807463 0.008886544664454 -9.26368250894307e-22)
(1.035425905448182 0.008959775889026666 5.226372354614775e-21)
(0.9875580555913229 -0.01270144340458576 0)
(0.6100019790118298 -0.0004938193043202181 0)
(1.068628918255591 0.02266824937002724 0)
(1.016906893168184 -0.01576540470173936 1.051387124436405e-20)
(1.023249054475582 -0.008297629409067258 0)
(0.9912307799796604 0.01434941340614256 -9.588741605097012e-21)
(1.011280078716271 0.001935135768297854 0)
(1.12739548603872 -0.00269602552570881 -1.158176843243612e-20)
(0.03989628776519011 -0.1425791612275182 -4.210325949960933e-20)
(1.036423788709151 -0.01722922157373172 -6.869389010737287e-22)
(1.042171164177322 0.004669639180096895 0)
(1.082052146491995 0.06553742315450571 8.437306708236146e-20)
(0.9688303353139688 -0.002320929344209635 3.113047185254512e-20)
(1.020599977595948 0.01688473464949236 -2.377382673208202e-20)
(1.001589677281681 0.000146499260839903 2.500893780509752e-20)
(1.040484073240869 -0.005944971894999067 0)
(0.6408954613259137 -0.004002932589229262 0)
(1.025801028308706 0.02454120295457278 -7.236660433920938e-20)
(1.082280772338633 -0.003358567706447976 4.805200663705269e-20)
(1.017043454065233 0.003626130807108446 0)
(0.9792232677383845 -0.002965670434212101 -1.944049007968247e-21)
(0.8725166052540169 0.0201271968526276 -1.09234712641713e-20)
(1.014028532864808 0.002718055484770773 -1.015175589302372e-20)
(1.02595814631269 0.004896028327274856 1.827119634994038e-20)
(0.9825833437234188 0.004333354731213876 0)
(1.002345044446405 0.01082731859631912 3.518603777946257e-20)
(1.108044241368335 -0.001433627624489293 0)
(0.9245988764580741 0.0001024255238075213 -3.230274126331871e-20)
(0.9598529284993007 0.005106698978331159 0)
(0.9165208796299484 0.2112671763239734 5.194649101834432e-20)
(1.010734992947409 0.06675881357429579 0)
(0.9930175363887244 0.004184452719892305 -2.281205516529376e-20)
(1.056633653268266 -0.0542508162359086 -2.88615565787945e-20)
(0.9913186987172492 0.0001806870532705481 3.396756361074487e-20)
(1.01199959619493 0.004872807841350779 0)
(0.9778964277265171 -8.861163899952586e-05 -3.165738688040267e-20)
(1.168600132655223 0.1023088108338011 -3.399698088459867e-19)
(1.069949173371468 -0.2651960768329952 0)
(0.9930894478075537 0.001442120687399554 -2.222709997220807e-20)
(0.9791108776048625 0.004253167071071338 5.059526845610456e-21)
(0.9635763885522731 0.0058481649518347 1.010525539750743e-21)
(0.7459198454938811 -0.001062139403706171 0)
(1.121440056640485 -0.0821419309391693 0)
(1.005100514360667 0.004247427640130071 -2.205702708641598e-20)
(0.9024916329344436 0.007669622627176936 -9.671540767166203e-21)
(0.8550829733697378 0.01534331664162184 3.628476248726276e-21)
(1.01362434711943 -0.001080236687988771 0)
(0.9500743644071056 0.006111374099358463 1.453526425811456e-20)
(1.005645849991555 -0.0002646392852033642 -2.311760998841307e-20)
(1.020550428365454 -0.001112465538418763 -2.585842311380391e-20)
(1.113569406151707 -0.001796211338969495 -4.937348946066949e-21)
(1.119134753313865 0.0007749782555985409 0)
(1.014518236234218 -0.01016100202097348 0)
(1.020346022387819 0.003025868630011459 0)
(0.9439790692397562 4.711730485295029e-05 -2.111434408371334e-20)
(1.017864531697363 0.01358343559190239 5.322449101563566e-20)
(1.08097068540072 0.0002926904676733715 -2.219150142347937e-20)
(1.03994081422417 -0.004424707383494562 0)
(1.106095637478249 -0.005571583868353565 1.842994246744239e-21)
(0.9954751097826396 0.002706301808014355 -2.214057972217013e-20)
(0.9868328883559315 0.006303908209169556 0)
(1.011750243006454 0.003147046599894856 4.657585056068997e-20)
(1.367812869365035 -0.3145984630414004 -1.134399826532222e-18)
(1.122909840834899 -0.04357276370776607 -1.080810883312429e-19)
(0.9656575068510146 0.002504901183550705 4.699423581113203e-20)
(0.7743617678201404 0.009171599286947933 -3.099025388935419e-20)
(1.221542931217575 0.05407270354143314 0)
(1.225410036839887 -0.1324322823055017 -1.462116435094763e-19)
(1.078165266339169 0.004299698132194375 0)
(1.008424347742843 0.001574487065487815 2.246873370977808e-20)
(-0.1666212338178293 -0.1277435050258933 0)
(0.99396678179918 -0.004646444735440866 0)
(1.012453509827846 -0.02317073158522865 4.635176066415026e-20)
(0.7062433753621736 -0.01945463005223727 0)
(1.096790637344537 -0.01482729875774403 2.114219433069163e-21)
(1.043921200126817 -0.0121921929094983 1.805423652610705e-20)
(0.6331490647505144 0.004137246527580791 0)
(1.449716304627579 -0.1223431765772148 0)
(0.9867753265840066 0.001286925139642004 -1.085102882659234e-20)
(1.069812423195321 -0.01500106033395318 0)
(1.037959727401276 0.0003903594629313999 2.156288424486982e-20)
(1.082335410009778 0.006350756112420897 0)
(1.009765957062138 0.005488770834833178 -1.041295479083479e-21)
(1.00586993101261 0.002961194751258706 0)
(1.012805210860346 -0.01225062164097096 3.531059197187692e-22)
(1.003663621369957 -0.02085275219256409 0)
(1.034583733905079 0.00388668058903313 1.705636690045574e-20)
(-0.1860391255560588 0.03082480963247103 2.633951322467854e-19)
(0.8066493922298481 0.02425454894739495 5.228510331990201e-20)
(1.005743407969492 0.001870842571024217 0)
(1.132644406620386 0.01977413591109991 -1.163309413849262e-20)
(1.122741188203852 0.01755221293880475 8.329600879759109e-21)
(1.05443484784061 -0.01304064600067035 -1.276202209213752e-19)
(0.9987854224535346 0.0103486687222493 1.307106628260333e-21)
(1.077341932885264 0.00649340653865255 0)
(1.185970533196001 0.05418190891139932 0)
(0.8354666062103614 -0.07665791150409011 4.587559170378138e-19)
(1.098806774567705 -0.004262838880214812 0)
(1.032924635632942 0.007354943490844907 -7.387560992537662e-21)
(1.04253405824708 0.005155163630119271 6.135242928196112e-21)
(1.054905121027093 -0.06150832762220421 -7.528639062014776e-21)
(1.13981011967878 -0.0006488969112173255 1.663027056669302e-19)
(1.085537366690676 -0.008740944396064881 0)
(0.994721971256226 0.001243743107458144 0)
(0.9959038467901096 -0.02534261383556546 -2.295902241158201e-21)
(0.9904762792498544 0.002764120183005884 0)
(1.030715249403424 -0.03879810817552314 6.361787566101247e-20)
(1.292532006368942 -0.09180213271479937 0)
(1.045418049304788 -0.009686504775973678 -2.254899284947524e-21)
(0.9861579328127625 0.01701018344507728 -8.461748464573728e-20)
(1.033637546036068 0.04085675627214427 -2.42707368022347e-21)
(-0.08566620932598731 0.1468840806745625 -1.640477390560605e-19)
(-0.06641796549553769 -0.3036648202585597 -1.379781489004444e-19)
(0.8884444531807875 0.1415990735455047 0)
(0.2955069744891287 -0.02298468631946347 -3.311448060011555e-19)
(1.007692203040868 -0.005340917025058887 -1.594842475056883e-20)
(1.063830034918266 0.002659468676524182 -2.120300487780984e-20)
(0.9918098329902114 -0.01849855021558694 2.933096328042437e-20)
(1.021036169286906 -0.03026509107816108 2.536497136532422e-21)
(1.009290713778865 -0.0324071951223952 -6.530808360261301e-20)
(0.9888035009791712 0.004809098430314353 -3.46654953459274e-20)
(0.992871351970457 0.004814076215413921 0)
(1.025351964741575 -0.002174392883606898 -3.551412060398736e-21)
(1.939344408718485 -0.1554263219902769 1.079813376671087e-18)
(1.045283899879053 -0.002623212170144845 0)
(0.9952294827370746 0.008353930468711687 1.558323095693082e-20)
(1.003010404356648 -0.0001570285972159606 4.073879341215321e-20)
(1.162495583888397 0.1369934539366513 0)
(0.9972604958876188 0.000110941240435399 5.441642866738859e-21)
(0.9485446057282493 -0.002236184208782258 0)
(1.037836074011508 0.04177285804092178 0)
(1.308730385028785 0.1666948230269401 2.365285311610127e-19)
(1.086418537254855 -0.00643373931567229 2.273226247097066e-20)
(1.018346300293112 0.03039603809451871 4.701960322339044e-20)
(1.088010535557784 -0.008799718957504518 -2.194101627754419e-20)
(1.046108536033711 -0.003673223532635112 -5.730583840571103e-21)
(-0.3841504561942037 -0.04904031815778409 0)
(0.9988404263777523 0.01451826722784153 0)
(0.106457023588273 0.05712347072324939 -8.628324885624015e-20)
(1.007143419479969 0.02203641854530568 -4.179719146408689e-20)
(0.9940357123466378 -0.008225578793248077 0)
(1.001131758762323 0.00577317063536129 -5.047432121203174e-21)
(1.081654639522691 -0.04236318253255357 0)
(0.9951383130567882 -0.01657714175240107 -7.743881180376083e-21)
(1.095537033879818 -0.05927383602932276 0)
(1.444964563273097 0.1793481142501632 0)
(1.054439703159801 -0.01213757097765799 0)
(0.9901931700610889 -0.02328559611257225 -3.93928271165067e-20)
(0.9951304539738537 -0.04840985639261705 -2.584684544268602e-21)
(1.015300218383666 -0.0175573897252006 -1.708161701793773e-20)
(0.9972655501498843 0.01664366885028772 -5.700508328335e-20)
(0.9953018389809668 0.01066227951388509 -1.518692530332098e-20)
(0.9938576659298906 -0.02818142877071749 0)
(1.003247373829274 0.02448493097486109 1.974191766716107e-20)
(1.055248575359084 -0.04455343637148298 0)
(1.111304272183908 -0.03549246180651575 2.650145404382027e-19)
(0.9957420152593353 0.01715938770422219 4.69388112106454e-20)
(0.6150921400941874 -0.008673317341681207 0)
(1.133981622844158 0.1423667356577576 -5.167408742248244e-21)
(0.8608393698446934 -0.09964975289218968 0)
(1.137840998394953 0.07334611165362216 -2.672769015427798e-19)
(1.317338986723912 -0.3891667523520077 1.305251086729281e-19)
(1.071530332568048 0.0606908479451658 -1.289413550728745e-20)
(1.010045161729587 -0.03200421450984932 0)
(0.9562551938851842 -0.2165155116012911 0)
(0.5020400666649499 0.1442862819953585 0)
(1.014891747272334 0.008790345110555561 1.311751524498312e-21)
(0.6859902516735034 -0.030682244148463 0)
(0.999346044043429 0.01798147304956449 3.598340901459564e-20)
(1.024117124998545 -0.005358918738129171 -2.811342460548238e-20)
(1.079047699098325 -0.008108927764695364 2.816479140872748e-21)
(1.0414628629172 -0.01555110928633797 3.317633644081265e-20)
(1.042344045293825 0.0115439205956953 0)
(1.064817573397756 0.0272047576341646 -9.55483039956254e-21)
(1.049634314741546 0.03505794000152807 -1.839857133777279e-20)
(0.9827548066883617 -0.02260431976534544 0)
(0.6249387939319934 0.005109085016026216 9.177854124241299e-20)
(0.8941565608132055 -0.005876799082609699 -8.853120666839872e-20)
(0.9093799730677842 0.005329135731723794 1.445552017445119e-20)
(0.6295547726469045 -0.00639865208126052 1.404530171219196e-20)
(0.9790459462764164 0.001433263321135816 2.588420936873702e-20)
(1.004455478694756 -0.01747194572288463 -3.643064136386888e-20)
(0.9748254314507178 -0.03102095854756966 -3.567855545315878e-20)
(1.085510754946368 0.001603633141008716 0)
(1.02015302873417 0.004508358165793577 1.021632817770579e-20)
(1.132299533965166 0.04909964952770871 1.294064308875049e-19)
(1.032726899050637 0.0401755386216574 0)
(1.022404017420801 0.002535731265974248 0)
(1.586416515637122 -0.1669163100035657 4.431024744074646e-19)
(1.050722932239526 -0.04513091705730898 0)
(1.016627142707517 0.007493265078789628 -3.841153792352289e-20)
(1.086151559669343 0.001517203891566416 0)
(0.4809781095247013 -0.03070932929667861 0)
(-0.005814022072942026 0.02600809925730142 0)
(0.9907346205150072 -0.02445754714957842 1.212981400454473e-20)
(1.302321680141394 -0.09506861241441551 3.781253914804791e-19)
(1.035335349022924 0.03580401014302315 0)
(1.022227919730605 0.003379614500989679 -2.262148270705379e-20)
(0.9626900164580977 -0.1617061896218579 2.24342944269995e-21)
(1.254639159238834 0.07955453765099146 0)
(0.5967962363463889 0.7286031781149153 0)
(1.314475516072376 0.1516283793043483 1.11942802997354e-19)
(1.680092546665029 -0.02445970509410422 0)
(1.0506389282563 0.1071763713457933 0)
(0.7076532243472807 -0.02338439396062175 3.038780091182264e-21)
(1.051461108041302 0.04383711948643702 0)
(0.7414037361870683 0.1202433870205787 1.190916309802364e-19)
(0.9967599792280137 -0.01656727563848269 3.564915477341695e-19)
(1.035232529805824 -0.04262320373727364 2.79222334696436e-20)
(-0.3818871707221194 -0.003135337702259921 0)
(1.072001203254253 -0.0164894246077192 0)
(1.0910802142559 -0.004387150246457218 0)
(0.6493038441993085 -0.5052054309539776 -2.459005714975463e-19)
(0.9904555371458293 -0.001704438473489483 0)
(1.092269939734812 -0.02121342968960176 3.757034680463465e-22)
(1.186995678218806 0.1214767050621569 -1.979836846013745e-19)
(1.090541909414549 -0.04742984896896961 0)
(1.005889724522946 -0.02141494861340022 0)
(0.7972746737091916 -0.1776088825429064 -1.654965640605137e-19)
(0.8853649304372878 -0.1259508405978411 1.552213156870531e-19)
(1.028370593762135 0.01393741451891849 -2.276659669473481e-20)
(1.023105630917712 -0.008989810074596568 -4.666870238518857e-20)
(0.8798646432064229 0.01552031396467068 5.520802615335362e-23)
(1.507450024813497 -0.1933257383009028 0)
(1.305352054059488 0.1218500144812112 3.101108763431408e-20)
(1.244811940900893 -0.07312396865845243 -3.135491123415649e-21)
(1.095709744811432 -0.01841379964752505 -3.847325973287619e-20)
(1.038083541839115 -0.0110671857646717 2.428040455607596e-20)
(1.092839668776496 -0.03906587995486712 9.028021260096923e-20)
(1.031721536563024 0.02007396035699033 0)
(1.045041419403781 -0.03722556807937905 0)
(1.115951284074562 -0.008949933040253055 0)
(1.089023530405068 -0.03498316372878099 0)
(0.9980152840381352 0.01124749270086907 0)
(1.147363291213439 0.07974723479450756 9.587849416416284e-20)
(1.338063053477262 -0.1477909820660447 0)
(1.035148095820481 -0.0237004264871466 -1.983879918354821e-22)
(1.050886304394906 0.05004294451567643 0)
(1.010237914447075 0.01467186759649565 -3.996187473317781e-20)
(1.033947882774697 -0.007534605513946332 9.03336935109605e-21)
(1.088924888235628 0.01345613347373878 -3.288708118222787e-20)
(1.085572230856669 -0.02839509481350183 0)
(1.072242814472226 0.004730592263817823 0)
(1.109381585987353 0.09496529656831124 -1.429862498277912e-18)
(0.9356864153299292 -0.1506170590544729 -7.051372220311147e-20)
(1.167076625587084 0.1106926361848294 1.121470237859476e-19)
(-0.4852352960639061 0.007211417049419151 -2.910360340128808e-19)
(1.018453210124907 0.02850637683212475 -8.939232560233729e-20)
(1.003969417768369 0.002729514923658326 0)
(-0.2885732642964481 0.02315416686779358 3.553528077214719e-19)
(-0.04665826978570321 0.2914885316487572 7.985557021425976e-21)
(0.9952236308997937 -0.006257079207899068 1.000490261949407e-19)
(0.1899334371724067 -0.0412578413708823 1.411564078121219e-19)
(1.089360289260833 0.08037114937065779 1.467328708113549e-20)
(0.0942069582448706 -0.111476069341454 -5.55285740180814e-20)
(1.108166566407311 0.002975320393673052 0)
(1.105335828339661 0.2590893668892644 0)
(1.021600246907647 0.02157349599213382 -1.749709268096993e-20)
(1.071649851219779 0.05128618838027817 0)
(1.027108452147466 0.02562392877813351 -9.406556555728896e-21)
(1.264841330553851 -0.5495785294152318 8.077091865075859e-19)
(-0.1162776438740779 -0.2081943137432288 2.217664092994436e-19)
(1.298808550407372 0.1189090459974264 -6.382766890537495e-19)
(1.12151462055543 -0.003736076511468742 0)
(1.123255646998864 0.09585680147143676 0)
(0.5296730238737472 0.0829782746425981 2.556323596130716e-19)
(1.023794233212793 -0.02064296263263174 9.264912102485379e-20)
(1.006392177160573 -0.02387497981153815 0)
(1.210142703280723 0.2705209717436215 -9.466537560663274e-20)
(1.263997399119449 0.139071711977256 -1.616363985366088e-19)
(1.026664956734305 0.003243415511871554 1.52175926955979e-20)
(1.302558255407947 -0.08463229121245602 -5.036300710211677e-19)
(0.2916119788748714 -0.01347693672168758 2.638821512023431e-19)
(0.8242494289108159 -0.1444387393246693 6.634257757751992e-19)
(1.044987571990153 0.04966671727349815 1.057866294257764e-19)
(1.039613952682424 -0.002231473211352541 1.884416440194346e-21)
(1.001526359208204 0.01963809593528671 3.017123848723053e-20)