/*--------------------------------*- C++ -*----------------------------------*\
| =========                 |                                                 |
| \\      /  F ield         | OpenFOAM: The Open Source CFD Toolbox           |
|  \\    /   O peration     | Version:  2412                                  |
|   \\  /    A nd           | Website:  www.openfoam.com                      |
|    \\/     M anipulation  |                                                 |
\*---------------------------------------------------------------------------*/
FoamFile
{
    version     2.0;
    format      ascii;
    arch        "LSB;label=32;scalar=64";
    class       surfaceScalarField;
    location    "334.5";
    object      phi;
}
// * * * * * * * * * * * * * * * * * * * * * * * * * * * * * * * * * * * * * //

dimensions      [0 3 -1 0 0 0 0];

oriented        oriented;

internalField   nonuniform List<scalar> 
1171
(
-0.9279012583675871
0.9279012584593889
0.7872828317058655
-1.098887530059564
0.3116046985520031
-0.1931449201981016
-0.7677933449221103
0.9609382647843679
0.07209874012970963
-0.1177881241459173
-0.2119965676828949
0.329784691156647
-0.7872828184976912
0.06926804401512704
0.7180147744748624
0.8106321444254423
-0.1775654036420903
-0.6330667409868407
0.8740083672775294
-1.043633128844816
0.1696247615168293
-0.2848365880894906
-0.09833514480812146
0.3831717324568089
-0.03635867996303542
0.5484999811534157
-0.5121413010809035
-0.5088371526848002
0.8297849230163761
-0.3209477697695337
-0.4026247194334262
1.045522385323778
-0.1715140211885918
0.3946589604322234
0.05022361202928658
-0.4448825731520278
1.046251960074358
-0.000729575632075383
0.4465295952733636
-0.05187061903824761
1.056705661363932
-0.01045370161255456
0.5796050773949758
-0.7727499991333765
-0.7241258875198209
0.5568815863220123
0.1672443012358829
0.2162876806590587
-0.7251248361287305
0.5497431170395877
-0.9224352263758236
0.3726921100628806
-1.09421919710625
0.6865547314461508
0.4076644654732824
-0.5954310895160707
0.5590724064867971
0.01730037792125812
-0.2558423030383322
0.238541927150263
-0.02341625328159656
-0.5248798149629764
0.548296065632665
0.3999110948049351
-0.4982462440854524
-0.9188395832640638
0.9416277823810034
-0.02278819897421145
1.067891846517467
-0.01118618519246404
0.9351277719312375
-1.11691463550592
0.1817868636382875
1.067479169039923
0.0004126770794621969
-0.664261958742533
-0.05986393698631932
1.262012801715683
-0.8644779833571539
-0.3975348184019292
0.1486395844710472
-0.1096385460849245
-0.3251749407273042
0.4348134865603009
-0.2855783212531794
0.1918319131959687
0.09374640725172859
-0.583489990774181
-0.5153975469276576
1.01414919055345
-0.07902141817226217
0.009883985084897443
0.8254784877220186
-0.8353624728259907
0.5717016799924907
0.6903111242618735
0.4388614259406483
-0.03106307430415766
0.4309741660025934
-0.8079138365795331
-0.1026185155073946
0.9105323520623415
0.5025128196688067
0.2540986024374535
-0.7566114219555286
0.004322652036577474
0.5313147421845036
-0.5356373948579837
-0.4899826261548552
-0.6042365694926661
-0.4228526393094401
-0.6940619945000689
-0.02754414440176476
0.2707913352200564
-0.243247191363996
-0.9249252401414826
-0.005204206227555594
0.9301294463562022
0.3078936396510412
0.07527808741925361
0.76190622796143
0.04872592054603422
-0.5329104525048604
-0.06252064177763041
0.04617992985122015
-0.8540937633108738
0.07733154001157988
0.8619491715720536
-0.9392807115032132
-0.3472169976243076
-0.04061058394629295
0.3878275823359849
-0.6823412057409005
-0.24258403300756
-0.6329487428180973
0.710280281776
0.6116442099453786
0.2181407111427371
-0.5432043746937567
0.9460426671158333
-0.7791625567581622
-0.1668801102727444
0.01583735192301998
-0.006518417929847439
-0.0093189315869161
-0.4032070033076592
-0.09503924074772345
-0.2419660546536958
0.8536102617439791
0.04825173956109894
0.3334294938967179
-0.3816812336786915
-0.4614647599089894
0.963977572892298
0.6802661463893853
-0.7828846580818821
0.3178182953955616
-0.01459638615909169
-0.3032219055681912
0.9306763884485019
-0.9306763884521806
-0.7824125370288666
0.1115307567994092
-0.3235273253846686
-0.7499947826457463
0.7598787674519097
-0.09129275736165232
-0.1427846860641695
0.2340774435845839
0.8648743290556458
-0.03939584172890978
1.054630286232793
-0.8005316874777318
0.1865486578482685
-0.316231393844736
0.1296827355727071
0.8586007873004861
-0.09669455690022613
-0.611448433589556
-0.03943064594266071
0.6508790795447027
0.1235913839724373
-0.2305320593468858
0.1069406767451642
0.8055394893122585
-0.983104887096781
-0.434341895426872
0.3291181828122834
0.1052237123606081
0.533221415446138
-0.5566376659661727
1.022070952917774
-0.4562748800724638
-0.5657960727807523
0.5992183087545716
-0.7192588651059926
0.06644773653464341
0.6528111279781702
0.1019893542493522
0.5700250483259564
0.05476347910372795
-0.6247885273841356
0.1949507807373237
-0.08342003006586581
-0.4923213410508367
0.1451043500603085
0.05033587286268405
-0.8865901067586303
0.8362542339225902
-0.4746562065433946
-0.7132391279556046
0.04897716585855665
0.436575088721619
-0.005600922944645678
0.3000999829669699
-0.8553050967068585
0.555205114113565
0.415749991886178
0.5842500080637547
0.5606390844200988
-0.5144591538193064
-0.3660700431922247
0.03865250482171737
0.3274175373894661
0.681277764742708
0.2493986257319105
-0.5677582217220697
0.5720808757104372
0.1114001388772626
0.8748075207832969
0.01030234461076129
-0.6217507816855657
-0.7491626287814459
0.7994985007454526
0.5305943928891377
0.07135875188965232
0.3002340669426077
-0.3715928189113014
-0.1675390296111829
0.4444790052802772
0.086835721502935
0.8739024954111868
-0.8014151707098072
-0.07248732453566144
0.6355168685397811
0.3105258001789055
-0.430751156887456
0.5747434576290067
-0.5033847038797837
0.417041516711972
0.1327015984602406
-0.04682433965566894
-0.5891586022288071
-0.1395173032862281
0.7286759054052208
-0.1496712114461299
-0.7810051745919218
-0.6110698507187773
0.3602335101400048
0.2508363396491136
0.6221218603677089
-0.6118195182855062
0.2384919370585961
1.011755819209409
0.04287446068632549
-0.7491626256743584
0.2208080499257007
-0.2049706979095887
0.6802661468620727
0.8020233241290343
-0.8020233241000565
0.8376129447199294
-0.8331563242725675
-0.004456620321807512
-0.4453397299094771
0.8610897181686129
-0.1475043177265008
-0.3448170180657771
0.7347683630841806
-0.6685602078612686
-0.06620815532389021
-0.7349543250238078
0.1457957281906389
0.1390869485042347
-0.6719974048291493
0.7828846587830955
-0.9504236884515124
-0.3658955186565861
0.2857539955020459
0.080141526170318
0.1457260050389004
-1.009873140732195
0.8641471357663063
0.4805256493590378
-0.04166422349126634
-0.3080881882017345
0.5862507229339354
-0.2781625346949769
-0.7384704728987199
0.8841964729456671
-0.1570406946867386
0.7334230959498058
-0.8360340528682664
0.102610957426886
0.9779782957904374
-0.5402154935052434
-0.4377628022124928
0.7551989890096288
-0.06486920271114947
-0.03622084478115062
0.1861764262310406
-0.1499555830280145
-0.7757597745856567
-0.8406900048738682
0.07289665923620683
-0.7499947843005107
0.5140550527359123
-0.5546656295235305
0.09576938074705409
0.7162575477914527
-0.8120269284441293
0.7536192455199059
0.1742820206411663
0.5029128523264603
0.4970871476594932
-0.05515522037639948
-0.6080323400369074
0.6631875596156643
0.8783453631352237
-0.004442867936965749
-0.7551989889954762
0.7994985011288037
0.1915311577593803
-0.4473734620906428
0.01423780076984768
0.002385794262762183
-0.01662359214082082
0.5894261291381671
-0.4376931945796385
-0.151732934598095
0.7180147652946764
0.01265868964345573
-0.1072669126810644
0.4386512249438594
0.1507749065435371
-0.01431718595129453
-0.007712060049183615
0.02202924569168603
-0.03278101539350072
-0.003439809448434443
0.2452617910443036
-0.2598581751881416
-0.9590640158305841
0.001882668603839233
-0.1595655147344564
-0.1206337348496846
0.09476697403391719
0.7220115149865285
0.7289449020997822
-0.1446948970647602
0.6669444308303335
-0.5711750475676395
-0.2119769391052098
0.3985256044377185
0.6955960277582088
0.02241873756454481
0.2417513823915186
-1.074907708453205
-0.9504236879206707
0.3022927181244432
0.7598787666788699
-0.2092152365340504
0.06643055575247865
-0.723894179630711
0.9097682639725039
-0.1858740841781517
0.4161165040646851
-0.02828891832799585
0.7713850311744961
0.2807411379926525
0.375645415660006
0.07088416724492616
-0.6587120763126103
0.6587120762857166
0.2148494091160207
0.6956829453632685
-0.05589145515631107
0.3893209405264577
0.3789220296314053
-0.01209378504455932
0.02633160022097171
0.4486212297103397
0.03190441631571204
-0.7384704759066347
0.5340083932055599
0.2007599693147628
0.3015217062603729
-0.1153452682716315
-0.6955960201458985
0.1794860029019403
0.730282254074169
-0.01029009387567376
-0.8135790283731648
0.8238691222209099
0.6963922969323706
-0.7919638008056168
0.09557150380435676
-0.7536192467846877
-0.1511743523192203
0.2122712180887139
-0.06109686693591328
0.07756477363666793
-0.1783255858185729
-0.1135290111274494
0.2918545962372447
-0.00494353593630056
-0.00937366221736969
0.7065532748899729
-0.7168433675964461
0.8865181586513436
0.07442010462858499
-0.3165428498159144
-0.5192203026364882
0.8357631519575588
0.1041415767884086
-0.1041415764441491
0.3244065136941115
0.4725323599305964
0.6172175256099355
-1.089749885165656
-0.1940826887697835
-0.5856168689140326
0.7796995576951984
0.01383042539153108
0.220247021488763
0.3763863853227681
-0.2527950067281755
1.015404200483494
-0.5428718398184629
0.6677361700358858
0.993885642208862
-0.3766681155583015
0.2288820686203287
0.8841964683626685
0.712682447518407
0.2138738867436234
0.7277538951236008
-0.7810051729283469
0.3412879203939486
-0.2796822992481025
0.2531789415050505
0.02650336163799918
0.846795200207303
-0.00187402133343619
-0.8449211787510006
-0.7022287448726705
0.7026414221780384
0.5546602692912592
-0.7022287460821285
-0.7126824474748528
0.7026414218642824
-0.03453680787374762
0.9093440492055431
-0.02282589362063815
-0.6812777680610484
0.6123044046587035
0.068973363447054
0.5385214786191989
0.537301578432412
-1.075823057125041
0.4882719452548513
0.527132255046783
0.5453564530852452
0.4578151399570643
-1.003171593006621
0.4933849382555992
0.5005007045117114
0.6123044067245846
-0.5255726935365277
-0.4658390015413877
-0.5567364194185016
-0.5153433042026118
-0.1197765034554931
-0.01249988037751867
0.0124998797615143
0.5121392943075268
0.5238915603940169
-1.039234864385513
0.5727913096281994
-0.2725572391782531
-0.8843838261235072
0.3441683328308479
-0.6330758400960943
0.3904918084384994
0.001956930630579036
-0.8261934924126833
0.8242365619202583
0.4208567097984171
-0.02141320066781285
0.8682083963021275
-0.9494915928670828
-0.8328718103956362
0.05394661137360009
0.7789251991098867
0.5662140164181299
-0.4400654867389554
-0.1261485303454225
0.6502443994505981
-0.7292658162707708
0.8885110110258511
-0.8292499186996676
-0.05926109243280452
-0.01273928833676504
-0.7886758823681563
-0.1104734551790903
0.7119271931574243
-0.6014537379354034
-0.9385559587278609
0.9258166705811085
-0.724397995865448
0.6903328146393244
0.03406518128459081
-0.8090760702110773
0.03567268055728406
0.7734033895575304
0.06192037003701063
0.04222120479857443
0.4328015782043632
0.06098058212788045
-0.8516217103731897
0.7906411284712764
-0.6453276593708084
0.5901724366119196
0.8883680285503067
0.07223451046283821
-0.9606025387088538
0.05549622104396285
-0.04909007152038316
0.3765076196862693
-0.3818662239569189
0.06563483763915978
0.8414384747597788
-0.8394815452291369
-0.7346559667989747
-0.8164259905476632
0.02775010912302385
-0.1635533366500842
-0.8513489174514828
0.02209899856080827
0.6217870456065632
0.04515738319836908
0.03207988954847297
0.5341341316452966
-0.8110689098354377
0.8467415878350355
0.5657960755109697
-0.847606696338134
-0.8663214454457276
0.04302260387385019
-0.02857349933908021
0.8361997896081388
-0.8076262902425221
-0.02711235718100834
-0.7632294695911441
0.5443123482657279
0.1520799491405388
-0.02513087501417609
0.8933392697893495
0.9797632841920493
0.8628078960734739
-0.8407088974426268
0.1479159090386721
-0.1479159061406713
-0.1179864456325416
-0.473584466239687
0.03351898442907467
0.2702811014183341
0.03201161642251667
0.3883041045446147
0.8662269108887712
0.008700868598847191
-0.01364441171584454
0.6585861177561444
0.34141388220967
0.7836539885957237
-0.5834899893348064
-0.7781129625004434
-0.8095003197860532
-0.6798532232782153
0.6798532233258475
-0.1680621078749475
-0.1554652288956385
0.6023436669579658
-0.811874997657433
0.2095313307148642
-0.4939851893506284
-0.5689364517837318
0.2780359196481585
-0.9720979149169207
-0.9005198802066049
0.8412587879127648
-0.8124486157003034
0.84019872483191
0.6486732434505923
0.1341416685477401
-0.7828149120064352
-0.7754351404407994
-0.1463133746487726
0.7245780484032165
-0.5782646738815252
0.03429297011191321
-0.01251164406071641
0.01679419244127662
-0.004282549889682266
-0.35388814089655
-0.1196963252773208
0.8803795839008371
0.7480374295086392
-0.2461117092571865
-0.501925720661447
0.6218889112007953
0.6856367037542885
-0.4707872922046589
-2.615344250049903e-05
-0.2855521640705881
0.01684857858752194
0.750941242190867
-0.7677898206733084
-0.3234246730809106
-0.07324679161273902
0.07636185932794402
-0.9643662476072093
0.1194450650176382
-0.6777333322762336
0.05287560467531521
0.6399991816009304
-0.692874786337659
-0.7560682175567295
0.07833488531877712
0.5882300463054319
-0.6614768379906393
0.1575701084535238
-0.3358956955860034
-0.7707194489731586
-0.004715691500473041
0.3711070875567049
0.6002630560260125
-0.02551959932406947
0.01944400214980718
-0.01944399985590411
-0.02021194806323
-0.04833306991450707
-0.2313492333468353
0.02866371451251689
-0.01996281139180343
-0.7255620700183327
0.2792574567180063
0.6804231793344931
-0.6887251050337183
0.008301925472443055
-0.5938863614754237
0.6467619707476322
0.6538164913153282
-0.06558644716958922
-0.6308139207377389
-0.1252542958932226
-1.050721608820912
0.01104246548815964
0.136873452246738
-0.7087134965395153
-0.7412873689477715
-0.7634611726833994
0.365926357369973
-0.4082438151015839
0.460500913314203
-0.05225709724301712
-0.6628745227580718
-0.04583897397064528
0.501677248616189
0.7306848568707027
-0.2354456789957692
0.1148119400353531
0.9690819450687586
0.4467416243356911
0.1331522346868635
-0.5798938589896048
-0.6769456914762176
0.01407116645231156
-0.04474704339292505
0.03223541305374965
0.6362918099164421
-0.7758091087868331
-0.001706383963874665
0.001706385541742421
-0.6012143650645043
0.6489264081366841
-0.04771204346228101
-0.6448657976564718
-0.1132167722060065
-0.6715001989489305
0.06030657050808988
0.6028809874806575
-0.1373439523080122
-0.8178135659433189
-0.5702021945852505
0.567218637651731
0.002983554709019531
0.6290853157342219
-0.6207833875402627
0.3225500429576683
0.2138930818514353
-0.5364431247664532
-0.1049955610761605
-0.6013634701435692
-0.09151131225682005
-0.1544727400999373
-0.5098956313263703
0.4041174288323782
-0.4991566726927983
0.126882701999891
0.6784361809402267
-0.8053188827932771
0.5992183087719818
-0.3672809423142562
-0.04096287721512865
0.08167241038610984
-0.591568044935458
0.5515267315326987
-0.04063797290543968
-0.5108887582762356
-0.3130476533860996
0.3056121323725602
0.007435518742659603
0.4541785084902797
0.1186127963911563
0.052453028958523
-0.3164858931779595
0.1574644807830768
0.1590214120069501
0.2283721599254177
-0.007564099740955238
-0.2928913118253025
-0.3100445629255885
0.3509045745204747
-0.04086001813522337
0.7871812320184277
-0.6255669809745756
-0.01929881700157573
0.4992084616857516
0.2826441552720125
-0.5287558674980396
0.5774983753730741
-0.5774983753868533
-0.2897387024818855
-0.586443794830988
-0.2955906284176932
-0.5864437946948754
-0.5946761791351338
-0.8385010474728273
0.1699408370922124
-0.5920479914022235
0.8211003085918005
-0.00313889397714077
0.1175930881496379
0.4826699687075079
0.09677615768951929
0.1860469006078536
-0.03651360647095431
-0.1495332939683658
-0.02482936356975008
0.5921506956433953
-0.9448178850615295
0.4255975820366389
-0.007245334601263691
0.004070113965585097
0.003175222573085247
-0.6438511170957887
-0.1318333890898993
-0.4685581508331184
0.6017103877695908
-0.5035574571808777
-0.3275069653221433
-0.2640610579799319
-0.2712102847198397
-0.1115755938499173
0.1115755919920168
0.1528123018182103
0.05945891490228853
0.1970893613136033
0.4529368156392507
-0.5717716002613044
0.1032134511903386
0.2459335846051755
0.4664949234771262
0.533505075903665
0.6426254599840793
0.08874281872943168
-0.006022682568551046
-0.08272012823032958
-0.2770615641165609
-0.5407520020343964
-0.5515021461521978
0.1147125926481282
-0.126571928743375
0.01185933547935024
-0.1054586251831416
-0.3854549890439921
-0.04873910479716175
0.6516200859809519
-0.4989664054008458
-0.1448847116685255
-0.3340253777780821
0.2894279096582971
0.1272221719517637
-0.6170140224200519
-0.2045757198866334
-0.2628067649766609
0.002948583696020784
-0.4219536794041238
0.3238812898072734
0.09807238984155094
-0.09603951728476698
0.2917116168187848
-0.8959481870542332
-0.4575442344312592
0.6267907186769907
-0.7732031535109865
0.6682075923920938
0.3402308621818669
-0.1241079305848817
0.2239181811183482
-0.09981024981727234
0.02597857774732296
-0.5862882638313577
0.02889764798244589
0.5573906160128351
-0.9006256927674982
0.5477376019421214
-0.665724047339304
-0.103559097292128
0.1099073505648997
-0.1099073481270199
-0.3165120445257711
0.3601365526770848
0.01637106847889588
0.0303513617421715
0.05839146180336784
0.5050747962336355
0.6641523038215168
-0.7366396278218328
0.03273715376178997
0.02146579522284328
-0.00202180380375538
-0.007215550527132407
0.007215548832422155
-0.4147866787659065
0.5333994768561672
0.01567829267373783
-0.01567829273790216
-0.792459107346373
-0.06122333280404796
0.1231437048652894
-0.4572073664526775
0.5604208199822573
0.4523101685226936
-0.5000222163003381
0.1502604144586617
-0.1502604116423482
0.03179238280269191
-0.005460782683234439
-0.04255974241014539
-0.975320417037196
0.5375576146203992
-0.4670437918287892
0.04222121126912871
0.5149413389398035
0.03082434906620144
-0.5457656879299884
-0.6164180834664312
0.1174516829092599
-0.3290960249478981
0.01349849155661639
0.3155975350221872
-0.1557608838712447
-0.07968478042674976
-0.5410029883732215
-0.0452852679975427
0.1368734398530229
-0.0399048358320332
0.03819845255760016
0.08048944076969917
-0.08048944220460778
-0.5291289391876358
0.4882689299884512
-0.4148270781858918
0.1613185726300756
0.6223354159423067
-0.09722389092721356
-0.002649800555969592
0.002649799466045493
0.5329426715962901
-0.08287988645642484
0.005765768264020469
0.02696609205522147
0.03500565350988801
0.6848047582301007
-0.76768464481934
-0.6527692993755063
0.6334704847187286
-0.1069072506425979
0.3137700262920739
0.7458073465383156
-0.0202119491248985
-0.2661655587714064
0.150820294297444
-0.7446056622932856
0.4839989651572906
-0.4276144029750208
-0.1014767408722168
0.003309363423482726
-0.01426445808739647
0.02264102130506613
0.4108264450342267
-0.1215281688196886
-0.3893605835478441
0.6288117503126415
0.01971542852827351
0.00995265117398586
-0.009952650645594367
-0.3509098827953858
-0.07619211214408209
-0.5602940614448888
0.5571551674842451
-0.2376369393439243
0.4647225516616775
-0.1511137679777299
0.7307188445174743
0.670485583346057
-0.03990483713464088
-0.6175020721879337
0.5632186703210924
0.286499962473786
-0.2822145053545502
-0.004285456340854394
0.5374309741562638
0.0934094271046375
-0.03904346853799427
0.195944898817762
-0.1569014304622683
0.1195329057002233
-0.1195329084206292
-0.8586751546858915
0.002344513717263724
-0.1136693264717882
0.1406354196587564
-0.1315779206830672
0.1315779182536399
0.02146579899998638
-0.02286175902308582
0.6698567873000811
0.06042546569765164
-0.3226524624084412
-0.0628025260796133
-0.4712374420407809
-0.0475254213107198
-0.1512710765165117
0.1512710734682036
-0.05092775649336258
0.1436568227233458
-0.1436568198001558
0.1360910841002509
-0.1360910868733138
-0.3160745280205765
-0.1146766288245974
0.2260412114094499
0.1030769745261535
0.03480603134158586
-0.8211633217553969
-0.1985672847350476
0.1699487052530808
0.02158245277723753
-0.2643835692116305
0.1261599209662288
-0.1261599183846749
-0.4142668501305041
-0.08488982590469928
0.2358125480445617
0.002729379229334673
0.04058460859363593
-0.5440251538528312
0.5785619617278065
-0.03652064329329346
-0.01440711033573936
-0.02622692967358084
0.02076614577325958
0.006603582475114284
-0.1847761688972996
0.1781725868040022
-0.1087035086606518
-0.2271921821464079
-0.1444025613800476
0.1444025584336885
0.07253848923533367
-0.07253849085515315
-0.01904767446175211
-0.1085466091668715
0.1275942849265758
0.2375572871428216
-0.1833649153309158
-0.02845461569891064
0.02643280492720783
-0.1333531180708335
0.6216220454223208
-0.03903710469426328
0.4270676957900645
-0.04340557567198659
0.06543481957012257
-0.1529684388702209
0.1529684356388261
-0.6368263911162817
0.3081952242917886
-0.07931315311438858
-0.2341202225869326
0.003588153245261396
-0.1206048759219383
0.1611894839938471
0.1959898873900759
0.09586470876449264
0.09705249428968968
-0.06204684164002421
0.07306798177796857
0.041644608629251
0.06413148053268988
0.1058172242420497
-0.09860847929702313
0.2134204091031418
0.01165903342453904
-0.1185713232989903
-0.09957769034570468
0.09633823218954761
0.003239460970002795
0.01151314509181066
-0.02369013212336663
0.03747774686989087
-0.03747774715144146
0.07534002516508401
-0.05525183321717793
0.05525183274946529
-0.2244017433099539
-0.05313648929229221
0.01162494124912792
-0.1030548154173685
0.01655818924163375
0.1087557748325543
-0.108755773246959
0.294062277840078
-0.2710004202430589
0.1622969133154679
-0.05108277829247113
-0.2199176429265109
-0.01700934123483105
0.01700934212586693
0.3676249013064733
0.2851862320780092
-0.528051465306289
-0.09394953945906129
-0.03262238811516805
0.5289434763162802
0.211330345179541
-0.1703008420187063
-0.3794644902328492
0.07649464626203779
-0.1472741027943045
0.1868226374178527
-0.03954853553804771
-0.06711117204617519
0.06711117328215471
0.8223019928093774
-0.5604645314434472
-0.006369384684788015
0.01788253225073604
-0.02000233957339696
-0.287298619461158
-0.01749690308044441
-0.01282463765803892
-0.1321367286946691
-0.5722640286450108
0.556127263618899
-0.5692998182187066
-0.006868525324432925
0.1016881710162357
-0.001697354343691585
0.01687735172878477
-0.1672764501650111
-0.3361335469525092
0.2330787319675274
-0.05410841290829622
0.03506074557851515
0.1320202144858358
0.1735919208206029
0.340778681532354
0.2759609428949077
-0.2776582959176544
-0.06137923535397487
-0.1552784118866238
-0.2206217265950399
0.0745768091565845
-0.01044532746346691
0.2135251462479952
-0.1966477938464226
-0.08628969837351237
0.1593576776613099
-0.3554067410135762
0.2079841916724471
-0.1914260028458937
0.08957373018291856
-0.4789343163128826
0.173997996119174
0.1706140953150008
-0.2569037944946997
0.07336235938639941
-0.1948375521933609
0.1773406486234956
0.01740414420802848
0.1419535374484251
-0.03957353374460279
0.06567570100877743
0.4672669700985901
0.02046839716671676
-0.08485373733111415
0.05361733694296081
0.1263709598648072
-0.2601702615137649
-0.2309098345440997
0.5597444153870901
0.1570932862097117
0.07871926461438063
0.07468135209972107
-0.030983798041065
-0.01042916715026546
0.006143697030131463
-0.03268762636725277
0.1707176239175547
-0.1775861485056859
-0.06221271205225759
0.02006342577223342
-0.1471887915496327
-0.05288401891099534
0.1512077165965669
0.2770425705433937
-0.03923362863862599
0.01033698789929375
-0.2554810943110741
-0.1328212746848465
0.2362489361783553
0.1784165789650806
0.1297786482973721
0.02209914570552995
0.08855718411600491
0.05244416187700571
0.4526306343888048
0.01489849401521199
0.09788237833238103
0.04313295196428731
0.0721959146942258
-0.1153288689694457
-0.2428652294403605
-0.2005157313803961
-0.01940191245398916
-0.2018917438656662
0.2748830046973612
)
;

boundaryField
{
    FrontBack
    {
        type            empty;
    }
    Top
    {
        type            calculated;
        value           uniform 0;
    }
    In
    {
        type            calculated;
        value           uniform -1;
    }
    Bottom
    {
        type            calculated;
        value           uniform 0;
    }
    Out
    {
        type            calculated;
        value           nonuniform List<scalar> 10(1.033628397584943 1.064094171596818 1.022575420977812 1.020517192840638 0.9951167169725155 1.015844008773577 1.036030855259924 1.062921641236622 0.8672370783923411 0.8820344232191573);
    }
    circle
    {
        type            calculated;
        value           uniform 0;
    }
}


// ************************************************************************* //
