/*--------------------------------*- C++ -*----------------------------------*\
| =========                 |                                                 |
| \\      /  F ield         | OpenFOAM: The Open Source CFD Toolbox           |
|  \\    /   O peration     | Version:  2412                                  |
|   \\  /    A nd           | Website:  www.openfoam.com                      |
|    \\/     M anipulation  |                                                 |
\*---------------------------------------------------------------------------*/
FoamFile
{
    version     2.0;
    format      ascii;
    arch        "LSB;label=32;scalar=64";
    class       surfaceScalarField;
    location    "28.8";
    object      phi;
}
// * * * * * * * * * * * * * * * * * * * * * * * * * * * * * * * * * * * * * //

dimensions      [0 3 -1 0 0 0 0];

oriented        oriented;

internalField   nonuniform List<scalar> 
1171
(
-0.945663
0.945663
0.781399
-1.08814
0.306742
-0.360271
-0.765642
1.12591
0.0543367
-0.0633877
-0.274825
0.338212
-0.781399
0.085164
0.696235
0.937005
-0.202278
-0.734727
0.845204
-1.03658
0.191379
-0.355065
-0.0337781
0.388843
0.00179744
0.602762
-0.60456
-0.510324
0.981298
-0.470974
-0.418453
1.01425
-0.169045
0.279881
0.0806107
-0.360491
0.999715
0.0145347
0.321636
-0.0417552
1.03304
-0.0333231
0.670741
-1.03101
-0.791455
0.615338
0.176117
0.377449
-0.887773
0.562326
-0.9163
0.353975
-1.07978
0.669621
0.410157
-0.642675
0.644473
0.0358723
-0.255906
0.220033
0.0138962
-0.634253
0.620357
0.466929
-0.500707
-0.844756
0.893034
-0.0482779
1.00773
0.025308
0.924149
-1.07835
0.154204
1.04345
-0.0357186
-0.701136
-0.0903191
1.24763
-0.857055
-0.390572
0.198692
-0.0686693
-0.417109
0.485778
-0.274184
0.181979
0.0922044
-0.603399
-0.484742
0.974516
-0.0503671
-0.0146901
0.866921
-0.852231
0.508525
0.739102
0.534093
0.0275255
0.439404
-0.786825
-0.106224
0.893049
0.599012
0.231892
-0.830904
0.00957701
0.618379
-0.627956
-0.508845
-0.570934
-0.391149
-0.687205
0.0294298
0.242483
-0.271913
-0.944124
-0.0317369
0.975861
0.37374
0.0151033
0.867924
0.0690815
-0.605028
-0.0376476
0.038965
-0.82579
0.180006
0.907313
-1.08732
-0.406357
0.0228332
0.383524
-0.713495
-0.23063
-0.725561
0.905568
0.607597
0.373701
-0.577034
0.997169
-0.822554
-0.174615
0.0564963
-0.168017
0.111521
-0.457788
-0.0429193
-0.323173
0.93077
-0.0205544
0.442651
-0.422097
-0.49135
1.09036
0.711844
-0.818068
0.385291
-0.0761742
-0.309116
0.763385
-0.763385
-0.962325
0.0384112
-0.313236
-0.695695
0.681004
-0.0307622
-0.14137
0.172132
0.88892
-0.0219982
1.04818
-0.816289
0.222006
-0.317726
0.0957203
1.00398
-0.136055
-0.680679
-0.0498406
0.73052
0.150155
-0.233659
0.0835039
0.811824
-1.0141
-0.445729
0.31214
0.133589
0.656996
-0.643099
0.882869
-0.399111
-0.483758
0.49172
-0.694645
0.0375137
0.657132
0.173075
0.672647
0.0444729
-0.71712
0.13227
-0.0938589
-0.51611
0.109753
0.036473
-0.906754
0.870281
-0.553642
-0.763494
0.0623576
0.499076
-0.0596723
0.274044
-0.832498
0.558454
0.424416
0.575584
0.597987
-0.559022
-0.364736
-0.0350958
0.399832
0.541814
0.221571
-0.662065
0.671642
0.0819667
0.896988
0.00458385
-0.685263
-0.766768
0.803241
0.622807
0.118391
0.356038
-0.474429
-0.156169
0.509574
0.108805
0.76526
-0.701896
-0.0633633
0.655299
0.341871
-0.428358
0.717775
-0.599384
0.409856
0.152469
-0.0581962
-0.632955
-0.179522
0.812477
-0.117461
-0.645924
-0.612692
0.364906
0.247786
0.661727
-0.657143
0.30745
1.03458
0.0136014
-0.766768
-0.0395016
0.0959979
0.711844
0.785628
-0.785628
0.844397
-0.831159
-0.0132374
-0.45483
0.879246
-0.193698
-0.322412
0.76279
-0.668046
-0.0947434
-0.8407
0.207745
0.106177
-0.711205
0.818068
-0.974237
-0.168034
0.162851
0.00518337
0.11759
-0.989509
0.871918
0.547244
-0.0131507
-0.290491
0.596386
-0.305895
-0.65448
0.772071
-0.160827
0.768238
-0.752693
-0.015545
1.17387
-0.643151
-0.530722
0.727432
-0.0699251
-0.0181826
0.0197167
-0.00153413
-0.801141
-0.896935
0.131293
-0.695695
0.575711
-0.552878
-0.0521666
0.702815
-0.650649
0.780006
0.165657
0.492
0.508
-0.0367506
-0.632045
0.668795
0.712069
0.0531902
-0.727432
0.803241
0.178664
-0.434569
-0.0181275
-0.00358833
0.0217159
0.675672
-0.440521
-0.235151
0.696235
-0.00759904
-0.128697
0.552911
0.122761
-0.00786531
0.00197486
0.00589044
0.0022294
-0.020412
0.122175
-0.19835
-0.946455
0.0450709
-0.143213
-0.0458589
0.12363
0.76719
0.743086
-0.167502
0.360856
-0.413023
-0.162695
0.384701
0.640879
0.0553562
0.228789
-1.05995
-0.974237
0.314067
0.681004
-0.157772
0.0164019
-0.812261
0.979608
-0.167348
0.485749
-0.102225
0.800356
0.305355
0.279242
0.042394
-0.680743
0.680743
0.224077
0.668972
-0.00810801
0.450759
0.47767
0.0245522
-0.0426798
0.554911
-0.00766731
-0.65448
0.572352
0.190437
0.0177339
0.00198282
-0.640879
0.164664
0.814944
0.0168798
-0.723326
0.706446
0.758853
-0.822995
0.0641411
-0.780006
-0.0323586
0.0440883
-0.0117297
0.0836996
-0.12748
-0.107798
0.235278
-0.00702648
-0.000838827
0.764062
-0.747182
0.88248
0.243432
-0.477388
-0.486159
0.963547
-0.00112193
0.00112193
0.127755
0.375242
0.738197
-1.11344
-0.197247
-0.56099
0.758237
-0.0186897
0.190822
0.385922
-0.235766
1.08987
-0.714624
0.763422
0.934004
-0.195807
0.192224
0.772071
0.603025
0.257112
0.635922
-0.645924
0.319257
-0.0219716
-0.0215421
0.0435137
0.837413
0.0373569
-0.87477
-0.569702
0.533984
0.54517
-0.569702
-0.603025
0.533984
-0.00506948
1.02958
-0.147097
-0.541814
0.461739
0.080075
0.505277
0.659148
-1.16442
0.459598
0.630268
0.679636
0.474855
-1.15449
0.35329
0.580714
0.461739
-0.52008
-0.547418
-0.688389
-0.435033
-0.0498773
-0.00317951
0.00317951
0.626455
0.584271
-1.0193
0.73727
-0.381232
-1.05331
0.410163
-0.683835
0.453205
0.0260684
-0.960362
0.934293
0.452594
0.0227418
0.814671
-1.20295
-0.969464
0.030919
0.938545
0.325939
-0.0655048
-0.260434
0.766852
-0.817219
1.06083
-1.00352
-0.0573071
-0.0293823
-0.672514
-0.105816
0.822299
-0.716483
-0.979037
0.949655
-0.545969
0.635526
-0.0895569
-0.892879
0.231106
0.661773
0.00328815
-0.00441008
0.426513
0.142119
-1.03075
0.888627
-0.742904
0.706153
1.00547
0.118495
-1.12396
0.036004
0.0112233
0.388609
-0.358228
0.0405023
0.954924
-0.928856
-0.649447
-0.83081
0.158296
-0.122471
-1.0395
0.035979
0.561514
-0.200658
0.105165
0.220774
-0.487302
0.718408
0.483758
-0.93762
-0.860541
0.169037
-0.117372
0.621404
-0.504032
-0.105209
-0.766819
0.579266
0.179588
-0.134102
0.948773
0.980574
1.00544
-0.969459
0.0452615
-0.0452615
-0.0901885
-0.318559
0.253055
0.34013
-0.0260627
0.271643
0.843564
-0.00263199
-0.00439449
0.658328
0.341672
0.797354
-0.603399
-0.760933
-0.466675
-0.485706
0.485706
-0.206111
-0.107125
0.681868
-0.985463
0.303596
-0.485836
-0.559857
0.359391
-1.0466
-1.00381
0.946506
-0.558159
0.716455
0.687469
0.186274
-0.873744
-0.556232
-0.167414
0.836478
-0.669064
0.160249
-0.0050562
0.00358503
0.00147117
-0.0268598
-0.2917
1.04126
0.694723
-0.391238
-0.303485
0.434289
0.741181
-0.517104
0.010128
-0.284312
0.173872
0.742224
-0.916096
-0.359126
-0.0712619
0.13519
-0.9715
0.0967307
-0.799189
0.0475161
0.77582
-0.823336
-0.88288
0.0836914
0.698467
-0.769729
0.235308
-0.362788
-0.411808
-0.144425
0.3704
0.747779
-0.0300042
0.00463286
-0.00463286
-0.00120465
0.000203253
-0.0221749
-0.0173799
0.0147479
-0.612466
0.327929
0.789249
-0.844902
0.0556524
-0.73491
0.782426
0.767796
-0.0693292
-0.731776
-0.151105
-1.17422
0.0205551
0.0247064
-0.438594
-0.837592
-0.856195
0.465622
-0.212893
0.212301
0.000591311
-0.543464
0.10487
0.516262
0.712665
-0.0344755
-0.0113835
1.11592
0.495063
0.224488
-0.719551
-0.439726
-0.103737
-0.00814751
0.00309132
0.705372
-0.884895
0.00660581
-0.00660581
-0.710675
0.706318
0.00435732
-0.334561
-0.0893426
-0.707361
0.0507106
0.618085
-0.0510483
-0.874775
-0.0459817
0.138046
-0.0920641
0.831802
-0.77615
0.341965
0.265034
-0.606998
-0.13222
-0.721585
-0.101751
-0.215612
0.00472893
0.470857
-0.513777
0.178577
0.727507
-0.906084
0.49172
-0.11884
-0.0940528
0.122697
-0.117968
0.597736
-0.0936325
-0.504103
-0.282491
0.302902
-0.0204115
0.600595
0.136675
0.0462116
-0.309415
0.167063
0.142352
-0.117753
0.0782515
-0.248923
-0.00494436
0.118924
-0.11398
0.860152
-0.350295
0.0157339
0.554154
0.243429
-0.634667
0.409378
-0.409378
-0.19895
-0.390829
-0.210719
-0.390829
-0.658341
-0.849672
0.181626
-0.0972402
0.730096
0.0448574
0.16648
0.581299
0.108445
0.116218
0.0104265
-0.126645
0.0408056
0.772422
-1.05106
0.564899
0.019597
0.0698853
-0.0894823
-0.738394
-0.17597
-0.578826
0.803314
-0.545814
0.0626508
-0.180619
-0.335179
-0.0817523
0.0817523
0.0413898
0.00269851
0.136773
0.290553
-0.767075
0.188249
-0.00194511
0.471007
0.528993
0.752365
0.0276289
0.00893968
-0.0365685
-0.292675
-0.5821
-0.538647
0.111797
-0.117027
0.00522993
-0.114769
-0.416045
-0.0174548
0.635539
-0.579312
-0.159081
-0.105366
0.0422861
0.0959941
-0.308153
-0.195684
-0.178196
-0.0201534
-0.485906
0.430881
0.0550253
-0.0559708
0.293494
-0.864428
-0.541003
0.676345
-0.851137
0.718917
0.461982
-0.033483
0.061004
-0.027521
0.00627627
-0.635108
-0.00107733
0.636185
-0.894291
0.637043
-0.727231
-0.104552
0.00690939
-0.00690939
-0.299287
0.441038
-0.0524291
0.0150868
0.012542
0.592803
0.54854
-0.611903
0.0114985
0.00696075
-0.00232788
0.00354747
-0.00354747
-0.517954
0.654629
0.0130751
-0.0130751
-0.777417
-0.00859462
0.0118828
-0.525023
0.713272
0.59727
-0.592913
0.0680422
-0.0680422
-0.0109228
-0.0317569
0.0126258
-1.03376
0.503042
-0.517363
-0.00441008
0.597336
0.0125194
-0.609855
-0.704549
0.125237
-0.318471
-0.0135953
0.332066
-0.0212364
-0.0132391
-0.604385
-0.0307234
0.0247064
0.00577801
0.000827794
-0.00298419
0.00298419
-0.420159
0.30618
-0.452878
0.134382
0.662972
-0.138252
-0.00104784
0.00104784
0.508521
-0.0873792
0.00803132
0.017797
-0.000862609
0.554655
-0.642034
-0.682621
0.698355
-0.0763251
0.322553
0.775106
-0.00120465
-0.101475
0.103458
-0.643251
0.555905
-0.30309
-0.107213
-0.0251188
-0.0255018
-0.00844018
0.470003
-0.0871475
-0.416956
0.696919
-0.000367953
0.00745089
-0.00745089
-0.171269
-0.129607
-0.57338
0.618237
-0.141281
0.509239
-0.224039
0.894781
0.856113
0.00577801
-0.805438
0.727417
0.028009
-0.0683872
0.0403782
0.642384
0.0948764
-0.0124974
0.0689869
-0.0564895
0.00951325
-0.00951325
-0.758807
0.0227807
-0.0429146
0.0607116
-0.0874497
0.0874497
0.00696075
-0.00225249
0.737477
0.0774673
-0.319745
-0.0962997
-0.520768
-0.0773574
-0.0678615
0.0678615
-0.0474914
0.0800267
-0.0800267
0.0275137
-0.0275137
-0.354315
-0.0740435
0.24251
0.0696303
0.0523606
-0.730799
-0.059643
0.162048
0.0166158
-0.250598
0.0798695
-0.0798695
-0.466315
-0.0474615
0.232916
-0.0128831
0.00279383
-0.644493
0.649562
0.0275916
-0.075083
0.0254623
-0.0572192
-0.0119845
-0.154968
0.166953
-0.151178
-0.21161
-0.0824489
0.0824489
0.0558708
-0.0558708
-0.0302458
-0.0945253
0.124771
0.000530925
-0.18677
-0.0129697
0.0106418
-0.289005
0.595185
-0.0258815
0.424267
0.00564735
0.000243096
-0.052216
0.052216
-0.728308
0.320784
-0.12856
-0.210406
-0.0232532
-0.0181047
0.0208985
0.202008
0.0332702
-0.000709523
-0.000153086
0.0822781
0.0295186
0.0546398
0.107408
-0.00902027
-0.00236318
0.000845078
0.0057276
0.00579471
0.00873532
-0.01453
-0.000490137
0.00527939
0.0287131
-0.0287131
0.0508822
-0.0411103
0.0411103
-0.191165
0.0059707
0.0263304
-0.0759611
0.0180005
0.0758588
-0.0758588
0.257033
-0.241577
0.0903989
-0.06786
-0.173717
-0.0170733
0.0170733
0.405977
0.251155
-0.51701
-0.0807935
-0.0362331
0.540359
0.0259932
-0.0682052
-0.457557
0.0868451
-0.154854
0.171738
-0.0168837
-0.0463402
0.0463402
0.861951
-0.593118
-0.0119457
0.0114556
-0.00569738
-0.283094
-0.000157237
0.00500076
-0.0432411
-0.624317
0.568229
-0.668491
0.0145874
0.210401
0.0156456
0.0247023
-0.160551
-0.336677
0.260716
-0.0574034
0.0271577
0.170306
0.132596
0.194285
0.267222
-0.251576
0.0066225
-0.112788
-0.224001
0.0690433
-0.0144035
0.163364
-0.138662
-0.0684398
0.150718
-0.403457
0.124349
-0.106349
0.0590289
-0.475985
0.176738
0.175098
-0.243538
0.00456987
-0.175537
0.17538
0.00401066
0.146707
-0.0280351
0.0515011
0.45702
0.0116399
0.0277949
-0.00720119
0.0352098
-0.240885
-0.203089
0.589745
0.171255
0.0616616
0.0805948
-0.0630887
0.0624169
-0.0220387
-0.0301484
0.168072
-0.153485
0.0193547
-0.00130389
-0.103864
-0.0288298
0.0169915
0.25256
0.00442558
0.00519768
-0.313835
-0.00726839
0.2156
0.142406
0.178378
0.0570151
0.0988895
0.0510938
0.541709
-0.0136849
0.101186
0.0445519
0.0642683
-0.10882
-0.265855
-0.199421
0.0257041
-0.223425
0.288131
)
;

boundaryField
{
    FrontBack
    {
        type            empty;
    }
    Top
    {
        type            calculated;
        value           uniform 0;
    }
    In
    {
        type            calculated;
        value           uniform -1;
    }
    Bottom
    {
        type            calculated;
        value           uniform 0;
    }
    Out
    {
        type            calculated;
        value           nonuniform List<scalar> 10(1.13923 1.02536 1.23581 0.983558 1.134 1.01575 1.21073 1.04569 0.608329 0.601548);
    }
    circle
    {
        type            calculated;
        value           uniform 0;
    }
}


// ************************************************************************* //
