/*--------------------------------*- C++ -*----------------------------------*\
| =========                 |                                                 |
| \\      /  F ield         | OpenFOAM: The Open Source CFD Toolbox           |
|  \\    /   O peration     | Version:  2412                                  |
|   \\  /    A nd           | Website:  www.openfoam.com                      |
|    \\/     M anipulation  |                                                 |
\*---------------------------------------------------------------------------*/
FoamFile
{
    version     2.0;
    format      ascii;
    arch        "LSB;label=32;scalar=64";
    class       volScalarField;
    location    "49.6";
    object      p;
}
// * * * * * * * * * * * * * * * * * * * * * * * * * * * * * * * * * * * * * //

dimensions      [0 2 -2 0 0 0 0];

internalField   nonuniform List<scalar> 
808
(
0.116764
0.0450019
0.0689841
0.115624
-0.31512
0.0401162
0.0310967
0.0372134
-0.184826
-0.0328123
0.0671224
-0.21322
0.0396191
0.0340823
-0.11697
0.0413347
-0.106754
0.0327535
0.0675491
0.0260831
0.061703
0.395306
0.107487
-0.00370709
0.472562
-0.111961
-0.0967161
0.0174439
0.0241423
0.0467806
0.0262199
0.0287376
0.0415478
0.0310233
-0.0888983
0.618588
0.0456699
0.0570222
0.0419697
0.0360514
-0.0528414
-0.0877107
0.0693131
0.0555981
-0.145238
0.123832
0.0454841
-0.0337504
0.0451586
-0.226457
0.0428824
0.0109816
0.080335
0.0141832
-0.0386344
0.0443638
0.01445
0.0793888
-0.0396099
0.0375189
-0.300783
-0.0322023
0.03919
-0.190711
0.0564639
0.0799777
-0.362268
0.0395013
0.0878991
-0.373541
0.0491082
-0.422467
0.0390955
0.036727
0.142801
0.060084
0.0291781
-0.0226108
0.0425434
0.340842
-0.0651061
0.0398591
0.0566785
0.250515
0.0614448
0.0121334
-0.469932
-0.0583576
0.0437453
-0.0983597
0.0434392
-0.128352
0.278551
0.187822
0.0726975
-0.312347
0.0349517
-0.0965325
-0.126627
-0.288349
0.0469749
0.031403
0.050966
0.0227598
-0.0215438
0.0944725
-0.185212
-0.0241468
0.0417358
-0.0168162
0.00311409
0.355612
0.0467545
0.0166447
0.0407425
0.445294
0.0375425
-0.359101
0.0451663
0.0631924
-0.184328
0.0699392
0.0380385
0.0611721
0.146266
-0.0058777
0.0945331
-0.00279706
0.017344
0.101113
-0.458045
0.0377151
-0.0325388
0.159745
0.0435775
0.0388
0.0487661
0.0161029
0.045766
0.031764
-0.22676
0.0455057
0.0699006
0.0482791
0.016551
-0.00446353
0.0949069
0.148384
-0.156443
-0.0307047
0.0472698
0.365232
0.0459222
0.545841
-0.286659
-0.0413635
0.0412337
-0.153222
0.0807622
-0.0574774
-0.416509
-0.249107
-0.421023
0.0408922
0.0949844
0.0487061
0.0404848
-0.465874
0.0412463
0.0548414
0.0490547
0.190655
0.00929195
0.0802138
0.0412854
0.0690694
0.104524
-0.197143
0.0464405
-0.461046
0.0578903
-0.0814718
0.0376442
0.24454
-0.136027
0.151683
0.054506
-0.140346
0.0623476
-0.100216
-0.256494
-0.0398176
0.0450127
0.0724218
0.0389408
-0.184931
0.0460513
0.044621
0.0154301
0.115253
0.0695793
0.0362927
0.0447072
-0.43745
0.384575
-0.200571
-0.410305
0.0215198
0.0531232
0.0459106
-0.0139056
-0.520507
-0.411788
0.0423953
-0.000476105
0.0381163
-0.438237
0.00676689
0.000338477
0.00894061
-0.00669784
-0.0415176
0.0441767
0.0425776
0.0148426
0.0444736
0.160089
-0.438889
-0.0511254
0.0261735
0.151523
0.0286128
0.0292412
0.0239288
-0.05543
0.0291364
0.0165846
0.00629458
-0.00427907
0.0283579
0.00116714
0.0162379
0.000206377
0.0120175
0.0113139
-0.0117071
0.0176734
0.0294382
-0.0228509
0.022354
-0.429972
0.00201767
0.02822
-0.00199176
0.0290905
0.0418
0.0442835
-0.0117698
0.0346443
0.160107
-0.0335705
0.0337193
0.0347813
-0.0673388
0.0724795
0.00335567
-0.030587
0.0440002
-0.0383356
0.0258168
-0.0202517
-0.522217
0.301083
0.0512888
-0.0967844
0.0227403
0.0604185
0.0351377
-0.207956
0.238586
0.0187764
0.0220086
-0.0361793
0.0863249
-0.238603
0.0337889
0.0275984
-0.0915544
-0.00999345
0.0493324
0.0414622
0.0346403
-0.028393
-0.00599923
-0.0670973
0.0405908
-0.000757069
0.0942063
-0.0258378
-0.018948
-0.0267092
0.0347394
-0.0130994
0.0479088
-0.630739
-0.0410487
0.0305438
-0.0653139
-0.217664
-0.211227
-0.00163151
0.037871
-0.42205
0.119171
0.140685
0.0498075
0.0395915
-0.0667105
0.0140454
-0.302038
0.0540245
-0.00813457
0.0602394
0.0469627
-0.0028358
0.050648
-0.0477368
0.0201121
0.0124262
-0.344
0.0388075
0.0488887
-0.0275039
-0.0854917
0.0454358
0.258145
0.0163145
-0.179977
0.539348
0.0767276
0.0142805
0.0556044
-0.0798811
-0.00170616
-0.0205894
0.0575857
0.0102514
0.0439001
-0.0173954
-0.176908
-0.0182433
0.141026
0.0256546
-0.31309
-0.422574
-0.497399
-0.440891
0.00442254
0.04171
0.0231145
0.03325
4.56122e-05
0.0217894
0.0485183
0.0004718
-0.623952
0.0480291
0.027732
0.0672411
0.0691657
0.0271956
-0.0208086
0.107186
-0.485697
0.0294694
0.0596026
-0.0129138
0.0808461
-0.367361
0.0377084
-0.258338
0.0269814
0.0447271
0.0719996
0.0414992
0.0560517
-0.116519
-0.455243
0.0314776
0.0327639
-0.13294
0.0419603
0.0385519
0.0357245
0.0122363
0.0363144
-0.183059
0.0145852
0.0435331
0.0441597
-0.182278
-0.294803
0.100224
-0.0746583
0.0473386
-0.00168074
0.399948
-0.110664
0.0155545
-0.0513209
0.0386667
0.0273373
0.0529231
0.059154
0.00445723
0.046456
-0.00732067
0.00865573
-0.00274838
-0.00595452
-0.0125426
-0.00780912
0.038419
0.10647
0.0251302
0.0308021
0.022622
0.0627084
0.0398813
0.0581375
-0.478722
0.0253735
0.051258
0.00320706
-0.176375
-0.376732
0.00930874
-0.143338
0.077421
0.0470871
-0.40152
-0.311391
0.284586
-0.427372
-0.569671
0.0154201
-0.0806551
0.0716618
-0.362409
0.343643
-0.0385764
-0.402681
0.0342192
0.0933859
0.535386
0.0355385
-0.00662787
0.0885865
-0.0762103
0.0198679
-0.345785
-0.191416
0.00835418
0.0597837
-0.0342306
-0.346503
-0.428695
-0.124107
0.0484139
0.0332186
0.126825
0.0120451
-0.038483
0.113677
-0.0244115
0.040846
-0.145285
-0.241957
0.0596295
0.0508637
0.0440286
0.0493265
0.0765688
-0.00202505
0.0253201
-0.591474
0.435455
-0.178255
-0.359155
0.0260002
0.00485335
-0.322975
-0.2901
0.110675
-0.445508
0.0610354
0.860492
0.0435998
-0.468057
0.0393032
0.116732
0.0396184
-0.572428
-0.296024
-0.411738
0.0096385
0.0146053
-0.475213
0.0300211
0.0181647
0.143681
-0.449991
0.0682167
-0.625072
-0.271541
-0.331903
0.0801279
0.0334281
0.0416417
0.140438
0.112005
0.0497646
-0.362002
0.284956
-0.0844009
-0.0154849
-0.563465
-0.622625
-0.453108
0.0201099
-0.460949
-0.0738434
0.0592725
0.0320881
-0.0773315
-0.307682
0.0307509
-0.404808
-0.181375
0.0165214
0.0337335
-0.403786
0.031728
0.0744017
-0.493523
-0.470881
-0.0724508
0.13779
0.0465194
-0.43989
-0.255315
-0.256238
0.099768
0.0817778
0.135138
0.0105999
-0.404303
-0.233509
0.139345
0.0454438
0.099763
0.0581769
0.0494727
-0.279251
0.0515924
-0.35344
0.0519371
-0.219371
0.115213
0.00781327
-0.310612
-0.397199
0.00163947
-0.586665
-0.584534
0.0752358
-0.00707496
-0.274486
0.0193039
-0.385293
0.0358042
0.121822
0.0505657
-0.223387
-0.0370575
0.138433
-0.382264
-0.0139499
-0.383702
0.0393154
-0.41957
-0.445841
0.0649558
0.309136
0.439688
0.0137604
0.00605798
0.00763986
-0.456287
0.657195
0.0496388
-0.123271
0.0288024
-0.157985
0.0611234
0.515178
-0.318627
-0.00650836
-0.000609986
0.033987
0.0369657
-0.394975
-0.33325
-0.424403
-0.259846
-0.370353
0.030416
-0.464703
-0.0760391
-0.194779
-0.242681
0.561337
0.626371
-0.167276
0.0574364
-0.294068
-0.00123102
0.12319
0.458909
0.136099
-0.427611
0.0110698
-0.441207
0.0244158
-0.140175
0.0322301
-0.264683
-0.185015
0.0091048
0.00712706
-0.425739
0.401534
0.697108
-0.481876
-0.253488
-0.460368
-0.0190648
-0.255802
-0.261208
-0.0808413
-0.427641
0.791995
-0.287095
0.71922
-0.529069
0.300034
-0.430654
0.0451237
0.214798
-0.438281
0.153185
-0.171303
-0.246939
-0.276644
0.89077
-0.316788
0.186277
0.113473
0.619519
0.101343
-0.212285
-0.188613
-0.076967
0.0258992
0.140491
0.473552
0.0213052
0.0258381
-0.261569
0.178266
-0.191291
-0.24713
0.0596842
-0.143097
-0.253194
-0.0903856
-0.489948
0.0439426
0.0917186
0.0411507
0.116865
0.0849008
-0.271305
-0.288417
0.0737039
0.0557965
-0.396868
-0.446457
0.230416
0.230017
0.0880105
0.706179
-0.151007
-0.279218
-0.318081
-0.245779
-0.123722
0.130757
0.784801
-0.385248
0.326937
0.0398325
-0.365154
0.191537
-0.0153686
0.344888
-0.0827998
0.0539373
-0.438185
-0.161602
0.130583
0.800491
0.315948
0.789998
-0.511037
-0.229042
-0.538884
0.214034
0.299183
0.0988153
0.420517
0.061451
0.496412
0.31742
0.0177582
-0.273486
-0.0228033
-0.258828
0.893566
0.399689
0.692588
0.518481
-0.202327
-0.505497
-0.276824
-0.384125
0.0833084
-0.514158
0.0350342
0.626388
-0.530843
0.0110914
-0.38873
0.22057
-0.280316
-0.308796
-0.0938709
-0.219406
-0.290002
-0.395045
-0.447605
-0.0713763
-0.544638
-0.219184
-0.35544
0.186361
0.621862
-0.150111
-0.435098
0.855939
-0.429082
0.243122
-0.175035
0.331914
0.0759527
-0.517134
-0.333021
0.490439
-0.372734
-0.259234
0.135773
-0.212809
0.0351732
-0.250416
-0.0589844
0.0467153
0.548265
0.781408
-0.25513
0.201898
-0.244245
0.833339
0.0346932
-0.249457
0.0407819
0.751507
0.242542
-0.257656
-0.257453
0.423508
-0.150064
0.0841668
0.397999
0.28543
0.272143
-0.186327
-0.187748
0.691322
)
;

boundaryField
{
    FrontBack
    {
        type            empty;
    }
    Top
    {
        type            zeroGradient;
    }
    In
    {
        type            zeroGradient;
    }
    Bottom
    {
        type            zeroGradient;
    }
    Out
    {
        type            fixedValue;
        value           uniform 0;
    }
    circle
    {
        type            zeroGradient;
    }
}


// ************************************************************************* //
