/*--------------------------------*- C++ -*----------------------------------*\
| =========                 |                                                 |
| \\      /  F ield         | OpenFOAM: The Open Source CFD Toolbox           |
|  \\    /   O peration     | Version:  2412                                  |
|   \\  /    A nd           | Website:  www.openfoam.com                      |
|    \\/     M anipulation  |                                                 |
\*---------------------------------------------------------------------------*/
FoamFile
{
    version     2.0;
    format      ascii;
    arch        "LSB;label=32;scalar=64";
    class       volScalarField;
    location    "937";
    object      p;
}
// * * * * * * * * * * * * * * * * * * * * * * * * * * * * * * * * * * * * * //

dimensions      [0 2 -2 0 0 0 0];

internalField   nonuniform List<scalar> 
808
(
-0.03267202579947463
0.04366407284125658
-0.01119324152726793
0.03830782275284757
-0.2940319695329012
-0.05580851251437587
-0.01577384425762737
-0.02405913868364607
-0.1932220906908883
-0.08202613543488424
-0.01053285684199782
-0.2498122123045336
-0.03069123226485001
-0.01422704108275524
-0.1242440296552557
-0.01420680933814087
-0.1408348080223434
-0.0137584462570764
-0.01297553960516944
-0.05424837077428271
-0.008152021297099341
0.1162249255475387
-0.06394794303396209
-0.06987331600690405
0.1737682376173919
-0.1007069677187033
-0.1493854344157264
-0.0204999028240824
-0.01765882450476699
-0.02559057736453272
-0.02041045588100177
-0.05693380080687837
-0.02277506497862239
-0.01697496500955518
-0.09758099913179451
0.3452212277414473
-0.04017610399103254
-0.01646086858265029
-0.02234343207065948
-0.02649091263518073
-0.0884387689924543
-0.1239804267315371
-0.05318440442170526
-0.02146944965225823
-0.05510379249118194
-0.04304991047420592
-0.01188483097121469
-0.1809112729905728
-0.02632569300444161
-0.2003275910598118
-0.0172800375884317
-0.0654119865015694
-0.06220234529694871
-0.01499585016716694
-0.1968833631925671
-0.02755275117442344
-0.01087917583751017
-0.01523586952228461
-0.09809829026030911
-0.03873566350902804
-0.1111347609635349
-0.123188889529179
-0.01462741937012452
-0.126289701706358
-0.01756800154608774
-0.05296089940147544
-0.1601072098468933
-0.03537113010276814
-0.01546805727589272
-0.4344373611873037
-0.02599877916968545
-0.2959259534489923
-0.02120254153080442
-0.02112884048337969
-0.06178959256585789
-0.01830304938723375
-0.04142892649168573
-0.3685508462335945
-0.03666918921871753
0.0377943936271593
-0.09286590522937772
-0.01669929798202311
0.05731003326134122
0.04662445461950174
-0.01765168481943436
-0.05101067143933707
-0.534601881193044
-0.2303292189683778
-0.05077491625335283
-0.1142614474187207
-0.0550102441155445
-0.129876950222186
0.03766415026136551
-0.02721129114273542
-0.06332813491091722
-0.1174834702232258
-0.03819305183011515
-0.05237669777338745
-0.1137072744253123
-0.1363418332513513
-0.05324064738737735
-0.04615965670651271
-0.05301799396989563
-0.04369296262359208
-0.05664187870178713
-0.07609652507012375
-0.04017028125172299
-0.01076507663364321
-0.03933680449902249
-0.1210393667441042
-0.04937862244940529
0.08065625447368396
-0.04152154223943324
-0.007878148300531828
-0.02752637652566356
0.1811619016742834
-0.03763065440457886
-0.2634240714473783
-0.0208095111925572
-0.05209206913301909
-0.04128389680414493
-0.04992770220046886
0.01449104886837898
-0.04708031514937544
-0.0373548232801473
-0.2214828942903094
-0.03930841648123071
-0.0043525326566048
-0.07383512365434437
-0.07032843541702741
-0.1457149373347383
-0.02120277897938188
-0.07362360041807904
-0.04500853074679532
-0.02308577002501346
-0.01452864765571388
-0.006084604468583589
-0.007465625773554174
-0.0515125330652271
-0.04839904826349233
-0.2191042911184549
-0.05479410118018363
-0.008119212589935938
-0.02165176098769919
-0.1502483008696517
-0.002500179763977679
-0.07460616899921099
-0.02023641052539926
-0.0001114129073252927
-0.01082710091183523
-0.03261765761944506
0.09242356253319385
-0.03743022358000783
0.251118818031595
-0.2640091962257812
-0.1348797200471291
-0.03815029667760016
-0.09095681960546331
-0.009256366412416266
-0.1155957882392002
-0.1668512100838875
-0.2187611861734595
-0.1744633372994762
0.0574346917520025
-0.06438470581252795
-0.02066066276726732
-0.06568924812220658
-0.1662912456349588
-0.02282319370730389
-0.01859712100667023
-0.05043879811455493
-0.02150517743566159
-0.007772598963688078
-0.1047271222498104
-0.02367997915321367
-0.04345153265949649
-0.07166178975810673
-0.1579719503683387
-0.03290942354833059
-0.3818487908297566
-0.01795301211901976
-0.2292302101237314
-0.04295404391943506
0.03374164619514641
-0.1068807244611484
-0.01722105262830981
-0.04375318810406006
-0.1032565836347286
-0.01785508290509879
-0.094124680759348
-0.2053802563375345
-0.07045308132556544
-0.02420118454100213
-0.04630877456812743
-0.04150239474346291
-0.2026074086233673
-0.02248086298513158
-0.01938244024090501
-0.01122804312073277
-0.0581576480425847
-0.04909616727899313
-0.02261473392946113
-0.02061133472810715
-0.2319245422470353
0.1264831703565956
-0.2091988614489467
-0.1853691672961657
-0.01173299945218374
-0.01118399971104321
-0.06621167169451783
-0.0105903064233543
-0.4897125112799786
-0.1235644896817757
-0.01970648110462333
-3.227918118640854e-06
-0.02355494886189492
-0.2748815766983163
-0.2819592204887991
-0.007427761209259035
-0.01738584067426725
-0.001248932167453331
-0.3532164652197848
-0.02859560713375683
-0.02937956804403063
-0.01266133618477189
-0.01940176406808409
0.04791346506983302
-0.1213539339062602
-0.01444363613367342
-0.02096975961983859
-0.0461756455107883
-0.01840762941492528
-0.01640041614457057
-0.02357073024264038
-0.06842013918999025
-0.01092073415733359
-0.01890688058629748
-0.008933767267950466
-0.001123794257243539
-0.02931876372181966
-0.002134189895601797
-0.001932630465686883
-0.005610345892152444
-0.0255029606283594
-0.008045596180609654
0.001532432645060472
-0.004228841480644539
0.001417273879045294
0.002384969395067185
-0.009059794161769906
-0.1304360520072147
-0.002899479790743546
-0.0005621627427379633
-0.0474185327613912
-0.0214766044443092
-0.0234473301328698
-0.0140914597051336
-0.006255133476875141
-0.02112667425561072
-0.04098646720039734
-0.01503759429204255
-0.01277845343842067
-0.01125398419148118
0.008030784375462705
-0.009685761593751337
-0.01276923439789
-0.01155599982831747
-0.01008588987324806
-0.01036116027427762
-0.01172237461392049
-0.01352890438361391
-0.2903272156155323
0.0581518275381774
-0.01564786052946258
-0.01466296064142793
-0.012431322870587
-0.01194721269154184
-0.008343187864516882
-0.09776746832742678
0.01400554937441394
-0.01415626328460118
-0.01354434679723751
-0.01048866426979099
-0.05023980163753987
-0.008942136208110237
-0.01361932870498184
-0.01042050422154741
-0.00156610308492468
-0.01186908540738942
-0.0118740008639379
-0.02414946964006712
-0.01530172062506555
-0.01229412334758439
-0.01358667321569965
-0.008916646025245917
-0.01238662216269723
-0.01115450977555344
-0.06058485623548718
-0.01370437387287962
-0.01199850388685965
-0.009240446990596694
-0.01541055577986783
-0.01377734655115518
-0.0156270231730543
-1.360226084636657
-0.1012634647418261
-0.0122827228507232
0.02636702096013694
-0.1597041911524541
-0.09261388259750146
-0.01246833120448996
-0.01422822694312418
-0.2296420975845598
-0.02748315648214605
-0.01692144858797472
-0.01258383654136505
-0.02053140379019092
-0.0101245862519024
-0.03083733857004859
-0.4054967046978393
-0.01217947298337575
-0.01408632457773098
-0.004372708822487013
-0.01127914176901444
-0.01039817742879655
-0.0137860154119699
-0.006423200480204123
-0.02746901378678896
-0.01194501649990252
-0.1761308773786785
0.02087938345481853
-0.007228482015140367
0.004425907604785771
0.01237532951128176
-0.04939938062951493
0.02684522472098165
-0.01328453151578889
-0.1312814632669875
0.2831379021191758
-0.00811250556692482
-0.0137785424584078
-0.00786656679902864
-0.0328774185873543
-0.1268689193847295
-0.01257185397041967
-0.01185729987755796
-0.01744519694641559
-0.01348257195323764
-0.0418519211596854
-0.2221322754075108
-0.008840245822411377
-0.04444392560939169
-0.03813185493317191
-0.1824549994681726
-0.1505134841121738
-0.1466581071014567
-0.2214238232523151
-0.002811938458042238
-0.02057868085390509
-0.01521360439962923
-0.01390604107060829
-0.03398599666029562
-0.02456810671249115
-0.01390732535438995
-0.01484254163213842
-1.063988605686702
-0.004029855007659228
-0.01313278709666561
-0.01799025220825667
-0.02354735496786942
0.002945733534052775
-0.01481198101476228
-0.024583049609476
-0.1477040591575261
-0.01361224519525479
-0.02100697054778513
-0.01459127955143625
-0.001190997629372002
-0.1780779181547389
-0.01235876058729925
-0.1569360247783769
-0.01539063875091071
0.002299248243595565
-0.01400779708008164
-0.02446150377836487
-0.01625692884135773
0.006975345532831036
-0.2639559200094594
-0.02691920315523954
-0.01683900506263102
-0.01340038605164405
-0.01112741218308645
-0.0290281982444799
-0.0136484572356241
-0.02119481541843353
-0.02035666778484941
0.01130213748656481
-0.09645011523922729
-0.02096731181979323
0.00964921323761404
-0.06053215490625081
0.1865981150127743
-0.1077216132652842
-0.3136622895250371
-0.02994500297867358
-0.02603293729417509
0.1521812781964856
0.08616200099288134
-0.003961281005952066
0.05336808518768901
-0.01495144228691043
-0.01314616158197846
0.002794120061994424
0.006697438045506818
-0.06406431187947094
-0.004727422846782538
-0.05548314279320475
-0.02324616159507743
-0.01569637166479634
-0.03651713327602397
-0.03293008504982857
-0.006695685281190224
-0.01467256295505423
-0.0358781511387248
0.03105553745162765
-0.03862130933028171
-0.01406464484538129
-0.1208483406480867
-0.03082684617082441
-0.04036761757056245
-0.6647353468201418
0.01563591535918681
-0.01025226875800975
-0.005941115875793374
0.1832480122397898
-0.1033345485197073
-0.03613515650531721
-0.2400094038860094
-0.01520528917285575
-0.0159572770201977
0.08442735799745359
-0.1781572174279146
-0.2355922474174775
-0.1838422804045977
-0.6723443777818843
0.00723023087254004
-0.01759100985937961
-0.01562076937171243
-0.09545008289045852
0.1190595915619014
-0.02161021007436564
-0.2312917330816147
-0.03658835591839268
-0.007086634308575973
0.2812962756980528
-0.01078723718658338
-0.08977562145461115
-0.1546442456406129
-0.003751160830714563
-0.04197536232311322
-0.0505182872262491
-0.1945916967804133
-0.007603742238500972
-0.03899472175924532
-0.003513119984651573
-0.5405671328859892
-0.1907305968143281
-0.1803343641784255
-0.02371127435468271
-0.009363028892197641
-0.06289220263454287
-0.0558064465631165
-0.01492984281902654
-0.07036355055006444
0.005404751892310928
-0.0174386913583999
-0.0937288009090281
-0.2800111450632746
-0.009423335314747257
-0.02482128072766921
-0.02114145486648987
-0.07717868209281827
-0.08810129029741498
-0.09055140184834169
-0.01164710630668148
-0.9027515089424806
0.1629057805878392
-0.0818746364716926
-0.2478639473065677
-0.04091880417390939
-0.00914337330720592
-0.2518991099630835
-0.2020184242507649
-0.02995842765433716
-0.115086028022136
-0.01872264498463442
0.5635670828196987
-0.02552242419252507
-0.2118833838692415
-0.02470655295232447
-0.004167010992593852
-0.01090536944849672
-1.239036663186917
-0.1790889501767518
-0.2241414422589121
0.005171273800616051
-0.0401690380026913
-0.234068822245823
-0.06776638919931621
-0.05260567510049886
-0.1481652135087236
-0.1766485372052829
-0.07081385493113891
-1.208512548182543
-0.1606039252301644
-0.5469964989731009
0.08043393883600704
-0.005758739787643837
-0.02073015335032769
-0.0455238195126809
-0.0371107561730562
-0.0274932821363093
-0.1278022823175624
0.08220926268341669
-0.003443000327563939
-0.01001318891435066
-0.5585137924251868
-0.8441282217195623
-0.1718251804929401
-0.007708461405367036
-0.1234890174165335
0.0004036620220255597
-0.0001774452597739454
-0.002910421702910526
-0.06184036725835999
-0.230993886013652
-0.01324345323065546
-0.1106295772030389
-0.1582598504454007
-0.01307467091703731
-0.03400574844362408
0.03106080282321106
-0.05936505541527298
-0.07297247262834217
-0.4893071421193975
-0.2112130476937367
-0.07889262978692296
-0.07681726135956972
-0.01917978053920226
-0.1122333691096489
-0.1658564357600693
-0.08229843639752797
0.0255005776960131
-0.08832597064476662
-0.05132621617719069
-0.01491022842191607
-0.1138005232288319
-0.2839610781396844
-0.06059943117947338
-0.01786112817545278
0.0004202177171377942
-0.01017079035597228
-0.01040925676323443
-0.2392848738967815
-0.0142445795975175
-0.2142122344743026
-0.01061905604258625
-0.07572762602581055
-0.004326897037548315
-0.0232917454946133
-0.396606792762301
-0.9358146643395225
-0.01123859355219179
-1.034873903014025
-0.5974135296961113
-0.01045548238264204
-0.6658721883243275
-0.1907854206367205
-0.005252109525314162
-0.1220308898666606
-0.01686441382856224
-0.1271105380273316
-0.06385617257401109
-0.08210526034869378
-0.005408925882285837
-0.002846877308800397
-1.352521396266918
-0.01157396816167261
-0.1822733815757472
0.001135508840094651
-1.000516084389054
-1.256365125024553
-0.0769769068602916
0.01482548725199318
0.1647080968038271
-0.004697059562908392
-0.02296632374480306
-0.004310119721576964
-0.2367346396685722
0.3652139875543324
-0.04271746132731766
-0.2160426979891991
-0.01524515711437504
-0.6464641749071666
-0.07100024408663778
0.1874477403565806
-0.3069238537217835
-0.05122082233917739
-0.07096967583243084
-0.01583443624295228
-0.02136185341726331
-0.5994999418266928
-0.1552994797512421
-0.09566363820167241
-0.1172750522632307
-0.5465400181375351
-0.04581512553471647
-0.8967724664198728
2.265188249078422e-05
-0.2464639200104732
-1.060708155992281
0.1626852502089076
0.2880725205893027
-0.1728339395469721
-0.1866711025088516
-0.2189908280685028
-0.06535034394936651
0.02506889260356668
0.04259813727300835
0.004209757871402159
-0.1537977535206542
0.02666252111038691
-1.374486488506494
-0.08805294841452833
-0.4828216289054557
-0.3379475548706738
-0.2222942731594819
-0.1826114288562285
-0.01697025243917041
-0.01536859007056518
-0.09331131740724997
0.1757668393197305
0.3837298528865704
-0.1989586206101253
-0.1550240846001304
-0.2152916139688323
-0.06416304724033604
-0.1629712547804389
-0.1743504018326386
-0.1288030362454811
-0.1116471739570369
0.4626996724709876
-0.2863316690357298
0.4343561823887347
-0.5855120194283979
0.07426897873714848
-0.1858511113284932
-0.06863479616355718
-0.07941418031503436
-0.9005457286180123
-0.2133436473589696
-0.1948442223588742
-0.3579302071483381
-0.4699459361163729
0.5693406978906151
-0.2183922355384334
0.003704469656315783
-0.06603729516280045
0.3465792595326865
-0.03381663699917117
-0.1229223693919659
-0.1837209548380709
-0.06436787273608102
-0.01633989086470664
-0.2018744820535544
0.1989130721928952
-0.01270210493908316
-0.09976735204773043
-0.1789774237918803
-0.3227381152512274
-0.3055052942849621
-0.08348591239368428
-0.009616309882239701
-0.08242673909815494
-0.6454926169372166
-0.6793841247639066
-0.322474001909685
-0.05983263613749561
-0.04848442247697355
-0.02419621897598021
-0.0712244427713221
-0.05377547930325625
-0.3714637520911349
-0.9691816299259314
-0.008931787786530492
-0.08635703264069941
-1.152646949956363
-1.04985231807079
-0.1115081038530096
-0.04302842992009212
-0.06694299551660514
0.3872446246263655
-0.3366181141633504
-0.05056276768279229
-0.6098649057804414
-0.1373115073446679
-0.2460670435430341
-0.2167659789832828
0.4726870317210237
-0.6416948144363429
0.0784626641835012
-0.02812855133438192
-0.5746737136334038
-0.05570751473009389
-0.3694300737259159
0.1113307217894305
-0.1952964102908188
-0.06216451415780545
-0.1254842848635432
-0.3543537796352029
-0.0817821945759933
0.5162736540919401
0.08786729593329536
0.4685436646938568
-0.1172077138471665
-0.2096945368720866
-0.5057853999860173
-0.1369978237251521
0.02311872169228655
-0.05645354733355294
0.0980598899929024
-0.299767244686825
0.2365267868244445
0.003264858646562436
-0.002495815607655885
-0.5042809693493286
-0.1796374919025442
-0.09735807476173655
0.5812804988282096
0.1402666303638551
0.3415428538558957
0.2248950655934375
-0.5711319700070504
-0.1972751526460004
-0.2235928741872291
-0.2212651261588406
-0.0630964928934501
-0.6831914490629416
-0.1871211210077917
0.3033108156316905
-0.1922298248377419
-0.01140231403142139
-0.1583246981919931
-0.01282218497555121
-0.1720629074124667
-0.4512343805660585
-0.07598635805641381
-0.210551603609701
-0.07609093760651087
-0.1058859186675676
-0.1313893075405292
-0.07188971783214572
-0.4372792217852196
-0.4069285528610039
-0.02226550144135389
-0.07904845171290076
0.3312673261340729
-0.2545470255757111
-0.1696882604185554
0.5231241057663475
-0.1921192590031995
0.02270691809194578
-0.4589189398043834
0.05264125672065697
-0.05844615636811898
-0.1460846957282775
-0.5969175323777129
0.1565716716211049
-0.5710667267325363
-0.5451530227119685
-0.0997676727598239
-0.5169674103642223
-0.03569786353736675
-0.1555466845706872
-0.4183892336671753
-0.01596833437412017
0.2891787839020502
0.4900589038010138
-0.1692598326074458
-0.004394791110190731
-0.0880685978643416
0.5248337104327966
-0.03173902171424658
-0.4494430144028979
-0.03144219610043503
0.4624354210969419
-0.01848461874998283
-0.5547066995519652
-0.2430210134061888
0.1792639660082727
-0.3182854832833557
-0.1845593709609238
0.04592286209155948
0.03027937067152795
0.05756453513646612
-0.3073356626396494
-0.1609937777154212
0.4128086419656882
)
;

boundaryField
{
    FrontBack
    {
        type            empty;
    }
    Top
    {
        type            zeroGradient;
    }
    In
    {
        type            zeroGradient;
    }
    Bottom
    {
        type            zeroGradient;
    }
    Out
    {
        type            fixedValue;
        value           uniform 0;
    }
    circle
    {
        type            zeroGradient;
    }
}


// ************************************************************************* //
