/*--------------------------------*- C++ -*----------------------------------*\
| =========                 |                                                 |
| \\      /  F ield         | OpenFOAM: The Open Source CFD Toolbox           |
|  \\    /   O peration     | Version:  2412                                  |
|   \\  /    A nd           | Website:  www.openfoam.com                      |
|    \\/     M anipulation  |                                                 |
\*---------------------------------------------------------------------------*/
FoamFile
{
    version     2.0;
    format      ascii;
    arch        "LSB;label=32;scalar=64";
    class       volVectorField;
    location    "0.7";
    object      cellDisplacement;
}
// * * * * * * * * * * * * * * * * * * * * * * * * * * * * * * * * * * * * * //

dimensions      [0 1 0 0 0 0 0];

internalField   nonuniform List<vector> 
256
(
(-0.0197634 0.00161469 0)
(-0.0198239 -0.00143659 0)
(-0.0184882 -0.00406597 0)
(-0.0160389 -0.00578578 0)
(-0.0129095 -0.00634953 0)
(-0.00949157 -0.00576792 0)
(-0.00611645 -0.00427856 0)
(-0.00288675 -0.00218167 0)
(-0.058618 0.0038453 0)
(-0.0585172 -0.00466998 0)
(-0.0549564 -0.0120077 0)
(-0.0485605 -0.0170183 0)
(-0.0403011 -0.019084 0)
(-0.0311968 -0.0182146 0)
(-0.0219514 -0.0148172 0)
(-0.0128729 -0.00950437 0)
(-0.0954853 0.00503959 0)
(-0.095037 -0.00824061 0)
(-0.0895966 -0.0196637 0)
(-0.0801249 -0.0276954 0)
(-0.0679615 -0.0315203 0)
(-0.0543943 -0.0310521 0)
(-0.0404493 -0.0267811 0)
(-0.0265314 -0.0194073 0)
(-0.130699 0.00522783 0)
(-0.129607 -0.0122139 0)
(-0.122585 -0.0272281 0)
(-0.110752 -0.038074 0)
(-0.0956291 -0.0438119 0)
(-0.0787247 -0.0443221 0)
(-0.0611524 -0.0400324 0)
(-0.0433821 -0.0316427 0)
(-0.164328 0.00443494 0)
(-0.162505 -0.0167077 0)
(-0.154144 -0.0349268 0)
(-0.140504 -0.0484185 0)
(-0.123228 -0.0562137 0)
(-0.10385 -0.0581036 0)
(-0.0835962 -0.0544954 0)
(-0.0629503 -0.0460521 0)
(-0.196521 0.00257905 0)
(-0.193876 -0.0218355 0)
(-0.184397 -0.0429567 0)
(-0.169407 -0.0589756 0)
(-0.150573 -0.0689037 0)
(-0.129488 -0.0725356 0)
(-0.107365 -0.0701856 0)
(-0.0846754 -0.0624895 0)
(-0.227356 -0.000385045 0)
(-0.223898 -0.02777 0)
(-0.213476 -0.0515529 0)
(-0.197473 -0.0699935 0)
(-0.177591 -0.082158 0)
(-0.155367 -0.0877819 0)
(-0.132036 -0.0871639 0)
(-0.10806 -0.0809386 0)
(-0.256988 -0.0046393 0)
(-0.252658 -0.0346878 0)
(-0.241441 -0.0609437 0)
(-0.224695 -0.0817404 0)
(-0.20412 -0.096194 0)
(-0.18122 -0.104056 0)
(-0.157211 -0.105569 0)
(-0.132506 -0.101379 0)
(-0.285453 -0.0103322 0)
(-0.28025 -0.0428479 0)
(-0.268341 -0.0714143 0)
(-0.251063 -0.0945262 0)
(-0.230034 -0.111341 0)
(-0.206783 -0.121619 0)
(-0.182453 -0.125591 0)
(-0.157501 -0.123967 0)
(-0.312839 -0.0177986 0)
(-0.306723 -0.0525388 0)
(-0.294154 -0.0833045 0)
(-0.27648 -0.108692 0)
(-0.255189 -0.127926 0)
(-0.23174 -0.140806 0)
(-0.207342 -0.147545 0)
(-0.182369 -0.148891 0)
(-0.33908 -0.027359 0)
(-0.331973 -0.0641341 0)
(-0.318747 -0.0969347 0)
(-0.300712 -0.124577 0)
(-0.279274 -0.14634 0)
(-0.255754 -0.16203 0)
(-0.231309 -0.171817 0)
(-0.206411 -0.176518 0)
(-0.363978 -0.0394864 0)
(-0.355743 -0.0779944 0)
(-0.341818 -0.11275 0)
(-0.323433 -0.142626 0)
(-0.301817 -0.167053 0)
(-0.278232 -0.185765 0)
(-0.253671 -0.198925 0)
(-0.228681 -0.207305 0)
(-0.387142 -0.0546541 0)
(-0.377648 -0.0947391 0)
(-0.362985 -0.13128 0)
(-0.344099 -0.163451 0)
(-0.322187 -0.19062 0)
(-0.298235 -0.212627 0)
(-0.273354 -0.229485 0)
(-0.247878 -0.24196 0)
(-0.407828 -0.0737205 0)
(-0.396946 -0.11495 0)
(-0.381325 -0.153146 0)
(-0.36182 -0.187531 0)
(-0.339243 -0.217662 0)
(-0.314526 -0.243257 0)
(-0.288512 -0.264293 0)
(-0.261807 -0.28123 0)
(-0.424459 -0.0967632 0)
(-0.41195 -0.138749 0)
(-0.395163 -0.178329 0)
(-0.374612 -0.21495 0)
(-0.350922 -0.24815 0)
(-0.324705 -0.277642 0)
(-0.29666 -0.303232 0)
(-0.267124 -0.325213 0)
(-0.432702 -0.122637 0)
(-0.418598 -0.164459 0)
(-0.400463 -0.204697 0)
(-0.378471 -0.242963 0)
(-0.352834 -0.27889 0)
(-0.323799 -0.312131 0)
(-0.291645 -0.342365 0)
(-0.256683 -0.369303 0)
(-0.00291598 -0.0020919 0)
(-0.00535523 -0.00408402 0)
(-0.0071623 -0.00616938 0)
(-0.00829667 -0.00847728 0)
(-0.0086788 -0.0110525 0)
(-0.00820145 -0.0137842 0)
(-0.0067964 -0.016422 0)
(-0.00450838 -0.0185437 0)
(-0.0127814 -0.00940472 0)
(-0.0189693 -0.0151459 0)
(-0.0233268 -0.0212818 0)
(-0.0257019 -0.0280248 0)
(-0.0258659 -0.0353278 0)
(-0.0236844 -0.0429182 0)
(-0.0190238 -0.0499937 0)
(-0.0121547 -0.0555983 0)
(-0.0259672 -0.0194685 0)
(-0.0347162 -0.028691 0)
(-0.0404341 -0.0385604 0)
(-0.0430285 -0.0493549 0)
(-0.0422101 -0.0609383 0)
(-0.0377284 -0.0726463 0)
(-0.0295598 -0.0833031 0)
(-0.0182393 -0.0914009 0)
(-0.0421243 -0.0322053 0)
(-0.0521574 -0.0445693 0)
(-0.0582018 -0.0579199 0)
(-0.0601297 -0.0724293 0)
(-0.0575571 -0.087689 0)
(-0.0502929 -0.102789 0)
(-0.03845 -0.116156 0)
(-0.0228722 -0.126031 0)
(-0.0607129 -0.0474305 0)
(-0.0709561 -0.0627414 0)
(-0.0763025 -0.0792558 0)
(-0.0767089 -0.0970296 0)
(-0.0717811 -0.115457 0)
(-0.0613427 -0.133235 0)
(-0.0457342 -0.148583 0)
(-0.0260885 -0.159482 0)
(-0.0813034 -0.0651034 0)
(-0.0906365 -0.0830721 0)
(-0.0944052 -0.102474 0)
(-0.0925627 -0.123121 0)
(-0.0847031 -0.144072 0)
(-0.0707966 -0.163849 0)
(-0.0514002 -0.180448 0)
(-0.0279013 -0.191902 0)
(-0.103302 -0.0850991 0)
(-0.110811 -0.105567 0)
(-0.112156 -0.127514 0)
(-0.107382 -0.150517 0)
(-0.0961455 -0.173457 0)
(-0.0785482 -0.194567 0)
(-0.0553665 -0.211831 0)
(-0.0282616 -0.223309 0)
(-0.126201 -0.107462 0)
(-0.13096 -0.130151 0)
(-0.129156 -0.154311 0)
(-0.120876 -0.179237 0)
(-0.105875 -0.203514 0)
(-0.0844328 -0.225336 0)
(-0.0575595 -0.242673 0)
(-0.0270452 -0.253711 0)
(-0.14939 -0.132217 0)
(-0.150586 -0.156915 0)
(-0.144952 -0.182895 0)
(-0.132661 -0.209168 0)
(-0.113598 -0.234232 0)
(-0.0882318 -0.256159 0)
(-0.057752 -0.273039 0)
(-0.0240923 -0.283153 0)
(-0.172254 -0.159585 0)
(-0.169113 -0.185973 0)
(-0.159034 -0.213332 0)
(-0.142281 -0.240433 0)
(-0.118914 -0.265591 0)
(-0.089611 -0.28699 0)
(-0.0557088 -0.30278 0)
(-0.019142 -0.311665 0)
(-0.193895 -0.189772 0)
(-0.185732 -0.217553 0)
(-0.170666 -0.245779 0)
(-0.149081 -0.272995 0)
(-0.121283 -0.297544 0)
(-0.0881153 -0.317691 0)
(-0.050989 -0.331928 0)
(-0.0117985 -0.339234 0)
(-0.213234 -0.223218 0)
(-0.199375 -0.251887 0)
(-0.178779 -0.280305 0)
(-0.152137 -0.306861 0)
(-0.119884 -0.329996 0)
(-0.0830767 -0.348231 0)
(-0.043037 -0.360365 0)
(-0.0015685 -0.365701 0)
(-0.228902 -0.260462 0)
(-0.208559 -0.289412 0)
(-0.182077 -0.317116 0)
(-0.150182 -0.342021 0)
(-0.113692 -0.362774 0)
(-0.073546 -0.378275 0)
(-0.0311105 -0.387717 0)
(0.0121916 -0.390671 0)
(-0.238304 -0.302147 0)
(-0.21097 -0.330277 0)
(-0.178349 -0.355988 0)
(-0.14155 -0.377908 0)
(-0.101269 -0.395159 0)
(-0.0585066 -0.407073 0)
(-0.014259 -0.413219 0)
(0.0302308 -0.41343 0)
(-0.237617 -0.348118 0)
(-0.202894 -0.373686 0)
(-0.164736 -0.395392 0)
(-0.123883 -0.412672 0)
(-0.0809595 -0.425192 0)
(-0.0366421 -0.432706 0)
(0.00828918 -0.435072 0)
(0.053045 -0.432279 0)
(-0.219249 -0.392684 0)
(-0.179704 -0.412284 0)
(-0.138428 -0.427912 0)
(-0.0958183 -0.43942 0)
(-0.0522862 -0.446696 0)
(-0.0082506 -0.44967 0)
(0.0358645 -0.448313 0)
(0.0796342 -0.442639 0)
)
;

boundaryField
{
    walls
    {
        type            cellMotion;
        value           uniform (0 0 0);
    }
    cylinder
    {
        type            cellMotion;
        value           nonuniform List<vector> 
16
(
(-0.432702 -0.122637 0)
(-0.418598 -0.164459 0)
(-0.400463 -0.204697 0)
(-0.378471 -0.242963 0)
(-0.352834 -0.27889 0)
(-0.323799 -0.312131 0)
(-0.291645 -0.342365 0)
(-0.256683 -0.369303 0)
(-0.219249 -0.392684 0)
(-0.179704 -0.412284 0)
(-0.138428 -0.427912 0)
(-0.0958183 -0.43942 0)
(-0.0522862 -0.446696 0)
(-0.0082506 -0.44967 0)
(0.0358645 -0.448313 0)
(0.0796342 -0.442639 0)
)
;
    }
    outlet
    {
        type            cellMotion;
        value           nonuniform List<vector> 0();
    }
    inlet
    {
        type            cellMotion;
        value           uniform (0 0 0);
    }
    frontAndBack
    {
        type            empty;
    }
    procBoundary2to0
    {
        type            processor;
        value           nonuniform List<vector> 
16
(
(-0.00161293 -0.0197911 0)
(-0.00383906 -0.0586948 0)
(-0.00502638 -0.095606 0)
(-0.00521035 -0.130853 0)
(-0.0044141 -0.164509 0)
(-0.00256112 -0.196714 0)
(0.000396702 -0.227552 0)
(0.00463669 -0.257175 0)
(0.010316 -0.285627 0)
(0.0177646 -0.312985 0)
(0.0273158 -0.339201 0)
(0.0394369 -0.364067 0)
(0.0546357 -0.387194 0)
(0.0737412 -0.407871 0)
(0.0967906 -0.424468 0)
(0.122637 -0.432702 0)
)
;
    }
    procBoundary2to3
    {
        type            processor;
        value           nonuniform List<vector> 
16
(
(-0.01853 0.00450065 0)
(-0.0555607 0.0121328 0)
(-0.09134 0.0182081 0)
(-0.125954 0.0228292 0)
(-0.159394 0.0260357 0)
(-0.191808 0.0278356 0)
(-0.223215 0.0281843 0)
(-0.253618 0.0269562 0)
(-0.283071 0.023989 0)
(-0.311591 0.019029 0)
(-0.339178 0.0116755 0)
(-0.365656 0.00145671 0)
(-0.390632 -0.012262 0)
(-0.413411 -0.030249 0)
(-0.432269 -0.0530339 0)
(-0.442639 -0.0796342 0)
)
;
    }
}


// ************************************************************************* //
