/*--------------------------------*- C++ -*----------------------------------*\
| =========                 |                                                 |
| \\      /  F ield         | OpenFOAM: The Open Source CFD Toolbox           |
|  \\    /   O peration     | Version:  2412                                  |
|   \\  /    A nd           | Website:  www.openfoam.com                      |
|    \\/     M anipulation  |                                                 |
\*---------------------------------------------------------------------------*/
FoamFile
{
    version     2.0;
    format      ascii;
    arch        "LSB;label=32;scalar=64";
    class       surfaceScalarField;
    location    "0.7";
    object      meshPhi;
}
// * * * * * * * * * * * * * * * * * * * * * * * * * * * * * * * * * * * * * //

dimensions      [0 3 -1 0 0 0 0];

internalField   nonuniform List<scalar> 
480
(
0.00238568
-0.00218946
0.00265718
-0.000162264
0.00275214
0.00177231
0.00264953
0.00317756
0.00229608
0.00374365
0.00175484
0.00347581
0.00109034
0.00266497
0.00184184
0.00069235
0.00697575
-0.0039523
0.00765486
-0.000363581
0.00790094
0.00296517
0.00763016
0.00536862
0.00672923
0.00645515
0.00533006
0.00623926
0.00355807
0.00509932
0.00380552
0.00248171
0.0112192
-0.00527089
0.0120981
-0.000564841
0.0124335
0.00370422
0.0120661
0.00679245
0.0108819
0.00832602
0.00899953
0.00833295
0.00652829
0.00716293
0.00570162
0.00505079
0.0151909
-0.00613194
0.0161033
-0.000657986
0.0164627
0.00419336
0.0160608
0.00769917
0.0147935
0.00958662
0.0127253
0.009874
0.00993576
0.00888176
0.00749799
0.00836585
0.0189596
-0.00655672
0.0198037
-0.000649299
0.0201454
0.00449967
0.0197697
0.00825453
0.0185646
0.0104095
0.0165403
0.0109729
0.0137761
0.0102485
0.00908153
0.0123931
0.0225433
-0.00663746
0.0232904
-0.000539272
0.0236176
0.00469313
0.0233191
0.00854734
0.0222981
0.0108851
0.0205175
0.0116945
0.0180471
0.0112732
0.010357
0.0170626
0.0259558
-0.00646088
0.0266342
-0.000369097
0.0269753
0.00478785
0.0268168
0.00865087
0.026116
0.0111119
0.0247044
0.0120774
0.0226149
0.0118148
0.010994
0.0220355
0.0292125
-0.00613216
0.0298069
-0.000226722
0.030199
0.00469937
0.0302279
0.00843008
0.0299753
0.0108895
0.0290328
0.0119381
0.0272964
0.011784
0.0109978
0.0269992
0.0323621
-0.00566327
0.0327853
-0.000115734
0.0332147
0.0045052
0.0334288
0.00803524
0.0336085
0.0103535
0.0333139
0.0113519
0.0321345
0.0112942
0.0106652
0.0322156
0.0355166
-0.00508192
0.0358088
-3.76302e-05
0.0362707
0.00424845
0.0366963
0.00753663
0.0371567
0.00965045
0.0375303
0.0106057
0.0372436
0.0107045
0.0103111
0.0381017
0.0386732
-0.00419659
0.0390189
0.000176982
0.0396323
0.00395128
0.0403766
0.00688877
0.0412037
0.00885451
0.042167
0.00987915
0.0428918
0.01017
0.00996339
0.0447853
0.0418337
-0.00310228
0.042378
0.00047025
0.0432823
0.00358194
0.0445111
0.00610411
0.0460105
0.0079188
0.0477181
0.00901118
0.0494433
0.00945917
0.00942947
0.0523232
0.0451275
-0.00189605
0.0459346
0.000868264
0.0472544
0.00327176
0.0491143
0.00529767
0.0514476
0.00684922
0.0541092
0.00791471
0.0569361
0.00848594
0.00858571
0.0607869
0.0485297
-0.000436987
0.0496681
0.00141316
0.0515493
0.00304764
0.0541305
0.0044698
0.0573384
0.00562515
0.0610126
0.00649515
0.0650526
0.00703445
0.0072225
0.0699044
0.051544
0.00115407
0.0530483
0.00202537
0.0554988
0.00282259
0.0588036
0.00353899
0.0628816
0.0041537
0.0675871
0.0046518
0.0727932
0.00500974
0.00523817
0.0785006
0.0492674
0.0512346
0.0540961
0.0577453
0.0620535
0.0668712
0.072005
0.0772454
0.000825311
-0.00230646
0.0011116
-0.00352786
0.00130866
-0.00490013
0.00143474
-0.00578271
0.00165524
-0.00631552
0.00189533
-0.00656322
0.00197592
-0.00601832
-0.00458476
0.00279893
-0.00559122
0.00361302
-0.00766295
0.00412171
-0.00995984
0.00443956
-0.0113117
0.00501402
-0.0119879
0.0056466
-0.0120786
0.00591987
-0.0108787
-0.00829249
0.00545118
-0.00957083
0.00660209
-0.0121599
0.00728284
-0.0149167
0.00772932
-0.0165243
0.00847356
-0.0171546
0.00931618
-0.0168099
0.00977192
-0.0148661
-0.0112689
0.00873996
-0.0138627
0.010023
-0.0166653
0.01078
-0.0195873
0.0112981
-0.0212014
0.0120608
-0.0215465
0.0129323
-0.020578
0.0134804
-0.0178492
-0.0134348
0.012637
-0.0182456
0.0138697
-0.0210733
0.0145829
-0.0238199
0.0150964
-0.0252293
0.0157838
-0.0252207
0.0165378
-0.0236201
0.017056
-0.020109
-0.0149247
0.0170878
-0.0223763
0.0181148
-0.0250565
0.0186745
-0.02747
0.0190725
-0.0284769
0.0195945
-0.0279132
0.0201372
-0.025637
0.0205448
-0.021444
-0.015717
0.0218232
-0.0256045
0.0226724
-0.0282257
0.0230208
-0.0302817
0.0231811
-0.0307594
0.0234227
-0.0295696
0.02371
-0.0266613
0.0240086
-0.021996
-0.0159545
0.0265258
-0.0276882
0.0273305
-0.0301125
0.027531
-0.0319002
0.0274119
-0.0319616
0.0272592
-0.0301531
0.0272664
-0.0266322
0.0274861
-0.0216617
-0.015607
0.0313583
-0.0289733
0.0320312
-0.0309747
0.0320932
-0.0322391
0.0317277
-0.0318478
0.0311961
-0.029577
0.0308964
-0.0256271
0.031007
-0.0205482
-0.0147169
0.0368178
-0.0293312
0.0369966
-0.0307939
0.0367484
-0.0313096
0.0361246
-0.0304025
0.0352902
-0.0278474
0.0346355
-0.023801
0.0345111
-0.0188189
-0.0133483
0.0429971
-0.028318
0.0424337
-0.029246
0.0416346
-0.0290463
0.040574
-0.0276189
0.039409
-0.0248986
0.0384133
-0.0210706
0.0379343
-0.0164687
-0.0114714
0.04988
-0.0257874
0.0484276
-0.0261663
0.0468312
-0.0252992
0.0451207
-0.0234346
0.0435356
-0.0206931
0.0422604
-0.0173057
0.0414449
-0.0133873
-0.0090595
0.0575073
-0.0214413
0.054978
-0.0213325
0.0523842
-0.0199784
0.0498766
-0.0179362
0.0477408
-0.0154282
0.0461489
-0.0126121
0.045109
-0.00952062
-0.00614837
0.0656624
-0.0150303
0.0618726
-0.0145978
0.0581317
-0.0130995
0.0547398
-0.0113099
0.0519433
-0.00936485
0.0499199
-0.00732134
0.0486417
-0.00518205
-0.00293147
0.0731718
-0.0063387
0.0679016
-0.00580702
0.0630268
-0.00487363
0.0588115
-0.00389598
0.0554237
-0.00290391
0.052973
-0.001897
0.0514902
-0.000876252
0.000148248
0.0706915
0.0645747
0.0592913
0.0549645
0.0516688
0.0494437
0.0483181
)
;

boundaryField
{
    walls
    {
        type            calculated;
        value           uniform 0;
    }
    cylinder
    {
        type            calculated;
        value           nonuniform List<scalar> 
16
(
1.09721e-11
-1.34696e-11
-4.46747e-12
8.13096e-12
-2.28932e-11
1.65876e-11
2.56844e-11
-1.30005e-11
1.30025e-11
-2.56821e-11
-1.65827e-11
2.28971e-11
-8.12787e-12
4.47085e-12
1.34717e-11
-1.09696e-11
)
;
    }
    outlet
    {
        type            calculated;
        value           nonuniform List<scalar> 0();
    }
    inlet
    {
        type            calculated;
        value           uniform 0;
    }
    frontAndBack
    {
        type            empty;
    }
    procBoundary2to0
    {
        type            processor;
        value           nonuniform List<scalar> 
16
(
0.00207578
0.00619538
0.0101704
0.0139725
0.0176161
0.0211289
0.0245574
0.0279521
0.0313522
0.0347422
0.0380378
0.0413171
0.0447632
0.0481847
0.0510228
0.0482731
)
;
    }
    procBoundary2to3
    {
        type            processor;
        value           nonuniform List<scalar> 
16
(
-0.00210594
-0.00630527
-0.0103937
-0.0143383
-0.0181434
-0.0218187
-0.0253866
-0.0288602
-0.0322499
-0.0355176
-0.0385847
-0.0416257
-0.0448892
-0.0481965
-0.0510179
-0.048277
)
;
    }
}


// ************************************************************************* //
