/*--------------------------------*- C++ -*----------------------------------*\
| =========                 |                                                 |
| \\      /  F ield         | OpenFOAM: The Open Source CFD Toolbox           |
|  \\    /   O peration     | Version:  2412                                  |
|   \\  /    A nd           | Website:  www.openfoam.com                      |
|    \\/     M anipulation  |                                                 |
\*---------------------------------------------------------------------------*/
FoamFile
{
    version     2.0;
    format      ascii;
    arch        "LSB;label=32;scalar=64";
    class       pointVectorField;
    location    "0.7";
    object      pointDisplacement;
}
// * * * * * * * * * * * * * * * * * * * * * * * * * * * * * * * * * * * * * //

dimensions      [0 1 0 0 0 0 0];

internalField   nonuniform List<vector> 
578
(
(0 0 0)
(0 0 0)
(0 0 0)
(0 0 0)
(0 0 0)
(0 0 0)
(0 0 0)
(0 0 0)
(0 0 0)
(-0.0381578 0.00554676 0)
(-0.0392349 -0.000151436 0)
(-0.0380076 -0.00555108 0)
(-0.0345684 -0.00973931 0)
(-0.0294963 -0.0120858 0)
(-0.0234992 -0.0123776 0)
(-0.0171918 -0.0107813 0)
(-0.0109387 -0.00768922 0)
(-0.00766778 -0.00565078 0)
(-0.075291 0.00982521 0)
(-0.0769644 -0.000999649 0)
(-0.0745815 -0.0111517 0)
(-0.0683622 -0.0191133 0)
(-0.0592819 -0.0238533 0)
(-0.0484961 -0.0249926 0)
(-0.037016 -0.0227363 0)
(-0.0254566 -0.0176387 0)
(-0.0192887 -0.01426 0)
(-0.110909 0.0128399 0)
(-0.112753 -0.00254381 0)
(-0.109255 -0.0168436 0)
(-0.100812 -0.0281804 0)
(-0.0886608 -0.0352966 0)
(-0.0742152 -0.0377015 0)
(-0.0587092 -0.0355721 0)
(-0.0429036 -0.0294899 0)
(-0.0342145 -0.0254619 0)
(-0.145133 0.0146403 0)
(-0.146827 -0.00481536 0)
(-0.142253 -0.0227771 0)
(-0.132039 -0.0371756 0)
(-0.11757 -0.0466487 0)
(-0.100398 -0.0506368 0)
(-0.0818669 -0.049266 0)
(-0.0628097 -0.0430881 0)
(-0.0519846 -0.0390889 0)
(-0.17805 0.0152249 0)
(-0.179346 -0.00788619 0)
(-0.173769 -0.0291154 0)
(-0.162151 -0.0463321 0)
(-0.145968 -0.0581451 0)
(-0.126825 -0.0639619 0)
(-0.106115 -0.0638584 0)
(-0.0846954 -0.0583423 0)
(-0.0720956 -0.0550063 0)
(-0.20976 0.0145527 0)
(-0.210447 -0.0118592 0)
(-0.203945 -0.0360381 0)
(-0.191223 -0.0558814 0)
(-0.173798 -0.0700232 0)
(-0.153294 -0.0778658 0)
(-0.131105 -0.0794446 0)
(-0.108087 -0.075232 0)
(-0.0940264 -0.0731321 0)
(-0.240327 0.0125245 0)
(-0.240256 -0.0168788 0)
(-0.232898 -0.0437482 0)
(-0.219302 -0.0660684 0)
(-0.201003 -0.0825353 0)
(-0.179612 -0.0925666 0)
(-0.156499 -0.0961688 0)
(-0.132507 -0.0937981 0)
(-0.117226 -0.0934352 0)
(-0.269813 0.00898586 0)
(-0.268864 -0.0231363 0)
(-0.260698 -0.052483 0)
(-0.246412 -0.077166 0)
(-0.227509 -0.0959626 0)
(-0.205574 -0.108319 0)
(-0.181955 -0.114232 0)
(-0.157469 -0.114158 0)
(-0.141134 -0.115967 0)
(-0.298266 0.00371191 0)
(-0.29634 -0.0308899 0)
(-0.287389 -0.0625357 0)
(-0.272533 -0.0894931 0)
(-0.253219 -0.110632 0)
(-0.230968 -0.125437 0)
(-0.207115 -0.133911 0)
(-0.182463 -0.136525 0)
(-0.165148 -0.140875 0)
(-0.325696 -0.00362542 0)
(-0.322674 -0.0404688 0)
(-0.312918 -0.074237 0)
(-0.297544 -0.103385 0)
(-0.277938 -0.126892 0)
(-0.255517 -0.144287 0)
(-0.231568 -0.155566 0)
(-0.206899 -0.161213 0)
(-0.188544 -0.168405 0)
(-0.351995 -0.0134426 0)
(-0.347711 -0.0522553 0)
(-0.337086 -0.0879615 0)
(-0.321195 -0.119228 0)
(-0.30133 -0.145155 0)
(-0.278793 -0.165304 0)
(-0.254769 -0.179646 0)
(-0.230053 -0.188653 0)
(-0.210415 -0.198925 0)
(-0.37687 -0.026253 0)
(-0.371142 -0.0667304 0)
(-0.359561 -0.104198 0)
(-0.343098 -0.137531 0)
(-0.322901 -0.16594 0)
(-0.300138 -0.189019 0)
(-0.275896 -0.206705 0)
(-0.250925 -0.219421 0)
(-0.229586 -0.232972 0)
(-0.399768 -0.0427405 0)
(-0.392402 -0.0845289 0)
(-0.379736 -0.123535 0)
(-0.362568 -0.158854 0)
(-0.341851 -0.189814 0)
(-0.318565 -0.216038 0)
(-0.293677 -0.237411 0)
(-0.267913 -0.254232 0)
(-0.244192 -0.271212 0)
(-0.419503 -0.0634666 0)
(-0.410303 -0.106062 0)
(-0.396353 -0.146302 0)
(-0.378238 -0.18349 0)
(-0.35666 -0.217069 0)
(-0.332364 -0.246668 0)
(-0.30612 -0.272092 0)
(-0.278551 -0.293471 0)
(-0.251234 -0.313992 0)
(-0.433026 -0.0880608 0)
(-0.421932 -0.130685 0)
(-0.406548 -0.171583 0)
(-0.387182 -0.210253 0)
(-0.364217 -0.246252 0)
(-0.338076 -0.279215 0)
(-0.309217 -0.308856 0)
(-0.278047 -0.335048 0)
(-0.245193 -0.358805 0)
(-0.438727 -0.10138 0)
(-0.426678 -0.143894 0)
(-0.410519 -0.185023 0)
(-0.390407 -0.22437 0)
(-0.366535 -0.261556 0)
(-0.339133 -0.296223 0)
(-0.308465 -0.328038 0)
(-0.274826 -0.356693 0)
(-0.238541 -0.381913 0)
(0 0 0)
(0 0 0)
(0 0 0)
(0 0 0)
(0 0 0)
(0 0 0)
(0 0 0)
(0 0 0)
(0 0 0)
(-0.0381578 0.00554676 0)
(-0.0392349 -0.000151436 0)
(-0.0380076 -0.00555108 0)
(-0.0345684 -0.00973931 0)
(-0.0294963 -0.0120858 0)
(-0.0234992 -0.0123776 0)
(-0.0171918 -0.0107813 0)
(-0.0109387 -0.00768922 0)
(-0.00766778 -0.00565078 0)
(-0.075291 0.00982521 0)
(-0.0769644 -0.000999649 0)
(-0.0745815 -0.0111517 0)
(-0.0683622 -0.0191133 0)
(-0.0592819 -0.0238533 0)
(-0.0484961 -0.0249926 0)
(-0.037016 -0.0227363 0)
(-0.0254566 -0.0176387 0)
(-0.0192887 -0.01426 0)
(-0.110909 0.0128399 0)
(-0.112753 -0.00254381 0)
(-0.109255 -0.0168436 0)
(-0.100812 -0.0281804 0)
(-0.0886608 -0.0352966 0)
(-0.0742152 -0.0377015 0)
(-0.0587092 -0.0355721 0)
(-0.0429036 -0.0294899 0)
(-0.0342145 -0.0254619 0)
(-0.145133 0.0146403 0)
(-0.146827 -0.00481536 0)
(-0.142253 -0.0227771 0)
(-0.132039 -0.0371756 0)
(-0.11757 -0.0466487 0)
(-0.100398 -0.0506368 0)
(-0.0818669 -0.049266 0)
(-0.0628097 -0.0430881 0)
(-0.0519846 -0.0390889 0)
(-0.17805 0.0152249 0)
(-0.179346 -0.00788619 0)
(-0.173769 -0.0291154 0)
(-0.162151 -0.0463321 0)
(-0.145968 -0.0581451 0)
(-0.126825 -0.0639619 0)
(-0.106115 -0.0638584 0)
(-0.0846954 -0.0583423 0)
(-0.0720956 -0.0550063 0)
(-0.20976 0.0145527 0)
(-0.210447 -0.0118592 0)
(-0.203945 -0.0360381 0)
(-0.191223 -0.0558814 0)
(-0.173798 -0.0700232 0)
(-0.153294 -0.0778658 0)
(-0.131105 -0.0794446 0)
(-0.108087 -0.075232 0)
(-0.0940264 -0.0731321 0)
(-0.240327 0.0125245 0)
(-0.240256 -0.0168788 0)
(-0.232898 -0.0437482 0)
(-0.219302 -0.0660684 0)
(-0.201003 -0.0825353 0)
(-0.179612 -0.0925666 0)
(-0.156499 -0.0961688 0)
(-0.132507 -0.0937981 0)
(-0.117226 -0.0934352 0)
(-0.269813 0.00898586 0)
(-0.268864 -0.0231363 0)
(-0.260698 -0.052483 0)
(-0.246412 -0.077166 0)
(-0.227509 -0.0959626 0)
(-0.205574 -0.108319 0)
(-0.181955 -0.114232 0)
(-0.157469 -0.114158 0)
(-0.141134 -0.115967 0)
(-0.298266 0.00371191 0)
(-0.29634 -0.0308899 0)
(-0.287389 -0.0625357 0)
(-0.272533 -0.0894931 0)
(-0.253219 -0.110632 0)
(-0.230968 -0.125437 0)
(-0.207115 -0.133911 0)
(-0.182463 -0.136525 0)
(-0.165148 -0.140875 0)
(-0.325696 -0.00362542 0)
(-0.322674 -0.0404688 0)
(-0.312918 -0.074237 0)
(-0.297544 -0.103385 0)
(-0.277938 -0.126892 0)
(-0.255517 -0.144287 0)
(-0.231568 -0.155566 0)
(-0.206899 -0.161213 0)
(-0.188544 -0.168405 0)
(-0.351995 -0.0134426 0)
(-0.347711 -0.0522553 0)
(-0.337086 -0.0879615 0)
(-0.321195 -0.119228 0)
(-0.30133 -0.145155 0)
(-0.278793 -0.165304 0)
(-0.254769 -0.179646 0)
(-0.230053 -0.188653 0)
(-0.210415 -0.198925 0)
(-0.37687 -0.026253 0)
(-0.371142 -0.0667304 0)
(-0.359561 -0.104198 0)
(-0.343098 -0.137531 0)
(-0.322901 -0.16594 0)
(-0.300138 -0.189019 0)
(-0.275896 -0.206705 0)
(-0.250925 -0.219421 0)
(-0.229586 -0.232972 0)
(-0.399768 -0.0427405 0)
(-0.392402 -0.0845289 0)
(-0.379736 -0.123535 0)
(-0.362568 -0.158854 0)
(-0.341851 -0.189814 0)
(-0.318565 -0.216038 0)
(-0.293677 -0.237411 0)
(-0.267913 -0.254232 0)
(-0.244192 -0.271212 0)
(-0.419503 -0.0634666 0)
(-0.410303 -0.106062 0)
(-0.396353 -0.146302 0)
(-0.378238 -0.18349 0)
(-0.35666 -0.217069 0)
(-0.332364 -0.246668 0)
(-0.30612 -0.272092 0)
(-0.278551 -0.293471 0)
(-0.251234 -0.313992 0)
(-0.433026 -0.0880608 0)
(-0.421932 -0.130685 0)
(-0.406548 -0.171583 0)
(-0.387182 -0.210253 0)
(-0.364217 -0.246252 0)
(-0.338076 -0.279215 0)
(-0.309217 -0.308856 0)
(-0.278047 -0.335048 0)
(-0.245193 -0.358805 0)
(-0.438727 -0.10138 0)
(-0.426678 -0.143894 0)
(-0.410519 -0.185023 0)
(-0.390407 -0.22437 0)
(-0.366535 -0.261556 0)
(-0.339133 -0.296223 0)
(-0.308465 -0.328038 0)
(-0.274826 -0.356693 0)
(-0.238541 -0.381913 0)
(0 0 0)
(0 0 0)
(0 0 0)
(0 0 0)
(0 0 0)
(0 0 0)
(0 0 0)
(0 0 0)
(-0.0099854 -0.0076579 0)
(-0.0136993 -0.0116511 0)
(-0.0161306 -0.015973 0)
(-0.0171548 -0.0207102 0)
(-0.0166338 -0.025767 0)
(-0.0144571 -0.0307869 0)
(-0.0106511 -0.0351618 0)
(-0.00555226 -0.0381966 0)
(-0.0231042 -0.0181609 0)
(-0.0293698 -0.0259076 0)
(-0.0331392 -0.0342961 0)
(-0.0342243 -0.0434061 0)
(-0.0324 -0.0529598 0)
(-0.0275287 -0.0622281 0)
(-0.0197713 -0.0701005 0)
(-0.0098337 -0.0753649 0)
(-0.0387505 -0.0312226 0)
(-0.0463946 -0.0424281 0)
(-0.0504706 -0.0545614 0)
(-0.0507576 -0.0676031 0)
(-0.0469756 -0.0810234 0)
(-0.0390354 -0.0937418 0)
(-0.0273029 -0.104252 0)
(-0.0128508 -0.111012 0)
(-0.0565063 -0.0467286 0)
(-0.0644292 -0.0611194 0)
(-0.0678625 -0.0766589 0)
(-0.0665724 -0.0931562 0)
(-0.0602716 -0.109806 0)
(-0.0489796 -0.125213 0)
(-0.0333039 -0.137595 0)
(-0.0146547 -0.145257 0)
(-0.0759292 -0.0645817 0)
(-0.083105 -0.0818875 0)
(-0.0850247 -0.100475 0)
(-0.0814684 -0.11993 0)
(-0.0721826 -0.139171 0)
(-0.0573394 -0.156556 0)
(-0.0377937 -0.170137 0)
(-0.0152448 -0.178189 0)
(-0.0965456 -0.0847065 0)
(-0.102036 -0.104663 0)
(-0.101658 -0.125916 0)
(-0.0952274 -0.147807 0)
(-0.0825727 -0.169009 0)
(-0.0640446 -0.187704 0)
(-0.0407398 -0.201907 0)
(-0.0145809 -0.209905 0)
(-0.117855 -0.107068 0)
(-0.120807 -0.129395 0)
(-0.117425 -0.152909 0)
(-0.107597 -0.176702 0)
(-0.0912713 -0.199246 0)
(-0.0689887 -0.218634 0)
(-0.0420609 -0.232915 0)
(-0.0125637 -0.24047 0)
(-0.139324 -0.131686 0)
(-0.13895 -0.156082 0)
(-0.131943 -0.181422 0)
(-0.118278 -0.206563 0)
(-0.0980509 -0.229841 0)
(-0.0720009 -0.249336 0)
(-0.0416102 -0.263178 0)
(-0.00903854 -0.269947 0)
(-0.160376 -0.158676 0)
(-0.155957 -0.184797 0)
(-0.144761 -0.211481 0)
(-0.126885 -0.237386 0)
(-0.1026 -0.260777 0)
(-0.0728272 -0.279777 0)
(-0.0391676 -0.292691 0)
(-0.00377841 -0.298385 0)
(-0.180288 -0.188227 0)
(-0.171169 -0.215682 0)
(-0.155291 -0.243164 0)
(-0.132905 -0.269175 0)
(-0.104486 -0.291991 0)
(-0.0711019 -0.309882 0)
(-0.0343994 -0.321432 0)
(0.00354721 -0.325796 0)
(-0.198096 -0.220618 0)
(-0.183667 -0.248909 0)
(-0.162684 -0.27652 0)
(-0.135604 -0.301888 0)
(-0.103087 -0.323404 0)
(-0.0662942 -0.339588 0)
(-0.026834 -0.349335 0)
(0.0133608 -0.352073 0)
(-0.21255 -0.25626 0)
(-0.192219 -0.284715 0)
(-0.165804 -0.311617 0)
(-0.133972 -0.335456 0)
(-0.0975381 -0.354858 0)
(-0.057675 -0.36868 0)
(-0.0158624 -0.376139 0)
(0.0261906 -0.376927 0)
(-0.221707 -0.295598 0)
(-0.194998 -0.323242 0)
(-0.163035 -0.348307 0)
(-0.126657 -0.369512 0)
(-0.0867298 -0.38586 0)
(-0.0443297 -0.396602 0)
(-0.000712561 -0.401281 0)
(0.042719 -0.399807 0)
(-0.222451 -0.338599 0)
(-0.189221 -0.363896 0)
(-0.1521 -0.385548 0)
(-0.111878 -0.402782 0)
(-0.069304 -0.415071 0)
(-0.0252412 -0.422045 0)
(0.0193593 -0.423518 0)
(0.0634769 -0.419523 0)
(-0.209799 -0.381808 0)
(-0.171357 -0.402421 0)
(-0.130629 -0.418929 0)
(-0.0881527 -0.431053 0)
(-0.0444578 -0.438606 0)
(-0.000118094 -0.441466 0)
(0.0442634 -0.439591 0)
(0.0880704 -0.433031 0)
(-0.199958 -0.403455 0)
(-0.15945 -0.421112 0)
(-0.117406 -0.434713 0)
(-0.074231 -0.444127 0)
(-0.0303415 -0.449265 0)
(0.0138403 -0.450075 0)
(0.0578887 -0.446552 0)
(0.10138 -0.438727 0)
(0 0 0)
(0 0 0)
(0 0 0)
(0 0 0)
(0 0 0)
(0 0 0)
(0 0 0)
(0 0 0)
(-0.0099854 -0.0076579 0)
(-0.0136993 -0.0116511 0)
(-0.0161306 -0.015973 0)
(-0.0171548 -0.0207102 0)
(-0.0166338 -0.025767 0)
(-0.0144571 -0.0307869 0)
(-0.0106511 -0.0351618 0)
(-0.00555226 -0.0381966 0)
(-0.0231042 -0.0181609 0)
(-0.0293698 -0.0259076 0)
(-0.0331392 -0.0342961 0)
(-0.0342243 -0.0434061 0)
(-0.0324 -0.0529598 0)
(-0.0275287 -0.0622281 0)
(-0.0197713 -0.0701005 0)
(-0.0098337 -0.0753649 0)
(-0.0387505 -0.0312226 0)
(-0.0463946 -0.0424281 0)
(-0.0504706 -0.0545614 0)
(-0.0507576 -0.0676031 0)
(-0.0469756 -0.0810234 0)
(-0.0390354 -0.0937418 0)
(-0.0273029 -0.104252 0)
(-0.0128508 -0.111012 0)
(-0.0565063 -0.0467286 0)
(-0.0644292 -0.0611194 0)
(-0.0678625 -0.0766589 0)
(-0.0665724 -0.0931562 0)
(-0.0602716 -0.109806 0)
(-0.0489796 -0.125213 0)
(-0.0333039 -0.137595 0)
(-0.0146547 -0.145257 0)
(-0.0759292 -0.0645817 0)
(-0.083105 -0.0818875 0)
(-0.0850247 -0.100475 0)
(-0.0814684 -0.11993 0)
(-0.0721826 -0.139171 0)
(-0.0573394 -0.156556 0)
(-0.0377937 -0.170137 0)
(-0.0152448 -0.178189 0)
(-0.0965456 -0.0847065 0)
(-0.102036 -0.104663 0)
(-0.101658 -0.125916 0)
(-0.0952274 -0.147807 0)
(-0.0825727 -0.169009 0)
(-0.0640446 -0.187704 0)
(-0.0407398 -0.201907 0)
(-0.0145809 -0.209905 0)
(-0.117855 -0.107068 0)
(-0.120807 -0.129395 0)
(-0.117425 -0.152909 0)
(-0.107597 -0.176702 0)
(-0.0912713 -0.199246 0)
(-0.0689887 -0.218634 0)
(-0.0420609 -0.232915 0)
(-0.0125637 -0.24047 0)
(-0.139324 -0.131686 0)
(-0.13895 -0.156082 0)
(-0.131943 -0.181422 0)
(-0.118278 -0.206563 0)
(-0.0980509 -0.229841 0)
(-0.0720009 -0.249336 0)
(-0.0416102 -0.263178 0)
(-0.00903854 -0.269947 0)
(-0.160376 -0.158676 0)
(-0.155957 -0.184797 0)
(-0.144761 -0.211481 0)
(-0.126885 -0.237386 0)
(-0.1026 -0.260777 0)
(-0.0728272 -0.279777 0)
(-0.0391676 -0.292691 0)
(-0.00377841 -0.298385 0)
(-0.180288 -0.188227 0)
(-0.171169 -0.215682 0)
(-0.155291 -0.243164 0)
(-0.132905 -0.269175 0)
(-0.104486 -0.291991 0)
(-0.0711019 -0.309882 0)
(-0.0343994 -0.321432 0)
(0.00354721 -0.325796 0)
(-0.198096 -0.220618 0)
(-0.183667 -0.248909 0)
(-0.162684 -0.27652 0)
(-0.135604 -0.301888 0)
(-0.103087 -0.323404 0)
(-0.0662942 -0.339588 0)
(-0.026834 -0.349335 0)
(0.0133608 -0.352073 0)
(-0.21255 -0.25626 0)
(-0.192219 -0.284715 0)
(-0.165804 -0.311617 0)
(-0.133972 -0.335456 0)
(-0.0975381 -0.354858 0)
(-0.057675 -0.36868 0)
(-0.0158624 -0.376139 0)
(0.0261906 -0.376927 0)
(-0.221707 -0.295598 0)
(-0.194998 -0.323242 0)
(-0.163035 -0.348307 0)
(-0.126657 -0.369512 0)
(-0.0867298 -0.38586 0)
(-0.0443297 -0.396602 0)
(-0.000712561 -0.401281 0)
(0.042719 -0.399807 0)
(-0.222451 -0.338599 0)
(-0.189221 -0.363896 0)
(-0.1521 -0.385548 0)
(-0.111878 -0.402782 0)
(-0.069304 -0.415071 0)
(-0.0252412 -0.422045 0)
(0.0193593 -0.423518 0)
(0.0634769 -0.419523 0)
(-0.209799 -0.381808 0)
(-0.171357 -0.402421 0)
(-0.130629 -0.418929 0)
(-0.0881527 -0.431053 0)
(-0.0444578 -0.438606 0)
(-0.000118094 -0.441466 0)
(0.0442634 -0.439591 0)
(0.0880704 -0.433031 0)
(-0.199958 -0.403455 0)
(-0.15945 -0.421112 0)
(-0.117406 -0.434713 0)
(-0.074231 -0.444127 0)
(-0.0303415 -0.449265 0)
(0.0138403 -0.450075 0)
(0.0578887 -0.446552 0)
(0.10138 -0.438727 0)
)
;

boundaryField
{
    walls
    {
        type            fixedValue;
        value           uniform (0 0 0);
    }
    cylinder
    {
        type            solidBodyMotionDisplacement;
        value           nonuniform List<vector> 
34
(
(-0.438727 -0.10138 0)
(-0.438727 -0.10138 0)
(-0.426678 -0.143894 0)
(-0.426678 -0.143894 0)
(-0.410519 -0.185023 0)
(-0.410519 -0.185023 0)
(-0.390407 -0.22437 0)
(-0.390407 -0.22437 0)
(-0.366535 -0.261556 0)
(-0.366535 -0.261556 0)
(-0.339133 -0.296223 0)
(-0.339133 -0.296223 0)
(-0.308465 -0.328038 0)
(-0.308465 -0.328038 0)
(-0.274826 -0.356693 0)
(-0.274826 -0.356693 0)
(-0.238541 -0.381913 0)
(-0.238541 -0.381913 0)
(-0.199958 -0.403455 0)
(-0.199958 -0.403455 0)
(-0.15945 -0.421112 0)
(-0.15945 -0.421112 0)
(-0.117406 -0.434713 0)
(-0.117406 -0.434713 0)
(-0.074231 -0.444127 0)
(-0.074231 -0.444127 0)
(-0.0303415 -0.449265 0)
(-0.0303415 -0.449265 0)
(0.0138403 -0.450075 0)
(0.0138403 -0.450075 0)
(0.0578887 -0.446552 0)
(0.0578887 -0.446552 0)
(0.10138 -0.438727 0)
(0.10138 -0.438727 0)
)
;
        solidBodyMotionFunction oscillatingRotatingMotion;
        oscillatingRotatingMotionCoeffs
        {
            origin          ( 0 0 0 );
            axis            ( 0 0 1 );
            omega           1.5;
            amplitude       ( 0 0 30 );
        }
    }
    outlet
    {
        type            fixedValue;
        value           nonuniform List<vector> 0();
    }
    inlet
    {
        type            fixedValue;
        value           uniform (0 0 0);
    }
    frontAndBack
    {
        type            empty;
    }
    procBoundary2to0
    {
        type            processor;
    }
    procBoundary2to3
    {
        type            processor;
    }
}


// ************************************************************************* //
