/*--------------------------------*- C++ -*----------------------------------*\
| =========                 |                                                 |
| \\      /  F ield         | OpenFOAM: The Open Source CFD Toolbox           |
|  \\    /   O peration     | Version:  2412                                  |
|   \\  /    A nd           | Website:  www.openfoam.com                      |
|    \\/     M anipulation  |                                                 |
\*---------------------------------------------------------------------------*/
FoamFile
{
    version     2.0;
    format      ascii;
    arch        "LSB;label=32;scalar=64";
    class       volVectorField;
    location    "145";
    object      U;
}
// * * * * * * * * * * * * * * * * * * * * * * * * * * * * * * * * * * * * * //

dimensions      [0 1 -1 0 0 0 0];

internalField   nonuniform List<vector> 
808
(
(0.7562638036007193 -0.01750555742207681 0)
(1.031560206403556 -0.01262592146351013 0)
(1.111124412902692 -0.006224212216628412 -1.727516468729559e-20)
(1.085121591498647 0.01259730620899323 0)
(1.363785287051608 0.01380204129257991 -3.846621799818968e-19)
(1.038753415569766 -0.009390905375701168 -7.297170045071437e-20)
(1.01426876741061 -0.0210972171102832 -2.418039672263183e-20)
(1.0792004169939 -0.005382307841430944 9.059071795636056e-21)
(1.254586150440281 -0.02083061335856325 6.292165695729857e-20)
(1.085218881930323 0.01002786546156107 0)
(1.008800963685669 -0.008288472206339418 0)
(1.306062968226317 -0.05391552124803637 -3.494838820684411e-19)
(1.086323768865234 -0.00202455124794935 2.043519919675955e-20)
(0.6752077378702903 0.006359427205575383 0)
(1.277074453437664 -0.115765366869813 0)
(1.081583667884562 -0.0003765450524365986 -3.860530362022147e-20)
(1.224849712394151 -0.1441186659538482 -9.481556356503152e-20)
(1.074029431496342 -0.0002197000420643395 3.201659016021839e-20)
(0.9900374793143969 0.003503063750672099 0)
(1.026440239693237 0.009706678699712205 0)
(1.032861696216428 -0.01151821117313131 0)
(0.9875442384982224 0.04483455588540924 0)
(1.051108493023593 -0.005957969946092624 5.72437678488534e-20)
(1.053697818842307 0.009144771781435192 0)
(0.9329688805444385 0.1976843877237049 4.582998051365303e-19)
(1.163576693406473 -0.08502481684068854 0)
(1.185986044996019 -0.01919618352736943 1.557064072915349e-19)
(1.077341176605379 0.009598786659732083 5.22160269222248e-20)
(1.083628009894206 0.002251971352823108 5.104164433801035e-21)
(1.071748698831495 0.03088841629895123 0)
(1.075273229349447 0.002820190206454161 -1.180376818946969e-20)
(1.033129624413549 0.006841938865379511 -1.905612831118108e-19)
(1.0600322170592 0.01460631929074475 -2.356220863084986e-20)
(1.088891482684355 0.005644475576512265 -2.937176348219135e-20)
(1.121316238812909 0.03876813588353548 0)
(0.7550057389832837 -0.1231465120709508 -4.5435245457752e-19)
(0.954820983910771 -0.005855090963461191 0)
(1.068769399293655 0.02222005412897573 0)
(1.068800461657122 0.007271455798593958 0)
(1.073758545766239 0.008841939584236069 -2.824682296300132e-20)
(1.092936774043805 0.02440328710847184 1.093160441006354e-19)
(1.151050475358907 0.003156683598889139 2.142281924158004e-19)
(1.095961924043431 -0.002250318454684417 0)
(1.015310053649378 -0.009180627490129153 0)
(1.13219036568016 -0.09291565263606905 -1.623600381757421e-19)
(1.04408696347793 -0.01162521300522518 -8.243958611743395e-20)
(1.058110558664643 0.02662903407292676 -2.705309010625701e-20)
(1.231184184387793 -0.1124921341026097 -5.577906237093249e-20)
(1.067516582509175 0.0120350781451852 -4.126394786105925e-20)
(1.258335218933771 0.01643682981525375 0)
(0.9966611030627861 -0.01926864230507192 2.201260375572812e-21)
(1.044739645692425 -0.001982889481192875 0)
(1.087567021300505 -0.00207003983900208 0)
(0.9993867577824697 0.007369871446441342 -1.855781694783013e-20)
(1.250668301944545 0.0336321418137487 -2.368324533796438e-19)
(1.063452713757169 0.01806428458354956 5.952648668276415e-20)
(0.991744825766636 0.01080697225386952 0)
(1.017774561725478 -0.006332413031711065 2.466346567293427e-20)
(1.107626039835086 -0.0006306685055067914 -1.171939925286274e-19)
(1.061081908023905 0.03112210588588076 0)
(-0.08983369082264621 0.00554875220328214 7.567326918144405e-20)
(1.154929312638302 -0.05206853140725734 -1.873092293438364e-19)
(1.006346800954205 -0.005771894603036162 -2.708601657846321e-20)
(1.187531957521132 0.06879265084318105 -1.219795560201729e-19)
(0.9974882450290907 -0.009403597837716786 3.088512444992196e-20)
(1.084307452760779 -0.005464668371360623 0)
(1.249333177502848 0.09587144984829117 0)
(0.6960866008199574 0.00317651435317064 -7.434883251738424e-20)
(0.988543800994703 -0.01390886186675193 -3.217919627995668e-20)
(1.459980723328172 -0.01928239763994988 4.43023622529619e-19)
(1.060487205272026 0.007612123719362597 -6.601679667186124e-20)
(1.368143726800709 0.09465159517794813 2.863343507575914e-19)
(1.054822323269222 0.006858062703265702 -1.958316254116509e-22)
(1.08104304002979 -0.01388706345034089 -2.837234761112758e-22)
(1.164713923523517 -0.2362805129249833 0)
(1.021832404169424 -0.01499998560641133 0)
(1.017020005360399 0.01798052088863209 -3.038541060886672e-20)
(1.38624991163477 0.3484691008651261 4.199526723226854e-19)
(1.097360297672333 -0.0424934706045636 9.540931277338008e-20)
(1.045777634308915 0.209686945521572 2.45874174675836e-19)
(1.124165499351539 -0.06027599380954109 1.169595104976506e-19)
(0.921937556676546 0.005149287271669422 0)
(0.9753304994934497 0.01851053149451039 0)
(1.004061599245456 -0.04873790423381538 2.972514748209328e-21)
(1.009821191658279 -0.01344522537605581 7.779583576572216e-21)
(1.030054901763453 0.02683836339225213 1.368319744720398e-20)
(1.52914012030471 0.03458319962699068 3.23403452146518e-19)
(1.289304921344012 0.07073512199588947 5.586370359570644e-19)
(1.072346090195729 0.003121626960275796 -8.964557359141457e-20)
(1.195917807659815 -0.09330134548670183 0)
(1.033771023450769 0.001909618317995217 1.310030504647565e-19)
(1.165370641949112 0.02174085601043731 -3.166904286765805e-19)
(1.001465658858826 0.0324301047099618 0)
(0.999626405943295 0.002023867609347137 0)
(1.044402855719944 4.889459638429607e-05 7.922748842084102e-20)
(1.216438239690786 0.1102782323899835 4.126447377641196e-19)
(1.011112725132796 0.006985419021715835 0)
(1.091423114459343 -0.06803487477296484 -1.060473894061866e-19)
(1.151286320227331 0.0373203942224699 0)
(1.215977514727603 0.09423273882363783 -1.935299367536557e-19)
(1.108245692022168 -0.02886535657752977 -7.787372888870352e-20)
(1.027289867120473 0.01189183190231082 0)
(1.085034060196985 -0.004594069495482841 0)
(1.019013641302977 0.02635635595546278 7.939067312423629e-20)
(1.072272661046383 0.05641009479434902 -9.614292943383172e-21)
(1.103796133761323 -0.004144217286697907 6.37613600237502e-20)
(1.109673878165425 -0.0922695755607548 1.494785185745628e-19)
(0.9640633881724501 0.004325287704257595 0)
(1.065949126008873 0.03118005502165776 3.738849120225517e-20)
(1.168845142342556 -0.07670025671046347 2.289217770807765e-19)
(1.051482240258818 0.04703120825922063 -2.872763819567238e-20)
(1.022766795809436 0.06761973112430805 3.681007298523764e-20)
(1.090179816553659 0.02603395702458765 0)
(1.017939688059553 0.01574338711639209 0)
(1.028997641201375 0.009374562885162058 7.851478228130218e-20)
(0.9485846526729093 -0.03305992204561608 0)
(1.052750864612682 -0.005497545341235463 -7.568692300562422e-21)
(1.342369569973386 0.05713027994293335 -1.557157993787196e-19)
(1.07980681355097 -0.01312321437166897 2.659579215503984e-20)
(0.7439707645211934 -0.001723460584364075 0)
(0.5930520888258978 0.1944206451255683 -1.092885747734623e-19)
(0.7061928982532227 -0.002497767829565547 0)
(0.6987603749054346 0.01462538760834475 0)
(1.077665666827946 0.003664677435263097 -6.5800641450818e-22)
(0.9906518902936872 0.01450358698879572 0)
(1.278751208748769 0.1222906783069579 2.526675365152424e-19)
(1.012287454691099 -0.02783679579178156 -7.579772493746369e-21)
(1.045779018433091 0.01809459471119565 1.596873204703526e-21)
(1.058688465117734 -0.0118768085594957 0)
(1.126623009393059 -0.009114805367725439 -5.082241470917556e-20)
(1.272054030698001 0.1341192830305228 -2.288634126010985e-19)
(1.089287332190997 -0.01102543128551468 -8.625055927700929e-20)
(1.07049291440342 0.02672485776583936 -1.083650408240089e-19)
(1.040877569890209 0.04677435404762383 7.247697187738282e-20)
(1.022623995155311 -0.00372955917324276 -3.475692875001057e-20)
(1.060851337253619 0.02360767631739713 5.829744340846138e-21)
(1.135452400760947 0.002812873627568472 1.037494268558867e-20)
(1.039038812376125 -0.01510837259639056 -4.809593304114559e-22)
(1.087365322615142 0.03471621765366918 0)
(1.02811164624616 0.01372737250558932 0)
(0.7725730608932484 -0.07329722857944473 -1.810790676226623e-19)
(1.030243744774769 -0.001677668812882076 -6.681208051922098e-20)
(1.129975259422046 -0.003967238324121988 -1.247346530272236e-20)
(0.7034252196287433 0.00656856373982382 7.19916012811214e-20)
(1.174843762140595 0.01971039007022059 -1.953409079201925e-19)
(1.137113289603088 0.006990627706852367 5.023885181481517e-21)
(1.128986261273071 -0.01002353563964285 3.407226462562752e-20)
(1.00093478391153 -0.002946116079141696 -7.055069791115963e-20)
(1.103217411102177 -0.06152685793869828 0)
(0.9890243456681258 0.005282116526006755 0)
(1.057818410866033 0.007038709321587596 0)
(1.005592477788297 0.1883437643236067 -2.404830497933219e-19)
(0.7791781719906596 0.01242895366928017 0)
(0.8569699786044386 0.1012217968226944 -8.299663289944065e-20)
(0.08416090665273099 0.03477349553317494 -2.974885608883522e-19)
(1.171807482102677 -0.03058035284493296 -2.2718152290177e-20)
(0.671293698667323 -0.007313058653065721 2.449975926010019e-20)
(1.167064985136318 -0.09993364132544395 6.891335786202088e-20)
(1.124230604820447 -0.002048180784950112 -5.718205506956752e-21)
(1.154065441776668 -0.04851699398747831 2.207634453946169e-20)
(0.09281226395048778 -0.2160766070602772 0)
(0.2374310729606985 0.07086872774498421 0)
(1.261665850294764 0.1083178728468496 1.889035642375376e-19)
(1.021082677611585 0.01980382393961339 0)
(0.7378071198695818 -0.006247803729787355 0)
(1.075195782028264 -0.01148503995701979 2.740073795291715e-20)
(0.9747660358091802 0.002849117456316759 0)
(1.298114816020144 0.124108031452229 -1.530755313711426e-19)
(1.05739100499469 0.01100640413749248 0)
(0.9934347812231105 -0.006940710864710506 0)
(1.065063584633687 0.008334281808704788 0)
(1.006209032277473 0.02087170760200155 2.060573969535496e-20)
(0.9378353470017328 0.01432015282959983 1.20728683493961e-20)
(1.176944331397848 -0.1999377359861434 0)
(1.005156692468972 -0.005183836762021228 8.007647486508415e-20)
(1.059153798045558 0.00639162194457536 0)
(0.7746381809034978 -0.003283486312925998 0)
(1.218336642652882 0.02755402721992772 1.639153500730299e-20)
(0.7049653135844482 0.001364812378719171 0)
(1.435073921414012 0.08535899402291799 -5.174468174844105e-20)
(0.9952263727162669 -0.005709156351411451 1.695773620270487e-20)
(1.273347136851832 -0.002675554619540782 -2.981269686305075e-19)
(1.059554306512324 0.009031714928242772 1.348924712491182e-19)
(1.000911557152988 -0.01354398655186845 0)
(1.210687792629994 -0.1411837072635938 2.053826440025493e-19)
(0.7331840979462505 0.01378553314547775 0)
(1.098481902676516 -0.004947266974882007 0)
(1.15518860342165 0.06870788125895992 1.931288651576748e-20)
(1.006686802389517 -0.006400325032882219 -3.046985699488958e-20)
(1.122080452466054 0.05281265796164254 -1.737890008353645e-19)
(0.1093526830794184 -0.09217974427705997 0)
(1.072714126506312 0.03927792069518397 0)
(0.6617637298760106 -0.002892530678758041 -5.359471481519584e-22)
(1.012140948208534 -0.01946128518337196 9.278278293308248e-20)
(1.061331044655847 0.0008533776548575952 0)
(1.075966019537382 -0.1331535619466104 3.743400808650695e-19)
(1.002791833093487 -0.006156957575641134 -3.329364539098343e-21)
(1.003310890279712 -0.004614501593385598 8.264068682559598e-22)
(1.093960530927635 -0.009255971149369702 0)
(1.020706869011134 0.02046256806901113 -6.539066674144501e-20)
(1.106571551939771 -0.001569551115380689 6.455592600771761e-22)
(1.074623910450185 -0.01105617031825874 6.658258874667798e-20)
(1.085697078536978 0.02219743404755175 0)
(1.328686400291416 0.1579712832913183 0)
(1.002045032547748 0.0003767542628529061 4.408787510202156e-20)
(1.318694029019262 -0.1298503747039157 1.587633183176007e-19)
(0.02174976215112054 -0.1763207886607037 -2.372854025419548e-19)
(1.071152983839278 -0.005368928276406065 0)
(1.112334127428957 -0.005374661992317215 1.166805698915013e-20)
(0.7267364348026112 0.01779706764357835 0)
(1.059420291020678 0.01089702092064898 0)
(0.8643546394269431 0.1626961659350651 4.633359129827689e-19)
(1.281440681838631 0.1299693062769512 1.927547915003769e-19)
(0.6543003222921748 -0.003097772307874 -6.49783736209849e-20)
(1.039734699887323 0.004695153583703067 -5.68168265140643e-21)
(1.054749066725496 -0.0002243934062439792 6.490786856094139e-20)
(1.363944188021502 0.1188276918145913 6.632388272930733e-19)
(1.335123918123438 0.2518510599191012 0)
(1.059199688756132 0.006763928960239641 0)
(1.000413777920621 -0.004774155472294905 1.426048245506195e-20)
(0.9927861506805373 -0.003778520110275947 4.171478746515796e-21)
(1.382987327904102 0.1994002432663749 4.29658821027018e-19)
(0.6818482569434792 0.0004659367965587129 9.955067122530328e-20)
(1.005654241313868 -0.002202977352690158 -6.017168215942864e-20)
(1.098225132767167 0.01311936082577564 2.560479692327125e-20)
(0.669457196667078 0.004957991463382366 0)
(1.06608859601773 -0.01201832190084908 0)
(1.017384193748996 0.1484963761273922 -1.407988179791771e-19)
(1.091474133521953 -0.003689421489126892 -2.559528780337477e-20)
(0.9820030020219628 9.35676454757908e-05 3.303408804139006e-20)
(0.9912116436090284 0.006017359268477412 0)
(0.6381650109653495 -0.001074545671581639 0)
(0.9767045196430078 -0.001208040889883033 0)
(0.6420974974392462 -0.001434429441126084 2.637150344713977e-21)
(1.088983272542013 -0.05521082773677088 1.207658512890472e-19)
(1.111266638836613 -0.004656260436643242 1.149975208440814e-21)
(0.9579275527067689 -0.0008604514439488453 3.883073639619904e-20)
(1.017042669660544 0.01010971309759767 1.739447123852811e-20)
(1.066730218855391 0.004052028354477595 -2.527343525172181e-21)
(0.6347375988747107 0.008876062644434241 -3.618418593722397e-20)
(1.005880968649264 0.009080516508784267 -7.196211723092928e-22)
(1.03746412005898 0.006646205038805316 5.4268746240013e-21)
(0.9857124128322399 -0.007984363563020644 0)
(0.6099533282020341 -0.0004548198071269238 0)
(1.068900412595688 0.02249001869749644 0)
(1.016646631698974 -0.01679620248947417 1.031354418637362e-20)
(1.023643009142908 -0.009184114840213175 0)
(0.9925274201289912 0.01338554782080683 -9.913532267262145e-21)
(1.009101286675283 0.001724302568711405 0)
(1.133197923731885 0.003377715520985631 -1.169023578214832e-20)
(0.0341457865727034 -0.143185815520597 -3.805775960493195e-20)
(1.03469486050074 -0.01857022877139092 -5.787819018436767e-22)
(1.041572450438373 0.005631039718596432 0)
(1.082093832075446 0.07001680465766649 8.454576879599898e-20)
(0.9671427405603378 -0.001927850702145319 3.108133588217266e-20)
(1.020140754510469 0.01667420218729315 -2.271963382690939e-20)
(1.003730658945711 -0.002844429805126253 2.429261324035561e-20)
(1.038980324760493 -0.008080181584439912 0)
(0.6408930479084043 -0.004072962432345581 0)
(1.025883738091621 0.02452708247283587 -7.742978566690939e-20)
(1.088042818635461 -0.004811824816870163 5.036845280880719e-20)
(1.014445297503556 0.007564691132893864 0)
(0.9797335106423325 -0.0009452398961145617 -1.950735673481833e-21)
(0.8570630776123217 0.008739349931116311 -9.63433617321066e-21)
(1.014005396519172 0.002596300925945393 -9.598619496469261e-21)
(1.022262011173124 0.004692987731010312 1.885276490703556e-20)
(0.9842402597338675 0.003540463067771588 0)
(1.006105232342349 0.01190383057092962 3.287235003171325e-20)
(1.111130575222887 0.0003119445293479359 0)
(0.9312615691284813 0.01005848055760797 -3.096647911439987e-20)
(0.9543294304060175 -0.001171556030237553 0)
(0.9052473924226734 0.2040379278331376 4.99726014108632e-20)
(1.010980575152023 0.06714615541026119 0)
(0.9915825786055786 0.005002018281393295 -2.271482078320773e-20)
(1.05920576902105 -0.05070826870157879 -2.860227046303815e-20)
(0.9935330754343601 0.0007622490003551644 3.260712170577846e-20)
(1.008039746182337 0.007126332751531969 0)
(0.9793609853312893 0.0008822320692547759 -3.021905065603991e-20)
(1.175753890710087 0.1042011958052025 -3.424021703900611e-19)
(1.06932349731211 -0.2649445693564111 0)
(0.9936502138093466 0.0003493993122821918 -2.275168983127209e-20)
(0.9732875091505884 0.001205868018252929 4.846307471395519e-21)
(0.9620799909869514 0.001076601706401854 9.993740792374411e-22)
(0.7459526470228496 -0.001048330727397003 0)
(1.123268806192313 -0.07319631476641898 0)
(1.00272852087331 0.001403024747063185 -2.27358476066931e-20)
(0.9098656127629081 0.01246911002503187 -1.027902895882638e-20)
(0.843818664325983 5.654108398945971e-05 2.789316487171981e-21)
(1.013750849484384 -0.008904751870055664 0)
(0.9601138095773906 0.01397643879114858 1.42942205812229e-20)
(1.00556232926874 -0.0002180780660825335 -2.257492017738407e-20)
(1.024985092583035 -0.003454545169284649 -2.511163760270256e-20)
(1.115012219722178 -0.002080907071884288 -4.924703260818958e-21)
(1.118351498287002 -0.002626666127256469 0)
(1.011366717086115 -0.005358502087755877 0)
(1.020752973745776 -0.001651977821417893 0)
(0.9422890045330758 0.002322826933479512 -1.970015773591319e-20)
(1.01785377581443 0.01353501038137883 5.542643057464746e-20)
(1.087566534524569 -0.006237130027763714 -2.330545519651217e-20)
(1.039942000576754 -0.007756598819564384 0)
(1.10849713777543 -0.002459479486074801 1.84885428293608e-21)
(0.9940992367697308 0.001659380496740344 -2.243785644668335e-20)
(0.9825619748793248 0.0006370385499382068 0)
(1.010181857305259 0.00295484640835494 4.678935539336047e-20)
(1.365321896656075 -0.3144295474861517 -1.124691308743629e-18)
(1.121290752331268 -0.04352554610288033 -1.101410044701761e-19)
(0.9678467200235237 0.007679452023911643 4.41458816978586e-20)
(0.7644388984930046 0.002685544680527229 -3.392067399728816e-20)
(1.224048373029442 0.05143710555316711 0)
(1.22028865054552 -0.1263916316053194 -1.477707364558071e-19)
(1.083396377049406 -0.004040884511337523 0)
(1.008236947314804 0.0005511837892197728 2.299954579225627e-20)
(-0.1963123710625812 -0.1306632371368076 0)
(0.9939673981805871 -0.004659790440761102 0)
(1.012370418317866 -0.02307263767739685 4.144296750272332e-20)
(0.706435980238418 -0.01944854193810487 0)
(1.096787167450858 -0.01481689343691709 2.247821270002874e-21)
(1.040563199415273 -0.002290853315542228 1.681192013182089e-20)
(0.6332302357786094 0.004122182437021565 0)
(1.448168292228523 -0.1238571650597347 0)
(0.9859261449944041 0.001670391474606693 -1.069177672972126e-20)
(1.069746444638476 -0.01509554859676255 0)
(1.037776737265344 0.0004493483078166207 2.062947177940346e-20)
(1.081942621745763 0.002567807786020695 0)
(1.012263768710844 -0.002655191700968607 -1.135419031728415e-21)
(1.005844505101512 0.003221059064921572 0)
(1.008024187052489 0.00150865338638789 -1.091251424785684e-21)
(1.004473988991198 -0.02060904108811609 0)
(1.036443726854541 -0.006394337621225901 1.736151849348303e-20)
(-0.1804872848778428 0.03266637125197034 2.755781172818567e-19)
(0.7982891973277421 0.0227821787864357 5.694792533863201e-20)
(1.005271153376349 0.001920714745456401 0)
(1.124840924799699 0.01005758273740513 -1.16603819496519e-20)
(1.114639541370272 0.005746877970585693 8.901466807170115e-21)
(1.054474221522917 -0.01276438797623475 -1.315198098093032e-19)
(0.9987755223537494 0.01038510703679305 1.503149345698186e-22)
(1.081177469015203 -0.00288881887488537 0)
(1.188773001394247 0.05237150563163995 0)
(0.8352148128772157 -0.07586563887713133 4.599879370631732e-19)
(1.089689526157373 0.0002226978174385878 0)
(1.033913841625785 0.007599080868242697 -7.617139129615199e-21)
(1.04244940151279 0.005277260050378974 5.748727940625542e-21)
(1.055180285115079 -0.05894956707046371 -7.604980451570637e-21)
(1.139245925979096 -0.001335743531833285 1.706095348625618e-19)
(1.084903968181214 -0.001094340518295154 0)
(0.9941595372082489 0.001772705880095175 0)
(0.9973420117933057 -0.02680776834567781 -2.431266000731049e-21)
(0.9901790052667727 0.003544842455922132 0)
(1.031329871704631 -0.03721108550823456 6.483681109213413e-20)
(1.290648100246396 -0.09581229077852815 0)
(1.040518749613038 0.002407621515433849 -4.622551685951667e-21)
(0.9861816395812132 0.01697371544516202 -8.905097291346399e-20)
(1.032868325902096 0.04263005065176739 -2.348952577564705e-21)
(-0.07385072146532735 0.170868693902246 -1.723750657878727e-19)
(-0.07116628442484768 -0.2946819541588731 -1.30325076638707e-19)
(0.8926844090642161 0.1290269630919174 0)
(0.2818587609881902 -0.03530057923801681 -3.170413520963477e-19)
(1.005731898044863 -8.360173942476996e-05 -1.089176867297387e-20)
(1.063880492991896 0.002726532162722983 -2.076399206681793e-20)
(0.9914858545594165 -0.02094990106832127 3.101026367095419e-20)
(1.025050493304872 -0.03158592688609866 2.68482911697351e-21)
(1.010207714426141 -0.03125293824334672 -6.669680909092412e-20)
(0.9888714502098641 0.004842164454939507 -3.484075669048686e-20)
(0.9933054014099477 0.005210866685572397 0)
(1.024789701761629 -0.002349804608361687 -3.46903049658266e-21)
(1.934647572512778 -0.1563921274765557 1.070513579961431e-18)
(1.044213197839616 -0.003743210911494348 0)
(0.9962326762716263 0.008391784914385256 1.507877249189563e-20)
(1.003611706486081 -0.0004761338687570166 4.001916785253715e-20)
(1.163332780717645 0.1574541210018018 0)
(1.002221273437263 -0.01201671181676264 7.664669439437041e-21)
(0.9517731666891712 0.00305023036912516 0)
(1.037839461385595 0.04174608283279355 0)
(1.307267155224648 0.1542492053897082 2.294726245861994e-19)
(1.079162829805379 0.0006911286685749398 2.329212461637077e-20)
(1.016342093727642 0.02988907516014862 4.497790964734364e-20)
(1.082434091703233 0.002564851073027629 -2.243536580460765e-20)
(1.053249251636604 -0.01821002664497502 -8.280457060627144e-21)
(-0.3875867327941874 -0.05036965913551542 0)
(0.9997994271931271 0.01308304876736163 0)
(0.1179061491341344 0.05341865158695963 -9.363805746015553e-20)
(1.006572324003582 0.02023852816955068 -4.032498441971619e-20)
(1.00480586062045 -0.02615312240296749 0)
(1.00142094595107 0.005352739508557644 -4.890731047368054e-21)
(1.082031012505561 -0.04247426836421943 0)
(0.9938715221220586 -0.01789713159391601 -8.091651642934293e-21)
(1.101941645899589 -0.05592212775102252 0)
(1.444751221753084 0.171714403313673 0)
(1.054907996406513 -0.01210925242932795 0)
(0.9909467135135724 -0.02497917667533226 -4.166128700610019e-20)
(0.9985941687852551 -0.03423422214572801 -3.506028428689142e-21)
(1.014791161382867 -0.02129850181773581 -2.078296882804145e-20)
(0.9966053964349801 0.01669573308732338 -5.472134331805175e-20)
(0.996090603731857 0.01001531231243936 -1.469533855465357e-20)
(0.9952361794422889 -0.02838820927865549 0)
(1.0020379573379 0.02370549395999213 1.895333925708108e-20)
(1.05172853034215 -0.03009867242643235 0)
(1.111249370158775 -0.03607297094901411 2.564585319043252e-19)
(0.9955431762076611 0.01657772794144653 4.51310233329452e-20)
(0.6150352575026539 -0.008693612211716974 0)
(1.149077532757978 0.1628229652482536 -1.52576907298475e-22)
(0.8370763421048498 -0.08131889023986 0)
(1.138064365147926 0.07279545797926357 -2.762894718597416e-19)
(1.316152790355047 -0.3893255793675139 1.287866522202342e-19)
(1.069023640430079 0.06540419156018543 -1.238183121890051e-20)
(1.01174821413825 -0.03154108336569696 0)
(0.9558313841039658 -0.2158882094197681 0)
(0.5395518794425023 0.1730476069114975 0)
(1.016354478903274 0.01148566142214968 1.179542922239611e-21)
(0.7005663249735513 -0.02224369393492027 0)
(0.9993463419601206 0.01643865314367228 3.472055713076499e-20)
(1.027476640593596 -0.002894890626397264 -2.722699837344283e-20)
(1.078970170833116 -0.008052792361235095 2.672685073223061e-21)
(1.053563963646927 -0.02800920217409236 2.689411658365892e-20)
(1.042695322595494 0.01173922896943127 0)
(1.060820994931386 0.02057216900753532 -8.62761439470939e-21)
(1.049959460540558 0.0363574440549556 -1.786982887905113e-20)
(0.9837431804940443 -0.02265910905058878 0)
(0.6248896677102076 0.005101460274001698 9.168869873373049e-20)
(0.8941534216819993 -0.005937182982855839 -8.84440838404097e-20)
(0.9093712694393256 0.00524423380729945 1.451763898633716e-20)
(0.6296266213946418 -0.006441568935261108 1.409093600632299e-20)
(0.9809659325686475 0.0005461794597001487 2.468226728733934e-20)
(1.004417143139746 -0.01748785887233407 -3.411900332043324e-20)
(0.9843585291784152 -0.03589199443407868 -2.900221472428684e-20)
(1.085623178602053 0.00163901478419558 0)
(1.019748520776262 0.005252051818355738 1.025524846641055e-20)
(1.132390748568014 0.04858020924441185 1.33407055728045e-19)
(1.031031322487848 0.04162128288793749 0)
(1.022661571640371 0.002573426076712698 0)
(1.584357056153651 -0.1681008272483511 4.382140665162582e-19)
(1.058869355216931 -0.04414026742231654 0)
(1.018994971946138 0.01051250004551256 -3.683555003747696e-20)
(1.082216009289743 0.006410090325411399 0)
(0.490888415119525 -0.001892861232616337 0)
(0.00880513221919299 0.01755102056745306 0)
(0.9913592705483606 -0.02389017251441113 1.244832661702766e-20)
(1.30180347666668 -0.09646834819023155 3.701255318827835e-19)
(1.031568269758588 0.0352926935606348 0)
(1.022394453120574 0.003572310147905203 -2.196416991507687e-20)
(0.9382946534436399 -0.1604745214707247 -4.446598512845139e-21)
(1.256994735694817 0.07587498844152288 0)
(0.597211245436337 0.7288997208810089 0)
(1.310505557077452 0.1428733690191849 1.054919243169862e-19)
(1.677305556775253 -0.026227325734468 0)
(1.055897220908246 0.1266077405311281 0)
(0.7180798169998364 -0.01313244286920928 4.118225586888566e-21)
(1.046583155833908 0.04501127304303955 0)
(0.758447207585796 0.1227937125047565 1.369357859931277e-19)
(0.9967924800561426 -0.01639673385639427 3.577979293466512e-19)
(1.039063911448113 -0.04073151433152267 2.765488786907297e-20)
(-0.3792565651634912 -0.04226438816136351 0)
(1.072307630847572 -0.01631081152004772 0)
(1.084029755986402 -0.006978046728428147 0)
(0.6489136322145861 -0.5046919850089197 -2.474974158877153e-19)
(0.9895699460403798 -0.0006731856564600818 0)
(1.092426656601605 -0.02164765303266352 6.012896232752267e-22)
(1.187487568594215 0.1208487195435488 -2.027101047679921e-19)
(1.098631973703862 -0.04759891771833497 0)
(1.006119076130043 -0.02090432146967181 0)
(0.7723094390066152 -0.1847501689638192 -1.624211925431341e-19)
(0.8812103735598019 -0.1361623757245366 1.468676175715326e-19)
(1.033317422071816 0.01415954330561312 -2.097646592911929e-20)
(1.023125800158387 -0.00898017655705865 -4.402543292930311e-20)
(0.8772672553881995 0.006723505861217141 2.837491616973805e-22)
(1.505662018015405 -0.1947080681692215 0)
(1.308884583287647 0.113114932594304 2.971569556407967e-20)
(1.24132243575809 -0.07554234608219577 -3.294830755160935e-21)
(1.095737725820648 -0.01862036381846038 -3.991741381647897e-20)
(1.035191832163127 -0.0161096749887845 2.94990499126963e-20)
(1.092827634387208 -0.03908321044539987 9.413931689607702e-20)
(1.031970090094709 0.02064796737984553 0)
(1.050354601171708 -0.0367296376314317 0)
(1.115930971880381 -0.008959528114546429 0)
(1.098736167231268 -0.0415785370107217 0)
(0.9982841088587167 0.01097942257050706 0)
(1.151860024976181 0.08163463976357417 9.495366547913478e-20)
(1.339380081972535 -0.1565975682013804 0)
(1.037948778050981 -0.02752367389414229 -2.556501301017272e-22)
(1.047692173695443 0.05284766692940002 0)
(1.010217010966281 0.01425406431362062 -3.842027886876216e-20)
(1.033723525819745 -0.007424798316873182 9.28570803591654e-21)
(1.088942555747808 0.01344788440051795 -3.205161837229534e-20)
(1.084803442086928 -0.02812078859661552 0)
(1.071031090725173 0.004000592731854703 0)
(1.103780758451412 0.09308440213791377 -1.405793343719193e-18)
(0.9353906149480048 -0.1498907142341734 -7.086712593572325e-20)
(1.174079175850342 0.1175936672843397 1.149484104304427e-19)
(-0.4636016486385235 -0.02417641816273955 -2.906453739253948e-19)
(1.017895852208122 0.02932781799947505 -8.663510975299067e-20)
(1.00629617395305 0.003380376501445376 0)
(-0.248021615645611 -0.005087987513392232 3.568005482400001e-19)
(-0.03316771619523193 0.2977915590102221 7.437536931768032e-21)
(0.9952092209618203 -0.00626910880671719 9.281620123958912e-20)
(0.1837689248328154 -0.04503843378826885 1.296038676048167e-19)
(1.084949106417313 0.08847684643117897 1.409577952170171e-20)
(0.09364649475418975 -0.110776086958297 -5.462888900877012e-20)
(1.108419514423016 0.003028672721748286 0)
(1.097738099146065 0.2513203144837821 0)
(1.021076630583651 0.02149000068613371 -1.695790529860975e-20)
(1.062682689742176 0.05337625556178919 0)
(1.025770637614825 0.02344417288374978 -8.361067312740686e-21)
(1.263275579313718 -0.5490946529561198 8.024816239987318e-19)
(-0.1112465547567861 -0.2409090621480359 2.112198278234206e-19)
(1.300939046118377 0.1130114706560618 -6.196620094356404e-19)
(1.122557318415824 -0.001589575296668768 0)
(1.123244476824925 0.1060821259457016 0)
(0.5225121278707152 0.07722017529025718 2.428259110377997e-19)
(1.023560263878723 -0.02024747646719021 9.514570275771181e-20)
(1.00640792086692 -0.02322184356863422 0)
(1.211034326837211 0.2703949535387972 -9.685989493281816e-20)
(1.260158944394915 0.1279782336829101 -1.523600854643873e-19)
(1.026547671778367 0.003240978475630828 1.57418972379301e-20)
(1.298745191509971 -0.08513676611312646 -4.973607724584392e-19)
(0.3044466312201873 -0.02143589878329671 2.883213371297616e-19)
(0.8312884020823024 -0.1487696686596977 6.86037151046013e-19)
(1.040472516528531 0.0546103605286361 1.097623066093032e-19)
(1.03822748219654 0.003533696821872407 1.637588157200435e-21)
(1.000934590004671 0.0191707787864022 2.884432492657337e-20)