/*--------------------------------*- C++ -*----------------------------------*\
| =========                 |                                                 |
| \\      /  F ield         | OpenFOAM: The Open Source CFD Toolbox           |
|  \\    /   O peration     | Version:  2412                                  |
|   \\  /    A nd           | Website:  www.openfoam.com                      |
|    \\/     M anipulation  |                                                 |
\*---------------------------------------------------------------------------*/
FoamFile
{
    version     2.0;
    format      ascii;
    arch        "LSB;label=32;scalar=64";
    class       volScalarField;
    location    "958.5";
    object      p;
}
// * * * * * * * * * * * * * * * * * * * * * * * * * * * * * * * * * * * * * //

dimensions      [0 2 -2 0 0 0 0];

internalField   nonuniform List<scalar> 
808
(
-0.0344405922111185
0.04428608262004636
-0.01118676404492951
0.03651280587993243
-0.2992052562907441
-0.05537993521985236
-0.01528221203319752
-0.02409900915090347
-0.1969938188698325
-0.08409479154709459
-0.01054758621447656
-0.2541385821319433
-0.03065631685500091
-0.01369321299526783
-0.1204549181261572
-0.01417430304747917
-0.1370688617443195
-0.01369012372240774
-0.01247822903979751
-0.05572093105909692
-0.007285422633393746
0.1174904504256553
-0.0622767514683087
-0.07183320674186469
0.1755231054461291
-0.1000383902203086
-0.1526049119253248
-0.020402247097279
-0.01747713118943961
-0.02566177807506059
-0.02030531225050635
-0.05854494230898871
-0.02275458347212554
-0.01686636451182422
-0.09981039693856407
0.3444896780493376
-0.03941761389287955
-0.01643921592363226
-0.02281114042777097
-0.02649727389608552
-0.09053841918968185
-0.1268713739057939
-0.05195302860459614
-0.02123024383748333
-0.05411108552293713
-0.04132423959737581
-0.01202004988106357
-0.1846581758840393
-0.02699193431941367
-0.2043278016052428
-0.01690510083008925
-0.06737562379251409
-0.06078727846175509
-0.01438413965270485
-0.193342744502029
-0.02827777025865281
-0.01053065186124169
-0.01404833492737203
-0.1005173400254185
-0.03973958593483005
-0.1110118439283992
-0.1261563171994529
-0.01416128661210814
-0.1295358640370223
-0.01746938627835298
-0.05174137083315697
-0.1653730934832436
-0.03546334559431863
-0.01511035908180748
-0.4406883106689831
-0.02645482822228943
-0.3016862309611041
-0.02160841269443048
-0.02098927287045085
-0.0651431313767894
-0.01781755834157756
-0.04252460823607897
-0.3623708849022783
-0.03618152763207177
0.04049399148396265
-0.09121234343540464
-0.01695531566640549
0.05711290162711968
0.04483986577445329
-0.0171307405651394
-0.05224398435532129
-0.5420081174231065
-0.2261712539032098
-0.05218618571249448
-0.1124687181504284
-0.05666739577115489
-0.1328888166566375
0.03941852054708678
-0.02532198914695498
-0.06186742968826584
-0.1215483773871787
-0.03830321720111281
-0.05176419378217303
-0.1164324133300924
-0.1403233776505249
-0.05278967388279412
-0.04731664135515606
-0.0544387717358437
-0.04479266910468329
-0.05737936006558531
-0.07457281561728515
-0.03990685576374718
-0.0107411888020442
-0.04021716173311688
-0.1241665176173034
-0.05033254862380293
0.08228835161873699
-0.04233512483461734
-0.007663856985207644
-0.02761181845716174
0.1806219301892694
-0.03880567541329871
-0.268624238523469
-0.02065794380094287
-0.0536117345952967
-0.03916275337416918
-0.04888337273877006
0.01348331591576435
-0.04874034702359724
-0.03551992066917203
-0.2172651982885017
-0.04129210516143015
-0.004451060975543391
-0.07599464954637507
-0.0688527329075061
-0.1522443354669562
-0.02123777266369178
-0.07535060097823142
-0.04279894394842737
-0.02299094730203353
-0.01561824057456555
-0.006050422984329249
-0.007621119553895081
-0.05234722704866025
-0.04977004448485326
-0.2106549292372173
-0.05662479887494778
-0.008304934574602695
-0.02219819955499709
-0.1473179745162975
-0.002065635713951581
-0.07636605492558121
-0.02219641555402539
-0.0001999141581282465
-0.01009029326407313
-0.03324882514834888
0.09434884892271332
-0.03871737630804
0.252158538513315
-0.258759169290291
-0.1324135807498652
-0.03776531152368828
-0.09074162785426483
-0.009006628644631623
-0.1134821530795704
-0.1727265550081908
-0.2126922292740479
-0.1814355620548826
0.05630174448917298
-0.0630482899783353
-0.02050196813483454
-0.06689243227419404
-0.1741535821023463
-0.02335554716946357
-0.01875403552421078
-0.05200938119303314
-0.01954150875054497
-0.006984988641234466
-0.108106164934491
-0.02335565658764249
-0.04522751145448996
-0.07013022507376887
-0.1615168987948205
-0.03328401619046879
-0.3884223999601256
-0.0178528436866769
-0.2255077778191809
-0.04429604973216528
0.03196517348504173
-0.1051225347377919
-0.01557627109864688
-0.04265648955033336
-0.1054382477299066
-0.0178401712592364
-0.09627227658195515
-0.2028399616233997
-0.07201035669973777
-0.02405833555528003
-0.04827240735517679
-0.04274754128487408
-0.2008754477308405
-0.02225960502682863
-0.01923147487096268
-0.0113146033401261
-0.05624185323637495
-0.05072854881407049
-0.02264643277422832
-0.02064235723930139
-0.2378092031818013
0.1274567005876867
-0.2044346882024178
-0.1960937680871643
-0.01172308471156618
-0.01140196085425021
-0.06695975769989926
-0.009906413062367225
-0.4989940932010918
-0.127480777445032
-0.01944777098454827
-0.001291630316668358
-0.02389189062219968
-0.2807859290271253
-0.276905794207529
-0.007504391419006232
-0.01793414272687224
-0.002192020245977202
-0.347726015091829
-0.02850669014348481
-0.02934392639386334
-0.01264841216228136
-0.01953221078753209
0.0495986318624748
-0.1226534263133459
-0.01400874477557051
-0.02086522153077448
-0.04440048396079968
-0.01834124059730914
-0.01634317740207625
-0.02346493636357904
-0.06743320934295317
-0.01130840863341795
-0.01894575009099614
-0.00888145373243461
-0.001329055508483329
-0.02937568516117689
-0.001950988834895432
-0.002057299719307144
-0.005873065288765917
-0.02552332456537711
-0.008111957794188173
0.001657037134268031
-0.004094017495918058
0.001183053540262401
0.002334794775258062
-0.008692322046225059
-0.131825708868326
-0.002956535284675972
-0.0002472879216913551
-0.04760094274402123
-0.02138087091642975
-0.02415066533288287
-0.01410045562314894
-0.006162092116367615
-0.02107510141070189
-0.03892926252344955
-0.01490574633652621
-0.01261749890346199
-0.01179939271809696
0.005710280569143801
-0.009766210034990152
-0.01306504804688519
-0.01131875529477038
-0.01026166418915805
-0.01006205046604675
-0.01092924032095924
-0.01372035252329824
-0.2967375129035292
0.05988347449412164
-0.0150987507490055
-0.01602026501397633
-0.01254105333491252
-0.01252170677229368
-0.008328045014470483
-0.09963969210946851
0.01096297931639031
-0.01430771955298163
-0.01415965774728718
-0.01070475158222027
-0.05194019167311399
-0.008184214090500453
-0.01396860103699166
-0.009476456228332174
-0.002397240914709536
-0.01072639286446595
-0.01048669257714891
-0.02448926496036857
-0.01586587522388712
-0.01237450915598564
-0.01336671095307136
-0.009753231280962138
-0.01327234836931887
-0.01093146504584133
-0.05876507051369449
-0.01314828636363372
-0.01216168521764324
-0.009037494803927433
-0.01527530036752719
-0.0141552862331413
-0.01571330783123926
-1.373370336424121
-0.09954216590565547
-0.01195424911162632
0.02293351954416356
-0.1635232838136181
-0.09385338044586222
-0.01181004123751771
-0.01420783956031185
-0.2475689387634142
-0.02936941155348867
-0.01893829230208995
-0.01178558222556967
-0.0202785284710342
-0.01106778424650314
-0.03074749953461811
-0.411376857598072
-0.01203783008286618
-0.01408162574057834
-0.004585310071466061
-0.01052573169003908
-0.009199452036747241
-0.01404655820264346
-0.008991483706376854
-0.02695261896602369
-0.01155833069645098
-0.1656745135824065
0.01885790521346633
-0.007532464580580991
0.003357374159394095
0.01192701472407867
-0.04833742985317759
0.02860702552249135
-0.0127522150354562
-0.1344694274929104
0.2825085748935745
-0.007965958206337293
-0.01332359278201915
-0.008124390491972092
-0.03335543409335649
-0.1243447644289795
-0.01339686530401234
-0.01211846984953669
-0.01749589490335809
-0.01358107622169727
-0.04137520210692299
-0.2174768569764178
-0.01006622767700887
-0.04261689660590948
-0.03891846426577573
-0.1744799222500113
-0.155156693032107
-0.1551436846490708
-0.2480585392421174
-0.004038361024085811
-0.02091757308354613
-0.01535147430505996
-0.01364942611020816
-0.03335366427707218
-0.024442873999061
-0.01415720582165579
-0.01498787310892885
-1.075486572219795
-0.003085875599274328
-0.0136197418398389
-0.01812490293036695
-0.01818208982459008
0.005720958794923975
-0.01400269381744416
-0.02642746164917679
-0.1619359158203186
-0.01356490081689265
-0.02128134125011424
-0.01448761554970841
0.001967677692641735
-0.1776064815565393
-0.01295453455469062
-0.1534713436977065
-0.01567104536419992
0.008501805229660842
-0.01408396651246717
-0.02382803159079756
-0.01625950075395712
0.007117446640877153
-0.2700128691637007
-0.02628564003370171
-0.01669632830147013
-0.01421831601803723
-0.01045556280973466
-0.02981405588429706
-0.01395954222635813
-0.02091436599436286
-0.02082302482591524
0.008429652370670318
-0.09907415907417064
-0.02154061350929854
0.009488125323069274
-0.05500626566641289
0.1710412982273728
-0.1049206360616274
-0.319271037413461
-0.02952478636942572
-0.02568845340944359
0.1501103846315409
0.09579237293092846
-0.003580105359535255
0.0523549364084329
-0.0154451741289542
-0.01364800409848598
0.002539810808023664
0.009629861056317138
-0.06579349447933221
-0.004646655358927669
-0.05660352051334142
-0.02300377589906883
-0.01568049882572491
-0.03650615306212061
-0.03293296942479834
-0.006681726731644462
-0.0145928504138948
-0.03782186315072233
0.03230577695426582
-0.03869823939187209
-0.01367958167716831
-0.1182342789639064
-0.03120998174073319
-0.03941710127860277
-0.6729750756208224
0.01415080003229664
-0.01097077533049013
-0.005426953792075164
0.1818561317208904
-0.09662739727090761
-0.03560928308144489
-0.2442674693074215
-0.01562107039897123
-0.01625552629408961
0.07038599847047271
-0.1828637192648139
-0.2271180121682227
-0.1896961939356245
-0.6809294194363738
0.01134516299982485
-0.01904970931750307
-0.01541809647173346
-0.09211365113790126
0.1182998815646047
-0.02183073436943803
-0.2475518465452426
-0.03580299191670543
-0.006761728459772388
0.2775874219292882
-0.01091295506261299
-0.09216962211450599
-0.1511383642885267
-0.004806252007633547
-0.04120989128595393
-0.04566596131407134
-0.1978910108809609
-0.00831217596143289
-0.04084754812229935
-0.0035346999597149
-0.5475317425985755
-0.196849294156427
-0.1771971751611275
-0.02335128978241652
-0.008365607322180038
-0.06119473142184167
-0.05718416449415913
-0.01605318302463513
-0.06874946186708426
0.003916287137232894
-0.01785610503049643
-0.09563875353390906
-0.2730773783508382
-0.009459408960397353
-0.02524281138725194
-0.02157831869157544
-0.07550571868481722
-0.08989576414199238
-0.08893347890676064
-0.01114492477647469
-0.9151522412765417
0.1614229047494653
-0.08270095709837975
-0.2534002301620524
-0.0418593427927435
-0.009426146595089092
-0.2460038421985487
-0.190427367745222
-0.03188596199987332
-0.1165045066496246
-0.01781120249713566
0.5624824236142129
-0.02469273014934138
-0.2174608188253765
-0.02549818091922067
-0.00416154254680086
-0.01119452079487643
-1.251135181434917
-0.1828599254634844
-0.2299805944569677
0.005323697893815969
-0.03867605268845139
-0.2388361868418349
-0.06640908350440131
-0.05167907852669401
-0.1439871137674463
-0.1868948641967995
-0.06908749199544939
-1.221724520188934
-0.1560883180093234
-0.5336328270531019
0.07889742395703066
-0.006660981533750629
-0.02138574333893642
-0.04381087870372428
-0.03921679823178931
-0.02805603428709926
-0.1310844079044262
0.08075400240791074
-0.004481414944757554
-0.009770310482493791
-0.5682270950669718
-0.855126174301722
-0.1797529352929982
-0.007712590137991128
-0.1256402839077166
0.0006665232800581629
-0.0007584839015410074
-0.002627405920288638
-0.06141167804368433
-0.2358025057629324
-0.01340042211508364
-0.1132806861457913
-0.1549352053153623
-0.01314209148685307
-0.03499974149761446
0.02600877033567518
-0.05821667440192742
-0.07110198470344226
-0.4966077810543902
-0.2401747312153414
-0.08047831871988209
-0.07422113305140922
-0.01952132135234967
-0.1126142960704966
-0.1628897683595476
-0.08093175943026178
0.0269178868270517
-0.08606640514961406
-0.04940722854361108
-0.01495434798389048
-0.114884154684219
-0.2778724682078736
-0.05833303372825784
-0.01821423050055659
0.001842866269903735
-0.01022557856176628
-0.01074276267463885
-0.2314347790811616
-0.01413291366362707
-0.2193030414895538
-0.01080282021460952
-0.06795566325568161
-0.003738428510390625
-0.0232256720825435
-0.3869070936691758
-0.9198783926790417
-0.01125280801759108
-1.045635317299664
-0.6060999972760646
-0.01072799526996093
-0.6556036165386228
-0.1824667277982884
-0.004942486819754365
-0.1255487475158074
-0.01719738722249942
-0.123686969426348
-0.06596069272917611
-0.07650727145810289
-0.005606936776718952
-0.003520338764498935
-1.338844208562632
-0.01122457896972
-0.1900782100461353
0.0008477106586550444
-1.011570932220658
-1.240335287418793
-0.07976268425263219
0.01825590368590548
0.1645570076824841
-0.004963804377915217
-0.02296346997209791
-0.004355158772316642
-0.2428584827341502
0.3658871490991413
-0.04173402992925741
-0.2124987538084267
-0.01520177179061234
-0.6562828734075945
-0.07344257305760458
0.1903400281785894
-0.2974158546515222
-0.05047517252348438
-0.06973897426287531
-0.01578796955600225
-0.02149498560907612
-0.586529481114209
-0.1505784720696643
-0.09273714696235956
-0.1202409261571918
-0.5540328156332031
-0.04497938249579475
-0.906719674409029
-0.001040496317705982
-0.2414314211873219
-1.048742133386252
0.1690984115193364
0.2916121788658148
-0.1719697690050052
-0.1913650636603628
-0.2095135847321086
-0.0670518903734077
0.02497292015184948
0.04915003650845232
0.004939230326589436
-0.1550770681858806
0.02546359227150594
-1.359645878661301
-0.08637683773745727
-0.4760803008844855
-0.3316924885608047
-0.2145775202853271
-0.178244939007024
-0.01696590831846827
-0.01537791253219634
-0.09566479292406731
0.171554360934682
0.3853260330065805
-0.2170341495031315
-0.1527364137277336
-0.2320598194680639
-0.06317389304218654
-0.1601199194252006
-0.1693734047970133
-0.1267120091697426
-0.1118209022357192
0.466638339497856
-0.2781034955595835
0.4308011439122774
-0.5935873871778719
0.07185552388046955
-0.1937899114769078
-0.06718322662108653
-0.07582850036895718
-0.8864868595875007
-0.2212048237893797
-0.1909116851474492
-0.3515352131575698
-0.4625436500282494
0.5702022665889203
-0.2080857261891347
0.001579346436369482
-0.06899373146592168
0.3437894856990923
-0.03606173215029459
-0.1195476740694824
-0.1800278486065842
-0.06468765760847406
-0.01637510764616135
-0.1958051642708139
0.193295005154323
-0.01259031177958606
-0.09770871870790122
-0.1727065891862111
-0.3146381068733797
-0.3104671498497525
-0.07890144401548267
-0.009825510613083501
-0.07588989581718651
-0.6545059232339617
-0.6697364194437042
-0.3292614213567334
-0.05861921884671896
-0.05058654464131091
-0.0247823404031379
-0.06905348073693697
-0.05620727742493314
-0.3645216525658211
-0.9581170194468627
-0.009010056128623746
-0.0843305018876484
-1.14005576585709
-1.036649552252169
-0.1055912674993955
-0.04011621147561553
-0.06879795977388356
0.3904532251284232
-0.3420690825654223
-0.05233128256772071
-0.6012981456070405
-0.1339363246516716
-0.2506449270796358
-0.2115786911197862
0.4740511728017027
-0.6321532082201927
0.07402616107112883
-0.02885875239603265
-0.5644256098880607
-0.05304863118246003
-0.3622442136864014
0.1077693872520259
-0.1920428264694526
-0.06080995270741458
-0.1278452124417848
-0.360999045775523
-0.0873115110361669
0.5142175656615618
0.08623151071525081
0.4708429614150542
-0.1239507767615116
-0.2036227525346691
-0.5139850838727635
-0.1318756080453083
0.02555469797074244
-0.05470480665398294
0.1018399802611049
-0.3074626649227927
0.2363829693647469
0.007266231458950084
-0.002962727228156755
-0.5111175427295994
-0.1835173587518442
-0.09866582417239901
0.581192198301913
0.1390802722349762
0.3461223433641782
0.2254907505099908
-0.5628795218042033
-0.214416962910517
-0.2182946031149128
-0.2336496087573469
-0.06143998524405832
-0.6915343222221926
-0.1928034619469904
0.3057104407049644
-0.2089094636513989
-0.0110972327858223
-0.1665211223979284
-0.01072311105419359
-0.1664949774486963
-0.4419426070320985
-0.07697972961498677
-0.2020138552875667
-0.07439033765585783
-0.1070402638712631
-0.1351440665397393
-0.07321852632647054
-0.4452951945275238
-0.4135164610372332
-0.02570404498979769
-0.07604277690595047
0.3269838696184015
-0.2498474180948388
-0.1755762433567108
0.5254843183096239
-0.1976517238209116
0.01908729279758043
-0.4522754753314706
0.04667187083605319
-0.06066605290250205
-0.15772571867615
-0.587553369519626
0.1612949948676974
-0.5785522554258599
-0.5371986857161405
-0.1044574584906375
-0.5092168837912977
-0.03658275968897201
-0.1522606995972222
-0.4111881388106027
-0.01620252842210282
0.2869569810201147
0.4896109178693906
-0.164097407891699
-0.006811531940403427
-0.07545423839614453
0.5252971694650465
-0.03262727779784057
-0.4425214396444989
-0.03205473036328579
0.4606294857575484
-0.01615231880590484
-0.5468316756119586
-0.239464397890902
0.1766306492083089
-0.3129031061144175
-0.1803816985511994
0.05075826281050906
0.03240467303900372
0.05544779547409583
-0.3019811479102852
-0.1575502453047532
0.4128518070904275
)
;

boundaryField
{
    FrontBack
    {
        type            empty;
    }
    Top
    {
        type            zeroGradient;
    }
    In
    {
        type            zeroGradient;
    }
    Bottom
    {
        type            zeroGradient;
    }
    Out
    {
        type            fixedValue;
        value           uniform 0;
    }
    circle
    {
        type            zeroGradient;
    }
}


// ************************************************************************* //
