/*--------------------------------*- C++ -*----------------------------------*\
| =========                 |                                                 |
| \\      /  F ield         | OpenFOAM: The Open Source CFD Toolbox           |
|  \\    /   O peration     | Version:  2412                                  |
|   \\  /    A nd           | Website:  www.openfoam.com                      |
|    \\/     M anipulation  |                                                 |
\*---------------------------------------------------------------------------*/
FoamFile
{
    version     2.0;
    format      ascii;
    arch        "LSB;label=32;scalar=64";
    class       surfaceScalarField;
    location    "1814.5";
    object      phi;
}
// * * * * * * * * * * * * * * * * * * * * * * * * * * * * * * * * * * * * * //

dimensions      [0 3 -1 0 0 0 0];

oriented        oriented;

internalField   nonuniform List<scalar> 
1171
(
-0.9279387502721634
0.9279387501943017
0.7873987683063165
-1.099041503624843
0.3116427349820076
-0.1922635952735477
-0.7649417068163243
0.9572053026678441
0.07206124012689592
-0.1167465087410982
-0.2121010178255742
0.3288475280599349
-0.78739878197504
0.06946417328106171
0.7179346087009855
0.8116255578913955
-0.1777346497128655
-0.6338909079077826
0.874402902706696
-1.043975789908239
0.1695728872404129
-0.2852391442365101
-0.0972662124935159
0.3825053569745453
-0.03596185942506696
0.5487643835426754
-0.5128025241940239
-0.5027977356383188
0.8246721675435709
-0.3218744326531424
-0.4019856505514526
1.046040968293588
-0.1716380635926877
0.3939259853611174
0.04781812750731969
-0.4417441109837076
1.046153964117184
-0.0001129954007407548
0.4436961398771565
-0.04977016682555669
1.0568372412147
-0.01068327768660448
0.5780545825935809
-0.7703181791011642
-0.7244331473494192
0.5569740616512909
0.1674590857348866
0.2203872998325225
-0.7231850354695976
0.5506373162827219
-0.9228852049351657
0.3722478884333972
-1.094165321967497
0.6864170606822911
0.4077482614819138
-0.5954778679666223
0.5595160087502109
0.01821510512617764
-0.2570055339423685
0.2387904268870846
-0.02400613399831174
-0.5211687364491376
0.5451748739991159
0.4003078602841337
-0.4975740707396675
-0.9188372713871577
0.9414362241452922
-0.02259895287930565
1.067501721739726
-0.01066448036611236
0.9349831876685744
-1.116763753480059
0.1817805659202837
1.067030645277079
0.0004710754148331375
-0.6644470513095204
-0.05998608815744017
1.262330370514037
-0.8642469174538946
-0.3980834529852382
0.1481933724816881
-0.109097447615098
-0.3264652148320661
0.4355626624880005
-0.285709225393016
0.1910322787619573
0.09467694731330799
-0.5835417641224059
-0.5154997315338637
1.01401291749771
-0.07902972847959602
0.00994215897818709
0.8254467505741242
-0.8353889096946175
0.5718845008942095
0.6904458672824418
0.4396669414009685
-0.03017343876802571
0.430481300447015
-0.8077663601159141
-0.1025286111396514
0.9102949713484861
0.5023597967784617
0.2536649731773136
-0.7560247701309939
0.005797759470403657
0.5269721156799625
-0.5327698735054165
-0.4898701874487496
-0.6042951318093249
-0.422831710412512
-0.6939320434063646
-0.02704671513902497
0.2700465177482811
-0.2429998026940126
-0.9247179283768481
-0.005086043588549173
0.9298039718636336
0.3085586956392347
0.07394666415902432
0.7621966719813981
0.04942888225391995
-0.53316631411886
-0.06231155139665533
0.04620562955252264
-0.8539719897317929
0.07481416290218523
0.8631303105070456
-0.9379444735553188
-0.3471087644649015
-0.04158028293136549
0.3886890461403861
-0.6821758700005455
-0.2425420642174252
-0.6323450721498064
0.7071592348937068
0.6110887722891518
0.213583394439308
-0.5429759668383519
0.9458940244643363
-0.7792690299385501
-0.1666249947275898
0.0194716081955071
-0.01845548008782148
-0.0010161310256935
-0.4031252932932336
-0.0944487788987126
-0.2409943330172154
0.8520831079453273
0.0463088740308165
0.3356950928299519
-0.3820039669784453
-0.4602515759024474
0.962611378152593
0.6802304481015496
-0.7827590599149556
0.3204767839258536
-0.017863621268964
-0.3026131675252259
0.9307153206155048
-0.9307153206326207
-0.7821260052801648
0.1104495814000331
-0.3225505994938283
-0.7500037267397478
0.7599458831272073
-0.08987500431638192
-0.1432354012046781
0.2331104046823299
0.8650088962379977
-0.03956214862295653
1.054182211153064
-0.8005172360201077
0.1860702500153192
-0.3155085416579841
0.1294382924161412
0.8593334968829121
-0.09713682658454977
-0.6117883428262585
-0.03905855791772905
0.650846900639204
0.123759665283638
-0.2311334240307533
0.1073737578483555
0.8057040349672758
-0.9834386901783227
-0.4354428291864121
0.3296802564800483
0.1057625736548409
0.5314095490232624
-0.5554156862385827
1.022000463940597
-0.456203799418932
-0.5657966646835402
0.5991687621301393
-0.7193958293387112
0.06687184550868774
0.6525239842610876
0.1033087352838315
0.5702054831335909
0.0551856675307964
-0.6253911506267344
0.1939891179136882
-0.08353952797144171
-0.4931676392944905
0.1460588690556248
0.0502927719453562
-0.8867462064719023
0.8364534345973619
-0.4733506014864466
-0.7134638555955819
0.04901680599189129
0.4370932273712206
-0.006611930176156143
0.299813737012566
-0.8552255969519265
0.5554118595734425
0.4157186564955682
0.584281343658873
0.5604641541215998
-0.5142585221086271
-0.3667856513893593
0.03522991599390433
0.3315557339949728
0.6813733201592385
0.2493419982472754
-0.5655095293808042
0.5713072830092982
0.1106280218939238
0.8751682212714468
0.01017362666578871
-0.621961968244777
-0.7492689328032223
0.799561700568112
0.5311469333859378
0.07029839222630066
0.3023557631378338
-0.3726541550073988
-0.1675549250108589
0.4417374414705896
0.08523469420787752
0.8766616564789648
-0.7999030500929877
-0.07675860654200559
0.6353338607453253
0.3105601579245925
-0.4301720074039464
0.5747680453798869
-0.5044696514265252
0.4172277283444516
0.1334095895897469
-0.04684200910445355
-0.5930040200267446
-0.1372801281497836
0.7302841483222291
-0.1497659965016086
-0.7809493271909561
-0.6109876429227857
0.360768893365433
0.2502187498368889
0.6221501702962756
-0.6119765412191788
0.2389725155556837
1.011229141802242
0.04295307472136128
-0.7492689406432028
0.231608191865653
-0.2121365812353665
0.6802304499593519
0.8019317939601869
-0.8019317940959145
0.8377294160768307
-0.8332915518066131
-0.004437864339706483
-0.4453909362074178
0.8611095975731687
-0.1474794231395207
-0.3456882179457179
0.7346984594545743
-0.6684549107204448
-0.06624354868079461
-0.7320649751341745
0.1390609521599595
0.1386847349919108
-0.671851048354637
0.7827590511507029
-0.9503139761069366
-0.367038234003047
0.2918219044821567
0.07521632216337733
0.1459664383200515
-1.009688118788544
0.8637216804940858
0.4812648089166011
-0.04159786750145901
-0.3081846680239951
0.586503556492405
-0.2783188883814129
-0.7384018742749137
0.8843683156234357
-0.1571188691357362
0.7329741820198591
-0.8434426664212209
0.1104684835635481
0.9765924536510521
-0.5412506535208956
-0.4353418003218475
0.7550897742195047
-0.06498790121372651
-0.03211941266743369
0.1867733727750474
-0.1546539587181689
-0.7757754080323056
-0.8455144692190105
0.08057276146887432
-0.7500037253691636
0.5137944798847274
-0.5553747683467858
0.09289030969809481
0.7201787659613227
-0.8130690757131207
0.7537068143359095
0.1742319236967304
0.5028881451439755
0.4971118548554301
-0.04957822930256538
-0.6090209042331108
0.6585991351050177
0.8840574280778218
-0.00739577175508492
-0.7550897742125537
0.7995616934520184
0.1910575640333355
-0.4480631008170449
0.01965687194200153
0.002651142094775513
-0.02230801559909113
0.5886982741492336
-0.4382900072416084
-0.150408266406653
0.7179346175498946
0.01240497618652194
-0.112540288602197
0.4370146266714959
0.1516836452721798
-0.01524938534696422
-0.00538068133748348
0.02063006815446339
-0.03222097849762122
0.0001015483112683695
0.2434756849687219
-0.261339313257298
-0.9590506731099638
0.001541030859399962
-0.1594889796427391
-0.1235625395309647
0.09441505396853848
0.7216170451474502
0.7290557572369381
-0.1447744073284368
0.6665349267189772
-0.5736446183571922
-0.2117192320231692
0.3977894695035821
0.6954487870882283
0.02248583043802113
0.2416585119972936
-1.074950070935136
-0.9503139740382808
0.3019467621984169
0.7599458818881327
-0.2086724587227154
0.06543705199498523
-0.7231580767651766
0.9105731101105669
-0.1874150335865959
0.4158626032509177
-0.02717356042318546
0.7714655254085603
0.2806041637793533
0.3723805244579742
0.07131562912868972
-0.6586885049055429
0.6586885049281095
0.2146064835536525
0.6956884892472863
-0.0552260857322492
0.390921184453822
0.3803365800270518
-0.01580253444259571
0.03545938304735227
0.4492839796588693
0.03198083104577557
-0.7384018719784432
0.5341169007209926
0.2005815537816839
0.3053563905725651
-0.1185830271598874
-0.6954487935589514
0.1802541030610835
0.7303190101280523
-0.01014290212815743
-0.8137313132750461
0.8238742154931573
0.696283563389539
-0.7921105132274896
0.09582695000789515
-0.7537068105008244
-0.1494952684626563
0.2107868622540435
-0.06129159286559003
0.07711479182916472
-0.1799812206579554
-0.1117299497812815
0.291711172340633
-0.009883199209134066
-0.005366177117172389
0.7063883475931001
-0.7165312510899359
0.8848606807008934
0.07234462097437885
-0.3111917860994261
-0.5203838090937151
0.8315755957800326
0.1025567286575565
-0.1025567267280909
0.327051814005936
0.4789130106207614
0.609436258317533
-1.088349269368938
-0.1941492253503193
-0.5856094359299275
0.7797586613090077
0.01214542896671134
0.2209649693729084
0.3772078958807349
-0.2534482265525592
1.013094465738397
-0.5341814562472157
0.6646680783656325
0.9933997560976394
-0.3839634999317882
0.2297284745057065
0.8843683198979018
0.712730255751278
0.2136828477288811
0.727753375512264
-0.7809493287497417
0.3413115063426718
-0.279629187762558
0.2490711709128148
0.03055800941882783
0.8510303581086213
-0.01545861460143088
-0.8355717433774036
-0.7020469776261713
0.7025180525865397
0.5546090676411579
-0.7020469778536665
-0.7127302558019992
0.7025180521703331
-0.03409998374282525
0.9036619422687736
-0.01880125803029935
-0.6813733162052458
0.6123114992801363
0.06906181689225757
0.5388991945262182
0.5379139633447335
-1.076813157795933
0.4915621520070697
0.521532313319377
0.5449318381379403
0.4596215346350618
-1.004553372857912
0.4983364843676177
0.4950632710950977
0.6123114969201282
-0.525645800130252
-0.4657177374444736
-0.5558397481101994
-0.5186590760996058
-0.1232639027444205
-0.01244110903710579
0.01244110960203556
0.510874715287655
0.5234318871481191
-1.042090963408072
0.5750572510625022
-0.2727014886984404
-0.8844596859315879
0.3432090310930464
-0.6327577919712822
0.3902157236436042
0.0007898302273211406
-0.8305954616282443
0.8298056311186457
0.4208710926408374
-0.01984622868437372
0.8708765882473886
-0.9435368599688344
-0.8354067299431063
0.0569714170654366
0.7784353126401765
0.5526372368104214
-0.4363846451316586
-0.1162525911533059
0.6499425375929232
-0.7289722674094783
0.8832593474603326
-0.8309662977946225
-0.0522930497721437
-0.01034165679587692
-0.7895613938297836
-0.1102371968146461
0.7160748849462254
-0.6058376881186488
-0.9381048558781586
0.9277631987687522
-0.7358369543017513
0.6902845140117528
0.04555244015100821
-0.8039370879143695
0.032803960694271
0.7711331272709657
0.0616412772536095
0.04091544857171121
0.4332233264892625
0.06027751460160908
-0.8500286168463067
0.7897511020399489
-0.6427910021366668
0.5932127721845647
0.8909594992819181
0.07087204669782074
-0.9618315463823058
0.05555276552922245
-0.04838047835997818
0.3799362019259137
-0.3812565890064517
0.06574803417798157
0.8416714718793025
-0.8408816415607295
-0.7315924647521476
-0.8075622608117237
0.01800086569553817
-0.1672834616564675
-0.850100923041836
0.01913462460682618
0.6253684727723074
0.04116645847681495
0.02136440241649763
0.5312728278581228
-0.8098006943971103
0.8426046584033192
0.5657966593176431
-0.8504416883795985
-0.8672328125858697
0.03642912978909857
-0.03926481033498803
0.8363986084002212
-0.7971337980927825
-0.02029529305728864
-0.7708572731720782
0.5443339764505915
0.1519495896024353
-0.02659791675576022
0.8974745057654252
0.9847346129210008
0.8606930998345022
-0.8415584755772743
0.1473182559463396
-0.1473182586373766
-0.1184010505888606
-0.4756375608304488
0.0392529090539975
0.2713759437169179
0.03057081861838085
0.3847855129290337
0.8771792143225281
0.003294642792388807
-0.01317784128706261
0.6586179214775765
0.3413820785495051
0.7834923024349907
-0.583541764480906
-0.7780313948005877
-0.8125924076564794
-0.6799190971071288
0.6799190970687659
-0.1678506563315922
-0.1546999341406739
0.6014847033664219
-0.8117761165105398
0.2102914131251889
-0.4937576283954952
-0.568944130434638
0.2782067019436273
-0.9721387432963049
-0.9004678791689994
0.8481748279799699
-0.8193159948119804
0.8373168612109199
0.648583872014577
0.1345519611494282
-0.7831358331270881
-0.7670399702000666
-0.1459886851740007
0.7248573609073702
-0.5788686755618903
0.02328866468276123
-0.01489914588459452
0.01790482591905998
-0.003005678837063962
-0.3543446975049877
-0.1212928621635788
0.8796914079411601
0.7376812942351516
-0.2399758288796665
-0.4977054642559628
0.6214286884175846
0.6853374638840457
-0.4707309816938208
-0.0007555543091420577
-0.2849536754024394
0.02245524555652105
0.7439197104782239
-0.7663749563094148
-0.3235548693589776
-0.0714837132854584
0.07550447362312203
-0.9623350928755996
0.1267633511723652
-0.6772241515327638
0.05286966122734202
0.6411101395831039
-0.6939798005837519
-0.7569802324261086
0.07975608080164436
0.5889882139724317
-0.6604719272954674
0.1559733228283832
-0.3359545411173565
-0.7718719483687718
0.004831978308865941
0.3712394220755308
0.6012034495625409
-0.02643540300846043
0.02430647918243579
-0.02430648224665603
-0.01782178782069134
-0.05283810026330045
-0.226791076007035
0.01883667004921327
-0.0155420581528044
-0.73070548947883
0.2793994643103468
0.6788172729373132
-0.6905390192085652
0.0117217463750167
-0.5984194841780702
0.6512891425074302
0.6535950854336356
-0.06460686901294613
-0.6316715849001824
-0.125308651457478
-1.049597376404039
0.01122301565482058
0.1360952309564764
-0.708250238925569
-0.7419087908990617
-0.7635510376626788
0.3654675813252066
-0.4112760517108472
0.4709280236409925
-0.0596519740481037
-0.6787550099080221
-0.02949522880618049
0.5000939266411375
0.7306791565179287
-0.2332583430688227
0.1096958074103403
0.9575031119722252
0.4457015323685294
0.1336145827915597
-0.5793161150666615
-0.678435107057406
-0.0003198977745084421
-0.04448878251817184
0.02958962430224146
0.6375696104320095
-0.7748497402520288
-0.002868560624015093
0.002868558448498091
-0.6001053407375174
0.648743287204297
-0.04863794583328993
-0.6570707098697073
-0.1136084998138676
-0.6717959444909933
0.04906273937018226
0.6095363938213514
-0.1373498209936539
-0.8177846368084684
-0.5561111725174503
0.5693880975716932
-0.0132769207354993
0.6341356548153313
-0.6224139107452613
0.3221976363959059
0.2140033393523297
-0.5362009758215907
-0.1043391770883035
-0.6030133532389363
-0.09096645006043703
-0.1544038091954587
-0.5070484318716311
0.4042912349573049
-0.4987400119182588
0.1261064522115108
0.6785312936885067
-0.804637746175902
0.5991687621129982
-0.3743664424710022
-0.03690959916847553
0.063263248942966
-0.5703116733135353
0.5517508454561318
-0.0403065184388532
-0.5114443273769201
-0.3122377370201041
0.3048343992875592
0.007403340131812033
0.4517237431100483
0.1233335133490538
0.05058172464211039
-0.3157862567936443
0.1567087527501188
0.15907750442688
0.2507451086941956
-0.01913692979481364
-0.2973941382781755
-0.3140083526226896
0.3676216258600294
-0.05361326575010229
0.7914314302352794
-0.6293965411414197
-0.02767416798410319
0.49952992225627
0.2826818625095973
-0.5226576927725836
0.5774591543657916
-0.577459154370871
-0.2897824265232293
-0.58651023578164
-0.2955164353698367
-0.5865102359284395
-0.5963639669408097
-0.8384939145810659
0.1700390007848538
-0.5901436420226788
0.8212264957647833
-0.003623926149390351
0.1197972981372904
0.4814061486211724
0.09668868513804967
0.1852256187695548
-0.03611602686513224
-0.1491095933376446
-0.02075552823605325
0.5928109759952481
-0.9444604047038606
0.4240765945789665
-2.500735516569217e-05
0.0001497468456987193
-0.0001247425571938711
-0.6434755470222658
-0.1319391314445003
-0.4653746492170882
0.5989892270541979
-0.5037363666021991
-0.3154615145362259
-0.2548501851523922
-0.2720423538502709
-0.1119768326894151
0.1119768350495409
0.1530974412749312
0.05768942528014126
0.1964486387558752
0.4517911049126531
-0.5715210360182996
0.1061463862986818
0.2490461782717859
0.4661271451707341
0.5338728550311329
0.6437945038110091
0.08033359858338054
0.002336852461690175
-0.08267045806391465
-0.2768774378409965
-0.5409071986399283
-0.5459876518891953
0.1141612210001303
-0.1261195500832837
0.01195832954234278
-0.106024376183196
-0.3859947361923605
-0.04537501282964512
0.6549114148835371
-0.4990452891609596
-0.1444302579301743
-0.3339169900214066
0.2895538703494875
0.1244464553166752
-0.6031398455744059
-0.2039666841248216
-0.2618417959097618
0.0005024915300388987
-0.4214276725867629
0.3216669688388498
0.09976070322776806
-0.08904938370837211
0.2916254545150604
-0.895920582820909
-0.4579320582073763
0.6341558881804096
-0.7729463488629926
0.6686071718400128
0.3425407085970374
-0.1265311859055465
0.2257457701631436
-0.09921458460869151
0.02887523311825606
-0.5861978931333502
0.02920189278089977
0.5569960003813154
-0.9007181533249796
0.5468880553380122
-0.6652891061857183
-0.0962855774292159
0.1089271566216588
-0.1089271573642874
-0.3165418182349198
0.3631796039211933
0.0167565977413021
0.0226669809570809
0.0576666247641755
0.5047115258141872
0.6642726754455313
-0.7410312828928022
0.02531811961675487
0.02227974347532897
0.002026755097363883
-0.006434081770013373
0.006434083336804478
-0.4130301145529715
0.5363636260702381
0.01525840447225585
-0.0152584044994923
-0.7923771709888273
-0.0598515015901047
0.1214927736715947
-0.451185473680923
0.5573318576270442
0.4493831096659405
-0.4980210506571957
0.1497624038692374
-0.1497624068741309
0.04301496488752728
-0.007555573740995631
-0.0408768220916309
-0.9773388397499735
0.5419970387204442
-0.4726820736206933
0.04091543619246309
0.5146098566347177
0.03081915697077718
-0.5454290134842836
-0.6159099995218835
0.1168647064803382
-0.3297812659557797
0.01350845054356083
0.3162728137550971
-0.1535999219410483
-0.07965843517841031
-0.5407585688093732
-0.04543932973858023
0.1360952396101779
-0.04158942192889298
0.0387208609154489
0.08196964914637893
-0.08196965007432681
-0.5369692616702177
0.4833559872498187
-0.4144220193620326
0.1613245323872856
0.6221677700419056
-0.0979099671665639
-0.006401669917352659
0.006401672379307753
0.5329989812628986
-0.07186702052690139
0.006370433204029847
0.02716807701808918
0.03448136129347636
0.6886226168252634
-0.7604896370885097
-0.6630311143892673
0.6353569460750617
-0.1095024811181197
0.3129191773943337
0.7459986314678904
-0.01782178638789488
-0.2665958815499247
0.148012854974854
-0.744669499567026
0.4842219046917356
-0.4221336438698401
-0.1013001442719788
0.003575407117640647
-0.014683345115044
0.02117352811058941
0.4123174121471543
-0.1216992446669542
-0.3897450862090956
0.62904502266377
0.0188751986131424
0.009873471421597961
-0.009873472952270959
-0.3576098364911807
-0.0851781652399136
-0.5606312633307371
0.5570073373759632
-0.2382611323286322
0.464804315904719
-0.1507191415785554
0.7287737243242093
0.6725670515967411
-0.04158941311893709
-0.6151652255649742
0.5600267632120793
0.2860304067578777
-0.2835487710159923
-0.002481640691511243
0.5463075538291723
0.09340886035569079
-0.03876110380488286
0.1972034235195773
-0.1584423199134338
0.1207307507786202
-0.1207307494386916
-0.8587265566053234
0.002444139500004223
-0.1129091091024987
0.1400771857135804
-0.1319903843279562
0.1319903872799397
0.02227974727409999
-0.02422343892393173
0.6713087536113055
0.05901025700432962
-0.323170143188118
-0.06282459433819414
-0.4712694953653388
-0.04788656496501603
-0.1517856822212861
0.15178568564358
-0.03965546768384254
0.1432128628028836
-0.1432128662066869
0.1369345497289465
-0.1369345475425336
-0.315669984596378
-0.1145020229227644
0.2266176071098477
0.1030626446703972
0.03485234250550838
-0.8211622360369304
-0.1972013224435738
0.1703292768378775
0.02072828659370479
-0.2654543434315998
0.1257496890152645
-0.1257496920308551
-0.4140853034432479
-0.08465470862007911
0.2365496040283703
0.002240820462842616
0.04038023093787478
-0.5436072204991826
0.5777072041580729
-0.02313323236689256
-0.01652224206367873
-0.02755056688740493
0.01999499810656864
0.006549557227760065
-0.1841967060705708
0.1776471482355285
-0.1076022824024159
-0.2283522624852417
-0.144849303352596
0.1448493068199097
0.07290106698795415
-0.07290106498174677
-0.01942289313361409
-0.1087033568467598
0.1281262487269458
0.2397837067311929
-0.1827994557631828
-0.02231245253637619
0.02433923225743945
-0.1356423376706133
0.6189983226678084
-0.03907577187765385
0.421689516665498
-0.04114738089463967
0.06177745123203063
-0.1536189032979779
0.1536189066047901
-0.6360872185235257
0.3089409035151969
-0.07921243248052497
-0.2347522167190399
0.003618801211525515
-0.1228168143188265
0.1631970452607555
0.193970538391104
0.09774063519827161
0.09468253627800115
-0.06020117349830841
0.07260119730371437
0.04156002591387386
0.06386672990335115
0.1064625471088941
-0.09667675864232078
0.2063725715944201
0.01274204639169042
-0.112218774291475
-0.1027033233105398
0.09776345356674612
0.004939866490660633
0.01240628017089739
-0.0222721982025211
0.0377880933308809
-0.03778809296235423
0.07438660998499841
-0.05481253509925479
0.05481253551015575
-0.2245478418863336
-0.0504413383649438
0.01156697672755101
-0.1031636524382644
0.01620378722119428
0.1083308843195854
-0.1083308861177778
0.2937312475945377
-0.2714768005627056
0.1638745221180531
-0.05037975099186998
-0.2210970467247373
-0.01747315687347827
0.01747315586499564
0.367262810556963
0.2852611673761873
-0.5273892253920045
-0.09398416064944499
-0.03213539058722057
0.5285873356117414
0.2122331318499529
-0.1688552498814878
-0.3822039666073351
0.07655699626148915
-0.1478106832648309
0.1874054203110342
-0.03959473592926659
-0.06677085581106326
0.06677085431129899
0.8225556276997873
-0.5605827447766153
-0.002132755231277294
0.01453903078189101
-0.02001353763512559
-0.2866390673444457
-0.01746317515135045
-0.01285892111019609
-0.1317642750004726
-0.572031129423459
0.5559242110598686
-0.5688258286174491
-0.006936365182863808
0.1009681767803163
-0.001833225305909084
0.01668435928810764
-0.1678242099541759
-0.3366713199669531
0.2335076669739868
-0.0545358753080483
0.03511297214231998
0.1318494010946544
0.1729849917343804
0.3368989506718923
0.2767694752568564
-0.278602702066081
-0.06398246254886665
-0.1547896629971574
-0.2212437677976598
0.07485083159413485
-0.01098410501250821
0.2142413971941844
-0.1975570384691189
-0.08624200258650441
0.1588431999648818
-0.3548224867785857
0.2088220851200155
-0.192618297213746
0.08966247400670058
-0.4794075574069154
0.1745465041187343
0.1698836015607484
-0.2561256058079056
0.07241033964630647
-0.194256551148516
0.1767933763159126
0.01741881557757874
0.1414243770277804
-0.03955413979810522
0.06632307239236664
0.4666759091158957
0.02031495125277183
-0.07597133896299249
0.05689052290769148
0.1253938413137835
-0.2608385037289789
-0.2309087467808989
0.5596978560711133
0.1577758582421465
0.07877374055830359
0.07581521311400718
-0.03098169612470506
-0.003622523790103548
0.001140916747733637
-0.03273157157858922
0.1712289392253706
-0.1781653050609606
-0.05479781269714055
0.02220645590279308
-0.1466654474704449
-0.05283217341147603
0.1515747349364471
0.2770929788523259
-0.03966325701277755
0.01637248062283943
-0.255525823529263
-0.1300997653611374
0.2356316270593213
0.1792868903384684
0.1296540097005502
0.02162310076543563
0.08905046902753765
0.05197907313304723
0.4527324525752076
0.01768192722645979
0.09704811258068789
0.04371568105709205
0.07168953994494388
-0.1154052187919749
-0.2421280641546867
-0.2009099899425251
-0.02018705338798601
-0.2023145792201208
0.2757128773163299
)
;

boundaryField
{
    FrontBack
    {
        type            empty;
    }
    Top
    {
        type            calculated;
        value           uniform 0;
    }
    In
    {
        type            calculated;
        value           uniform -1;
    }
    Bottom
    {
        type            calculated;
        value           uniform 0;
    }
    Out
    {
        type            calculated;
        value           nonuniform List<scalar> 10(1.03649398987864 1.064544994806814 1.021557485542346 1.01986879760939 0.9975354980778446 1.013722347099326 1.034306601314529 1.062701758710239 0.8672415802168507 0.8820266712766157);
    }
    circle
    {
        type            calculated;
        value           uniform 0;
    }
}


// ************************************************************************* //
