/*--------------------------------*- C++ -*----------------------------------*\
| =========                 |                                                 |
| \\      /  F ield         | OpenFOAM: The Open Source CFD Toolbox           |
|  \\    /   O peration     | Version:  2412                                  |
|   \\  /    A nd           | Website:  www.openfoam.com                      |
|    \\/     M anipulation  |                                                 |
\*---------------------------------------------------------------------------*/
FoamFile
{
    version     2.0;
    format      ascii;
    arch        "LSB;label=32;scalar=64";
    class       volScalarField;
    location    "23";
    object      p;
}
// * * * * * * * * * * * * * * * * * * * * * * * * * * * * * * * * * * * * * //

dimensions      [0 2 -2 0 0 0 0];

internalField   nonuniform List<scalar> 
808
(
0.122706
0.0154441
0.0108368
0.122878
-0.187456
0.0177559
0.00770098
0.0266956
-0.0953894
-0.0153323
0.0277972
-0.108816
0.0227437
0.0122405
-0.304474
0.0216239
-0.320385
0.0203478
0.0196746
0.00892862
0.0142498
0.383563
0.0684336
0.00270896
0.461293
-0.183245
-0.0386106
0.00615002
0.018941
0.0125863
0.0153436
0.0209451
0.0202238
0.011833
-0.071121
0.63744
0.0125925
0.0185655
0.0193433
0.0156238
-0.0431592
-0.042335
0.0326294
0.0204614
-0.186987
0.0854522
0.0175753
0.0315893
0.0118543
-0.132699
0.0103333
0.0238458
0.0411131
0.00798409
-0.0918484
0.00823311
0.00760787
0.0281134
-0.00815591
0.00371503
-0.266962
0.0209859
0.029302
-0.156071
0.022197
0.043129
-0.214427
0.0197819
0.0180609
-0.236672
0.0201591
-0.264843
0.0205637
0.0194987
0.204847
0.00829154
-0.0114718
-0.0744366
0.00856136
0.315214
-0.12777
0.0155628
0.0329495
0.285528
0.0116381
-0.0319457
-0.306416
-0.112044
0.0271227
-0.212319
0.0423575
-0.0825801
0.256344
0.15708
0.0375775
-0.19966
0.0172067
-0.121376
-0.091344
-0.181685
0.0122736
-0.0015458
0.0408413
-0.0275513
-0.104845
0.0550319
-0.206922
0.0247202
0.00734565
0.050634
-0.0831898
0.335799
0.0148316
0.04189
0.0191889
0.461911
0.0116053
-0.220621
0.0166222
0.0589753
-0.226053
0.0335356
0.0116966
0.0608739
0.110283
-0.0557709
0.114957
0.0406255
0.040233
0.064727
-0.212278
0.0225462
-0.0435966
0.123846
0.0218948
0.00754271
0.0371817
0.00599959
0.018128
0.00819406
-0.295542
0.052279
0.00819006
0.0173512
-0.0351361
0.0904386
0.100035
0.163416
-0.0168599
0.0292437
0.0147309
0.347264
0.0302301
0.54252
-0.27894
-0.107506
0.0157765
-0.222607
0.0235365
-0.128387
-0.259099
-0.289574
-0.229085
0.0174839
0.0580816
0.018251
0.0210178
-0.231166
0.0132446
0.024958
0.0406576
0.158154
0.0839953
0.141681
0.0163858
0.0750021
0.067537
-0.123134
0.0217782
-0.289203
0.0260225
-0.14873
0.0156022
0.274801
-0.321591
0.114515
0.018174
-0.137959
0.0247967
-0.0893477
-0.278769
-0.0667645
0.0178946
0.0890788
0.0155553
-0.287356
0.0162285
0.0290183
0.0053979
0.0774273
0.0689061
0.0258734
0.0205481
-0.262795
0.38185
-0.278436
-0.258865
0.00907771
0.0114009
0.0154494
0.00623069
-0.336244
-0.208425
0.0157115
0.00207484
0.0180619
-0.269959
-0.0409675
0.0047234
0.0391501
0.0154482
-0.0911758
0.0273789
0.0280033
0.00361118
0.0219453
0.122761
-0.224221
0.0686267
0.0165911
0.115266
0.0196737
0.0224863
0.0129911
-0.10551
0.0156783
0.00910356
0.000967921
-0.00159924
0.0126181
-0.000180507
-0.0012797
0.00628578
0.00551765
-0.00112856
0.00441981
-0.0038363
-0.0022717
0.00838177
0.0608253
-0.263064
0.00276328
0.00563556
-0.128514
0.00970005
0.00416938
0.0289949
0.00158122
0.0234351
0.125434
0.0682711
0.00785853
0.00946322
0.0559597
0.0187369
0.0188353
0.0360876
0.0501001
0.0333191
0.00843882
0.0185953
-0.333463
0.278374
0.0104348
-0.0253258
0.0171751
0.00992082
0.0110681
-0.182645
0.294498
0.0344908
0.00542967
0.0305851
0.0892352
-0.126764
0.0219147
0.0423009
0.0873356
0.0306987
0.0303695
0.0223841
0.0290184
0.0294603
0.0283217
0.045175
0.0256675
-0.00201181
0.054968
0.063861
0.0485388
0.0240819
0.0248068
0.0306055
0.0131549
-0.440308
-0.104925
-0.00594642
0.0176021
-0.144309
-0.294458
0.0436179
0.0242761
-0.261636
0.135363
0.16701
0.0170536
0.0170181
0.0609179
0.00302345
-0.177447
0.0294048
0.0026283
0.0221516
0.00874617
0.0138784
0.0272188
0.0531919
-0.0001898
0.0255124
-0.262832
-0.0935896
0.0222546
-0.018903
0.0441628
0.00851968
0.233541
0.0268125
-0.134461
0.55852
0.0274656
0.00429763
0.024279
-0.049922
-0.0539345
0.0535864
0.0274186
0.000181463
0.0363691
-0.0493611
-0.257973
0.0609882
0.103834
-0.0668346
-0.262228
-0.259956
-0.226286
-0.256656
0.0456551
0.0243268
0.0174545
0.000960085
-0.0271369
0.00792484
0.0314088
0.00537181
-0.435211
0.0298951
0.036386
0.0171442
-0.256479
0.00222889
0.0164342
0.118319
-0.2726
0.0305739
-0.0517489
0.0425866
-0.0243949
-0.259449
0.0245536
-0.305751
0.00418822
-0.000172432
0.0173913
0.0103012
0.0184264
-0.023447
-0.279797
0.0064344
0.0107041
0.0384948
0.00512907
-0.00869719
0.0286587
-0.00518862
-0.0118926
-0.0349818
0.0509555
0.00890988
0.0147625
-0.233392
-0.123902
0.0597882
0.0251508
-0.135962
-0.0203549
0.439689
-0.258499
0.00130115
-0.159766
0.0143982
0.0401558
0.0214014
0.000973595
-0.00137591
-0.0239934
-0.0639863
0.000367476
-0.00412536
-0.00660865
-0.0118162
-0.0113712
0.018404
0.122729
0.034053
0.0127247
0.0115236
0.0174899
-0.0818673
0.0234458
-0.318679
0.0377115
0.0559708
-0.00245266
-0.226171
-0.261213
-0.0116832
-0.0515148
-0.0786611
0.0256521
-0.156518
-0.185773
0.225326
-0.256105
-0.387469
-0.280444
-0.148489
-0.114998
-0.223659
0.362287
-0.0218663
-0.264313
0.00874534
0.00765151
0.593161
0.010704
0.0255441
0.0437079
0.00920109
-0.0096089
-0.300985
-0.28924
0.0599916
0.0694027
0.0745041
-0.213738
-0.240608
-0.237345
0.0126219
0.0059239
0.0906536
-0.0170412
-0.0126309
0.0767898
0.0407919
0.0241677
-0.160129
-0.298584
0.0084229
-0.111817
0.0182329
0.00452012
0.0847043
-0.0543322
-0.000544741
-0.39466
0.465176
-0.209934
-0.262355
-0.0361732
-0.00882795
-0.270294
-0.266354
0.128196
-0.273278
-0.220664
0.875306
0.0133458
-0.294465
0.00230314
-0.157813
-0.0168567
-0.391152
-0.285248
-0.245209
0.0125856
-0.23996
-0.297214
-0.0155756
-0.0241955
0.101591
-0.245083
0.0279628
-0.430819
-0.32002
-0.380073
-0.249238
-0.0212818
0.00305617
0.104214
0.137469
-0.0505234
-0.256589
0.319918
0.0924883
0.0199567
-0.369945
-0.427603
-0.266026
-0.000230558
-0.286602
0.10749
0.0185031
0.0124228
-0.207255
-0.180556
0.0105549
-0.257
-0.297443
0.00690627
-0.00894822
-0.1669
-0.0120246
0.033353
-0.316953
-0.265361
-0.0809396
0.0997584
0.0244836
-0.269279
-0.288821
-0.192474
-0.3018
0.0362966
0.0989788
0.00882557
-0.205696
-0.294688
0.101357
0.0285704
-0.236153
0.0246124
0.032401
-0.327083
0.0175398
-0.211741
0.0306025
-0.34387
-0.0115899
-0.00215513
-0.358817
-0.449422
0.00338499
-0.406348
-0.391228
0.0245717
-0.0731097
-0.273582
0.00726819
-0.254735
0.0307972
0.0791918
0.0735081
-0.331651
0.089253
-0.00620715
-0.448434
0.00378304
-0.274798
0.0181068
-0.258335
-0.503609
0.118263
0.275786
0.45413
0.00521663
0.00233062
-0.00136325
-0.278356
0.654687
0.0169497
-0.21953
0.0325498
-0.0250347
0.0954191
0.490844
-0.36352
-0.044259
-0.0423522
0.0336969
0.0133532
-0.44565
-0.257196
-0.257101
-0.318831
-0.224483
0.00260051
-0.30067
0.0689208
-0.266606
-0.310681
0.512794
0.593592
-0.323326
0.13934
-0.271166
-0.018718
-0.179172
0.407161
-0.125561
-0.262957
-0.116882
-0.503486
-0.0267126
-0.194849
-0.0192115
-0.307183
-0.277148
-0.000584799
0.00365606
-0.26382
0.472421
0.683639
-0.247291
-0.297727
-0.263763
-0.0567394
-0.299418
-0.280867
-0.192965
-0.262037
0.758434
-0.334039
0.762762
-0.349375
0.346598
-0.250413
1.11656e-05
0.178499
-0.49412
0.255851
-0.281978
-0.307757
-0.334931
0.879467
-0.266291
0.225447
0.167894
0.661627
0.13904
-0.356752
-0.288064
-0.160061
0.00992286
0.0873683
0.546652
0.0139457
-0.0253003
-0.282171
0.117874
-0.0864928
-0.245124
0.0214894
-0.363435
-0.112644
-0.155792
-0.304737
0.00325747
0.115821
-0.00879404
0.075818
0.12496
-0.32767
-0.354529
-0.0672982
0.00854039
-0.460767
-0.50698
0.177222
0.197539
0.0978621
0.674009
-0.0454175
-0.306984
-0.379412
-0.294298
-0.0274877
0.0849003
0.771274
-0.4457
0.400515
-0.0155664
-0.420653
0.156606
-0.0748264
0.40663
-0.159505
0.0136662
-0.274199
-0.0392586
0.224774
0.829769
0.349589
0.766497
-0.263243
-0.295593
-0.353042
0.169599
0.274131
0.0620243
0.385936
0.170264
0.510317
0.279747
-0.0687353
-0.146341
0.0486205
-0.326823
0.894431
0.425839
0.653074
0.52342
-0.264456
-0.259108
-0.277042
-0.259665
0.0477487
-0.348767
0.1339
0.603539
-0.271992
0.0159358
-0.257361
0.190029
-0.320825
-0.361713
-0.141816
-0.285807
-0.31103
-0.272532
-0.282244
-0.103432
-0.352036
-0.0926416
-0.258877
0.149814
0.676448
-0.218723
-0.259095
0.833841
-0.259839
0.309312
-0.231941
0.416339
0.101311
-0.232554
-0.391516
0.446544
-0.228026
-0.31761
0.215204
-0.272505
-0.0259908
-0.29169
-0.116997
0.0222923
0.587796
0.792779
-0.28836
0.243831
-0.290135
0.832308
-0.0141972
-0.308998
-0.030396
0.779469
0.212013
-0.316454
-0.279007
0.474509
-0.20914
0.0394035
0.354296
0.259763
0.313093
-0.249503
-0.331933
0.701007
)
;

boundaryField
{
    FrontBack
    {
        type            empty;
    }
    Top
    {
        type            zeroGradient;
    }
    In
    {
        type            zeroGradient;
    }
    Bottom
    {
        type            zeroGradient;
    }
    Out
    {
        type            fixedValue;
        value           uniform 0;
    }
    circle
    {
        type            zeroGradient;
    }
}


// ************************************************************************* //
