/*--------------------------------*- C++ -*----------------------------------*\
| =========                 |                                                 |
| \\      /  F ield         | OpenFOAM: The Open Source CFD Toolbox           |
|  \\    /   O peration     | Version:  2412                                  |
|   \\  /    A nd           | Website:  www.openfoam.com                      |
|    \\/     M anipulation  |                                                 |
\*---------------------------------------------------------------------------*/
FoamFile
{
    version     2.0;
    format      ascii;
    arch        "LSB;label=32;scalar=64";
    class       surfaceScalarField;
    location    "23";
    object      phi;
}
// * * * * * * * * * * * * * * * * * * * * * * * * * * * * * * * * * * * * * //

dimensions      [0 3 -1 0 0 0 0];

oriented        oriented;

internalField   nonuniform List<scalar> 
1171
(
-0.945754
0.945754
0.781394
-1.08897
0.307575
-0.320935
-0.782684
1.10362
0.0542457
-0.0638957
-0.27539
0.339286
-0.781394
0.0858276
0.695566
0.934261
-0.203697
-0.730564
0.837594
-1.03788
0.200283
-0.355486
-0.0339595
0.389446
0.00207892
0.602431
-0.604509
-0.531258
0.990625
-0.459367
-0.419382
1.00952
-0.171922
0.259307
0.0890384
-0.348346
0.989947
0.0195688
0.304952
-0.0456446
1.02283
-0.0328845
0.684132
-1.00507
-0.791189
0.616368
0.174821
0.346957
-0.878216
0.561242
-0.915696
0.354454
-1.08051
0.670752
0.409758
-0.643318
0.645397
0.0348505
-0.254442
0.219591
0.0219358
-0.639436
0.6175
0.46766
-0.50162
-0.838568
0.887372
-0.0488042
1.00076
0.0220729
0.920732
-1.07382
0.153085
1.0323
-0.0315457
-0.699994
-0.0911947
1.2463
-0.856281
-0.390024
0.193737
-0.0686143
-0.416683
0.485297
-0.273976
0.183005
0.0909707
-0.604601
-0.484368
0.973133
-0.0524004
-0.0197586
0.871351
-0.851592
0.502913
0.743392
0.533816
0.0277139
0.439946
-0.788643
-0.105972
0.894615
0.600578
0.231514
-0.832092
0.0195229
0.620426
-0.639949
-0.509771
-0.570739
-0.38914
-0.684677
0.0294833
0.24303
-0.272513
-0.947473
-0.0340882
0.981561
0.373704
0.0157423
0.862778
0.0714837
-0.605645
-0.0376735
0.0376418
-0.826285
0.160827
0.917485
-1.07831
-0.407151
0.0262628
0.380888
-0.716415
-0.231058
-0.734751
0.895579
0.62675
0.363876
-0.576796
1.00051
-0.823857
-0.176656
-0.0011179
-0.104949
0.106067
-0.458676
-0.0429436
-0.324896
0.951645
-0.0185685
0.440632
-0.422063
-0.495883
1.09646
0.713252
-0.819224
0.384877
-0.0742457
-0.310632
0.757164
-0.757164
-0.95525
0.038733
-0.314123
-0.695237
0.675479
-0.0312355
-0.141906
0.173141
0.887534
-0.0161835
1.0477
-0.816186
0.222895
-0.318659
0.0957645
0.99739
-0.134613
-0.679942
-0.0529292
0.732871
0.150093
-0.232716
0.0826232
0.809417
-1.01311
-0.444444
0.311346
0.133098
0.667036
-0.6451
0.876367
-0.39653
-0.479836
0.487227
-0.694394
0.0370105
0.657384
0.165298
0.674613
0.0422371
-0.71685
0.132892
-0.0941593
-0.514566
0.107415
0.0370642
-0.908491
0.871427
-0.550398
-0.763262
0.0632675
0.499199
-0.0592523
0.274338
-0.832542
0.558204
0.42454
0.57546
0.598917
-0.561275
-0.366309
-0.0297189
0.396028
0.534351
0.222812
-0.667535
0.687057
0.0825158
0.895244
0.00560638
-0.685548
-0.766825
0.803889
0.621684
0.122303
0.349906
-0.472209
-0.155533
0.523623
0.0968023
0.798277
-0.766081
-0.0321962
0.657856
0.342657
-0.429193
0.719453
-0.59715
0.409594
0.151648
-0.0585591
-0.638348
-0.20069
0.839038
-0.116852
-0.640312
-0.612773
0.364293
0.24848
0.663513
-0.657907
0.30805
1.03605
0.0116519
-0.766825
-0.0917528
0.0906349
0.713252
0.787884
-0.787884
0.845223
-0.832022
-0.0132016
-0.454504
0.879044
-0.194032
-0.320534
0.763075
-0.668287
-0.0947875
-0.868465
0.230117
0.10572
-0.711365
0.819224
-0.974757
-0.172583
0.161139
0.0114435
0.114188
-0.991255
0.877068
0.54599
-0.012174
-0.289682
0.595928
-0.306245
-0.651664
0.765852
-0.160344
0.760092
-0.77006
0.00996786
1.15081
-0.648412
-0.502402
0.729325
-0.0691806
-0.0147139
0.014528
0.000185811
-0.800935
-0.880803
0.0981184
-0.695237
0.576731
-0.550469
0.0113447
0.683822
-0.695167
0.780027
0.165728
0.491472
0.508528
-0.0550923
-0.649043
0.704136
0.788194
0.0100829
-0.729325
0.803889
0.179226
-0.433667
-0.017415
-0.00223336
0.0196484
0.67763
-0.437881
-0.239749
0.695566
-0.0224485
-0.120711
0.559915
0.117715
-0.00955568
0.00192851
0.00762716
0.00289073
-0.0176046
0.126252
-0.200497
-0.948229
0.0447922
-0.144339
-0.0463314
0.129969
0.771566
0.742919
-0.167458
0.394063
-0.382718
-0.162571
0.385465
0.640012
0.0555538
0.228192
-1.06021
-0.974757
0.314451
0.675479
-0.158472
0.0165662
-0.816358
0.985567
-0.169209
0.485371
-0.104482
0.802246
0.305606
0.281933
0.0230188
-0.680864
0.680864
0.224584
0.67003
-0.00900306
0.449635
0.476294
0.0237111
-0.0411261
0.554913
-0.00892297
-0.651664
0.572744
0.190331
0.00820453
0.00632352
-0.640012
0.160809
0.824758
0.0216618
-0.714007
0.692345
0.759812
-0.822509
0.0626972
-0.780027
-0.0328504
0.0451583
-0.012308
0.0843044
-0.123189
-0.106224
0.229413
-0.00719976
-0.00235592
0.756686
-0.735024
0.9045
0.199119
-0.438974
-0.522298
0.961272
-0.00113792
0.00113792
0.131421
0.408528
0.672063
-1.08059
-0.195642
-0.557773
0.753415
-0.0187833
0.191925
0.384555
-0.234462
1.09815
-0.689622
0.782436
0.955306
-0.283244
0.190523
0.765852
0.59393
0.252058
0.635314
-0.640312
0.319136
-0.00883842
-0.0189831
0.0278215
0.856583
0.0510205
-0.907604
-0.561045
0.529499
0.545496
-0.561045
-0.59393
0.529499
-0.00049889
1.03372
-0.129216
-0.534351
0.452918
0.0814333
0.510027
0.659515
-1.16954
0.475631
0.62252
0.685206
0.482023
-1.16723
0.402111
0.553196
0.452918
-0.519708
-0.5387
-0.669496
-0.467826
-0.0862375
-0.00413819
0.00413819
0.612114
0.57963
-1.04746
0.730179
-0.380273
-1.04195
0.393543
-0.689101
0.458043
0.00574057
-0.950539
0.944799
0.453236
-0.011536
0.868119
-1.17373
-0.981296
0.067533
0.913762
0.33788
-0.0856275
-0.252252
0.763159
-0.815559
1.05232
-0.989707
-0.0626174
-0.0527611
-0.71332
-0.130211
0.829076
-0.698865
-1.02005
0.967291
-0.54496
0.626451
-0.0814911
-0.857293
0.163317
0.693976
0.00341712
-0.00455504
0.425986
0.121401
-1.00598
0.884575
-0.762972
0.707879
1.00797
0.137495
-1.14546
0.0266734
0.00915716
0.386871
-0.358823
0.0401641
0.940451
-0.93471
-0.658175
-0.845135
0.131815
-0.12542
-1.01359
0.0238838
0.534992
-0.140928
0.123152
0.214727
-0.530274
0.693591
0.479836
-0.962075
-0.882557
0.151158
-0.0663944
0.603244
-0.53685
-0.0687926
-0.724569
0.579164
0.180648
-0.0729699
0.941089
1.03482
0.983903
-0.96002
0.0454733
-0.0454733
-0.0851848
-0.275339
0.189711
0.339547
-0.0250962
0.259484
0.872297
-0.00165705
-0.0055427
0.658378
0.341622
0.797078
-0.604601
-0.760632
-0.485829
-0.480695
0.480695
-0.206646
-0.107477
0.679338
-0.969778
0.29044
-0.480733
-0.54637
0.353634
-1.03831
-0.985092
0.922474
-0.580796
0.712611
0.681426
0.185713
-0.867139
-0.56732
-0.171991
0.842041
-0.67005
0.112795
-0.00277856
0.00317095
-0.000392389
-0.026224
-0.249115
1.03297
0.699634
-0.392605
-0.307029
0.447382
0.744521
-0.519936
0.0111031
-0.285079
0.144923
0.750954
-0.895877
-0.356885
-0.0759141
0.138851
-0.996912
0.0893087
-0.784065
0.0631474
0.766292
-0.829439
-0.876564
0.0924991
0.701521
-0.777435
0.235797
-0.358987
-0.449403
-0.117917
0.369273
0.744748
-0.0252946
0.00302603
-0.00302603
-0.00220968
0.0146121
-0.0234505
-0.0162702
0.0146131
-0.590332
0.329762
0.789952
-0.837776
0.0478238
-0.718785
0.781933
0.775629
-0.0741075
-0.716052
-0.160512
-1.15023
0.0206149
0.0248584
-0.445409
-0.846263
-0.859764
0.46974
-0.181066
0.175695
0.00537076
-0.490896
0.0454866
0.504951
0.712623
-0.037321
-0.00901049
1.11483
0.506221
0.217962
-0.724183
-0.421623
-0.0692729
-0.00719924
0.00442068
0.701076
-0.901766
0.00616866
-0.00616866
-0.721045
0.715625
0.00541914
-0.29847
-0.0966055
-0.705539
0.0862083
0.617927
-0.0516336
-0.877529
-0.109757
0.110723
-0.000965927
0.809707
-0.761883
0.346444
0.264662
-0.611106
-0.145188
-0.717963
-0.111477
-0.214823
-0.0235488
0.471076
-0.514019
0.186141
0.729292
-0.915432
0.487227
-0.113312
-0.0677535
0.140536
-0.164085
0.597498
-0.09488
-0.502618
-0.283272
0.303833
-0.0205614
0.607217
0.122963
0.057666
-0.310201
0.168041
0.14216
-0.170656
0.0789033
-0.27165
0.0301202
0.0271899
-0.0573101
0.871745
-0.302801
0.004331
0.554202
0.255389
-0.647994
0.401924
-0.401924
-0.196969
-0.38544
-0.210861
-0.38544
-0.675723
-0.85015
0.181862
-0.11309
0.725725
0.0470295
0.154513
0.590235
0.108651
0.11669
0.0103907
-0.127081
-0.00236711
0.742839
-1.03798
0.515679
-0.00389825
0.069281
-0.0653827
-0.744158
-0.176352
-0.592318
0.81028
-0.537377
0.0220492
-0.186134
-0.335728
-0.0811693
0.0811693
0.0430108
0.00214748
0.137305
0.254598
-0.761729
0.169411
-0.0228814
0.471531
0.528469
0.765545
0.0260432
0.00621764
-0.0322609
-0.294314
-0.583215
-0.548919
0.112595
-0.117687
0.00509218
-0.128192
-0.415414
-0.0467601
0.664687
-0.582853
-0.161305
-0.0829002
0.0319156
0.140173
-0.337232
-0.196255
-0.179989
-0.0205082
-0.481419
0.432683
0.0487357
-0.0685085
0.293892
-0.864631
-0.542028
0.66232
-0.85926
0.714073
0.458792
-0.031222
0.057187
-0.025965
0.0200491
-0.635388
-0.00424649
0.639634
-0.894486
0.642172
-0.727357
-0.115502
0.00697345
-0.00697345
-0.299098
0.432801
-0.04593
0.0133013
0.0127419
0.596389
0.564913
-0.597109
0.0110679
0.0054869
-0.00246087
0.00402531
-0.00402531
-0.511852
0.634815
0.0136177
-0.0136177
-0.778682
-0.00849485
0.011912
-0.531854
0.701265
0.613076
-0.607657
0.0683315
-0.0683315
-0.0169111
-0.024215
0.0119354
-1.04491
0.542506
-0.506482
-0.00455504
0.601369
0.010409
-0.611778
-0.708206
0.125353
-0.317267
-0.0138225
0.331089
-0.0225026
-0.0148183
-0.606257
-0.0291312
0.0248584
0.005754
0.00041466
-0.00316625
0.00316625
-0.357559
0.300249
-0.457389
0.134219
0.662859
-0.133948
0.000144918
-0.000144918
0.508542
-0.122504
0.00811137
0.0178849
-0.000529728
0.554994
-0.677498
-0.682369
0.6867
-0.073681
0.323793
0.770065
-0.00220968
-0.0941734
0.100497
-0.632574
0.556215
-0.311554
-0.106836
-0.0270927
-0.0255796
-0.0100526
0.467371
-0.085809
-0.416809
0.697889
0.000112881
0.00636602
-0.00636602
-0.159242
-0.102961
-0.572816
0.619845
-0.137446
0.510119
-0.217412
0.901545
0.835338
0.005754
-0.804939
0.714627
0.0381671
-0.0499779
0.0118108
0.618192
0.0952549
-0.0121037
0.0668067
-0.054703
0.0089375
-0.0089375
-0.743339
0.0228582
-0.0431456
0.0610305
-0.0867993
0.0867993
0.0054869
-0.00206476
0.734428
0.0903305
-0.318787
-0.096627
-0.521033
-0.0447331
-0.0670317
0.0670317
-0.0491719
0.0803701
-0.0803701
0.0267023
-0.0267023
-0.355366
-0.0738273
0.24182
0.0695259
0.050994
-0.730569
-0.0601285
0.161447
0.0177787
-0.245621
0.0802495
-0.0802495
-0.466982
-0.0470377
0.231831
-0.0122397
0.00258775
-0.652082
0.652581
0.00770128
-0.0568732
0.0406881
-0.0649031
-0.0120386
-0.155483
0.167522
-0.150791
-0.208196
-0.0817157
0.0817157
0.0554044
-0.0554044
-0.0297241
-0.094236
0.12396
-0.013729
-0.187507
-0.0106755
0.00821466
-0.255895
0.556144
-0.0257649
0.445371
0.00647332
0.00115384
-0.0512646
0.0512646
-0.731603
0.319099
-0.128575
-0.209346
-0.02337
-0.0169957
0.0195835
0.199113
0.0303001
-0.000925717
0.000395989
0.0829896
0.0296053
0.0549712
0.106476
-0.00875664
-0.000253848
0.000197358
0.0058565
0.00596694
0.00650046
-0.0124674
-0.000879121
0.0065862
0.0283631
-0.0283631
0.049811
-0.0416155
0.0416155
-0.190782
0.00701034
0.027856
-0.0754468
0.0177648
0.0763129
-0.0763129
0.247849
-0.238425
0.0876347
-0.0673962
-0.171029
-0.0165797
0.0165797
0.406589
0.250794
-0.517936
-0.0807104
-0.0369766
0.540809
0.0269591
-0.0638733
-0.453955
0.0931517
-0.154043
0.170753
-0.01671
-0.0467077
0.0467077
0.863217
-0.592753
-0.0102584
0.00937931
-0.00563008
-0.283829
-0.000120625
0.00508369
-0.0435623
-0.626773
0.568071
-0.672212
0.014684
0.202623
0.0157671
0.0245623
-0.159673
-0.335815
0.260368
-0.0567654
0.0270413
0.170877
0.132956
0.214751
0.265541
-0.249774
0.0063816
-0.112952
-0.223168
0.0685487
-0.0135775
0.161528
-0.136966
-0.0683841
0.151374
-0.40755
0.122099
-0.104334
0.0584192
-0.475228
0.175837
0.176071
-0.244455
0.00566049
-0.176165
0.176045
0.00393652
0.147437
-0.0279978
0.0506178
0.457924
0.0117833
0.0223133
-0.00668627
0.0354509
-0.239878
-0.202716
0.590406
0.170353
0.0614783
0.0792136
-0.0632993
0.0524954
-0.0406846
-0.0301974
0.167151
-0.152467
0.0122608
-0.00204377
-0.104223
-0.0287281
0.0120069
0.251958
0.00483753
-0.0124077
-0.312678
-0.00780797
0.216235
0.140609
0.178489
0.0571941
0.0981952
0.0548906
0.541498
-0.01227
0.102295
0.043775
0.0649745
-0.108749
-0.267142
-0.197803
0.026774
-0.22327
0.285904
)
;

boundaryField
{
    FrontBack
    {
        type            empty;
    }
    Top
    {
        type            calculated;
        value           uniform 0;
    }
    In
    {
        type            calculated;
        value           uniform -1;
    }
    Bottom
    {
        type            calculated;
        value           uniform 0;
    }
    Out
    {
        type            calculated;
        value           nonuniform List<scalar> 10(1.16084 1.02974 1.2082 1.02463 1.14154 1.02102 1.19174 1.0271 0.598893 0.596301);
    }
    circle
    {
        type            calculated;
        value           uniform 0;
    }
}


// ************************************************************************* //
