/*--------------------------------*- C++ -*----------------------------------*\
| =========                 |                                                 |
| \\      /  F ield         | OpenFOAM: The Open Source CFD Toolbox           |
|  \\    /   O peration     | Version:  2412                                  |
|   \\  /    A nd           | Website:  www.openfoam.com                      |
|    \\/     M anipulation  |                                                 |
\*---------------------------------------------------------------------------*/
FoamFile
{
    version     2.0;
    format      ascii;
    arch        "LSB;label=32;scalar=64";
    class       volVectorField;
    location    "23";
    object      U;
}
// * * * * * * * * * * * * * * * * * * * * * * * * * * * * * * * * * * * * * //

dimensions      [0 1 -1 0 0 0 0];

internalField   nonuniform List<vector> 
808
(
(0.89545 -0.00951766 0)
(1.02328 -0.0353116 0)
(1.25943 0.0972857 0)
(1.06827 0.00912235 -2.60594e-21)
(1.46403 -0.296666 0)
(0.962497 -0.0305145 0)
(1.15109 -0.042711 -1.94924e-21)
(1.12041 -0.0250767 0)
(1.33893 -0.233307 1.94946e-20)
(1.23191 -0.101743 -3.27536e-21)
(1.22684 -0.129615 3.80453e-21)
(1.36619 -0.265115 0)
(0.993768 -0.0303265 0)
(0.749046 -0.0219821 0)
(1.00093 0.0216405 2.09666e-20)
(1.09154 -0.0237143 0)
(0.89652 0.0368945 -6.99582e-21)
(0.99514 -0.0321367 -9.93636e-23)
(1.27822 0.0796952 0)
(1.12673 -0.00143533 0)
(1.27413 -0.117272 -5.30993e-21)
(0.92907 0.126403 1.11136e-19)
(1.07424 0.0109269 -1.23836e-20)
(1.18012 -0.0460116 0)
(0.95518 0.19034 0)
(1.30575 0.0258953 -3.29117e-20)
(1.27232 -0.187077 2.74146e-21)
(0.96317 -0.0306214 -3.47111e-21)
(1.09485 -0.0346253 0)
(1.04873 0.0449826 -1.87915e-22)
(0.994079 -0.043572 4.39962e-24)
(1.12908 -0.0192212 0)
(1.03535 0.046879 0)
(1.08538 -0.0364278 2.93616e-21)
(1.30135 -0.0956645 6.4385e-21)
(0.74137 -0.107306 1.13592e-19)
(0.879635 -0.02545 -5.61901e-21)
(1.02954 0.0436662 7.77576e-22)
(1.18962 0.0408587 -2.43173e-21)
(1.07824 0.0320966 0)
(1.2653 -0.0852451 -1.22007e-20)
(1.27389 -0.144716 0)
(1.00644 -0.000335803 -6.96183e-21)
(1.13052 -0.0525518 6.12517e-21)
(1.1808 -0.0850185 0)
(1.01154 0.0171654 -1.87652e-20)
(1.00365 0.0414274 1.40908e-21)
(1.2455 -0.256898 -5.60797e-21)
(1.17139 0.0511478 -4.19425e-21)
(1.39257 -0.198937 -2.81622e-20)
(1.14748 -0.04768 3.39027e-21)
(1.15052 -0.0789964 0)
(1.11954 -0.00345957 6.22043e-21)
(1.14381 -0.0499411 0)
(1.32724 0.22465 5.1134e-21)
(1.06736 0.0470546 -1.44078e-21)
(1.20236 -0.0628185 0)
(1.15749 -0.126768 2.80388e-21)
(1.23405 -0.106993 3.51583e-21)
(1.14677 0.0402314 2.43018e-22)
(-0.187298 -0.160282 0)
(1.21216 -0.216819 -2.25267e-21)
(1.14752 -0.0764586 0)
(1.42419 -0.122807 -2.3453e-20)
(1.1331 -0.0633057 -7.14477e-21)
(1.04138 -0.029126 -7.16039e-21)
(1.29946 -0.148672 2.26525e-20)
(0.639303 0.0167292 0)
(1.16096 -0.0758649 0)
(1.41998 -0.355834 0)
(0.895789 0.0265236 -1.83384e-22)
(1.21245 -0.148807 -3.48429e-20)
(1.00822 0.0396763 0)
(1.05477 -0.0488107 -2.97966e-21)
(1.11548 -0.333655 -6.15239e-20)
(1.15689 -0.0515756 -4.83296e-21)
(1.1559 0.0241119 4.67672e-22)
(1.32791 0.497839 2.53579e-20)
(1.11692 -0.0389191 0)
(1.01695 0.287344 -1.82686e-19)
(1.34335 0.00821673 1.76386e-20)
(0.749841 0.0211903 0)
(0.844881 0.0376794 -8.40049e-21)
(0.967596 -0.108286 4.51153e-21)
(1.13806 -0.0554278 3.27648e-21)
(1.20308 0.00748482 1.54113e-21)
(1.25841 -0.238634 0)
(1.35421 0.284631 0)
(1.09392 -0.00260746 -1.26824e-20)
(1.427 0.0638098 3.53025e-20)
(1.08482 -0.0229386 1.37476e-20)
(1.31393 -0.139332 -1.12148e-21)
(0.965127 0.0269666 1.69246e-20)
(1.00426 -0.0239043 0)
(1.11309 0.0157999 1.39287e-21)
(1.23683 -0.114867 -5.93632e-20)
(0.749191 0.0221122 -2.07446e-21)
(1.32822 -0.059117 0)
(1.32494 -0.109752 0)
(1.3996 -0.118631 -3.5932e-20)
(1.11785 -0.0433465 -2.4224e-21)
(1.13493 0.00601427 -2.32076e-23)
(0.952171 0.0243026 1.12596e-20)
(1.1973 0.00254131 -5.49841e-22)
(1.34965 0.00945481 -2.42303e-20)
(1.00204 0.00629843 1.22403e-20)
(1.44663 -0.0520771 0)
(0.810447 0.0318297 0)
(1.09688 0.0342802 3.06442e-21)
(1.19462 -0.224048 -9.75167e-21)
(1.29546 -0.00550904 1.23358e-20)
(1.04977 0.0492926 -1.22666e-19)
(1.15816 0.0422806 -1.17591e-21)
(1.13545 0.079482 6.40547e-21)
(0.785105 0.0199802 0)
(0.916807 -0.044024 7.77922e-20)
(1.14873 0.0250717 -3.79917e-21)
(1.41057 -0.269913 -1.43623e-20)
(1.12842 -0.0538538 -5.17556e-21)
(0.930734 0.0144142 2.61182e-21)
(-0.247555 -0.0705719 0)
(0.859879 -0.0172673 1.98613e-21)
(0.800632 0.0250981 0)
(1.06369 0.000520475 -9.6736e-23)
(1.01296 0.0285323 0)
(1.31773 0.318926 8.13008e-21)
(1.03321 -0.0564117 -3.41195e-20)
(1.25193 0.128833 3.49449e-21)
(1.14905 -0.0692797 0)
(1.09244 -0.0242079 0)
(0.527108 -0.024831 0)
(1.12699 -0.0394029 -2.98955e-21)
(1.25773 -0.061921 6.94978e-21)
(1.06895 0.113828 -3.25336e-20)
(0.843795 -0.018352 0)
(1.10661 0.0248023 -8.88117e-22)
(1.07952 -0.0636594 1.84688e-21)
(1.17979 -0.0154473 -1.58768e-21)
(0.990261 0.0345305 2.85629e-21)
(1.13557 0.00387331 1.9456e-23)
(0.0157099 0.0822885 0)
(1.09703 -0.0260974 -1.53382e-20)
(1.18406 0.053493 6.98498e-23)
(0.717319 0.024511 -2.61079e-21)
(1.26566 0.16817 2.63386e-21)
(0.95968 -0.0517141 5.48826e-21)
(1.04696 0.0160133 1.76401e-20)
(0.990147 0.0261487 0)
(1.11693 -0.0743641 -3.61515e-21)
(0.963527 -0.00645585 0)
(0.938549 0.0299243 5.33215e-21)
(0.970062 0.286891 1.46256e-19)
(0.972534 0.0350441 0)
(0.818241 0.106391 0)
(-0.101754 0.0675728 -6.98802e-20)
(1.34618 0.129655 -1.36367e-20)
(0.687217 -0.0223028 0)
(1.47125 0.00519949 0)
(1.171 -0.0309483 0)
(1.35669 0.0755744 1.55301e-20)
(-0.0355013 -0.0576224 0)
(-0.0524415 0.109165 3.40219e-20)
(0.934365 -0.060553 6.50858e-20)
(1.0071 0.0406355 6.92429e-22)
(0.858889 0.000903043 0)
(1.02977 -0.0412472 7.98968e-21)
(0.893633 0.0230533 0)
(0.669802 -0.0365087 -7.03544e-20)
(1.0223 0.0428534 7.4101e-21)
(1.12084 -0.0667778 2.34597e-21)
(1.0976 0.00891929 6.18438e-21)
(1.01523 0.0712671 -1.15768e-20)
(0.643395 -0.0934222 -5.46402e-21)
(1.13174 -0.349276 7.85707e-22)
(0.916866 -0.0261769 0)
(1.06946 -0.00123191 -1.45509e-20)
(0.873409 0.0104493 -1.02284e-20)
(1.37115 -0.184461 1.70273e-21)
(0.695766 0.0242774 0)
(1.01806 -0.145028 0)
(1.10249 -0.0514375 2.18673e-21)
(1.3971 0.212192 1.09358e-20)
(1.1187 0.0183002 4.27202e-21)
(1.03704 0.0169118 2.05175e-20)
(0.76831 -0.00733737 -7.96719e-20)
(0.813547 0.00341856 1.87597e-20)
(1.13633 -0.0169798 3.84459e-21)
(1.39289 -0.109597 -4.36066e-21)
(1.09917 -0.0595335 -4.75817e-21)
(1.32807 -0.0663866 3.73657e-21)
(-0.109524 0.0831329 5.12728e-20)
(1.28605 -0.0487042 0)
(0.612421 -0.0219129 0)
(1.0623 -0.0291788 -7.34179e-21)
(1.10318 0.0112281 4.89038e-21)
(0.0846281 0.0872019 0)
(0.875422 -0.0220069 3.19154e-22)
(1.09361 -0.0441405 -3.11441e-21)
(0.963574 0.0240592 1.0938e-21)
(1.0791 0.0371147 -7.04133e-21)
(1.00658 0.0200161 2.79202e-21)
(1.03179 -0.0392753 2.74729e-21)
(1.04818 0.0343144 0)
(0.312589 -0.0350353 0)
(1.0481 -0.0622311 0)
(1.16272 0.104379 -3.05451e-20)
(-0.040694 -0.0530566 4.2149e-20)
(1.08512 0.0231599 -1.12456e-23)
(1.19999 0.13617 0)
(0.751917 0.0201352 -5.23001e-21)
(1.18002 -0.094886 1.2307e-21)
(-0.00617332 -0.0375625 -1.33588e-19)
(0.719767 -0.0161542 -3.78041e-20)
(0.630051 -0.0213235 0)
(0.987066 -0.0887335 0)
(0.93873 0.0365271 6.91252e-21)
(0.984315 -0.112809 5.01659e-21)
(1.28538 0.397354 7.16374e-22)
(1.13146 -0.0878539 -1.86298e-23)
(1.10856 -0.0789852 -5.48758e-21)
(1.00262 -0.0868148 0)
(1.36894 0.423052 -4.08546e-20)
(0.659767 -0.0165972 0)
(0.800008 -0.0233141 -3.83837e-21)
(1.05126 -0.0283094 3.00372e-22)
(0.584992 0.0171092 0)
(1.1003 -0.00603413 0)
(0.0181351 -0.0295275 -3.58379e-20)
(1.04712 -0.0658982 -1.20965e-20)
(0.71782 -0.0189598 2.36766e-21)
(0.990398 -0.00285066 0)
(0.555959 -0.0175534 0)
(0.757715 -0.0186669 -3.70081e-21)
(0.529878 -0.0219247 -6.89806e-22)
(1.32681 0.0241723 2.98888e-22)
(1.28123 0.126891 -3.40507e-21)
(0.694388 0.0182928 -1.55304e-21)
(1.11132 -0.0408323 1.91415e-22)
(1.16028 -0.0960944 1.7556e-23)
(0.542245 0.015649 4.17046e-21)
(1.20107 -0.061745 4.90184e-23)
(1.16287 -0.0415406 0)
(0.909 -0.132109 0)
(0.492191 0.0183153 0)
(1.03119 -0.021915 0)
(1.20552 0.023545 -1.38858e-21)
(1.03075 -0.0639613 0)
(1.14376 -0.0311885 0)
(1.0148 -0.0535311 0)
(1.05409 -0.0980883 0)
(-0.0190437 -0.028458 4.08027e-20)
(1.26571 -0.00704746 6.20499e-22)
(1.05089 -0.0548241 0)
(1.37395 -0.00253954 1.96641e-20)
(1.19302 -0.00100539 9.79516e-22)
(1.10772 0.0538553 5.75843e-22)
(1.16245 0.0272373 4.93379e-21)
(1.19052 0.00458563 0)
(0.580177 -0.0169344 7.69854e-21)
(1.05243 0.0426545 1.12596e-20)
(1.1674 0.00316639 0)
(1.22562 -0.0616125 -1.35483e-21)
(1.17404 -0.00757489 2.02974e-21)
(0.579279 0.230159 -5.95934e-21)
(1.14183 0.0453096 2.94675e-21)
(1.22458 -0.0161859 -4.40618e-21)
(0.993129 0.0624393 0)
(1.14938 -0.00348947 -2.12914e-20)
(1.08961 0.0249672 -5.06355e-21)
(0.693096 -0.112037 2.91967e-22)
(0.898735 0.152407 0)
(-0.0176312 -0.0201222 0)
(0.976872 0.115552 -1.76547e-20)
(1.17517 -0.0315595 0)
(1.24741 -0.0499025 1.09127e-20)
(1.15564 0.0349727 9.04761e-22)
(1.22634 -0.051136 4.23611e-21)
(1.12247 0.0347229 -1.66398e-21)
(1.33727 -0.0757231 8.72354e-20)
(1.01299 -0.320426 6.21115e-20)
(1.12452 -0.0171341 -7.07693e-22)
(1.03428 0.10743 0)
(0.866528 0.122935 0)
(0.906594 0.00312828 -2.98602e-20)
(1.20857 -0.0952039 -3.19141e-20)
(1.20722 0.0208963 0)
(0.53017 -0.199786 8.25279e-21)
(0.286051 0.155211 0)
(0.685583 0.138436 7.28901e-21)
(0.795241 -0.122544 -9.52205e-21)
(0.823239 0.0284185 -4.23752e-21)
(1.15153 0.0209298 0)
(1.25857 0.0754346 -1.05538e-21)
(1.14611 0.10843 3.43053e-21)
(0.657062 0.0321143 -1.00282e-20)
(1.18684 0.0276167 -4.45256e-21)
(0.845742 0.0631531 0)
(1.09195 0.0700038 0)
(1.01546 0.0514495 9.84967e-21)
(0.770476 0.0630914 -7.3631e-21)
(1.25979 0.00619737 7.67766e-21)
(1.15611 -0.0165644 -4.15655e-21)
(1.02165 0.126931 6.55484e-22)
(1.15437 -0.028022 0)
(0.40495 -0.135781 1.24337e-20)
(1.33785 0.0739082 -2.21779e-20)
(0.945115 -0.00640287 -3.42511e-22)
(0.0871123 0.229287 6.30044e-21)
(1.41502 -0.165909 2.0535e-20)
(0.937035 -0.0720955 7.48741e-20)
(1.19268 0.0599642 -1.00348e-20)
(1.12337 -0.0178423 -8.56373e-22)
(-0.0639002 -0.0525287 -7.19679e-21)
(1.00111 -0.00723322 0)
(1.03399 -0.0855016 -1.67593e-20)
(0.853841 -0.0335887 6.2099e-21)
(1.10732 -0.0591831 3.53928e-21)
(0.697317 -0.063671 -7.44169e-22)
(0.502206 -0.0195349 -1.23344e-23)
(1.40198 -0.388818 -1.49251e-20)
(1.14896 0.0443585 0)
(1.02613 0.024754 -1.48433e-21)
(1.14384 0.0401191 -1.99158e-21)
(1.27209 0.0174798 0)
(0.696974 0.110955 -5.02503e-21)
(1.14279 0.0324612 2.84575e-21)
(0.625438 -0.126519 2.28821e-20)
(1.15091 -0.029717 1.90231e-21)
(0.875433 0.103997 3.61319e-21)
(-0.0382249 0.0172169 0)
(0.590781 0.26533 3.37905e-20)
(1.17217 0.0486829 0)
(0.996556 0.239518 1.30342e-20)
(0.92048 0.251026 0)
(1.12686 -0.00564594 1.41147e-21)
(1.01617 0.0262791 0)
(1.05391 0.0802057 0)
(1.39437 -0.143554 1.79936e-20)
(0.793382 -0.0807982 0)
(1.20582 -0.191153 9.0737e-21)
(1.10884 -0.0344816 9.32831e-23)
(1.06857 0.0403034 2.39327e-21)
(1.24751 -0.0695633 -7.2984e-21)
(1.24517 0.114035 -6.5861e-21)
(1.2259 -0.0878789 1.84687e-20)
(1.19256 0.0326868 0)
(1.1958 -0.0380093 0)
(1.13403 0.0275812 1.86429e-21)
(1.21863 -0.0180529 0)
(1.42639 0.207258 -2.77803e-20)
(0.719996 -0.148988 -1.01689e-21)
(1.02721 0.0162865 2.03869e-20)
(1.29201 0.019835 -3.53782e-22)
(-0.0135118 0.0239954 0)
(-0.0251294 -0.0402824 0)
(0.0306672 0.0283943 -3.43842e-20)
(-0.0647765 -0.063068 0)
(0.658511 -0.187755 -1.1673e-20)
(1.17617 0.0384637 -1.96089e-21)
(1.19065 -0.0613806 -3.7763e-21)
(1.23794 -0.0250473 -1.6764e-21)
(1.19616 -0.0248511 0)
(0.674142 -0.0170857 -1.7118e-21)
(1.15911 0.021128 0)
(1.13838 0.0174123 1.34779e-21)
(0.490547 -0.107901 0)
(0.798212 -0.136839 -2.1451e-22)
(1.11844 0.0334838 0)
(1.13474 0.0407884 0)
(0.694958 -0.0104518 4.62237e-20)
(0.640931 -0.0990736 -1.22364e-21)
(0.787725 -0.0615991 2.21316e-21)
(1.01154 0.0180553 -9.99101e-21)
(0.140704 -0.0687522 0)
(1.24569 -0.143871 -1.48891e-20)
(1.23304 0.0970816 -7.13606e-21)
(1.1421 -0.134001 -1.89114e-21)
(0.783329 -0.0420249 -1.56808e-21)
(-0.0531372 -0.00923848 -8.92582e-20)
(1.12478 0.0642332 0)
(-0.0354206 0.045214 0)
(1.15842 0.106156 2.66415e-21)
(0.458289 0.127306 1.68762e-21)
(1.13317 0.0572878 -6.64075e-21)
(1.11964 -0.0380252 0)
(1.19316 -0.0918862 3.04039e-21)
(1.14653 -0.101537 3.45205e-21)
(0.515199 -0.047967 -8.30491e-21)
(1.14362 -0.0306936 -1.10499e-21)
(1.19651 -0.0385461 -1.78753e-22)
(-0.099596 0.0449583 8.13896e-21)
(1.27857 -0.0577258 -2.22152e-21)
(1.14003 0.0448651 0)
(1.13482 0.0476827 0)
(1.19106 -0.0259485 1.81946e-21)
(1.17219 0.0952209 6.44935e-21)
(0.49011 -0.113489 -1.40968e-20)
(1.19 -0.128169 -1.96141e-20)
(1.11495 0.0592945 3.84897e-21)
(0.514003 -0.00102941 1.02746e-20)
(0.183193 -0.134522 -8.40662e-20)
(-0.0998371 -0.325095 1.46948e-20)
(1.17704 0.184528 -6.71911e-21)
(1.22303 -0.492287 3.39509e-21)
(1.43513 0.0555879 -1.70415e-20)
(1.20091 -0.0318095 -2.15616e-21)
(0.932517 -0.228031 9.69191e-20)
(-0.232625 -0.154887 0)
(1.18459 -0.0673744 -6.29288e-23)
(0.256286 0.142606 -2.94511e-20)
(1.14347 0.093868 -2.30532e-21)
(1.13943 -0.0256413 7.51975e-21)
(1.09549 0.03957 0)
(0.618616 0.0833864 0)
(1.17582 -0.058746 0)
(1.24417 0.227999 -5.9687e-21)
(1.27877 -0.0294691 -2.55322e-20)
(1.15562 -0.0375008 2.19978e-23)
(0.454127 0.017662 0)
(0.604431 0.0116813 0)
(0.60293 -0.00252957 5.7024e-22)
(0.422094 -0.0135653 0)
(1.14834 0.074563 0)
(1.02067 -0.0137687 2.68594e-20)
(0.14168 0.287243 0)
(0.912015 0.0318127 0)
(1.14239 -0.0362765 0)
(1.17733 0.182662 -4.20946e-21)
(1.28382 0.0456429 1.35911e-20)
(0.967402 -0.0295773 6.05354e-21)
(1.27296 -0.399927 -9.74528e-20)
(0.437042 0.0265565 -6.75653e-21)
(1.23008 -0.0120642 6.96718e-21)
(1.27669 -0.0560044 0)
(-0.368535 -0.155406 0)
(-0.272578 0.00147875 0)
(1.15887 -0.0290342 -2.17031e-21)
(1.31052 -0.294637 -1.43539e-20)
(1.36009 0.149828 0)
(1.09835 0.0325678 -7.17881e-21)
(0.313046 -0.185531 0)
(1.49527 -0.18479 6.03792e-20)
(0.415516 0.52587 1.1065e-19)
(0.255313 -0.0375824 0)
(1.07935 -0.276805 1.04598e-19)
(0.280448 -0.141671 0)
(-0.258569 -0.0206304 5.17853e-21)
(1.39655 0.111004 0)
(-0.0828861 -0.050352 -1.48488e-21)
(0.983615 -0.0499126 0)
(1.23267 -0.0433607 -4.01808e-21)
(-0.142203 0.00741399 -7.03712e-21)
(1.12451 -0.0261111 9.74032e-22)
(1.22113 -0.158734 -2.53878e-21)
(0.56706 -0.504126 -9.43155e-20)
(1.13385 -0.00976573 -1.68689e-21)
(1.19176 -0.134803 6.02412e-21)
(1.18662 0.248964 -1.82902e-20)
(1.13735 -0.0395104 4.40231e-21)
(1.15429 -0.0106211 -2.85718e-22)
(-0.110951 -0.225664 -6.14581e-20)
(0.080891 0.104794 -7.80284e-21)
(1.20391 0.0388551 2.85665e-21)
(1.06024 -0.0517384 0)
(0.424316 -0.0783113 -9.51964e-21)
(1.38492 -0.443541 7.06531e-20)
(0.893192 -0.0751356 -5.05375e-20)
(1.4529 0.140599 8.36292e-20)
(1.09152 -0.0543694 2.53912e-21)
(1.27293 -0.0925337 1.68207e-21)
(1.0614 -0.0078724 0)
(1.19017 -0.0269147 0)
(1.2513 -0.0352305 1.02265e-21)
(1.08754 -0.0209772 -4.47819e-21)
(1.10839 -0.0308893 -4.33827e-21)
(1.08821 0.0446095 -5.81194e-21)
(1.43818 -0.0652551 -4.27925e-20)
(0.453201 0.0347465 0)
(1.26231 -0.0340496 1.71468e-21)
(1.36904 0.0894725 0)
(1.10433 0.0561398 -2.63313e-21)
(1.1429 0.0233576 0)
(1.0425 -0.00992967 1.40951e-20)
(1.23124 0.0311207 1.53468e-20)
(1.11203 -0.00550925 0)
(0.0506765 -0.0288541 1.42167e-19)
(0.881713 -0.206249 -7.60151e-20)
(1.22945 -0.0866948 -2.55434e-20)
(-0.118407 0.0107333 3.91447e-20)
(1.20726 0.0367187 3.92665e-22)
(0.703935 0.0157618 3.00358e-21)
(-0.0960031 0.0474472 -4.08069e-20)
(-0.0276959 0.0538235 -2.6681e-20)
(1.01752 -0.0302983 0)
(-0.0264245 -0.0283269 0)
(1.25485 0.0167692 0)
(0.111138 -0.0947319 0)
(1.11729 -0.0254974 0)
(0.131477 0.0313818 0)
(1.11875 0.0571918 0)
(1.23382 0.15603 0)
(1.32936 0.123741 -2.76322e-21)
(0.565544 -0.280727 -1.91916e-20)
(-0.142276 0.112201 0)
(1.09233 -0.103636 5.25805e-20)
(1.24629 -0.0387794 1.97886e-21)
(1.32142 -0.0103626 0)
(-0.0355113 -0.0379601 0)
(1.15935 0.0109659 3.40301e-21)
(1.16583 -0.00836354 -1.73637e-21)
(1.17494 0.39241 0)
(0.21037 -0.0571622 5.14629e-20)
(1.12052 0.0563459 1.0797e-21)
(0.226182 -0.0506824 -4.83776e-20)
(-0.061229 0.0512 -3.29657e-20)
(-0.0350374 0.0497699 8.49575e-20)
(0.57594 0.0255742 4.58846e-20)
(1.07687 -0.0588042 -2.82623e-21)
(1.132 0.0666711 -8.47298e-22)
(1.02327 -0.00807085 0)
(1.06942 -0.0723465 -2.34479e-20)
(1.26052 0.0706595 -1.46074e-20)
(-0.00887315 0.000733929 9.28208e-20)
(0.978483 -0.0708721 -6.15553e-20)
(0.55794 0.0664072 1.54225e-20)
(1.08623 -0.0328367 -4.21217e-21)
(0.0709331 -0.0292344 3.02201e-20)
(0.237944 -0.0372576 -4.34116e-20)
(0.368915 -0.0478156 -4.66464e-20)
(1.19973 0.166477 -8.55791e-22)
(-0.0507319 -0.029677 0)
(0.913144 0.120418 8.76742e-21)
(1.16902 -0.0417102 5.00481e-21)
(1.14033 0.00784488 -4.82504e-21)
(1.27267 -0.0515978 0)
(1.50607 -0.238861 6.12186e-20)
(1.12719 0.0383548 -2.5498e-21)
(-0.0106409 -0.0163511 -3.07576e-20)
(0.322072 0.0831204 0)
(0.896648 0.0286972 -1.62875e-21)
(1.14067 0.0249447 -3.54003e-22)
(0.697899 -0.146739 8.71058e-21)
(1.15963 0.010122 -1.06968e-21)
(1.11755 0.0490467 0)
(1.1156 -0.173547 -1.32529e-20)
(-0.0980959 -0.039774 -5.81031e-20)
(1.31895 -0.043865 1.93744e-20)
(1.10534 0.175603 -8.91918e-21)
(1.09668 0.0385068 6.64703e-21)
(-0.0362837 -0.0397652 1.36944e-20)
(-0.0273636 0.0485441 -6.51798e-20)
(0.633522 -0.000709961 0)
(0.846346 0.0960223 0)
(1.15423 0.0971034 -1.45711e-20)
(1.05213 0.0686493 1.18705e-20)
(1.11983 0.0193145 0)
(0.388388 -0.0477173 3.64367e-20)
(0.741148 0.0900328 -1.17533e-20)
(1.09999 0.108355 0)
(1.09652 0.0291753 0)
(1.3959 0.125409 0)
(1.22745 0.0693633 0)
(1.22034 -0.0234979 1.78032e-21)
(-0.0429564 0.0463922 3.60068e-20)
(1.2011 0.0753775 4.01687e-21)
(1.38064 -0.20407 -6.9257e-20)
(1.29744 0.013742 -3.62016e-21)
(0.0321601 -0.0265624 0)
(1.20077 -0.0516993 0)
(0.61131 -0.012715 -6.55229e-23)
(0.543451 0.00898901 -6.05292e-20)
(0.0729948 0.0363417 4.91112e-20)
(0.930084 0.0248832 1.69631e-21)
(0.727885 -0.268941 0)
(0.66016 -0.0894982 0)
(1.2679 0.0317798 0)
(0.544633 0.519296 2.40229e-20)
(-0.0200338 0.0423419 -3.00643e-20)
(1.04866 -0.0469418 -2.55012e-21)
(-0.0177073 -0.0174444 5.76696e-20)
(1.10535 -0.0396704 3.04196e-21)
(1.18002 0.316617 3.48841e-20)
(1.11224 -0.094448 9.45946e-21)
(0.288236 -0.12665 8.01324e-20)
(1.00161 0.00539009 4.89693e-21)
(1.20939 -0.149883 0)
(0.563933 0.273771 0)
(0.94164 0.045097 1.87189e-21)
(-0.20169 0.0586525 0)
(0.608869 0.0278916 2.06587e-21)
(0.594187 -0.410348 -2.59813e-21)
(0.242256 0.0496735 -1.14866e-19)
(1.12031 -0.227215 3.76931e-20)
(1.0435 0.370363 9.99499e-21)
(0.9787 0.0229223 0)
(1.2473 -0.104671 1.59379e-22)
(0.631853 0.0154537 0)
(0.976994 -0.0194974 -7.04982e-22)
(0.417868 -0.0183099 0)
(0.711797 0.139602 0)
(1.00189 -0.0208416 -3.32564e-21)
(1.44212 0.167471 -1.56458e-20)
(1.09356 -0.0248274 4.07999e-21)
(0.514657 -0.483363 0)
(1.13108 -0.157942 3.48769e-21)
(0.807093 0.386536 7.00147e-20)
(-0.0395542 0.0207029 1.19685e-21)
(1.21251 -0.0225309 9.8139e-21)
(1.21069 0.0286953 -1.16761e-20)
(1.13126 -0.0245081 9.04044e-22)
(0.78733 0.0120896 -3.08427e-21)
(0.0634125 0.0187661 3.83007e-20)
(-0.0184733 0.0171122 -5.23592e-20)
(-0.227527 0.0265828 0)
(-0.196228 0.152831 0)
(1.17009 -0.609592 2.87501e-20)
(1.14838 -0.0236557 2.788e-22)
(0.872898 -0.458424 -3.73044e-20)
(1.01106 0.155825 -1.86894e-20)
(1.37686 0.196294 3.57803e-20)
(0.608662 0.424663 0)
(0.248633 0.422783 -1.13289e-19)
(0.599119 0.491902 0)
(0.0725091 0.0461639 0)
(1.11238 -0.475669 0)
(-0.0503945 0.0684886 -4.63065e-22)
(1.20357 -0.0243149 0)
(0.954112 0.21982 -3.99927e-20)
(0.600672 0.701968 2.08097e-20)
(1.34934 0.224091 1.41066e-20)
(-0.0376931 -0.0565461 -9.59745e-20)
(0.826552 0.261202 -2.50035e-20)
(0.456882 0.14576 -1.38289e-20)
(1.20476 0.0872434 0)
(1.36955 0.355773 3.74204e-20)
(1.23043 0.571163 9.02081e-21)
(0.161945 -0.0146226 -2.27549e-20)
(1.02259 0.131137 3.38119e-20)
(0.927281 -0.0266583 3.95072e-22)
(0.906036 0.0278788 -3.98704e-22)
(-0.00509294 -0.0233363 0)
(0.638521 -0.639753 -3.20912e-20)
(0.613982 0.212287 0)
(0.0328983 -0.0861402 0)
(-0.05129 0.0733568 0)
(-0.0209756 -0.066441 -3.59344e-20)
(1.23096 -0.00324718 -1.12857e-20)
(-0.0239362 0.0770581 0)
(-0.0385357 0.0754491 0)
(1.44257 0.112094 -8.0247e-20)
(-0.0350487 -0.0533425 4.35566e-20)
(0.115985 0.241605 -1.00578e-19)
(0.392504 0.0180892 0)
(0.166875 -0.267748 8.30713e-20)
(1.06364 -0.238298 0)
(0.990982 -0.280525 0)
(-0.0112766 -0.0588438 8.99583e-20)
(1.14789 0.033546 -5.2916e-23)
(1.13134 0.347307 2.7437e-20)
(0.265353 0.0282259 4.74166e-20)
(0.397671 -0.507356 -4.18386e-20)
(1.31435 0.0655712 0)
(1.23161 0.195351 2.27699e-20)
(1.22917 0.210754 -2.79679e-20)
(0.103027 0.0982754 -2.34931e-20)
(-0.0635523 0.0446809 0)
(1.06858 -0.0586443 -1.9964e-20)
(1.09675 -0.221718 -1.85095e-20)
(0.577543 -0.391816 0)
(1.09507 -0.149054 -2.79657e-20)
(-0.0650395 0.126291 0)
(0.622296 0.050434 0)
(1.4565 -0.00465029 3.73715e-20)
(0.976287 0.0252888 3.78258e-22)
(1.08493 0.752204 -1.47226e-20)
(0.22175 -0.369402 1.37683e-19)
(1.08081 0.0239791 -9.9647e-22)
(1.20817 0.070177 7.68654e-22)
(-0.0542441 0.0960059 3.08192e-20)
(0.793929 0.740628 2.64992e-20)
(1.33458 -0.373575 -1.28008e-20)
(-0.181816 -0.181952 6.38044e-20)
(1.1418 0.0475833 0)
(0.272826 -0.0510168 -9.26545e-21)
(0.883895 -0.626145 2.34345e-21)
(0.907264 0.647087 -2.18058e-20)
(0.52516 -0.0362934 -5.60267e-20)
(1.14325 -0.00747001 -1.84139e-21)
(1.07574 -0.0870325 7.90064e-21)
(1.15975 0.0651183 -7.13067e-22)
(1.10766 0.120288 3.39967e-21)
(1.12953 -0.13374 0)
(0.918489 0.110023 1.48582e-20)
(0.893858 0.462322 0)
(1.30802 0.144609 5.41086e-21)
(1.17009 0.110515 -9.48298e-22)
(0.75845 0.265867 0)
(0.525437 0.110878 1.09566e-19)
(0.900013 0.720676 -7.44723e-22)
(1.08305 0.293957 -2.10712e-20)
(1.04393 -0.0122646 1.31901e-20)
(0.418246 0.50387 0)
(1.28162 -0.472516 0)
(0.661172 -0.132733 5.52639e-21)
(1.2722 0.50689 0)
(-0.0232696 0.0615729 -4.35947e-20)
(1.27101 -0.415682 1.38667e-21)
(1.17221 0.514966 0)
(0.453104 0.230457 1.69298e-19)
(1.13206 0.318295 -1.22653e-19)
(0.805712 -0.628559 -2.84397e-20)
(1.16674 0.0664479 -3.11401e-21)
(0.924332 0.152711 8.30534e-20)
(1.0923 0.170008 5.04679e-20)
(1.07843 0.710448 -1.79404e-22)
(0.895164 -0.429083 6.92769e-20)
(1.44061 0.172903 4.28907e-20)
(1.12812 0.00820668 -4.79727e-22)
(0.00137035 -0.0350804 8.10455e-20)
(1.06827 -0.693806 1.71439e-20)
(0.859877 -0.708523 6.01877e-20)
(0.247607 -0.31574 0)
(0.970639 -0.14367 7.63373e-20)
(0.364357 0.321422 -4.39369e-19)
(-0.132358 0.0283222 1.90531e-20)
(0.250704 0.0515384 2.32027e-20)
(0.654535 -0.0585854 -6.64872e-20)
(1.08616 0.535992 0)
(0.994691 0.226051 8.00636e-20)
(1.08718 0.0306943 3.26453e-21)
(0.916153 0.450505 -9.02702e-20)
(0.768861 -0.713101 -9.8499e-21)
(0.927319 0.0290803 -4.97875e-20)
(0.982833 0.497046 0)
(1.22126 0.235223 -1.98109e-20)
(1.36567 -0.513913 1.10307e-20)
(1.21868 -0.340441 8.13082e-21)
(-0.211201 -0.00383752 3.64449e-20)
(0.193782 0.0201724 -1.8283e-20)
(0.971432 -0.11419 -5.93099e-20)
(0.357115 0.53674 0)
(0.916325 0.023544 3.96702e-20)
(1.1644 0.641197 8.24334e-20)
(-0.0984832 -0.0489755 1.23624e-19)
(-0.0658457 0.0888884 -2.57359e-20)
(-0.0818447 -0.0220224 3.78482e-20)
(1.09653 0.0225278 -4.34223e-21)
(1.11254 -0.456142 0)
(1.054 -0.725242 -5.04156e-20)
(0.701529 0.359299 0)
(-0.00171653 -0.0447755 -8.6493e-20)
(1.10821 0.026343 4.34652e-21)
(-0.0308268 -0.0277942 -2.57029e-20)
(1.04902 0.0553732 -1.23942e-20)
(0.105757 0.034441 5.64937e-20)
(0.854385 0.128381 0)
(1.38625 -0.0747914 4.18303e-20)
(0.0584717 0.0640959 -2.63436e-20)
(-0.242277 0.0533886 -4.32721e-20)
(-0.245604 0.0744231 0)
(0.0756933 -0.00971906 0)
(1.34429 -0.0376528 -1.04309e-20)
(0.364409 -0.0107251 1.367e-19)
(1.25022 -0.719355 -1.20684e-20)
(0.940842 -0.20167 2.72566e-20)
(1.07727 0.254177 -2.95118e-20)
(0.361642 -0.542217 1.44447e-19)
(1.55803 0.277219 -3.58566e-20)
(0.0493933 -0.0430129 3.11247e-20)
(0.209763 0.319812 1.95857e-19)
(0.0798381 -0.022916 -1.17313e-19)
(0.935105 -0.48538 -4.52489e-20)
(1.46229 0.38932 3.62741e-20)
(0.556981 -0.662742 5.19997e-20)
(1.10629 -0.0866966 -7.71726e-21)
(0.151159 0.0237519 4.62863e-20)
(1.19069 0.292828 -4.89302e-20)
(0.666819 0.650381 -3.99237e-20)
(1.31802 -0.618395 0)
(1.42635 0.522488 3.44923e-20)
(1.04265 -0.522004 -1.19665e-20)
(1.39714 0.610696 -1.03738e-19)
(1.19377 0.038149 0)
(-0.055014 0.0952113 0)
(1.25938 0.735622 0)
(1.21097 0.0840885 -4.53772e-21)
(0.735044 -0.292073 -2.11739e-19)
(0.475419 -0.0713818 0)
(-0.0544069 0.107947 -2.61114e-20)
(1.01849 -0.244176 1.05151e-19)
(-0.330843 -0.0689882 0)
(0.321516 0.0394045 1.2353e-20)
(1.15488 0.0396836 0)
(1.4238 0.275171 0)
(1.20009 0.0618552 3.33456e-21)
(0.358164 -0.278039 0)
(1.01561 0.15348 3.7249e-20)
(1.31641 0.286884 0)
(-0.0866849 0.0921891 -7.76633e-22)
(0.807396 -0.386489 0)
(1.52458 0.337302 -5.39929e-20)
(1.24753 0.372474 -6.25282e-22)
(0.846623 0.655791 -9.67406e-21)
(1.01444 0.159851 -8.83876e-20)
(0.966586 -0.200418 -5.09435e-20)
(1.46083 0.294377 3.17778e-20)
(1.0289 0.102225 0)
(0.563634 -0.0606134 0)
)
;

boundaryField
{
    FrontBack
    {
        type            empty;
    }
    Top
    {
        type            noSlip;
    }
    In
    {
        type            fixedValue;
        value           uniform (1 0 0);
    }
    Bottom
    {
        type            noSlip;
    }
    Out
    {
        type            zeroGradient;
    }
    circle
    {
        type            noSlip;
    }
}


// ************************************************************************* //
