/*--------------------------------*- C++ -*----------------------------------*\
| =========                 |                                                 |
| \\      /  F ield         | OpenFOAM: The Open Source CFD Toolbox           |
|  \\    /   O peration     | Version:  2412                                  |
|   \\  /    A nd           | Website:  www.openfoam.com                      |
|    \\/     M anipulation  |                                                 |
\*---------------------------------------------------------------------------*/
FoamFile
{
    version     2.0;
    format      ascii;
    arch        "LSB;label=32;scalar=64";
    class       volScalarField;
    location    "1704";
    object      p;
}
// * * * * * * * * * * * * * * * * * * * * * * * * * * * * * * * * * * * * * //

dimensions      [0 2 -2 0 0 0 0];

internalField   nonuniform List<scalar> 
808
(
-0.03458622454012471
0.04430635166131543
-0.01122524397781808
0.036364438445969
-0.2996712549179179
-0.05536085036355128
-0.015262323145843
-0.02410552067642863
-0.197310773544907
-0.08424553361269929
-0.01051244624457174
-0.2545144532563574
-0.03066550504866531
-0.0136738294644716
-0.1204752383471231
-0.01417823985820419
-0.137202269962094
-0.01369128388426527
-0.01245528392515883
-0.05583361544105163
-0.007189329777758806
0.1175411045884553
-0.06219750307634658
-0.07198429673466371
0.1756012334497378
-0.1000993702247152
-0.1528731895039108
-0.020396978052639
-0.01747085591096303
-0.02568339739655139
-0.02030056117907288
-0.05866893116612334
-0.02276507503654126
-0.01686513295999835
-0.09994549572839485
0.344399101583681
-0.03939050430509387
-0.01645731292719435
-0.02285236768756536
-0.02650292675191106
-0.0906765032269901
-0.127092761683007
-0.05190159016908456
-0.02121417837631116
-0.0541837890077634
-0.04124162232820424
-0.01204396554902273
-0.1849788885374193
-0.02704500021476876
-0.2046478301062181
-0.01688269103461422
-0.06753133509144769
-0.06072469882818835
-0.01437453269402395
-0.1931183427795795
-0.0283372309468633
-0.01052116797397344
-0.01401304628827983
-0.1007042876157472
-0.03981974579261214
-0.1099318066528388
-0.1264080555838788
-0.01411403288622921
-0.1296827854722707
-0.017461159154072
-0.05169030151394775
-0.1656637624785998
-0.03547956628661357
-0.01509936597851592
-0.4412606387486751
-0.02649869115874462
-0.3022642543626679
-0.02164490150937287
-0.02097737969639466
-0.06542120329626773
-0.01780282464493202
-0.04260773683796611
-0.3619988251680618
-0.03616397915719238
0.04063652218627865
-0.09119132596061398
-0.01698374761034171
0.05708799731589492
0.04467681536936343
-0.01710377378500268
-0.05232963588645888
-0.5427210566993971
-0.2258966974292602
-0.0522996425085429
-0.1124683533024645
-0.05679753456465236
-0.1331058517104872
0.03950269269289951
-0.0252278212058003
-0.06180335069008136
-0.1215818283911898
-0.03832011972328938
-0.0518247891369965
-0.1166153235132742
-0.1404502925643403
-0.0527709341952301
-0.04740830153290116
-0.05455169512352633
-0.04487224066519753
-0.0574013428263137
-0.07450316842026682
-0.04005417333798397
-0.01077053018538911
-0.04028960160759547
-0.1244364218650157
-0.05039300145895587
0.08236330009606209
-0.0424025307926167
-0.007670425003687345
-0.02762851904199317
0.1805398932118992
-0.0388984296395692
-0.2691050357501828
-0.02065665566550017
-0.05373307310033406
-0.03817364053164127
-0.04884185679174836
0.01340344914121639
-0.04887371284462762
-0.03542874295649998
-0.2169956242987845
-0.04145821520720386
-0.004481298717552372
-0.07616959884635319
-0.06878550803671632
-0.1522141134050644
-0.02124242997053793
-0.07546383359627157
-0.04268203032578707
-0.02299261879107473
-0.01570503082963467
-0.006072713315454894
-0.007616157899153864
-0.05241608670728449
-0.04987735923672225
-0.2103549534313434
-0.05677122336845756
-0.008334664381518716
-0.02224686494638259
-0.1471434794683738
-0.00206073603373558
-0.07650978666366454
-0.02236303034253655
-0.0003362830427022485
-0.01007495707378755
-0.03330386097719482
0.09444372483528364
-0.03881899729013128
0.2521894130883752
-0.2590373771892052
-0.1322928419299007
-0.03775004788955533
-0.09088896447223271
-0.00900707269618215
-0.1133991837144354
-0.1736828041108136
-0.2126645216414174
-0.1817891248145753
0.05621518115723375
-0.06298987225580895
-0.02050458893236398
-0.06698835071687251
-0.1743510885420659
-0.0234023809791917
-0.01877256529337071
-0.05213513033053356
-0.019442483392137
-0.006888471505713162
-0.1083916956383194
-0.02334137642324624
-0.0453714784353836
-0.07005878039846258
-0.1617729023979732
-0.03332117619673817
-0.3891242943344943
-0.01786299508957263
-0.22527902740835
-0.04440197085555672
0.0318040951100098
-0.105160853025656
-0.01549767771818286
-0.04261458574566396
-0.1055060594057692
-0.01785245657390344
-0.09637010826435927
-0.2031334049296585
-0.07210131406717833
-0.02405571327661536
-0.04843486496063135
-0.04284644443441003
-0.2011738482924058
-0.02225242627797994
-0.01922559689429623
-0.01132264831437352
-0.05614333252839219
-0.05085991998696862
-0.02265243727289445
-0.02065535073429851
-0.2385616828113021
0.1274850136776796
-0.2041415263545764
-0.1972235779987357
-0.01172659180558706
-0.01142746784100021
-0.06702298420899926
-0.009854525131662637
-0.5002574697546748
-0.1273240870434726
-0.01943771274051143
-0.001359541863690622
-0.02392649450961096
-0.2813664196401955
-0.2765890361683212
-0.007488559074581226
-0.01796162090581441
-0.002235771681816846
-0.3473755982756036
-0.02850728411070583
-0.02934782720599537
-0.01264320893418164
-0.01955173028974192
0.04967943343287944
-0.121805488904479
-0.01398174672932316
-0.02086131695361671
-0.04431393257747361
-0.01834024418143099
-0.01634094193702098
-0.02346104808634345
-0.06744046606956143
-0.01136149887218455
-0.01895515147332696
-0.008861154559887655
-0.001313432826006762
-0.02938911191911654
-0.001921246257899491
-0.002076879754556805
-0.005899108643976072
-0.02553008315197834
-0.00811023219237794
0.001658363879461715
-0.004091215324280495
0.001169344667076358
0.002341509599460712
-0.008671878380148565
-0.1324060410677046
-0.002963741065907158
-0.0002877571497868861
-0.04760766637957955
-0.02138360569684912
-0.02421098862840012
-0.01412684389325537
-0.0061539346608834
-0.02107545224047551
-0.03882332332520556
-0.01485689685892465
-0.01262395513897286
-0.01183516574901253
0.005645620949169934
-0.009797602752379479
-0.01302910077701138
-0.01130918974237579
-0.01029689790861587
-0.01004986809669064
-0.01092940380958605
-0.01375816246788412
-0.2977726837508013
0.05996444507966657
-0.01509383715312217
-0.01617691114010729
-0.01257682034805398
-0.01254647203615731
-0.008351719941399579
-0.09957327777185943
0.01071279308742265
-0.0142946281303027
-0.01422659603776817
-0.01072653774022163
-0.05207826011491632
-0.008307947570562055
-0.01398672759685905
-0.00942459269535236
-0.002354854477619561
-0.01062207108086099
-0.01045336247354746
-0.02452372520584566
-0.01592645194222318
-0.01235532493603683
-0.01335813310268338
-0.009704572474306889
-0.01330260969795247
-0.01096189141001175
-0.05867482554492334
-0.01311666935483382
-0.01213383418800772
-0.009009319953588805
-0.01525509533653089
-0.01416951817998387
-0.01572540489067121
-1.374369206710485
-0.09949044065939713
-0.01200995133130186
0.02275930161806882
-0.1637769304188485
-0.09399814959480707
-0.0117612138073636
-0.01420638983909269
-0.2488005430749965
-0.02952623965341879
-0.01911268063358633
-0.01175741062705819
-0.02026489657980874
-0.01112236584498643
-0.03074388698465638
-0.4118918037873138
-0.01204528220406094
-0.01408261715682979
-0.004611972163081832
-0.01049857683280779
-0.009172628507284388
-0.01407386923629303
-0.009138408960092839
-0.02693750672780338
-0.0115320773408533
-0.1650341759953004
0.01864510010124044
-0.007560138485053183
0.003290756631002937
0.01197410370344466
-0.04829808141095188
0.02869241372648866
-0.01274180302392245
-0.134648145973305
0.2824199684014748
-0.007929610524130031
-0.01329587086245311
-0.008152251851840341
-0.03343763477623729
-0.1242119634406525
-0.01342621734326449
-0.01214459668007026
-0.01750524483997591
-0.0135870585922807
-0.04139845402127163
-0.2171866667078456
-0.01021380128545228
-0.04252594113569732
-0.03898157567479412
-0.1736403346514148
-0.1559225127399305
-0.1547392889671267
-0.2495368113059509
-0.004278993802527655
-0.02095101938214307
-0.01533434868279994
-0.01362532436768552
-0.03335665460262992
-0.02443911875022333
-0.01418548320892529
-0.01499797444867315
-1.076454928724487
-0.003186586589562195
-0.01364358756782961
-0.01815228460373296
-0.01791492458019435
0.005640434018809586
-0.01397205887329651
-0.02657993042439267
-0.1626719693129061
-0.01357887103989398
-0.02132648968585014
-0.01446545817704669
0.00205446343742602
-0.1777561888550091
-0.01300091010855499
-0.1528431332282202
-0.01569560158535451
0.008792837786475299
-0.01411752827014221
-0.02380696424451099
-0.01625478530001604
0.006945562481916996
-0.2707393727502033
-0.02626598431411324
-0.01668781435851893
-0.01378047763428614
-0.01038612523207425
-0.02987644628423911
-0.01399322429728319
-0.02091956138886877
-0.02086142709217096
0.008427724626713356
-0.09929444104218403
-0.02159189049972932
0.00946458648144476
-0.05446383911664836
0.1694562828229843
-0.10475451507336
-0.3196876647204088
-0.0295210854353122
-0.02571190430833301
0.1499322809550052
0.09568957293135227
-0.003546908090386832
0.05216526670198986
-0.01547355360852137
-0.01374206077297689
0.002511968398507634
0.009909042551431133
-0.06592469942659483
-0.00469008004554342
-0.05668237120891964
-0.02299609684609315
-0.01568189753873205
-0.03650695438518542
-0.03293283109292269
-0.00668032293759319
-0.01461413407113359
-0.03798428782175612
0.0326741151810492
-0.0387134403466173
-0.01365873234256582
-0.1180832194314026
-0.0312426351723867
-0.03938155564483488
-0.6736653719244946
0.01436061749671454
-0.01100730495995094
-0.005400074144567992
0.180520838878328
-0.09550638203816028
-0.03560894222654374
-0.2446300134719385
-0.01567919733538099
-0.01628724755518288
0.06920311250327059
-0.1831676882396555
-0.2267656779695618
-0.1903918980762974
-0.6816976580821088
0.01131106226976597
-0.0190278010257711
-0.01544870764051404
-0.09096402609648753
0.1182049000639869
-0.02184952260929171
-0.2489515860237941
-0.0357765126474314
-0.006738069567846278
0.2773561731462741
-0.01094152504949045
-0.09236069704926185
-0.1509229836739528
-0.004856431756862777
-0.04119314267478892
-0.04536973112557166
-0.1987836187660604
-0.008379266799199744
-0.04099758228915927
-0.003480644042780865
-0.5481003510731807
-0.1972718180086052
-0.1770811123065704
-0.02333312273098079
-0.008250412177391569
-0.06111368955921274
-0.05728641377204466
-0.01607499392086614
-0.06867304485583457
0.003804059812707192
-0.01789982888823597
-0.0956377938787541
-0.2725387614565654
-0.009389148782925202
-0.02529147287047193
-0.02162044060052443
-0.07542979772721972
-0.0900422897329143
-0.08887577400559722
-0.01115144581853925
-0.9164767138043781
0.161283249364166
-0.08249613466897943
-0.2541868453953611
-0.04192200548078991
-0.009499137958480034
-0.2462214183745928
-0.1895285143294289
-0.03204827897423364
-0.1171144605188927
-0.01778320537604929
0.5624037892907953
-0.02466438207332993
-0.2183455383261848
-0.02555970098774726
-0.004213727573760888
-0.01123941662292001
-1.25195001626697
-0.1834330362196076
-0.2304446084855955
0.005334653064328388
-0.03842304245746311
-0.2398007262595497
-0.06636162876491253
-0.05166174831278206
-0.1437387838274162
-0.1876009881222074
-0.06900621338157832
-1.222902420614992
-0.1553517495479794
-0.532316762424895
0.07879287943527767
-0.006726046859617456
-0.0214397081128872
-0.04372837741526203
-0.03939784795775897
-0.02810447783924483
-0.1313153386446956
0.08061331311702048
-0.004455014034479071
-0.009757765661835491
-0.5694078210776835
-0.8562211353858163
-0.1804454631180953
-0.007733541709350811
-0.1263434120579938
0.0006840909616119579
-0.000803567674807319
-0.002604857650528745
-0.06123088014875318
-0.2361977908855906
-0.01341088085690979
-0.1140496895927063
-0.1549644139739375
-0.01315156588066302
-0.03508064845838591
0.02549610563341275
-0.05817946705621285
-0.07100869566448331
-0.4973451778294606
-0.2412255925377333
-0.08054314523685104
-0.07407347785404207
-0.01955692828872255
-0.1131491020586432
-0.1623282027670096
-0.08047190166619847
0.02686531501462651
-0.08594158039680409
-0.04930946574528298
-0.01495464080802477
-0.1144250127020551
-0.2773875548064813
-0.05820836213224766
-0.01824670209076391
0.001873925422124417
-0.010219432087004
-0.0107843343270556
-0.2304459466566819
-0.01418401986918241
-0.2196967961547723
-0.01079066179711717
-0.06762239557865021
-0.003713738992736262
-0.02322342378144809
-0.3860224266722082
-0.9185399242567599
-0.01125841490162127
-1.046435938467805
-0.6069886836100233
-0.01074188938934556
-0.6551330543758361
-0.1817406413833878
-0.004974982603665407
-0.1260388949499272
-0.01721772721027707
-0.123480800214843
-0.06613369413753008
-0.07626363397391803
-0.005592624307907335
-0.003490924313195356
-1.33807063884088
-0.01120460609939223
-0.1905960084963057
0.0008178853615044624
-1.012240909342887
-1.239161584633391
-0.08000333676267067
0.01844430637633431
0.1645019832880847
-0.00496497759059648
-0.02296792515773491
-0.004351145742679269
-0.2436961221938269
0.3658916361308232
-0.04169705843355856
-0.2123230829180786
-0.01519566800492
-0.6568322025020673
-0.07364898707711222
0.1904730594884587
-0.2963564898152313
-0.05047093739503507
-0.06970201227464351
-0.01580369660122747
-0.02151560391632236
-0.5853436135500855
-0.1500494686599381
-0.09227457510556861
-0.1211237767583378
-0.5545792047065048
-0.04495421662870977
-0.9073823739530872
-0.001054344789785997
-0.2410815566579039
-1.048133838526224
0.1693381883614776
0.2917598236753865
-0.1728157939099475
-0.1917203854430156
-0.2092833810693309
-0.06717220350936307
0.02482805661600215
0.04941970976036799
0.004914456013475725
-0.1556732953371569
0.0253722730632659
-1.358690878464394
-0.08630519817437943
-0.4756375162233399
-0.331338879402684
-0.2137384198884833
-0.1780406635833838
-0.0169653366869066
-0.01538354442509301
-0.09631934665095801
0.1712862749134231
0.3853753756510264
-0.2178369769302246
-0.1521059677372379
-0.2331029137385399
-0.06316385212265385
-0.1596077135371095
-0.1688535636639831
-0.1266620787346245
-0.1123424360129752
0.4667804916184484
-0.2773126555989875
0.430595508675432
-0.5943653340288867
0.07164691788592006
-0.1946528376438126
-0.06712300089488511
-0.0756220303259979
-0.885369561916832
-0.22162978625264
-0.1907937399670237
-0.3510360977291501
-0.4619763238160777
0.5702254435184841
-0.2077064364283898
0.001390065811094652
-0.06924378902862002
0.3436047872458357
-0.03625782381069542
-0.1202785243704602
-0.1799382743522812
-0.06458222655859752
-0.01638655460923086
-0.1954868373467301
0.1929886060152556
-0.01259844730056163
-0.09760451811261342
-0.1723121905240452
-0.3142685232658949
-0.3108955556928337
-0.07767263256433692
-0.009863237808391359
-0.07581392184748044
-0.6550549721092713
-0.6692530287544336
-0.3301000966130599
-0.05857329902022603
-0.05076365427270371
-0.02483552224842292
-0.06893645961081678
-0.05641970483629453
-0.3639510869921466
-0.9575036803011656
-0.009072002645393928
-0.08422717562716492
-1.139281166497671
-1.035723206329318
-0.1052969649827953
-0.03995030154489426
-0.0689509640835743
0.3905771624883332
-0.3424982915806213
-0.05245721251626262
-0.600738011607436
-0.1333161875202669
-0.251032519194246
-0.2112890170210343
0.4740852094745275
-0.6314640860521604
0.07373275326235869
-0.02891785057575466
-0.5635986201861526
-0.05289729576636806
-0.3618560211654253
0.1075146669349485
-0.191865295840898
-0.06075452340472865
-0.1284485922131993
-0.361453027667391
-0.08766922187308539
0.5140818584523005
0.0860788306547154
0.4709215359536374
-0.1233903592085207
-0.2032444952089935
-0.5148808299794759
-0.1316040129938423
0.02568725827953001
-0.05462066379843737
0.1020260708303604
-0.3079043600745092
0.2363295732859589
0.00747765228825306
-0.002992425117162731
-0.511645594103573
-0.1838455786423953
-0.09874217108235343
0.5811628018009019
0.1389571565185874
0.3462927392628207
0.2254919550764813
-0.5623952915482857
-0.2146498059496601
-0.2184624156492717
-0.2345490356497044
-0.06136245234557516
-0.6921908738989575
-0.1931898681093135
0.3058096452594797
-0.2093179134174074
-0.01108736101834485
-0.167282298489334
-0.01061298420139316
-0.1658556223247264
-0.4411523701460708
-0.07695703965020782
-0.2015131301104941
-0.07451931847979117
-0.1060814945712569
-0.1358545557688061
-0.07324741263107465
-0.4462522121899042
-0.4139913890111108
-0.02601236743248297
-0.07586781129359071
0.3267399607981286
-0.2495243247444681
-0.176295796394069
0.5255626241492379
-0.1984258896090057
0.01881529885734614
-0.4518187978809781
0.04633576235201458
-0.06085307678704325
-0.1577598085321049
-0.5868470580110789
0.1615034495899941
-0.5791191475881518
-0.5366533905609965
-0.1047936710255845
-0.5087336685957303
-0.03665028737713521
-0.1516036087384228
-0.410781477497322
-0.01622326018602615
0.2867903960221696
0.4895460583958277
-0.1636679556872729
-0.007020607342050995
-0.07384917056587076
0.5252822464140144
-0.03269760857017011
-0.4420128987439562
-0.0321057608484839
0.4604989745684929
-0.01602499421660299
-0.5462673521894356
-0.2398456556924499
0.1764288659700741
-0.3125287016359514
-0.1801231904150911
0.05098897912745854
0.03251861677414666
0.05525903426599999
-0.3016004432530515
-0.1575310656310809
0.4128107668235156
)
;

boundaryField
{
    FrontBack
    {
        type            empty;
    }
    Top
    {
        type            zeroGradient;
    }
    In
    {
        type            zeroGradient;
    }
    Bottom
    {
        type            zeroGradient;
    }
    Out
    {
        type            fixedValue;
        value           uniform 0;
    }
    circle
    {
        type            zeroGradient;
    }
}


// ************************************************************************* //
