/*--------------------------------*- C++ -*----------------------------------*\
| =========                 |                                                 |
| \\      /  F ield         | OpenFOAM: The Open Source CFD Toolbox           |
|  \\    /   O peration     | Version:  2412                                  |
|   \\  /    A nd           | Website:  www.openfoam.com                      |
|    \\/     M anipulation  |                                                 |
\*---------------------------------------------------------------------------*/
FoamFile
{
    version     2.0;
    format      ascii;
    arch        "LSB;label=32;scalar=64";
    class       volScalarField;
    location    "970";
    object      yPlus;
}
// * * * * * * * * * * * * * * * * * * * * * * * * * * * * * * * * * * * * * //

dimensions      [0 0 0 0 0 0 0];

internalField   uniform 0;

boundaryField
{
    FrontBack
    {
        type            empty;
    }
    Top
    {
        type            calculated;
        value           nonuniform List<scalar> 
15
(
142.2722512013966
133.5519840266667
138.0636786089582
144.3853856902726
159.7613747011746
131.3669552076855
140.1089288771519
135.3420076574783
153.4349283828081
135.7385869342501
136.0814329956845
136.7793885597058
125.2377439336936
132.9009053044778
123.9501339901169
)
;
    }
    In
    {
        type            calculated;
        value           uniform 0;
    }
    Bottom
    {
        type            calculated;
        value           nonuniform List<scalar> 
15
(
155.5668260255683
158.1115454593845
141.1061810454996
142.0815284491572
141.1897371811538
148.459389449065
142.7158152752628
143.1700184252542
143.4229152059067
134.0649974226308
125.7392926584232
141.5606435669772
122.4130105997047
123.4905234086003
124.1461612816612
)
;
    }
    Out
    {
        type            calculated;
        value           uniform 0;
    }
    circle
    {
        type            calculated;
        value           nonuniform List<scalar> 
32
(
56.21487105510142
21.74680159480695
65.2383954512312
25.49676556938863
19.87585865220971
56.27760379744954
56.70652938946385
24.09264816466941
22.12148129204584
65.46035395767989
40.04108350174196
62.95926269839974
50.48534636016505
15.60840554234591
22.95889762966963
19.49242102924395
39.0935540765058
59.73460287424534
61.09668261741222
26.48972188413416
65.80321286058528
63.73923808923181
63.05966775603281
59.83419927809479
64.1815899026661
46.08121729903222
66.4525074077706
32.24240377652451
37.85595245732348
55.64940259557606
21.41650034515882
43.04332080364284
)
;
    }
}


// ************************************************************************* //
