/*--------------------------------*- C++ -*----------------------------------*\
| =========                 |                                                 |
| \\      /  F ield         | OpenFOAM: The Open Source CFD Toolbox           |
|  \\    /   O peration     | Version:  2412                                  |
|   \\  /    A nd           | Website:  www.openfoam.com                      |
|    \\/     M anipulation  |                                                 |
\*---------------------------------------------------------------------------*/
FoamFile
{
    version     2.0;
    format      ascii;
    arch        "LSB;label=32;scalar=64";
    class       volScalarField;
    location    "589";
    object      yPlus;
}
// * * * * * * * * * * * * * * * * * * * * * * * * * * * * * * * * * * * * * //

dimensions      [0 0 0 0 0 0 0];

internalField   uniform 0;

boundaryField
{
    FrontBack
    {
        type            empty;
    }
    Top
    {
        type            calculated;
        value           nonuniform List<scalar> 
15
(
142.2736289482395
133.567826198407
138.0694431916974
144.4012638525257
159.7700449359634
131.3684972863491
140.1225316939598
135.356483912298
153.4342214242726
135.7448009055242
136.0929011897991
136.7730819040264
125.2440739710024
132.90264073919
123.9471230573412
)
;
    }
    In
    {
        type            calculated;
        value           uniform 0;
    }
    Bottom
    {
        type            calculated;
        value           nonuniform List<scalar> 
15
(
155.5653291850363
158.1127355619181
141.0925401903319
142.0695774914196
141.1837186991064
148.4449403909058
142.7056483610169
143.1665086496087
143.4237535586114
134.0570847150666
125.7336196870564
141.553849465609
122.4119350479647
123.4917394814242
124.1405809874227
)
;
    }
    Out
    {
        type            calculated;
        value           uniform 0;
    }
    circle
    {
        type            calculated;
        value           nonuniform List<scalar> 
32
(
56.36731357788987
22.08686776441651
65.31782553694688
23.8390903440873
19.1649590323103
56.18553257624149
56.81343251113957
24.17813506197973
22.32245723657829
65.5361779521608
40.19429149146329
63.04905381551297
50.30903901298035
13.64046812499257
23.66290257559851
19.06510798817302
38.88373701766302
59.59689587124337
61.01555499724196
25.1935808240366
65.72411711435768
63.81601177253146
62.95546376296946
59.91620406247377
64.10429486907792
45.97098617250954
66.36484617385966
32.09699183941073
37.99295973349936
55.74360753419601
21.12949044649412
43.14381801401721
)
;
    }
}


// ************************************************************************* //
