/*--------------------------------*- C++ -*----------------------------------*\
| =========                 |                                                 |
| \\      /  F ield         | OpenFOAM: The Open Source CFD Toolbox           |
|  \\    /   O peration     | Version:  2412                                  |
|   \\  /    A nd           | Website:  www.openfoam.com                      |
|    \\/     M anipulation  |                                                 |
\*---------------------------------------------------------------------------*/
FoamFile
{
    version     2.0;
    format      ascii;
    arch        "LSB;label=32;scalar=64";
    class       surfaceScalarField;
    location    "1077.5";
    object      phi;
}
// * * * * * * * * * * * * * * * * * * * * * * * * * * * * * * * * * * * * * //

dimensions      [0 3 -1 0 0 0 0];

oriented        oriented;

internalField   nonuniform List<scalar> 
1171
(
-0.9279284343394983
0.9279284344767758
0.7874411080209009
-1.0992009921482
0.3117598840506466
-0.1905134596314405
-0.7648960091456601
0.9554094684075608
0.07207156223240767
-0.116872625690316
-0.2123110896298761
0.329183715348365
-0.7874411193298
0.06948136765867198
0.7179597516457885
0.8117053845155738
-0.1779252101212343
-0.6337801744701201
0.874283245974445
-1.044178444157585
0.1698951980764837
-0.2854372901873014
-0.09742213255335203
0.3828594218388762
-0.03617818143683896
0.5489455805691786
-0.5127673989321109
-0.5037109086998428
0.8245814017158315
-0.3208704925019685
-0.4023099145858365
1.046006215399401
-0.1717229813653804
0.3927206271675962
0.04866250695665882
-0.4413831332670413
1.04599553512349
1.067667432432999e-05
0.4432857673042364
-0.0505651519153092
1.056641913040866
-0.01064638681533584
0.579074793743541
-0.7695882489480796
-0.72430115527621
0.5567619918976386
0.1675391634946238
0.2177138675843028
-0.7214247784691195
0.5504562991006692
-0.9228165029121052
0.37236020552371
-1.094183777844536
0.6865026881092595
0.4076810893706502
-0.5955585198057913
0.5593803432037523
0.01786822820656159
-0.2565878101505603
0.2387195852425028
-0.02326236799161788
-0.5216943436767838
0.5449567092667289
0.4004345360590141
-0.4978566743994255
-0.9189132947176072
0.9415331758843779
-0.02261988109661316
1.067541392501031
-0.0108994835285151
0.9348788472765688
-1.116675152108683
0.1817963049050086
1.067009187574981
0.0005321993609988603
-0.6644631608828303
-0.05983799345124509
1.262344777000805
-0.8642361632027467
-0.398108613847322
0.1480958906679113
-0.1094837609582269
-0.3263023362701646
0.435786096579897
-0.285617900402203
0.1913570309660137
0.09426086805739597
-0.5836431970446562
-0.5155577881979685
1.014020465175168
-0.07914161633538011
0.009918527976706172
0.8254713968305878
-0.8353899248045316
0.5718387259062676
0.6905060516436033
0.4394618208421212
-0.03039769966631801
0.4308322336298517
-0.8079126931045314
-0.102506806516531
0.9104194997223776
0.5021542739751813
0.2537621444955312
-0.7559164183256679
0.006771712032772221
0.5271494989314702
-0.5339212110664096
-0.4899238693391851
-0.6042599147078507
-0.4227802766371886
-0.6938948743173112
-0.02703464314469711
0.2702392529318752
-0.2432046113932567
-0.924695211585049
-0.00506452798091918
0.9297597395442888
0.3087346986064551
0.07412471543671127
0.7619001997974356
0.04980518392490724
-0.5331216716356624
-0.06243684748385223
0.04608445656838852
-0.8539971514333103
0.07493817107061242
0.8634559616294563
-0.9383941326300649
-0.3469180183255507
-0.0414103989227563
0.3883284179021396
-0.6820634133272594
-0.2426317993714877
-0.6334263348769992
0.708364507644034
0.6129404269730883
0.2116409737071981
-0.5431650941256824
0.9457084090215032
-0.7790936530996811
-0.1666147558494223
0.01520705301424204
-0.01490413890100419
-0.0003029080450230278
-0.4033212028640392
-0.09453547068850157
-0.2407965451429525
0.8537369697773756
0.04699593909261375
0.3354322449043095
-0.3824281847103912
-0.4606507062491834
0.9628049804781219
0.6803612694653021
-0.7828680781597565
0.3206052660036328
-0.01745924638240121
-0.3031460163571932
0.9307332945124488
-0.9307332945308215
-0.7815212027248895
0.1105433312815307
-0.3228544167956127
-0.7499607031675051
0.7598792314848573
-0.0899835547917365
-0.1434078639081212
0.2333914181103075
0.8649777746104507
-0.03950638009587019
1.054235102138716
-0.8004729597107398
0.186338071873482
-0.3158069729718245
0.1294689008982214
0.8590161499323726
-0.09711595493620831
-0.6116332129326869
-0.03898416589008925
0.6506173788311097
0.123605354736216
-0.2308797971787904
0.1072744451241772
0.8056697404920162
-0.9835949552683733
-0.4350646268337632
0.3295068834505682
0.105557743742686
0.5320451592285764
-0.5553075246649086
1.021932956769686
-0.4561874751157066
-0.5657454815720073
0.5991526821268377
-0.7193869553437102
0.06680329351757806
0.6525836608029653
0.1030997333214624
0.5698621261788462
0.05535984370059804
-0.6252219696651514
0.1941813617562619
-0.08363804022808975
-0.4927922576556359
0.1458742347619444
0.05025127745449212
-0.8865950856569051
0.8363438082576437
-0.4730318347817845
-0.7133650970004657
0.04890193663010046
0.4372674133574481
-0.006435172489852516
0.2998678280266472
-0.8552368814935869
0.5553690541616114
0.4157349498062228
0.5842650501994353
0.5604552901498371
-0.514370835378955
-0.3676011994927602
0.03680480144666708
0.3307963947519652
0.6813382826434049
0.2493950128610691
-0.5657528660855952
0.5725245711239787
0.110965076495753
0.8751511174215573
0.0101575705116888
-0.6217907947238693
-0.7491722619225043
0.7994235387383002
0.5308779478677447
0.06988438465364451
0.3022380448965148
-0.3721224294234443
-0.1674944697086122
0.4429505470878398
0.08419895725154286
0.8761069569395258
-0.8026014579894587
-0.07350549869227034
0.6352862148484302
0.3104221865002132
-0.4303558461524604
0.5741319207850879
-0.5042475328886802
0.4171964052437373
0.1332599066698197
-0.04677719565349303
-0.5940597344156946
-0.1375774583858992
0.7316371926909058
-0.1497843036575188
-0.7809489884519709
-0.6109803171828685
0.3606009922266451
0.250379322746647
0.6220205718460503
-0.6118629996536347
0.2392001648720682
1.011250551063396
0.04298455260295058
-0.7491722675380733
0.2343730133489442
-0.219165964603093
0.6803612680303429
0.8018024381173354
-0.8018024381282098
0.8376931517523124
-0.8332008581666198
-0.00449229340159017
-0.4453775440665144
0.86111249613482
-0.147359107349362
-0.3454331531224988
0.7347130215439924
-0.6684874419091924
-0.06622557980500271
-0.7337432645571994
0.139683534541903
0.1388177078816476
-0.671939379096181
0.7828680722903315
-0.9503625421414829
-0.3682366798405297
0.2915890558416999
0.07664762579896224
0.1459009824541967
-1.009889658763008
0.8639886763745468
0.4813213558219762
-0.0418595351360011
-0.308146829484137
0.586438134782284
-0.2782913050917528
-0.738506513064891
0.8844074904148446
-0.1570730901827054
0.731761128325203
-0.843902854515836
0.1121417267949204
0.9761157868451403
-0.5402599129102293
-0.4358558739317844
0.7550252333510405
-0.06502880418535083
-0.03184459133351187
0.185658267896579
-0.153813678599515
-0.7758019447994299
-0.8432551004035582
0.07835909287915098
-0.749960705156437
0.513672371490576
-0.5550827774619422
0.09664459511021804
0.719393441896614
-0.8160380367441188
0.7536645610995956
0.1742638718030452
0.50290812670762
0.4970918732466849
-0.05008612070796384
-0.6114138416830172
0.6614999621447999
0.8844496290542103
-0.008342675504181458
-0.7550252333287542
0.7994235355892544
0.1912612354568658
-0.4478490531352085
0.01731968531857635
0.003310921616871615
-0.02063059915753753
0.5885176176463652
-0.4379165315928512
-0.1506010855456236
0.7179597586887895
0.01103549255143342
-0.111493962847894
0.4373264949145584
0.1511911177158079
-0.01615523137022081
-0.005711047622970487
0.0218662783329441
-0.03131974168744193
-0.0005248494121470513
0.2443547976271028
-0.2618140331247704
-0.9588755345860335
0.001360888249477155
-0.1594519990213392
-0.1238818818332237
0.09436981231035538
0.7220084345231109
0.7290281716663609
-0.1447631233929945
0.6712834994588747
-0.5746389025843517
-0.2117304606259786
0.3980685349170099
0.6955219631708446
0.02243779550697367
0.2417389938117428
-1.074939852577188
-0.9503625438504667
0.3022995294434251
0.75987922901352
-0.2088919212582072
0.06548406227034
-0.7233693186086557
0.9110296437264858
-0.1876603249458063
0.4156217225692285
-0.02729330808340123
0.7713150013883191
0.2806130288823333
0.3737783644371964
0.06950741238340338
-0.6586955438765834
0.658695543819971
0.214601657760211
0.6958178394201835
-0.05579082437234699
0.3912230697375676
0.3799952671125799
-0.01587396538596571
0.03319362216298441
0.4488876995092633
0.032433652829031
-0.7385065162593576
0.5340629517704156
0.2006500669417692
0.3034107865478734
-0.1177524933609024
-0.6955219649263454
0.1801897877802425
0.7308398537556292
-0.01013655024225174
-0.8137136054427428
0.8238501556045383
0.6963297921490083
-0.7920699702045615
0.09574017804341964
-0.7536645608853619
-0.1496271484727567
0.2110595999309336
-0.06143245360605648
0.07718349727746361
-0.1795755014542199
-0.1117356957876445
0.2913111977021016
-0.01000699566146953
-0.006148225813535741
0.706300228980993
-0.7164367741545383
0.8856967571618861
0.06971271653443802
-0.3097921867981253
-0.5223931158260107
0.8321853019393332
0.1026011125787608
-0.1026011094547807
0.3283938729849675
0.4793598477467759
0.6078350920804308
-1.08719493940514
-0.1941337496540518
-0.585562843910524
0.779696593576277
0.012096442576339
0.2212949901217991
0.376859745605405
-0.2532544057883141
1.014153955168449
-0.53479410576325
0.6660766404570369
0.9926445495996186
-0.3848094581563358
0.2295006349752899
0.8844074907339678
0.7126845039169158
0.2137566520752364
0.7277765229383829
-0.7809489882738054
0.3413044623914838
-0.2827109908732893
0.2549197198428582
0.02779127424854932
0.852047548164638
-0.0129549328400794
-0.8390926149634734
-0.7020381110164643
0.702570309890505
0.5546224565040992
-0.7020381130788876
-0.7126845038882108
0.7025703050718223
-0.03370770785190377
0.9046953425152875
-0.01899858444561923
-0.6813382894375606
0.6122688658805764
0.06906942357402661
0.5388167115142406
0.5383959059675452
-1.077212617518528
0.4898918790560665
0.5242620765686938
0.5468872011569068
0.4588685035976086
-1.005755704612714
0.4964540470178185
0.4961905037194224
0.6122688708584824
-0.5256911596858509
-0.4662693400595628
-0.5557320537180396
-0.5166497280125113
-0.1245094095395161
-0.01265130233823361
0.01265130011009615
0.5098464494658907
0.5240006527550843
-1.040650380440936
0.5738786259341987
-0.2716405802189436
-0.8835799679348543
0.3433200571337204
-0.6326804562244065
0.3900486550411889
3.541966334198138e-06
-0.8291738506534599
0.8291703087756812
0.4208813449271832
-0.02261661615049144
0.8746641685400066
-0.9432185215340354
-0.835143932370401
0.057485114481434
0.7776588178719206
0.5503518994031876
-0.4362257181300481
-0.1141261817061294
0.650019262892978
-0.7291608791728696
0.883856744896261
-0.8289111980687395
-0.05494554718008601
-0.01230447064323606
-0.7902969890752245
-0.1108163018636852
0.7158941276963019
-0.6050778258461534
-0.9400281079677858
0.9277236355939052
-0.7367223391833893
0.6890586877821097
0.04766365141325293
-0.8011669722455691
0.02919347257562195
0.7719734994628279
0.06173203672330109
0.04086906199081258
0.433127729699831
0.05936178749525609
-0.849660033098254
0.7902982459473564
-0.6440402851078249
0.5939541753652468
0.8904062303283234
0.07217196132248842
-0.9625781912828513
0.05526229849993089
-0.04949101512784908
0.380287427405511
-0.3814673545845307
0.06566038668520231
0.8410222470444935
-0.841018715268255
-0.7314542598326061
-0.8088126922434913
0.01851570271838496
-0.168463299138477
-0.8484378343959535
0.01952663230103062
0.6245806017871584
0.04670289439377184
0.01756993806134446
0.532781966672298
-0.8131318368469262
0.8423253087084428
0.5657454800547168
-0.8517904796520133
-0.8678561464420571
0.03683919655591411
-0.03596353502690331
0.8349333310887823
-0.7989697960887147
-0.01926754189079291
-0.7674177929903871
0.5443088910049739
0.1520209054792197
-0.02180149272077571
0.896465655244907
0.985208750923417
0.860559530221345
-0.841032903585989
0.1474554153333278
-0.1474554106139485
-0.1179810307143743
-0.469229902780982
0.03300418720802575
0.2714631141407451
0.03083641468938439
0.3848138514663604
0.8771981130773948
0.004938388691732602
-0.01494539637954692
0.6586095174042614
0.3413904825413135
0.7835211513856853
-0.5836431967194449
-0.7780351605591261
-0.8119247279260179
-0.6799504258709852
0.6799504258956939
-0.1680337479664711
-0.1548206652559634
0.6016292652995298
-0.8114592511033653
0.2098299857816194
-0.4938882356932842
-0.5688842594483862
0.2781229386860254
-0.9720178123400027
-0.8993362308360021
0.8443906777261881
-0.8201871843573368
0.8387028858111693
0.6485086895148335
0.1345466793032559
-0.7830553688081584
-0.7642610694814862
-0.1461847128540866
0.7252242897561988
-0.579039576970641
0.02213812099877326
-0.01377565330176476
0.01677210684643429
-0.002996456104515024
-0.3533435559981079
-0.1158863487327035
0.8797522086681278
0.7374370582287882
-0.2384594879045792
-0.4989775701428346
0.6233108638398266
0.6855234183021585
-0.4709217599659211
-0.0005057606919727318
-0.2851121401259053
0.01737923936249328
0.7453419599219498
-0.7627211994788701
-0.3235091189247857
-0.07151571570836854
0.07575583584065809
-0.9650901439300512
0.1259975301052998
-0.6769125666884306
0.05380172321967053
0.6405955112053081
-0.6943972345558379
-0.7567800717891633
0.07986750516442397
0.5893984588470806
-0.6609141747210916
0.1560410026532623
-0.3356165101509225
-0.7723682819342519
0.008107212396962611
0.3711886248248718
0.6005541165926588
-0.02642220015813761
0.02301121374600797
-0.02301120925983629
-0.01836237280407704
-0.05301272998499846
-0.2296982558593177
0.01972059697990096
-0.01478221871716733
-0.7256653805619956
0.279414932367844
0.6784214816815101
-0.6904006830912045
0.01197920102385375
-0.5976791862391206
0.6514809024319983
0.6541616946117127
-0.06476323621329205
-0.6313258927421586
-0.1254541792293135
-1.049620288349396
0.01124549874016995
0.1362099160747738
-0.7082861408038604
-0.7421421940119883
-0.7638330224917249
0.3657244089236662
-0.4085392772022697
0.4694486054911189
-0.06090932840716588
-0.6766273500708747
-0.03165879101100913
0.4996401735722658
0.7306810768993439
-0.234117671755104
0.1102357857099496
0.9569829309280041
0.4459401931413973
0.1328289350543637
-0.5787691281212207
-0.677906307700151
0.001278953554250045
-0.04452539192410725
0.03074974119645178
0.6376839383911297
-0.7752613938823862
-0.002900022471698661
0.002900024115035013
-0.5999561239435396
0.6493013737568106
-0.04934525008161587
-0.6603363718071509
-0.11381375837796
-0.6718350620445686
0.05136382033589051
0.6101361432743373
-0.1375306926726406
-0.8180197781309534
-0.5611925069662609
0.5714055795365784
-0.0102130757386315
0.6325437959989291
-0.6205646037515077
0.322258272065854
0.2137851489473059
-0.5360434209654458
-0.1044582515717737
-0.6029531306877408
-0.09144411034299695
-0.1540159271515546
-0.5098286787482335
0.4043473876917387
-0.4988828650828818
0.1259600153715016
0.6786894220830997
-0.8046494373522688
0.5991526821419172
-0.3751417961168668
-0.03339748202570225
0.05925162922206381
-0.5690803065213594
0.5515666141486621
-0.04029880262138556
-0.5112678109430109
-0.3125221264750495
0.3051549901918006
0.007367132897780769
0.4508654641538632
0.1230131615443335
0.05120855984854794
-0.3160258333386676
0.1569924825303169
0.1590333501948346
0.2544438364325892
-0.02007082751889395
-0.2973911960662443
-0.3136954598169081
0.3635566597314611
-0.04986120945430401
0.7920741727817884
-0.6295373467987939
-0.03079902508374483
0.4995423517028126
0.2843878320149483
-0.5228473201247116
0.5774441565947481
-0.5774441565965086
-0.2897906169572925
-0.5865207542058029
-0.2955150365472216
-0.5865207535751008
-0.5968537824253498
-0.8384823521259083
0.1699949085522727
-0.5965331634851069
0.8212337420230651
-0.003516157434235466
0.119368375473631
0.4811857383570773
0.0967180711344095
0.1854043524011526
-0.03613087454620123
-0.1492734791433381
-0.02512757384388486
0.59138471839684
-0.9431723204625868
0.4207792051284234
-0.002356292019576948
-0.0001480354343070871
0.002504327734046443
-0.6438028180488984
-0.1320706643777368
-0.4655288073785551
0.5983577419736342
-0.5036404337703486
-0.3142622824451183
-0.2548180215889457
-0.2723096112918041
-0.1117777030222044
0.1117777006535808
0.1534352271606857
0.05762435176882653
0.1966498401354285
0.449377788411263
-0.5702338440560416
0.104705039141007
0.2525634481853967
0.4662031698893331
0.5337968286778658
0.6451627328013964
0.08038961836044688
0.003391728225746569
-0.08378134369692325
-0.2769781218061851
-0.5410416564203795
-0.5450073385763632
0.1144247116630284
-0.1263314213892948
0.01190670855171638
-0.1059211482169487
-0.3857319553318442
-0.04748354616745697
0.6576196804961972
-0.4993210575605487
-0.1444817605056463
-0.3291664225377943
0.2875368264649506
0.1265593701261437
-0.606297697768543
-0.2041646222812139
-0.2623102332975566
0.0004961936812420591
-0.4210616415065692
0.3218407314872199
0.0992209098054824
-0.0888809852868776
0.2916670094321444
-0.8959269236663454
-0.4576828128095068
0.6324921026985086
-0.7730592427560098
0.6686009910704928
0.3417320502266618
-0.1262180853243349
0.2252387484387262
-0.09902066152467104
0.03091629368894836
-0.5861757165440382
0.02899293503022729
0.5571827820460714
-0.9006759827125901
0.5472266357814529
-0.6652076662903464
-0.09878164591881734
0.1090052427461761
-0.1090052370677814
-0.3165316039281573
0.3613307562785069
0.01895666793598126
0.02091882862964658
0.05947077824560114
0.5044557471362684
0.6664157361303127
-0.7399212366752507
0.02422976346940225
0.02086892753743316
0.00214228188310532
-0.006294814948092013
0.00629481260077356
-0.4108193808302369
0.5338325425586187
0.01545520922442774
-0.01545520945218752
-0.792535909210675
-0.0598634131644309
0.1215954526468536
-0.4505283007078672
0.5552333408918885
0.4493554254756908
-0.498700669770284
0.1499161106065673
-0.1499161064685713
0.04449458082506466
-0.01130096425919381
-0.04101527216082631
-0.9768660774905449
0.5410102062183137
-0.4717287097993199
0.04086906334810814
0.5148839757683266
0.03061137892687412
-0.5454953542737248
-0.6161049325360983
0.1167838735955825
-0.3295634659291218
0.01356569364166624
0.3159977748395159
-0.1539314440242734
-0.08018623528005603
-0.5408445591467193
-0.04533115536935849
0.1362099203078994
-0.04152477658424313
0.03862475885747445
0.08184239978353341
-0.08184240520187634
-0.5326820289949062
0.4828208317118101
-0.4146007744571668
0.1613108096793529
0.6222103416195611
-0.09758338396578352
-0.006239143319519157
0.006239142414242409
0.5330064498273647
-0.07351573151549409
0.006404121436526153
0.02720467410176464
0.03457423551529272
0.6894786600738079
-0.7629943915477936
-0.6634083940417074
0.6326093710699856
-0.1103979533425162
0.3133248830543305
0.7457683513761419
-0.01836237587051341
-0.2659344591686104
0.1481819596194764
-0.7446441726120786
0.4840026143776593
-0.4232813370896295
-0.1012209536623084
0.003464325307323806
-0.014710559078418
0.02311232865224946
0.4124289160005994
-0.1216675933161185
-0.3896002168228681
0.6290946141997443
0.01894612947881457
0.009346955397384902
-0.009346954257395568
-0.3561851414107194
-0.08330424265775732
-0.5605107204544711
0.5569945632793611
-0.2379537886705626
0.4647705413892305
-0.1505913306307183
0.7296661264251191
0.6712522220332652
-0.04152478285260332
-0.6158523691808367
0.5597582586699905
0.2834349534357283
-0.280344629976298
-0.003090323387795358
0.543728384315557
0.09342967148745435
-0.03873029562798962
0.1969359291639581
-0.1582056343477468
0.1205726909445346
-0.1205726968777153
-0.8586748756059772
0.002460707469582978
-0.1130118037816744
0.1402164804931307
-0.1318101146424158
0.131810111409438
0.02086893382354867
-0.02460151999306733
0.6711235375694279
0.05971631251558368
-0.3229885855095315
-0.06274336974403188
-0.4712893122321444
-0.04573147836378085
-0.1516224157136712
0.1516224113679719
-0.03928676210318304
0.1433792806941099
-0.1433792767552143
0.1367792394270815
-0.1367792444399397
-0.3158754655971672
-0.1144803806046703
0.2263890406395994
0.1031178337951608
0.03482471514952458
-0.821206195767646
-0.1973940961252179
0.1701697428859875
0.02109148865561577
-0.2650206420729635
0.1259253282154051
-0.1259253247483019
-0.4141874258318533
-0.0846954384573574
0.2362460375857762
0.002473535057638988
0.04031762186577546
-0.5441303074573379
0.5778380152039739
-0.0254902918578048
-0.01379646977352353
-0.0261344208606419
0.01483345362485123
0.006536843580041077
-0.1843866632005385
0.1778498199275987
-0.1075879109216399
-0.2280286022489959
-0.1446808384466542
0.1446808344218453
0.07269858119389185
-0.07269858331002156
-0.01923877028848344
-0.1086569751356139
0.1278957474758285
0.236971652110402
-0.1830532211988745
-0.02123330552668464
0.02337559183462766
-0.1320430804695497
0.6148639158370351
-0.03907912055613542
0.4231902557582987
-0.04101529364454687
0.06288155899871989
-0.1534557144615673
0.1534557095400886
-0.6362147276944735
0.3086352678548603
-0.07913462991365208
-0.2345281079107752
0.003648297575423429
-0.1225873838211309
0.1629050039217453
0.193980253283269
0.09733093650674771
0.09473722896331946
-0.06016299405778998
0.07283087231806427
0.04159385135260907
0.06398630250673037
0.1061834404879579
-0.09820554583863264
0.2084413338524799
0.01224695962851533
-0.1129877669556843
-0.1025091089138983
0.09717845812108603
0.005330654677524415
0.01152197961892882
-0.02206914772152999
0.03759840553350263
-0.0375984058975804
0.07434854750010368
-0.05502785481607483
0.05502785399343808
-0.2244748782887436
-0.05010619747451823
0.0116874287886715
-0.1031744185011347
0.01620654864696896
0.1085284247513153
-0.1085284225625343
0.2932011664747884
-0.2711931481513909
0.1636052410669625
-0.05037511244816896
-0.2208180380602477
-0.01720622130615769
0.01720622253817938
0.3673570031197754
0.2852266455328775
-0.5276059240128156
-0.09395798611422954
-0.032373430173584
0.528667808582861
0.2108372384383775
-0.1686035334532967
-0.3820385391048634
0.07658956935997618
-0.1475716902581536
0.1871857008686659
-0.03961401183060246
-0.06693455976864782
0.0669345613715337
0.8223579207507518
-0.5604588907080201
-0.0022201434396166
0.0137421245110054
-0.02003240559179346
-0.286891327761062
-0.01745394640704696
-0.01287072606122722
-0.1319100370848439
-0.5721427145072203
0.5559847528516184
-0.5686167015595885
-0.006941573815793977
0.09965706863887497
-0.001833299371933
0.01667646806443003
-0.1676040857711265
-0.3364909979172268
0.2333165799914337
-0.05433894441752775
0.035100174877667
0.1320274046860968
0.1731275824902512
0.3390823713284649
0.2764628365175175
-0.2782961340320456
-0.06388433962904527
-0.154863912934576
-0.2209624118490118
0.07473114317229121
-0.01074484262148145
0.2140046584207262
-0.19732818913478
-0.08622960489475823
0.1590604753678717
-0.3548315532693613
0.20858074851677
-0.1923742001527232
0.08967200942712666
-0.4792722225174093
0.174314985573897
0.1702027849253082
-0.2564323849432113
0.07266808830128593
-0.1944734839503633
0.1770195365463415
0.0173969257573064
0.1416635443752502
-0.03957263663872963
0.0661522857779242
0.4668541629757014
0.02039219147253682
-0.07850302551714969
0.05663520841432281
0.1255059135145116
-0.2605764261122461
-0.2309332617465104
0.5597019919056695
0.1574585832277992
0.07878745452127248
0.07548884648198453
-0.03103704824640756
-0.0008889136670682666
-0.002201405893064397
-0.03266142629515409
0.1710217042008191
-0.1779632767649322
-0.05539069049278225
0.02115544052107355
-0.1468127680299722
-0.05280994157690895
0.1530506184798102
0.2770777579968961
-0.0403064892832506
0.01394451630948817
-0.2553219135424817
-0.1302924385419083
0.2358631655741777
0.1790776538514091
0.1295576031538904
0.021630457071374
0.08881663017127302
0.05204080721887156
0.4524149399373836
0.01757762666364145
0.09739904502785415
0.04340626958805394
0.07194607645927242
-0.1153523496988015
-0.2423792819981742
-0.2007081049595937
-0.02010992942605275
-0.2021944680174066
0.2754318370868603
)
;

boundaryField
{
    FrontBack
    {
        type            empty;
    }
    Top
    {
        type            calculated;
        value           uniform 0;
    }
    In
    {
        type            calculated;
        value           uniform -1;
    }
    Bottom
    {
        type            calculated;
        value           uniform 0;
    }
    Out
    {
        type            calculated;
        value           nonuniform List<scalar> 10(1.036779082046817 1.0645078731417 1.022001393794215 1.020716124373007 0.9972644131827979 1.012840231673897 1.033847104029668 1.062772495227968 0.867234776678467 0.8820357906772458);
    }
    circle
    {
        type            calculated;
        value           uniform 0;
    }
}


// ************************************************************************* //
