/*--------------------------------*- C++ -*----------------------------------*\
| =========                 |                                                 |
| \\      /  F ield         | OpenFOAM: The Open Source CFD Toolbox           |
|  \\    /   O peration     | Version:  2412                                  |
|   \\  /    A nd           | Website:  www.openfoam.com                      |
|    \\/     M anipulation  |                                                 |
\*---------------------------------------------------------------------------*/
FoamFile
{
    version     2.0;
    format      ascii;
    arch        "LSB;label=32;scalar=64";
    class       surfaceScalarField;
    location    "1699.5";
    object      phi;
}
// * * * * * * * * * * * * * * * * * * * * * * * * * * * * * * * * * * * * * //

dimensions      [0 3 -1 0 0 0 0];

oriented        oriented;

internalField   nonuniform List<scalar> 
1171
(
-0.9279067993007651
0.9279067992490789
0.7874153303086747
-1.099234029066428
0.3118186990055224
-0.1897552744956277
-0.7661334752673153
0.9558887497016397
0.07209319421920637
-0.1174122719972622
-0.2124051332970228
0.3298174044836336
-0.7874153213403228
0.06940183346155877
0.7180134878962326
0.8113154540495814
-0.1779739302433342
-0.6333415239147691
0.8740301883181503
-1.044163622576253
0.1701334343136301
-0.285395181970392
-0.09799444922692056
0.3833896316503957
-0.03649586407122264
0.5489531333865519
-0.5124572694189147
-0.5070390864168829
0.8267889364518062
-0.319749849946324
-0.4028074463137318
1.045755961036484
-0.1717257713813661
0.3921454219609248
0.05033982806241861
-0.4424852516648682
1.045937060574407
-0.0001810983612864539
0.4441696477765155
-0.05202423043207913
1.05645467835729
-0.01051762011410375
0.580439618044263
-0.770194886039143
-0.7240817923684785
0.5565843548890765
0.1674974373741531
0.2141070658397556
-0.7211461590401298
0.5499365050074981
-0.9225696280443335
0.3726331220532634
-1.094218443785937
0.6866195795891737
0.407598864319752
-0.5955944404226621
0.5590985844083775
0.0172283883160081
-0.2557924563817626
0.2385640669696465
-0.02248165918249599
-0.5237335711983734
0.5462152299154955
0.4003477957109928
-0.4983422376888819
-0.9189652103457204
0.9416841092378536
-0.02271889885462963
1.067744071117829
-0.01128939392003489
0.9348721375964176
-1.116681206520005
0.1818090688298848
1.067199834826271
0.0005442329408192924
-0.6643944593721712
-0.05968732979487953
1.262209806791171
-0.8643289744763648
-0.3978808323248637
0.1482346208599617
-0.1099795467070799
-0.3256275590973102
0.4356071062037816
-0.2854983846221338
0.1919283963307021
0.09356998881774424
-0.5836848269695937
-0.5155492062796679
1.014083669865007
-0.07921153259673053
0.009875403977516715
0.8255010182231424
-0.8353764221390557
0.5717258706830777
0.6904839390938867
0.4389735925786941
-0.03093592549593194
0.4312837212889536
-0.8080726757350564
-0.1025332825011935
0.9106059581284994
0.5020889990786617
0.254023709626868
-0.7561127087091875
0.006676935959972675
0.5294140809395577
-0.5360910176818157
-0.4900074514069571
-0.6042109920428129
-0.4227544443891503
-0.6939267615371104
-0.02724293192282963
0.2706942701235406
-0.2434513371068868
-0.9247717186720301
-0.005105096377084054
0.9298768151229537
0.3085634722845889
0.0748261671137254
0.7615714335624273
0.04974401719000402
-0.5329835654798833
-0.06261087245713694
0.04599436821300626
-0.8540670433733657
0.07614950696221978
0.8631437901809867
-0.9392932971126171
-0.3468361827079172
-0.04086752951962564
0.3877037124696617
-0.6820649586877104
-0.2427067546622979
-0.6344120434637845
0.7105615492987254
0.6144295445277458
0.2123593857027331
-0.5433931864330184
0.9456554954672629
-0.7789350241518394
-0.1667204712557954
0.01056445877721499
-0.007602450417537573
-0.002962008668678439
-0.4034908851833314
-0.09485135243270294
-0.2411188199716018
0.8555483595632
0.04831961796701471
0.3342532272081675
-0.382572844608445
-0.4614781061828684
0.963567101550195
0.6804611861461887
-0.7829944682658239
0.3195318214687629
-0.01574845019833649
-0.3037833709698186
0.9307255980499384
-0.930725598028219
-0.7812279663354438
0.1110815447041626
-0.3234866727953355
-0.7499273233074446
0.7598027304518105
-0.09067726553000462
-0.1433241461707633
0.2340014125620751
0.8648942490730217
-0.03939322617029801
1.0544763801389
-0.8004526764242275
0.186729337094858
-0.3163252081717214
0.1295958707896937
0.8584678407547768
-0.09689640794522845
-0.6113831595228975
-0.03910075709607039
0.6504839166623104
0.1234272052353193
-0.2304444859630421
0.1070172794546163
0.8055726164361671
-0.9835465491865711
-0.4343220394245521
0.3291419928505219
0.105180045874047
0.5332938855038267
-0.5557755467960898
1.021916266737521
-0.456207064799051
-0.5657092019146865
0.5991618227583189
-0.7193158605669868
0.06656548571995545
0.6527503752296964
0.1023551283034959
0.569558531091535
0.05528808535551386
-0.624846616631054
0.1947327344432406
-0.08365119273871272
-0.4921656827402308
0.145329500625711
0.05024418224730153
-0.8864301778017857
0.8361859954667592
-0.4733937340077284
-0.7132047025563812
0.04881024496042493
0.4371590010626774
-0.005875276213631942
0.3000335257588307
-0.8552815698228697
0.5552480438810151
0.4157579130889904
0.5842420868147606
0.5605275635547172
-0.5145331985858581
-0.3678514487903106
0.03939797803042859
0.3284534744581858
0.6812705923820903
0.249455006284433
-0.5669535056764614
0.5736304426618087
0.1115314446989199
0.8749744427669068
0.01020404317399771
-0.6215871993851273
-0.7490640684520066
0.7993082506686806
0.5304577812868756
0.07008194009442584
0.3012173631158552
-0.3712993034902057
-0.167447462448542
0.4449894309982153
0.08442466553269873
0.8745170526508543
-0.8050658053151096
-0.06945124741892489
0.6353369411790973
0.3103185566686174
-0.4307338165745988
0.5737044885266727
-0.5036225477306805
0.4170936523191408
0.1328428517471361
-0.04672801347755504
-0.5930435797727214
-0.1387862912710278
0.7318298710546659
-0.1497547016444908
-0.7809708929380353
-0.6110120412510139
0.3602501325958123
0.2507619099603554
0.6219256577405303
-0.6117216144558361
0.2391401378310519
1.011504609341423
0.04297177039372566
-0.7490640700070441
0.2313817182624469
-0.2208172576662771
0.680461185691614
0.8017604278820677
-0.8017604277944675
0.8376199350009347
-0.8330841009538877
-0.004535834135456528
-0.4453470650785228
0.8611049812700273
-0.1472885094960155
-0.3448771696534426
0.734755830983947
-0.6685552720576308
-0.06620055885087459
-0.7361043356098474
0.1430607573866691
0.1390815187920453
-0.6720650843529635
0.7829944723146498
-0.9504419346981621
-0.3685604721123943
0.2887314355942576
0.07982903910992285
0.1457504237729551
-1.010110091468845
0.8643596676648414
0.4810356791280307
-0.04206208645368062
-0.3080810924522014
0.5862820339033238
-0.2782009416090844
-0.7386106116185569
0.8843610381734481
-0.1570093634878113
0.7311846355679292
-0.8408355217574677
0.1096508862121649
0.9764218371710255
-0.5391385256499993
-0.4372833114275206
0.7550324125768917
-0.06500284025077836
-0.03337938489973436
0.1845816657571772
-0.1512022802813818
-0.7758155765330629
-0.8396151516899129
0.07348168355688521
-0.749927321854858
0.5137042271227633
-0.5545717517654158
0.1005066540564915
0.7170666011454317
-0.8175732553698164
0.753599912586585
0.1743068736886982
0.5029276416642677
0.4970723583607317
-0.052918045863566
-0.6123830731495772
0.6653011183403319
0.8821494186891072
-0.007632369438901807
-0.755032412597833
0.7993082498493055
0.1916074426493385
-0.4473999001738062
0.0133432978951854
0.003826929714307667
-0.01717023181368991
0.5887198380683205
-0.4374008162170626
-0.1513190224272203
0.7180134814136281
0.01012420638207816
-0.1084305168079869
0.4382665079413853
0.1504533307679956
-0.01637455841771016
-0.006905808067330997
0.02328036662865936
-0.03099869970838657
-0.002380681532310365
0.2457423473383923
-0.2614908097382733
-0.9587697910310313
0.001394523160298029
-0.1594615411699564
-0.1228181194005472
0.09450040133143661
0.7224482753607088
0.7289605248185181
-0.1447184379439643
0.6746882853883387
-0.5741816280769299
-0.2118496067589762
0.3985789463626286
0.6956388385747033
0.02237464286958485
0.2418330415132567
-1.07491714493302
-0.9504419351379448
0.3026881938413661
0.7598027334368329
-0.2092770629696195
0.06595291456484245
-0.7238427978945892
0.9109715397775732
-0.1871287418805642
0.4155689631197278
-0.02786524220796068
0.7711831539445707
0.2806841390484784
0.3764385177134209
0.06773114227170556
-0.6587102654920154
0.658710265513666
0.214707659873095
0.6958982976128434
-0.05646123314260353
0.3907144569164375
0.37914587155011
-0.01435970257491323
0.02770301652095491
0.4483344549863917
0.03270122808583408
-0.7386106102647891
0.5339825385068729
0.2007732917901547
0.3003350728802859
-0.1157534073080831
-0.695638838097086
0.1798039517009478
0.7311675880673563
-0.01019899087484935
-0.8136321841119591
0.8238311749999588
0.6964075224792783
-0.7919769811201833
0.09556945856999365
-0.753599907554658
-0.1504626557223736
0.2119077831313222
-0.06144512647241555
0.07743037073467177
-0.1785697768328511
-0.1125229466049348
0.2910927221515102
-0.007981871045887916
-0.008392676190648915
0.7063141150542915
-0.7165130971893192
0.8869971074539056
0.06889164785611505
-0.3112584116460243
-0.5232102973316405
0.8344687091272476
0.1033280162043974
-0.103328019352578
0.3281294093342515
0.4767966616056691
0.6102528429252713
-1.087049504590833
-0.1940935292818292
-0.5855328085063208
0.7796263377674422
0.01281317062894038
0.2211882358761511
0.3762635329693342
-0.2528363395193631
1.015893184641339
-0.5390965265926931
0.6684196173805894
0.9923589132516116
-0.3821060738268723
0.2289750284463196
0.8843610408052456
0.7126352690626705
0.2138909770424252
0.7277931293936784
-0.780970892243209
0.3412897295842989
-0.2847373799501692
0.26054148103439
0.02419590099338268
0.8508147762735463
-0.005151400659980747
-0.8456633758938391
-0.7021176462185663
0.702661877242028
0.5546529353783144
-0.7021176471403511
-0.712635269049566
0.7026618762422314
-0.03365962654478514
0.9079192917712654
-0.02092218027942606
-0.6812706040384576
0.6122363714358318
0.06903423261277372
0.5385943873076252
0.5384403775624201
-1.077034764892999
0.4873070084976634
0.528586175178039
0.5483724993434236
0.4575612281831085
-1.005933727591629
0.4929858874094615
0.4993730244863831
0.6122363794936873
-0.5256886962863316
-0.4666883570540408
-0.5560618696404523
-0.5138368041344851
-0.1237689143604988
-0.01283052807659379
0.01283052906990097
0.5097334825553886
0.5245792997504934
-1.038416104012322
0.5720886749298438
-0.2708713106647944
-0.8829627994208832
0.3438242746016721
-0.6327723157473589
0.3900655627338647
8.261656410616662e-06
-0.8262598178700005
0.8262515563016344
0.4208794434991654
-0.02514125648866071
0.8759560336342629
-0.9456704594879572
-0.8338331800703161
0.05646977998839295
0.7773634002117727
0.5547935562676213
-0.4378543131924152
-0.116939243127308
0.6502030969385432
-0.729414628878066
0.8866038778043032
-0.8267975126107603
-0.05980636491345824
-0.01468361883252299
-0.7903821896825011
-0.1112944405170445
0.7139017593651262
-0.6026073188666439
-0.9415022754856749
0.9268186567768062
-0.7321263038649802
0.6882436285552387
0.04388267536120165
-0.8016468485887214
0.02810787103466398
0.7735389776727527
0.06191689008835195
0.04141113003812815
0.4328763821058901
0.05906659220526386
-0.8501252750963695
0.7910586827708502
-0.6459683246708537
0.5930502782134739
0.8888787804996037
0.07364275491433221
-0.9625215354410316
0.05504560433728734
-0.05054106495412907
0.3789945355800262
-0.3818760029206206
0.06555079386291737
0.8404953039612399
-0.8404870441603784
-0.732755193180139
-0.8135987596091767
0.02321656991464973
-0.167393637514135
-0.8478979966888173
0.0211004788311069
0.6224754173948661
0.05221287038092781
0.01972854510437872
0.5350650057024584
-0.8158855994478255
0.8439934751828158
0.5657092024178083
-0.8514010763550416
-0.8678595179985614
0.04005977861141397
-0.02897012029983502
0.833883399649236
-0.8049132792918389
-0.02164644511985437
-0.7617253111556487
0.5442816098244114
0.1521259204387921
-0.01799780286009589
0.8939538362314048
0.9832884388980437
0.8614146777021826
-0.8403142007590181
0.1478102313301344
-0.1478102330129782
-0.1175090342407705
-0.4641920216176044
0.02633770537565838
0.271041406718802
0.03164678752923475
0.3865627204487511
0.872307393236035
0.008280133750766855
-0.01626199641819085
0.6585919599396589
0.3414080400774274
0.7836117857775645
-0.583684828757887
-0.7780780311489335
-0.8100646753180196
-0.679942973902644
0.6799429739149235
-0.1682497030486308
-0.1552369644240615
0.602107516969175
-0.8112889742754111
0.2091814573428042
-0.4940765250873905
-0.5688406006036526
0.2779889072173454
-0.9719156687984242
-0.8986069582247282
0.8388005863349332
-0.8176939081728372
0.8409104794723395
0.6484963939295812
0.1343575480798131
-0.7828539420349825
-0.766182001474643
-0.1464547823249386
0.7253314099347833
-0.5788766276628196
0.02629956767751316
-0.01185176761715182
0.015463540857296
-0.003611772071943867
-0.352260623038268
-0.1119313933483332
0.8800964277318254
0.7417517558828097
-0.2402362058167099
-0.5015155507475361
0.6248125198457178
0.6857778058008845
-0.4710701461292243
-1.503257838523803e-05
-0.2854833518335231
0.0114629968443124
0.749484221267768
-0.7609472178540113
-0.3234192714453283
-0.07233788153797305
0.07630341179732697
-0.9678308550883833
0.1221674810984134
-0.6769314209251618
0.05438004958531075
0.6397732931254161
-0.6941533427437617
-0.7562425208165917
0.07931109989712255
0.5893151630450372
-0.6616530445062504
0.1567868323522486
-0.3353566080950586
-0.7721692564235084
0.005987254876215954
0.3710975278273733
0.599709701569852
-0.02600520972246432
0.01994422575340242
-0.01994422671207885
-0.01973632016854497
-0.05103944360550535
-0.2336979280914524
0.0243392243541807
-0.01605911976299539
-0.7199563880914021
0.2793614391695795
0.6788728418161996
-0.6895173034327758
0.01064446185751375
-0.5952028766605586
0.6495829221766162
0.6546217396169229
-0.06530657274068292
-0.6307120081677794
-0.1255305166538833
-1.050138393007182
0.01118116173648775
0.1366290752011182
-0.7084933912575411
-0.7420064545546926
-0.7639769657954635
0.3660961357430473
-0.4052754411689175
0.4637192279236245
-0.0584437863806729
-0.6680874338933527
-0.04040595729992915
0.5000433438880302
0.7306851578039428
-0.2356655248193665
0.1128474061539392
0.9618436024474458
0.4465599582352939
0.1321195555325791
-0.5786795138492169
-0.6767894769667655
0.008702045898676063
-0.04446146196916301
0.0326096840623759
0.6371762670837439
-0.775962557476423
-0.002424186968176833
0.002424186792861751
-0.6003567322274573
0.6497452965828044
-0.04938856447943312
-0.6570609338950254
-0.1137738617382154
-0.6717278590718082
0.05785647063138993
0.6074446435820721
-0.1376494860382077
-0.8181826396026962
-0.5706967130392805
0.5720297682019778
-0.001333055708812337
0.62928372783453
-0.6186392702409915
0.3224537506233036
0.2135969105378122
-0.5360506611565394
-0.1048301845461017
-0.6021634561518557
-0.0919898867534019
-0.1537967686091077
-0.5128402414462108
0.4043116658869552
-0.4991630205827957
0.1262172481764397
0.6787460240177599
-0.8049632721173814
0.5991618227555291
-0.3726075700612699
-0.03266787351837978
0.06524410696162379
-0.5780843522805383
0.5513423509838834
-0.04043912806725657
-0.5109032230716675
-0.3130685639613685
0.3057120365102241
0.007356528406524
0.4514019604315782
0.1206867155101939
0.05245828591025379
-0.3164948236660171
0.1575167627644662
0.1589780610944305
0.2466331567002565
-0.0152514380110298
-0.2953721791869453
-0.3118772722206661
0.353593671978484
-0.04171639792004198
0.7905870980837689
-0.6279824691246204
-0.02907846513611544
0.4994112562813711
0.2854585061005258
-0.5256947082592565
0.5774508727894757
-0.5774508727878137
-0.289776092161819
-0.5864994828445723
-0.2955479224037106
-0.5864994829451492
-0.5964253937161311
-0.8384803851894834
0.1699251125377708
-0.6016447503421315
0.8211808830394647
-0.00322939912821083
0.1180979953222311
0.4816117077507111
0.09677635723463893
0.1858850673776025
-0.03631528178177851
-0.1495697839384748
-0.02961499194331735
0.5901328417382503
-0.942482664673431
0.4192723641761449
-0.007056349244040456
0.001294386986576362
0.005761963305012637
-0.6441831985783543
-0.1321131776658697
-0.4670531856733115
0.5991727431768813
-0.5034925022124126
-0.3188476682391236
-0.2592366625498292
-0.2721365867755294
-0.1114682276694141
0.1114682279610566
0.1535602929495414
0.0583474947094508
0.1970662336847594
0.4484677795705262
-0.5694999607372163
0.102446771008263
0.2534851381256569
0.466418332172743
0.5335816686653259
0.6455085595322693
0.0838442019376642
0.0008402096606922192
-0.08468440932741335
-0.2771254495061034
-0.5410571902074113
-0.5468401591248152
0.1148452393821076
-0.1266737512821858
0.01182851242617799
-0.1055993969044246
-0.3853162961327029
-0.05030567902656569
0.6577503470219569
-0.4994625755606905
-0.1447206229577191
-0.3264501190329558
0.2859753712865091
0.1292225473078992
-0.6145875824462972
-0.2045649923781303
-0.2630179632802603
0.001527174523350123
-0.4210367873943217
0.3229404018692109
0.09809638595392194
-0.09186243724678714
0.2917316695482252
-0.8959426611558737
-0.4573491734930204
0.628135352783897
-0.7732464315120663
0.6684162470134936
0.3401733924045081
-0.1249454818584313
0.2240936579638927
-0.09914817705676161
0.03094364902819666
-0.5862007556797669
0.02871921148590978
0.5574815438764853
-0.90061027354422
0.5478362270258413
-0.6653452612236489
-0.103682081880712
0.1094888264871187
-0.109488829858062
-0.3165098562495921
0.3587122955796817
0.0202822340896016
0.02312073659834002
0.06072345320669723
0.5044525725478761
0.6677771461101678
-0.7372283958153478
0.02694765679915884
0.01974931262341979
0.0001949058474728696
-0.006541607568953159
0.006541608327688558
-0.4101184061120299
0.5308051210332707
0.01577303078687121
-0.01577303063094046
-0.7926746573046219
-0.06047518968417981
0.1223920722740614
-0.452883894068588
0.5553306640951102
0.4506458328234094
-0.5000343919769223
0.150238370778717
-0.1502383719182645
0.04057137638642305
-0.0128683538247778
-0.04182971572851608
-0.9756560690911797
0.5383727595321903
-0.468562198097684
0.04141112921087409
0.5152092253405938
0.030480344060673
-0.5456895696813899
-0.6164586516990427
0.1169960780213252
-0.3291148922005461
0.01360014484069264
0.3155147465980376
-0.155087467838001
-0.08057806882128303
-0.5410091511131886
-0.04519159564813375
0.1366290773210276
-0.04074868516864032
0.03832449471925268
0.08110952729942766
-0.0811095233003765
-0.5263890237000682
0.4846726152108077
-0.4148977030194013
0.1612952343200673
0.6223165515182781
-0.09706780558164829
-0.004480670632146632
0.004480670407409425
0.5329838148614903
-0.0795225732223476
0.006160805903847595
0.02714025145583764
0.03486953730593901
0.6883507093119215
-0.7678732827667167
-0.6590790034690651
0.6300005417431462
-0.1098498691705702
0.3139663019365335
0.7455295454126006
-0.01973631863979047
-0.2652753915356958
0.149521995154094
-0.7445979364557999
0.4837634491021965
-0.4266303152653078
-0.1012494134875957
0.00327246300030241
-0.01454432258809893
0.02517946021485406
0.4118471025890262
-0.1215719587933984
-0.3893312636464543
0.6290230227177288
0.01937211987012184
0.009026688015384882
-0.009026687735592981
-0.3523253186746084
-0.07792123564713282
-0.5602795573384831
0.5570501579719261
-0.2374684199072508
0.4647100868059996
-0.1506818073533731
0.7311214291948924
0.6694439371610876
-0.04074868613822473
-0.6173475711468661
0.5610134206125079
0.2820930529192664
-0.2770411548038019
-0.005051896810809732
0.5381381093250484
0.09344348959010484
-0.03883205137471676
0.1962039269180897
-0.1573718749076234
0.1199415900200355
-0.1199415868326902
-0.8586166911042092
0.00242813024778506
-0.1134150391523549
0.140555289102013
-0.1315081311538997
0.1315081317122995
0.01974932298997177
-0.02421699590361008
0.6703536105077104
0.06081397866747466
-0.3226378804103069
-0.06267841505178745
-0.4712917895537451
-0.04435706665814104
-0.1512867189201022
0.151286719952646
-0.04411302279411661
0.1436864349962648
-0.143686435773109
0.1363048545722401
-0.1363048524418842
-0.3161936861396114
-0.114540130338796
0.2259804660957642
0.1031615273451606
0.03478550846073932
-0.8212366183923543
-0.1981246811611771
0.169894986246503
0.02171245137707598
-0.2642499393771437
0.1262239525462005
-0.1262239532247618
-0.414338814059313
-0.0848242041051975
0.2357167915496876
0.002847272815670859
0.04036084812979843
-0.5446569584390742
0.578316584997586
-0.0332977873683333
-0.01081523280568955
-0.02464114015996085
0.01177277809422716
0.006551912298877288
-0.1847690423336828
0.1782171301758379
-0.1080588812503666
-0.2272977244938522
-0.1443715458341919
0.1443715466301002
0.07240392630969546
-0.07240392600451329
-0.01894922992044411
-0.108557205524482
0.1275064347687551
0.2339511555192265
-0.1834726897642663
-0.02333588036099769
0.02353077439816062
-0.1287743252576915
0.6134469398948874
-0.03906430545819689
0.4265563508785945
-0.04192513519596792
0.0652054924658747
-0.1530604884089087
0.1530604898855328
-0.6366260363541704
0.3081011151710323
-0.07912608683113083
-0.2340992009308448
0.003654713207183465
-0.1214663125566087
0.161827161833281
0.1948668618818771
0.09622585851896556
0.09581648095190676
-0.06094694403727346
0.07319127259202193
0.04165396571506996
0.06418505781224773
0.1057099337180362
-0.1001792723319379
0.213026695893673
0.01145088057257298
-0.116238380317348
-0.1010034700714191
0.0961581602036122
0.004845308879565116
0.01072263223892498
-0.02255302328453899
0.03733491684308586
-0.03733491681115163
0.07473761673314532
-0.05536567222201255
0.05536567254348401
-0.2243592367358095
-0.05103288502095773
0.01179199171689998
-0.1031344247806316
0.01636327504983863
0.108848145494563
-0.1088481459488592
0.292963250383071
-0.2707896829402472
0.1627307990781021
-0.05067855485031065
-0.2201111272980711
-0.01682146698414713
0.01682146672027332
0.3675837130629807
0.2851666585900814
-0.5280432934370043
-0.09392504165556843
-0.03274871029084032
0.5288789441435763
0.2093099993820043
-0.1690495339388773
-0.3807211917504895
0.0765829465845889
-0.1471748804459142
0.1867814856149542
-0.03960660497248823
-0.06719419315762332
0.0671941929140354
0.822112492002763
-0.5603226253230772
-0.003979871543828978
0.0147025052251508
-0.02003990185931733
-0.2873501417795382
-0.01746248844411754
-0.01286341491573506
-0.1321717654432643
-0.5723195581359639
0.5561159956948194
-0.5686944716218962
-0.006915174912645906
0.09913835550990752
-0.00177376723967783
0.01675563169395392
-0.1672147832764258
-0.336131846981942
0.2329974221474516
-0.0540182447407885
0.03506901351049156
0.1322225273733723
0.1734895104865259
0.3422056549128429
0.2759010985522197
-0.2776748662003974
-0.06267898005375097
-0.1551276090388752
-0.2204990608573299
0.07453168394957314
-0.01034662413933914
0.2135306343892692
-0.1967750031986146
-0.0862421560279075
0.1594334340951479
-0.3550975588298187
0.2080504238971304
-0.1916871490248057
0.08964044892800802
-0.4789717073306327
0.1739180702910146
0.1707392585537472
-0.2569814191362932
0.07326345380236342
-0.1948749955497291
0.1774125076185605
0.01737579673406645
0.1420576373591535
-0.03959262954521125
0.06574794548005156
0.4672358699602349
0.02051344317299895
-0.08433726638630946
0.05504411942210206
0.1260109612157053
-0.2601056684176262
-0.2309517926830458
0.5597247859068432
0.1569441364787126
0.07877265663983107
0.07476678136397748
-0.03107548149779052
-0.002251949261180646
-0.00279993477204732
-0.03259449544383799
0.1706575963956088
-0.1775727717878356
-0.05915780942187144
0.01955091235746767
-0.1471416516217844
-0.05281736401687964
0.1538688754405554
0.2770471139453552
-0.04054779957148741
0.009520832639753282
-0.255162976260474
-0.1316109517377577
0.2362900530712013
0.1785542144000304
0.1295468993131312
0.02184347800864099
0.08844212729203794
0.05228720949821503
0.4521653631013545
0.01629619304885969
0.0980033536819829
0.04294111679521838
0.07234133567872533
-0.1152824513167876
-0.2428766315762739
-0.2003976995617264
-0.01971343206147918
-0.2019245896562584
0.274876401812406
)
;

boundaryField
{
    FrontBack
    {
        type            empty;
    }
    Top
    {
        type            calculated;
        value           uniform 0;
    }
    In
    {
        type            calculated;
        value           uniform -1;
    }
    Bottom
    {
        type            calculated;
        value           uniform 0;
    }
    Out
    {
        type            calculated;
        value           nonuniform List<scalar> 10(1.035679508690642 1.064283083617897 1.022750226692045 1.021572063921923 0.9960016053207381 1.013209828778997 1.034312782987574 1.062917125701476 0.8672269698708626 0.882047405259496);
    }
    circle
    {
        type            calculated;
        value           uniform 0;
    }
}


// ************************************************************************* //
