/*--------------------------------*- C++ -*----------------------------------*\
| =========                 |                                                 |
| \\      /  F ield         | OpenFOAM: The Open Source CFD Toolbox           |
|  \\    /   O peration     | Version:  2412                                  |
|   \\  /    A nd           | Website:  www.openfoam.com                      |
|    \\/     M anipulation  |                                                 |
\*---------------------------------------------------------------------------*/
FoamFile
{
    version     2.0;
    format      ascii;
    arch        "LSB;label=32;scalar=64";
    class       volScalarField;
    location    "1699.5";
    object      yPlus;
}
// * * * * * * * * * * * * * * * * * * * * * * * * * * * * * * * * * * * * * //

dimensions      [0 0 0 0 0 0 0];

internalField   uniform 0;

boundaryField
{
    FrontBack
    {
        type            empty;
    }
    Top
    {
        type            calculated;
        value           nonuniform List<scalar> 
15
(
142.287769470011
133.5886165333642
138.0684654832
144.4111376329544
159.7708408618148
131.3682981223849
140.1383386299641
135.3614787836881
153.4515977358192
135.7326529626725
136.095736128379
136.769254553235
125.265610871615
132.9124976370469
123.9529532292105
)
;
    }
    In
    {
        type            calculated;
        value           uniform 0;
    }
    Bottom
    {
        type            calculated;
        value           nonuniform List<scalar> 
15
(
155.5664356622637
158.1185382245632
141.0827484865487
142.0426164803091
141.1766375475949
148.4243020728581
142.698067771934
143.1487205955117
143.4222181754406
134.0562579010579
125.7251926589745
141.5533790654319
122.4054654269168
123.4873222374843
124.1296964662359
)
;
    }
    Out
    {
        type            calculated;
        value           uniform 0;
    }
    circle
    {
        type            calculated;
        value           nonuniform List<scalar> 
32
(
56.17913631163931
22.21302522045129
65.30119369794113
24.03995462161649
19.48440521488306
56.15003560516346
56.71771593319165
23.87599539536535
22.36130507685698
65.53732173414829
39.96312643343213
63.00245747501422
50.45601304824868
15.54081361991463
23.42666167223951
17.98632821724615
39.11179757101995
59.6796843864978
60.99214158118643
24.26711142121244
65.72162521454261
63.82870120351972
62.99456190908383
59.93832020366992
64.09125429548224
45.91780317100513
66.37722869075229
32.01364236781914
38.0406916311919
55.77410661128582
20.95487464120323
43.18048314105287
)
;
    }
}


// ************************************************************************* //
