/*--------------------------------*- C++ -*----------------------------------*\
| =========                 |                                                 |
| \\      /  F ield         | OpenFOAM: The Open Source CFD Toolbox           |
|  \\    /   O peration     | Version:  2412                                  |
|   \\  /    A nd           | Website:  www.openfoam.com                      |
|    \\/     M anipulation  |                                                 |
\*---------------------------------------------------------------------------*/
FoamFile
{
    version     2.0;
    format      ascii;
    arch        "LSB;label=32;scalar=64";
    class       surfaceScalarField;
    location    "1238.5";
    object      phi;
}
// * * * * * * * * * * * * * * * * * * * * * * * * * * * * * * * * * * * * * //

dimensions      [0 3 -1 0 0 0 0];

oriented        oriented;

internalField   nonuniform List<scalar> 
1171
(
-0.9279200275692823
0.9279200275989501
0.7872616510108347
-1.098746792248192
0.3114851411624361
-0.1948676236912426
-0.7673102839154947
0.9621779075735345
0.07207997957867546
-0.1174486360830188
-0.2117854953687773
0.3292341316562463
-0.7872616538997946
0.06928891607202231
0.7179727378201488
0.8107435233067364
-0.1773919165373004
-0.6333516067475603
0.8742177190740315
-1.043475578007748
0.1692578589071492
-0.2846988444519631
-0.09795809883676362
0.3826569430618597
-0.03604560901545602
0.5483558584709366
-0.5123102494037917
-0.5066305451820311
0.8288607311528077
-0.3222301859392868
-0.402147487242001
1.045664156935447
-0.1714464363468256
0.395891542768543
0.04878201481668117
-0.4446735570677317
1.046404738524862
-0.0007405812265212559
0.4464123536205866
-0.05052080703571417
1.056943106467092
-0.01053836256332266
0.5782060022871889
-0.7730736327918089
-0.7243298535925746
0.5571298843383499
0.1671999692919297
0.2200806136413094
-0.7267111535845255
0.5501115719028911
-0.9225951407341855
0.3724835693075322
-1.094187924049668
0.686434451925247
0.4077534720474059
-0.5953529206660085
0.559307305544905
0.01785501579490905
-0.2565220893054976
0.2386670742180493
-0.02432799430868534
-0.5235057105538207
0.5478337047744599
0.3998492251935079
-0.4978073310821049
-0.9187563887245344
0.9414867993509747
-0.02273041062904345
1.067770844433311
-0.01082773545138717
0.9352138131906975
-1.116982484874161
0.1817686717174811
1.067410669318062
0.0003601803731197546
-0.6642817462443817
-0.06004810778844477
1.262058131922797
-0.8644457488796072
-0.3976123830471722
0.1486542859167446
-0.1091130044480601
-0.3256083867219546
0.4347213909915085
-0.2857037294524916
0.1913232411455731
0.09438048799334875
-0.5833911179228697
-0.5153556733823713
1.01411509600871
-0.0789012824385099
0.009921111978371925
0.8254447460769685
-0.8353658580708352
0.571786742249862
0.6902713877992555
0.4392428488440608
-0.03064440718214543
0.4304936317559461
-0.8077274666688553
-0.1026238565079697
0.9103513232158462
0.5027080512810734
0.2539067056017409
-0.7566147568638125
0.00364247482223781
0.5301715339365027
-0.5338140085692517
-0.4899018234994786
-0.6042860968618016
-0.4229042430592851
-0.6940782421587465
-0.02746104823703587
0.2704373068322402
-0.2429762590730725
-0.9249087663920497
-0.005204740385508602
0.9301135067560721
0.3078313067042738
0.07482562759086032
0.7622872161352903
0.04845630904834833
-0.5330090702553174
-0.06234385379056343
0.04631439944077978
-0.8540418638752829
0.07670862563360421
0.8618242072299034
-0.9385328328629301
-0.3474017747726281
-0.04098756769205909
0.3883893424840977
-0.6824308734577809
-0.2424778954611785
-0.6316624274182145
0.7083710550928145
0.6095229803906406
0.2193377555310385
-0.5429546646238393
0.9462148226267908
-0.7793735806176996
-0.1668412420161487
0.02091980264344003
-0.01202514393348926
-0.008894658186799414
-0.402977817717615
-0.09482951442561466
-0.2419849253139953
0.8515079110437266
0.04710461417716156
0.3341725346531155
-0.3812771490731748
-0.4607908665772417
0.9634989192778718
0.6801182842543627
-0.7827421378012692
0.3181884373004003
-0.0156679504993904
-0.3025204865011766
0.9306644386571469
-0.930664438665
-0.7830210443477764
0.1112218190584024
-0.3230073194501235
-0.7500426479599035
0.7599637586420045
-0.090900934177266
-0.1426801921496544
0.2335811260247007
0.8649340247306195
-0.03948928043760538
1.054484135999737
-0.8005774268325159
0.186164115319888
-0.3157664889695644
0.1296023736964878
0.859092681344418
-0.09680546517634939
-0.6116833993927072
-0.03943752902496243
0.6511209284058349
0.1237916353412697
-0.2309249344689208
0.107133299803911
0.8056103065292803
-0.9830022219283119
-0.434966654808415
0.3294161765483582
0.1055504784825184
0.5321763422046366
-0.5565043336723061
1.022130669231968
-0.4562790403760414
-0.5658516288514641
0.59922642735337
-0.7192938753053255
0.06660271362448676
0.6526911614556561
0.1024779256223053
0.5704319657548064
0.05465845962496355
-0.6250904253107057
0.194556644471638
-0.08333482789353661
-0.4928945331802709
0.1454927595799042
0.05037230057628497
-0.886784589060138
0.8364122885139358
-0.4747236986850955
-0.7133907130917163
0.04910896444133426
0.4364872115750318
-0.00599358424806994
0.2999870416411616
-0.8552781284819501
0.5552910869801567
0.4157257072141292
0.5842742928105352
0.5606124561772863
-0.514298051559575
-0.3652930446541828
0.03620546705579977
0.329087576030525
0.6813343800572845
0.2493300581241928
-0.5670233169942455
0.5706657904177682
0.1108788259036718
0.8748992244971623
0.01029451315934171
-0.6219779132272443
-0.7492883758173293
0.7996606763173923
0.5309944334866954
0.07159333969235797
0.3007851624702629
-0.3723785020756481
-0.1676074074999841
0.4427342975339395
0.08743723028528638
0.8750402129785935
-0.7982010971444184
-0.07683911578389561
0.6355323966487426
0.3106824254721123
-0.4304388669179126
0.5754324382328178
-0.5038390985045005
0.4171116357320552
0.1329999416187391
-0.04689847731222714
-0.5887496958056349
-0.1387649514717113
0.7275146472674261
-0.1496693431489242
-0.780995098294333
-0.6110622680977082
0.3605196279448229
0.2505426395306932
0.6222679040919989
-0.6119733902358958
0.2383331966045799
1.011630267209785
0.04285386797382011
-0.7492883755594978
0.2198834577087192
-0.1989636626497866
0.6801182860374876
0.8021458674728739
-0.802145867496274
0.8376756221097311
-0.8332814330971803
-0.004394188968106299
-0.4453643738165926
0.8610900802210651
-0.1476294910524786
-0.3452650446776005
0.7347392727036702
-0.6685044288913473
-0.06623484385300622
-0.7325735920918013
0.1438238943710466
0.138864253858551
-0.6718733242830812
0.7827421318236363
-0.9503495393580195
-0.3648236052218311
0.2873071934789147
0.07751641138937211
0.1458432204903096
-1.009617911154806
0.8637746906784731
0.4806115826019609
-0.04136873380130733
-0.3081487678805931
0.5863702114315251
-0.2782214434838634
-0.7383429351047589
0.8841861535250631
-0.1571056765486786
0.7346298072905348
-0.8369857858381866
0.1023559786190855
0.9782275960212977
-0.5414893804138948
-0.4367382156315365
0.7552473911417481
-0.06484803236188594
-0.03573737423026464
0.1875926323817408
-0.1518552584555819
-0.7757345667855842
-0.8440422231265269
0.07673193241249113
-0.7500426479953762
0.5141333112720677
-0.5551208808920752
0.09117727963131943
0.7178709472572111
-0.8090482268165257
0.753682558360026
0.1742374769547176
0.5028854857626578
0.497114514224534
-0.05360641843048218
-0.6058671862921051
0.6594736048744178
0.8790293692495761
-0.003989153282876133
-0.7552473911340976
0.7996606777429172
0.1912169842183598
-0.4477390718348913
0.01816399642996491
0.001256822303324778
-0.01942081651206382
0.5894704667356464
-0.4382132626508339
-0.1512572038702216
0.7179727399372779
0.01401970228538032
-0.1094124178794392
0.4379827801400861
0.1514876887279611
-0.01351516475290641
-0.006863994800259379
0.0203791591684135
-0.03376438103722246
-0.001973002461943808
0.243947520269611
-0.2596154588388469
-0.9592515432921683
0.002012351711133726
-0.1595908655558735
-0.1208760840804735
0.09474764583964593
0.7215139979407088
0.7289961614590532
-0.1447218680335298
0.6617470139357197
-0.5705697374503357
-0.2119152893049456
0.3980794043990564
0.695489071109427
0.02248366881663484
0.2416461245906785
-1.074927554868413
-0.9503495373724755
0.3018377276752783
0.7599637578907387
-0.2088708388243717
0.06619064950517681
-0.723526350026636
0.909424890560505
-0.1858985405111363
0.4163268006286832
-0.02793746360115747
0.7715642566793365
0.280706129951381
0.3733298133051814
0.07308252627806423
-0.6586998052937841
0.6586998052812786
0.2148064528923129
0.6955448742251309
-0.05514879446666296
0.3893213283722875
0.3795725980082365
-0.01287510540739336
0.03103909364908147
0.4491806446761585
0.03143093548802074
-0.7383429357256536
0.5340884405110622
0.2006508343140866
0.3045271683849163
-0.116934532573202
-0.6954890701280816
0.1797008862343579
0.7297240033037798
-0.01026792891794567
-0.8136280531707617
0.8238959820742187
0.6963189969888161
-0.7920356416313736
0.09571664465924236
-0.7536825621251747
-0.1507161068319658
0.2116958446347436
-0.06097973832996668
0.07740486109399529
-0.1791032622198056
-0.1131782779394506
0.2922815405557529
-0.005788930677708213
-0.007726241759217605
0.7066173712829639
-0.7168853071784186
0.8852787152097186
0.07689918577290433
-0.3170235616504645
-0.5172639148919734
0.8342874764183075
0.1037913170187895
-0.1037913158232455
0.3235126629869702
0.4732940304792117
0.6174416536054556
-1.090735684015099
-0.1941121321266047
-0.5856657919386545
0.7797779240720045
0.01356913193016132
0.2200120003123552
0.3769246980570067
-0.2531330508022529
1.013812101019913
-0.5405180677581141
0.6656093694087963
0.9946038802531449
-0.3771622239139931
0.2292952023413399
0.8841861511582381
0.7127397171710231
0.2137588954466984
0.727727907557553
-0.7809950986713272
0.3413001994880677
-0.2765301551219992
0.2463254565074556
0.03020469842712815
0.8465132691142282
-0.0072055087784464
-0.839307760222509
-0.7022013599374138
0.7025615427984223
0.5546356264595501
-0.7022013577308552
-0.7127397171711393
0.7025615456212051
-0.0348469684798066
0.9071214988960505
-0.02184278711824468
-0.6813343708756777
0.6123518335029731
0.06898253737128467
0.5386842350477085
0.5368988711021766
-1.075583106148423
0.4907162467604994
0.5230958550031005
0.5431620000027902
0.458978468419445
-1.002140468387306
0.4963799353462985
0.4982239457191909
0.6123518270228736
-0.5255365865700627
-0.4652197602564523
-0.556678590313325
-0.5181620269415831
-0.119114844864338
-0.01225382228577668
0.01225382176765876
0.5130078339960586
0.5231854774815919
-1.041347504352355
0.5745106937289807
-0.2737255334872843
-0.8853506153412803
0.3438612341200484
-0.6330978208919482
0.3906199249404229
0.002591241992632763
-0.8285814026887108
0.8259901606839474
0.4208473881847995
-0.01813418431138727
0.8646474509066001
-0.9486859851940508
-0.8336484867197664
0.05397765443089034
0.7796708322540292
0.5661880091256635
-0.4394821386057242
-0.1267058705478015
0.6501046382471657
-0.7290059210442941
0.8868450636948911
-0.8318040531561043
-0.0550410106503344
-0.01016110620291133
-0.7880399884386511
-0.1098036306000462
0.7129404699641362
-0.603136839358002
-0.9363911818550722
0.9262300760275182
-0.7257093102656854
0.6916587160283276
0.03405059423464639
-0.8110910789562188
0.03901246695997062
0.7720786119443102
0.06176740092775725
0.04202391251821487
0.4329869826459466
0.06184090744828263
-0.8517194456496594
0.789878538274108
-0.6435383682600503
0.5899319531382776
0.8894709279504535
0.07055720726824745
-0.9600281351666299
0.055822438961303
-0.04776012857417673
0.3768477113535725
-0.3815190089397043
0.06575252268789783
0.842182645094065
-0.8395913987480447
-0.73419189855335
-0.8133661304978809
0.02532614248801981
-0.1631328873190827
-0.8529091348127967
0.0211050879698235
0.6233533354901727
0.03839367680338211
0.03418624238299521
0.5320017758469646
-0.8072370755174226
0.8462495390859243
0.5658516276190636
-0.8467155809623994
-0.8658339759445077
0.04128752001405261
-0.03419874384197377
0.8378126087559181
-0.8036138649417436
-0.02691896456974323
-0.7683906458368476
0.544342517183365
0.151976476142279
-0.03057553073072952
0.8952229826537715
0.9802077292225766
0.8625471667959539
-0.8414420749174667
0.1476518161827144
-0.1476518151520517
-0.118521553293901
-0.4809404875161153
0.0414583538106763
0.2703983186597206
0.03143940882731803
0.3873495232480816
0.868304015927688
0.005720065263899346
-0.01150900668128646
0.6586018664355986
0.3413981335522114
0.7835916152454901
-0.5833911169352429
-0.7780937619132958
-0.8108193795834271
-0.6798311395698085
0.6798311395691927
-0.1678213960619845
-0.1551859292459337
0.602021711098229
-0.8122059565888499
0.2101842454783107
-0.4938000112289532
-0.5690024067256932
0.2781569008502853
-0.9722351426254846
-0.9017397656019623
0.8466987633918619
-0.8128137923310996
0.8381399341842785
0.6487362587917848
0.1342301207774495
-0.7829663795611397
-0.7767687864640892
-0.146037871869185
0.7242343704228092
-0.5781964985480881
0.03343574687633003
-0.01418007974219248
0.01801802220338308
-0.003837943162865391
-0.3549322520021843
-0.1260082378591364
0.8801786089180932
0.7463392284009124
-0.2466052940429002
-0.4997339341816773
0.6196333554928978
0.6853784724046418
-0.4705720187171764
-0.0004395889398514661
-0.2852641380349163
0.02356228793202487
0.7479816261897408
-0.7715439141884033
-0.323498886468659
-0.07287257679767073
0.07592005051259203
-0.9610235026504489
0.1217157392865772
-0.6779758400697318
0.05183699719298671
0.6407803099245584
-0.6926173071385173
-0.7564520244799766
0.07847618441667549
0.5879448511005804
-0.6608174279432204
0.1571782510126853
-0.3362815103149771
-0.770472899817862
-0.006295886630100642
0.3711882588798572
0.6011456700321159
-0.02571323462066777
0.02169749979456598
-0.02169749929687054
-0.01911783092445522
-0.04939719701519325
-0.2271329725720623
0.02576577912145035
-0.02004568631479977
-0.7320792216535008
0.2792682349981263
0.680543116427082
-0.6892366246232309
0.008693508078291633
-0.5955321499177475
0.6473691503897372
0.6531746447241829
-0.06522979397204393
-0.6313486706939541
-0.1251033518798161
-1.050478603006499
0.01105228282979387
0.1365995299453504
-0.7085169330301195
-0.7411522994391214
-0.7631739868126939
0.3655616023399603
-0.4116587578169965
0.4640932850046654
-0.05243452718872236
-0.6682980666628562
-0.04021886642449556
0.501867145859536
0.7306818457618808
-0.2340625665323782
0.1131864816622902
0.9673193872226942
0.4462847231478198
0.1340881272089996
-0.5803728503257435
-0.6777211852969123
0.009423116699862821
-0.04470360730418441
0.03052354368016919
0.6364135771991176
-0.7751785289154324
-0.001858686391949092
0.001858686706861678
-0.6011648863701057
0.6482868468709536
-0.04712196049663393
-0.6435349417968298
-0.1130693532996322
-0.6715170776324625
0.05602801436669139
0.6034455959390658
-0.1371469660399909
-0.8175549501660098
-0.5621987688530021
0.5654797537448498
-0.003280985269506523
0.6318498684784765
-0.6231563582520152
0.3224153991851766
0.2141512817983295
-0.5365666809789651
-0.1047387231197475
-0.6017345413320123
-0.09088276530655762
-0.1548801677380684
-0.5061707488864954
0.4040904143855901
-0.4989199271577476
0.1268916904512312
0.6782818562554425
-0.8051735467145164
0.5992264273567124
-0.3678210544995962
-0.04383769725710907
0.08242601527376514
-0.5885967630506541
0.5517680229547004
-0.04057963073686478
-0.5111883921043883
-0.3125815669460956
0.3051127159016965
0.007468850371537571
0.4546293495034653
0.1198813456727306
0.0514401025024768
-0.3160897107792824
0.1570089779104875
0.1590807327412735
0.2287179680249098
-0.008834503181581559
-0.2937694119423932
-0.3111439791648921
0.3582132413321437
-0.04706926376877456
0.7873251098905181
-0.6263407917595744
-0.01719414993235956
0.4992591951014165
0.2808046334004437
-0.5274099260202099
0.5775070575338985
-0.5775070575339915
-0.2897383363202923
-0.5864445930646415
-0.2955778700303982
-0.58644459291679
-0.5944665362861488
-0.8385126560796982
0.1700082283414491
-0.5848824431993312
0.8211167957504605
-0.003352856851612775
0.1184845114846202
0.4826611570782668
0.09672716900423914
0.1856946961839934
-0.03642138206324841
-0.1492733147012427
-0.01940268293399047
0.5938256253345739
-0.9461463453495258
0.4288824338866165
-0.003524106632549787
0.003311393681899183
0.0002127128739592651
-0.6434262923562116
-0.1317101795247678
-0.4677752742441398
0.6018633986110846
-0.5036981449659291
-0.3264977897485164
-0.2620989863437083
-0.2710810756933498
-0.1118696579449871
0.1118696575622197
0.1525006716523849
0.05919516992314319
0.1967469760015329
0.4552587827463262
-0.5731138597530651
0.105338588718674
0.2428013521772687
0.4663425986792846
0.5336574009191473
0.6413720600755443
0.08730908814146465
-0.005909442360663804
-0.08139964621113563
-0.2769163709220655
-0.5406385792280857
-0.5514632935639606
0.114319395726366
-0.1262538189989456
0.01193442298987514
-0.105679784580708
-0.3858446736668579
-0.04583991290721066
0.6492854948619111
-0.4986864007852968
-0.144739891587809
-0.3385229403006776
0.291652060128776
0.1243778106875952
-0.6107886062764023
-0.2042427682908819
-0.2620897402101562
0.002474262531003627
-0.4222478452507992
0.3232360078109076
0.09901183728547178
-0.09486127929332043
0.2916497330347516
-0.89593582965757
-0.4578904591189689
0.6298828153475569
-0.7730294994797148
0.6682907763336519
0.3415612014347041
-0.1249233637368886
0.224849241601999
-0.09992587739886445
0.02421279669312524
-0.5862925298896392
0.02918172431502213
0.5571108057201699
-0.9006900737938537
0.547199575090529
-0.6657211283901373
-0.09944757807517861
0.1096350944475675
-0.1096350928672748
-0.3165292966931811
0.3627439977933953
0.01410371601823263
0.03109649000038046
0.05621261862647101
0.505281197477535
0.6618532448040726
-0.7386923586368973
0.03235331309421264
0.02318931585270999
-0.001491802692194013
-0.007219170534745533
0.007219170053915148
-0.4167701620628679
0.536651509968328
0.0153837049527628
-0.0153837050211472
-0.7922720429481979
-0.06094986243493505
0.1227172710787308
-0.4567293320889684
0.5620679232154553
0.4517689528070372
-0.4988909164803873
0.1499972991514692
-0.1499972983335293
0.03275689994843427
-0.001717814509508982
-0.04207775132148977
-0.97621857613587
0.5394803589657026
-0.4692046840748356
0.04202391284409537
0.5145837810704991
0.03104223145760052
-0.545626012415042
-0.6161089996733452
0.1174225988489374
-0.3294660143185007
0.01343867464822251
0.3160273401982899
-0.1549749342597307
-0.07908761848229547
-0.5408606360088817
-0.04543189773726468
0.1365995279848062
-0.04028522497063022
0.03842654378442496
0.08091085458250091
-0.0809108563307173
-0.5351809556871879
0.4881116984843279
-0.4145536234878754
0.1613347535045707
0.622256861715233
-0.0977116932862013
-0.003679485796938401
0.003679485586647126
0.5329453201895187
-0.07878683409076491
0.005843781054082955
0.02696443234205134
0.03480472971912629
0.6846704117140997
-0.7634572457485266
-0.6540956133614483
0.6369014620842417
-0.1064607040462758
0.3131588271134033
0.746093825161702
-0.01911783198463358
-0.2670136796536303
0.1500791369572057
-0.7446455277032382
0.4842796863680749
-0.4252318681967722
-0.101525222917613
0.00348188077610404
-0.01431419894613575
0.01985631366171251
0.4110035310206951
-0.1215965054175375
-0.389591886053928
0.6288014951270166
0.01947301947667619
0.01065596689326307
-0.01065596684142628
-0.3537173512966999
-0.07992217452654392
-0.5604903365005508
0.557137479741864
-0.2381016429512383
0.4647736988890903
-0.1511726820733933
0.7293786809242521
0.6723018120995958
-0.04028522478943457
-0.6163093249211314
0.5628893940813949
0.2889680528838385
-0.2860590483821113
-0.002909005005701266
0.5420401806781988
0.09338654854862131
-0.03902598385971426
0.1964838302837237
-0.1574578466945552
0.1199368363710942
-0.1199368379745607
-0.8587407442687549
0.002345486066668399
-0.1134121508901029
0.1403765839510397
-0.1318539915968265
0.1318539910333918
0.02318930868903488
-0.02279730455068303
0.6703335337000161
0.05939046944237621
-0.3229503905111428
-0.06289428331167417
-0.4712224921910556
-0.04955488849711193
-0.1515489179713053
0.1515489171381267
-0.04864274866656054
0.1433901873763969
-0.1433901866788043
0.1364241696951725
-0.1364241709012672
-0.3157721644341855
-0.1146667025146593
0.2264012178504282
0.1030149592088704
0.03484476814011477
-0.8211144567342098
-0.1980968232378829
0.1701958250734938
0.02102116540133402
-0.265069602203122
0.1258896405623833
-0.1258896399480868
-0.4141204030697509
-0.08479952637916709
0.2362863005461106
0.002380778011118555
0.04062562601030867
-0.5433948316009549
0.5782418000855148
-0.0304853707111148
-0.01815737858540641
-0.02815473527636604
0.02643693275440303
0.00660712775855849
-0.1844579770153765
0.1778508492614285
-0.1085064764560206
-0.227775033499832
-0.144672708004446
0.1446727072739709
0.07282845370485291
-0.07282845405399191
-0.01932056365562445
-0.1086272253405528
0.1279477894312465
0.2411312441677629
-0.1829791944620318
-0.02851538086363066
0.02702358338099075
-0.1376304715326423
0.62574216879393
-0.03904120325720749
0.4244374464503339
-0.04312403234387415
0.0635032053425362
-0.1532727659218684
0.1532727649013801
-0.6365394095809518
0.3086731553359877
-0.07937795258058758
-0.2344873334728454
0.003562402086488775
-0.1212810734888629
0.1619066989606719
0.1955825826093675
0.09669896298565608
0.09654226248596438
-0.06173753274633147
0.07272790973545654
0.04159148468342842
0.06394937389007241
0.1062464475553465
-0.09645631452642872
0.2096427754893078
0.01251464745158285
-0.1165020052906373
-0.1004073703980285
0.09732073244126903
0.00308663876742012
0.01253334612087692
-0.02365101103507761
0.03774334767318337
-0.03774334772551084
0.07520275669539789
-0.05493284574448809
0.05493284555762445
-0.2245100322826658
-0.05299880189499238
0.0114847854516304
-0.1030648003785264
0.01648733204683005
0.108458756434779
-0.1084587560380002
0.2945944208025285
-0.2714053620726463
0.1628988894009324
-0.05095297856373356
-0.2204523827085582
-0.01738922777813158
0.01738922800416691
0.3674523502128215
0.2852388176375987
-0.527687453589176
-0.09398466814988693
-0.03226915290570735
0.528787106918523
0.2129765225588612
-0.1703147160638847
-0.3801862298439093
0.07647126804041872
-0.1476377684930046
0.1871748473097304
-0.03953707902677513
-0.06686726007654342
0.06686726034347965
0.8225650932025039
-0.5606193587248569
-0.005629764581739891
0.018163110413137
-0.01998433398527764
-0.2868961057924501
-0.01750054454605941
-0.01281872081593411
-0.1319061717908309
-0.5720972415687284
0.5560220173356645
-0.5694337912220279
-0.006876208772483566
0.1029724806917247
-0.001723847934306001
0.01684859500083361
-0.1676221029777429
-0.3364339141668682
0.233369113880094
-0.05440566407762139
0.0350851010096089
0.1317929635374233
0.1733197520826564
0.3377946344929887
0.2764517952004742
-0.2781756427827743
-0.06198082567388574
-0.1551031451727641
-0.2210486544411204
0.07475978605022827
-0.01081041422640516
0.2139224470759224
-0.1970738517824774
-0.08629424954539283
0.1590221550355746
-0.3552825086732476
0.2084108281271752
-0.1919234960692687
0.08958128559445307
-0.4791731746510218
0.1743561225282236
0.1701250679382881
-0.2564193107849624
0.07289125707996004
-0.1944896743728389
0.1769891295695088
0.01743088607334655
0.1415912705783945
-0.03954915132579377
0.06598665354333089
0.4669586663650135
0.02035412133757132
-0.07988252855096388
0.05453453053584963
0.1260623900404662
-0.260585732891518
-0.2308834431742736
0.5597299516258968
0.1575707836460215
0.07871551512337047
0.07525549640730082
-0.03092301664794767
-0.01159093584974121
0.008681926501497758
-0.032772935308426
0.1710423288290098
-0.1779185373155665
-0.06002621321458593
0.02139381652638359
-0.1469278284942604
-0.05289839620365372
0.1496165759972914
0.2770696376493387
-0.03862502840878548
0.01484599523221152
-0.2557124878504776
-0.1320864238437044
0.2358775912022981
0.1788142342680155
0.1298589253964058
0.02199895849728821
0.08890658814088054
0.05228699561559964
0.4529942018505848
0.01560127640330375
0.09733857879654004
0.04358334776561341
0.07181830249622029
-0.115401651031176
-0.242448638312197
-0.2008131878256652
-0.01963919162033136
-0.2021035394221591
0.2753516851475901
)
;

boundaryField
{
    FrontBack
    {
        type            empty;
    }
    Top
    {
        type            calculated;
        value           uniform 0;
    }
    In
    {
        type            calculated;
        value           uniform -1;
    }
    Bottom
    {
        type            calculated;
        value           uniform 0;
    }
    Out
    {
        type            calculated;
        value           nonuniform List<scalar> 10(1.033878246303816 1.064220821752826 1.021898350572659 1.019475789286602 0.9958773401053845 1.016385972603536 1.036193311002699 1.062802417961829 0.8672453899163172 0.8820224630814475);
    }
    circle
    {
        type            calculated;
        value           uniform 0;
    }
}


// ************************************************************************* //
