/*--------------------------------*- C++ -*----------------------------------*\
| =========                 |                                                 |
| \\      /  F ield         | OpenFOAM: The Open Source CFD Toolbox           |
|  \\    /   O peration     | Version:  2412                                  |
|   \\  /    A nd           | Website:  www.openfoam.com                      |
|    \\/     M anipulation  |                                                 |
\*---------------------------------------------------------------------------*/
FoamFile
{
    version     2.0;
    format      ascii;
    arch        "LSB;label=32;scalar=64";
    class       volVectorField;
    location    "1461";
    object      U;
}
// * * * * * * * * * * * * * * * * * * * * * * * * * * * * * * * * * * * * * //

dimensions      [0 1 -1 0 0 0 0];

internalField   nonuniform List<vector> 
808
(
(0.7562623136739857 -0.01751888795782437 0)
(1.03122732800018 -0.01248991938712785 0)
(1.116328205892033 0.0002306855047252221 -1.798314867443647e-20)
(1.085128341338897 0.01257934600497003 0)
(1.361282977787562 0.01516235370060358 -3.875663837180934e-19)
(1.038644454405395 -0.009371332894595666 -7.184726767289327e-20)
(1.01385235301792 -0.02026570978792705 -2.345310272146269e-20)
(1.078600180752699 -0.004724800914997036 8.932508407187899e-21)
(1.252290064977434 -0.02024421769300099 6.325719931749822e-20)
(1.08453564049711 0.009084683276687922 0)
(1.012130340799269 -0.01205440449956271 0)
(1.303784107136193 -0.05285626246509451 -3.521417168734213e-19)
(1.086047466579438 -0.001555150615971947 2.030710284479546e-20)
(0.6750430284709672 0.00641331315324499 0)
(1.283165674952864 -0.1214248022176525 0)
(1.081798605764554 6.76163839737267e-05 -3.813053726044817e-20)
(1.232199735167598 -0.1530330528381364 -1.000293389414178e-19)
(1.07434753812395 -0.0001428254329952442 3.159405119159452e-20)
(0.9915579756274467 0.006758096944973875 0)
(1.026866017305228 0.00910046559605905 0)
(1.040538374838556 -0.01480864199752392 0)
(0.9875134766432108 0.04502992238597213 0)
(1.051058329050771 -0.006194387619481153 5.620242493619845e-20)
(1.053519976697198 0.008314010022755334 0)
(0.9335229625191723 0.1993166851378983 4.589764783481019e-19)
(1.163995899652472 -0.09076269335350333 0)
(1.184386169936009 -0.01900660315578392 1.569405104274441e-19)
(1.077244838516691 0.009481357866620275 5.210199292762037e-20)
(1.084205610210739 0.001870187879244618 5.069898054928138e-21)
(1.072054921914437 0.03098230616071626 0)
(1.075602644825281 0.002498115359608082 -1.176180495644495e-20)
(1.033322800941775 0.006241961862385414 -1.928017525092102e-19)
(1.05988512548108 0.01476024704755458 -2.393863567780224e-20)
(1.088941271011527 0.005209270294692703 -2.928195595762305e-20)
(1.119954167132616 0.03681260399414769 0)
(0.7550132739747889 -0.1207862681212073 -4.543326627851166e-19)
(0.9543730555350436 -0.005748240937610128 0)
(1.068984926616313 0.02247823300499038 0)
(1.068843106130559 0.007275348266117557 0)
(1.073640872375988 0.008745171348409688 -2.828596954882945e-20)
(1.092356911485466 0.0227749701912107 1.099453077679573e-19)
(1.149551794814605 0.002698835897905871 2.155363406197397e-19)
(1.095596179315608 -0.002480817569941722 0)
(1.015762349201677 -0.009255592430888124 0)
(1.128755515687631 -0.0983738966367389 -1.662094578954799e-19)
(1.044068023519264 -0.01177509026680631 -8.08462958297818e-20)
(1.058437955214299 0.02668606594039343 -2.809854514250718e-20)
(1.229540324053315 -0.1115985530780587 -5.612546739607493e-20)
(1.067732702373035 0.01225747818859042 -4.199338615524673e-20)
(1.25537507580192 0.01682313883823362 0)
(0.9970042235304925 -0.01805007790301166 2.086003204165247e-21)
(1.044553865691767 -0.002461629358351107 0)
(1.087345097334466 -0.002375471462673235 0)
(0.9975960185043449 0.00729990341227012 -1.900265802692694e-20)
(1.252552873256676 0.03362703223622831 -2.345257797830079e-19)
(1.063818418075731 0.01842730743369437 6.057903072787892e-20)
(0.9884872894512108 0.009205231381330231 0)
(1.016804880530624 -0.01106283906545434 2.465103082314169e-20)
(1.106724069567556 -0.001231478368019458 -1.18207797786309e-19)
(1.061775128982233 0.0312142827084675 0)
(-0.06489297461143405 -0.0236437631834663 7.188424119155626e-20)
(1.153833486742422 -0.05176671824163401 -1.890619686156723e-19)
(1.002247871198357 -0.008531335279060292 -2.709518392273702e-20)
(1.183993777256316 0.06541076571687218 -1.213252672201176e-19)
(0.997823853649738 -0.01063382579888572 3.009313179903551e-20)
(1.083821381126618 -0.00554033126444592 0)
(1.243048626664737 0.09431673707357678 0)
(0.6960186733664362 0.003184396594618235 -7.488753949610623e-20)
(0.9897921472622001 -0.01560681151554636 -3.134567503068182e-20)
(1.45775073906052 -0.01761957763858741 4.463511329563447e-19)
(1.0606717397887 0.007554659062988766 -6.729029896111794e-20)
(1.364972575259846 0.09707073551268573 2.900883438645631e-19)
(1.054788023104274 0.006753337236946128 -1.849035931094316e-22)
(1.0811321190856 -0.01413392762769594 -4.715055564780356e-22)
(1.163202749740615 -0.2350161247318452 0)
(1.022610529432858 -0.01447535871292503 0)
(1.017970807585618 0.01765152265014792 -3.092276558885174e-20)
(1.388613159694154 0.3500762413014945 4.189523311253317e-19)
(1.097069790070711 -0.04200984641185308 9.355593148104107e-20)
(1.046404426695258 0.210826955071351 2.483017758219793e-19)
(1.124081743600517 -0.0633446388146741 1.161680813282604e-19)
(0.9221501758503589 0.005184023976217731 0)
(0.9755278404553865 0.01859236990718886 0)
(1.004039269076082 -0.04866484257257243 2.883970617849245e-21)
(1.010925421433937 -0.01331679518274115 7.462436766415767e-21)
(1.031067064652509 0.02576585099100323 1.385526258443175e-20)
(1.526774339744864 0.03645190852958593 3.258579877338004e-19)
(1.291301484321178 0.07121766255304138 5.531760568139148e-19)
(1.07269242434724 0.002883090861367993 -9.093652798115291e-20)
(1.198167872852609 -0.09854153164326107 0)
(1.033907865848933 0.001487889725837398 1.325471749426649e-19)
(1.163382151415101 0.02104039599606479 -3.186434520445112e-19)
(1.001496896441359 0.0324284228174621 0)
(0.9996298692339768 0.001985831209680589 0)
(1.044231613782886 -0.0003631534099149845 7.793138384971557e-20)
(1.210586821176566 0.1023984998303951 4.008567102293912e-19)
(1.011109194887838 0.006945557795599602 0)
(1.088380104456041 -0.07153211226914739 -1.060602320478423e-19)
(1.14932974230945 0.03571464871088949 0)
(1.209645299624847 0.09116007596047854 -1.893429834828588e-19)
(1.108107162445396 -0.02858960872419938 -7.659073953064539e-20)
(1.027976715963146 0.01158348386452846 0)
(1.085472581022603 -0.00467484506753618 0)
(1.020169520067992 0.02565257810840592 8.046906716378852e-20)
(1.074951666473426 0.05358775079154626 -9.159789251693124e-21)
(1.10365502878937 -0.004381952041516987 6.287968479494147e-20)
(1.105604400011556 -0.09675685849111429 1.547609650847186e-19)
(0.9593302148022974 -0.003355299071938878 0)
(1.066571464836558 0.03142188579573813 3.808240826719513e-20)
(1.16767373436665 -0.0760454717910706 2.310458686508508e-19)
(1.053849631023413 0.0449713550534803 -2.896211334971981e-20)
(1.022821630879835 0.06779784623517132 3.707252805762996e-20)
(1.090708610527834 0.02625391759369479 0)
(1.011972368194495 0.01567554660426979 0)
(1.028968945580676 0.009427361238973272 7.908369889164744e-20)
(0.9486676670253491 -0.03260116240067198 0)
(1.053350633807982 -0.005624510346695798 -7.73979531433807e-21)
(1.339356316377309 0.05890597915239387 -1.577373991855644e-19)
(1.079831695407514 -0.01334924394717725 2.583563168008127e-20)
(0.7441911480539282 -0.001791258716392424 0)
(0.5301704353605184 0.1528014320921996 -8.761917719744319e-20)
(0.7058229630556802 -0.002519403025115219 0)
(0.6991498702681451 0.01467705917759088 0)
(1.077813171586321 0.003463523704252067 -6.668745093261194e-22)
(0.9906344243017036 0.01445285597459675 0)
(1.280572780824602 0.1228983536909836 2.504610837671585e-19)
(1.012268707591147 -0.02794926422198726 -7.698050754085114e-21)
(1.038771052308807 0.02017044083249595 1.353710796125194e-21)
(1.058374083680324 -0.0122271525560329 0)
(1.126379100072545 -0.009259324681632392 -5.011997903667091e-20)
(1.256004549051849 0.1281263463357131 -2.161450398528479e-19)
(1.088827537480087 -0.01104980368866854 -8.476485963731996e-20)
(1.070468763559659 0.02508290844568996 -1.08981542399223e-19)
(1.040974896134091 0.04674353716402804 7.069322912565698e-20)
(1.022291032045927 -0.003562186534575295 -3.444705333321924e-20)
(1.061428649801095 0.02361847880700808 5.961546166970506e-21)
(1.134273008865712 -0.004033193009582558 1.074263358982981e-20)
(1.041311653951057 -0.01293834704755741 -4.677364883733007e-22)
(1.087793770524102 0.03483952442645347 0)
(1.028710140613075 0.01327490199415146 0)
(0.7865661817008756 -0.06728808441882368 -1.848748723067203e-19)
(1.030231353328955 -0.002093702541519414 -6.778008818412648e-20)
(1.137477503344767 0.0006524074137035121 -1.316020922920079e-20)
(0.7035474749419285 0.006553147575396497 7.338061341568204e-20)
(1.176120833860827 0.01946611199604031 -1.930835192674253e-19)
(1.126552098603745 -0.004190354069959999 5.813927839568058e-21)
(1.129038199855999 -0.01009813199614299 3.434933502164799e-20)
(1.0009395851703 -0.002980058868455165 -7.247451449686849e-20)
(1.093857281928069 -0.06321732876455967 0)
(0.985778205557395 -0.001197452193414821 0)
(1.058017573246741 0.007065023158430079 0)
(1.005976950262386 0.1893196285424101 -2.426843800193714e-19)
(0.7795363474447734 0.01241728016196494 0)
(0.8569542709510225 0.1028742981470111 -8.345475481529792e-20)
(0.09777890622487463 0.03975016618828783 -3.068089395764279e-19)
(1.173425728832744 -0.03169342170262771 -2.246018946160304e-20)
(0.6712686030363882 -0.007359267353544604 2.438212682041555e-20)
(1.165345040220811 -0.1065851465275491 7.00309048548715e-20)
(1.127923130711391 -0.002789577854884606 -6.166295854809501e-21)
(1.155421465828088 -0.05045054754323168 2.182587464977743e-20)
(0.08416315791430447 -0.1940923104870943 0)
(0.2688824188506074 0.07721128400292208 0)
(1.252483235202886 0.1083749870235617 1.887503953376132e-19)
(1.021625209515529 0.01987249960558304 0)
(0.7375783365464065 -0.006334848238018861 0)
(1.074972658448494 -0.01184427171306643 2.694793412739181e-20)
(0.9752580675868604 0.002828319166556536 0)
(1.285884838669313 0.1249124616217953 -1.481265726726682e-19)
(1.057431984776342 0.01119708874040899 0)
(0.9926494358509815 -0.008295416027661755 0)
(1.065289467255823 0.008018894131190016 0)
(1.006218487148425 0.02086305638661104 1.924741665642115e-20)
(0.9225571843707568 0.004808211275652525 1.185250156706341e-20)
(1.175589062306632 -0.1989160478174102 0)
(1.005020327457496 -0.005230044272718262 7.81845344509447e-20)
(1.059216568874334 0.006168088910975048 0)
(0.7745711297356549 -0.003350513718629129 0)
(1.215362470591231 0.02730414523991937 1.648351912960182e-20)
(0.7051191510528458 0.001324400527361947 0)
(1.432473703825019 0.08819259315499195 -5.254959761476914e-20)
(0.9934823539393943 -0.006351536235296849 1.6660209047958e-20)
(1.275829008440284 -0.002725758496846337 -2.952140873683252e-19)
(1.060026361056025 0.008761267944415984 1.368353226359752e-19)
(1.000897155460992 -0.01359740218207302 0)
(1.216433875861746 -0.1550264636577821 2.032901750994929e-19)
(0.7331746866346085 0.01379172465526028 0)
(1.098000991473177 -0.005113860203825343 0)
(1.152970991855274 0.06463403876180454 1.974804643564311e-20)
(1.006628730199542 -0.00733473472658122 -3.021433901222936e-20)
(1.121011552830689 0.04964367188952315 -1.735033845332542e-19)
(0.1500820130504478 -0.086067293710231 0)
(1.073336273534879 0.03685435064272388 0)
(0.6615060930494947 -0.002901762580377938 -6.283717099813653e-22)
(1.01207930923946 -0.01967787959673307 9.442487312887999e-20)
(1.061829537980197 0.0006952858507599262 0)
(1.087265870072083 -0.1342886396512445 3.77886997375669e-19)
(1.002504602597733 -0.006184248161832275 -3.430776523151024e-21)
(1.001836664258182 -0.004477808127793375 1.225314377160579e-21)
(1.094003873800173 -0.009237256329541092 0)
(1.02076978026728 0.0202380550529166 -6.400909858181952e-20)
(1.106803372418647 -0.001681150327166121 6.542574462288896e-22)
(1.073747516135478 -0.01086331723876719 6.53780618398424e-20)
(1.085735039825776 0.02234890765331339 0)
(1.326598278364699 0.1632374734630246 0)
(1.002055185986282 0.0003512097460868484 4.413229428159281e-20)
(1.323818868056306 -0.1293040692071272 1.561365220605354e-19)
(0.03101243367256324 -0.1488802291523978 -2.473121973399889e-19)
(1.071281483252811 -0.005555185049709625 0)
(1.116531472173666 0.001774417739161883 1.224604321600953e-20)
(0.7269697856071825 0.01787092185411191 0)
(1.061246736610836 0.003015008029995084 0)
(0.8674843411844469 0.1654083613018016 4.737631753703466e-19)
(1.273172166508644 0.1203020210646402 1.820732801439555e-19)
(0.6541518870809202 -0.003116584164725128 -6.331142440001775e-20)
(1.042232708939261 -0.004146561015158656 -3.592100293126114e-21)
(1.054951470530902 -0.0002672951369368813 6.585604419222144e-20)
(1.359427656006021 0.1229827285488535 6.719263306375016e-19)
(1.337157377936065 0.2529881241786596 0)
(1.058053696940541 0.004436341413018476 0)
(0.9953126659687153 -0.006633666807372595 1.464494257583763e-20)
(0.994775196585249 -0.009514071283204591 2.275988403234031e-21)
(1.385142999135812 0.2003667755605294 4.278224967940087e-19)
(0.6816764955610353 0.0006523953429876437 9.844688693190242e-20)
(1.005649320153184 -0.002032986899814579 -5.966590629687601e-20)
(1.097979762900957 0.01305438039994566 2.541381615595546e-20)
(0.6694664915924138 0.005004507899240979 0)
(1.066083136568597 -0.01202894654198217 0)
(0.9882080696439601 0.1266715727184238 -1.236554026296252e-19)
(1.082199913945055 0.00143885195635706 -2.475502028775005e-20)
(0.9819873319907981 -2.936811226566933e-05 3.287396782529452e-20)
(0.9912104898711653 0.006006595568243145 0)
(0.6382599828323338 -0.001156522102912808 0)
(0.9768846652571266 -0.001278723970835657 0)
(0.6419937827731816 -0.001479843304426974 2.722607513092635e-21)
(1.088110520551695 -0.05768994922109305 1.206663350974309e-19)
(1.110967038774308 -0.001771404508280995 1.231449868125171e-21)
(0.9580671236144079 -0.0009166276127893799 3.909854622977868e-20)
(1.015883348698747 0.01075499045266286 1.667923462263606e-20)
(1.064011735630394 0.008244878818389718 -2.168096773572316e-21)
(0.6347967887026346 0.008846536649271524 -3.643376145251693e-20)
(1.001860092242003 0.01224727374334495 -7.896815490037305e-22)
(1.035665261072055 0.01269081068183769 4.986019430986337e-21)
(0.9879927489002535 -0.007275550003291752 0)
(0.6100847879285036 -0.000477309602696829 0)
(1.068781870580298 0.02275466917591222 0)
(1.015948429172677 -0.01562501938071179 1.058967807464172e-20)
(1.021785106856745 -0.002371255398891857 0)
(0.9921970525102083 0.01513889010669751 -9.304565661888176e-21)
(1.012134584575521 0.006378725460391617 0)
(1.128939292654129 -0.005873198371968754 -1.254517244042945e-20)
(0.03452977425091034 -0.1379522671544111 -4.573131119284416e-20)
(1.036110499757295 -0.01556879258335595 -7.641434486516055e-22)
(1.045585116170199 0.008355864760742565 0)
(1.087063246397792 0.06526942004015839 8.391563863457108e-20)
(0.9697677648011569 -0.001123492217454124 3.118601955103591e-20)
(1.020586196785597 0.01717170770573234 -2.33095719709932e-20)
(1.005265116937704 0.001734696508332488 2.456314100440487e-20)
(1.040798637050832 -0.004749807194489436 0)
(0.6409765572585053 -0.004016555257189655 0)
(1.025954881059628 0.02448830495706909 -7.534417289875012e-20)
(1.07911245451346 0.004956044784836699 4.869479875586444e-20)
(1.013689502829451 0.002564057865787519 0)
(0.9812633245900525 -0.002400236482776149 -1.910943741803405e-21)
(0.8721876371002915 0.02432236623080326 -1.443696930912884e-20)
(1.013964788895547 0.003047426799670968 -1.010552778787901e-20)
(1.027370986435822 -0.0004128962212377546 1.77047737281139e-20)
(0.9782450486587957 -0.0004840720473438932 0)
(1.004653633063167 0.008494229977996723 3.405995648906014e-20)
(1.10634047481199 -0.005148287281988975 0)
(0.9292278400448322 0.0014366612053117 -3.451264580402938e-20)
(0.9594830865689843 0.008588537784959552 0)
(0.9106895995108322 0.2090447102846956 5.144443460552704e-20)
(1.011029035003608 0.06730388490685893 0)
(0.9917986754130018 0.00365839159183078 -2.312826062634453e-20)
(1.052994337511943 -0.05199619298098482 -2.753877480714857e-20)
(0.9917098634279493 -0.001380452468287535 3.403885814594904e-20)
(1.010457198078354 0.00190855632076202 0)
(0.9794758494346527 -0.0008696431200850605 -3.175611049422379e-20)
(1.172606516684984 0.09529475575558681 -3.308698516008464e-19)
(1.068187438192825 -0.2634461982437797 0)
(0.9944951464853816 0.002085257650749562 -2.196931464037959e-20)
(0.9821433238101488 0.009621934736106341 4.938474482743797e-21)
(0.9591888031138134 0.001423077681257795 1.061719564898163e-21)
(0.7460091179767359 -0.001098087194323407 0)
(1.113551519968635 -0.07706319100658518 0)
(1.008201529323085 0.00146770847423056 -2.138888634037572e-20)
(0.8976050132333216 -0.002341184566255043 -1.047350177306915e-20)
(0.8514367623704135 0.01649300772165203 5.766107382082339e-21)
(1.0104778167267 0.005604069125678819 0)
(0.9518408532282761 0.003302732785914197 1.588501408626816e-20)
(1.005816768129995 -0.0002299574113628944 -2.2909192848659e-20)
(1.022426927256786 0.00246589055892393 -2.541288311812681e-20)
(1.111269942225622 -0.00552235422687747 -4.90502194061951e-21)
(1.115085037355772 -0.002912642115635648 0)
(1.012110039411858 0.001259172346582935 0)
(1.024705848323119 0.001607668424360695 0)
(0.9502510409932825 0.008450194325436967 -2.180261826449609e-20)
(1.017884613581326 0.0132215400357121 5.436977251023663e-20)
(1.080166424479123 0.007660221168780616 -2.246357305293317e-20)
(1.037168108462893 0.006077078509649705 0)
(1.106582688266772 -0.006520890508438986 1.811705538747704e-21)
(0.996296962234939 0.001726976914699658 -2.208507642514677e-20)
(0.9828699703809798 0.004793038955989021 0)
(1.011670814335318 0.002101977256607254 4.683101159548036e-20)
(1.363944480340668 -0.3137108040623208 -1.126783405179559e-18)
(1.122019847673464 -0.0456545099328007 -1.093974567551653e-19)
(0.9737321067385929 0.008187798259735687 4.890391968845064e-20)
(0.7834006139737876 0.02464466444125031 -3.369189290320615e-20)
(1.22036765397972 0.05056211581195704 0)
(1.217478788557198 -0.1380411722895542 -1.469428973181118e-19)
(1.081241110180432 0.005482515104475692 0)
(1.00948958828847 0.001598266886787483 2.220811397145221e-20)
(-0.1694122389224796 -0.07486830472723958 0)
(0.9939709542031403 -0.00466608202280891 0)
(1.012391162805533 -0.02312773845909206 4.275973842237696e-20)
(0.7061054133542995 -0.01941920923860625 0)
(1.096802307196974 -0.0150185105936795 2.259053344214413e-21)
(1.041737845452511 -0.003732029706587045 1.519234431595532e-20)
(0.6331102325731479 0.004180705558106381 0)
(1.446076022042061 -0.1225966980778298 0)
(0.986697641246991 0.001898546044010252 -1.082588311593073e-20)
(1.069658142273836 -0.0149420582247728 0)
(1.038107882411343 0.0005289716593014751 2.14026071972122e-20)
(1.087237027116842 -0.000766159020949696 0)
(1.008679868241624 0.0007489410019771003 -1.157226138863805e-21)
(1.00620613803416 0.003073266585293442 0)
(1.014060544171567 -0.01165375702885312 2.976139655952658e-22)
(1.003156728030623 -0.02024957914474568 0)
(1.03353325311465 0.003736620226892774 1.827006722889435e-20)
(-0.2114081592415544 0.0503265773537242 2.708222395973839e-19)
(0.8223432640964032 0.03893199257162801 5.578078401672311e-20)
(1.00544352434932 0.002297013096076795 0)
(1.128326897252999 0.02491291101133312 -1.29857636385213e-20)
(1.115007590699317 0.01727627054080412 9.281498837680341e-21)
(1.053891336317265 -0.01310440780258656 -1.292821635046137e-19)
(0.9987809942429486 0.01037192691683464 6.425981136490712e-22)
(1.082063059389679 0.002874814759648161 0)
(1.18552321418907 0.05077601868296079 0)
(0.8352172674031577 -0.07435601799325289 4.599621842715691e-19)
(1.100940685117276 -0.01492633912147628 0)
(1.032467193746637 0.007840785741867905 -7.519425429900722e-21)
(1.042772527780022 0.005300575256380044 5.99921425165667e-21)
(1.050972920633146 -0.06106875252980622 -7.490417693302984e-21)
(1.140265862674044 -0.002049418363211688 1.686493990431293e-19)
(1.078100753482696 -0.003401621495197564 0)
(0.9952243423055238 0.001484010202020776 0)
(0.9970519019031024 -0.02385748718285279 -2.271003522668612e-21)
(0.9915621660909348 0.002690503640118119 0)
(1.028968124835549 -0.03790641737659393 6.402508397015433e-20)
(1.294682399661053 -0.0959318237888217 0)
(1.047329416307852 -0.01510534966610575 -6.622369575249407e-22)
(0.986161369893184 0.01684001221667827 -8.700798285475332e-20)
(1.035493567859558 0.04151062504526291 -2.389744074110962e-21)
(-0.09261976897176868 0.1765042462197828 -1.651859157913164e-19)
(-0.06268247243005914 -0.2857138909495935 -1.393730028705583e-19)
(0.859216820932843 0.1193301726452783 0)
(0.2882000733570215 -0.003331045994345311 -3.017777704834229e-19)
(1.013450604305555 -0.01869473038553829 -1.434015660346183e-20)
(1.063973655638643 0.002617652668127588 -2.102781665593162e-20)
(0.993384924695106 -0.01955867798281855 2.886911061197452e-20)
(1.023681610791111 -0.02666737925892442 2.508296773098208e-21)
(1.008280892853404 -0.03120166307185442 -6.582772037382587e-20)
(0.9886895931419183 0.004888380359079921 -3.476814054492556e-20)
(0.9935462154541309 0.004252100259298247 0)
(1.024791139227945 -0.001803296232755329 -3.588923600738415e-21)
(1.933391448312398 -0.1553601823632695 1.072470236422945e-18)
(1.052497045224386 -0.01678195080382833 0)
(0.9958957955281077 0.007317126637848713 1.527066724206593e-20)
(1.002872793759175 -0.0002239342192989422 4.071792780689997e-20)
(1.175496812746967 0.1358126013437701 0)
(1.004199032704919 -0.01268275874546366 -7.140193223449522e-22)
(0.950852774359935 -0.00223733797379616 0)
(1.037847342749875 0.04173095788518648 0)
(1.294708001129709 0.1597425403626543 2.213556351063606e-19)
(1.08273206223309 -0.01117395088588384 2.265458121819688e-20)
(1.018219744531666 0.03220809123748061 4.671572938114071e-20)
(1.081808273819 -0.008320717104617145 -2.185285455039526e-20)
(1.053077608106112 -0.0107577964549213 1.121485297763313e-21)
(-0.3841932884608042 -0.036471708574308 0)
(0.998044409534496 0.01375289945048532 0)
(0.1166956182588049 0.05952483387886002 -8.666037126113943e-20)
(1.00596392650226 0.02281996771761165 -4.123097750627447e-20)
(0.9956034652622296 -0.004033565948714365 0)
(1.000288913726009 0.005804092958598453 -5.045252576491687e-21)
(1.081538271415534 -0.0420979885650637 0)
(0.995868095810481 -0.01816822803749071 -7.760445949574743e-21)
(1.089846656788012 -0.04911502337067263 0)
(1.440975491911799 0.1764849940940082 0)
(1.054132874269696 -0.01173641384539053 0)
(0.9913408383159599 -0.02256228306427728 -3.881445881457301e-20)
(0.9814325940968405 -0.03238689830757038 -2.263467601551573e-21)
(1.019779162348436 -0.01764612522368962 -1.806551781410453e-20)
(0.997520406496229 0.01718256871967418 -5.587629097022906e-20)
(0.9950868658526797 0.009842810533105553 -1.488229901473984e-20)
(0.9938726051599774 -0.02640824762623855 0)
(1.00269033843951 0.02573560542172378 1.948056285960901e-20)
(1.039035835063639 -0.03578585332200748 0)
(1.110527988879344 -0.0360394796019021 2.590625857918749e-19)
(0.9952841272649481 0.01730296102718671 4.624383430717241e-20)
(0.6151170329219137 -0.008670697305732441 0)
(1.142989331343072 0.1340792755638682 -3.911532422970333e-21)
(0.8431408296755735 -0.1025447811837103 0)
(1.138999357809943 0.0729855478810838 -2.724243661572708e-19)
(1.31412884217893 -0.387583854902848 1.287988307617477e-19)
(1.076452536781703 0.06276698606199664 -1.336978734902952e-20)
(1.009554060604929 -0.02986838774557983 0)
(0.9550851691888274 -0.2143442492427937 0)
(0.5124481380322892 0.148920588510721 0)
(1.012064240294638 0.01178449140162445 1.111730407736893e-21)
(0.7024031236396622 -0.01873047109667147 0)
(0.9981785487319363 0.01799871802966362 3.549505861856908e-20)
(1.021091337980255 -0.001834026938075823 -2.72349262888991e-20)
(1.079179352624902 -0.008051081021164287 2.763936972483687e-21)
(1.040592693449601 -0.006167758082534587 3.201724430060299e-20)
(1.042715396671431 0.01087599279996853 0)
(1.056545297626761 0.02960478968724774 -1.015542682358354e-20)
(1.051277298986687 0.03441595689199507 -1.809440778884039e-20)
(0.9827437513977441 -0.02174514355330023 0)
(0.6249322280008978 0.005137585084107728 9.184305684841199e-20)
(0.8941749272918642 -0.005887957833129707 -8.859343749913132e-20)
(0.9093579903486273 0.00531222661692035 1.442019117726639e-20)
(0.6295803544252556 -0.006383315046347865 1.406852720079107e-20)
(0.9783452267303715 0.0002530129292420019 2.628042758191149e-20)
(1.004449540575181 -0.01760288704904077 -3.480380126697863e-20)
(0.9660869083754844 -0.01239106943079404 -3.442984615076405e-20)
(1.085518003995981 0.001456973540062354 0)
(1.019016988804869 0.004456770847548774 1.077128874870346e-20)
(1.133178050880651 0.04850044389598109 1.3163607720838e-19)
(1.034284644187559 0.04182118792558283 0)
(1.022109997088344 0.00260519402431738 0)
(1.581904601160963 -0.1667619175613042 4.393001617092062e-19)
(1.039240448406933 -0.0294870810683521 0)
(1.020671249514178 0.006734532711579323 -3.702381128739201e-20)
(1.088887766866649 -0.004541462943739888 0)
(0.4813904375478734 -0.02864444523274209 0)
(-0.04088422796210011 0.0105939212931219 0)
(0.9899490125170975 -0.0238842188367662 1.22303392456269e-20)
(1.299796673693013 -0.09541633201394852 3.726323176535515e-19)
(1.034889253749037 0.03920611190316912 0)
(1.022519768745818 0.003314954266121202 -2.237440119129148e-20)
(0.9529450942655948 -0.1652856928658233 1.069084431027133e-21)
(1.252303159979853 0.07580089372322789 0)
(0.5987857065236519 0.7321255685159361 0)
(1.308095812816921 0.1493460301513177 1.101079975660048e-19)
(1.67515844507684 -0.02491301709041498 0)
(1.066941601989772 0.115627501868997 0)
(0.7234092347075551 -0.006067199940099651 2.651196520218558e-21)
(1.05239352184392 0.04827143312217858 0)
(0.7151518859886653 0.09994191098635218 1.207698059259252e-19)
(0.9968002292918102 -0.01638912608865021 3.576633584859414e-19)
(1.033442899796712 -0.0398135604804711 2.663667292090389e-20)
(-0.3733359623779822 -0.01987451385557656 0)
(1.071559533909782 -0.01626429974653741 0)
(1.096144240819344 -0.01457783228707145 0)
(0.6474900445645457 -0.50094114183544 -2.4950138917406e-19)
(0.9923236605783547 -0.0007416562712907926 0)
(1.091764708887748 -0.02186807819832881 4.893740126421691e-22)
(1.188839051847904 0.1213338439031911 -2.009868356873979e-19)
(1.089972945481353 -0.03860191716156187 0)
(1.004993444928942 -0.02119410456514299 0)
(0.8148760151893214 -0.1906258729732131 -1.738824572949065e-19)
(0.9005253280144392 -0.1369634109246197 1.538652446109569e-19)
(1.028412747231727 0.01044235803421979 -2.20415980233123e-20)
(1.023118880033357 -0.009241387456766784 -4.48345178573996e-20)
(0.8694737690965405 0.004943077386142292 -3.703066477363241e-22)
(1.503457376295162 -0.1931473353128675 0)
(1.301051858136503 0.1174219879986202 3.182534136744867e-20)
(1.245050271162282 -0.07789068336791627 -3.007419067129391e-21)
(1.095880854646281 -0.01865342859629837 -3.861250286610613e-20)
(1.044033019078287 -0.01453619831918536 2.588140885105611e-20)
(1.092809978655411 -0.03917016636624332 9.231966357838153e-20)
(1.032518979104643 0.01960887972323298 0)
(1.045657735086583 -0.03247532146517484 0)
(1.115872000002587 -0.009033935390928149 0)
(1.089831157501721 -0.0254919791227226 0)
(0.9978963250502076 0.01092585055772298 0)
(1.150761693832492 0.07517291945478202 9.405346029055745e-20)
(1.344267246222047 -0.1528841404323654 0)
(1.040628174779652 -0.02107854622285236 -1.892863701325639e-22)
(1.053713479295355 0.05288920153287831 0)
(1.009963414567828 0.01459376777415344 -3.937015044154074e-20)
(1.033662585529345 -0.008152147760927616 9.156509424248718e-21)
(1.088982153400672 0.01332580718541173 -3.231226999912179e-20)
(1.084759444750109 -0.029714254026194 0)
(1.07652762491054 -0.004229202584161288 0)
(1.105179316117843 0.09411903106434191 -1.418287256656125e-18)
(0.9350969175875474 -0.1486454920687144 -7.085799207848114e-20)
(1.174893689528517 0.1047213551582363 1.10205826051671e-19)
(-0.4729415176872702 0.003476376309342315 -2.925300383810888e-19)
(1.019552462026717 0.02901638863589988 -8.780840159619723e-20)
(1.005274559423431 -0.00529651999376196 0)
(-0.2874701569914914 0.03905985401665234 3.557521948418009e-19)
(-0.05407771774901205 0.3306716629478372 7.313527337852748e-21)
(0.9952270323978911 -0.006319129231552247 9.490427559449768e-20)
(0.189744928953999 -0.03936537680704534 1.42146002775438e-19)
(1.097515449972489 0.08457615040963348 1.519997257533929e-20)
(0.09379405339675326 -0.1075435944689125 -5.428978090309106e-20)
(1.1078557288946 0.003117322374888356 0)
(1.099759508047165 0.2562420502442458 0)
(1.021756560272583 0.02198476862362463 -1.719912869032383e-20)
(1.073605652478054 0.05906444790400707 0)
(1.025136897575012 0.02713837361530235 -9.520973543846416e-21)
(1.261357590278124 -0.5479044097121222 8.020616358324918e-19)
(-0.08871061514959414 -0.2000764058427236 2.171646350240646e-19)
(1.295231375293868 0.1155818836634514 -6.258188227329266e-19)
(1.124013641415063 -0.0009636295025427277 0)
(1.133758999138967 0.09755198736583492 0)
(0.5262051387738403 0.08177340325199463 2.535653168502107e-19)
(1.023105580450722 -0.02112668225516446 9.380757739312707e-20)
(1.005415905040724 -0.02388180991163639 0)
(1.212590060042293 0.2715861533393528 -9.658421305661624e-20)
(1.253306817712385 0.1364508731738977 -1.573746015058114e-19)
(1.026577304563454 0.00273693463228453 1.548277793173679e-20)
(1.298476164142425 -0.08456377296509854 -4.999216778704428e-19)
(0.2991660065677669 -0.01667179434223916 2.647961596033235e-19)
(0.8299126900396356 -0.1470752755503269 6.727466196064002e-19)
(1.058338563778804 0.06607082775457654 1.057309048148854e-19)
(1.041312786452121 -0.008177237316037466 1.466646674139767e-21)
(1.001239167283644 0.02011986856787266 2.957238064899194e-20)