/*--------------------------------*- C++ -*----------------------------------*\
| =========                 |                                                 |
| \\      /  F ield         | OpenFOAM: The Open Source CFD Toolbox           |
|  \\    /   O peration     | Version:  2412                                  |
|   \\  /    A nd           | Website:  www.openfoam.com                      |
|    \\/     M anipulation  |                                                 |
\*---------------------------------------------------------------------------*/
FoamFile
{
    version     2.0;
    format      ascii;
    arch        "LSB;label=32;scalar=64";
    class       volScalarField;
    location    "1461";
    object      yPlus;
}
// * * * * * * * * * * * * * * * * * * * * * * * * * * * * * * * * * * * * * //

dimensions      [0 0 0 0 0 0 0];

internalField   uniform 0;

boundaryField
{
    FrontBack
    {
        type            empty;
    }
    Top
    {
        type            calculated;
        value           nonuniform List<scalar> 
15
(
142.2721788374674
133.5520598625379
138.0637637081173
144.3855328487772
159.7614844548858
131.3669764995328
140.1090127437287
135.3421736323531
153.4348086985512
135.7387523610952
136.0815748842641
136.7793295507071
125.2376873082797
132.9008667662345
123.9500565549273
)
;
    }
    In
    {
        type            calculated;
        value           uniform 0;
    }
    Bottom
    {
        type            calculated;
        value           nonuniform List<scalar> 
15
(
155.5668001731289
158.1115187401809
141.1060632814876
142.0815435083864
141.1896989418345
148.4593311448821
142.7157234348684
143.1700855288193
143.4229316008099
134.0648931929568
125.7392682532338
141.5605573361483
122.4130343661649
123.4905666377441
124.1461531375444
)
;
    }
    Out
    {
        type            calculated;
        value           uniform 0;
    }
    circle
    {
        type            calculated;
        value           nonuniform List<scalar> 
32
(
56.21819283134607
21.75014785256006
65.23958527179873
25.47192147794066
19.86423996896823
56.27658947021743
56.70861702889535
24.09584932942795
22.1239644342691
65.46137715086699
40.04470883297216
62.96079193860518
50.48201165251231
15.57161447920337
22.96956048408204
19.49491925072606
39.08922192233456
59.73221035525477
61.09573851239313
26.47889200231976
65.8021622872331
63.74019773323228
63.05801048888161
59.83516719809679
64.18063120596541
46.08007214840386
66.45124579369913
32.24097844643308
37.85749930477876
55.65048063963565
21.41374474876625
43.04444315341973
)
;
    }
}


// ************************************************************************* //
