/*--------------------------------*- C++ -*----------------------------------*\
| =========                 |                                                 |
| \\      /  F ield         | OpenFOAM: The Open Source CFD Toolbox           |
|  \\    /   O peration     | Version:  2412                                  |
|   \\  /    A nd           | Website:  www.openfoam.com                      |
|    \\/     M anipulation  |                                                 |
\*---------------------------------------------------------------------------*/
FoamFile
{
    version     2.0;
    format      ascii;
    arch        "LSB;label=32;scalar=64";
    class       volVectorField;
    location    "773";
    object      U;
}
// * * * * * * * * * * * * * * * * * * * * * * * * * * * * * * * * * * * * * //

dimensions      [0 1 -1 0 0 0 0];

internalField   nonuniform List<vector> 
808
(
(0.75627376620872 -0.01751693111574262 0)
(1.031535954586047 -0.0125906003623087 0)
(1.111569847780602 -0.004052352848405143 -1.717892868171631e-20)
(1.085127061872848 0.0125806769802684 0)
(1.361916439013224 0.0127182425316132 -3.812988587502823e-19)
(1.038742486648737 -0.009431178582377518 -7.326200679209798e-20)
(1.014550904962363 -0.020842494610826 -2.439712886475825e-20)
(1.079228171153015 -0.00514324355127303 9.043833409053552e-21)
(1.253533282551302 -0.02180109711368952 6.253829762661845e-20)
(1.085315487928188 0.009316433429578426 0)
(1.00751088532963 -0.01024317469453981 0)
(1.304646433637582 -0.0546696738745289 -3.457778891793151e-19)
(1.086421666561969 -0.001943301768196912 2.044134824109833e-20)
(0.6751992163466931 0.006357574608573394 0)
(1.2750555741969 -0.1198915930356479 0)
(1.08181008713108 -0.0004483833345711848 -3.86959720133991e-20)
(1.224055001607278 -0.1478683168944681 -9.538165442078547e-20)
(1.074238107437629 -0.0003730919988733479 3.208226466025491e-20)
(0.9887815810198208 0.004192782883536496 0)
(1.026730550640049 0.009604451234425191 0)
(1.033002776824156 -0.01414625372416491 0)
(0.9875914334795739 0.04527757586501615 0)
(1.051064093210449 -0.006077410519640569 5.815658512986521e-20)
(1.053832331316183 0.008716616063783482 0)
(0.9335340539267908 0.1989828246531059 4.565800906674236e-19)
(1.161249478776873 -0.08746499923112823 0)
(1.185264247975207 -0.01998328924013639 1.538224684660287e-19)
(1.077226050038542 0.009677639156575808 5.236454751222138e-20)
(1.083691687707931 0.002045688528502793 5.125351300142341e-21)
(1.07176878714408 0.03092466225599789 0)
(1.075261392147009 0.002752642859687376 -1.183883153998289e-20)
(1.033337653269106 0.006649160123008977 -1.872303850300866e-19)
(1.060075873689466 0.01450597992486079 -2.351156278530822e-20)
(1.088740059326153 0.005623809082490263 -2.938688831524077e-20)
(1.121714349969828 0.03745756736647793 0)
(0.754875207873593 -0.121348637697416 -4.550378918653937e-19)
(0.9547486224330002 -0.005797075289166501 0)
(1.068768273962175 0.02223793456430952 0)
(1.068801798251566 0.007215866355103679 0)
(1.073795667136459 0.008686595911561804 -2.817875497401692e-20)
(1.093307087470914 0.02354127158749749 1.077620675410961e-19)
(1.150664129647299 0.002216804762194615 2.112630610449564e-19)
(1.095780384063296 -0.002284572698881596 0)
(1.015162216415461 -0.009366480455593035 0)
(1.128956419104405 -0.09322967886549618 -1.632319950093305e-19)
(1.044067995481768 -0.01171433345292542 -8.387392835729345e-20)
(1.058163995711907 0.02665787313237107 -2.676133310350109e-20)
(1.23001685044142 -0.1126594991758037 -5.558170061262759e-20)
(1.067487028782462 0.01202913059537554 -4.066977811382603e-20)
(1.257365515065434 0.01492372629310587 0)
(0.9971254798329079 -0.01913653146370318 2.212795762922431e-21)
(1.044747396323834 -0.002298864469016634 0)
(1.087422793441164 -0.002155228329098144 0)
(0.9987816247728133 0.007892105372331804 -1.890507691384692e-20)
(1.251629074054981 0.03267510482427404 -2.393095995517604e-19)
(1.063433808278627 0.01812557445883864 5.866935562556041e-20)
(0.9902485195981019 0.0115031581866018 0)
(1.015181561042348 -0.006898528874478721 2.536660853059881e-20)
(1.107487189372023 -0.001373640464724914 -1.153790318498867e-19)
(1.06124126885475 0.03125872440794891 0)
(-0.08500439725878793 -0.01081555039274187 7.72305497211609e-20)
(1.154230406763309 -0.05245191827976223 -1.844918670546436e-19)
(1.004204384056696 -0.005762028174313533 -2.786037887904482e-20)
(1.188185652181301 0.0661244035264569 -1.203329000708723e-19)
(0.9970567485048628 -0.009907924161292493 3.102586688796998e-20)
(1.084140916330187 -0.005456589266086161 0)
(1.248733538368584 0.09226806928013734 0)
(0.6960782883745348 0.003161077092806954 -7.423606957100952e-20)
(0.9882931420439571 -0.01503625731554748 -3.232161521305924e-20)
(1.457696508422985 -0.02013628846374355 4.391831122483756e-19)
(1.060559804939529 0.007603241890402801 -6.524786194718424e-20)
(1.366062192921141 0.09278902557748558 2.835904536636534e-19)
(1.054874350460724 0.006790468435692347 -1.950959595890631e-22)
(1.080934907641271 -0.01400868380527121 -2.398283256317162e-22)
(1.163427020982434 -0.2356233546004061 0)
(1.022225046368187 -0.01511939760914927 0)
(1.017377207044294 0.01809225851353076 -2.988983984055076e-20)
(1.388394024665532 0.3488970861252511 4.233272049593923e-19)
(1.097444325746963 -0.04242125589520303 9.596030649147705e-20)
(1.046520679570282 0.2106223496063973 2.406363988425405e-19)
(1.122768199620337 -0.06133866007726779 1.180881135489935e-19)
(0.9219814570375777 0.005181714249503534 0)
(0.9753517005628666 0.01853654159160738 0)
(1.003993075686277 -0.04849679338569488 3.170627020308576e-21)
(1.010012362093604 -0.01374860776377136 7.821828317651493e-21)
(1.030673808608752 0.02679866732057089 1.350200476452737e-20)
(1.526575285366422 0.03351909094570617 3.210630842761064e-19)
(1.290726064090811 0.06997602899321473 5.640731161687535e-19)
(1.072511952561231 0.0030775594971866 -8.804785309768591e-20)
(1.194135208834125 -0.09640685189023034 0)
(1.033900554484818 0.001761206427191428 1.287159954177081e-19)
(1.165066467146308 0.02047460806576146 -3.122508859998242e-19)
(1.00150894081689 0.03253530151756539 0)
(0.9996279879654816 0.001997579632887969 0)
(1.044249865526378 -9.947380020435998e-05 8.017653380547829e-20)
(1.218391280628607 0.1057918381540883 4.059100296953785e-19)
(1.011149545006585 0.006964186520674058 0)
(1.089222131142965 -0.0680835605494597 -1.067794558282826e-19)
(1.151386585507564 0.0358147821367306 0)
(1.216137546734843 0.09048818542006437 -1.901360658805701e-19)
(1.108317002503748 -0.02890304119759566 -7.825136742556039e-20)
(1.027599989984502 0.01191936371590187 0)
(1.08519702576731 -0.004593286220943693 0)
(1.019558882436809 0.02646516193544976 7.82666942306687e-20)
(1.07401818232315 0.05652167996272604 -9.489147866209209e-21)
(1.103705104815574 -0.004233053972633734 6.446268411583157e-20)
(1.105961551622325 -0.09188339245872276 1.504076484871026e-19)
(0.9634558374285584 0.001489384206208436 0)
(1.066062317468467 0.03131981592003225 3.681574225097412e-20)
(1.167996270659678 -0.07690574128171268 2.254749249283328e-19)
(1.052636971654759 0.04725711252426879 -2.845876866508784e-20)
(1.022993449185218 0.06803352162999873 3.641555393100219e-20)
(1.090249566422053 0.0261170147749463 0)
(1.017121250620001 0.01404997346597552 0)
(1.028979844815357 0.00936264260526444 7.839570211859785e-20)
(0.9485341370672228 -0.03233661643472933 0)
(1.052954182997606 -0.005432477501982138 -7.386250325902703e-21)
(1.340518725555835 0.05558347424168127 -1.539621247241522e-19)
(1.079662516609449 -0.01318045871033288 2.665189805361564e-20)
(0.7440760657535597 -0.001738260047291608 0)
(0.5847519372362877 0.1871966067867408 -1.130658734649714e-19)
(0.7060699349631575 -0.002479203609972164 0)
(0.6988469238665105 0.01464112388557251 0)
(1.077752288442679 0.003593484885159922 -6.44470374201709e-22)
(0.9906521247281858 0.01446393192001375 0)
(1.280184139992105 0.1219665335713975 2.554270421584428e-19)
(1.01222837557131 -0.02790642092418033 -7.369436424322118e-21)
(1.043399906213877 0.0163826218488508 1.427796486058072e-21)
(1.058586729682295 -0.01220026351711532 0)
(1.126505444189333 -0.009162100286804756 -5.138142918592132e-20)
(1.270589835988791 0.1262331219551095 -2.240103578573968e-19)
(1.089060023892254 -0.01088638791759935 -8.614339787813185e-20)
(1.071033319828522 0.02610434956639109 -1.068154707735184e-19)
(1.041048890690716 0.04679882096417736 7.446702191701488e-20)
(1.022554571064484 -0.003630540379681337 -3.478021272940498e-20)
(1.061006029758517 0.02369000996950105 5.689187392059952e-21)
(1.138836472719377 0.004183419452087893 1.035822921940717e-20)
(1.039445009263211 -0.01375947868161877 -4.757599811492395e-22)
(1.087418334240345 0.03474219590144062 0)
(1.028410583550663 0.01368821823843647 0)
(0.7834363596273082 -0.0801829349539151 -1.821622330487273e-19)
(1.030301695014805 -0.001884832974503559 -6.52687718499617e-20)
(1.132839703470441 -0.0001614935458380909 -1.250105046712515e-20)
(0.7034693829135854 0.006553369628392204 7.115329576162348e-20)
(1.175428640279782 0.01890266902820052 -1.974454173054483e-19)
(1.136286502124047 0.003219010122420226 5.262493753441941e-21)
(1.129023778537194 -0.01006348165451104 3.361856488221395e-20)
(1.000933307992801 -0.002970265433129689 -6.686337885263884e-20)
(1.100734320151528 -0.0571782800379395 0)
(0.9898765160691274 0.004524470324567318 0)
(1.057843582850608 0.007020598898263248 0)
(1.006040341557608 0.1892632216724587 -2.360506583998199e-19)
(0.7792892821718339 0.01243827299114886 0)
(0.8570481985947112 0.1026909288788922 -8.201825885488902e-20)
(0.09658874812075709 0.03184070354270857 -2.974913340970203e-19)
(1.171889596697353 -0.03194368208790396 -2.29490067062329e-20)
(0.6712535156893361 -0.007345117085096742 2.454252367801396e-20)
(1.163531968940118 -0.1017141683092809 6.94521862696991e-20)
(1.127019099133656 0.0008029188486054774 -5.867015185896964e-21)
(1.153587652417042 -0.04996613542006961 2.230066430354693e-20)
(0.07843719413557114 -0.2023129509550583 0)
(0.2426283185701803 0.06267857978928076 0)
(1.26105983458831 0.1042637893665432 1.850511982246186e-19)
(1.021205540314272 0.01984428405804642 0)
(0.7376881706013164 -0.006258306850605169 0)
(1.074937796972278 -0.01142977828271202 2.740563902605901e-20)
(0.9749121732178034 0.002884379500970076 0)
(1.296074993964085 0.1185547131287884 -1.468544037649664e-19)
(1.05735167188542 0.01095454431488816 0)
(0.9927888321808317 -0.007240890370101559 0)
(1.065201068351238 0.008244755137864806 0)
(1.006248782478427 0.02091245668640953 2.204865929200183e-20)
(0.9330730643867468 0.008858093429204456 1.290282250410024e-20)
(1.175805268944512 -0.1994770169970064 0)
(1.005056566546568 -0.005200917663565165 8.051212551940549e-20)
(1.059200918918479 0.006285462636804602 0)
(0.7745771528739634 -0.003310677746942212 0)
(1.217769118133364 0.02595730562815533 1.616633108930212e-20)
(0.7050389414387056 0.001367842092247111 0)
(1.43266472966408 0.0837136101834276 -5.097886040588166e-20)
(0.9947431741286589 -0.005247183760739466 1.670574554936324e-20)
(1.274351803466648 -0.004165793511307549 -3.009170946839748e-19)
(1.059760712719767 0.009018544868739905 1.324874325814331e-19)
(1.000906879937774 -0.01353355997796925 0)
(1.209402227733292 -0.1458657796627272 2.053894970448172e-19)
(0.7331716490926785 0.01378496075336363 0)
(1.098274721124074 -0.004916614779348952 0)
(1.156516365285802 0.06643133716277409 1.884107928385134e-20)
(1.006364510752109 -0.006534127016105592 -3.046532148341056e-20)
(1.123068909700363 0.05136919286225707 -1.715231259377819e-19)
(0.1350503447184533 -0.0940931515379487 0)
(1.073637724577155 0.03875255101637032 0)
(0.6616705282954409 -0.002872511797762372 -4.923016249407484e-22)
(1.012098365804148 -0.01960671106953881 9.011325694324347e-20)
(1.061507804786057 0.0008736626745897713 0)
(1.080552384042118 -0.1393140001303253 3.7752476468958e-19)
(1.002651630170605 -0.006129983192224265 -3.287311161886702e-21)
(1.003094933324035 -0.00402815828540394 1.071330541475971e-21)
(1.094010409462488 -0.009191344747968759 0)
(1.020769647474483 0.02027479398585936 -6.664554104615438e-20)
(1.106683505525024 -0.001603845979615276 6.322795859170296e-22)
(1.074429210921904 -0.01074785328052002 6.645157445238473e-20)
(1.085629340398397 0.02217045483445558 0)
(1.325430765254992 0.1553941335240992 0)
(1.002083652289485 0.0005494588264918941 4.407105553299888e-20)
(1.319488754561483 -0.1335422853208876 1.606678914012036e-19)
(0.006852844251195353 -0.1541206506320005 -2.303960419725152e-19)
(1.071102214523836 -0.005361187993955698 0)
(1.111241109488408 -0.004736474040869767 1.166688224555671e-20)
(0.726762724494203 0.01779968766724584 0)
(1.058042799301197 0.01083728169363783 0)
(0.8611199629739438 0.1612130200486176 4.589457110822381e-19)
(1.284758043379327 0.1228928080758015 1.886065088572715e-19)
(0.654198253134962 -0.003104623542983939 -6.532276680135276e-20)
(1.039746895238109 0.005268267409870865 -3.67231450596106e-21)
(1.054832901134216 -0.0002047787526070209 6.441587469536541e-20)
(1.361958752883467 0.1164314043507051 6.549350105969098e-19)
(1.336959096651478 0.2520132934769499 0)
(1.057804337474357 0.009881115370049555 0)
(0.9986508413486405 -0.004079657588622571 1.37282598491962e-20)
(0.9933588689287338 -0.002039122940898045 2.42367647003004e-21)
(1.38490001573113 0.199254245868895 4.329299913823083e-19)
(0.6818542197716134 0.000512047721237602 9.964555874753861e-20)
(1.005709937952435 -0.00218926317454966 -6.020312055643591e-20)
(1.09814508223448 0.01315536240832982 2.561024132087906e-20)
(0.6694511980629737 0.004951811038786271 0)
(1.066084542269713 -0.0120280695000432 0)
(1.00974054050565 0.1365694449738888 -1.417497179986839e-19)
(1.087867654278544 0.002515660336530186 -2.586738102891829e-20)
(0.9819086768115625 8.797138810012487e-05 3.311276525480435e-20)
(0.991211804565359 0.005997018905221472 0)
(0.6381221865361154 -0.00110249853258856 0)
(0.9767190190377982 -0.001266704857008302 0)
(0.6420176490527687 -0.001415370462626794 2.646521032555599e-21)
(1.087466309757354 -0.05565902816366974 1.215952088161149e-19)
(1.109561069472786 -0.005817339874036885 1.143216129428536e-21)
(0.9579958359462309 -0.0008552582815547748 3.87869220351116e-20)
(1.017208534165249 0.01042255292384623 1.737031963440013e-20)
(1.065445188810364 0.008143472038558105 -2.390390649566816e-21)
(0.6347924727341632 0.008866640815229039 -3.614337326279237e-20)
(1.005659628693143 0.01097583202925009 -6.204499445378694e-22)
(1.03784821404112 0.008443392520169896 5.312109753705282e-21)
(0.9857320171034012 -0.004395182037237029 0)
(0.6099936542862379 -0.0004407282281021334 0)
(1.069019123581473 0.02251543850282925 0)
(1.016080701908748 -0.01684297456905849 1.03316721443239e-20)
(1.022873474557428 -0.005988756094890984 0)
(0.9932239524658945 0.01370629356942215 -9.795200731397766e-21)
(1.009309553979298 0.004160470992594967 0)
(1.134787665782918 0.00226996950408201 -1.225265244987316e-20)
(0.03097914193453868 -0.1408152891831798 -3.933430127990942e-20)
(1.034305913576503 -0.01781102373574337 -6.086973512710794e-22)
(1.043396269223289 0.007792087936636705 0)
(1.084871756151126 0.07037034149476261 8.42419386844393e-20)
(0.9674577854824699 -0.001214542182711655 3.110313126065198e-20)
(1.020077117085564 0.01680448457395322 -2.234408825962916e-20)
(1.006048149689911 -0.00234852021034105 2.39621530788239e-20)
(1.038972899654343 -0.00768110995013292 0)
(0.6409386009540987 -0.004087631241344792 0)
(1.025979567446105 0.02449997072702707 -7.973075807157242e-20)
(1.086982564483145 -0.000296639334234009 5.099623025622627e-20)
(1.012269077693414 0.007453308198962368 0)
(0.9809283890594793 -0.0003815101723316053 -1.932483189764472e-21)
(0.8549252442078963 0.009696023402139547 -1.124249126320139e-20)
(1.013965969380122 0.002764010283974979 -9.514718522418731e-21)
(1.022593647890484 0.0017446826161786 1.860438843581017e-20)
(0.9820479276024552 0.0007541466288173168 0)
(1.007825473612479 0.01074187585405108 3.211411390037304e-20)
(1.110558276746344 -0.001552432004317427 0)
(0.9346799820064045 0.01206566359496976 -3.20773970232296e-20)
(0.9534276246397407 7.162143915586964e-06 0)
(0.9007058417504726 0.2019594775524712 4.94469612617949e-20)
(1.011171727006438 0.06749616674252318 0)
(0.9907319368866514 0.004801537032199271 -2.287223949132291e-20)
(1.057514688335854 -0.04896613661593792 -2.781857392809291e-20)
(0.9940197421152052 -3.399555702975923e-05 3.249353647133379e-20)
(1.006702287240374 0.005757633911824289 0)
(0.9804143474794181 0.0005677872301247077 -3.011160841772601e-20)
(1.178752766452809 0.100511615557031 -3.375499590810987e-19)
(1.068280672472681 -0.2639492224802313 0)
(0.9944965125318219 0.0005673465969584094 -2.26401300755933e-20)
(0.9742481494866103 0.003797628600756947 4.75185011032411e-21)
(0.9594768976660317 -0.001965741059978526 1.026293558981512e-21)
(0.7460043851874675 -0.001066362248766184 0)
(1.11887656389597 -0.06902743167908659 0)
(1.004157102211596 -0.0004780982228169881 -2.244144628967756e-20)
(0.9079309055599466 0.007413318022345248 -1.081035701776093e-20)
(0.8404731686034149 -0.0008542971939866625 3.81160262390812e-21)
(1.012019482245211 -0.006139919852582189 0)
(0.9622678134389298 0.01340434336951511 1.507562115874337e-20)
(1.005648431121189 -0.0001929275982817473 -2.240468739915679e-20)
(1.026574924044379 -0.001749802867264477 -2.477705882752895e-20)
(1.113900126767457 -0.00417793222671995 -4.905971157227234e-21)
(1.116003438379321 -0.005072511461161955 0)
(1.009621627607051 0.001586257770424352 0)
(1.023227022954434 -0.00303769134713263 0)
(0.9455860123997694 0.007250897336492704 -1.99136201090293e-20)
(1.017866639356199 0.01333099487640484 5.635131016535768e-20)
(1.08794690325337 -0.002928222382564185 -2.361992183836477e-20)
(1.038402190008949 -0.002318060977102345 0)
(1.109067783051855 -0.002617492528457099 1.831549365538895e-21)
(0.9943887839812835 0.001000180912630344 -2.244633302822124e-20)
(0.9798312672432807 -0.0008823534158416289 0)
(1.009945707642309 0.002351970542360189 4.695312331742414e-20)
(1.362897956402481 -0.3139211568921332 -1.119288982876318e-18)
(1.120629762262108 -0.04468279796098287 -1.112032797198009e-19)
(0.9726506549953156 0.01149211572733822 4.48794018346013e-20)
(0.7681053840404326 0.01025015634596861 -3.596724890956742e-20)
(1.223681153631356 0.04920106070807546 0)
(1.215463969321173 -0.1294729325491898 -1.483075980272497e-19)
(1.085748412284147 -0.004449068707130236 0)
(1.008803068986641 0.0004529127098198614 2.28862490802315e-20)
(-0.2004180842623225 -0.1040828286048439 0)
(0.9939696268095229 -0.00467202486888992 0)
(1.012326159440837 -0.02303323095948116 3.882011357450853e-20)
(0.7063845817082616 -0.01942826028694496 0)
(1.096791970273071 -0.01492592304523603 2.348086093369834e-21)
(1.038930122915298 0.003671531581072143 1.505403742544287e-20)
(0.633219386094278 0.004144201573268078 0)
(1.445989347419863 -0.1241710472704402 0)
(0.9857779938392227 0.002057280542110467 -1.067055996485891e-20)
(1.069652391233292 -0.0150742050249912 0)
(1.037838777540502 0.0005362482004181617 2.044883052705743e-20)
(1.084617382595306 -0.001842392632621472 0)
(1.011976435836304 -0.006291801308184975 -1.221814637561585e-21)
(1.006030776083976 0.003313691768255386 0)
(1.008196338208335 0.003511267564209241 -1.235373030538728e-21)
(1.004298037704023 -0.02024441661133622 0)
(1.036095533956327 -0.007745114347002555 1.807902682926853e-20)
(-0.1966410696908982 0.04276511306375415 2.818027966893729e-19)
(0.8061129331986834 0.03031555375213779 5.977576069677172e-20)
(1.005050751072265 0.002166737505507813 0)
(1.121559206611758 0.01137432143356928 -1.216320812011951e-20)
(1.109604586103274 0.004008556438541251 9.356260201586951e-21)
(1.054178575305443 -0.01276630373807316 -1.329685124279268e-19)
(0.9987717443794454 0.01040335776589649 -3.661960886988139e-22)
(1.08427047505073 -0.006075717283708866 0)
(1.188863086112098 0.05028651198826037 0)
(0.8350484990555204 -0.07450360899596919 4.608046025403342e-19)
(1.089761811151454 -0.005060849475936481 0)
(1.033779542216095 0.007901346679504139 -7.718237728738541e-21)
(1.04257521501867 0.005373913905183809 5.637209915708378e-21)
(1.053019676742498 -0.05832892638952241 -7.595316931814745e-21)
(1.139442527264311 -0.002187382420965762 1.724753629924663e-19)
(1.080671110038319 0.002757965793164396 0)
(0.9943626128141068 0.001967295750356579 0)
(0.9981711220798294 -0.02619753117693089 -2.432798558000972e-21)
(0.9907446876609387 0.00359590800948544 0)
(1.030418654700195 -0.03651862580660879 6.522655436070895e-20)
(1.291618618473012 -0.09850813354989933 0)
(1.040998072997408 0.0007786311896458917 -4.013386580760107e-21)
(0.9861873068339958 0.01687796529635769 -9.095366475331967e-20)
(1.033809270662903 0.04319789932625589 -2.318499790543014e-21)
(-0.07700504901362624 0.1910633244972751 -1.739543804532302e-19)
(-0.06948822871927371 -0.2847706705945083 -1.298215435762487e-19)
(0.8776497527244784 0.1160944698783904 0)
(0.2763687300089666 -0.02557745648402896 -2.987308941306789e-19)
(1.00864278787464 -0.006927466276964559 -9.433979868462298e-21)
(1.063968041703782 0.002711185447306268 -2.062132022465301e-20)
(0.9922951878369088 -0.02181617968167294 3.092898247244355e-20)
(1.027043407699448 -0.02986955951837384 2.685946343552557e-21)
(1.009759175851241 -0.03043755213740864 -6.717193725921762e-20)
(0.9888171472817324 0.004891661067592214 -3.492674301456454e-20)
(0.993741780371589 0.004949744654553751 0)
(1.024409650915481 -0.002163866329193659 -3.480298636310077e-21)
(1.930817341780919 -0.1564704379947179 1.065313593603839e-18)
(1.048126052243312 -0.01168957023801036 0)
(0.9967388407877168 0.007829398756211314 1.486395928463748e-20)
(1.003608872797391 -0.0005519710397631339 3.992805092811631e-20)
(1.170826089463979 0.1588799276408867 0)
(1.006764371710223 -0.02040438130495384 4.141791569519589e-21)
(0.9534542018966544 0.003693709792540048 0)
(1.037845908045344 0.04172125469415851 0)
(1.299471793446098 0.1491236324725985 2.2043676835867e-19)
(1.076255223729647 -0.001134080133962866 2.332968739088332e-20)
(1.016017746997333 0.0308318168957012 4.457311604196248e-20)
(1.078333653171764 0.004094890578958709 -2.246167994005268e-20)
(1.058045606116041 -0.02372306162526042 -4.370212933603302e-21)
(-0.3898289748511102 -0.04352156776927839 0)
(0.999477950667732 0.01248392373408965 0)
(0.125170215594147 0.05377174569568404 -9.476840543115035e-20)
(1.005846442877588 0.02045003624558289 -3.987663019105371e-20)
(1.007117565225688 -0.02595756337473763 0)
(1.00098820705403 0.005316222125732117 -4.871707570713637e-21)
(1.082013723287553 -0.04234276005159853 0)
(0.994125618827883 -0.01894056033770578 -8.135616246444671e-21)
(1.099552297139973 -0.04974355073994495 0)
(1.442509357643029 0.1691677634053615 0)
(1.054798359551546 -0.01188586014191028 0)
(0.9916600351403196 -0.02478328875390443 -4.157700680656058e-20)
(0.9912788884594803 -0.02281455833442153 -3.408884804167038e-21)
(1.017155698350948 -0.02180608625308456 -2.172617565029201e-20)
(0.9966637174546122 0.01699635760682157 -5.382364317564253e-20)
(0.996077835854831 0.009483893361069081 -1.448598719262166e-20)
(0.9954477844092088 -0.02744385670544738 0)
(1.001574549688072 0.02430080388073916 1.872351281945018e-20)
(1.042408776780763 -0.02318225269068602 0)
(1.110813289571702 -0.03643774843577775 2.520565977272751e-19)
(0.9952651203098574 0.01658274084775002 4.455710514375369e-20)
(0.615043031092008 -0.008694592889762168 0)
(1.156117113481801 0.1601383386437928 8.008436676306353e-22)
(0.8245505220574975 -0.07992913736564546 0)
(1.138732780064192 0.07253993519757745 -2.802951685277869e-19)
(1.314248496599641 -0.3884717033392673 1.27615370469713e-19)
(1.071465008702441 0.06712945986660339 -1.259028755926408e-20)
(1.011704590655566 -0.03028913692610771 0)
(0.9551378106759505 -0.214615105394664 0)
(0.5502356924220633 0.178063920464415 0)
(1.014959081874605 0.01347794674661142 1.05222114128329e-21)
(0.711212767305055 -0.01389481634273984 0)
(0.99869899269636 0.01625349635793424 3.43346116667343e-20)
(1.026181493205147 -0.0006101594622436248 -2.664022323404722e-20)
(1.079035189508925 -0.008013790459544963 2.629432569448483e-21)
(1.054439984074924 -0.02469497915492443 2.528223697602649e-20)
(1.04293522570199 0.01139476194276794 0)
(1.055752758875428 0.02105897269075968 -8.848514055509739e-21)
(1.050898894043221 0.03615151494420932 -1.763160327828051e-20)
(0.9838634893443199 -0.02219909459647697 0)
(0.6248799564748859 0.005116501498103249 9.17147011988584e-20)
(0.8941630741261024 -0.005950748570773817 -8.846911044052241e-20)
(0.9093586325224763 0.005224592041015054 1.450613957934241e-20)
(0.6296501834754946 -0.006438272027114887 1.41105105825131e-20)
(0.980813069602876 -0.0002171107084929551 2.474775878635743e-20)
(1.004408168897198 -0.01755836201354512 -3.291836581011616e-20)
(0.9802873279221028 -0.02638531888897363 -2.727991086398773e-20)
(1.085641035301648 0.001562114727274245 0)
(1.01907109618059 0.005313142136459315 1.056562403992702e-20)
(1.132891770489259 0.04819344882525509 1.351567826524586e-19)
(1.031692691023431 0.04270275283194752 0)
(1.022532186487914 0.002616501322165324 0)
(1.58163092510058 -0.168155365028494 4.355039660864895e-19)
(1.053235887485341 -0.03529124623335105 0)
(1.021536453821907 0.01047882885079025 -3.593687238080904e-20)
(1.083250728111652 0.003652589944612448 0)
(0.4931872653354703 0.003491980152297128 0)
(-0.01028153164343717 0.005803513818591024 0)
(0.9910048270264342 -0.02349612242672455 1.254832037047675e-20)
(1.300356020903609 -0.09682042025177563 3.660685739244926e-19)
(1.030870816230552 0.03710010640226821 0)
(1.022576870483487 0.003558108372100609 -2.17645350080054e-20)
(0.9298615224409177 -0.1616881886289243 -6.38692882685906e-21)
(1.25591462664952 0.07344504239416796 0)
(0.5983525060936492 0.7308709761435661 0)
(1.306404765665453 0.1406172563360713 1.036575135096429e-19)
(1.674262035053286 -0.02668610330008508 0)
(1.065759703098952 0.1338636530571321 0)
(0.728341102390514 -0.001618141906265558 3.994741300464517e-21)
(1.046507236284022 0.04762716223342195 0)
(0.7448992452886213 0.1123605812908306 1.381735257295649e-19)
(0.9968187876454646 -0.01627727968756226 3.586222286995001e-19)
(1.038568145091841 -0.03888002989687284 2.689163868506412e-20)
(-0.3728611209619042 -0.05618692909659426 0)
(1.072102441472894 -0.01616356151676319 0)
(1.085896853546746 -0.01271593561953189 0)
(0.6478670094911307 -0.502278522836481 -2.49688837174571e-19)
(0.9904992996713994 -1.164910242281876e-05 0)
(1.092162829539129 -0.0220555556330221 6.883905027244869e-22)
(1.188562095555186 0.1207051002203838 -2.04961115258933e-19)
(1.099416792971771 -0.04264467736368837 0)
(1.005653415667826 -0.02071557841076587 0)
(0.7793859679739991 -0.1927083009808828 -1.655096301880259e-19)
(0.8890981483179816 -0.142476208912924 1.456823642275057e-19)
(1.033919299045516 0.01221603686754181 -2.047916964137368e-20)
(1.023133081260607 -0.009116394290799603 -4.266747658818401e-20)
(0.871297667147364 -0.0002210334344358509 5.171404302493069e-23)
(1.503258555320611 -0.1947728954680714 0)
(1.307060267232119 0.1095021138090307 3.006960084181034e-20)
(1.241107385131332 -0.07839760752118027 -3.250794754237541e-21)
(1.095838211618213 -0.01878342349422198 -4.015393275337899e-20)
(1.038023039684168 -0.01849517479093451 3.087936610065792e-20)
(1.092810436885397 -0.03914178058670142 9.577706528888073e-20)
(1.03243465249348 0.02045795058156853 0)
(1.051431802132812 -0.03404901443291902 0)
(1.115885584985888 -0.009006314982658546 0)
(1.100674352481799 -0.03724476256567508 0)
(0.9982556929802138 0.01076710805727765 0)
(1.15422143749424 0.07932733210254332 9.376592836214929e-20)
(1.34284445730928 -0.1604490708486575 0)
(1.041294821482307 -0.02665671032567757 -2.573318864634508e-22)
(1.048873219492676 0.05478832565938337 0)
(1.010065303471406 0.0141563944800673 -3.793135556140628e-20)
(1.033542963405343 -0.007755975056864024 9.38845809243466e-21)
(1.088974387835958 0.01337652724037497 -3.162482699479831e-20)
(1.084273039706757 -0.02883008610094149 0)
(1.073249131834209 -0.001037980358565456 0)
(1.100804976208076 0.09239391242268111 -1.396407902039497e-18)
(0.9350298268834455 -0.1487137136994638 -7.110146884638023e-20)
(1.179155107157728 0.115043587356069 1.141429106472142e-19)
(-0.454187751826339 -0.03056497208135473 -2.920826040410556e-19)
(1.018434984707519 0.02970849082510964 -8.540319897304724e-20)
(1.007294999108606 -0.0009827236168718919 0)
(-0.242809222431274 -0.001660977757161546 3.580160951369705e-19)
(-0.03439315826483579 0.3213597576048163 7.723782969038003e-21)
(0.9952083804756138 -0.006301564259290699 8.902961068670177e-20)
(0.1830367105908556 -0.04446544134127014 1.285663206807136e-19)
(1.089146509545436 0.09171495146305225 1.43256436806135e-20)
(0.09335950089153562 -0.1085101192335564 -5.383161972618129e-20)
(1.108279955764884 0.00311346626552065 0)
(1.09376648625973 0.2488286185171613 0)
(1.021098030215253 0.02170469459523144 -1.672785968731999e-20)
(1.062627163726522 0.05801732980560239 0)
(1.024517606394126 0.02400743030856712 -8.321148003661776e-21)
(1.261172226970209 -0.5481159798709304 7.987176859589382e-19)
(-0.09674197560369152 -0.2374838931087739 2.07279714798239e-19)
(1.299377339641138 0.110561467037439 -6.10726462461638e-19)
(1.124066310423453 0.000217145238426545 0)
(1.129162879937707 0.108088366311023 0)
(0.5197455501790749 0.0758747761855651 2.400574126085279e-19)
(1.023152154468852 -0.02047181572908514 9.613435982887826e-20)
(1.00586700178134 -0.02314072077065165 0)
(1.212485386508875 0.2709733671163567 -9.819020230395104e-20)
(1.253941824559952 0.1253717091566868 -1.489679438045766e-19)
(1.02648837398301 0.00296085702099055 1.595858359478879e-20)
(1.296046808333084 -0.08516012702048367 -4.945374032642292e-19)
(0.3101300211649988 -0.02426949127970299 2.919388485018359e-19)
(0.8352167626363435 -0.1507238679236998 6.939357465684178e-19)
(1.047120331088663 0.06474831035584767 1.10147864190505e-19)
(1.039001664778769 0.0009407729510283972 1.383522163280095e-21)
(1.000702662411493 0.01937824331352951 2.836178224131426e-20)