/*--------------------------------*- C++ -*----------------------------------*\
| =========                 |                                                 |
| \\      /  F ield         | OpenFOAM: The Open Source CFD Toolbox           |
|  \\    /   O peration     | Version:  2412                                  |
|   \\  /    A nd           | Website:  www.openfoam.com                      |
|    \\/     M anipulation  |                                                 |
\*---------------------------------------------------------------------------*/
FoamFile
{
    version     2.0;
    format      ascii;
    arch        "LSB;label=32;scalar=64";
    class       volScalarField;
    location    "481";
    object      yPlus;
}
// * * * * * * * * * * * * * * * * * * * * * * * * * * * * * * * * * * * * * //

dimensions      [0 0 0 0 0 0 0];

internalField   uniform 0;

boundaryField
{
    FrontBack
    {
        type            empty;
    }
    Top
    {
        type            calculated;
        value           nonuniform List<scalar> 
15
(
142.2865044750941
133.5882518993984
138.0690773346062
144.4117834345853
159.771585875134
131.3684495070056
140.1383003659472
135.3624690636437
153.4499650254244
135.7343898500742
136.0966293671712
136.7689091844003
125.2642178779612
132.9117517122931
123.9520974534314
)
;
    }
    In
    {
        type            calculated;
        value           uniform 0;
    }
    Bottom
    {
        type            calculated;
        value           nonuniform List<scalar> 
15
(
155.5661689790182
158.1181409845606
141.0821135479778
142.0436981724494
141.1766122814768
148.4245485703276
142.6976822093705
143.1498863392627
143.4224440190577
134.05550862017
125.7253658879437
141.552656637374
122.4059452927847
123.4878507468105
124.1301060937354
)
;
    }
    Out
    {
        type            calculated;
        value           uniform 0;
    }
    circle
    {
        type            calculated;
        value           nonuniform List<scalar> 
32
(
56.21218968283024
22.23797670113769
65.31097719092919
23.84814290080408
19.38422329223493
56.14386005721457
56.73757467148136
23.91046565778603
22.37843757988161
65.54509966246789
40.0001527941767
63.01604820807771
50.42540699905016
15.17030108393718
23.51867384964105
18.0396775505296
39.0705484344457
59.65856360247263
60.98601416694424
24.22224813210067
65.71387292333843
63.83552852210828
62.98064573084007
59.9448212907032
64.08460372583276
45.91134855307259
66.36731467808167
32.00619578246919
38.05041488918859
55.78108385120638
20.94052247033938
43.18750777169051
)
;
    }
}


// ************************************************************************* //
