/*--------------------------------*- C++ -*----------------------------------*\
| =========                 |                                                 |
| \\      /  F ield         | OpenFOAM: The Open Source CFD Toolbox           |
|  \\    /   O peration     | Version:  2412                                  |
|   \\  /    A nd           | Website:  www.openfoam.com                      |
|    \\/     M anipulation  |                                                 |
\*---------------------------------------------------------------------------*/
FoamFile
{
    version     2.0;
    format      ascii;
    arch        "LSB;label=32;scalar=64";
    class       volScalarField;
    location    "184";
    object      yPlus;
}
// * * * * * * * * * * * * * * * * * * * * * * * * * * * * * * * * * * * * * //

dimensions      [0 0 0 0 0 0 0];

internalField   uniform 0;

boundaryField
{
    FrontBack
    {
        type            empty;
    }
    Top
    {
        type            calculated;
        value           nonuniform List<scalar> 
15
(
142.2714618691756
133.5585394721508
138.0672856546011
144.3932371920905
159.7661641937998
131.3678344934804
140.1151294262311
135.3500165087196
153.4326678192785
135.7437168404677
136.0878647185933
136.7763456122245
125.2387872836063
132.9008300252015
123.9477609143329
)
;
    }
    In
    {
        type            calculated;
        value           uniform 0;
    }
    Bottom
    {
        type            calculated;
        value           nonuniform List<scalar> 
15
(
155.56590902856
158.1113920798433
141.0996496055486
142.0779166119472
141.1869399341705
148.4536744450554
142.7106215077465
143.1700583108517
143.4234084987667
134.0604221244908
125.7369140469234
141.556916121117
122.4129977885691
123.4916699708545
124.1440615098992
)
;
    }
    Out
    {
        type            calculated;
        value           uniform 0;
    }
    circle
    {
        type            calculated;
        value           nonuniform List<scalar> 
32
(
56.32524807268071
21.92251403650415
65.28624546195945
24.50088725797599
19.4269801823997
56.22854964247157
56.77960655267321
24.17917715654958
22.2333849017275
65.50403700064474
40.15714024988646
63.01663455102705
50.36601327793792
14.28335796297664
23.38754516116146
19.390982983486
38.94501029445194
59.64528238584193
61.05254189350498
25.84354984313587
65.75781279513758
63.78211822119704
62.99487457135027
59.87900272102717
64.13846081859494
46.02374617554813
66.40042213818661
32.16819433462297
37.92958885454865
55.70027283717565
21.27132211196505
43.09710635675062
)
;
    }
}


// ************************************************************************* //
