/*--------------------------------*- C++ -*----------------------------------*\
| =========                 |                                                 |
| \\      /  F ield         | OpenFOAM: The Open Source CFD Toolbox           |
|  \\    /   O peration     | Version:  2412                                  |
|   \\  /    A nd           | Website:  www.openfoam.com                      |
|    \\/     M anipulation  |                                                 |
\*---------------------------------------------------------------------------*/
FoamFile
{
    version     2.0;
    format      ascii;
    arch        "LSB;label=32;scalar=64";
    class       volScalarField;
    location    "173.5";
    object      yPlus;
}
// * * * * * * * * * * * * * * * * * * * * * * * * * * * * * * * * * * * * * //

dimensions      [0 0 0 0 0 0 0];

internalField   uniform 0;

boundaryField
{
    FrontBack
    {
        type            empty;
    }
    Top
    {
        type            calculated;
        value           nonuniform List<scalar> 
15
(
142.2822203580171
133.5605527600521
138.0604056374277
144.3857838720216
159.7581906265758
131.3661326109005
140.1149274626017
135.339352922411
153.4484395367279
135.7267331489398
136.0783876677193
136.7796437322766
125.2511248090034
132.907699086788
123.9559135462152
)
;
    }
    In
    {
        type            calculated;
        value           uniform 0;
    }
    Bottom
    {
        type            calculated;
        value           nonuniform List<scalar> 
15
(
155.5682210016433
158.115317405769
141.1047552900907
142.0664529626127
141.187028219677
148.4501728171757
142.7145638721055
143.158133008419
143.4213208703155
134.0678377285382
125.7354592788091
141.5631654851462
122.4085543626289
123.4866103383511
124.1403843778334
)
;
    }
    Out
    {
        type            calculated;
        value           uniform 0;
    }
    circle
    {
        type            calculated;
        value           nonuniform List<scalar> 
32
(
56.00620473155022
21.72724897609317
65.19127204864188
26.45143476218533
20.42083129330267
56.29081107487737
56.5877259449046
23.83543861928581
22.06196088911722
65.42817075483656
39.79921658932493
62.88501389133941
50.67060526953239
17.64622071579842
22.52328257874125
18.76348627642981
39.35666314880451
59.8550970844416
61.11409347064855
26.25916355677436
65.835238165177
63.71531325039636
63.13328362403907
59.81509608972658
64.20502170230276
46.08922612938775
66.49921143882116
32.24370902084028
37.83219606038531
55.63133221631772
21.41497719065324
43.02724993939263
)
;
    }
}


// ************************************************************************* //
