/*--------------------------------*- C++ -*----------------------------------*\
| =========                 |                                                 |
| \\      /  F ield         | OpenFOAM: The Open Source CFD Toolbox           |
|  \\    /   O peration     | Version:  2412                                  |
|   \\  /    A nd           | Website:  www.openfoam.com                      |
|    \\/     M anipulation  |                                                 |
\*---------------------------------------------------------------------------*/
FoamFile
{
    version     2.0;
    format      ascii;
    arch        "LSB;label=32;scalar=64";
    class       volVectorField;
    location    "0.5";
    object      cellDisplacement;
}
// * * * * * * * * * * * * * * * * * * * * * * * * * * * * * * * * * * * * * //

dimensions      [0 1 0 0 0 0 0];

internalField   nonuniform List<vector> 
256
(
(0.000549355 0.0158017 0)
(-0.00186778 0.0156087 0)
(-0.0038689 0.0143482 0)
(-0.00508306 0.0122367 0)
(-0.00542068 0.00978698 0)
(-0.00486875 0.00718324 0)
(-0.00361796 0.00466098 0)
(-0.0018748 0.00224117 0)
(0.0010851 0.0468562 0)
(-0.00565184 0.0461224 0)
(-0.0112756 0.0427498 0)
(-0.0149808 0.0373689 0)
(-0.0163244 0.0307279 0)
(-0.0154337 0.0237492 0)
(-0.0125587 0.0167701 0)
(-0.00813665 0.0099454 0)
(0.00107305 0.0761949 0)
(-0.00943388 0.074952 0)
(-0.0182781 0.0699179 0)
(-0.0242935 0.0618782 0)
(-0.027003 0.0521263 0)
(-0.0263499 0.0415891 0)
(-0.0227124 0.0309678 0)
(-0.0165818 0.0204683 0)
(0.000508381 0.104111 0)
(-0.0132895 0.102251 0)
(-0.0249828 0.0958365 0)
(-0.0332877 0.0859047 0)
(-0.0374941 0.0736719 0)
(-0.037615 0.0604415 0)
(-0.0339414 0.0469388 0)
(-0.0269689 0.0334526 0)
(-0.000578951 0.130689 0)
(-0.0173255 0.128256 0)
(-0.0316222 0.120776 0)
(-0.0420602 0.109302 0)
(-0.0479905 0.0953307 0)
(-0.0492357 0.0800273 0)
(-0.0461302 0.0643302 0)
(-0.0391461 0.0485648 0)
(-0.00226255 0.156168 0)
(-0.0216244 0.153077 0)
(-0.038276 0.144698 0)
(-0.0508607 0.132196 0)
(-0.0585547 0.11688 0)
(-0.0612752 0.100128 0)
(-0.059245 0.0828391 0)
(-0.0529125 0.0653734 0)
(-0.00455704 0.180505 0)
(-0.0263032 0.176851 0)
(-0.0451754 0.167802 0)
(-0.0597645 0.154456 0)
(-0.0693923 0.138292 0)
(-0.0738043 0.12052 0)
(-0.0732614 0.102139 0)
(-0.0682163 0.0835345 0)
(-0.00759685 0.203883 0)
(-0.0314826 0.199647 0)
(-0.0523867 0.19002 0)
(-0.0690313 0.176175 0)
(-0.0805868 0.159395 0)
(-0.0869323 0.141 0)
(-0.0882274 0.121941 0)
(-0.0849203 0.102585 0)
(-0.0114307 0.226302 0)
(-0.037308 0.22153 0)
(-0.0601727 0.211481 0)
(-0.078734 0.197223 0)
(-0.092363 0.180122 0)
(-0.100792 0.161382 0)
(-0.104212 0.14192 0)
(-0.103102 0.122185 0)
(-0.0162822 0.247856 0)
(-0.0439544 0.242521 0)
(-0.0686146 0.232081 0)
(-0.0891687 0.217612 0)
(-0.104871 0.200358 0)
(-0.115585 0.181421 0)
(-0.121378 0.161818 0)
(-0.122782 0.14186 0)
(-0.0222872 0.268476 0)
(-0.0516137 0.262573 0)
(-0.0780348 0.251839 0)
(-0.100481 0.237246 0)
(-0.118398 0.219891 0)
(-0.13151 0.200945 0)
(-0.139941 0.181202 0)
(-0.144144 0.161192 0)
(-0.0297875 0.28812 0)
(-0.0605707 0.281655 0)
(-0.0886337 0.270613 0)
(-0.113006 0.255926 0)
(-0.133168 0.238576 0)
(-0.148862 0.219526 0)
(-0.160088 0.199688 0)
(-0.167396 0.179478 0)
(-0.0390532 0.306568 0)
(-0.0711429 0.299433 0)
(-0.100666 0.28811 0)
(-0.126958 0.273297 0)
(-0.14942 0.255917 0)
(-0.167845 0.236727 0)
(-0.182166 0.216591 0)
(-0.192819 0.195935 0)
(-0.0505307 0.323232 0)
(-0.083528 0.315376 0)
(-0.114424 0.303639 0)
(-0.142512 0.288676 0)
(-0.167403 0.271065 0)
(-0.188718 0.251611 0)
(-0.206432 0.230874 0)
(-0.220722 0.20941 0)
(-0.0643469 0.337155 0)
(-0.0979787 0.328461 0)
(-0.129938 0.31626 0)
(-0.15976 0.300907 0)
(-0.18702 0.282877 0)
(-0.211445 0.262623 0)
(-0.232804 0.240726 0)
(-0.251192 0.217486 0)
(-0.0799882 0.345447 0)
(-0.113463 0.335943 0)
(-0.145844 0.323204 0)
(-0.176822 0.307352 0)
(-0.206096 0.288541 0)
(-0.233386 0.266951 0)
(-0.258428 0.242789 0)
(-0.280981 0.21629 0)
(-0.00180915 0.00226664 0)
(-0.00355973 0.00417387 0)
(-0.00535589 0.00555243 0)
(-0.00735016 0.00640873 0)
(-0.00946499 0.00660976 0)
(-0.011566 0.00607623 0)
(-0.013548 0.00482094 0)
(-0.0150727 0.00289375 0)
(-0.00809854 0.00990058 0)
(-0.0130654 0.0146818 0)
(-0.01837 0.0180258 0)
(-0.0240159 0.0197097 0)
(-0.0299256 0.019581 0)
(-0.0358271 0.0175058 0)
(-0.041124 0.0134774 0)
(-0.0450603 0.00776459 0)
(-0.0166905 0.0200636 0)
(-0.0246487 0.0268226 0)
(-0.0330191 0.0311275 0)
(-0.0419958 0.0329005 0)
(-0.0512664 0.0318459 0)
(-0.0602396 0.027804 0)
(-0.0681315 0.0208978 0)
(-0.0738038 0.0116089 0)
(-0.0275333 0.032533 0)
(-0.0380612 0.0402161 0)
(-0.0492876 0.0447211 0)
(-0.0611314 0.0458338 0)
(-0.0731984 0.0433096 0)
(-0.0847599 0.0370217 0)
(-0.0946109 0.0271815 0)
(-0.101459 0.0145221 0)
(-0.0403679 0.0468583 0)
(-0.0532877 0.0546632 0)
(-0.0669293 0.058519 0)
(-0.0813001 0.0583868 0)
(-0.0957455 0.0539532 0)
(-0.10922 0.0451562 0)
(-0.120462 0.0323769 0)
(-0.128025 0.0165599 0)
(-0.0551537 0.0627627 0)
(-0.0700749 0.069773 0)
(-0.0859382 0.0723614 0)
(-0.102377 0.0704046 0)
(-0.118643 0.0636784 0)
(-0.133605 0.0522077 0)
(-0.145741 0.0365083 0)
(-0.153639 0.0177256 0)
(-0.0716536 0.0797721 0)
(-0.0884527 0.0853214 0)
(-0.106095 0.0859682 0)
(-0.124259 0.08174 0)
(-0.141951 0.0724151 0)
(-0.157815 0.0581356 0)
(-0.1704 0.0395718 0)
(-0.178308 0.0180107 0)
(-0.0898878 0.0975639 0)
(-0.108194 0.100915 0)
(-0.127435 0.0991326 0)
(-0.146879 0.0922083 0)
(-0.165466 0.0800399 0)
(-0.181864 0.0628688 0)
(-0.194513 0.0415084 0)
(-0.20218 0.0173497 0)
(-0.109703 0.115651 0)
(-0.129411 0.116271 0)
(-0.149801 0.111547 0)
(-0.170157 0.101599 0)
(-0.189285 0.0863824 0)
(-0.205711 0.0662903 0)
(-0.218105 0.0422309 0)
(-0.225255 0.0156589 0)
(-0.131249 0.133682 0)
(-0.152001 0.130949 0)
(-0.173295 0.122903 0)
(-0.194126 0.109623 0)
(-0.213276 0.091239 0)
(-0.22941 0.068218 0)
(-0.241179 0.0415775 0)
(-0.247535 0.0127896 0)
(-0.154563 0.15108 0)
(-0.176164 0.144553 0)
(-0.197922 0.132759 0)
(-0.21879 0.115937 0)
(-0.237553 0.09426 0)
(-0.252891 0.0683786 0)
(-0.263638 0.039329 0)
(-0.268983 0.00853716 0)
(-0.179836 0.167172 0)
(-0.201963 0.156394 0)
(-0.223796 0.140506 0)
(-0.244192 0.119961 0)
(-0.261967 0.0949915 0)
(-0.27602 0.0663828 0)
(-0.285405 0.0351408 0)
(-0.289535 0.00259861 0)
(-0.207274 0.181001 0)
(-0.229576 0.165455 0)
(-0.250897 0.145276 0)
(-0.270164 0.120851 0)
(-0.28637 0.0927434 0)
(-0.298655 0.0616234 0)
(-0.306339 0.0285419 0)
(-0.309019 -0.00546202 0)
(-0.237219 0.191102 0)
(-0.259055 0.170423 0)
(-0.279137 0.145671 0)
(-0.296492 0.117564 0)
(-0.310431 0.0865323 0)
(-0.320381 0.0533573 0)
(-0.325936 0.0188487 0)
(-0.326908 -0.0160745 0)
(-0.26952 0.19497 0)
(-0.289929 0.168782 0)
(-0.307571 0.139789 0)
(-0.321997 0.108482 0)
(-0.332879 0.0753334 0)
(-0.339946 0.0408663 0)
(-0.343037 0.00568853 0)
(-0.34209 -0.0295942 0)
(-0.300828 0.187707 0)
(-0.317778 0.157317 0)
(-0.331667 0.125412 0)
(-0.342363 0.0922991 0)
(-0.349761 0.0582973 0)
(-0.353791 0.023734 0)
(-0.354414 -0.0110579 0)
(-0.351623 -0.0457433 0)
)
;

boundaryField
{
    walls
    {
        type            cellMotion;
        value           uniform (0 0 0);
    }
    cylinder
    {
        type            cellMotion;
        value           nonuniform List<vector> 
16
(
(-0.0799882 0.345447 0)
(-0.113463 0.335943 0)
(-0.145844 0.323204 0)
(-0.176822 0.307352 0)
(-0.206096 0.288541 0)
(-0.233386 0.266951 0)
(-0.258428 0.242789 0)
(-0.280981 0.21629 0)
(-0.300828 0.187707 0)
(-0.317778 0.157317 0)
(-0.331667 0.125412 0)
(-0.342363 0.0922991 0)
(-0.349761 0.0582973 0)
(-0.353791 0.023734 0)
(-0.354414 -0.0110579 0)
(-0.351623 -0.0457433 0)
)
;
    }
    outlet
    {
        type            cellMotion;
        value           uniform (0 0 0);
    }
    inlet
    {
        type            cellMotion;
        value           nonuniform List<vector> 0();
    }
    frontAndBack
    {
        type            empty;
    }
    procBoundary3to1
    {
        type            processor;
        value           nonuniform List<vector> 
16
(
(0.00290832 0.0150736 0)
(0.00780873 0.0450572 0)
(0.0116802 0.0737953 0)
(0.0146181 0.101436 0)
(0.0166725 0.127994 0)
(0.0178498 0.153585 0)
(0.018141 0.178237 0)
(0.0174852 0.202081 0)
(0.0157837 0.225144 0)
(0.012912 0.247401 0)
(0.00863186 0.268852 0)
(0.00268101 0.289404 0)
(-0.00543071 0.308917 0)
(-0.0160564 0.326847 0)
(-0.0295946 0.342067 0)
(-0.0457433 0.351623 0)
)
;
    }
    procBoundary3to2
    {
        type            processor;
        value           nonuniform List<vector> 
16
(
(-0.0158147 0.000533051 0)
(-0.0468487 0.00104078 0)
(-0.0762249 0.000989165 0)
(-0.104135 0.000402456 0)
(-0.130762 -0.000719739 0)
(-0.156237 -0.00241023 0)
(-0.180621 -0.00472764 0)
(-0.203991 -0.00775119 0)
(-0.226455 -0.0116026 0)
(-0.247985 -0.0164057 0)
(-0.268623 -0.0224139 0)
(-0.288241 -0.0298488 0)
(-0.306657 -0.0391164 0)
(-0.323291 -0.0505335 0)
(-0.337174 -0.0643474 0)
(-0.345447 -0.0799882 0)
)
;
    }
}


// ************************************************************************* //
