/*--------------------------------*- C++ -*----------------------------------*\
| =========                 |                                                 |
| \\      /  F ield         | OpenFOAM: The Open Source CFD Toolbox           |
|  \\    /   O peration     | Version:  2412                                  |
|   \\  /    A nd           | Website:  www.openfoam.com                      |
|    \\/     M anipulation  |                                                 |
\*---------------------------------------------------------------------------*/
FoamFile
{
    version     2.0;
    format      ascii;
    arch        "LSB;label=32;scalar=64";
    class       surfaceScalarField;
    location    "0.5";
    object      meshPhi;
}
// * * * * * * * * * * * * * * * * * * * * * * * * * * * * * * * * * * * * * //

dimensions      [0 3 -1 0 0 0 0];

internalField   nonuniform List<scalar> 
480
(
0.00392748
-0.00170729
0.00427631
0.00174074
0.00414424
0.00439965
0.0036162
0.00565189
0.00300821
0.00570358
0.00236887
0.00502229
0.00159704
0.00394783
0.00313849
0.00121673
0.0114251
-0.00318429
0.0122402
0.00278166
0.0119251
0.00744958
0.0106128
0.00986325
0.00904418
0.01032
0.0073506
0.00947987
0.00524705
0.00784358
0.00643976
0.0041809
0.0181099
-0.00434506
0.019146
0.00331098
0.0187979
0.00941678
0.0171748
0.0128753
0.0151035
0.0139088
0.0127121
0.0131921
0.00968058
0.0113246
0.0096386
0.00816956
0.0239403
-0.00513457
0.0251713
0.00363342
0.0249106
0.0106731
0.0233016
0.0149206
0.0210553
0.0165196
0.0182881
0.0160815
0.0147566
0.0143173
0.012671
0.0131064
0.029255
-0.00557042
0.0305656
0.00380285
0.0304401
0.0113532
0.0290232
0.0161546
0.0268378
0.0182481
0.0240199
0.0181879
0.0204239
0.0167593
0.0154091
0.0189299
0.0343519
-0.00568419
0.0355207
0.0038604
0.0355255
0.0116181
0.034381
0.0167204
0.0324545
0.0191965
0.0299223
0.0195817
0.0266635
0.0186871
0.0177779
0.0255632
0.0391807
-0.00539937
0.0401606
0.00389492
0.0402878
0.0115469
0.039462
0.0167737
0.0379772
0.0195229
0.0360133
0.0203299
0.0333374
0.0199435
0.0194641
0.0327663
0.0437217
-0.00490582
0.0445839
0.00391349
0.0448535
0.0112435
0.0443861
0.0163653
0.0434858
0.0192371
0.0422262
0.0204071
0.0402534
0.0205462
0.0205582
0.0403669
0.048068
-0.00424121
0.0488847
0.00395684
0.0493387
0.0107655
0.0493025
0.0156187
0.0490652
0.0185564
0.0485941
0.020111
0.0475015
0.020773
0.0212395
0.0484366
0.0522695
-0.00352347
0.0530347
0.00386098
0.0537789
0.00995653
0.0543274
0.014469
0.05491
0.0175733
0.0554044
0.0196233
0.0553695
0.0208091
0.0216788
0.0573304
0.0563689
-0.00285424
0.057085
0.00353129
0.0581859
0.00890856
0.0595002
0.0131457
0.0611543
0.0164418
0.0628362
0.0188017
0.064125
0.0203025
0.0214993
0.0673368
0.0605723
-0.00205184
0.0614442
0.00318518
0.062953
0.00778853
0.0651557
0.0116916
0.0678826
0.0148301
0.0708079
0.0172002
0.0736463
0.0188601
0.0201918
0.0782349
0.064988
-0.000991241
0.0662504
0.00303768
0.0683935
0.00665655
0.0714707
0.00984455
0.0751739
0.0125151
0.0792903
0.0146766
0.0836285
0.0163584
0.0176278
0.0896248
0.0694149
0.000256693
0.071146
0.00294705
0.0740377
0.0054298
0.0779686
0.00768752
0.0827651
0.0096516
0.0881674
0.0112929
0.0939971
0.0126014
0.0136396
0.101232
0.0732709
0.00160973
0.0754242
0.00291357
0.0789527
0.00414115
0.0837209
0.0052796
0.0895971
0.00629875
0.0963543
0.00718029
0.103758
0.00789679
0.00851734
0.112124
0.0721912
0.0749386
0.0790322
0.0843283
0.0906435
0.0977707
0.105449
0.113527
0.00156739
-0.00367197
0.00218535
-0.00536101
0.00268273
-0.0071886
0.00287104
-0.0082733
0.00279739
-0.00846253
0.00274299
-0.00794347
0.00282264
-0.00691178
-0.0053289
0.00503077
-0.00845298
0.00675128
-0.0110624
0.0080547
-0.0138715
0.00859802
-0.0153925
0.00848671
-0.0155561
0.00834773
-0.0145478
0.00851437
-0.0125276
-0.00952705
0.0092617
-0.013972
0.0116734
-0.0169389
0.0134697
-0.0199909
0.0142865
-0.0215217
0.0142436
-0.0214272
0.0140586
-0.0198213
0.0141869
-0.0168458
-0.0126349
0.014227
-0.0196352
0.0169651
-0.0225642
0.0189696
-0.0254235
0.0199416
-0.0265451
0.0199924
-0.0259735
0.0197715
-0.0237572
0.0197811
-0.0199613
-0.0147758
0.0198818
-0.0251776
0.0226565
-0.0278042
0.0246342
-0.0301214
0.0256379
-0.0306565
0.0257339
-0.0294785
0.0254384
-0.0265612
0.0253189
-0.0220168
-0.0161045
0.0261682
-0.0301292
0.0287457
-0.0322636
0.0305126
-0.0338991
0.0314003
-0.0336736
0.0314416
-0.031785
0.0310099
-0.0282024
0.0307216
-0.0230175
-0.0165805
0.032903
-0.0340306
0.0351471
-0.0356463
0.0365934
-0.0365462
0.0372412
-0.0356215
0.0371052
-0.0330869
0.0364656
-0.0288908
0.0358915
-0.0231694
-0.0163272
0.0399473
-0.0365976
0.0417438
-0.0376609
0.0428272
-0.0379278
0.0431282
-0.0364039
0.0427048
-0.0332926
0.0418365
-0.028644
0.0409938
-0.0226078
-0.0155389
0.0473694
-0.0377431
0.0486015
-0.0383276
0.0491855
-0.0380142
0.0490299
-0.0359888
0.0482595
-0.0324638
0.0471704
-0.0275435
0.0461768
-0.0213825
-0.0143471
0.0554962
-0.0375083
0.0558691
-0.0375506
0.0557471
-0.036692
0.0549842
-0.0343741
0.0538018
-0.0306595
0.0524657
-0.0256599
0.0513112
-0.0195962
-0.0127988
0.0645112
-0.0358087
0.0635887
-0.0353679
0.0624621
-0.0339005
0.0610017
-0.0313835
0.0593054
-0.027707
0.0576465
-0.0228875
0.0562652
-0.0172123
-0.010966
0.074326
-0.0323823
0.0718322
-0.031642
0.069479
-0.0297241
0.067146
-0.027069
0.0647544
-0.0235487
0.0626661
-0.0191662
0.0610351
-0.0141656
-0.00877264
0.0845912
-0.0268282
0.0805631
-0.02602
0.0768418
-0.0239681
0.0733778
-0.0214058
0.0701473
-0.0182816
0.067514
-0.0145156
0.065629
-0.0103921
-0.00609888
0.0949284
-0.0190366
0.0893339
-0.0182313
0.0840709
-0.0162827
0.0793825
-0.0141068
0.0752652
-0.0116945
0.0720377
-0.00893615
0.0699116
-0.00601448
-0.00307803
0.104392
-0.00867263
0.0969757
-0.00790363
0.0901563
-0.00668455
0.0842714
-0.00540987
0.0793956
-0.00409174
0.0757261
-0.00271492
0.0734395
-0.0012998
0.000116318
0.104092
0.0953366
0.0876876
0.081353
0.0764438
0.073034
0.071188
)
;

boundaryField
{
    walls
    {
        type            calculated;
        value           uniform 0;
    }
    cylinder
    {
        type            calculated;
        value           nonuniform List<scalar> 
16
(
1.60363e-11
-1.96897e-11
-6.53098e-12
1.18837e-11
-3.34639e-11
2.42432e-11
3.75408e-11
-1.90042e-11
1.90047e-11
-3.75398e-11
-2.42425e-11
3.34647e-11
-1.1882e-11
6.53197e-12
1.96897e-11
-1.60353e-11
)
;
    }
    outlet
    {
        type            calculated;
        value           uniform 0;
    }
    inlet
    {
        type            calculated;
        value           nonuniform List<scalar> 0();
    }
    frontAndBack
    {
        type            empty;
    }
    procBoundary3to1
    {
        type            processor;
        value           nonuniform List<scalar> 
16
(
-0.00343295
-0.0102088
-0.016581
-0.0223924
-0.0278793
-0.0331784
-0.0381123
-0.0427754
-0.0473731
-0.0518505
-0.05614
-0.0603667
-0.064656
-0.0688687
-0.0725196
-0.070899
)
;
    }
    procBoundary3to2
    {
        type            processor;
        value           nonuniform List<scalar> 
16
(
0.00299224
0.00894102
0.0146522
0.0200197
0.0252838
0.0305717
0.0356745
0.040647
0.0456505
0.0505779
0.0553459
0.0599989
0.0645883
0.0689617
0.0726034
0.0709174
)
;
    }
}


// ************************************************************************* //
