/*--------------------------------*- C++ -*----------------------------------*\
| =========                 |                                                 |
| \\      /  F ield         | OpenFOAM: The Open Source CFD Toolbox           |
|  \\    /   O peration     | Version:  2412                                  |
|   \\  /    A nd           | Website:  www.openfoam.com                      |
|    \\/     M anipulation  |                                                 |
\*---------------------------------------------------------------------------*/
FoamFile
{
    version     2.0;
    format      ascii;
    arch        "LSB;label=32;scalar=64";
    class       pointVectorField;
    location    "0.5";
    object      pointDisplacement;
}
// * * * * * * * * * * * * * * * * * * * * * * * * * * * * * * * * * * * * * //

dimensions      [0 1 0 0 0 0 0];

internalField   nonuniform List<vector> 
578
(
(0 0 0)
(0 0 0)
(0 0 0)
(0 0 0)
(0 0 0)
(0 0 0)
(0 0 0)
(0 0 0)
(0 0 0)
(0.00310251 0.0307336 0)
(-0.00146796 0.0311421 0)
(-0.00567508 0.0297539 0)
(-0.00882068 0.0267169 0)
(-0.010474 0.0225588 0)
(-0.0105302 0.0178762 0)
(-0.00912797 0.0130898 0)
(-0.00654047 0.00838861 0)
(-0.00485472 0.00593565 0)
(0.00542309 0.0605109 0)
(-0.00323006 0.0610719 0)
(-0.0111678 0.0584775 0)
(-0.0172227 0.0530172 0)
(-0.0206707 0.0455571 0)
(-0.0212978 0.0370697 0)
(-0.0192794 0.0282798 0)
(-0.0150053 0.0195391 0)
(-0.0122167 0.0149006 0)
(0.00697789 0.0889177 0)
(-0.00528544 0.089414 0)
(-0.0165034 0.0857768 0)
(-0.0252241 0.0784204 0)
(-0.0305377 0.0684275 0)
(-0.0321363 0.0569841 0)
(-0.0301752 0.0450041 0)
(-0.0250697 0.0329722 0)
(-0.0217559 0.0264061 0)
(0.00780966 0.116089 0)
(-0.00767309 0.11636 0)
(-0.0218121 0.111813 0)
(-0.033 0.102988 0)
(-0.0402246 0.0910846 0)
(-0.0431041 0.0773975 0)
(-0.0417537 0.0629605 0)
(-0.0365727 0.0483481 0)
(-0.033297 0.0401123 0)
(0.00792192 0.142138 0)
(-0.0104511 0.142077 0)
(-0.027219 0.136732 0)
(-0.0407153 0.126774 0)
(-0.0498811 0.113458 0)
(-0.0542834 0.0981224 0)
(-0.0539956 0.081861 0)
(-0.0493883 0.0653107 0)
(-0.0466746 0.0556439 0)
(0.00729194 0.167151 0)
(-0.0136912 0.166677 0)
(-0.0328515 0.160633 0)
(-0.0485283 0.149816 0)
(-0.059656 0.135486 0)
(-0.0657745 0.118986 0)
(-0.0669201 0.101438 0)
(-0.06344 0.0835098 0)
(-0.0617565 0.0726192 0)
(0.00586509 0.191201 0)
(-0.0174903 0.190245 0)
(-0.0388435 0.183603 0)
(-0.0565976 0.172138 0)
(-0.0697049 0.157107 0)
(-0.077695 0.139832 0)
(-0.0805786 0.121432 0)
(-0.0786863 0.102589 0)
(-0.0784393 0.0906353 0)
(0.00355547 0.214375 0)
(-0.0219605 0.212861 0)
(-0.0453437 0.20569 0)
(-0.0650881 0.193747 0)
(-0.0801883 0.178254 0)
(-0.0901825 0.160503 0)
(-0.0950609 0.141591 0)
(-0.0951426 0.122197 0)
(-0.0966753 0.109288 0)
(0.000239486 0.236696 0)
(-0.0272502 0.23457 0)
(-0.0525181 0.226921 0)
(-0.0741783 0.214619 0)
(-0.0912917 0.198852 0)
(-0.103414 0.180847 0)
(-0.110509 0.161664 0)
(-0.112892 0.141982 0)
(-0.116486 0.128162 0)
(-0.00426384 0.258164 0)
(-0.0335408 0.255372 0)
(-0.0605594 0.247269 0)
(-0.0840793 0.234712 0)
(-0.103235 0.218797 0)
(-0.1176 0.200677 0)
(-0.127118 0.181373 0)
(-0.13208 0.161551 0)
(-0.137971 0.146802 0)
(-0.0101989 0.278728 0)
(-0.0410714 0.275219 0)
(-0.0697176 0.266683 0)
(-0.0950421 0.253921 0)
(-0.116267 0.237927 0)
(-0.132991 0.219755 0)
(-0.14511 0.200363 0)
(-0.152905 0.180419 0)
(-0.161285 0.164614 0)
(-0.0179075 0.298265 0)
(-0.0501453 0.293955 0)
(-0.0802572 0.284964 0)
(-0.107318 0.271999 0)
(-0.130639 0.255944 0)
(-0.149826 0.237704 0)
(-0.164745 0.218153 0)
(-0.175623 0.197947 0)
(-0.18665 0.180818 0)
(-0.0277792 0.316402 0)
(-0.061071 0.311161 0)
(-0.0924434 0.301648 0)
(-0.12114 0.28844 0)
(-0.146572 0.272251 0)
(-0.168344 0.253845 0)
(-0.186289 0.233968 0)
(-0.200532 0.213224 0)
(-0.214353 0.194323 0)
(-0.0401464 0.332333 0)
(-0.0741048 0.326062 0)
(-0.106471 0.31594 0)
(-0.136658 0.302378 0)
(-0.16417 0.285891 0)
(-0.18864 0.267056 0)
(-0.209842 0.246474 0)
(-0.227777 0.224644 0)
(-0.244547 0.20324 0)
(-0.0549406 0.344079 0)
(-0.08896 0.336756 0)
(-0.121816 0.325971 0)
(-0.153097 0.311936 0)
(-0.182427 0.294927 0)
(-0.209487 0.275258 0)
(-0.234015 0.253286 0)
(-0.255852 0.229341 0)
(-0.2756 0.204128 0)
(-0.0630174 0.349376 0)
(-0.0969589 0.341517 0)
(-0.129966 0.330369 0)
(-0.161722 0.316039 0)
(-0.191921 0.298666 0)
(-0.220271 0.278416 0)
(-0.2465 0.255485 0)
(-0.270355 0.230094 0)
(-0.291606 0.202486 0)
(0 0 0)
(0 0 0)
(0 0 0)
(0 0 0)
(0 0 0)
(0 0 0)
(0 0 0)
(0 0 0)
(0 0 0)
(0.00310251 0.0307336 0)
(-0.00146796 0.0311421 0)
(-0.00567508 0.0297539 0)
(-0.00882068 0.0267169 0)
(-0.010474 0.0225588 0)
(-0.0105302 0.0178762 0)
(-0.00912797 0.0130898 0)
(-0.00654047 0.00838861 0)
(-0.00485472 0.00593565 0)
(0.00542309 0.0605109 0)
(-0.00323006 0.0610719 0)
(-0.0111678 0.0584775 0)
(-0.0172227 0.0530172 0)
(-0.0206707 0.0455571 0)
(-0.0212978 0.0370697 0)
(-0.0192794 0.0282798 0)
(-0.0150053 0.0195391 0)
(-0.0122167 0.0149006 0)
(0.00697789 0.0889177 0)
(-0.00528544 0.089414 0)
(-0.0165034 0.0857768 0)
(-0.0252241 0.0784204 0)
(-0.0305377 0.0684275 0)
(-0.0321363 0.0569841 0)
(-0.0301752 0.0450041 0)
(-0.0250697 0.0329722 0)
(-0.0217559 0.0264061 0)
(0.00780966 0.116089 0)
(-0.00767309 0.11636 0)
(-0.0218121 0.111813 0)
(-0.033 0.102988 0)
(-0.0402246 0.0910846 0)
(-0.0431041 0.0773975 0)
(-0.0417537 0.0629605 0)
(-0.0365727 0.0483481 0)
(-0.033297 0.0401123 0)
(0.00792192 0.142138 0)
(-0.0104511 0.142077 0)
(-0.027219 0.136732 0)
(-0.0407153 0.126774 0)
(-0.0498811 0.113458 0)
(-0.0542834 0.0981224 0)
(-0.0539956 0.081861 0)
(-0.0493883 0.0653107 0)
(-0.0466746 0.0556439 0)
(0.00729194 0.167151 0)
(-0.0136912 0.166677 0)
(-0.0328515 0.160633 0)
(-0.0485283 0.149816 0)
(-0.059656 0.135486 0)
(-0.0657745 0.118986 0)
(-0.0669201 0.101438 0)
(-0.06344 0.0835098 0)
(-0.0617565 0.0726192 0)
(0.00586509 0.191201 0)
(-0.0174903 0.190245 0)
(-0.0388435 0.183603 0)
(-0.0565976 0.172138 0)
(-0.0697049 0.157107 0)
(-0.077695 0.139832 0)
(-0.0805786 0.121432 0)
(-0.0786863 0.102589 0)
(-0.0784393 0.0906353 0)
(0.00355547 0.214375 0)
(-0.0219605 0.212861 0)
(-0.0453437 0.20569 0)
(-0.0650881 0.193747 0)
(-0.0801883 0.178254 0)
(-0.0901825 0.160503 0)
(-0.0950609 0.141591 0)
(-0.0951426 0.122197 0)
(-0.0966753 0.109288 0)
(0.000239486 0.236696 0)
(-0.0272502 0.23457 0)
(-0.0525181 0.226921 0)
(-0.0741783 0.214619 0)
(-0.0912917 0.198852 0)
(-0.103414 0.180847 0)
(-0.110509 0.161664 0)
(-0.112892 0.141982 0)
(-0.116486 0.128162 0)
(-0.00426384 0.258164 0)
(-0.0335408 0.255372 0)
(-0.0605594 0.247269 0)
(-0.0840793 0.234712 0)
(-0.103235 0.218797 0)
(-0.1176 0.200677 0)
(-0.127118 0.181373 0)
(-0.13208 0.161551 0)
(-0.137971 0.146802 0)
(-0.0101989 0.278728 0)
(-0.0410714 0.275219 0)
(-0.0697176 0.266683 0)
(-0.0950421 0.253921 0)
(-0.116267 0.237927 0)
(-0.132991 0.219755 0)
(-0.14511 0.200363 0)
(-0.152905 0.180419 0)
(-0.161285 0.164614 0)
(-0.0179075 0.298265 0)
(-0.0501453 0.293955 0)
(-0.0802572 0.284964 0)
(-0.107318 0.271999 0)
(-0.130639 0.255944 0)
(-0.149826 0.237704 0)
(-0.164745 0.218153 0)
(-0.175623 0.197947 0)
(-0.18665 0.180818 0)
(-0.0277792 0.316402 0)
(-0.061071 0.311161 0)
(-0.0924434 0.301648 0)
(-0.12114 0.28844 0)
(-0.146572 0.272251 0)
(-0.168344 0.253845 0)
(-0.186289 0.233968 0)
(-0.200532 0.213224 0)
(-0.214353 0.194323 0)
(-0.0401464 0.332333 0)
(-0.0741048 0.326062 0)
(-0.106471 0.31594 0)
(-0.136658 0.302378 0)
(-0.16417 0.285891 0)
(-0.18864 0.267056 0)
(-0.209842 0.246474 0)
(-0.227777 0.224644 0)
(-0.244547 0.20324 0)
(-0.0549406 0.344079 0)
(-0.08896 0.336756 0)
(-0.121816 0.325971 0)
(-0.153097 0.311936 0)
(-0.182427 0.294927 0)
(-0.209487 0.275258 0)
(-0.234015 0.253286 0)
(-0.255852 0.229341 0)
(-0.2756 0.204128 0)
(-0.0630174 0.349376 0)
(-0.0969589 0.341517 0)
(-0.129966 0.330369 0)
(-0.161722 0.316039 0)
(-0.191921 0.298666 0)
(-0.220271 0.278416 0)
(-0.2465 0.255485 0)
(-0.270355 0.230094 0)
(-0.291606 0.202486 0)
(0 0 0)
(0 0 0)
(0 0 0)
(0 0 0)
(0 0 0)
(0 0 0)
(0 0 0)
(0 0 0)
(-0.00661345 0.00774097 0)
(-0.0100722 0.0106062 0)
(-0.0137629 0.0124329 0)
(-0.0176847 0.0130939 0)
(-0.0216984 0.012465 0)
(-0.0255289 0.0104941 0)
(-0.0287258 0.00726097 0)
(-0.0307356 0.00307267 0)
(-0.0156125 0.0178647 0)
(-0.0222681 0.0226725 0)
(-0.0293455 0.0254551 0)
(-0.0368014 0.0260285 0)
(-0.0443226 0.0242064 0)
(-0.0513469 0.0199433 0)
(-0.057056 0.0134557 0)
(-0.0605193 0.0053622 0)
(-0.0267268 0.0299179 0)
(-0.0362512 0.0357367 0)
(-0.0463595 0.0386647 0)
(-0.0569037 0.0384936 0)
(-0.0673777 0.0350169 0)
(-0.0769551 0.028246 0)
(-0.0845286 0.0185675 0)
(-0.088939 0.00688861 0)
(-0.0398093 0.0435841 0)
(-0.0518944 0.049551 0)
(-0.0646673 0.0518869 0)
(-0.0778536 0.0503928 0)
(-0.090747 0.0448807 0)
(-0.102285 0.035451 0)
(-0.111167 0.0226714 0)
(-0.116127 0.00769583 0)
(-0.0547224 0.0585378 0)
(-0.0690638 0.0638536 0)
(-0.084146 0.0649418 0)
(-0.0995305 0.0616277 0)
(-0.114322 0.0537676 0)
(-0.127281 0.0415761 0)
(-0.136994 0.0258004 0)
(-0.142195 0.00779053 0)
(-0.0713369 0.0744347 0)
(-0.0876514 0.0783833 0)
(-0.104681 0.0776429 0)
(-0.121825 0.0720805 0)
(-0.138026 0.0616256 0)
(-0.151916 0.0466164 0)
(-0.162049 0.0279585 0)
(-0.167228 0.00714868 0)
(-0.0895537 0.0909238 0)
(-0.107558 0.0928621 0)
(-0.126184 0.0897863 0)
(-0.144659 0.08162 0)
(-0.161798 0.0683783 0)
(-0.176174 0.0505283 0)
(-0.186376 0.0291114 0)
(-0.1913 0.00571727 0)
(-0.109307 0.107632 0)
(-0.128728 0.106994 0)
(-0.148588 0.101144 0)
(-0.167969 0.0900741 0)
(-0.185607 0.0739055 0)
(-0.200074 0.0532283 0)
(-0.210038 0.0291854 0)
(-0.214493 0.0034088 0)
(-0.130602 0.12417 0)
(-0.151147 0.120443 0)
(-0.171868 0.111438 0)
(-0.191736 0.0972241 0)
(-0.209447 0.0780389 0)
(-0.223627 0.0545794 0)
(-0.233042 0.02806 0)
(-0.236828 0.000103687 0)
(-0.153507 0.140095 0)
(-0.174868 0.132814 0)
(-0.196059 0.120322 0)
(-0.215963 0.102774 0)
(-0.23331 0.0805261 0)
(-0.246805 0.0543724 0)
(-0.255355 0.0255516 0)
(-0.258299 -0.00438067 0)
(-0.178148 0.154826 0)
(-0.199987 0.143572 0)
(-0.221203 0.127302 0)
(-0.240655 0.106291 0)
(-0.257135 0.0810007 0)
(-0.269512 0.0523007 0)
(-0.27691 0.0213924 0)
(-0.278861 -0.0102903 0)
(-0.204681 0.167527 0)
(-0.226587 0.15192 0)
(-0.247293 0.131654 0)
(-0.265704 0.107134 0)
(-0.28078 0.0789274 0)
(-0.291627 0.047911 0)
(-0.297592 0.0151933 0)
(-0.298376 -0.017967 0)
(-0.233304 0.177009 0)
(-0.254699 0.156711 0)
(-0.274206 0.132337 0)
(-0.290895 0.104412 0)
(-0.303985 0.0735494 0)
(-0.312848 0.0405768 0)
(-0.317065 0.00644863 0)
(-0.31648 -0.0278081 0)
(-0.263961 0.181321 0)
(-0.283961 0.156156 0)
(-0.301336 0.127859 0)
(-0.315481 0.0969558 0)
(-0.325934 0.0639984 0)
(-0.332343 0.0296675 0)
(-0.334505 -0.00530198 0)
(-0.332374 -0.0401516 0)
(-0.294575 0.177163 0)
(-0.311793 0.147784 0)
(-0.325945 0.116452 0)
(-0.336784 0.0835591 0)
(-0.344119 0.0495169 0)
(-0.347813 0.0147721 0)
(-0.347801 -0.0202058 0)
(-0.34409 -0.0549405 0)
(-0.310049 0.172929 0)
(-0.325506 0.141706 0)
(-0.337828 0.109118 0)
(-0.346897 0.0754799 0)
(-0.352625 0.0411146 0)
(-0.354957 0.00635332 0)
(-0.353871 -0.0284692 0)
(-0.349376 -0.0630174 0)
(0 0 0)
(0 0 0)
(0 0 0)
(0 0 0)
(0 0 0)
(0 0 0)
(0 0 0)
(0 0 0)
(-0.00661345 0.00774097 0)
(-0.0100722 0.0106062 0)
(-0.0137629 0.0124329 0)
(-0.0176847 0.0130939 0)
(-0.0216984 0.012465 0)
(-0.0255289 0.0104941 0)
(-0.0287258 0.00726097 0)
(-0.0307356 0.00307267 0)
(-0.0156125 0.0178647 0)
(-0.0222681 0.0226725 0)
(-0.0293455 0.0254551 0)
(-0.0368014 0.0260285 0)
(-0.0443226 0.0242064 0)
(-0.0513469 0.0199433 0)
(-0.057056 0.0134557 0)
(-0.0605193 0.0053622 0)
(-0.0267268 0.0299179 0)
(-0.0362512 0.0357367 0)
(-0.0463595 0.0386647 0)
(-0.0569037 0.0384936 0)
(-0.0673777 0.0350169 0)
(-0.0769551 0.028246 0)
(-0.0845286 0.0185675 0)
(-0.088939 0.00688861 0)
(-0.0398093 0.0435841 0)
(-0.0518944 0.049551 0)
(-0.0646673 0.0518869 0)
(-0.0778536 0.0503928 0)
(-0.090747 0.0448807 0)
(-0.102285 0.035451 0)
(-0.111167 0.0226714 0)
(-0.116127 0.00769583 0)
(-0.0547224 0.0585378 0)
(-0.0690638 0.0638536 0)
(-0.084146 0.0649418 0)
(-0.0995305 0.0616277 0)
(-0.114322 0.0537676 0)
(-0.127281 0.0415761 0)
(-0.136994 0.0258004 0)
(-0.142195 0.00779053 0)
(-0.0713369 0.0744347 0)
(-0.0876514 0.0783833 0)
(-0.104681 0.0776429 0)
(-0.121825 0.0720805 0)
(-0.138026 0.0616256 0)
(-0.151916 0.0466164 0)
(-0.162049 0.0279585 0)
(-0.167228 0.00714868 0)
(-0.0895537 0.0909238 0)
(-0.107558 0.0928621 0)
(-0.126184 0.0897863 0)
(-0.144659 0.08162 0)
(-0.161798 0.0683783 0)
(-0.176174 0.0505283 0)
(-0.186376 0.0291114 0)
(-0.1913 0.00571727 0)
(-0.109307 0.107632 0)
(-0.128728 0.106994 0)
(-0.148588 0.101144 0)
(-0.167969 0.0900741 0)
(-0.185607 0.0739055 0)
(-0.200074 0.0532283 0)
(-0.210038 0.0291854 0)
(-0.214493 0.0034088 0)
(-0.130602 0.12417 0)
(-0.151147 0.120443 0)
(-0.171868 0.111438 0)
(-0.191736 0.0972241 0)
(-0.209447 0.0780389 0)
(-0.223627 0.0545794 0)
(-0.233042 0.02806 0)
(-0.236828 0.000103687 0)
(-0.153507 0.140095 0)
(-0.174868 0.132814 0)
(-0.196059 0.120322 0)
(-0.215963 0.102774 0)
(-0.23331 0.0805261 0)
(-0.246805 0.0543724 0)
(-0.255355 0.0255516 0)
(-0.258299 -0.00438067 0)
(-0.178148 0.154826 0)
(-0.199987 0.143572 0)
(-0.221203 0.127302 0)
(-0.240655 0.106291 0)
(-0.257135 0.0810007 0)
(-0.269512 0.0523007 0)
(-0.27691 0.0213924 0)
(-0.278861 -0.0102903 0)
(-0.204681 0.167527 0)
(-0.226587 0.15192 0)
(-0.247293 0.131654 0)
(-0.265704 0.107134 0)
(-0.28078 0.0789274 0)
(-0.291627 0.047911 0)
(-0.297592 0.0151933 0)
(-0.298376 -0.017967 0)
(-0.233304 0.177009 0)
(-0.254699 0.156711 0)
(-0.274206 0.132337 0)
(-0.290895 0.104412 0)
(-0.303985 0.0735494 0)
(-0.312848 0.0405768 0)
(-0.317065 0.00644863 0)
(-0.31648 -0.0278081 0)
(-0.263961 0.181321 0)
(-0.283961 0.156156 0)
(-0.301336 0.127859 0)
(-0.315481 0.0969558 0)
(-0.325934 0.0639984 0)
(-0.332343 0.0296675 0)
(-0.334505 -0.00530198 0)
(-0.332374 -0.0401516 0)
(-0.294575 0.177163 0)
(-0.311793 0.147784 0)
(-0.325945 0.116452 0)
(-0.336784 0.0835591 0)
(-0.344119 0.0495169 0)
(-0.347813 0.0147721 0)
(-0.347801 -0.0202058 0)
(-0.34409 -0.0549405 0)
(-0.310049 0.172929 0)
(-0.325506 0.141706 0)
(-0.337828 0.109118 0)
(-0.346897 0.0754799 0)
(-0.352625 0.0411146 0)
(-0.354957 0.00635332 0)
(-0.353871 -0.0284692 0)
(-0.349376 -0.0630174 0)
)
;

boundaryField
{
    walls
    {
        type            fixedValue;
        value           uniform (0 0 0);
    }
    cylinder
    {
        type            solidBodyMotionDisplacement;
        value           nonuniform List<vector> 
34
(
(-0.0630174 0.349376 0)
(-0.0630174 0.349376 0)
(-0.0969589 0.341517 0)
(-0.0969589 0.341517 0)
(-0.129966 0.330369 0)
(-0.129966 0.330369 0)
(-0.161722 0.316039 0)
(-0.161722 0.316039 0)
(-0.191921 0.298666 0)
(-0.191921 0.298666 0)
(-0.220271 0.278416 0)
(-0.220271 0.278416 0)
(-0.2465 0.255485 0)
(-0.2465 0.255485 0)
(-0.270355 0.230094 0)
(-0.270355 0.230094 0)
(-0.291606 0.202486 0)
(-0.291606 0.202486 0)
(-0.310049 0.172929 0)
(-0.310049 0.172929 0)
(-0.325506 0.141706 0)
(-0.325506 0.141706 0)
(-0.337828 0.109118 0)
(-0.337828 0.109118 0)
(-0.346897 0.0754799 0)
(-0.346897 0.0754799 0)
(-0.352625 0.0411146 0)
(-0.352625 0.0411146 0)
(-0.354957 0.00635332 0)
(-0.354957 0.00635332 0)
(-0.353871 -0.0284692 0)
(-0.353871 -0.0284692 0)
(-0.349376 -0.0630174 0)
(-0.349376 -0.0630174 0)
)
;
        solidBodyMotionFunction oscillatingRotatingMotion;
        oscillatingRotatingMotionCoeffs
        {
            origin          ( 0 0 0 );
            axis            ( 0 0 1 );
            omega           1.5;
            amplitude       ( 0 0 30 );
        }
    }
    outlet
    {
        type            fixedValue;
        value           uniform (0 0 0);
    }
    inlet
    {
        type            fixedValue;
        value           nonuniform List<vector> 0();
    }
    frontAndBack
    {
        type            empty;
    }
    procBoundary3to1
    {
        type            processor;
    }
    procBoundary3to2
    {
        type            processor;
    }
}


// ************************************************************************* //
