/*--------------------------------*- C++ -*----------------------------------*\
| =========                 |                                                 |
| \\      /  F ield         | OpenFOAM: The Open Source CFD Toolbox           |
|  \\    /   O peration     | Version:  2412                                  |
|   \\  /    A nd           | Website:  www.openfoam.com                      |
|    \\/     M anipulation  |                                                 |
\*---------------------------------------------------------------------------*/
FoamFile
{
    version     2.0;
    format      ascii;
    arch        "LSB;label=32;scalar=64";
    class       volScalarField;
    location    "1004";
    object      p;
}
// * * * * * * * * * * * * * * * * * * * * * * * * * * * * * * * * * * * * * //

dimensions      [0 2 -2 0 0 0 0];

internalField   nonuniform List<scalar> 
808
(
-0.03437519004412561
0.04412892278257861
-0.01115945410918889
0.03657694452014577
-0.2990329008471759
-0.05551520521097992
-0.01543237227948987
-0.02414940802364478
-0.1968803299158557
-0.08401952795736935
-0.01063621903311593
-0.2540049035611366
-0.03070198804416656
-0.01383971019920455
-0.1207678218616232
-0.01421583383507315
-0.1373553009245903
-0.01372823075157436
-0.01247749146978517
-0.0556360818509298
-0.007408558362381441
0.1173007694675276
-0.06251195637220211
-0.0717530192948716
0.1753114619967707
-0.1002425948593764
-0.1525075265713561
-0.0204211564706013
-0.01751014082098427
-0.02563164264126425
-0.02033383302416043
-0.0584640538556356
-0.02273897118748395
-0.01688641204245866
-0.09973751330285917
0.3444064193519837
-0.03958742287860075
-0.01641423130999514
-0.02274135089362066
-0.02648592462876261
-0.09045977484715027
-0.1267831472725454
-0.0521625642335585
-0.02132911723511214
-0.05425357208492576
-0.04156146311066417
-0.01198508904280742
-0.1845559802873413
-0.02690954974158762
-0.2042090815913236
-0.01704585468487343
-0.06730066319023621
-0.06100878305029717
-0.01440165941427877
-0.1936997214797149
-0.02818932511305961
-0.0105451932207449
-0.01412428855258617
-0.1004380930974455
-0.0396488243245406
-0.1108083340703213
-0.1260714640748261
-0.01424014201564585
-0.1294672995160883
-0.01755353658215968
-0.05194829191730801
-0.1652597871724822
-0.03544361567829993
-0.01520062624431762
-0.4404680197550763
-0.02638611091768932
-0.3014668629678998
-0.02154390191511535
-0.02108624789193149
-0.06508380996174833
-0.01794111477750597
-0.0424342666660533
-0.3627920296082652
-0.03632814432222298
0.04023134722799066
-0.09144610097904976
-0.01691083581655094
0.05715156893324654
0.04484559527830411
-0.01724889798916142
-0.05215506017666252
-0.5417217129993038
-0.2265535243910458
-0.05210723993797936
-0.1127374701400139
-0.05659045582662846
-0.1327991570304
0.03918796366977419
-0.02556569659574037
-0.0620934932229879
-0.1215317377629028
-0.03828557542200123
-0.05192191521493593
-0.1163491762480044
-0.1402736390411826
-0.0529250724141286
-0.04722969153525426
-0.05435985238010577
-0.0446997346041404
-0.05729571279713877
-0.07479969985969499
-0.03997812715179702
-0.01072880976083136
-0.04012612120002326
-0.1240836795363188
-0.05023401214784504
0.0820758878451024
-0.04224743247282244
-0.007586154706705712
-0.02758951527137915
0.1805386024382231
-0.0387184867018057
-0.2684447781673112
-0.02074010425867596
-0.05353603677817174
-0.03923908972320685
-0.04907843652754447
0.01356830299466912
-0.04866737354715794
-0.03576237774950813
-0.2176368899354828
-0.04123205814194484
-0.004343559124911914
-0.07592171599096731
-0.06907609757621549
-0.1522973868881736
-0.02129915761778497
-0.07526921089522368
-0.04305814376852032
-0.02305581344803162
-0.01553003748368739
-0.006024662332318621
-0.007621858822340937
-0.05226268034659132
-0.0496840765151464
-0.2112061009201468
-0.05655033694486258
-0.008281717516891952
-0.02212453129272766
-0.1476386266445459
-0.002041609470493845
-0.0762985623909523
-0.02215004364466918
-0.0003258158538737788
-0.01010110668024116
-0.03316931141883223
0.09412198698468141
-0.03863581331181051
0.251983838806624
-0.259085648417402
-0.1327173064264836
-0.03788791011912167
-0.09089041293903488
-0.008992484095371527
-0.113766270742393
-0.1724253163745187
-0.213115268587217
-0.181302690783721
0.05638675931423256
-0.06326288625855236
-0.02057155792671788
-0.06680830153076391
-0.1740995223411458
-0.02327627903705772
-0.01881325125142427
-0.05193266579022726
-0.01978720086223493
-0.007022359298384261
-0.1080349188541986
-0.02346662755759659
-0.04515798656888482
-0.07035735470780756
-0.1614190613963257
-0.03322336371382665
-0.388146310448439
-0.01790347966285347
-0.2258802685593931
-0.0442135049659813
0.03197997400442118
-0.1054137818652931
-0.01580936848762161
-0.04285694435884441
-0.1053905546832093
-0.01789952359373903
-0.09620454388121448
-0.2031781443013319
-0.071926950969896
-0.02413424175758337
-0.04820677871124721
-0.0426629857839462
-0.2011244512349317
-0.02234633863918984
-0.01928832784571309
-0.01130690530003035
-0.05649406984831378
-0.05065560027924854
-0.02270088157613961
-0.02062245284890595
-0.2375255728736112
0.1272861694644444
-0.204893019235035
-0.1957177001590597
-0.01171826762062668
-0.01138418418935812
-0.06687701394376652
-0.009941517279080266
-0.4984603214508031
-0.127573724169368
-0.01954624495541556
-0.001257485040178653
-0.02383706577864689
-0.2805677488935603
-0.277296838386903
-0.007515345963367376
-0.01796417309390014
-0.002169239865741358
-0.3481428878841514
-0.02856575289733863
-0.02939460774884174
-0.01266179675133011
-0.01950514245391078
0.04936387805414366
-0.1231226099848572
-0.01403916540339288
-0.02089572433378819
-0.04463968604900447
-0.01837636834391245
-0.01638495143115492
-0.02349008897180995
-0.06763258745371981
-0.01127604110126389
-0.01893562590259281
-0.008895843396962994
-0.001337735968464382
-0.02936174387146267
-0.001969156357463566
-0.002048581114899169
-0.005860431048503631
-0.02551598332455454
-0.008114686627042433
0.001656349070328999
-0.004096540998335836
0.001188529643993716
0.002331470683222134
-0.008677404075372971
-0.1317143349645593
-0.002952290356658709
-0.0002287690243800171
-0.04750680727062857
-0.02137783715581244
-0.02405506748198811
-0.01408522596253291
-0.006166264933261203
-0.02112179890725328
-0.03918142278326048
-0.0149427776072048
-0.01262493491034242
-0.01177693732161924
0.005845023569050523
-0.009735347319392735
-0.01309423942973537
-0.01132488046773462
-0.0101966645585801
-0.01006753165351094
-0.01093630226348114
-0.0137033751263516
-0.2963289102073133
0.05966053708349028
-0.01512121888751252
-0.01612194222048047
-0.01251790693713781
-0.01252098378056647
-0.008311502733167976
-0.09964567796702753
0.01100100218029878
-0.01437729836119067
-0.01412506668537739
-0.01069531778060656
-0.0518703645559403
-0.00827013551390509
-0.01397501326983035
-0.009504965550167587
-0.002378161083473193
-0.01078622025259011
-0.01050514434218909
-0.0244338926245059
-0.01584878454910817
-0.01238041272407605
-0.01336891522769418
-0.00978279747796602
-0.01326297133354869
-0.01091989328775903
-0.05901193994178915
-0.01317643003146725
-0.0121827140936711
-0.009050182631296312
-0.01531471586146625
-0.01414750084151444
-0.01573240691512627
-1.372930216119213
-0.09979466735040982
-0.01192736483191535
0.02315694735465532
-0.1634235019847245
-0.09399793898482746
-0.01184625596931978
-0.01425312653722143
-0.2471051950761707
-0.02930970688983034
-0.01889821253420553
-0.01195963419577845
-0.02038855029975091
-0.01105250879868183
-0.03076238435506045
-0.4111857602684186
-0.01201128329355018
-0.01408050048768614
-0.004547508101542432
-0.01055154830997274
-0.009220791242221008
-0.01400024722351207
-0.008924778573659689
-0.02712173787265013
-0.01157812370831964
-0.1663725437335511
0.01934517493431282
-0.007496784745778964
0.00356099277988817
0.01201376611293927
-0.04853924496862694
0.02837378971094089
-0.01276796960268794
-0.1343930450981878
0.2824269962434829
-0.008025090077931247
-0.01334727541394956
-0.008080710135211361
-0.03349753703974714
-0.1246435519503064
-0.01340512076283024
-0.01207515366564826
-0.01764100908179656
-0.01354369356790174
-0.04154632663734907
-0.2179148449918845
-0.01000843050153228
-0.04286016120621799
-0.03880868256243775
-0.1752019113521132
-0.1549620406034976
-0.1554389086129355
-0.2473439887210572
-0.00393078400511863
-0.02086038324471514
-0.01547531349536577
-0.01382065227516358
-0.03352786709185326
-0.02446260795966558
-0.01410013213625455
-0.01498138759101801
-1.075067510519613
-0.003064529065120467
-0.01355653215503985
-0.01810102052151927
-0.01815940284639986
0.00573184955984784
-0.01402124970642386
-0.0263649470168198
-0.1616158280368109
-0.01360073204799628
-0.02115210659667582
-0.01452828686835466
0.001876997888641564
-0.177860360544542
-0.01285792579767758
-0.1541246082401838
-0.01556201544620481
0.008303293512256119
-0.01405504779400639
-0.02398681502520831
-0.01636362640356519
0.006953334581932862
-0.2697348254026479
-0.02645443298131873
-0.01683337410947454
-0.01515697080838356
-0.01060679412636536
-0.02971433639603374
-0.01388267523956933
-0.02107037365419919
-0.02070922453601789
0.008116366497503484
-0.09899749748886097
-0.02144382034112636
0.009523659042606897
-0.05514985376290991
0.1718525248240823
-0.1052226560940671
-0.3191375393214847
-0.02940821292621901
-0.02584818593570179
0.1500959223824538
0.0960911761258466
-0.003603230514774458
0.05289814517662567
-0.01535001113736225
-0.01363317070672636
0.002585813974817786
0.009397120120604476
-0.06571270295539061
-0.004475118658943312
-0.05651316649883966
-0.02316086845230748
-0.01567838761837635
-0.03650518232889504
-0.03293503706701608
-0.00668737918175923
-0.01457510396044149
-0.03776184157525258
0.0320252918024345
-0.03868251139733423
-0.01370675946563746
-0.1185322301368389
-0.03109511554065794
-0.0396040167004922
-0.6726982340631891
0.01373831154570578
-0.01091574824267018
-0.005448614118043531
0.1827307976645601
-0.09732460728916734
-0.03578088410842158
-0.2441440123311979
-0.01546251435681037
-0.01620123791416279
0.0710565987801032
-0.1827477045568277
-0.2275071408724071
-0.1894391263947549
-0.6806150622552601
0.01159383084463618
-0.01822690701027496
-0.01525838028612553
-0.09271587111237384
0.1182349386495197
-0.02199938562288481
-0.2474249136032293
-0.03598299355699235
-0.006830500448511749
0.2775950596607375
-0.01089560338377246
-0.09209485015664434
-0.1514711255252139
-0.004987022841086541
-0.04139604034635223
-0.04550525635622563
-0.1978755487250461
-0.00822133238788959
-0.04077843956700886
-0.003551749353107869
-0.5473150598581022
-0.1967015981961867
-0.1775396252468442
-0.0234749264025177
-0.008517289275926867
-0.06143001813803647
-0.05709868331946698
-0.01622199111722803
-0.06898084291417256
0.003770726710837392
-0.01777747308903763
-0.09560882085235357
-0.2736833591643998
-0.009636749966501271
-0.02509737291878676
-0.02149570887823942
-0.07574785762352311
-0.08982947856983668
-0.0891767663527035
-0.01115121157637047
-0.9145671417841172
0.1613816234163085
-0.08274680174906122
-0.253477626838328
-0.04176037213476209
-0.009393309280806804
-0.246365907751579
-0.1911687942813478
-0.03183092633315254
-0.1163482287975813
-0.0176742104002268
0.5623871867766324
-0.02487233953192588
-0.2171227339320604
-0.02540355345339706
-0.00395193947152527
-0.01105806779219836
-1.250787845045409
-0.183114765059896
-0.2298102668774886
0.005318469853452164
-0.03866591106027599
-0.2384779468623707
-0.0666306064462719
-0.05187386395078333
-0.1443276547297615
-0.186611571718091
-0.069330528162057
-1.221200869494785
-0.156791482254096
-0.5346211444301988
0.07927947129604093
-0.006630621517507634
-0.02128649971446808
-0.04404716385032633
-0.03916926734697505
-0.02793597943528556
-0.1312413512583223
0.08073114349288864
-0.004456858140198179
-0.009776667279350107
-0.5677241669036751
-0.8546518790102684
-0.1794793602111669
-0.007587373574322153
-0.1254240516594393
0.0007130449100445139
-0.0008334639279721795
-0.002787419746392657
-0.06141380537958348
-0.2356554622321638
-0.01338845491860614
-0.1131258216093782
-0.1552826844487404
-0.01313219844838086
-0.03490450463261496
0.02621972134022258
-0.05842598185406603
-0.07135436611989594
-0.4963120739010706
-0.2395404957876215
-0.08040948459465931
-0.0745053860466852
-0.01945404483121232
-0.1125092320153118
-0.1635139379549289
-0.08109983660274643
0.0271992330747848
-0.086343165082547
-0.0496562417842107
-0.01495200537437434
-0.1151126529240797
-0.2784340932171091
-0.05860176751525381
-0.01815437456170861
0.002022016392987756
-0.01021474996827356
-0.01069120987168855
-0.2322638531409309
-0.01410055645790103
-0.2191556724177769
-0.01078712546203284
-0.06846451047764045
-0.003837074530629063
-0.02323594715272743
-0.3876589971162718
-0.9208675466660793
-0.01124874314261282
-1.045298655176732
-0.6057307138874279
-0.01070095072087669
-0.6560707035660202
-0.1831412666171556
-0.004927888489161495
-0.1255558016997966
-0.01723261446715646
-0.1240082509538945
-0.06589417205660859
-0.07664661284352781
-0.005566886617441771
-0.00359104863240439
-1.339500124979981
-0.01124036376192761
-0.1903308837172304
0.0008961505943029925
-1.011300219610945
-1.241226521091116
-0.07969851145424053
0.01796166534270334
0.1644544981201075
-0.004967708093442958
-0.02295853900916318
-0.00436122623359505
-0.2425321029678158
0.3657329991047342
-0.04192440658284177
-0.2128647328643874
-0.01526089496123369
-0.65608029845132
-0.07337740648812786
0.1900924803583753
-0.2982747485824183
-0.0506662707923695
-0.06996021785527141
-0.01581108073428234
-0.0214647194103675
-0.5874421166074892
-0.151158270862966
-0.09337628300049103
-0.1204522267271496
-0.5538319056837439
-0.04516747623832585
-0.906454830091671
-0.0009432551021081747
-0.2418915993099209
-1.049296257601893
0.1687849274901451
0.2913581812016269
-0.1719907178661001
-0.1912664207083218
-0.210088494501226
-0.06696645323133017
0.02530497472864253
0.04881542156435241
0.005152853322598377
-0.1549341219270832
0.02576877669543494
-1.360409509637655
-0.08662499981652873
-0.4765564551504697
-0.3320979983168194
-0.2153214439475992
-0.1786685857357604
-0.01697446133496492
-0.01537259719015681
-0.09546413277471841
0.171586876304929
0.3851394683165493
-0.2166709645865133
-0.153393414878227
-0.2316002247705107
-0.06337760864560633
-0.1607225548224068
-0.1699797203443939
-0.1270001480874048
-0.111712052195308
0.4663935448539057
-0.2788138488500156
0.4307882840854734
-0.5932698971859207
0.07186768768931893
-0.1934671802026353
-0.06741191760009581
-0.07614023218403097
-0.8873515654928927
-0.2210773211404032
-0.1912828647456724
-0.352079834945229
-0.4631175395394045
0.5700382447028277
-0.2087117623817357
0.001608418557832267
-0.06893549216704713
0.3437667883658617
-0.03601664635842027
-0.1197094355335482
-0.180416860415843
-0.06466164793587532
-0.01636329000594256
-0.1961799572094487
0.1933483891359447
-0.01258134869916086
-0.09798010051072083
-0.173288586941327
-0.3150404259384825
-0.310317316436542
-0.07932777736667963
-0.009789281847631004
-0.07632728458491653
-0.6543033661293075
-0.6702136510331669
-0.3289281018563485
-0.05883084710203774
-0.05053105818965635
-0.02467350290937972
-0.06932018182733042
-0.05615039143369371
-0.3651174207568451
-0.9586767665465117
-0.008843495340122754
-0.08459481959617414
-1.140715116914672
-1.037400573270347
-0.1059474304606312
-0.04040370094765889
-0.06873518421233685
0.3902168851967054
-0.3419258512851017
-0.05236395661484006
-0.6018341686932154
-0.1345803737565917
-0.2505195256989091
-0.2119426557388879
0.4738769422831889
-0.6327727922758714
0.0740762558108258
-0.02875107597655098
-0.5651325547003012
-0.053330174405768
-0.3626644545679143
0.107798834000308
-0.1923918082627822
-0.06103084901503681
-0.1276728790435532
-0.3608505409676968
-0.08722133238640244
0.5141597474924585
0.08621187090890034
0.470638721171365
-0.1244323426471048
-0.204162428302288
-0.5136152798470728
-0.1322239030851986
0.02529355628248822
-0.05494549594567322
0.1015540635602898
-0.3073239276550584
0.2362742892641653
0.006959665633071987
-0.002780702981489652
-0.5109227064274727
-0.1834190936414704
-0.09909376484686315
0.5810632401442528
0.1390320164313698
0.345855768665685
0.2253387685946973
-0.5633636463119396
-0.2143208767149512
-0.2186343926214725
-0.2335089667581363
-0.06167680095408311
-0.6912746478629384
-0.1926940026051746
0.3054880911582279
-0.2087384060930662
-0.01109905755118515
-0.1663880903331595
-0.01097473083008742
-0.1671452607568465
-0.4426359248477098
-0.07693984235749944
-0.2026369149056004
-0.07520344500155329
-0.1079818446890058
-0.1349003270583589
-0.07315130018426087
-0.4449013304764073
-0.4133547934426419
-0.02564300555124292
-0.07633966724036226
0.3269972441377215
-0.2502794208100532
-0.1753177719175029
0.5252822173877285
-0.1973720442562586
0.01913204591255691
-0.4527658569438769
0.04674525995990687
-0.06060369877717055
-0.1577650358635779
-0.588188091888036
0.1609991960408745
-0.5783390249234884
-0.5377310005464803
-0.1043740470667246
-0.5097041617792212
-0.03647784262193106
-0.1529419977135767
-0.4116229314175566
-0.01618048717852377
0.2869253650167044
0.4895062834206426
-0.1646916781766532
-0.006780447621382692
-0.07639946345418903
0.525157640728269
-0.03252789315667627
-0.4430544221698259
-0.03194678324045194
0.460569110923216
-0.01641471837547617
-0.5473891196544433
-0.2397023385565536
0.1766257160207945
-0.3133490044206904
-0.1807334525284654
0.0504450767049773
0.0321552891633002
0.05545565225405037
-0.3024392978755163
-0.1578900519861288
0.4127320225785253
)
;

boundaryField
{
    FrontBack
    {
        type            empty;
    }
    Top
    {
        type            zeroGradient;
    }
    In
    {
        type            zeroGradient;
    }
    Bottom
    {
        type            zeroGradient;
    }
    Out
    {
        type            fixedValue;
        value           uniform 0;
    }
    circle
    {
        type            zeroGradient;
    }
}


// ************************************************************************* //
