/*--------------------------------*- C++ -*----------------------------------*\
| =========                 |                                                 |
| \\      /  F ield         | OpenFOAM: The Open Source CFD Toolbox           |
|  \\    /   O peration     | Version:  2412                                  |
|   \\  /    A nd           | Website:  www.openfoam.com                      |
|    \\/     M anipulation  |                                                 |
\*---------------------------------------------------------------------------*/
FoamFile
{
    version     2.0;
    format      ascii;
    arch        "LSB;label=32;scalar=64";
    class       volVectorField;
    location    "1004";
    object      U;
}
// * * * * * * * * * * * * * * * * * * * * * * * * * * * * * * * * * * * * * //

dimensions      [0 1 -1 0 0 0 0];

internalField   nonuniform List<vector> 
808
(
(0.7562602702444038 -0.01750215996477414 0)
(1.031538928114177 -0.01262677831115699 0)
(1.111441407648753 -0.006506070520916558 -1.738544632239849e-20)
(1.085120246588058 0.01260190244537968 0)
(1.36433595682635 0.0143923882339988 -3.863302369437299e-19)
(1.038749581320777 -0.009371201809417359 -7.276417257478125e-20)
(1.014109825788661 -0.02112290937811623 -2.40360176934206e-20)
(1.079133775495397 -0.005415472353043496 9.061024689944832e-21)
(1.254806064401733 -0.02036407082916053 6.31145347350849e-20)
(1.085112765734862 0.01023657526508946 0)
(1.009681122947071 -0.007829591998405111 0)
(1.306440890265699 -0.05349295637443981 -3.512569820183229e-19)
(1.086261224394774 -0.00201254093457142 2.043762940990771e-20)
(0.675196440591999 0.006365796169283955 0)
(1.278558048741552 -0.1145092470127087 0)
(1.081511013264286 -0.0002929617754384124 -3.860587788881198e-20)
(1.225903308713706 -0.1433503923150386 -9.509657912627871e-20)
(1.073968890600745 -0.0001474066506570382 3.202386099025869e-20)
(0.9907176818901875 0.003531330026421375 0)
(1.026361666382392 0.009689291082094953 0)
(1.033539377126194 -0.0106940998298957 0)
(0.9875207579617704 0.04466403852991211 0)
(1.051122547928068 -0.005930101517338336 5.67667820691297e-20)
(1.05362517096568 0.009241991426585223 0)
(0.9327815338410732 0.1972906117476403 4.591260504872866e-19)
(1.164683478997488 -0.08455636789663679 0)
(1.186135872331509 -0.01884794519981742 1.565945063142721e-19)
(1.077381436545118 0.009554420056464018 5.216343894577667e-20)
(1.083656784705967 0.002302592817390963 5.097653891694958e-21)
(1.071768357474123 0.03088205946841628 0)
(1.075312187169536 0.002816880090098529 -1.179173479714137e-20)
(1.033062781347846 0.006864188645910325 -1.921386288496878e-19)
(1.059997504754829 0.01466391373859937 -2.362167500983734e-20)
(1.088961881751986 0.005610982087127626 -2.93665661268414e-20)
(1.121012089460325 0.0391298463214677 0)
(0.7550623177676982 -0.123682416740435 -4.540862767852829e-19)
(0.9548086629702347 -0.005869021553696511 0)
(1.068789219631629 0.0222374488353712 0)
(1.068802632821257 0.007296236779489328 0)
(1.073729498803519 0.008898550193872645 -2.828009449899721e-20)
(1.092722952391236 0.02460514636199656 1.100079858581658e-19)
(1.151069436168455 0.003507207611400952 2.155644689043314e-19)
(1.096003028042844 -0.002258624776113792 0)
(1.0154203093925 -0.009109122375466914 0)
(1.133196083209052 -0.09335504128108656 -1.627088755266735e-19)
(1.044093321086507 -0.01160170838091615 -8.169271191315905e-20)
(1.058118386338891 0.02662282961527267 -2.728570252909977e-20)
(1.231517755305424 -0.1123369397037556 -5.58925594393263e-20)
(1.067550278393204 0.01206028885246399 -4.158559670541299e-20)
(1.25845471150595 0.01711504483573993 0)
(0.9964990702966758 -0.01920167198227342 2.187235321162193e-21)
(1.044720242751536 -0.001897406668032957 0)
(1.087606564953975 -0.002064184989722805 0)
(0.9994684977397862 0.007142158079448975 -1.845817130634703e-20)
(1.250443965859186 0.03404357692076444 -2.35544043723661e-19)
(1.063496857968819 0.01807616673925646 5.999052206298491e-20)
(0.9920599944590186 0.01035314146282531 0)
(1.018799676823458 -0.006577341786332891 2.436190224360869e-20)
(1.107598031943694 -0.0003771023545063846 -1.180307584012823e-19)
(1.06108491747242 0.03107443782985838 0)
(-0.08881320023582696 0.009083889473122095 7.549279646424249e-20)
(1.155118998274527 -0.05187806556082065 -1.886308255173874e-19)
(1.006861865403173 -0.006052585624534607 -2.675620223191743e-20)
(1.186910842764698 0.0695852628152058 -1.225808192138794e-19)
(0.9977097248654971 -0.009309886476585736 3.074828484078492e-20)
(1.084330422931927 -0.005475506677586978 0)
(1.248955160491152 0.09725380437483631 0)
(0.6960820203303915 0.003183978058343213 -7.445162383404524e-20)
(0.9887769262193536 -0.01359544874190845 -3.203757141466135e-20)
(1.460732198768308 -0.01876188755822032 4.449292786998505e-19)
(1.060473430990753 0.007610832286819311 -6.64688626368104e-20)
(1.368716789705789 0.09567893549361821 2.878241398882921e-19)
(1.054795002112886 0.006877184059570958 -1.949631148961703e-22)
(1.081100567657938 -0.01385881967910206 -3.207181586711307e-22)
(1.165112006295912 -0.236437332543723 0)
(1.021744775215454 -0.0148949229348293 0)
(1.016964976174091 0.01790192967405304 -3.064241425513659e-20)
(1.385565087627367 0.3484459859888696 4.184045389454919e-19)
(1.097297379741875 -0.04247468330797412 9.504065376824692e-20)
(1.045521232786598 0.209399856328671 2.483806196799356e-19)
(1.124761149975818 -0.06016231003973709 1.164425728386019e-19)
(0.9219379304215851 0.00513892800278662 0)
(0.9753389192495671 0.01850762668332556 0)
(1.004087756201627 -0.04883627993414328 2.88353702314596e-21)
(1.00985297512435 -0.01330330635047671 7.734281628408329e-21)
(1.029895884067907 0.02674822426149695 1.377396146393879e-20)
(1.529994004692407 0.0352121085205134 3.246100341423542e-19)
(1.288893505485461 0.07110997549518883 5.557739850032144e-19)
(1.072311982880396 0.003116419236298051 -9.04247908303278e-20)
(1.196948727265042 -0.0924506672356213 0)
(1.033731467967177 0.001930313824344632 1.320865937126436e-19)
(1.165304611442268 0.02220642300162858 -3.186920585736857e-19)
(1.001450191454063 0.03238483611905453 0)
(0.9996260186922243 0.002031529757778252 0)
(1.044451185760531 7.104353671351218e-05 7.872210503389074e-20)
(1.215027867223795 0.1113863424218249 4.142540863657415e-19)
(1.011095039277952 0.006990370978279639 0)
(1.09203232410772 -0.06838364723041261 -1.058095718701866e-19)
(1.151052765982288 0.03779929566889415 0)
(1.215287197454575 0.09553298863695764 -1.945151453076175e-19)
(1.108203760554746 -0.02882054449021455 -7.76195519368576e-20)
(1.027229550015952 0.01185006659993196 0)
(1.085009961324729 -0.004602410640116694 0)
(1.018900645085495 0.02623995308699734 7.995897820453601e-20)
(1.071801138239095 0.05608034993778863 -9.618304338449504e-21)
(1.103821117614499 -0.004129857316449563 6.339040252461749e-20)
(1.11077805727292 -0.09292863715505613 1.499808180054039e-19)
(0.963856931364576 0.004769871067372036 0)
(1.06596427718503 0.03114551361541489 3.769570799745488e-20)
(1.169091233554832 -0.07655193340687463 2.305367813373155e-19)
(1.051231672288573 0.04672631472478722 -2.885939596337313e-20)
(1.022674977858594 0.06746003193620821 3.700774357301469e-20)
(1.090202936310125 0.02602141417605117 0)
(1.017697381541523 0.01645939138384462 0)
(1.02900068047712 0.009384820686454211 7.86233357814121e-20)
(0.9486139539969475 -0.03332521380790777 0)
(1.052726108707079 -0.00553744647146627 -7.66042259831549e-21)
(1.342864340199493 0.05795753237378879 -1.566320598291692e-19)
(1.079873994349889 -0.01312026411163772 2.65140044034569e-20)
(0.7439495956117274 -0.00172387338145169 0)
(0.5901442912995477 0.1932865943540648 -1.052075863171853e-19)
(0.7062088357762677 -0.002507799205784133 0)
(0.6987635094226065 0.01462367844793419 0)
(1.077645030687755 0.003674426342408694 -6.643955116574106e-22)
(0.9906500476040745 0.01451526451258512 0)
(1.278317286813986 0.1224912020422175 2.512685061885045e-19)
(1.012311256636086 -0.02781923459506181 -7.676915473398898e-21)
(1.046095750271823 0.01903301460101253 1.651411333349392e-21)
(1.058701810917998 -0.01177652690177364 0)
(1.126649107794689 -0.009108899641828557 -5.052676407415667e-20)
(1.271068373842656 0.136919361985312 -2.295427925400835e-19)
(1.089341348130703 -0.01108662970284235 -8.621559013595049e-20)
(1.070265105715305 0.02682432535503269 -1.090541753141648e-19)
(1.040813770344609 0.04676107267521411 7.146113674689917e-20)
(1.022624226695858 -0.003754675876774183 -3.474273732186043e-20)
(1.060845151250251 0.02357474565617928 5.900414293115844e-21)
(1.133901630711182 0.001537986271111963 1.042825549292198e-20)
(1.039086929916059 -0.01546574555279619 -4.817466484885157e-22)
(1.087385902153115 0.03471853405643273 0)
(1.028046616234715 0.01369745843990221 0)
(0.7691070270684196 -0.06966782292784908 -1.80859861669755e-19)
(1.030219978181611 -0.001632240085815624 -6.75357634875893e-20)
(1.129499158684375 -0.005114173659773742 -1.253569998347767e-20)
(0.7034178924793477 0.006573462021539056 7.248450552288532e-20)
(1.174721548479278 0.02003406618066218 -1.942342510006325e-19)
(1.136388018585576 0.00748170948468931 5.017745495460775e-21)
(1.128976218310556 -0.01001446465213689 3.428411409785214e-20)
(1.000935903059435 -0.002941486141901995 -7.223715944372557e-20)
(1.103268393455928 -0.0634657923791306 0)
(0.9883428829339072 0.004966000933412328 0)
(1.057827098573742 0.007050040473224122 0)
(1.005438399749339 0.1880467859880437 -2.426202660083504e-19)
(0.7791681574499201 0.01242412195605251 0)
(0.856934715860509 0.1007563370324853 -8.346721141649786e-20)
(0.07994141796140604 0.03576742507417192 -2.980538977357097e-19)
(1.171939157631529 -0.03010418486823684 -2.25983454238397e-20)
(0.6713107400690334 -0.007304195201265348 2.447169467410135e-20)
(1.168450524441069 -0.09989428127428088 6.888869184776428e-20)
(1.1234158983697 -0.003326739558328013 -5.7099539446214e-21)
(1.154413970102105 -0.04809108204968724 2.195994912572064e-20)
(0.09812882262467193 -0.2199259898539755 0)
(0.2379740618531556 0.07507689798035663 0)
(1.261037027811194 0.1100165515623803 1.904814427643918e-19)
(1.021085712649632 0.01979313212355546 0)
(0.7378352651624058 -0.006251978416160266 0)
(1.075286518965855 -0.01154401838405836 2.737404474771993e-20)
(0.9747545253837014 0.002832609164792866 0)
(1.297779446019908 0.1265454328634895 -1.552385048404434e-19)
(1.057411210674359 0.01104918175367148 0)
(0.9936337454608725 -0.006947494565552367 0)
(1.065029437631293 0.008340104974749647 0)
(1.00619296075145 0.02085309217024304 1.986262289033014e-20)
(0.9383529234153415 0.01567867181141434 1.16967494410202e-20)
(1.177295204570753 -0.2000349667785664 0)
(1.005188450844139 -0.005180596572537653 7.975277637857992e-20)
(1.059140974826648 0.006413697106226068 0)
(0.7746575916057216 -0.003278451398405921 0)
(1.218285555274293 0.02820999750660909 1.649220503926648e-20)
(0.7049478394806092 0.001359498954821858 0)
(1.435836026179915 0.08632815238413552 -5.213445463937187e-20)
(0.9952604782109016 -0.005966901110918416 1.704089305234757e-20)
(1.273163286094633 -0.002037990210800742 -2.966491146175588e-19)
(1.059515492579598 0.009011523800916469 1.360653963584379e-19)
(1.000911838598252 -0.01355590333905735 0)
(1.211866190865772 -0.1405848217751409 2.053119294316796e-19)
(0.7331884784089654 0.01378634142312493 0)
(1.098522498492113 -0.004976469254569507 0)
(1.154403834706107 0.06926456800181037 1.956521629691276e-20)
(1.006818428976361 -0.006436274742942558 -3.046465431026375e-20)
(1.121554827219774 0.05310896300831174 -1.746699720070816e-19)
(0.1018687619066049 -0.09047084493501585 0)
(1.07238734270347 0.03925685935068424 0)
(0.6617810659886368 -0.002901916430863237 -5.656389408378395e-22)
(1.012154563111723 -0.01942300509463678 9.403119548235678e-20)
(1.061307666568542 0.0008297993630333987 0)
(1.075077575691504 -0.1305594629330678 3.730997431337316e-19)
(1.00282624477887 -0.006170796023210928 -3.358290372641163e-21)
(1.003259405734926 -0.004846217664972247 7.605075094625366e-22)
(1.093941968132938 -0.009281644953294017 0)
(1.020686490537648 0.02052122531800555 -6.473200265793317e-20)
(1.106548148449804 -0.001566507139726604 6.518271673362042e-22)
(1.074623800470376 -0.01116748802892514 6.657049929443247e-20)
(1.085727931205844 0.02222342895934146 0)
(1.329848960395095 0.1595603543798368 0)
(1.002029430718966 0.0003001162655092145 4.410406136589168e-20)
(1.318839880070153 -0.1282019636105872 1.576687622312546e-19)
(0.02904913416735864 -0.1830931901375764 -2.410653901087178e-19)
(1.071185572990956 -0.005390847862793499 0)
(1.113207532894906 -0.004945685196662888 1.172651179122071e-20)
(0.7267487586583146 0.01780321091127521 0)
(1.060188799003093 0.01014379163447757 0)
(0.8660274523751288 0.1635872520078629 4.661574661206048e-19)
(1.279143607161314 0.132071643553018 1.93358981675726e-19)
(0.6543316513184126 -0.003096495144844565 -6.47141636198846e-20)
(1.03997543304725 0.003578703353833941 -6.339199002096737e-21)
(1.054731825167282 -0.0002363609874087976 6.521545156764491e-20)
(1.364346920226852 0.1202329951757253 6.67501203314932e-19)
(1.334538927488106 0.2518953221680172 0)
(1.059678726663088 0.005207470557364548 0)
(1.000663428368967 -0.005252199286627673 1.453057065640777e-20)
(0.992742887876976 -0.005082091299103906 4.736068135598561e-21)
(1.382380915704154 0.1995597296877112 4.280727441973552e-19)
(0.6818323916179724 0.0004651129715617099 9.947561638596641e-20)
(1.005633697753153 -0.002193723924410691 -6.015567721882051e-20)
(1.098235962922928 0.01309847063429592 2.558958214557569e-20)
(0.6694591067824349 0.004965210010741193 0)
(1.066089768731781 -0.0120151470308302 0)
(1.017611137853865 0.1513673424043946 -1.378885007101609e-19)
(1.092077492174838 -0.005813384067012733 -2.537462804641638e-20)
(0.9820427026315682 8.364202276760017e-05 3.300146798533311e-20)
(0.9912114625525871 0.006025088945783064 0)
(0.6381939292252591 -0.001071074207511402 0)
(0.9767183263898904 -0.001191393736655541 0)
(0.6421218205363275 -0.001446687022916031 2.637844342454821e-21)
(1.089532636258137 -0.05529468414541923 1.2048494666313e-19)
(1.111958923429104 -0.003880227622819519 1.160771150114359e-21)
(0.9579108451167058 -0.0008682984952902922 3.887633828027023e-20)
(1.016859081267793 0.01004117147327204 1.733691042310748e-20)
(1.067005738739147 0.002728579515344991 -2.548825476376067e-21)
(0.6347189060519064 0.008877119566816243 -3.622667465952381e-20)
(1.005578797151857 0.008589790028291874 -7.686435460723516e-22)
(1.037123772347456 0.006482368960926421 5.43021783247331e-21)
(0.9859313211171163 -0.009436437142924858 0)
(0.6099481115679943 -0.000462994837090097 0)
(1.068840020427994 0.02250535985573553 0)
(1.016815378177949 -0.01666043380842932 1.033323925628008e-20)
(1.023786098107592 -0.009865548184947672 0)
(0.9922012339782185 0.01342314019484299 -9.90533914192797e-21)
(1.009313104180511 0.001148325691248282 0)
(1.132090857728453 0.002909840551921368 -1.155043165430629e-20)
(0.03567536820468713 -0.14374836599173 -3.817090952407664e-20)
(1.034995789564925 -0.01859526715497383 -5.843781944451705e-22)
(1.041193926685097 0.004983776674237116 0)
(1.081417617512828 0.06938308285529558 8.459528308297791e-20)
(0.9672672624265902 -0.002151342588002958 3.108119091741363e-20)
(1.020212642524588 0.0166706374441345 -2.293775734456477e-20)
(1.002901378618661 -0.002605033103534056 2.442963423753478e-20)
(1.039160841794463 -0.007921568629411607 0)
(0.6408838872838778 -0.004061057120424959 0)
(1.02584978380722 0.02453471465806682 -7.625362983027508e-20)
(1.087606798128914 -0.005746044981603678 4.990162540022245e-20)
(1.015296369187631 0.007118546810863356 0)
(0.9793758893810788 -0.001328140152772315 -1.95435513959522e-21)
(0.8594445339547084 0.009780082388788755 -9.342616140904163e-21)
(1.014015728932815 0.002569633351061655 -9.68624013189921e-21)
(1.022627080595346 0.005443394015127457 1.88402234229995e-20)
(0.9845846512933882 0.004322314379436504 0)
(1.005218331988353 0.01205668329017865 3.334618329913851e-20)
(1.110895401433324 0.0005620829620785836 0)
(0.9296065340553111 0.008359063991959527 -3.086160847559468e-20)
(0.9552180084646311 -0.0007067335327260047 0)
(0.9077021034471106 0.2054003297628939 5.033092663443518e-20)
(1.010903468757755 0.06701191526977086 0)
(0.9919667566695144 0.004953324534066475 -2.269345137082969e-20)
(1.059303749541332 -0.05156408790630111 -2.888723596986254e-20)
(0.9931443875586971 0.0008878084287822954 3.279765675902889e-20)
(1.008847799678118 0.007194016977063215 0)
(0.9789233010248062 0.000842040630581078 -3.041754465220814e-20)
(1.174176784409237 0.1048679875640661 -3.432436927844478e-19)
(1.069653676691791 -0.2652219990564554 0)
(0.9933717521401656 0.0004251866332647745 -2.274001333051552e-20)
(0.9737592064211377 0.0009314322765850115 4.894095035395979e-21)
(0.9629039250384157 0.002401830536869311 9.942042696891768e-22)
(0.7459374861711455 -0.00104555368227087 0)
(1.124064197111661 -0.07533119072751253 0)
(1.002666665371643 0.002204769580053397 -2.272262459700116e-20)
(0.9094535495392027 0.01312132455231156 -1.007495670836178e-20)
(0.8459849963791999 0.002101145030344131 2.589615569569353e-21)
(1.014158766692069 -0.008641254017821877 0)
(0.958361615290359 0.01315126181832049 1.413113479169784e-20)
(1.00554917757975 -0.0002299755069637611 -2.268178536827563e-20)
(1.024054992038399 -0.003587150037795035 -2.525179575929152e-20)
(1.115107963156203 -0.001528292448950409 -4.930669857651187e-21)
(1.11902204176203 -0.001614161485516075 0)
(1.012180806688929 -0.007649721500140275 0)
(1.020098427584617 -0.0007526596424603775 0)
(0.9416890929733454 0.0008358172636037302 -1.981926850480993e-20)
(1.017851617095652 0.01359152226711397 5.49416948981998e-20)
(1.086673803646181 -0.006256071406587837 -2.307631736086526e-20)
(1.040318547978888 -0.008691594452853708 0)
(1.108062931435449 -0.002796962372506735 1.852344297521206e-21)
(0.9941989901203895 0.001949181114569929 -2.24083913638302e-20)
(0.9837479996860762 0.001694480235620501 0)
(1.010431420954317 0.003129630358236409 4.673758642991656e-20)
(1.366213151284394 -0.3145753916553135 -1.127148186712223e-18)
(1.121651415992509 -0.04324240020145425 -1.096546117038457e-19)
(0.9663993524513987 0.006121943028912597 4.431894288213155e-20)
(0.7646964191748409 0.001482482094492651 -3.298228619270472e-20)
(1.223841904496711 0.05229364385850579 0)
(1.222232383483913 -0.1263932184414101 -1.474873745888949e-19)
(1.082186552536642 -0.002931982798253221 0)
(1.008121048813278 0.0007034269533475605 2.298739135062604e-20)
(-0.192077223400838 -0.1367609982920811 0)
(0.9939669017811593 -0.004656639372692984 0)
(1.012391129122129 -0.02309778981319772 4.263707627253839e-20)
(0.7064258297436526 -0.01945422307409747 0)
(1.096789366438001 -0.01479101777525364 2.208022998535731e-21)
(1.041371021383657 -0.004962121542286904 1.739680683255966e-20)
(0.6332244312873707 0.004118755061720302 0)
(1.448888145320586 -0.1236030585583758 0)
(0.9860613782255546 0.001527486241660838 -1.071680068179583e-20)
(1.069776428610579 -0.0150895533206352 0)
(1.037781734410922 0.0004206897904578364 2.078609691194868e-20)
(1.08133122299175 0.004105389120609507 0)
(1.012035905945855 -0.0007775900583966856 -1.107217365309191e-21)
(1.00579868041571 0.003166354773361962 0)
(1.008557085751881 -0.000656546968392041 -8.860355355002878e-22)
(1.004417831957935 -0.02072518118256486 0)
(1.036306893264094 -0.004823206403355548 1.714967867917567e-20)
(-0.1771272922642513 0.02995570568158519 2.723041272523716e-19)
(0.7973099211235759 0.02123901828752453 5.559513464359176e-20)
(1.005379895948353 0.001853577055503633 0)
(1.126521269524623 0.0109305041847958 -1.159229385651328e-20)
(1.116800064239168 0.007541223117944918 8.756493996714178e-21)
(1.054541769261736 -0.01279707832683297 -1.307398769811589e-19)
(0.9987775999347457 0.01037621344394517 4.174834452177151e-22)
(1.079955861916957 -0.0009774113074252672 0)
(1.188422578773325 0.05309466499208434 0)
(0.8352854121402381 -0.07629835475628728 4.596679526033029e-19)
(1.090759325603228 0.001005725125010638 0)
(1.033829273396617 0.007495972542600789 -7.565688785271001e-21)
(1.042426388937864 0.005238345212152339 5.822701356771537e-21)
(1.055662656617798 -0.0594080148252156 -7.606476853608114e-21)
(1.139265727668219 -0.001042824757452854 1.696323899627702e-19)
(1.08602875035462 -0.002983438402366177 0)
(0.9941739024284106 0.001660589505559308 0)
(0.9969698977299315 -0.02677746095011321 -2.41920467352316e-21)
(0.9900737863883105 0.003438527325664576 0)
(1.031474678144409 -0.03756946781534243 6.466069154149652e-20)
(1.290624390485128 -0.09465673939573974 0)
(1.0409888001658 0.00133955966890946 -4.490153530516353e-21)
(0.9861771765410121 0.01700138346759109 -8.80578399659576e-20)
(1.032738710284248 0.04227621764877536 -2.365634664499019e-21)
(-0.07522964991225925 0.1627435849055961 -1.710082457894947e-19)
(-0.07109585007631453 -0.2982631197123964 -1.31307207916765e-19)
(0.8959192460531936 0.1338859162387858 0)
(0.2846023530307966 -0.03650563171259293 -3.232804571419204e-19)
(1.005246369075985 0.000972380045652798 -1.185494376617276e-20)
(1.063850703400719 0.002722738032350947 -2.085187134186734e-20)
(0.9913297459236621 -0.02044084848850725 3.086386553319453e-20)
(1.02409643339451 -0.03181229377722963 2.671791699019655e-21)
(1.010204177109439 -0.03159360698365207 -6.647972725194091e-20)
(0.9888782035969602 0.004826257035498711 -3.480959040700858e-20)
(0.9931441569993719 0.005228684425907399 0)
(1.024950105843515 -0.00237478062292136 -3.476323187223694e-21)
(1.93614617488895 -0.1562591053440036 1.072873398877377e-18)
(1.043380496275913 -0.001628761934980462 0)
(0.9959824427107976 0.008526510216703306 1.519229426066042e-20)
(1.003537991148405 -0.0004199029573109294 4.012826539069789e-20)
(1.161371198435851 0.1545638847874086 0)
(1.000514749546356 -0.008476398508621747 8.178202666207856e-21)
(0.9509715099256553 0.002256817867021229 0)
(1.037838088057794 0.04175373925305699 0)
(1.309383650203298 0.1569936579900048 2.325108956545547e-19)
(1.080755170413699 0.0002934185949957727 2.322361090796119e-20)
(1.016668888294791 0.02972822156031171 4.533158320577835e-20)
(1.084127141720976 0.0008070257873236472 -2.237817299321722e-20)
(1.051180947502097 -0.01515564585115183 -8.842043859246802e-21)
(-0.3864203768019202 -0.05194129465658508 0)
(0.9997584059423049 0.0134046015140867 0)
(0.1147992651461528 0.05377304332839668 -9.244125786733921e-20)
(1.006816041593348 0.02041200345651225 -4.061149699025422e-20)
(1.002889459563724 -0.0240866038483457 0)
(1.001490296085261 0.00541163676975467 -4.914325827152868e-21)
(1.081991262394902 -0.04249242359275411 0)
(0.993961386678865 -0.0174764966686984 -8.044385462980086e-21)
(1.101728166364062 -0.05779975511116844 0)
(1.445320516248171 0.1732450614719476 0)
(1.05487865468259 -0.01216567273945458 0)
(0.9906897341189543 -0.0248250941156088 -4.145696312635764e-20)
(0.9999858037267894 -0.03914815518572572 -3.412781862509062e-21)
(1.014275515309411 -0.02074000096975463 -2.010145861990149e-20)
(0.9966727790852685 0.01661921264857704 -5.521135190106335e-20)
(0.9959923561621652 0.01022585935525766 -1.480596834098395e-20)
(0.9950142847068228 -0.0285853298777925 0)
(1.002296917965152 0.02366019459448715 1.910476039982315e-20)
(1.054293986173049 -0.03351919536547729 0)
(1.111364870876431 -0.03591778228424904 2.5850596262644e-19)
(0.9956341530290546 0.01665035684904065 4.548808154851548e-20)
(0.6150386257493076 -0.008690757298673172 0)
(1.145619694399006 0.1610189074744459 -1.056517398116101e-21)
(0.8430667510494295 -0.08388870122486811 0)
(1.137871475109827 0.07292544691567689 -2.742096052473439e-19)
(1.316762483574169 -0.3895197287081142 1.292742443704205e-19)
(1.068742683911751 0.06441147037885057 -1.240376316145657e-20)
(1.011549259695348 -0.03189456026862766 0)
(0.9560514219667119 -0.2162776375740577 0)
(0.5324608762773645 0.1681024311393661 0)
(1.016523734745965 0.01066958051877256 1.227458562463064e-21)
(0.6962168592478262 -0.0251422915820742 0)
(0.999500932488728 0.0166754212942096 3.496664649816266e-20)
(1.027391599057506 -0.003758739706750325 -2.748804240524184e-20)
(1.078961625300259 -0.008069148047981691 2.7005712470256e-21)
(1.051849967667496 -0.02734804005810865 2.815644596279479e-20)
(1.042598701041457 0.01179830203209782 0)
(1.062511500243298 0.02127071000523238 -8.680100574269114e-21)
(1.049696162724326 0.03625164408081132 -1.798903818506097e-20)
(0.9835952165337303 -0.02276222795362378 0)
(0.6248969560121073 0.005098581482707377 9.169275966770663e-20)
(0.8941499623645378 -0.005926538848071609 -8.844807466650511e-20)
(0.9093773476399631 0.005259299180135761 1.451402921677792e-20)
(0.6296136117685917 -0.006437295760107861 1.408295998055089e-20)
(0.9807711800125293 0.0008402469458476091 2.480919417962616e-20)
(1.004424384617381 -0.01746993804597374 -3.467458646792141e-20)
(0.9842473864938474 -0.03765986151380951 -3.034907918067963e-20)
(1.085603809660107 0.001653584277447413 0)
(1.019965996772405 0.005147669001778733 1.017429098708207e-20)
(1.132255144053832 0.04873849649501769 1.324914976117828e-19)
(1.031081343350555 0.04118715912294212 0)
(1.022662603700671 0.002558539389933193 0)
(1.585272056032446 -0.167949141795928 4.394452101386772e-19)
(1.059445791205243 -0.04634524016105988 0)
(1.018074115619891 0.01015426157438868 -3.726157312840565e-20)
(1.082435675470858 0.00650154230401181 0)
(0.4892946795951442 -0.006850678023842349 0)
(0.01180867733840727 0.02078880347960292 0)
(0.991370446525306 -0.02405403874895774 1.239716161265761e-20)
(1.302220534892923 -0.09621963737416531 3.720334214027856e-19)
(1.032199045897365 0.03492801127068385 0)
(1.022326131275864 0.003553182394596952 -2.209216073866899e-20)
(0.9432411105151975 -0.1603102469591269 -2.905648736126102e-21)
(1.256981468575225 0.07690507959013554 0)
(0.596878148193508 0.7283760382391439 0)
(1.311990704233246 0.1444551269882059 1.066902335197999e-19)
(1.67838480508144 -0.0259065619850358 0)
(1.052824407032447 0.1223744938545064 0)
(0.7142619013394814 -0.01745186909914202 4.011544166094614e-21)
(1.047203433592663 0.0442490448525778 0)
(0.7597177788907563 0.1253456628002771 1.34035470080889e-19)
(0.9967820904319707 -0.01644763442670815 3.574793860370209e-19)
(1.03871595589846 -0.04142698823165077 2.793381063311933e-20)
(-0.3811786957321306 -0.03363911605175555 0)
(1.072320556474965 -0.01636772050867789 0)
(1.084416645385438 -0.005252558398830097 0)
(0.6492207160510589 -0.5053514737197399 -2.467801479616432e-19)
(0.9894461131973519 -0.0009602980884558015 0)
(1.092474468779811 -0.02149894939601863 5.535483157850351e-22)
(1.18716108825046 0.1209603189085722 -2.01576638305162e-19)
(1.097424941906689 -0.04879405761303061 0)
(1.00620549896331 -0.02101161367975974 0)
(0.7736366311943925 -0.1823985815159248 -1.638102791118368e-19)
(0.8796548810171081 -0.1333066326095861 1.480844016769541e-19)
(1.032567084440968 0.01461107546486184 -2.131865300587051e-20)
(1.023123685171865 -0.00894950596302208 -4.465750442596566e-20)
(0.879078230565873 0.009527815126111084 3.087525703740318e-22)
(1.506466166737177 -0.1945309517279488 0)
(1.308910232981876 0.1150459294170042 2.977677649030272e-20)
(1.241795240465834 -0.07452519420804006 -3.290814935304585e-21)
(1.095711982488681 -0.01855338388156791 -3.971447995600695e-20)
(1.034848459888146 -0.01492904171627138 2.852050512964285e-20)
(1.092833162135324 -0.03906685975549978 9.32864878884397e-20)
(1.031830770187744 0.02062513952234566 0)
(1.049437050758618 -0.03740854421434527 0)
(1.115944502465133 -0.008946851692758426 0)
(1.097028900267983 -0.04176146188163556 0)
(0.9982562895438016 0.01106546317102113 0)
(1.150746149076762 0.0819737495380658 9.533168659307253e-20)
(1.338348466908963 -0.1545983701895113 0)
(1.036816695784328 -0.02727995185434046 -2.504966427103484e-22)
(1.047796606559153 0.05203373972353311 0)
(1.010254167908134 0.01433101740580517 -3.872464348763557e-20)
(1.03379485734386 -0.007356352450503185 9.231506134101639e-21)
(1.088934217775553 0.01346612292459865 -3.225090405561224e-20)
(1.08502769659151 -0.02797980138384573 0)
(1.070630776544498 0.005328418024275853 0)
(1.105174358805492 0.0934768554252336 -1.410902811783518e-18)
(0.9355140465974616 -0.1502700215227845 -7.077320441400048e-20)
(1.172002897412791 0.1174264111125329 1.147964195489461e-19)
(-0.4681724325654221 -0.01868861656481688 -2.900496447313923e-19)
(1.017835612830281 0.02913761654110276 -8.725701147546095e-20)
(1.005767727829692 0.004376487914739405 0)
(-0.2541818139889657 -0.002963624807800354 3.558832985038974e-19)
(-0.03463387823954778 0.2916989809262829 7.474850962794679e-21)
(0.9952120954763668 -0.006262777227960454 9.456025589428084e-20)
(0.1846498375778411 -0.04476211067381042 1.311843203112695e-19)
(1.08448133092672 0.08668232109136542 1.412184037431972e-20)
(0.0937829058101233 -0.1114217168951791 -5.493200854922774e-20)
(1.108423503374607 0.003002264648571967 0)
(1.099619340801118 0.2528531559619286 0)
(1.021135140774612 0.02144964164969916 -1.707659516642682e-20)
(1.063824771999171 0.05198767773327126 0)
(1.02623744804051 0.02357850710775122 -8.499966513727704e-21)
(1.263979550716942 -0.5493941615452722 8.040135240561863e-19)
(-0.1154224148821286 -0.2381882949715357 2.13241071985749e-19)
(1.301063092716836 0.1143082502640065 -6.239413310233872e-19)
(1.122056964424827 -0.002293509497276609 0)
(1.121775441070839 0.1043430411867689 0)
(0.5240387222196322 0.07822604157979735 2.449896369665695e-19)
(1.023688746732468 -0.02024154440105854 9.463523179200895e-20)
(1.00653722687156 -0.02332022736773682 0)
(1.210566911900897 0.2702665345094178 -9.626127308839567e-20)
(1.262154194321703 0.1299055575073855 -1.542636605601177e-19)
(1.026576375272726 0.003309956645803541 1.562807621018011e-20)
(1.299859373961331 -0.08507178395726704 -4.987845495073025e-19)
(0.301524090122522 -0.01979329878597595 2.844008530037339e-19)
(0.8294760502270162 -0.1477709560289574 6.81347623879228e-19)
(1.03944762661266 0.05163455251238314 1.09022027954579e-19)
(1.038200745521772 0.003480808985779464 1.729541903234599e-21)
(1.001062954226897 0.01917963381968611 2.912084313678457e-20)