/*--------------------------------*- C++ -*----------------------------------*\
| =========                 |                                                 |
| \\      /  F ield         | OpenFOAM: The Open Source CFD Toolbox           |
|  \\    /   O peration     | Version:  2412                                  |
|   \\  /    A nd           | Website:  www.openfoam.com                      |
|    \\/     M anipulation  |                                                 |
\*---------------------------------------------------------------------------*/
FoamFile
{
    version     2.0;
    format      ascii;
    arch        "LSB;label=32;scalar=64";
    class       surfaceScalarField;
    location    "1.5";
    object      phi;
}
// * * * * * * * * * * * * * * * * * * * * * * * * * * * * * * * * * * * * * //

dimensions      [0 3 -1 0 0 0 0];

oriented        oriented;

internalField   nonuniform List<scalar> 
1171
(
-0.900954
0.900954
0.875818
-1.14714
0.271322
-0.220208
-0.670873
0.891082
0.099046
-0.10319
-0.253933
0.357123
-0.875818
0.052309
0.823509
0.812206
-0.157219
-0.654988
0.818325
-0.979784
0.161459
-0.320778
-0.0866356
0.407413
-0.020966
0.56186
-0.540894
-0.499909
0.819154
-0.319245
-0.423968
0.983846
-0.165521
0.42443
-0.011214
-0.413216
0.97522
0.00862633
0.388544
0.0358863
0.981576
-0.00635599
0.579257
-0.799465
-0.738377
0.572534
0.165842
0.200056
-0.699965
0.56219
-0.927503
0.365313
-1.06453
0.694257
0.370276
-0.624466
0.6035
0.0233935
-0.250705
0.227312
-0.053909
-0.500803
0.554712
0.44922
-0.535856
-0.858417
0.888855
-0.0304376
0.99913
-0.0175542
0.887287
-1.10329
0.216005
1.00362
-0.0044935
-0.665393
-0.0729832
1.169
-0.802353
-0.366651
0.145206
-0.114513
-0.336284
0.450798
-0.273367
0.19224
0.0811272
-0.643098
-0.504042
0.972685
-0.0853982
0.00860588
0.801432
-0.810038
0.501453
0.66755
0.447346
-0.0193666
0.468587
-0.764403
-0.11821
0.882613
0.497078
0.246863
-0.743941
-0.0261277
0.495762
-0.469634
-0.484153
-0.58038
-0.40513
-0.698162
-0.0232355
0.27156
-0.248325
-0.898577
0.00741012
0.891167
0.331937
0.0754766
0.773545
0.0386614
-0.539892
-0.0845739
0.0461897
-0.810592
0.101303
0.846578
-0.947881
-0.37972
-0.0160072
0.395727
-0.651978
-0.246599
-0.630771
0.732073
0.599164
0.21999
-0.56026
0.92128
-0.750695
-0.170585
0.178277
0.0580114
-0.236288
-0.4274
-0.108456
-0.238641
0.837805
0.0865552
0.323942
-0.410497
-0.4723
0.969378
0.746993
-0.865203
0.310705
0.0327335
-0.343438
1.05408
-1.05408
-0.791544
0.0772762
-0.331209
-0.811477
0.820083
-0.0837952
-0.156993
0.240788
0.83141
-0.0299778
1.00009
-0.753225
0.206569
-0.309613
0.103044
0.847376
-0.0738312
-0.635993
-0.0304647
0.666457
0.142845
-0.235624
0.0927795
0.75702
-0.914238
-0.456874
0.32347
0.133404
0.516776
-0.570685
1.07287
-0.432913
-0.639955
0.667738
-0.636054
0.0208761
0.615178
0.103435
0.587903
0.0583376
-0.64624
0.175494
-0.0982176
-0.511561
0.131841
0.0303222
-0.858599
0.828277
-0.512017
-0.680212
0.0148189
0.46915
-0.0005632
0.224473
-0.811319
0.586846
0.426154
0.573846
0.520543
-0.474353
-0.39726
0.112185
0.285075
0.818735
0.23534
-0.56612
0.539993
0.132866
0.809329
-0.00570078
-0.630292
-0.801127
0.831449
0.557438
0.059078
0.299921
-0.358999
-0.116335
0.408409
0.0873528
0.900775
-0.850973
-0.0498024
0.610472
0.310808
-0.450636
0.574176
-0.515098
0.433481
0.128709
-0.0415067
-0.576822
-0.145574
0.722396
-0.170332
-0.883743
-0.592739
0.364952
0.227787
0.575847
-0.581548
0.273328
0.955768
0.0443195
-0.801127
0.389089
-0.210812
0.746993
0.845573
-0.845573
0.84378
-0.88565
0.0418701
-0.438082
0.864236
-0.181826
-0.329734
0.755203
-0.655574
-0.0996293
-0.70647
0.129648
0.144571
-0.684463
0.865203
-0.981538
-0.347405
0.203519
0.143886
0.147304
-0.961149
0.813845
0.497465
-0.0501186
-0.309135
0.596303
-0.287168
-0.850101
0.997405
-0.174847
0.639102
-0.745338
0.106235
0.925802
-0.545651
-0.380152
0.804067
-0.0577574
-0.0141228
0.0809139
-0.0667911
-0.764786
-0.741208
0.0703348
-0.811477
0.551823
-0.56783
0.0926823
0.639042
-0.731725
0.759257
0.141697
0.467107
0.532893
-0.0513456
-0.542257
0.593603
0.906741
-0.00596578
-0.804067
0.831449
0.199229
-0.449934
-0.0314935
0.0152932
0.0162003
0.629558
-0.462343
-0.167215
0.823509
0.0850778
-0.102106
0.453295
0.176263
-0.0348987
0.0033629
0.0315357
-0.00232789
-0.0117949
0.29627
-0.263537
-1.02042
-0.00538103
-0.188971
-0.0511345
0.0811291
0.730737
0.762526
-0.188681
0.729329
-0.636647
-0.178524
0.385094
0.805782
0.0177274
0.232413
-1.11806
-0.981538
0.331374
0.820083
-0.199562
0.0425694
-0.725356
0.914789
-0.189433
0.45372
-0.0579935
0.770519
0.363946
0.252602
0.135942
-0.68326
0.68326
0.223537
0.659076
-0.0717386
0.39568
0.379059
-0.0663523
0.0348588
0.456761
0.0407043
-0.850101
0.532374
0.222829
0.212401
-0.131488
-0.805782
0.165939
0.74885
0.00930115
-0.778637
0.769336
0.759398
-0.833474
0.0740757
-0.759257
-0.101554
0.130351
-0.0287963
0.0724968
-0.194343
-0.10402
0.298364
-0.0218793
-0.0130194
0.682415
-0.673114
0.829152
0.0619299
-0.305884
-0.469024
0.774909
0.006199
-0.006199
0.315704
0.47172
0.607578
-1.0793
-0.180128
-0.544585
0.724713
0.00903545
0.231753
0.390109
-0.247264
0.970466
-0.498746
0.648372
0.996122
-0.388544
0.208283
0.997405
0.831884
0.216871
0.671984
-0.883743
0.31674
-0.182014
0.249859
-0.0678452
0.791012
-0.0144851
-0.776527
-0.825528
0.821035
0.561918
-0.825528
-0.831884
0.821035
-0.0493447
0.813504
0.0156472
-0.818735
0.724964
0.0937712
0.520756
0.542693
-1.06345
0.463083
0.507382
0.556777
0.451459
-1.00824
0.488817
0.507306
0.724964
-0.485796
-0.426372
-0.573047
-0.51067
-0.106295
-0.0193641
0.0193641
0.49943
0.515446
-1.02612
0.543739
-0.243818
-0.916163
0.370512
-0.650167
0.403568
0.00836408
-0.817692
0.809328
0.453391
-0.0188035
0.809815
-0.936655
-0.865402
0.0559969
0.809405
0.644446
-0.531451
-0.112994
0.634368
-0.719767
0.871761
-0.821643
-0.0501186
-0.0225796
-0.828393
-0.109765
0.706771
-0.597006
-0.860619
0.83804
-0.784662
0.744748
0.0399133
-0.8351
0.0297095
0.80539
0.0136975
-0.00749849
0.353182
0.0648936
-0.867568
0.802675
-0.61497
0.563624
0.925796
0.0744482
-1.00024
0.060394
-0.0828858
0.367961
-0.34215
0.0325367
0.863328
-0.854964
-0.77317
-0.832724
0.0043308
-0.133848
-0.834811
0.0131685
0.678426
0.0509025
0.0328092
0.611636
-0.804478
0.834187
0.639955
-0.836496
-0.786171
0.0273335
-0.0419132
0.82987
-0.787957
-0.0254828
-0.815083
0.580629
0.178769
-0.025393
0.835208
0.894036
0.885123
-0.871954
0.0583558
-0.0583558
-0.11739
-0.57797
0.0465187
0.277631
0.0537425
0.337679
0.809725
-0.0112284
-0.0106509
0.632847
0.367153
0.831052
-0.643098
-0.735498
-0.802442
-0.790597
0.790597
-0.194844
-0.136365
0.598032
-0.822507
0.224476
-0.47988
-0.518213
0.259358
-0.95752
-0.842132
0.792013
-0.801781
0.806112
0.66572
0.127887
-0.793608
-0.762529
-0.140957
0.750079
-0.609122
0.0324062
-0.00324637
0.014138
-0.0108917
-0.467268
-0.110702
0.857389
0.661984
-0.222636
-0.439348
0.54899
0.676141
-0.452604
0.00696356
-0.280331
0.00747431
0.695869
-0.703343
-0.2918
-0.074977
0.0894798
-0.909306
0.132779
-0.69462
0.0586028
0.652459
-0.711062
-0.77124
0.07662
0.603183
-0.67816
0.184196
-0.378539
-0.755976
-0.00655319
0.380083
0.608666
-0.0344897
0.00735072
-0.00735072
-0.0160012
0.0263584
-0.208372
0.000190604
-0.011419
-0.705073
0.286825
0.688109
-0.691121
0.00301134
-0.577897
0.636499
0.675463
-0.0722799
-0.646811
-0.124429
-1.05293
0.018424
0.0399317
-0.697599
-0.756576
-0.756097
0.389446
-0.309937
0.373889
-0.063952
-0.650306
-0.0472932
0.518197
0.731893
-0.163537
0.112403
0.915859
0.454108
0.130082
-0.58419
-0.664592
0.0142858
-0.0254796
0.0222333
0.639281
-0.784855
0.0128396
-0.0128396
-0.604561
0.648523
-0.0439623
-0.631783
-0.121729
-0.642917
0.043792
0.549811
-0.092519
-0.783873
-0.526767
0.539689
-0.0129218
0.62037
-0.617358
0.339359
0.21164
-0.550999
-0.117295
-0.615971
-0.0950911
-0.150452
-0.482975
0.415689
-0.524145
0.136332
0.697355
-0.833687
0.667738
-0.316182
0.0062447
0.0777168
-0.560692
0.584566
-0.0683997
-0.516167
-0.285865
0.299262
-0.0133972
0.421929
0.12181
0.0594923
-0.295424
0.170526
0.124897
0.365292
0.0237966
-0.276162
-0.443009
0.48019
-0.0371803
0.781151
-0.60696
-0.0248226
0.530516
0.277294
-0.49993
0.696896
-0.696896
-0.279191
-0.700918
-0.275867
-0.700918
-0.610798
-0.900047
0.244473
-0.560441
0.736793
0.0167364
0.123366
0.4853
0.103895
0.142699
-0.00705203
-0.135647
-0.0207526
0.600475
-0.89124
0.422216
-0.0452914
-0.0766539
0.121945
-0.681402
-0.152408
-0.443771
0.573853
-0.506783
-0.342243
-0.218448
-0.289696
-0.0850987
0.0850987
0.0988797
0.031471
0.161123
0.397686
-0.545296
0.101525
0.204568
0.479758
0.520242
0.623117
0.0583508
-0.016058
-0.0422927
-0.258929
-0.524945
-0.503287
0.121452
-0.123509
0.00205703
-0.106758
-0.398134
-0.0452199
0.595031
-0.530206
-0.151197
-0.284232
0.146049
0.12539
-0.68394
-0.201896
-0.290862
0.0273249
-0.470701
0.335754
0.134947
-0.0795955
0.298278
-0.878658
-0.480398
0.574278
-0.778485
0.661189
0.312795
-0.0947154
0.144774
-0.0500589
0.019141
-0.630106
0.0220487
0.608057
-0.976366
0.581715
-0.699105
-0.0992273
0.0178517
-0.0178517
-0.28846
0.299637
0.0683234
0.0222203
0.0361305
0.522948
0.657082
-0.706884
0.0375135
0.0172108
-0.0098601
0.0117338
-0.0117338
-0.365426
0.487236
0.0210271
-0.0210271
-0.762971
-0.0226199
0.0363174
-0.417744
0.519268
0.429176
-0.473139
0.0772608
-0.0772608
0.0302146
0.00464422
-0.0591087
-0.888071
0.507919
-0.429378
-0.00749849
0.545509
0.0316455
-0.577154
-0.64435
0.114145
-0.327729
-0.0057117
0.333441
-0.126205
-0.0373328
-0.555413
-0.0746924
0.0399317
0.00819642
0.00464315
0.00144562
-0.00144562
-0.467178
0.429998
-0.430119
0.150186
0.680867
-0.0988903
0.00678732
-0.00678732
0.500634
-0.0723034
0.0116527
0.02208
0.00423531
0.606334
-0.678637
-0.593419
0.568597
-0.129741
0.348804
0.727944
-0.0160012
-0.216022
0.0845345
-0.684866
0.495872
-0.352297
-0.0988413
0.0252159
-0.0240686
-0.0158674
0.419763
-0.124755
-0.391412
0.631212
0.00763032
0.017442
-0.017442
-0.247858
-0.0694924
-0.545624
0.56236
-0.198736
0.471548
-0.137623
0.716879
0.677095
0.00819641
-0.595151
0.57499
0.211497
-0.239229
0.027732
0.489001
0.089679
-0.0188725
0.106694
-0.0878215
0.0203181
-0.0203181
-0.797404
0.0189051
-0.0629055
0.0849855
-0.0923272
0.0923272
0.0172108
-0.0092139
0.693505
0.0553451
-0.311957
-0.0861771
-0.461634
-0.0727354
-0.0768932
0.0768932
-0.0120782
0.0850343
-0.0850343
0.0401073
-0.0401073
-0.311843
-0.138792
0.244833
0.0786369
0.0280682
-0.761663
-0.115139
0.170451
0.0287773
-0.286505
0.0826591
-0.0826591
-0.404541
-0.119604
0.23038
-0.0030679
0.00964203
-0.564016
0.61336
-0.0920494
0.0799712
-0.0786494
0.0832936
-0.00777347
-0.163606
0.171379
-0.134949
-0.24359
-0.0890904
0.0890904
0.0562972
-0.0562972
-0.0242237
-0.101582
0.125806
0.181936
-0.182821
-0.0266218
0.0167617
-0.120053
0.55005
-0.0288014
0.399216
0.00933372
0.022202
-0.064378
0.064378
-0.677056
0.329213
-0.120931
-0.216168
-0.0194569
-0.045973
0.055615
0.193734
0.104629
0.0117564
-0.00752109
0.0922379
0.0292142
0.0658009
0.10465
-0.0336417
0.146045
0.00460246
-0.0450607
-0.0101993
0.0334097
-0.0232105
-0.000231215
0.016964
0.0268432
-0.0268432
0.060721
-0.0482358
0.0482358
-0.171624
-0.0228587
0.0309025
-0.0828963
0.0197891
0.0795071
-0.0795071
0.328682
-0.272964
0.138015
-0.0654747
-0.207489
-0.0106187
0.0106187
0.393148
0.22203
-0.490368
-0.0765606
-0.0469486
0.543334
0.103286
-0.111393
-0.373559
0.0519277
-0.156003
0.176914
-0.0209105
-0.0502929
0.0502929
0.779872
-0.587576
-0.0211671
0.0209359
-0.00722854
-0.288773
-0.00237521
0.0032368
-0.0725695
-0.551445
0.581237
-0.580571
0.0121972
0.100714
0.0125152
0.0242708
-0.163232
-0.326016
0.24312
-0.0536778
0.029454
0.152004
0.147259
0.264944
0.278185
-0.26567
-0.00555613
-0.136769
-0.221879
0.0699023
-0.0041014
0.181525
-0.157255
-0.0613229
0.153561
-0.368931
0.153296
-0.133507
0.0688373
-0.460249
0.18015
0.179254
-0.240577
0.0287204
-0.179378
0.177003
0.00315201
0.150409
-0.0272087
0.0606733
0.439961
0.0162246
-0.065691
0.0333814
0.0609168
-0.24279
-0.192612
0.549045
0.164153
0.0662269
0.0846208
-0.0546374
-0.0866109
0.114343
-0.0316458
0.172891
-0.160694
-0.0815584
-0.0044054
-0.116742
-0.0289695
0.0644862
0.299679
-0.060764
-0.00331727
-0.301584
-0.0601915
0.211791
0.163199
0.166015
0.0480183
0.0970047
0.0551266
0.467822
-0.018608
0.115679
0.0357472
0.0741573
-0.109904
-0.268337
-0.211217
0.00372804
-0.160571
0.297855
)
;

boundaryField
{
    FrontBack
    {
        type            empty;
    }
    Top
    {
        type            calculated;
        value           uniform 0;
    }
    In
    {
        type            calculated;
        value           uniform -1;
    }
    Bottom
    {
        type            calculated;
        value           uniform 0;
    }
    Out
    {
        type            calculated;
        value           nonuniform List<scalar> 10(1.01986 1.00655 0.99942 0.996199 0.994152 1.01798 1.01488 0.998093 0.976087 0.976785);
    }
    circle
    {
        type            calculated;
        value           uniform 0;
    }
}


// ************************************************************************* //
