/*--------------------------------*- C++ -*----------------------------------*\
| =========                 |                                                 |
| \\      /  F ield         | OpenFOAM: The Open Source CFD Toolbox           |
|  \\    /   O peration     | Version:  2412                                  |
|   \\  /    A nd           | Website:  www.openfoam.com                      |
|    \\/     M anipulation  |                                                 |
\*---------------------------------------------------------------------------*/
FoamFile
{
    version     2.0;
    format      ascii;
    arch        "LSB;label=32;scalar=64";
    class       volScalarField;
    location    "6";
    object      p;
}
// * * * * * * * * * * * * * * * * * * * * * * * * * * * * * * * * * * * * * //

dimensions      [0 2 -2 0 0 0 0];

internalField   nonuniform List<scalar> 
808
(
0.104628
0.0135933
0.0348432
0.104166
-0.254036
0.0151355
0.0151643
0.0246003
-0.150277
-0.0449229
0.0442783
-0.167413
0.0246103
0.00816692
-0.354493
0.0210622
-0.377981
0.0177272
0.0320408
0.00561594
0.0467929
0.362677
0.0634833
-0.011858
0.434867
-0.196026
-0.0780891
0.0153613
0.0200849
0.019698
0.0187918
0.0131621
0.0189626
0.016628
-0.0996283
0.603065
0.00928343
0.0153008
0.0301942
0.0171047
-0.0673904
-0.0753766
0.0229604
0.0327495
-0.185689
0.0815407
0.022915
-0.01089
0.0123001
-0.192834
0.0238252
0.00473381
0.0301263
0.00871257
-0.111844
0.00414581
0.0115842
0.041078
-0.0449367
-0.00300802
-0.278276
-0.0169651
0.0355082
-0.201658
0.0366767
0.0308309
-0.302438
0.0186531
0.0426267
-0.304404
0.0211279
-0.342054
0.0244827
0.0284767
0.163584
0.0284157
-0.00393686
-0.0991657
0.0168527
0.289398
-0.136187
0.0198691
0.021458
0.251928
0.0306358
-0.0285968
-0.383292
-0.131889
0.0215871
-0.233952
0.0278251
-0.121444
0.236043
0.147211
0.0226491
-0.296004
0.0171832
-0.12496
-0.127999
-0.266436
0.0190084
-0.00276969
0.0343069
-0.0254284
-0.0950428
0.0466852
-0.211661
0.0110467
-0.0104147
0.0069093
-0.0578177
0.316213
-0.0208721
0.047833
0.0114335
0.429479
0.00752031
-0.291958
0.0301776
0.0443159
-0.24302
0.0257178
0.00982458
0.0428923
0.0978131
-0.0760322
0.0922247
0.0518418
0.015077
0.0548701
-0.33976
0.029687
-0.0573246
0.102633
0.0257767
0.00115925
0.0451399
0.00923446
-0.00650362
0.00677467
-0.338762
0.0323303
0.03772
0.0219613
-0.0543769
0.0626176
0.086751
0.134447
0.00946763
0.0113644
0.0161023
0.321316
0.0333653
0.514164
-0.328988
-0.121923
0.0173629
-0.243974
0.0404461
-0.141483
-0.332258
-0.330553
-0.330597
0.0283549
0.0464725
0.0320992
0.0311111
-0.345624
0.0174678
0.0343536
0.0288259
0.14318
0.0593776
0.099896
0.0210434
0.0568249
0.0612473
-0.178733
0.0243911
-0.370371
0.0320369
-0.168228
0.0180804
0.244159
-0.378274
0.102433
0.0138647
-0.1655
0.0288214
-0.116528
-0.335567
-0.0762868
0.0259618
0.0687472
0.0238726
-0.325719
0.0253502
0.031078
0.00565057
0.0655608
0.0503996
0.0255892
0.0137669
-0.345936
0.356095
-0.304116
-0.329599
0.00919584
0.0287039
0.00127073
0.0150631
-0.420975
-0.333963
0.0238843
0.00847733
0.0221384
-0.352072
-0.0654337
0.0059942
0.0305615
0.00725521
-0.115271
0.0271586
0.0274879
0.00737348
0.0153129
0.118196
-0.345484
0.0388786
0.0218515
0.102491
0.0248605
0.0225999
0.0200007
-0.111813
0.0230242
0.00815263
-0.00155788
0.00246203
0.013661
0.00385645
0.00213111
0.00324378
0.00353721
0.00173545
0.000802022
0.00104445
0.00144451
0.00118486
0.0474652
-0.339248
0.00521437
0.00334253
-0.105679
0.00681697
0.0101468
0.0275815
0.00117851
0.0274952
0.110819
0.0311111
0.0136306
0.012667
0.087419
0.0192379
0.0190684
0.0143225
0.0456639
0.0109708
0.0414647
0.0239253
-0.420499
0.258644
0.0182173
-0.0265022
0.0213594
0.017309
0.0165871
-0.242454
0.255369
0.0246149
0.0278363
0.0215788
0.0746642
-0.115709
0.020836
0.0550947
0.0912705
0.0254703
0.0460543
0.0197243
0.0289189
0.01918
0.0257266
0.0336993
0.0278465
0.0341154
0.0431869
0.0275645
0.0291629
0.012041
0.0203844
0.02514
0.0203074
-0.522622
-0.11572
0.0363641
0.106334
-0.201247
-0.33809
0.0261902
0.0222839
-0.341186
0.112113
0.135445
0.0192629
0.0267389
0.0357157
0.00923875
-0.239852
0.0272454
0.00019587
0.0280916
0.0213099
0.0206063
0.0263459
0.0413085
0.00524878
0.024699
-0.312092
0.0880148
0.0280086
0.0687825
0.0802735
0.00134228
0.211617
0.0249947
-0.181595
0.524743
0.0579548
0.00103251
0.0229038
-0.0495352
-0.0700436
0.0399115
0.0292641
0.0221886
0.0367371
-0.0505776
-0.283833
0.0433483
0.0948368
-0.0316516
-0.303592
-0.332994
-0.367644
-0.339991
0.056189
0.0291115
0.0372713
0.0321906
-0.0137637
0.014761
0.032468
0.00171537
-0.517985
0.0547645
0.0396362
0.0232981
-0.197751
0.0745335
0.00909962
0.0964885
-0.371157
0.0522983
-0.0058868
0.0469275
0.0779871
-0.31217
0.0372138
-0.338689
0.0317706
0.0954038
0.0225617
0.0139478
0.0367568
0.0497229
-0.362625
0.009165
0.0301283
0.0813618
0.0395594
-7.80093e-05
0.0350472
0.0110843
0.0173729
0.0544198
0.0187703
0.0304017
0.00599711
-0.277614
-0.0310077
0.0413823
-0.0264639
-0.07935
-0.00270467
0.403551
-0.138015
0.00815794
0.0445322
0.0333694
0.0293314
0.0271086
0.0842217
-0.0091024
0.06
-0.0545216
0.00891276
0.00450599
-0.00146716
-0.0015087
0.00526903
0.0250199
0.0988281
0.121529
0.0144476
0.0158939
-0.000491548
-0.0344132
0.0235814
-0.39126
0.086051
0.0447188
0.0127001
-0.0204938
-0.349997
-0.00375484
-0.104035
-0.000659024
0.028065
-0.200499
-0.260131
0.201536
-0.338
-0.468734
-0.0999558
0.0633985
-0.018255
-0.328871
0.330415
-0.00655116
-0.342313
0.0113541
0.0556817
0.552522
0.0102572
-0.00856659
0.023995
0.00288332
-0.0082718
-0.291682
-0.346559
0.0509676
0.0535482
0.0737563
-0.277228
-0.333283
-0.265286
0.0253324
0.0472563
0.0816974
-0.0202359
0.00303824
0.0648674
0.0658553
0.0294499
-0.183942
-0.326317
0.0505685
-0.0378345
0.0347086
-0.0108486
0.0671543
-0.0601674
0.0159261
-0.483063
0.430664
-0.251602
-0.323729
-0.0279694
0.0154964
-0.325588
-0.305562
0.106891
-0.354508
-0.105639
0.840198
0.0123019
-0.375995
0.00414294
-0.0237151
0.0321185
-0.4678
-0.356362
-0.329052
0.00678705
-0.166333
-0.38068
-0.0218248
-0.0233759
0.0776462
-0.33907
0.0170285
-0.516626
-0.352792
-0.414894
0.0392834
0.0142041
0.020715
0.0896438
0.106222
-0.0151911
-0.305489
0.283993
0.0796419
0.0102595
-0.457547
-0.514269
-0.354409
0.0422093
-0.369189
0.0761984
0.081508
0.0649901
-0.189616
-0.250271
0.018019
-0.320547
-0.331486
0.00856996
0.00047064
-0.245698
-0.015241
0.0229627
-0.398803
-0.363379
-0.100312
0.0866182
0.0275766
-0.348897
-0.326042
-0.303203
-0.0580224
0.0171866
0.0878012
0.00457344
-0.343472
-0.32246
0.0846281
0.0311465
-0.0663496
0.0280117
0.0396809
-0.358808
0.0217779
-0.287767
0.0364759
-0.394472
0.0614631
0.00399643
-0.39387
-0.485944
0.00443039
-0.483929
-0.477889
0.029496
-0.0969255
-0.312295
0.00715198
-0.309716
0.02988
0.0586278
0.0464428
-0.356275
0.0603824
0.0777107
-0.478823
0.0147757
-0.357555
0.0339522
-0.325855
-0.538794
0.0806111
0.250982
0.424447
0.010874
0.00358775
0.00701615
-0.361366
0.624698
0.0157982
-0.24404
0.0246832
-0.0825325
0.0683451
0.463896
-0.398194
-0.0479327
-0.0480151
0.0298946
0.0122475
-0.482635
-0.29918
-0.368376
-0.402832
-0.289133
0.00214117
-0.370433
0.0630398
-0.292288
-0.337216
0.486909
0.565499
-0.376317
0.0928926
-0.31317
-0.0248213
0.00512345
0.381972
0.0115552
-0.342314
0.0757171
-0.536852
-0.0352081
-0.221463
-0.0438037
-0.337534
-0.304076
0.00367192
0.00224678
-0.342005
0.429874
0.653582
-0.355414
-0.333871
-0.357338
-0.0657719
-0.329979
-0.319658
-0.21411
-0.341507
0.729476
-0.364288
0.724223
-0.431229
0.309855
-0.33409
-0.00959681
0.154637
-0.528832
0.206807
-0.310704
-0.335755
-0.363622
0.847365
-0.311813
0.189779
0.129038
0.623327
0.104859
-0.45297
-0.319407
-0.154913
0.0109556
0.0624395
0.503572
0.0135761
-0.0346327
-0.320561
0.0940077
-0.142079
-0.289485
0.022035
-0.444075
-0.173235
-0.180623
-0.389941
-0.00501615
0.0891429
0.0154314
0.0575927
0.094718
-0.357141
-0.382228
0.019958
-0.00524275
-0.491788
-0.540207
0.152508
0.174199
0.0802172
0.645414
-0.099601
-0.345885
-0.407973
-0.321428
-0.0795212
0.0604938
0.739831
-0.478375
0.357269
0.00437305
-0.457082
0.14038
-0.0997014
0.366263
-0.177972
0.00472044
-0.35322
-0.0950564
0.177089
0.793079
0.316642
0.736404
-0.386874
-0.320735
-0.437608
0.144872
0.249676
0.048403
0.360268
0.119447
0.4773
0.255459
0.0246068
-0.207309
0.0046664
-0.379639
0.860895
0.392472
0.625421
0.493512
-0.290468
-0.371753
-0.318515
-0.321052
0.0363173
-0.421635
0.0847148
0.575098
-0.389516
0.00841649
-0.316039
0.165919
-0.349451
-0.395308
-0.150556
-0.313528
-0.391948
-0.370898
-0.361363
-0.11668
-0.439362
-0.150889
-0.319753
0.127832
0.636481
-0.243487
-0.342692
0.802891
-0.341146
0.268324
-0.2584
0.371128
0.0745937
-0.370908
-0.424929
0.420434
-0.293615
-0.346424
0.170434
-0.299157
-0.0165016
-0.322768
-0.142513
0.0215068
0.549762
0.758333
-0.323668
0.210301
-0.35072
0.79918
-0.00982729
-0.336678
-0.0111645
0.742896
0.193581
-0.345263
-0.320629
0.435001
-0.233296
0.0165256
0.328394
0.238916
0.28024
-0.274782
-0.372664
0.66781
)
;

boundaryField
{
    FrontBack
    {
        type            empty;
    }
    Top
    {
        type            zeroGradient;
    }
    In
    {
        type            zeroGradient;
    }
    Bottom
    {
        type            zeroGradient;
    }
    Out
    {
        type            fixedValue;
        value           uniform 0;
    }
    circle
    {
        type            zeroGradient;
    }
}


// ************************************************************************* //
