/*--------------------------------*- C++ -*----------------------------------*\
| =========                 |                                                 |
| \\      /  F ield         | OpenFOAM: The Open Source CFD Toolbox           |
|  \\    /   O peration     | Version:  2412                                  |
|   \\  /    A nd           | Website:  www.openfoam.com                      |
|    \\/     M anipulation  |                                                 |
\*---------------------------------------------------------------------------*/
FoamFile
{
    version     2.0;
    format      ascii;
    arch        "LSB;label=32;scalar=64";
    class       surfaceScalarField;
    location    "6";
    object      phi;
}
// * * * * * * * * * * * * * * * * * * * * * * * * * * * * * * * * * * * * * //

dimensions      [0 3 -1 0 0 0 0];

oriented        oriented;

internalField   nonuniform List<scalar> 
1171
(
-0.944388
0.944388
0.77161
-1.05888
0.287267
-0.192486
-0.698983
0.891469
0.0556119
-0.0718017
-0.275447
0.347249
-0.77161
0.0470887
0.724521
0.878618
-0.180215
-0.698403
0.836227
-1.00556
0.169336
-0.35273
-0.0470218
0.399751
-0.0111833
0.607518
-0.596335
-0.505957
0.848233
-0.342276
-0.424531
1.00523
-0.169004
0.291722
0.083193
-0.374915
1.0071
-0.0018726
0.349368
-0.0576455
1.01133
-0.00422287
0.613247
-0.805733
-0.768518
0.581778
0.18674
0.228772
-0.734729
0.556767
-0.913316
0.356549
-1.07602
0.666042
0.409977
-0.633679
0.622496
0.0353599
-0.254423
0.219064
-0.00419714
-0.644579
0.648777
0.461873
-0.508895
-0.865674
0.899868
-0.0341934
1.02375
-0.0124259
0.894194
-1.08574
0.191549
1.02366
9.11914e-05
-0.687988
-0.0805304
1.23601
-0.824255
-0.41175
0.157987
-0.0899162
-0.403565
0.493481
-0.273941
0.182986
0.090955
-0.589786
-0.469091
0.991187
-0.0969926
0.0209114
0.817468
-0.83838
0.545684
0.690322
0.517602
0.00835435
0.453519
-0.788882
-0.100524
0.889406
0.518886
0.249949
-0.768835
-0.0259904
0.67031
-0.64432
-0.505445
-0.570574
-0.387116
-0.698627
0.0196933
0.250528
-0.270221
-0.952406
0.00890055
0.943506
0.372729
0.0270223
0.801643
0.0769749
-0.591022
-0.0426573
0.0540401
-0.842922
0.0798022
0.885199
-0.965002
-0.400845
0.0183494
0.382495
-0.672366
-0.280041
-0.652489
0.732291
0.637985
0.210248
-0.58798
0.978872
-0.838047
-0.140825
-0.100198
-0.0363233
0.136522
-0.454904
-0.0539915
-0.245117
0.883102
0.00863085
0.424015
-0.432646
-0.485612
1.0045
0.699922
-0.800446
0.394066
-0.0651703
-0.328895
0.93031
-0.93031
-0.827888
0.0443611
-0.319809
-0.719674
0.740585
-0.039089
-0.147353
0.186442
0.84476
-0.027292
0.996623
-0.746674
0.220216
-0.319058
0.0988422
0.892315
-0.0906726
-0.676687
-0.0154528
0.69214
0.148128
-0.232285
0.0841564
0.773572
-0.953787
-0.443904
0.312121
0.131784
0.647277
-0.651474
0.958945
-0.397524
-0.561421
0.571829
-0.693123
0.0343452
0.658777
0.123481
0.638949
0.0618163
-0.700765
0.140801
-0.0964398
-0.512329
0.111484
0.0270746
-0.902003
0.874928
-0.561386
-0.748918
0.0609307
0.50125
-0.047731
0.276155
-0.829377
0.553222
0.421667
0.578333
0.606856
-0.552816
-0.402697
0.00133403
0.401363
0.693522
0.236788
-0.686747
0.660756
0.0976849
0.82066
-0.0111077
-0.665579
-0.764126
0.7912
0.623496
0.0794984
0.3672
-0.446698
-0.17688
0.547887
0.122423
0.930967
-0.853019
-0.0779483
0.649966
0.328906
-0.43521
0.668533
-0.589035
0.408545
0.148223
-0.0223994
-0.565456
-0.200028
0.765485
-0.166932
-0.763378
-0.610781
0.36202
0.248761
0.65713
-0.668238
0.30816
0.952109
0.0445139
-0.764126
-0.117215
0.0170162
0.699922
0.733172
-0.733172
0.841072
-0.834143
-0.00692927
-0.4521
0.873767
-0.191013
-0.321316
0.761281
-0.67019
-0.0910917
-0.780429
0.214972
0.123693
-0.714715
0.800446
-0.977326
-0.218034
0.20309
0.0149444
0.14346
-0.958547
0.815086
0.545543
-0.0279409
-0.29877
0.600292
-0.301522
-0.752349
0.895809
-0.180917
0.665642
-0.781471
0.115829
0.955729
-0.556592
-0.399137
0.710773
-0.0838016
-0.0268105
0.0290953
-0.00228479
-0.791576
-0.775978
0.0769951
-0.719674
0.573773
-0.555423
0.116455
0.645727
-0.762183
0.771055
0.173333
0.496114
0.503886
-0.115627
-0.645725
0.761352
0.942094
-0.0111267
-0.710773
0.7912
0.17891
-0.433333
-0.0242858
-0.00395622
0.028242
0.675475
-0.447785
-0.22769
0.724521
0.00445646
-0.110336
0.543065
0.132411
-0.0176985
0.00154992
0.0161486
0.000802518
-0.027613
0.157456
-0.222626
-0.914089
-0.00643765
-0.122889
-0.0605788
0.105126
0.759381
0.748956
-0.170623
0.719783
-0.603327
-0.167508
0.387724
0.707835
0.016686
0.228499
-1.06264
-0.977326
0.324998
0.740585
-0.166911
0.0195584
-0.752943
0.947814
-0.194871
0.481519
-0.099024
0.791127
0.306877
0.316148
0.03322
-0.67838
0.67838
0.223777
0.665629
-0.0348188
0.458834
0.458662
0.0383844
-0.0626702
0.527219
0.0183239
-0.752349
0.563077
0.198205
0.0231465
0.00594878
-0.707835
0.190476
0.757338
-0.023391
-0.773076
0.796467
0.745507
-0.818508
0.0730009
-0.771055
-0.0397948
0.0548213
-0.0150265
0.0866836
-0.130421
-0.1091
0.239521
-0.0109275
-0.00677105
0.696523
-0.719914
0.819709
0.0717606
-0.305065
-0.501809
0.806874
-0.000505913
0.000505913
0.204424
0.467648
0.622058
-1.08971
-0.179164
-0.546808
0.725973
-0.0179518
0.204394
0.384132
-0.236003
0.987559
-0.519912
0.688231
1.03998
-0.417926
0.193119
0.895809
0.726805
0.224812
0.675056
-0.763378
0.32162
-0.0343528
0.0175549
0.0167979
0.812442
-0.00239914
-0.810043
-0.722582
0.722674
0.5479
-0.722582
-0.726805
0.722674
-0.0394695
0.848647
-0.0289381
-0.693522
0.626127
0.0673944
0.522926
0.587085
-1.11001
0.472299
0.51526
0.561542
0.457712
-1.01925
0.519573
0.520411
0.626127
-0.517105
-0.448905
-0.585749
-0.515353
-0.135744
-0.00731796
0.00731796
0.506824
0.527177
-1.04253
0.702868
-0.335668
-0.918871
0.362278
-0.685615
0.405574
-0.000517261
-0.844444
0.844961
0.450186
-0.0242707
0.836713
-0.957554
-0.879488
0.0657082
0.81378
0.553404
-0.354088
-0.199316
0.669932
-0.766925
0.891447
-0.845055
-0.0463916
-0.0103088
-0.84271
-0.134367
0.73702
-0.602654
-0.873227
0.862918
-0.78997
0.746237
0.0437332
-0.863345
0.034137
0.829208
0.0044555
-0.00496141
0.424377
0.066107
-0.873122
0.807015
-0.768626
0.652999
0.937381
0.0663962
-1.00378
0.0578928
-0.0292269
0.430589
-0.360909
0.0418511
0.867964
-0.868481
-0.791585
-0.871024
0.0283139
-0.0978375
-0.864511
0.0194561
0.674142
0.0456411
0.040659
0.512745
-0.812975
0.847112
0.561421
-0.868715
-0.806831
0.0418159
-0.0316478
0.836242
-0.804594
-0.0195501
-0.823232
0.57077
0.174736
-0.0232667
0.85998
0.928626
0.885548
-0.866091
0.0480339
-0.0480339
-0.10841
-0.385907
0.031818
0.334961
-0.00996266
0.320604
0.840429
0.00102875
-0.0119562
0.663541
0.336459
0.802991
-0.589786
-0.729988
-0.806993
-0.68848
0.68848
-0.20712
-0.112689
0.637417
-0.857383
0.219966
-0.473052
-0.564997
0.290794
-0.989421
-0.861858
0.815467
-0.825683
0.853997
0.660972
0.152718
-0.81369
-0.76326
-0.184481
0.817696
-0.633215
0.021429
-0.00344257
0.00579227
-0.0023497
-0.211518
-0.174388
0.928211
0.716519
-0.343717
-0.372802
0.517204
0.725661
-0.501884
0.0112953
-0.285237
0.039552
0.729178
-0.76873
-0.328448
-0.10787
0.125987
-0.932335
0.122292
-0.704665
0.101697
0.687219
-0.788916
-0.799492
0.0948269
0.657755
-0.765624
0.234003
-0.364424
-0.756169
-0.00709103
0.368322
0.72166
-0.053127
0.00377846
-0.00377846
-0.00576805
0.0132759
-0.0476286
-0.0231532
0.0241819
-0.710528
0.297952
0.704407
-0.764194
0.0597863
-0.61181
0.713507
0.748134
-0.0903798
-0.653331
-0.146161
-1.0588
0.0208129
0.027221
-0.670976
-0.787698
-0.791659
0.379909
-0.222749
0.297405
-0.0746559
-0.628734
-0.0422422
0.524168
0.719153
-0.0538202
-0.00675859
0.939426
0.502921
0.163357
-0.666278
-0.593298
-0.0354359
-0.0139679
0.0105253
0.648191
-0.848219
0.00596947
-0.00596947
-0.674664
0.687024
-0.0123599
-0.552639
-0.121727
-0.666519
0.164882
0.596469
-0.0577466
-0.851001
-0.390192
0.34148
0.0487122
0.680319
-0.620532
0.356709
0.24098
-0.597689
-0.139507
-0.669622
-0.119294
-0.171743
-0.22531
0.464287
-0.518279
0.161195
0.723572
-0.884767
0.571829
-0.229943
0.0071945
0.159227
-0.384537
0.595517
-0.0903672
-0.505149
-0.286178
0.30553
-0.0193519
0.530656
0.172213
0.078512
-0.309353
0.166789
0.142564
-0.0791169
-0.0380977
-0.286963
-0.0801104
0.162806
-0.0826956
0.810523
-0.472776
-0.0798633
0.541966
0.25662
-0.600337
0.59133
-0.59133
-0.266267
-0.588536
-0.257894
-0.588536
-0.623868
-0.840345
0.170156
-0.440957
0.782471
0.0400932
0.169421
0.55224
0.110136
0.121969
0.00806254
-0.130031
-0.0994777
0.601276
-0.918801
0.416992
-0.0417656
0.104255
-0.062489
-0.723595
-0.174003
-0.532114
0.695471
-0.515738
-0.0862886
-0.298248
-0.338858
-0.080575
0.080575
0.0525174
0.00230394
0.142782
0.259307
-0.700076
0.167963
-0.0242107
0.475903
0.524097
0.731511
0.0487118
0.012844
-0.0615559
-0.306674
-0.544326
-0.539958
0.113678
-0.118679
0.00500126
-0.105091
-0.411684
-0.119701
0.71617
-0.542261
-0.181334
-0.122612
0.0615309
0.162831
-0.645569
-0.199057
-0.200718
-0.021908
-0.487832
0.428975
0.0588566
-0.0544098
0.298946
-0.86952
-0.514025
0.616692
-0.828698
0.689191
0.429607
-0.0348706
0.0623976
-0.027527
0.0929751
-0.629862
0.0035712
0.62629
-0.889309
0.616092
-0.724502
-0.103334
0.00833871
-0.00833871
-0.298058
0.421868
0.0087214
0.0227878
0.0259241
0.570369
0.672714
-0.750663
0.0188315
0.00729628
-0.00351783
0.00520246
-0.00520246
-0.471439
0.643651
0.0143552
-0.0143552
-0.775765
-0.0097703
0.0142258
-0.498579
0.666542
0.523809
-0.536169
0.0707726
-0.0707726
-0.0164818
-0.0461884
0.0036757
-0.9175
0.518363
-0.546094
-0.00496141
0.57223
0.0389136
-0.611143
-0.692349
0.150088
-0.318189
-0.0122647
0.330453
-0.0306093
-0.0232108
-0.597964
-0.0318973
0.027221
0.00552977
0.000439695
-0.00290819
0.00290819
-0.404379
0.321684
-0.479193
0.137388
0.665603
-0.114039
0.00201381
-0.00201381
0.510248
-0.132824
0.00884462
0.0188823
0.000241042
0.599352
-0.732176
-0.709667
0.629804
-0.124226
0.335182
0.748214
-0.00576805
-0.104019
0.109968
-0.705681
0.551315
-0.396086
-0.120119
-0.0271938
-0.0261102
-0.0103091
0.476986
-0.0912495
-0.4139
0.661899
0.00211551
0.00724411
-0.00724411
-0.221222
-0.145072
-0.582044
0.622137
-0.143971
0.509043
-0.161286
0.774533
0.696103
0.00552977
-0.652806
0.585767
0.0756698
-0.0797939
0.00412412
0.575394
0.0999442
-0.012862
0.0707238
-0.0578618
0.00995379
-0.00995379
-0.831264
0.0227387
-0.0463417
0.065224
-0.0865932
0.0865932
0.00729628
-0.00375423
0.699146
0.058192
-0.317234
-0.0944499
-0.51651
-0.046942
-0.0679972
0.0679972
-0.0780377
0.0823402
-0.0823402
0.0281158
-0.0281158
-0.354399
-0.0808116
0.241461
0.0706597
0.0347972
-0.775
-0.0675169
0.161048
0.0178613
-0.253829
0.0817248
-0.0817248
-0.460278
-0.0580012
0.231192
-0.0121287
0.00262159
-0.615536
0.655006
0.0154966
-0.0935343
0.0426886
-0.088877
-0.0115676
-0.158442
0.170009
-0.150902
-0.213522
-0.0820788
0.0820788
0.0547325
-0.0547325
-0.0290382
-0.0938967
0.122935
0.0038854
-0.187336
-0.0164818
0.012964
-0.225507
0.54719
-0.0258424
0.441035
0.00829752
0.00785108
-0.0527348
0.0527348
-0.720931
0.320188
-0.127069
-0.210074
-0.0222104
-0.0192195
0.021841
0.206091
0.0334299
-0.000559678
0.00080072
0.0836454
0.0300324
0.055023
0.106025
-0.0209795
0.0142209
0.00127465
0.00320247
0.00524625
0.0104761
-0.0157224
5.21673e-05
0.010413
0.027843
-0.027843
0.0515043
-0.0423961
0.0423961
-0.19412
0.0110535
0.0151472
-0.0767277
0.018162
0.0774297
-0.0774297
0.264948
-0.243369
0.0924668
-0.0679463
-0.175423
-0.0159342
0.0159342
0.403702
0.255076
-0.521906
-0.0810066
-0.0376724
0.541089
0.046574
-0.070589
-0.459895
0.07679
-0.152901
0.170587
-0.0176868
-0.0473974
0.0473974
0.825004
-0.594943
-0.0135931
0.0136452
-0.0060182
-0.286692
-0.00061539
0.00451439
-0.0479585
-0.622003
0.574511
-0.650936
0.0140816
0.159303
0.0152625
0.024619
-0.158919
-0.334485
0.257757
-0.0559277
0.0268895
0.16919
0.13634
0.273662
0.266392
-0.251129
0.00568595
-0.117503
-0.222339
0.0678366
-0.0128136
0.163942
-0.139323
-0.0690941
0.15274
-0.409956
0.125808
-0.107646
0.0594763
-0.473376
0.175102
0.175449
-0.244543
0.00985335
-0.178409
0.177794
0.00429506
0.148444
-0.0280409
0.0492971
0.460951
0.0119088
0.0287725
-0.00819135
0.0391139
-0.240026
-0.202701
0.584713
0.169366
0.0618263
0.0767838
-0.0627168
0.0781566
-0.0740325
-0.0302894
0.166973
-0.152891
0.0184633
-0.000629035
-0.107292
-0.0299645
0.0326842
0.2517
-0.0302878
-0.0107203
-0.312546
-0.0121573
0.2173
0.143472
0.176715
0.0562959
0.0970925
0.0463747
0.523994
-0.0144477
0.10198
0.0431029
0.0657133
-0.108816
-0.26683
-0.199768
0.0243458
-0.221676
0.2882
)
;

boundaryField
{
    FrontBack
    {
        type            empty;
    }
    Top
    {
        type            calculated;
        value           uniform 0;
    }
    In
    {
        type            calculated;
        value           uniform -1;
    }
    Bottom
    {
        type            calculated;
        value           uniform 0;
    }
    Out
    {
        type            calculated;
        value           nonuniform List<scalar> 10(1.03384 1.04003 1.03465 1.03483 1.0448 1.03576 1.034 1.03805 0.857597 0.84643);
    }
    circle
    {
        type            calculated;
        value           uniform 0;
    }
}


// ************************************************************************* //
