/*--------------------------------*- C++ -*----------------------------------*\
| =========                 |                                                 |
| \\      /  F ield         | OpenFOAM: The Open Source CFD Toolbox           |
|  \\    /   O peration     | Version:  2412                                  |
|   \\  /    A nd           | Website:  www.openfoam.com                      |
|    \\/     M anipulation  |                                                 |
\*---------------------------------------------------------------------------*/
FoamFile
{
    version     2.0;
    format      ascii;
    arch        "LSB;label=32;scalar=64";
    class       volVectorField;
    location    "6";
    object      U;
}
// * * * * * * * * * * * * * * * * * * * * * * * * * * * * * * * * * * * * * //

dimensions      [0 1 -1 0 0 0 0];

internalField   nonuniform List<vector> 
808
(
(0.891487 -0.00880242 0)
(0.998357 -0.0329565 0)
(1.02302 0.00530121 0)
(1.07155 0.0135729 -2.16002e-21)
(1.47225 -0.267994 0)
(0.969906 -0.000242357 0)
(1.09194 -0.0282583 -4.22841e-21)
(1.04423 0.00625972 0)
(1.36076 -0.209267 2.91287e-20)
(1.23314 -0.0743165 -1.26711e-20)
(1.04782 -0.0142034 8.74481e-21)
(1.38623 -0.235392 0)
(1.03043 -0.0105827 0)
(0.736823 -0.00144764 0)
(1.13011 -0.00475888 2.39295e-20)
(1.04165 0.00718839 0)
(0.972434 0.0177766 -8.24056e-21)
(1.03196 -0.00449236 -9.39286e-23)
(1.02857 0.00407192 0)
(1.08558 0.0204414 0)
(1.03915 -0.0214003 -1.22044e-20)
(0.930134 0.129069 1.04862e-19)
(1.08027 0.00314812 -1.0992e-20)
(1.15291 -0.0222566 0)
(0.951839 0.192433 0)
(1.35672 -0.035516 -3.58943e-20)
(1.28121 -0.148342 1.18134e-20)
(0.990104 -0.000284978 -6.50623e-21)
(1.04257 0.0124031 0)
(1.04129 -0.00452819 -5.17141e-22)
(1.01117 0.00141231 5.61268e-24)
(1.10019 -0.0158786 0)
(1.02164 -0.00515288 0)
(1.06649 -0.00761402 5.18999e-21)
(1.29427 -0.0449711 9.34885e-21)
(0.739924 -0.104026 1.06691e-19)
(0.853883 -0.0337445 -5.46393e-21)
(1.04033 -0.001242 7.31018e-22)
(1.11942 -0.00488024 -3.57195e-21)
(1.0658 -0.00460086 0)
(1.25296 -0.037725 -1.76298e-20)
(1.28505 -0.105755 0)
(1.00345 -0.00568245 -5.01324e-21)
(1.02189 -0.0173272 1.05499e-20)
(1.27867 -0.192128 0)
(0.991265 0.0229637 -1.747e-20)
(1.02053 0.000245463 1.98625e-21)
(1.25433 -0.232086 1.43904e-20)
(1.13057 -0.00165358 -4.99561e-21)
(1.41339 -0.149151 -4.208e-20)
(1.07954 -0.0336893 8.06514e-21)
(1.12836 -0.0594457 0)
(1.13641 -0.020439 4.53806e-21)
(1.04792 -0.000146035 0)
(1.31603 0.200618 6.55242e-21)
(1.05933 -0.018365 9.96029e-22)
(1.02302 0.0131077 0)
(1.0301 -0.00320942 4.45696e-21)
(1.23988 -0.0647593 1.36019e-20)
(1.09875 0.108208 6.07613e-23)
(-0.143675 0.0236316 0)
(1.22114 -0.201274 -9.70647e-21)
(1.04227 0.00766459 0)
(1.43188 -0.0301375 -3.10774e-20)
(1.04391 -0.0110436 -1.13365e-20)
(1.01665 -0.0168952 -5.27978e-21)
(1.40299 -0.0907115 3.30798e-20)
(0.751672 0.0210623 0)
(1.0465 -0.0181875 0)
(1.45859 -0.341171 0)
(0.92736 0.000142552 -2.40412e-22)
(1.28497 -0.125622 -4.53895e-20)
(0.985714 0.0135513 0)
(1.01369 -0.000287528 -4.51977e-21)
(1.12498 -0.323304 -5.1624e-20)
(1.04437 -0.0234715 -1.40834e-20)
(1.10309 0.0729932 3.60673e-22)
(1.33175 0.486107 2.55709e-20)
(1.05864 -0.0192508 0)
(1.01498 0.284449 -1.68233e-19)
(1.33595 -0.0422459 1.90845e-20)
(0.786752 0.0290822 0)
(0.952999 0.0177728 -4.80596e-21)
(0.968932 -0.113761 3.87887e-21)
(1.04545 -0.0286589 1.07406e-20)
(1.1602 0.043697 1.33151e-21)
(1.31257 -0.22621 0)
(1.35076 0.26806 0)
(1.10395 0.0121669 -1.04946e-20)
(1.44027 0.0231129 3.76265e-20)
(1.0606 -0.0151255 8.77361e-21)
(1.32247 -0.0970804 -1.63485e-21)
(0.9375 0.00742977 1.51418e-20)
(1.00659 -0.0178377 0)
(1.1109 -0.000378432 9.16808e-22)
(1.38915 -0.00245389 -8.36738e-20)
(0.95113 0.00486931 -2.15202e-21)
(1.31506 -0.100075 0)
(1.3356 -0.0539813 0)
(1.42128 -0.0583399 -5.14852e-20)
(1.03988 0.00167281 -4.32745e-21)
(1.09955 0.0430756 -1.26633e-23)
(0.955038 0.0360939 8.94547e-21)
(1.16173 0.069083 -4.24058e-22)
(1.28984 0.0745964 -2.28737e-20)
(1.00422 -0.0233414 1.09637e-20)
(1.44065 -0.137601 0)
(1.03507 -0.00643163 0)
(1.0928 0.0620462 -4.32451e-21)
(1.2054 -0.203544 -4.87935e-21)
(1.2321 0.0636036 9.14448e-21)
(1.03048 0.0403343 -1.1576e-19)
(1.11164 -0.00597303 2.62182e-21)
(1.05655 0.0900231 6.18885e-21)
(0.978382 -0.0128339 0)
(0.916287 -0.0524777 7.1974e-20)
(1.13783 0.063684 -3.83578e-21)
(1.45649 -0.247585 -2.04232e-20)
(1.02527 -0.00496127 -9.21131e-21)
(0.915116 0.0177112 1.49539e-21)
(-0.402594 0.119388 0)
(0.846859 -0.0201438 7.053e-22)
(0.719815 0.025577 0)
(1.08476 -0.0162701 -6.95172e-23)
(0.997778 0.0217095 0)
(1.31351 0.301842 1.04898e-20)
(1.03382 -0.0437336 -2.74619e-20)
(1.09988 0.118296 2.57055e-21)
(1.14735 -0.0388279 0)
(1.0831 -0.0376593 0)
(0.68904 -0.0145095 0)
(1.03361 0.00567907 -4.52302e-21)
(1.23473 -0.0324668 1.00092e-20)
(1.07272 0.0999751 -2.79166e-20)
(0.993187 -0.0179608 0)
(1.09874 0.0864865 -1.02987e-21)
(1.0508 0.0227563 2.48895e-21)
(1.01147 -0.00360459 -1.2956e-21)
(0.953767 0.00746007 -4.56104e-22)
(1.10861 0.0424668 1.06163e-23)
(0.0458015 0.142532 0)
(1.08298 -0.027572 -9.71916e-21)
(1.04718 0.0079172 1.91131e-21)
(0.763362 -0.00064061 -3.09194e-21)
(1.26433 0.156016 1.57902e-21)
(1.04649 0.0457963 3.83823e-21)
(1.04708 0.0212377 1.50543e-20)
(0.993923 0.0334927 0)
(1.10536 -0.233433 5.24006e-21)
(1.0391 -0.00602522 0)
(0.929229 -0.00837987 4.7697e-21)
(0.974467 0.285842 1.35012e-19)
(0.933354 0.046154 0)
(0.815998 0.108452 0)
(-0.145287 0.120871 -8.30952e-20)
(1.33933 0.0960428 -1.52876e-20)
(0.723633 0.0050666 0)
(1.47471 -0.0510375 0)
(1.02779 -0.000581404 0)
(1.35244 0.0369616 1.71968e-20)
(-0.0490393 -0.120248 0)
(-0.0574751 0.181843 3.89221e-20)
(1.07587 -0.0263136 9.56763e-20)
(0.957518 0.0401903 7.01129e-22)
(0.839984 -0.00491968 0)
(1.01351 0.00112566 1.3461e-20)
(0.861487 0.0693125 0)
(0.835189 -0.024599 -1.03372e-19)
(1.02721 0.0106301 9.59607e-21)
(1.03515 -0.000755633 3.54653e-21)
(1.07832 0.00266576 4.67274e-21)
(1.03449 0.0770947 -1.03706e-20)
(0.992362 0.020098 -3.82065e-21)
(1.14015 -0.337149 3.78178e-22)
(0.975501 -0.00108647 0)
(1.05175 0.0211403 -1.12919e-20)
(0.872228 0.00409869 -8.88403e-21)
(1.39029 -0.146184 2.48207e-21)
(0.80006 0.0103176 0)
(1.08276 -0.135351 0)
(1.03335 -0.0024682 3.55656e-21)
(1.39476 0.191729 1.2323e-20)
(1.10237 0.0390926 3.1251e-21)
(1.03362 0.0228716 1.75451e-20)
(0.948642 -0.0254102 -9.2399e-20)
(0.808694 -0.0138438 1.64037e-20)
(1.13052 0.00780456 3.27873e-21)
(1.37767 -0.0300407 -5.39434e-21)
(1.0562 -0.00142134 -5.71715e-21)
(1.32033 -0.00258476 4.62262e-21)
(-0.178685 0.132714 6.10634e-20)
(1.25447 0.0124802 0)
(0.71318 0.010459 0)
(1.05523 -0.0192739 -5.13664e-21)
(1.09518 0.031802 5.9354e-21)
(0.181184 0.114755 0)
(0.977452 -0.00728599 5.37355e-22)
(1.03829 0.00263997 -3.22297e-21)
(1.07234 -0.0183646 1.26961e-21)
(1.0741 0.0145089 -6.52137e-21)
(1.00955 0.0239619 2.77286e-21)
(1.03142 0.013321 2.84299e-21)
(1.06072 -0.000267005 0)
(0.377782 -0.0333991 0)
(1.04844 -0.0697328 0)
(1.21112 0.0871033 -3.34468e-20)
(-0.0586913 -0.115058 5.27307e-20)
(1.04733 -0.0190312 -1.15235e-23)
(1.04131 0.00470116 0)
(0.734064 0.023343 -1.01134e-21)
(1.03669 0.00972122 2.47873e-21)
(0.000937805 -0.0406803 -1.66717e-19)
(0.951029 0.0410113 -6.18009e-20)
(0.709922 0.00122354 0)
(1.04982 -0.0015575 0)
(0.934183 0.0258087 7.97929e-21)
(1.05719 -0.10208 6.51503e-21)
(1.28887 0.386265 5.32786e-21)
(1.02835 0.00311088 -4.81578e-23)
(1.0369 -0.00660646 -3.37957e-21)
(1.03857 0.00668659 0)
(1.37364 0.411205 -4.94502e-20)
(0.740273 0.0166284 0)
(0.982805 -0.00381259 -4.1136e-21)
(1.06696 -0.00841677 6.49833e-22)
(0.693954 -0.00262391 0)
(1.10435 -0.00380536 0)
(0.103278 0.0339898 -5.39746e-20)
(1.03421 0.00153473 -7.71835e-21)
(0.940546 0.000231647 3.35034e-21)
(0.98461 -0.00113365 0)
(0.714035 -0.013242 0)
(0.955694 0.0148012 -4.04581e-21)
(0.735041 0.000419484 -5.6333e-22)
(1.32196 -0.0577827 3.2665e-22)
(1.04208 0.0225327 -3.67282e-21)
(0.905894 0.0134406 -1.53526e-21)
(1.06744 -0.00984842 -1.61895e-23)
(1.03418 0.00674941 4.53765e-23)
(0.712596 0.00703866 4.26193e-21)
(1.02483 -0.00727584 4.71375e-22)
(1.03186 -0.00513093 0)
(1.03835 0.000496444 0)
(0.716847 0.00998632 0)
(1.04224 -0.00292667 0)
(1.03373 0.0110206 -7.07668e-22)
(1.03644 -0.000133535 0)
(1.0435 -0.00509818 0)
(1.0365 -0.00412695 0)
(1.04223 0.02715 0)
(-0.0266805 -0.055909 5.25801e-20)
(1.01288 -0.00377041 5.3191e-22)
(1.04341 -0.00979765 0)
(1.30934 0.09487 1.19665e-20)
(1.01682 -0.00145451 8.21811e-22)
(1.1001 -0.0171608 2.42613e-21)
(1.03506 -0.00671498 4.99969e-21)
(1.03411 -0.00573462 0)
(0.696115 -0.009627 8.3131e-21)
(1.05358 0.0342097 1.00865e-20)
(1.04192 -0.00426164 0)
(1.03435 0.0143124 -2.76115e-21)
(1.02958 0.00926352 2.65819e-21)
(0.811859 0.0954383 -1.59672e-20)
(1.05043 -0.0132477 3.70511e-21)
(1.02921 -0.00565273 -5.54499e-21)
(1.03429 -0.00638945 0)
(1.03721 0.0309658 -1.85073e-20)
(1.03958 0.00445432 -2.00826e-21)
(1.01166 0.00455766 7.93381e-21)
(1.04136 -0.00299562 0)
(-0.0119547 -0.0221981 0)
(0.98188 0.118224 -1.66951e-20)
(1.02477 0.00765463 0)
(1.19891 -0.0781408 9.75624e-21)
(1.03356 -0.000770136 7.67805e-22)
(1.02108 -0.00406693 5.32992e-21)
(1.03568 -0.00807428 -2.37001e-21)
(1.36558 0.0211977 1.18633e-19)
(1.01977 -0.313247 5.21153e-20)
(1.03637 0.00349922 -2.12623e-22)
(1.03486 -0.000789361 0)
(1.03827 0.0127143 0)
(0.885549 0.00141119 -2.46105e-20)
(1.29333 -0.264139 -3.93587e-20)
(1.03432 -0.000293129 0)
(0.98333 0.0161866 1.14568e-20)
(0.831931 0.0714396 0)
(1.02531 0.00242817 5.02158e-21)
(1.0312 0.00763216 -1.31472e-20)
(0.884261 -0.00576951 -4.99913e-21)
(1.04376 -0.00402425 0)
(1.0308 -0.0119613 -8.95559e-22)
(1.03359 -0.00305865 3.89341e-21)
(1.02356 -0.00697468 -6.5499e-21)
(1.02779 -0.00694783 -4.60211e-21)
(1.03399 0.000322781 0)
(1.0736 0.0684855 0)
(1.03369 -0.00874629 4.91786e-21)
(1.02882 0.00511424 -5.0726e-21)
(1.03023 0.00266429 3.31124e-21)
(1.03637 0.000699623 -3.6182e-21)
(1.0417 0.00818753 5.66194e-22)
(1.02937 -0.00318773 0)
(0.429246 -0.140657 1.47583e-20)
(1.32598 0.0148461 -2.41257e-20)
(1.03105 0.00232891 -9.31988e-21)
(0.607366 0.059639 1.68835e-20)
(1.43116 -0.0950919 2.82436e-20)
(1.00718 -0.14025 8.71928e-20)
(1.0453 0.00233804 -5.11872e-21)
(1.02974 -0.00237071 -3.70706e-22)
(-0.0998571 -0.109839 -9.18985e-21)
(0.986132 -0.00442051 0)
(1.04529 -0.0898311 -1.49091e-20)
(0.823812 -0.0287582 6.03833e-21)
(1.02622 -0.00917823 5.36853e-21)
(1.02773 -0.018148 -7.4433e-22)
(0.74392 -0.00948635 1.01201e-21)
(1.4164 -0.371289 -1.5811e-20)
(1.06138 -0.00574034 0)
(1.04159 0.00988404 -9.31761e-22)
(1.0789 -0.00177509 -2.15779e-21)
(1.04461 -0.00726984 0)
(1.03045 -0.00356558 -7.18567e-21)
(1.07481 0.0169043 2.95179e-21)
(1.01789 -0.00494222 1.62149e-20)
(1.10533 -0.049166 -1.44694e-21)
(1.03014 0.000583859 4.14745e-21)
(-0.0730592 0.0138824 0)
(0.61695 0.105669 -2.23844e-20)
(1.03715 0.00968471 0)
(1.00655 0.152813 -1.34683e-20)
(1.04425 0.18017 0)
(1.11017 -0.0228076 -7.04564e-22)
(1.02328 0.0243604 0)
(1.03963 -0.0141997 0)
(1.39966 -0.0908648 2.29836e-20)
(0.793309 -0.0807002 0)
(1.09097 -0.0382261 2.05196e-20)
(1.04758 -8.48596e-05 3.62555e-22)
(1.04353 0.0297272 2.59315e-21)
(1.2354 -0.144628 -7.36817e-21)
(1.24918 0.0853203 -9.27623e-21)
(1.05006 -0.015204 1.39572e-20)
(1.0365 0.0109273 0)
(1.10267 -0.0632566 0)
(1.03672 0.0160018 2.08441e-21)
(1.17792 -0.0492453 0)
(1.45127 0.193642 -3.07504e-20)
(1.02067 -0.012759 1.43749e-21)
(1.03099 0.0198665 1.89603e-20)
(1.22009 0.0898112 -2.07274e-22)
(-0.021815 0.0271352 0)
(-0.0365145 -0.0905134 0)
(0.127509 0.0420475 -5.27376e-20)
(-0.085993 -0.109895 0)
(0.99534 -0.0230445 -1.09677e-20)
(1.09668 0.0178842 -2.56926e-21)
(1.06014 -0.0637873 -7.7374e-21)
(1.08512 -0.117807 -3.77691e-21)
(1.1416 -0.0594471 0)
(0.925033 -0.0135423 -2.87502e-21)
(1.05368 0.0230704 0)
(1.03692 0.011488 3.34283e-22)
(0.524059 -0.110099 0)
(1.00669 -0.0273144 -4.21536e-22)
(1.0346 0.0369156 0)
(1.04769 -0.00194704 0)
(0.780652 0.162808 4.58023e-20)
(0.952077 -0.0383303 -2.356e-21)
(1.03747 0.00314343 1.54697e-21)
(1.04184 0.0160314 -8.12197e-21)
(0.220558 -0.0886971 0)
(1.05243 -0.00507523 -2.39431e-20)
(1.15746 0.0257501 1.1223e-21)
(1.05576 -0.0143357 1.21486e-21)
(0.948925 -0.0381107 1.15244e-20)
(-0.109196 -0.0352319 -1.08686e-19)
(1.05539 0.076131 0)
(-0.0322689 0.0453297 0)
(1.10771 0.0669235 9.70883e-21)
(0.861332 -0.0334065 -1.24019e-20)
(1.03508 0.00492125 -7.70835e-21)
(1.05451 -0.0279931 0)
(1.04649 -0.0416748 6.13105e-21)
(1.1702 -0.247835 -5.00364e-21)
(0.585642 -0.0395921 -1.07878e-20)
(1.10113 -0.0545498 -1.67926e-21)
(1.07956 -0.0731434 -4.61802e-22)
(0.576669 -0.13922 1.23211e-21)
(1.05206 -0.0768327 -1.62139e-20)
(1.12662 0.0379682 0)
(1.05415 0.0558108 0)
(1.12211 -0.0531011 -4.88785e-22)
(1.12509 0.0266175 -1.01438e-21)
(0.659182 -0.177333 1.44825e-20)
(1.19319 -0.0964472 -8.48123e-21)
(1.0936 0.0178673 1.08146e-20)
(0.626656 0.00298915 6.01203e-21)
(0.57064 0.121229 -8.86649e-20)
(0.360809 -0.0984841 -2.10698e-21)
(1.17694 0.177041 -7.12926e-21)
(1.23712 -0.484806 7.05898e-21)
(1.32965 0.119873 -1.23341e-20)
(1.13801 -0.0546317 5.79252e-22)
(0.930128 -0.225496 8.93052e-20)
(0.0106452 0.0167493 0)
(1.03428 0.0036456 -6.05174e-22)
(0.298106 0.0406372 1.10715e-20)
(1.07477 0.0807983 -8.4009e-21)
(1.05061 0.00340743 5.69951e-21)
(1.03411 0.0088664 0)
(0.855432 -0.0546865 0)
(1.13614 -0.0308229 0)
(1.18202 0.173567 5.23403e-21)
(1.2312 0.0204559 -1.99145e-20)
(1.11532 -0.043302 1.81182e-21)
(0.737584 0.00250573 0)
(0.861846 0.00379274 0)
(0.850296 -0.00596894 -3.01234e-22)
(0.730498 -0.0128664 0)
(1.02529 -0.000750037 0)
(1.00525 0.000457998 2.15837e-20)
(0.700801 -0.0555546 0)
(1.00646 0.0157558 0)
(1.02944 -0.00350819 0)
(1.18315 0.164297 1.2011e-21)
(1.20466 0.0775777 5.06435e-21)
(0.949169 -0.0194939 5.25742e-21)
(1.31279 -0.396861 -1.1866e-19)
(0.744959 -0.117691 -1.48235e-20)
(1.03975 0.0230838 5.93552e-21)
(1.05407 -0.00270631 0)
(-0.160873 -0.341939 0)
(-0.338117 0.0555374 0)
(1.11004 -0.0546422 7.79144e-23)
(1.32797 -0.275206 -3.538e-20)
(1.1837 0.0884908 0)
(1.03661 0.0157316 -7.80081e-21)
(0.673317 -0.275686 0)
(1.50457 -0.137996 8.3961e-20)
(0.413072 0.520775 1.00683e-19)
(0.317519 -0.0429713 0)
(1.12193 -0.274233 1.2738e-19)
(0.571837 0.190792 0)
(0.326779 -0.0430472 6.45812e-21)
(1.25172 0.114579 0)
(-0.0858905 0.0921161 4.09751e-21)
(0.981508 -0.0478704 0)
(1.16804 -0.0862673 -2.84342e-21)
(-0.269833 0.000492291 -9.40875e-21)
(1.07327 -0.0551979 1.31511e-21)
(1.09004 -0.0281788 -8.85054e-21)
(0.571491 -0.50961 -8.84372e-20)
(1.03429 0.00745514 -1.31002e-21)
(1.20202 -0.104003 9.32002e-22)
(1.17695 0.236246 -1.27606e-20)
(1.13805 -0.181497 5.98863e-21)
(1.11154 -0.0603404 -2.49811e-22)
(0.0543304 -0.159899 -6.34266e-20)
(0.123554 0.167346 -9.37144e-21)
(1.05982 0.0559991 2.55528e-21)
(1.04477 -0.0566659 0)
(0.933878 0.0410427 -7.46775e-21)
(1.41497 -0.433332 9.25122e-20)
(0.987392 -0.0675708 -6.88371e-20)
(1.46934 0.114792 9.32446e-20)
(1.02963 -0.00266577 4.53613e-21)
(1.07211 -0.0538172 1.32358e-20)
(1.07279 -0.0219598 0)
(1.15093 0.0233034 0)
(1.13863 -0.0912892 -2.86059e-21)
(1.08719 0.000191171 -4.00022e-21)
(1.13587 -0.1651 -5.95647e-21)
(1.06182 0.035364 -6.79418e-21)
(1.42009 0.0380826 -4.74298e-20)
(0.492447 0.03008 0)
(1.0733 -0.0994923 1.28937e-20)
(1.25804 0.133597 0)
(1.06227 0.0401521 -6.48417e-21)
(1.13872 0.0157382 0)
(1.05961 -0.000746016 1.09383e-20)
(1.20578 0.00124596 1.71103e-20)
(1.04089 0.00596857 0)
(0.0635711 -0.0280383 1.73213e-19)
(0.880747 -0.207319 -7.00416e-20)
(1.36972 0.0904645 -3.22628e-20)
(-0.228714 0.0115755 4.7768e-20)
(1.17617 0.0781515 2.30032e-22)
(1.03011 0.0071108 -3.00383e-21)
(-0.167638 0.072009 -4.97512e-20)
(-0.0385275 0.074356 -3.07031e-20)
(1.00696 -0.0334015 0)
(-0.030515 -0.0405951 0)
(1.21523 0.162528 0)
(0.111644 -0.100633 0)
(1.10452 -0.0446615 0)
(0.1557 0.0337212 0)
(1.10739 0.0050603 0)
(1.18398 0.163505 0)
(1.09441 0.087945 -4.84585e-21)
(0.586704 -0.288851 -2.32376e-20)
(-0.23372 0.124329 0)
(1.19081 -0.0734251 7.16514e-20)
(1.0426 0.00748914 1.61476e-21)
(1.36662 0.146646 0)
(-0.0373587 -0.0435064 0)
(1.14529 -0.0371511 4.58513e-21)
(1.12619 -0.048015 -1.86232e-21)
(1.17769 0.385643 0)
(0.302764 -0.0737792 6.98208e-20)
(1.10233 0.0683624 7.62079e-22)
(0.24979 -0.0517181 -5.80994e-20)
(-0.0599098 0.0465343 -3.62465e-20)
(-0.0331138 0.050232 9.27388e-20)
(0.680853 0.170613 -4.25189e-21)
(1.03162 -0.00768643 2.82678e-21)
(1.10546 -0.00560707 -8.71686e-21)
(1.02963 -0.00924018 0)
(1.07401 -0.061507 -1.82117e-20)
(1.17741 0.0495411 -5.44323e-21)
(-0.0187677 -0.0160752 1.10122e-19)
(0.99263 -0.0752078 -5.5373e-20)
(0.920791 0.0591632 1.36334e-20)
(1.0364 0.017627 -2.13575e-21)
(0.0855805 -0.0311915 3.81313e-20)
(0.263736 -0.0366775 -5.32666e-20)
(0.453905 -0.050066 -6.3335e-20)
(1.09995 0.127146 1.01709e-20)
(-0.0552804 -0.0381227 0)
(1.05292 0.112388 7.04106e-21)
(1.12468 -0.126449 2.3671e-20)
(1.10791 -0.118818 -2.28239e-20)
(1.27614 0.1064 0)
(1.50821 -0.20148 8.32489e-20)
(1.05405 0.00516416 -3.19935e-21)
(-0.0214034 -0.0465159 -3.74336e-20)
(0.39528 0.0955287 0)
(0.995359 -0.0149637 -1.85008e-21)
(1.09272 0.0610553 -8.85157e-23)
(1.01657 -0.284042 8.6234e-21)
(1.13143 -0.0313162 -1.9649e-21)
(1.09836 0.0585659 0)
(1.17513 -0.162092 -1.65178e-20)
(-0.135504 -0.0786635 -8.19245e-20)
(1.29314 0.0134434 2.27029e-20)
(1.10629 0.167002 -9.06183e-21)
(1.04317 0.0310586 7.7704e-21)
(-0.0419963 -0.0695821 1.77003e-20)
(-0.0266299 0.0562809 -7.35791e-20)
(0.86543 0.101534 0)
(0.816481 0.188885 0)
(1.16781 0.086654 -9.51156e-21)
(1.04295 0.0654699 1.03144e-20)
(1.03996 -0.0118915 0)
(0.659251 0.0323638 5.95532e-20)
(0.783358 0.0871555 -1.28293e-20)
(1.10854 0.0942797 0)
(1.04231 0.0178523 0)
(1.3325 0.193614 0)
(1.04094 0.00315635 0)
(1.0359 0.0191992 2.34665e-21)
(-0.0418122 0.0460459 3.95902e-20)
(1.03353 -0.00160825 4.21472e-21)
(1.44075 -0.169079 -9.51596e-20)
(1.02866 0.0106334 -4.37849e-21)
(0.0864616 -0.0265326 0)
(1.12232 -0.0892442 0)
(0.868651 0.00674036 -1.26969e-21)
(0.574497 0.00857723 -6.58699e-20)
(0.0832674 0.0355565 5.31427e-20)
(1.0599 -0.015238 1.51596e-21)
(0.760653 -0.274603 0)
(0.703375 -0.0899312 0)
(1.04191 -0.00188602 0)
(0.543472 0.516242 2.92307e-20)
(-0.0236326 0.0550116 -3.43197e-20)
(1.04506 0.000241794 -1.78267e-21)
(-0.0371139 -0.0586932 7.16204e-20)
(1.03572 0.00513204 2.57176e-21)
(1.17669 0.305401 2.43377e-20)
(1.11964 -0.0786464 6.61815e-21)
(0.46734 -0.103025 8.23636e-20)
(1.05068 0.0590471 3.65416e-21)
(1.12837 -0.0810685 0)
(0.572106 0.275354 0)
(1.04873 0.00505739 3.94228e-21)
(-0.347229 0.0660543 0)
(0.792731 0.029827 2.72496e-21)
(0.609121 -0.419594 -3.47706e-21)
(0.256282 0.0502145 -1.22658e-19)
(1.12891 -0.216824 2.56466e-20)
(1.04781 0.366826 9.12512e-21)
(0.970449 0.018077 0)
(1.01503 0.00171781 3.59246e-22)
(0.867242 -0.0103092 0)
(1.0265 0.0080126 3.73039e-22)
(0.470506 -0.0152309 0)
(0.709803 0.140181 0)
(0.990326 -0.0359302 -2.67125e-21)
(1.45388 0.139889 -1.76449e-20)
(1.03213 -0.00650837 2.54173e-21)
(0.524046 -0.492536 0)
(1.12959 -0.142513 9.63354e-22)
(0.805619 0.385735 6.57576e-20)
(-0.0363962 0.017326 1.30857e-21)
(1.17561 -0.0753343 1.107e-20)
(1.18553 -0.0297635 -1.30708e-20)
(1.03027 0.00120433 8.40484e-22)
(0.918959 -0.00550122 -2.84403e-21)
(0.0713696 0.019004 4.19682e-20)
(-0.035584 0.0104118 -6.17069e-20)
(-0.382657 0.0310984 0)
(-0.308724 0.162652 0)
(1.193 -0.61196 3.4455e-20)
(1.09946 -0.0435731 2.43758e-22)
(0.900315 -0.466972 -4.74413e-20)
(1.05388 0.126939 -1.59876e-20)
(1.39628 0.175824 3.95571e-20)
(0.611186 0.424349 0)
(0.246655 0.41704 -1.07576e-19)
(0.596234 0.485874 0)
(0.217436 0.0621261 0)
(1.12339 -0.467716 0)
(-0.0736506 0.102383 -5.64484e-22)
(1.16457 0.0101099 0)
(0.944582 0.165543 4.65903e-21)
(0.597701 0.694613 2.06044e-20)
(1.27642 0.187254 -4.00328e-21)
(-0.0301743 -0.11456 -1.25752e-19)
(0.901764 0.170128 2.3051e-20)
(0.470408 0.147673 -1.47454e-20)
(1.18898 0.0655688 0)
(1.3777 0.342153 4.37469e-20)
(1.23367 0.563135 1.38558e-20)
(0.180696 -0.023114 -2.49014e-20)
(1.06449 0.125563 3.70151e-20)
(1.00064 -0.0132458 1.09073e-21)
(1.01856 -0.00991485 -3.74474e-22)
(0.000924643 -0.0336279 0)
(0.645051 -0.646531 -2.88493e-20)
(0.611964 0.212221 0)
(0.12165 -0.113146 0)
(-0.0495466 0.080436 0)
(0.0058251 -0.119599 -4.82723e-20)
(1.20804 -0.0483099 -1.27207e-20)
(-0.0124321 0.094446 0)
(-0.0406888 0.0978785 0)
(1.45646 0.0769639 -8.93011e-20)
(-0.0327076 -0.0914331 5.67361e-20)
(0.114852 0.236705 -9.67375e-20)
(0.420536 0.0156126 0)
(0.168439 -0.273882 7.88599e-20)
(1.11513 -0.236906 0)
(0.996468 -0.273348 0)
(0.0246112 -0.102187 1.19546e-19)
(1.1407 0.00170211 2.007e-23)
(1.13331 0.342244 2.39651e-20)
(0.281995 0.0281473 5.10311e-20)
(0.402887 -0.51545 -3.42498e-20)
(1.38881 0.0355215 0)
(1.26485 0.186799 2.47726e-20)
(1.25149 0.198534 -3.04216e-20)
(0.102531 0.0928918 -2.26341e-20)
(-0.107288 0.067789 0)
(1.06684 -0.0435229 -1.90591e-20)
(1.10375 -0.216745 -1.26946e-20)
(0.581066 -0.395467 0)
(1.09937 -0.14986 -2.33402e-20)
(-0.0362318 0.128915 0)
(0.669785 0.0517233 0)
(1.40033 0.0898639 3.41086e-20)
(1.04944 0.00401915 3.88964e-22)
(1.08345 0.742753 -1.06557e-20)
(0.224239 -0.375771 1.26833e-19)
(1.05732 -0.00400182 7.46351e-22)
(1.19984 0.058059 2.13779e-21)
(-0.0600179 0.134151 3.48172e-20)
(0.793365 0.735367 2.19803e-20)
(1.35346 -0.35599 -1.37992e-20)
(-0.0049815 0.0342713 8.00674e-20)
(1.06407 0.0122902 0)
(0.428939 -0.0673864 -1.11582e-20)
(0.904786 -0.635725 3.13632e-21)
(0.911362 0.644823 -2.65347e-20)
(0.581973 -0.0296162 -7.06581e-20)
(1.1209 -0.0237718 1.16406e-21)
(1.08476 -0.0854039 5.84735e-21)
(1.14562 0.0137822 3.46525e-21)
(1.12221 0.112617 1.0444e-21)
(1.12664 -0.117144 0)
(0.95475 0.101696 1.62201e-20)
(0.904343 0.462507 0)
(1.16559 0.0725071 -3.07791e-21)
(1.17673 0.101747 -2.63731e-21)
(0.775122 0.267113 0)
(0.545119 0.112067 1.17002e-19)
(0.898152 0.714366 -8.22672e-22)
(1.08111 0.288134 -1.84046e-20)
(1.0245 -0.00677294 1.0781e-20)
(0.415346 0.496073 0)
(1.29961 -0.461691 0)
(0.940904 -0.174566 6.07875e-21)
(1.28085 0.500165 0)
(-0.0162083 0.0605284 -4.75513e-20)
(1.286 -0.403678 -1.63319e-20)
(1.17496 0.506667 0)
(0.45158 0.225876 1.62551e-19)
(1.14856 0.315396 -1.32257e-19)
(0.811886 -0.63055 -2.41076e-20)
(1.14235 0.00619131 -4.90131e-22)
(0.949557 0.151836 9.05203e-20)
(1.08468 0.169299 4.44865e-20)
(1.07991 0.704408 -1.86761e-21)
(0.89798 -0.426489 6.13989e-20)
(1.43057 0.14201 4.7797e-20)
(1.13698 -0.00937478 -2.41401e-23)
(0.0130761 -0.0605379 1.05352e-19)
(1.08462 -0.697346 3.21844e-20)
(0.870016 -0.713888 4.85216e-20)
(0.25007 -0.325167 0)
(0.97297 -0.14944 6.81492e-20)
(0.361792 0.314869 -4.22119e-19)
(-0.179732 0.0263237 3.10934e-20)
(0.281063 0.0600288 2.53178e-20)
(0.70738 -0.0558684 -8.25876e-20)
(1.08775 0.530374 0)
(0.993176 0.222154 7.32149e-20)
(1.05982 0.0202712 2.51961e-21)
(0.913896 0.447996 -8.4785e-20)
(0.783246 -0.72271 -7.58144e-21)
(0.926545 0.0228316 -4.67356e-20)
(0.983453 0.492424 0)
(1.15088 0.161535 -6.31399e-22)
(1.38364 -0.504646 1.49168e-20)
(1.22828 -0.329353 1.02162e-20)
(-0.274766 0.0363461 4.42545e-20)
(0.194093 0.0113135 -1.75814e-20)
(0.965705 -0.114456 -5.53138e-20)
(0.35377 0.528451 0)
(0.92077 0.0200551 3.7239e-20)
(1.16987 0.635916 9.05262e-20)
(-0.116212 -0.0715429 1.75677e-19)
(-0.082916 0.137855 -2.95223e-20)
(-0.165249 -0.0510856 4.63453e-20)
(1.10022 0.000215493 -3.27779e-21)
(1.14422 -0.460056 0)
(1.06599 -0.72638 -3.65596e-20)
(0.698332 0.357176 0)
(0.0520265 -0.0928825 -1.27645e-19)
(1.06228 -0.0193199 3.17565e-21)
(-0.0615332 -0.0755292 -3.29726e-20)
(1.05384 0.0498302 -1.26812e-20)
(0.116517 0.0297486 6.16821e-20)
(0.888766 0.127671 0)
(1.35298 0.0383739 4.63641e-20)
(0.0966007 0.0816679 -2.87423e-20)
(-0.374849 0.0192037 -5.25348e-20)
(-0.383149 0.124746 0)
(0.0945315 -0.0153841 0)
(1.31552 0.0344385 -1.40996e-20)
(0.40407 -0.00817137 1.71094e-19)
(1.27047 -0.720282 -2.90984e-20)
(1.05369 -0.226758 3.59991e-20)
(1.06922 0.245364 -2.5683e-20)
(0.366073 -0.551529 1.35399e-19)
(1.56589 0.256353 -3.94481e-20)
(0.0917864 -0.0777588 4.09929e-20)
(0.207904 0.311236 1.8841e-19)
(0.119397 -0.0431475 -1.53145e-19)
(0.939577 -0.481429 -4.15088e-20)
(1.47374 0.376743 4.04401e-20)
(0.56556 -0.671852 4.67474e-20)
(1.11147 -0.0583215 -5.97045e-21)
(0.296418 9.15411e-05 6.93397e-20)
(1.2167 0.28857 -5.35351e-20)
(0.66337 0.643795 -3.75566e-20)
(1.34675 -0.619037 0)
(1.44125 0.514474 3.72064e-20)
(1.05069 -0.517833 -1.25412e-20)
(1.40444 0.602015 -1.15673e-19)
(1.16019 0.0480143 0)
(-0.0511491 0.120356 0)
(1.26086 0.726556 0)
(1.0437 0.00563268 -4.76076e-21)
(0.737231 -0.291578 -1.98879e-19)
(0.476178 -0.0737732 0)
(-0.0488417 0.155344 -2.94875e-20)
(1.02489 -0.238761 9.12592e-20)
(-0.471028 0.0470077 0)
(0.321495 0.0333094 1.18786e-20)
(1.11668 0.0569187 0)
(1.44471 0.262935 0)
(1.16321 0.030601 5.24851e-22)
(0.360233 -0.284669 0)
(1.01277 0.155147 3.34372e-20)
(1.33401 0.27529 0)
(-0.109785 0.152159 -7.49426e-22)
(0.808667 -0.385489 0)
(1.52843 0.317967 -5.9996e-20)
(1.25037 0.364329 -4.65018e-21)
(0.843898 0.647423 -9.05567e-21)
(1.00582 0.159059 -8.10724e-20)
(0.977015 -0.198677 -4.49494e-20)
(1.47061 0.276836 3.51888e-20)
(1.08167 0.096344 0)
(0.562621 -0.062082 0)
)
;

boundaryField
{
    FrontBack
    {
        type            empty;
    }
    Top
    {
        type            noSlip;
    }
    In
    {
        type            fixedValue;
        value           uniform (1 0 0);
    }
    Bottom
    {
        type            noSlip;
    }
    Out
    {
        type            zeroGradient;
    }
    circle
    {
        type            noSlip;
    }
}


// ************************************************************************* //
