/*--------------------------------*- C++ -*----------------------------------*\
| =========                 |                                                 |
| \\      /  F ield         | OpenFOAM: The Open Source CFD Toolbox           |
|  \\    /   O peration     | Version:  2412                                  |
|   \\  /    A nd           | Website:  www.openfoam.com                      |
|    \\/     M anipulation  |                                                 |
\*---------------------------------------------------------------------------*/
FoamFile
{
    version     2.0;
    format      ascii;
    arch        "LSB;label=32;scalar=64";
    class       volVectorField;
    location    "24.3";
    object      U;
}
// * * * * * * * * * * * * * * * * * * * * * * * * * * * * * * * * * * * * * //

dimensions      [0 1 -1 0 0 0 0];

internalField   nonuniform List<vector> 
808
(
(0.895646 -0.0105359 0)
(1.0192 -0.0360098 0)
(1.20818 -0.057133 0)
(1.06782 0.00955535 -2.53784e-21)
(1.47168 -0.283766 0)
(0.959107 -0.0285889 0)
(1.13341 -0.0465312 -2.54762e-21)
(1.1271 -0.0383531 0)
(1.34235 -0.223931 2.26205e-20)
(1.2258 -0.0914526 -4.58689e-21)
(1.25981 -0.0274908 6.26036e-21)
(1.37362 -0.249861 0)
(0.990016 -0.0389043 0)
(0.744208 -0.020267 0)
(0.962556 0.0629422 1.83272e-20)
(1.08118 -0.0275279 0)
(0.852891 0.0530974 -6.25197e-21)
(0.981248 -0.0264612 -9.42844e-23)
(1.25843 -0.00211372 0)
(1.11968 -0.00198394 0)
(1.25073 -0.023168 -8.7364e-21)
(0.927614 0.124341 1.13498e-19)
(1.07504 0.0121229 -1.39734e-20)
(1.17723 -0.0465803 0)
(0.95419 0.187327 0)
(1.34496 0.0554769 -3.12467e-20)
(1.27587 -0.17459 5.82392e-21)
(0.9676 -0.0375108 -4.77515e-21)
(1.07917 -0.0252821 0)
(1.04994 0.0360765 -2.35599e-22)
(0.986406 -0.0272683 5.05735e-24)
(1.12485 -0.0205957 0)
(1.05337 0.0474284 0)
(1.08093 -0.0357273 3.97503e-21)
(1.29464 -0.082454 6.56912e-21)
(0.742974 -0.111404 1.12914e-19)
(0.873783 -0.026954 -6.66568e-21)
(1.03566 0.0454963 9.69758e-22)
(1.19016 0.0525589 -2.12427e-21)
(1.09469 0.0414299 0)
(1.25434 -0.0784781 -1.20293e-20)
(1.27068 -0.135673 0)
(1.00832 -0.00431882 -8.07036e-21)
(1.14046 -0.0369434 7.10987e-21)
(1.2531 -0.0849099 0)
(1.01163 0.0177851 -2.05307e-20)
(1.00447 0.0382006 1.82269e-21)
(1.24904 -0.247111 1.32332e-21)
(1.17749 0.0552714 -3.90567e-21)
(1.3951 -0.176189 -3.26777e-20)
(1.13044 -0.0363197 4.95214e-21)
(1.14755 -0.0712152 0)
(1.12004 -0.00125207 7.21229e-21)
(1.16973 -0.0313223 0)
(1.32541 0.234404 3.72817e-21)
(1.07628 0.0477163 -1.55041e-21)
(1.24457 -0.0234193 0)
(1.24547 -0.0934023 2.04793e-21)
(1.22959 -0.0976506 4.92374e-21)
(1.15208 0.030993 -2.15869e-23)
(-0.193867 0.121922 0)
(1.21306 -0.211933 -4.78542e-21)
(1.21117 -0.0804475 0)
(1.40628 -0.0988949 -2.40181e-20)
(1.15994 -0.0529726 -7.56742e-21)
(1.04104 -0.0285311 -8.0833e-21)
(1.32552 -0.109547 2.41196e-20)
(0.647959 0.0175932 0)
(1.16872 -0.0473221 0)
(1.43808 -0.347472 0)
(0.895597 0.0291607 -1.68183e-22)
(1.24602 -0.136537 -3.96331e-20)
(1.00785 0.044835 0)
(1.05862 -0.0478494 -3.64211e-21)
(1.12042 -0.332421 -5.8696e-20)
(1.13287 -0.0376527 -1.02608e-20)
(1.1521 0.0167263 2.6122e-22)
(1.32167 0.50048 2.48049e-20)
(1.10576 -0.0403269 0)
(1.01389 0.284792 -1.88506e-19)
(1.36435 0.023266 1.683e-20)
(0.749657 0.0171334 0)
(0.846544 0.0327008 -9.41573e-21)
(0.968923 -0.10859 4.38834e-21)
(1.13178 -0.0406184 8.06009e-21)
(1.19567 0.00313284 1.23538e-21)
(1.28577 -0.231203 0)
(1.34855 0.290479 0)
(1.09214 -0.00219892 -1.31301e-20)
(1.41895 0.0966414 3.48074e-20)
(1.08003 -0.0224754 1.31055e-20)
(1.31307 -0.123769 -1.2584e-21)
(0.964641 0.0256522 1.77304e-20)
(1.00397 -0.0241071 0)
(1.11444 0.0155924 1.61261e-21)
(1.24497 -0.0614293 -5.70141e-20)
(0.751439 0.0205728 -1.87054e-21)
(1.36731 -0.0580491 0)
(1.31462 -0.0973935 0)
(1.40675 -0.0797951 -3.93797e-20)
(1.10988 -0.0406365 -3.4034e-21)
(1.12912 0.00366475 -5.94535e-23)
(0.951483 0.0215542 1.1084e-20)
(1.18927 -0.0139896 -3.0711e-22)
(1.31351 -0.0035521 -1.7178e-20)
(1.00231 0.00536422 1.37725e-20)
(1.47903 -0.0856038 0)
(0.882314 0.142547 0)
(1.10172 0.0326549 3.34513e-21)
(1.19957 -0.218234 -8.20556e-21)
(1.27818 -0.0162591 1.00725e-20)
(1.04732 0.0469601 -1.25131e-19)
(1.1626 0.0391881 -1.30435e-21)
(1.19371 0.172611 4.13654e-21)
(0.791696 0.0216735 0)
(0.917842 -0.046277 7.73775e-20)
(1.15021 0.0178373 -4.66439e-21)
(1.43054 -0.25582 -1.68237e-20)
(1.137 -0.0532975 -6.78524e-21)
(0.930006 0.0152268 2.50984e-21)
(-0.343616 0.00283068 0)
(0.858363 -0.0182429 2.16458e-21)
(0.804043 0.0232421 0)
(1.06293 0.00101834 -9.42028e-23)
(1.01267 0.028978 0)
(1.31324 0.323872 5.91319e-21)
(1.03452 -0.0533188 -3.26063e-20)
(1.35026 0.186309 5.80612e-22)
(1.14695 -0.0686688 0)
(1.09294 -0.022624 0)
(0.602805 0.0189044 0)
(1.141 -0.0396038 -3.29553e-21)
(1.2447 -0.0561128 6.68994e-21)
(1.06803 0.11258 -3.4775e-20)
(0.845979 -0.0277878 0)
(1.10698 0.0211077 -1.05481e-21)
(0.997765 -0.0157096 4.56335e-21)
(1.13871 0.00101023 -2.26142e-21)
(0.995922 0.0346861 2.96554e-21)
(1.13229 0.00273015 4.98417e-23)
(0.00209517 0.0826251 0)
(1.09515 -0.0262161 -1.45705e-20)
(1.06707 -0.0831113 2.06742e-21)
(0.718045 0.0251291 -2.65288e-21)
(1.26355 0.174768 3.58245e-21)
(1.02021 0.148347 5.40767e-21)
(1.04657 0.0173143 1.71952e-20)
(0.990522 0.0259586 0)
(1.1596 -0.187732 -1.59079e-20)
(1.04986 0.11695 0)
(0.943075 0.0313483 5.46534e-21)
(0.968302 0.283413 1.50708e-19)
(0.972951 0.0363263 0)
(0.818464 0.101944 0)
(-0.0927174 0.0859225 -6.46066e-20)
(1.34783 0.139307 -1.1525e-20)
(0.687119 -0.0231823 0)
(1.47436 0.0277066 0)
(1.09833 -0.0885799 0)
(1.36484 0.094228 1.3638e-20)
(-0.0451415 -0.0743566 0)
(-0.0509318 0.0992145 3.06401e-20)
(1.00372 -0.0282014 7.82702e-20)
(1.00952 0.0390933 8.41506e-22)
(0.859268 -0.000523399 0)
(1.03739 -0.0509779 9.85646e-21)
(0.893915 0.0216996 0)
(0.732957 -0.00690862 -8.45932e-20)
(1.03225 0.0497797 6.74295e-21)
(1.14902 -0.0472841 2.48874e-21)
(1.09617 0.00813983 6.26577e-21)
(1.01452 0.0703543 -1.23698e-20)
(0.691373 0.129487 -5.38373e-21)
(1.13501 -0.347769 6.52847e-22)
(0.918518 -0.023612 0)
(1.06896 -0.000169971 -1.40262e-20)
(0.873363 0.00960733 -1.12753e-20)
(1.36759 -0.165337 1.91061e-21)
(0.686909 0.0238134 0)
(1.05168 -0.138708 0)
(1.12755 -0.0603622 3.07224e-21)
(1.39227 0.220516 9.1228e-21)
(1.11801 0.0138894 4.43127e-21)
(1.03621 0.016524 2.00086e-20)
(0.753181 0.083179 -8.26318e-20)
(0.813215 0.00400359 2.02762e-20)
(1.13601 -0.0181412 4.56219e-21)
(1.3666 -0.0779451 -4.1596e-21)
(1.12193 -0.0505829 -5.0692e-21)
(1.30684 -0.0559396 3.56429e-21)
(-0.0952096 0.110633 4.69246e-20)
(1.26908 -0.0489321 0)
(0.618156 -0.0192156 0)
(1.0605 -0.0294461 -6.92011e-21)
(1.102 0.00924643 5.82005e-21)
(0.0606063 0.110142 0)
(0.879767 -0.0246889 4.2145e-22)
(1.1243 -0.0613971 -2.62806e-21)
(0.95595 0.0223738 5.22157e-22)
(1.07913 0.038866 -7.68436e-21)
(1.00582 0.0202281 2.70185e-21)
(1.04453 -0.0537096 2.31828e-21)
(1.05843 0.0356694 0)
(0.352258 -0.032297 0)
(1.04884 -0.0635628 0)
(1.13869 0.113782 -2.61956e-20)
(-0.0513227 -0.0624848 4.4926e-20)
(1.07406 0.0309686 -7.372e-24)
(1.17879 0.019859 0)
(0.756888 0.0222854 -5.42049e-21)
(1.14878 0.0309909 1.12765e-21)
(-0.00109137 -0.0391058 -1.49216e-19)
(0.748622 0.0324373 -4.05155e-20)
(0.637323 -0.0198536 0)
(0.93007 0.0333311 0)
(0.933037 0.0310748 6.581e-21)
(1.02099 -0.104347 5.73691e-21)
(1.27884 0.400123 -3.1112e-21)
(1.11234 -0.0341131 1.05565e-22)
(1.18036 -0.100719 -3.75823e-21)
(0.980692 0.0622697 0)
(1.36206 0.426663 -3.2725e-20)
(0.660229 -0.0188406 0)
(0.796195 -0.0232505 -3.60744e-21)
(1.05974 -0.0314968 3.64762e-22)
(0.594046 0.0157462 0)
(1.1003 -0.00631482 0)
(0.0174899 0.0854473 -3.6285e-20)
(1.17499 -0.149941 -3.52282e-21)
(0.719906 -0.0161623 2.76023e-21)
(0.990196 -0.00303262 0)
(0.55485 -0.017091 0)
(0.752519 -0.0199736 -3.49896e-21)
(0.539677 -0.019602 -7.34319e-22)
(1.34917 0.0224312 3.10906e-22)
(1.29963 0.0724077 -6.00965e-22)
(0.692042 0.0192295 -1.33252e-21)
(1.14922 -0.0365015 1.8827e-22)
(1.17737 -0.0808418 -9.94757e-23)
(0.541267 0.0166206 3.61798e-21)
(1.25558 -0.0673517 1.10183e-22)
(1.20151 -0.0818705 0)
(0.901424 -0.0379475 0)
(0.487918 0.0187978 0)
(1.04529 -0.0268759 0)
(1.18437 0.00232943 -1.28149e-21)
(1.06248 -0.0816675 0)
(1.17018 -0.0498756 0)
(0.981053 -0.0571822 0)
(1.06129 0.0459747 0)
(-0.0260187 -0.0426664 4.52456e-20)
(1.21488 -0.017617 7.47487e-22)
(1.02022 -0.0208729 0)
(1.32414 -0.0280599 1.13973e-20)
(1.15121 0.0179484 1.06458e-21)
(1.12392 0.0498052 -4.26733e-23)
(1.13029 -0.0414927 4.78331e-21)
(1.14582 -0.0342897 0)
(0.575851 -0.0165497 7.25616e-21)
(1.05231 0.0444681 1.20308e-20)
(1.25497 -0.10609 0)
(1.24113 -0.00112544 -1.07921e-21)
(1.17447 0.0578811 2.13014e-21)
(0.735793 0.177561 7.29659e-21)
(1.15292 0.0249191 3.69139e-21)
(1.19137 0.0524032 -6.21594e-21)
(1.09148 0.12157 0)
(1.14543 0.0947196 -1.68818e-20)
(1.17552 0.11663 -1.5222e-21)
(0.620303 -0.166948 8.42285e-21)
(0.877917 -0.000127795 0)
(-0.0127838 -0.0220177 0)
(0.973525 0.113358 -1.80392e-20)
(1.15571 -0.0177095 0)
(1.28244 -0.0943024 2.25226e-20)
(1.20764 0.0683104 3.68616e-22)
(1.17793 0.0371353 5.97581e-21)
(1.14678 0.0707386 -1.95365e-21)
(1.33313 -0.0240536 8.05998e-20)
(1.01661 -0.322257 5.92567e-20)
(1.10396 -0.0431961 -2.39095e-22)
(0.960121 -0.0478638 0)
(0.937123 0.125168 0)
(0.906127 0.00250327 -2.91202e-20)
(1.30799 -0.182271 -5.7772e-20)
(1.14276 0.0242967 0)
(0.536853 0.0132739 1.79388e-20)
(0.435536 0.223346 0)
(0.666395 -0.0310586 7.85792e-21)
(0.729083 -0.051192 -2.12306e-20)
(0.819969 0.0251572 -4.16479e-21)
(1.1356 -0.0489466 0)
(1.31339 0.129983 -4.29999e-22)
(1.20583 0.113651 8.38774e-22)
(0.663894 -0.156536 -7.68024e-21)
(1.14563 0.0180585 -4.20414e-21)
(0.731098 -0.152495 0)
(1.09285 0.0712803 0)
(1.06667 -0.0906901 1.08667e-20)
(0.767835 -0.114283 -7.9379e-21)
(1.29798 0.0864573 2.55463e-21)
(1.11868 -0.0149974 -4.23884e-21)
(1.05282 0.0731349 -5.79866e-23)
(1.11463 -0.0048534 0)
(0.418127 -0.138456 1.3508e-20)
(1.34737 0.086622 -2.08876e-20)
(0.818684 -0.135104 -9.93028e-21)
(0.12543 -0.0266302 -7.71566e-21)
(1.40952 -0.13732 2.19724e-20)
(0.942137 -0.00357194 7.63124e-20)
(1.20302 -0.0308268 -1.11333e-20)
(1.08898 -0.0324914 1.55924e-23)
(-0.0703364 -0.0488165 -7.68929e-21)
(1.00046 -0.00701326 0)
(1.03305 -0.0858253 -1.64153e-20)
(0.850921 -0.0347258 7.36658e-21)
(1.11248 -0.0487006 4.32616e-21)
(0.798186 -0.15884 1.2343e-21)
(0.505672 -0.0223497 1.52635e-22)
(1.41173 -0.381134 -1.55274e-20)
(1.12696 0.0230086 0)
(1.01743 0.0189058 -7.19289e-22)
(1.14049 0.0286782 -2.31682e-21)
(1.20372 0.0554802 0)
(0.682633 0.102141 -9.61738e-21)
(1.12476 0.0314616 3.09128e-21)
(0.699307 -0.153734 1.1221e-20)
(1.14433 -0.0431057 2.69968e-21)
(0.813724 0.0207514 5.85056e-21)
(-0.0387152 0.00674113 0)
(0.523993 0.0252436 3.1736e-20)
(1.16706 0.0194884 0)
(1.05971 0.164775 2.14436e-20)
(0.989101 0.236889 0)
(1.13049 -0.0117934 2.5683e-21)
(1.01627 0.027137 0)
(1.00004 0.0267256 0)
(1.38032 -0.117074 1.7639e-20)
(0.795517 -0.084379 0)
(1.18605 -0.0546473 7.33237e-21)
(1.13013 -0.0263923 2.28319e-22)
(1.0583 0.0283665 2.78414e-21)
(1.2908 -0.0977383 -1.45325e-20)
(1.24717 0.121496 -4.12198e-21)
(1.29882 -0.145534 4.83792e-21)
(1.13693 0.0129831 0)
(1.1583 -0.0322554 0)
(1.0905 0.0336236 2.34353e-21)
(1.22703 -0.0403835 0)
(1.40695 0.221217 -2.38759e-20)
(0.833615 -0.0925861 -1.91354e-21)
(1.02706 0.0164161 2.22781e-20)
(1.2726 -0.015318 -2.43049e-22)
(-0.0118822 0.0100285 0)
(-0.0330696 -0.0605214 0)
(-0.0052288 0.138084 -3.71097e-20)
(-0.0736142 -0.0496272 0)
(0.677261 -0.0161653 -2.79346e-21)
(1.17188 0.0392162 -1.73955e-21)
(1.15364 -0.011717 -4.84402e-21)
(1.19064 -0.08023 -5.65941e-21)
(1.19662 -0.0564482 0)
(0.679207 -0.0197926 -2.07424e-21)
(1.1182 0.0510692 0)
(1.11276 0.0175139 9.06338e-22)
(0.508735 -0.108894 0)
(0.774718 0.0334052 -5.05341e-23)
(1.10292 0.0720657 0)
(1.16959 0.0394192 0)
(0.503671 0.0264614 2.49394e-20)
(0.520734 0.186438 -1.47713e-21)
(0.816407 0.0705542 4.70796e-21)
(1.01095 0.0178692 -9.70532e-21)
(0.186101 -0.0491949 0)
(1.26048 -0.110117 -8.10008e-21)
(1.26442 0.069612 -6.28553e-21)
(1.20616 -0.149678 7.46896e-22)
(0.586276 0.131759 7.96363e-21)
(-0.0555314 -0.0150719 -9.25533e-20)
(1.14965 0.0940907 0)
(-0.0323207 0.0376287 0)
(1.20583 0.1034 -7.41522e-22)
(0.31559 0.246711 -8.56906e-21)
(1.16474 0.0506558 -7.89433e-21)
(1.11137 -0.0388201 0)
(1.18673 -0.0212561 3.70499e-21)
(1.21144 -0.235141 1.51927e-20)
(0.55531 -0.0400454 -9.49843e-21)
(1.13857 -0.0349214 -1.04679e-21)
(1.15791 -0.0420645 -2.66465e-22)
(0.125526 -0.311168 2.10714e-20)
(1.22374 -0.0157581 -1.59683e-20)
(1.15148 0.030937 0)
(1.14225 0.0944706 0)
(1.16511 -0.059752 2.0441e-21)
(1.22156 0.0687124 5.68043e-21)
(0.6837 -0.25508 -4.34188e-20)
(1.19008 -0.119047 -1.65851e-20)
(1.13964 0.0589905 1.40889e-21)
(0.518164 -0.000527335 1.16796e-20)
(0.147036 0.0522046 -5.04013e-20)
(0.187686 -0.325368 3.14597e-20)
(1.17403 0.188667 -6.5329e-21)
(1.23233 -0.491986 4.86749e-21)
(1.38113 0.0213773 -1.10443e-20)
(1.18564 -0.0514184 -2.42239e-21)
(0.935136 -0.231534 9.57803e-20)
(-0.380279 -0.212221 0)
(1.22416 -0.0463281 -1.41446e-22)
(-0.0401925 -0.0265022 -1.87976e-20)
(1.18822 0.120859 6.41666e-22)
(1.16968 -0.0970053 5.7324e-21)
(1.08837 0.0341981 0)
(0.427298 0.0574724 0)
(1.17088 -0.055918 0)
(1.36622 0.186236 -1.0453e-20)
(1.2601 -0.036135 -2.01271e-20)
(1.14165 -0.0410196 -2.39349e-22)
(0.453343 0.0168004 0)
(0.604031 0.0109282 0)
(0.6035 -0.00327817 5.53731e-22)
(0.421207 -0.0129638 0)
(1.21017 0.0763392 0)
(1.0206 -0.014845 2.56674e-20)
(0.0756508 0.0376787 0)
(0.922203 0.0445606 0)
(1.14384 -0.0135222 0)
(1.174 0.184442 -8.96508e-21)
(1.28057 0.0200037 9.27349e-21)
(0.965218 -0.03043 6.90605e-21)
(1.29409 -0.398528 -1.07097e-19)
(0.418558 -0.132241 -6.14239e-21)
(1.17858 0.0531775 6.28336e-21)
(1.19211 0.0555848 0)
(-0.216455 -0.239093 0)
(-0.223152 0.177505 0)
(1.15675 -0.037176 -2.89665e-21)
(1.31739 -0.288088 -2.20421e-20)
(1.37827 0.0672682 0)
(1.07687 0.0373832 -7.42541e-21)
(0.579474 -0.0997826 0)
(1.50019 -0.162434 6.84525e-20)
(0.412926 0.521801 1.17684e-19)
(0.293998 -0.0381485 0)
(1.10177 -0.275412 1.1496e-19)
(-0.00585989 -0.0921965 0)
(-0.228126 -0.339539 -5.11025e-21)
(1.38532 0.059656 0)
(-0.199247 0.0950054 3.56463e-21)
(0.983641 -0.0503319 0)
(1.23128 -0.106982 -8.764e-21)
(-0.145654 0.0533439 -7.47616e-21)
(1.12291 -0.032297 9.59751e-22)
(1.18308 0.03059 -3.86507e-21)
(0.571996 -0.511282 -9.3229e-20)
(1.11439 0.0379929 -1.59234e-21)
(1.19108 -0.128291 4.77054e-21)
(1.18192 0.251625 -2.26516e-20)
(1.1493 -0.170261 3.54547e-21)
(1.15945 -0.0236839 -2.92077e-22)
(0.00162258 -0.0311648 -7.08832e-20)
(0.0616297 0.125249 -6.85205e-21)
(1.2444 0.13795 3.30538e-21)
(1.0586 -0.0504632 0)
(0.476112 0.214373 -6.5143e-21)
(1.40054 -0.438929 7.99887e-20)
(0.938087 -0.0639585 -5.90977e-20)
(1.43823 0.163096 7.25409e-20)
(1.08975 -0.0363139 3.56741e-21)
(1.18923 0.026127 1.28557e-20)
(1.06123 -0.00789262 0)
(1.18293 -0.0338888 0)
(1.21583 -0.0736853 -5.70818e-23)
(1.08812 -0.0205061 -4.5291e-21)
(1.08635 -0.130855 -3.29563e-21)
(1.09698 0.0596842 -4.8847e-21)
(1.40465 -0.0550614 -3.70644e-20)
(0.417824 0.0341703 0)
(1.15886 -0.0198371 1.21162e-20)
(1.33666 0.013837 0)
(1.11451 0.0679378 -1.29217e-21)
(1.14579 0.0227605 0)
(1.04185 -0.00961944 1.35869e-20)
(1.23927 0.0356472 1.39281e-20)
(1.02505 0.0913526 0)
(0.0582317 -0.0279875 1.56839e-19)
(0.882632 -0.210189 -7.51228e-20)
(1.19243 -0.0423415 -2.17784e-20)
(-0.118997 0.0352211 3.86661e-20)
(1.2013 0.0268944 2.69756e-22)
(0.666699 0.139834 5.23157e-23)
(-0.0938136 0.0594266 -4.03027e-20)
(-0.0237847 0.0364474 -2.53928e-20)
(1.01931 -0.0294436 0)
(-0.0310899 -0.0378823 0)
(1.18689 -0.0438645 0)
(0.111877 -0.100302 0)
(1.1145 -0.0280334 0)
(0.1466 0.0321642 0)
(1.13495 0.0438631 0)
(1.17524 0.00486106 0)
(1.39597 0.120871 1.6694e-21)
(0.577375 -0.285537 -2.10043e-20)
(-0.111249 0.168016 0)
(1.13782 -0.0853608 6.14957e-20)
(1.25472 0.015462 2.81865e-21)
(1.20679 -0.0454013 0)
(-0.0363688 -0.0419531 0)
(1.16391 0.00761718 2.21798e-21)
(1.16943 -0.0147138 -1.42588e-21)
(1.1695 0.392318 0)
(0.264975 -0.0501635 6.10323e-20)
(1.12273 0.0590394 1.30148e-21)
(0.239091 -0.0510298 -5.29439e-20)
(-0.0604406 0.0438287 -2.93561e-20)
(-0.0374411 0.0492957 7.66708e-20)
(0.258778 -0.239538 3.08444e-20)
(0.968297 0.0901928 -4.92247e-23)
(1.15244 0.0688666 1.07657e-21)
(1.02397 -0.00774148 0)
(1.06969 -0.0691836 -2.25282e-20)
(1.26843 0.0186356 -9.96731e-21)
(-0.0104349 -0.0129115 9.45954e-20)
(0.978214 -0.0718315 -6.06228e-20)
(0.721833 0.218653 1.04573e-20)
(1.14505 0.0620295 -1.6217e-21)
(0.0801256 -0.0295465 3.39447e-20)
(0.252522 -0.0364264 -4.80893e-20)
(0.422917 -0.0380171 -5.53491e-20)
(1.28469 0.16616 -8.05152e-21)
(-0.0535738 -0.0376949 0)
(1.05171 0.233266 2.0645e-22)
(1.03952 -0.0485209 2.7864e-20)
(1.1093 -0.0424112 -2.68653e-20)
(1.23422 -0.00347719 0)
(1.51119 -0.222035 7.05021e-20)
(1.14369 0.0515248 -1.90052e-21)
(-0.0155826 -0.0306392 -3.23057e-20)
(0.269575 0.10176 0)
(0.89477 0.0329372 -8.46017e-22)
(1.14051 0.0174479 3.1445e-23)
(0.881256 -0.220663 2.18226e-20)
(1.16509 0.00698257 -3.74455e-22)
(1.11943 0.0511179 0)
(1.14558 -0.166773 -1.47779e-20)
(-0.105606 0.00100168 -6.40921e-20)
(1.30108 -0.0400228 1.64451e-20)
(1.10193 0.175279 -8.70545e-21)
(1.08718 0.0594917 5.58655e-21)
(-0.0424994 -0.0578182 1.52888e-20)
(-0.0218842 0.035866 -5.89691e-20)
(0.5773 0.0689925 0)
(0.697216 0.0175785 0)
(1.15422 0.102027 -1.78572e-20)
(1.05159 0.0695178 1.32189e-20)
(1.09875 0.0186962 0)
(0.458455 0.0697002 3.90476e-20)
(0.70795 0.0942078 -1.03396e-20)
(1.09999 0.111657 0)
(1.08097 0.0456228 0)
(1.30232 0.0202687 0)
(1.24837 0.0141652 0)
(1.12741 0.00196555 3.83058e-21)
(-0.0427347 0.0433732 3.20616e-20)
(1.27954 0.0582742 2.83325e-21)
(1.4025 -0.180626 -7.93848e-20)
(1.19648 -0.0197594 -6.03023e-21)
(0.0618577 0.128669 0)
(1.12832 0.0378868 0)
(0.611393 -0.014831 -2.82605e-22)
(0.522635 0.00986098 -5.49841e-20)
(0.0654918 0.0374033 4.49669e-20)
(0.924306 0.0213198 6.61392e-22)
(0.745661 -0.272156 0)
(0.68362 -0.0891013 0)
(1.181 -0.0468476 0)
(0.540621 0.515204 1.91361e-20)
(-0.0151335 0.0283476 -2.80785e-20)
(1.0701 0.01663 -5.42538e-21)
(-0.0224344 -0.0362642 6.16758e-20)
(1.11848 -0.0545234 2.2659e-21)
(1.17564 0.318081 4.32033e-20)
(1.11073 -0.087881 8.91614e-21)
(0.370065 0.00568685 9.24751e-20)
(1.08636 0.172806 3.07597e-21)
(1.06091 0.0347401 0)
(0.555488 0.270768 0)
(0.861964 0.104136 4.90526e-21)
(-0.204732 0.131612 0)
(0.608993 0.0288858 2.04941e-21)
(0.603236 -0.416389 -2.97371e-21)
(0.232029 0.0495051 -1.06784e-19)
(1.12468 -0.224981 3.40339e-20)
(1.03957 0.368234 1.04323e-20)
(0.980071 0.0201728 0)
(1.26527 -0.0455369 -4.28499e-23)
(0.629469 0.015153 0)
(0.984017 -0.018808 -6.84568e-22)
(0.446973 -0.0159128 0)
(0.712739 0.134261 0)
(1.00086 -0.0224998 -3.98283e-21)
(1.43768 0.179948 -1.31125e-20)
(1.09549 -0.0520484 3.33509e-21)
(0.521145 -0.490085 0)
(1.13302 -0.154394 2.67109e-21)
(0.805587 0.383311 7.19507e-20)
(-0.0430017 0.0198433 1.07839e-21)
(1.22445 -0.0275995 1.02771e-20)
(1.2222 0.0310697 -1.06e-20)
(1.14622 -0.102871 7.07756e-22)
(0.793564 0.0119534 -3.91977e-21)
(0.0565197 0.0191664 3.44559e-20)
(-0.0181667 0.000883714 -5.29395e-20)
(-0.192763 0.142843 0)
(-0.162385 0.24607 0)
(1.1835 -0.612469 3.13152e-20)
(1.14944 -0.0268819 2.85006e-22)
(0.888292 -0.463817 -4.16905e-20)
(1.09185 0.224883 -2.03592e-21)
(1.3636 0.205692 3.12488e-20)
(0.602738 0.420779 0)
(0.247164 0.418887 -1.16304e-19)
(0.597143 0.487308 0)
(0.0436005 0.125509 0)
(1.11945 -0.475273 0)
(-0.0455 0.0587484 -1.61447e-22)
(1.19788 -0.0255827 0)
(0.848781 -0.0183005 -2.50255e-20)
(0.59664 0.69706 2.04557e-20)
(1.33263 0.114504 1.40649e-20)
(-0.0391782 -0.0708085 -1.08485e-19)
(0.715892 0.0513135 -3.4854e-20)
(0.446017 0.143958 -1.2891e-20)
(1.20923 0.0929775 0)
(1.36063 0.361604 3.13982e-20)
(1.22406 0.571009 4.908e-21)
(0.147239 -0.0129988 -2.0203e-20)
(0.988283 0.143557 2.89999e-20)
(0.936269 -0.029347 6.05164e-22)
(0.900562 0.0228652 -1.46328e-22)
(0.00142425 -0.0297463 0)
(0.644163 -0.647262 -3.12008e-20)
(0.613881 0.206888 0)
(0.0530793 -0.0521078 0)
(-0.0462749 0.0577242 0)
(-0.0196927 -0.0557531 -4.11324e-20)
(1.24431 -0.00848103 -1.18165e-20)
(-0.0306755 0.0633394 0)
(-0.0314269 0.0566269 0)
(1.4561 0.124661 -6.98478e-20)
(-0.037312 -0.0709024 4.91323e-20)
(0.11532 0.238037 -1.01889e-19)
(0.373143 0.0187401 0)
(0.168816 -0.273534 8.25607e-20)
(1.09072 -0.237276 0)
(0.993689 -0.281483 0)
(-0.00519927 -0.060983 1.02376e-19)
(1.15172 0.0366051 -1.01809e-22)
(1.12608 0.347452 2.95288e-20)
(0.252969 0.0288489 4.36603e-20)
(0.402012 -0.514243 -3.93167e-20)
(1.28633 0.087649 0)
(1.20861 0.203113 2.03812e-20)
(1.21289 0.216857 -2.50374e-20)
(0.10272 0.0935339 -2.3645e-20)
(-0.0623909 0.0438974 0)
(1.06899 -0.0584925 -1.9595e-20)
(1.10041 -0.220813 -1.67491e-20)
(0.581368 -0.398485 0)
(1.09614 -0.147855 -2.69256e-20)
(-0.0494862 0.227332 0)
(0.578207 0.0535747 0)
(1.40316 -0.021437 2.7216e-20)
(0.97508 0.03123 2.88377e-22)
(1.07991 0.749981 -1.78321e-20)
(0.224163 -0.375204 1.35077e-19)
(1.09213 0.0420171 -3.12899e-22)
(1.21097 0.0766796 -5.70989e-22)
(-0.0468812 0.0795448 2.79731e-20)
(0.787999 0.735974 2.99553e-20)
(1.34406 -0.36506 -1.34928e-20)
(-0.200178 0.0288637 5.06771e-20)
(1.15683 0.0373507 0)
(0.263826 0.0599575 -8.45041e-21)
(0.896446 -0.633038 2.68222e-21)
(0.898977 0.642901 -1.73697e-20)
(0.556053 -0.0314127 -6.29461e-20)
(1.1447 -0.00816824 -3.44738e-21)
(1.07484 -0.0846449 7.50234e-21)
(1.17632 0.0564795 -1.11337e-21)
(1.10731 0.122417 4.85424e-21)
(1.1315 -0.128458 0)
(0.895305 0.114612 1.30702e-20)
(0.882774 0.459211 0)
(1.35838 0.111228 6.28309e-21)
(1.17122 0.115434 7.04446e-22)
(0.74476 0.264013 0)
(0.510864 0.110116 1.01851e-19)
(0.895209 0.717003 -7.79694e-22)
(1.07864 0.293652 -2.26777e-20)
(1.04271 -0.0109792 1.2822e-20)
(0.416851 0.498576 0)
(1.29192 -0.469254 0)
(0.758805 -0.0391644 6.3598e-21)
(1.26175 0.507198 0)
(-0.0278969 0.054102 -3.86478e-20)
(1.27976 -0.412983 -5.14181e-21)
(1.1675 0.515293 0)
(0.453203 0.22448 1.7098e-19)
(1.11753 0.31843 -1.12772e-19)
(0.811345 -0.634299 -2.70749e-20)
(1.18177 0.0505073 -2.02562e-21)
(0.90573 0.153159 7.53703e-20)
(1.08938 0.171126 5.53008e-20)
(1.07152 0.707801 1.20959e-21)
(0.90059 -0.433412 6.71246e-20)
(1.43853 0.191051 3.65598e-20)
(1.13115 0.00722004 -7.60877e-22)
(0.0108234 -0.0481299 9.28717e-20)
(1.07882 -0.698287 2.32248e-20)
(0.867421 -0.714739 5.63176e-20)
(0.25008 -0.324266 0)
(0.971748 -0.146215 7.50396e-20)
(0.363387 0.315473 -4.43713e-19)
(-0.121142 0.153394 2.00964e-20)
(0.221956 0.04628 1.99937e-20)
(0.682938 -0.056331 -7.40811e-20)
(1.08129 0.534576 0)
(0.990716 0.224192 8.33277e-20)
(1.08774 0.0306372 3.73075e-21)
(0.912817 0.447602 -9.27653e-20)
(0.778419 -0.721028 -9.06283e-21)
(0.929656 0.0253064 -4.99668e-20)
(0.979751 0.495029 0)
(1.24969 0.107482 -1.22969e-20)
(1.3767 -0.511021 1.26828e-20)
(1.224 -0.337479 9.21121e-21)
(-0.196968 0.165292 3.46669e-20)
(0.194496 0.0127205 -1.83588e-20)
(0.972557 -0.116818 -5.92506e-20)
(0.354796 0.531553 0)
(0.917947 0.0191088 3.98129e-20)
(1.15538 0.639388 7.45848e-20)
(-0.100551 0.0161119 1.37111e-19)
(-0.0583695 0.0791894 -2.33524e-20)
(-0.087992 -0.014431 3.92092e-20)
(1.09865 0.0236419 -5.03224e-21)
(1.12988 -0.458835 0)
(1.06236 -0.72948 -4.55994e-20)
(0.700014 0.354658 0)
(0.00434398 0.0243124 -9.98918e-20)
(1.10335 0.0400803 2.81173e-21)
(-0.036519 -0.0418528 -2.82427e-20)
(1.04825 0.0571448 -1.23113e-20)
(0.0952074 0.0299678 5.01142e-20)
(0.831371 0.129455 0)
(1.34886 -0.0510914 3.62312e-20)
(0.0406231 0.0586726 -2.27008e-20)
(-0.191745 0.190672 -4.11791e-20)
(-0.229119 0.203999 0)
(0.0891704 -0.0143595 0)
(1.3085 -0.0360625 -9.87308e-21)
(0.386567 -0.00846381 1.52923e-19)
(1.26243 -0.722263 -1.887e-20)
(0.969834 -0.0805302 4.24749e-20)
(1.07269 0.253469 -3.21535e-20)
(0.365738 -0.551061 1.42758e-19)
(1.54913 0.290627 -3.14228e-20)
(0.0723758 -0.0502126 3.60626e-20)
(0.209087 0.313426 1.97798e-19)
(0.106339 -0.028806 -1.34919e-19)
(0.939814 -0.488813 -4.43953e-20)
(1.45168 0.394408 3.19085e-20)
(0.563564 -0.671005 5.0559e-20)
(1.10613 -0.0844926 -7.5084e-21)
(0.176595 0.0988898 5.38172e-20)
(1.17153 0.294862 -4.4205e-20)
(0.663768 0.645689 -4.12858e-20)
(1.33399 -0.620017 0)
(1.41315 0.524316 3.1725e-20)
(1.0495 -0.524643 -1.23718e-20)
(1.38737 0.611263 -9.23998e-20)
(1.1943 0.0156049 0)
(-0.051998 0.0790311 0)
(1.25238 0.734406 0)
(1.25829 0.0306913 -2.74813e-21)
(0.739445 -0.29765 -2.10481e-19)
(0.477056 -0.0771558 0)
(-0.0516361 0.0922653 -2.37027e-20)
(1.02166 -0.245002 1.01898e-19)
(-0.256176 0.0959876 0)
(0.321882 0.0326938 1.24038e-20)
(1.15885 0.0292514 0)
(1.40808 0.282798 0)
(1.2039 0.0474286 2.16922e-21)
(0.36069 -0.285365 0)
(1.01271 0.152084 3.93181e-20)
(1.30227 0.292047 0)
(-0.072674 0.0931398 4.79914e-23)
(0.810565 -0.392016 0)
(1.51724 0.347399 -4.75412e-20)
(1.24122 0.374434 2.71558e-21)
(0.843402 0.652562 -1.00105e-20)
(1.01151 0.159205 -9.19145e-20)
(0.968277 -0.202061 -4.94749e-20)
(1.4507 0.30228 2.80122e-20)
(0.993126 0.1193 0)
(0.564236 -0.066364 0)
)
;

boundaryField
{
    FrontBack
    {
        type            empty;
    }
    Top
    {
        type            noSlip;
    }
    In
    {
        type            fixedValue;
        value           uniform (1 0 0);
    }
    Bottom
    {
        type            noSlip;
    }
    Out
    {
        type            zeroGradient;
    }
    circle
    {
        type            noSlip;
    }
}


// ************************************************************************* //
