/*--------------------------------*- C++ -*----------------------------------*\
| =========                 |                                                 |
| \\      /  F ield         | OpenFOAM: The Open Source CFD Toolbox           |
|  \\    /   O peration     | Version:  2412                                  |
|   \\  /    A nd           | Website:  www.openfoam.com                      |
|    \\/     M anipulation  |                                                 |
\*---------------------------------------------------------------------------*/
FoamFile
{
    version     2.0;
    format      ascii;
    arch        "LSB;label=32;scalar=64";
    class       volVectorField;
    location    "26.2";
    object      U;
}
// * * * * * * * * * * * * * * * * * * * * * * * * * * * * * * * * * * * * * //

dimensions      [0 1 -1 0 0 0 0];

internalField   nonuniform List<vector> 
808
(
(0.895455 -0.011026 0)
(1.02035 -0.0348458 0)
(1.14825 0.00380904 0)
(1.06781 0.0106814 -2.44008e-21)
(1.48565 -0.286353 0)
(0.955055 -0.0245057 0)
(1.13558 -0.0544676 -2.01529e-21)
(1.15028 -0.0473222 0)
(1.3629 -0.227596 2.59417e-20)
(1.23357 -0.0876178 -8.73773e-21)
(1.11581 0.00687684 9.40893e-21)
(1.3922 -0.255161 0)
(1.00896 -0.0507058 0)
(0.745361 -0.0260152 0)
(0.869063 0.0746198 1.33928e-20)
(1.0954 -0.0446558 0)
(0.75846 0.00618728 -3.91014e-21)
(0.997986 -0.0418119 -7.71727e-23)
(1.11708 0.00334165 0)
(1.11458 0.00261064 0)
(1.161 -0.0106673 -1.31306e-20)
(0.929558 0.121198 1.15454e-19)
(1.07511 0.0143666 -1.56268e-20)
(1.17541 -0.0268884 0)
(0.946928 0.17477 0)
(1.33726 0.0801605 -2.35661e-20)
(1.28752 -0.170606 8.21699e-21)
(0.950017 -0.023777 -3.47603e-21)
(1.07985 -0.0292885 0)
(1.03777 0.0374997 -3.48276e-22)
(0.972504 -0.0256303 3.39702e-24)
(1.12252 -0.0114344 0)
(1.06367 0.024364 0)
(1.06434 -0.0234534 2.62309e-21)
(1.30809 -0.062797 8.69862e-21)
(0.742107 -0.123993 1.12062e-19)
(0.877933 -0.0313302 -7.73287e-21)
(1.02901 0.0191161 1.51287e-21)
(1.20622 0.0512882 -2.78572e-21)
(1.10675 0.0253136 0)
(1.26157 -0.0529423 -1.62781e-20)
(1.27902 -0.126645 0)
(1.01322 0.000945647 -9.39224e-21)
(1.10962 -0.0406616 1.06069e-20)
(1.22871 0.0284271 0)
(1.01046 0.0167605 -2.22195e-20)
(0.997116 0.0345843 2.16893e-21)
(1.25959 -0.249265 5.96007e-21)
(1.17834 0.0449095 -6.02365e-21)
(1.41821 -0.173539 -3.74783e-20)
(1.12335 -0.0712161 4.39607e-21)
(1.14825 -0.0691656 0)
(1.12141 0.000920132 8.37961e-21)
(1.13412 0.00235946 0)
(1.30749 0.239907 2.87634e-21)
(1.07437 0.0339594 -2.3666e-21)
(1.20205 0.0120595 0)
(1.18323 0.0290215 5.53672e-21)
(1.23858 -0.0876244 9.37934e-21)
(1.13977 0.0266676 -2.94908e-22)
(-0.403766 0.266014 0)
(1.21912 -0.216065 -6.75166e-21)
(1.18697 0.00838594 0)
(1.43657 -0.0557709 -2.95597e-20)
(1.12043 -0.014325 -1.16188e-20)
(1.04442 -0.028851 -9.23265e-21)
(1.39257 -0.119767 3.29235e-20)
(0.659297 0.0198031 0)
(1.10748 -0.0419002 0)
(1.45776 -0.357316 0)
(0.902187 0.0324705 -2.1075e-22)
(1.2684 -0.141459 -4.11407e-20)
(1.01815 0.055834 0)
(1.05136 -0.0313609 -3.40299e-21)
(1.13115 -0.340659 -5.69002e-20)
(1.10917 -0.0540747 -1.30153e-20)
(1.13661 0.020826 2.8211e-22)
(1.30847 0.489838 2.45481e-20)
(1.10427 -0.0490009 0)
(1.00974 0.273538 -1.9233e-19)
(1.34584 0.0603655 1.33984e-20)
(0.743537 0.018611 0)
(0.841369 0.0264745 -1.05312e-20)
(0.969757 -0.11269 4.27115e-21)
(1.09631 -0.0464275 1.03841e-20)
(1.18131 0.0135271 1.27534e-21)
(1.29991 -0.239067 0)
(1.3376 0.281194 0)
(1.08506 0.00371713 -1.25714e-20)
(1.3556 0.112162 2.66063e-20)
(1.07859 -0.0165043 1.16196e-20)
(1.32712 -0.115494 -1.47346e-21)
(0.964861 0.0251532 1.82638e-20)
(1.00425 -0.0218382 0)
(1.11399 0.0211144 1.89724e-21)
(1.37416 -0.0221447 -8.63724e-20)
(0.758385 0.0194902 -3.39492e-21)
(1.36211 -0.00811138 0)
(1.33161 -0.0777449 0)
(1.44744 -0.0866911 -5.00384e-20)
(1.10643 -0.0544613 -3.56704e-21)
(1.11907 0.010679 -3.8676e-23)
(0.946811 0.0206703 1.03757e-20)
(1.17223 0.00859467 -3.31671e-22)
(1.29491 0.0386577 -2.43297e-20)
(1.0044 0.0061057 1.53661e-20)
(1.45214 0.00649391 0)
(0.876852 -0.00851886 0)
(1.09462 0.0262233 4.88417e-21)
(1.20975 -0.218761 -7.11647e-21)
(1.24909 0.0276922 8.94463e-21)
(1.04387 0.0438481 -1.27135e-19)
(1.15462 0.0350409 -1.80899e-21)
(1.27262 0.0500828 7.72827e-22)
(0.794786 0.0161729 0)
(0.917894 -0.0518365 7.71248e-20)
(1.1417 0.0188518 -4.50805e-21)
(1.4539 -0.268107 -1.85053e-20)
(1.13049 -0.0304486 -8.13708e-21)
(0.928766 0.018558 2.39596e-21)
(-0.395424 0.0857325 0)
(0.863021 -0.0161969 2.38968e-21)
(0.796727 0.0217704 0)
(1.06029 0.0040299 -8.81157e-23)
(1.01121 0.0283863 0)
(1.29942 0.320949 4.79034e-21)
(1.03684 -0.0532079 -3.10088e-20)
(1.38854 0.0394469 -4.17148e-22)
(1.15082 -0.057909 0)
(1.09434 -0.021142 0)
(0.672447 -0.055068 0)
(1.13969 -0.0366985 -4.36646e-21)
(1.2436 -0.0451466 9.19278e-21)
(1.06455 0.111533 -3.64756e-20)
(0.856233 -0.0247898 0)
(1.09932 0.021836 -1.19838e-21)
(1.14752 0.191703 2.46021e-21)
(1.20045 0.0930734 3.54948e-22)
(0.99466 0.0296221 3.73124e-21)
(1.12159 0.0076537 3.24229e-23)
(-0.0356864 -0.010245 0)
(1.09593 -0.019842 -1.29096e-20)
(1.07802 0.0903154 3.71665e-21)
(0.724247 0.0235215 -3.80646e-21)
(1.25075 0.166637 3.8515e-21)
(1.14995 0.189491 -1.35875e-22)
(1.04627 0.017028 1.64324e-20)
(0.991626 0.026898 0)
(1.22824 -0.025892 -3.2754e-20)
(1.08691 0.0624108 0)
(0.947175 0.0317015 7.8302e-21)
(0.967081 0.274333 1.5367e-19)
(0.969054 0.0340415 0)
(0.818086 0.0886409 0)
(-0.119335 -0.0522007 -6.18877e-20)
(1.32921 0.13528 -9.44142e-21)
(0.679086 -0.0192089 0)
(1.40088 0.0832975 0)
(1.18608 0.15057 0)
(1.33842 0.116291 1.03468e-20)
(-0.046122 -0.158652 0)
(-0.0651096 -0.00726028 2.94054e-20)
(1.04666 -0.0549623 8.95455e-20)
(1.00344 0.0364551 9.39174e-22)
(0.861315 0.000769209 0)
(1.03669 -0.0343353 1.22511e-20)
(0.88769 0.0217989 0)
(0.800438 -0.0502318 -9.67503e-20)
(1.03956 0.044474 9.80098e-21)
(1.13054 -0.0247696 3.79685e-21)
(1.09248 0.0109267 6.03379e-21)
(1.01283 0.0670973 -1.31152e-20)
(0.888678 0.150806 1.35264e-22)
(1.14363 -0.352484 5.65113e-22)
(0.913628 -0.0270369 0)
(1.06781 0.00181389 -1.3125e-20)
(0.874313 0.00841622 -1.24205e-20)
(1.39182 -0.167234 2.2371e-21)
(0.69256 0.0311874 0)
(1.06044 -0.146811 0)
(1.1407 -0.0182072 4.89001e-21)
(1.37767 0.212774 7.54446e-21)
(1.1111 0.0162817 4.33836e-21)
(1.03611 0.0199733 1.94941e-20)
(0.592359 0.0482812 -4.76739e-20)
(0.812968 0.00256347 2.18914e-20)
(1.14058 -0.0200209 5.75516e-21)
(1.39042 -0.0492504 -5.32546e-21)
(1.12138 -0.025396 -6.98354e-21)
(1.32584 -0.0264845 4.56354e-21)
(-0.122391 -0.0223294 4.46907e-20)
(1.26615 -0.00489657 0)
(0.62823 -0.0139562 0)
(1.06471 -0.0240433 -6.21883e-21)
(1.09585 0.0136284 5.54592e-21)
(-0.000450038 0.0368682 0)
(0.881698 -0.0246709 4.81211e-22)
(1.15829 -0.0357098 -3.56035e-21)
(0.9674 0.0392871 1.98238e-21)
(1.07745 0.0411349 -8.23097e-21)
(1.00406 0.0186231 2.66966e-21)
(1.06568 -0.0361934 3.14064e-21)
(1.05181 0.0247702 0)
(0.344739 -0.0477942 0)
(1.0461 -0.0639979 0)
(1.11693 0.103097 -2.45485e-20)
(-0.0402706 -0.175304 4.70255e-20)
(1.10382 0.0433815 -1.47826e-23)
(1.04466 -0.0603298 0)
(0.755535 0.018877 -7.26077e-21)
(1.06995 0.0411772 2.05644e-21)
(-0.00914734 -0.0408468 -1.51821e-19)
(0.917765 0.0125784 -6.49818e-20)
(0.633335 -0.0155699 0)
(0.805177 0.0718971 0)
(0.935197 0.0457296 7.2082e-21)
(1.03157 -0.118613 5.85454e-21)
(1.26778 0.392675 -5.30251e-21)
(1.02225 0.0771242 -1.78665e-22)
(1.22134 0.00924092 -3.73111e-21)
(0.980752 0.0953301 0)
(1.35051 0.416764 -2.86514e-20)
(0.675972 -0.0268009 0)
(0.800285 -0.0246708 -3.96069e-21)
(1.04765 -0.0255701 -4.65043e-25)
(0.596903 0.012808 0)
(1.1006 -0.00611059 0)
(0.150434 0.022333 -5.57344e-20)
(1.17355 -0.0185936 -2.75188e-21)
(0.713697 -0.0181031 1.9019e-21)
(0.99016 -0.00207033 0)
(0.549616 -0.0185956 0)
(0.751901 -0.0209666 -3.23227e-21)
(0.535651 -0.0162874 -3.4675e-22)
(1.34279 0.0622278 2.36643e-22)
(1.1773 -0.087839 -4.42155e-21)
(0.698769 0.0189446 -2.51488e-21)
(1.13132 -0.00948294 4.13763e-22)
(1.03256 0.0937166 1.68346e-22)
(0.552336 0.0153299 6.80711e-21)
(1.24116 0.0347064 1.05676e-21)
(1.18397 0.0200825 0)
(0.863637 0.171608 0)
(0.491839 0.019816 0)
(1.05786 -0.018882 0)
(1.15698 0.0437716 6.39309e-22)
(0.991349 0.077359 0)
(1.20318 -0.00783981 0)
(1.02869 0.099574 0)
(1.18687 0.19357 0)
(-0.0260331 -0.0609936 4.73676e-20)
(1.21952 0.0864452 -3.75173e-22)
(1.19547 0.133927 0)
(1.31575 0.0602736 1.25307e-20)
(1.20008 0.0740542 5.7856e-22)
(1.11963 0.0315768 2.24414e-21)
(1.18482 -0.105494 4.81153e-21)
(1.17925 0.0624905 0)
(0.581683 -0.0170869 7.35752e-21)
(1.04965 0.0441786 1.27558e-20)
(1.29208 -0.0921497 0)
(1.13649 0.0028403 -2.46615e-21)
(1.24735 0.0644112 2.71355e-21)
(0.505477 -0.143027 -3.15651e-21)
(1.11344 0.0216465 7.36446e-21)
(1.16373 -0.0562017 -5.48263e-21)
(1.04418 -0.0468221 0)
(1.26518 0.130316 -5.75047e-21)
(1.19254 0.0275491 4.35193e-22)
(0.709256 0.195367 1.43702e-20)
(0.707144 -0.151485 0)
(-0.0231011 -0.0231126 0)
(0.974087 0.109656 -1.84483e-20)
(1.10883 -0.0307564 0)
(1.35681 -0.0803893 3.22759e-20)
(1.25009 0.0193808 4.99568e-22)
(1.12894 -0.00602831 5.27057e-21)
(1.24063 0.0313826 -2.50885e-21)
(1.38639 -0.00134099 1.24026e-19)
(1.02441 -0.331205 5.74489e-20)
(1.17044 -0.0493053 3.62987e-22)
(0.847829 -0.0602106 0)
(0.778045 -0.130453 0)
(0.905783 0.00477266 -2.77346e-20)
(1.30137 -0.0407213 -5.12477e-20)
(1.14136 -0.0976083 0)
(0.697751 0.220169 9.08015e-21)
(0.333739 -0.218911 0)
(0.733293 -0.142315 1.23404e-21)
(0.894591 0.198721 -1.08925e-20)
(0.816256 0.027521 -4.45936e-21)
(1.23453 -0.0855895 0)
(1.25879 -0.0355698 -5.82736e-22)
(1.12005 -0.0727334 5.12502e-21)
(0.724101 0.00383856 -9.78124e-23)
(1.18607 -0.104089 -4.60154e-21)
(0.691189 0.00608421 0)
(1.0912 0.0735763 0)
(1.21155 -0.12783 -1.04447e-21)
(0.900384 -0.0795371 -1.2466e-21)
(1.33221 0.0712291 -7.87491e-22)
(1.13061 -0.0678635 -3.43953e-21)
(0.925917 -0.125289 4.40425e-22)
(1.07989 -0.0528125 0)
(0.420063 -0.140587 1.39714e-20)
(1.32844 0.105348 -1.64142e-20)
(0.839914 0.103093 -1.71193e-20)
(0.128306 -0.341945 3.33819e-21)
(1.43731 -0.121473 2.63563e-20)
(0.797947 0.0279391 4.42694e-20)
(1.32052 -0.133212 9.06728e-22)
(1.12123 -0.046335 3.5897e-22)
(-0.0512348 -0.184591 -8.05339e-21)
(1.0003 -0.00621874 0)
(1.03342 -0.0887613 -1.61495e-20)
(0.855205 -0.0338402 8.54601e-21)
(1.10586 -0.0431288 4.04214e-21)
(0.851061 0.0632311 -2.32567e-21)
(0.513447 -0.0214178 4.34523e-22)
(1.42548 -0.387 -1.57218e-20)
(1.08678 0.0599062 0)
(1.00643 0.0289023 4.85311e-22)
(1.12468 0.0337369 -2.61024e-21)
(1.28276 -0.100024 0)
(0.706064 -0.156483 -6.26981e-21)
(1.13023 0.0557597 2.88089e-21)
(0.641293 0.177764 9.42721e-21)
(1.17032 -0.0547249 6.95121e-21)
(0.875065 -0.162698 3.01543e-21)
(-0.0371389 -0.120344 0)
(0.0667105 0.024761 -2.69441e-21)
(1.10641 0.0271429 0)
(0.85674 -0.0963505 -1.19743e-20)
(0.827737 -0.127236 0)
(1.13802 -0.00421425 4.33481e-21)
(1.01708 0.0269837 0)
(1.17536 -0.150157 0)
(1.40637 -0.111828 2.22844e-20)
(0.800279 -0.0943619 0)
(0.988167 0.030828 3.54054e-20)
(1.10576 -0.0127511 5.62986e-24)
(1.04254 0.0448247 3.13677e-21)
(1.33205 -0.0154589 -1.76158e-20)
(1.23516 0.131938 -2.26233e-21)
(1.22029 0.0435499 9.22289e-21)
(1.12341 0.0706951 0)
(1.1728 -0.0824451 0)
(1.12189 0.0760267 1.49987e-21)
(1.24814 -0.0246207 0)
(1.38378 0.2041 -2.09237e-20)
(0.715587 0.157415 3.08562e-21)
(1.02671 0.018238 2.40692e-20)
(1.21947 0.036425 -1.77327e-22)
(-0.00810065 -0.0449328 0)
(-0.0364372 -0.106566 0)
(0.144176 0.0209079 -4.76428e-20)
(-0.0360389 -0.174568 0)
(0.549572 0.208981 -1.09981e-20)
(1.1889 0.051203 -2.17267e-21)
(1.13961 -0.0743516 -4.8343e-21)
(1.25824 -0.166697 -5.80454e-21)
(1.24524 -0.0465197 0)
(0.680974 -0.0152578 -1.60162e-21)
(1.17079 0.0838229 0)
(1.12518 0.0521725 -4.51644e-22)
(0.507728 -0.111124 0)
(0.554448 0.0616994 -7.40441e-22)
(1.18203 0.0710998 0)
(1.15354 0.0195904 0)
(0.725188 0.187832 5.47593e-20)
(0.432346 0.0324757 -7.29058e-22)
(0.959267 0.104653 -1.23173e-21)
(1.00957 0.0178853 -9.23348e-21)
(0.205053 -0.121908 0)
(1.15018 0.0809455 -3.39203e-20)
(1.2126 0.0026578 -2.32783e-22)
(1.08277 0.0914201 3.64303e-21)
(0.489113 -0.093997 1.11357e-20)
(-0.0512723 -0.151178 -9.60157e-20)
(1.20236 0.0546464 0)
(-0.0328493 0.0309297 0)
(1.22238 0.0126819 3.1632e-21)
(0.349057 -0.18089 -1.19845e-20)
(1.11595 0.000579147 -1.53731e-20)
(1.11222 -0.0497167 0)
(1.10693 -0.0522866 3.13881e-21)
(1.31869 -0.21427 3.12882e-20)
(0.550578 -0.0542318 -9.69318e-21)
(1.15179 -0.045437 -7.8236e-22)
(1.15345 -0.0828253 -1.16599e-22)
(0.53785 -0.108326 2.54195e-20)
(1.17256 -0.126106 -8.29843e-21)
(1.13079 0.0269966 0)
(1.21144 0.0795047 0)
(1.20072 -0.107646 4.48437e-21)
(1.19121 0.0221831 2.1038e-22)
(0.783755 -0.0709415 -9.0561e-20)
(1.19611 -0.115211 -1.33125e-20)
(1.14144 0.0385811 6.65803e-21)
(0.515985 -0.00120885 1.30376e-20)
(0.534915 0.164644 -1.04588e-19)
(0.0275247 0.228975 4.62086e-20)
(1.16725 0.182995 -6.41188e-21)
(1.24597 -0.501488 5.88679e-21)
(1.31068 0.0649733 -1.31663e-20)
(1.22907 -0.0620882 -5.3142e-21)
(0.942798 -0.24158 9.48273e-20)
(-0.151946 0.221228 0)
(1.15895 0.0339826 -1.35663e-21)
(-0.162905 0.14924 -2.11073e-20)
(1.21898 0.0400421 -2.73738e-21)
(1.24609 -0.0257139 6.20529e-21)
(1.09026 0.0354395 0)
(0.594939 -0.223088 0)
(1.16697 -0.0461569 0)
(1.22678 0.0160181 6.27256e-21)
(1.23925 -0.00849035 -1.98998e-20)
(1.16522 -0.0575905 -2.99873e-21)
(0.452431 0.0169189 0)
(0.602386 0.0118315 0)
(0.604313 -0.00375256 4.23576e-22)
(0.425761 -0.0158295 0)
(1.20568 -0.0205908 0)
(1.02337 -0.0136493 2.43921e-20)
(0.492463 -0.376613 0)
(0.946419 0.0384828 0)
(1.08885 -0.0145831 0)
(1.16628 0.187507 -1.17587e-20)
(1.22564 0.0203 4.11552e-21)
(0.970482 -0.0323357 7.91375e-21)
(1.30774 -0.406328 -1.11156e-19)
(0.706586 -0.255804 2.27863e-20)
(1.29451 0.149512 2.82999e-21)
(1.19636 -0.0414792 0)
(-0.293485 0.103844 0)
(-0.221593 0.061 0)
(1.18028 -0.0293827 -5.10796e-21)
(1.33322 -0.291867 -2.69697e-20)
(1.28186 0.0491599 0)
(1.09119 0.0575224 -7.1841e-21)
(0.465433 0.0175918 0)
(1.52665 -0.163139 7.87128e-20)
(0.407664 0.511075 1.266e-19)
(0.28879 -0.0616253 0)
(1.11192 -0.281568 1.19331e-19)
(0.296995 0.329978 0)
(0.0110701 -0.188368 1.21229e-20)
(1.24328 0.056254 0)
(-0.0976726 0.107617 3.14618e-21)
(0.983548 -0.0495072 0)
(1.32918 -0.123904 -1.54101e-20)
(-0.143405 -0.0948868 -8.03677e-21)
(1.13508 -0.0298036 1.00343e-21)
(1.11443 -0.0334444 -1.62796e-20)
(0.580276 -0.531269 -9.14683e-20)
(1.21013 0.0672689 -1.06975e-21)
(1.19959 -0.125006 3.17759e-21)
(1.17269 0.244428 -2.55509e-20)
(1.2108 -0.252673 -1.18646e-20)
(1.17665 -0.0173015 -8.66371e-23)
(-0.182832 0.146417 -4.75686e-20)
(-0.0174698 0.020989 -6.36652e-21)
(1.3868 0.112041 2.62822e-21)
(1.05809 -0.047684 0)
(0.565252 0.0454401 4.29268e-21)
(1.41782 -0.447899 8.44169e-20)
(0.956737 -0.0900291 -6.22896e-20)
(1.39065 0.156343 5.70206e-20)
(1.07499 -0.0392888 3.73893e-21)
(1.13443 -0.0882642 9.63023e-21)
(1.06252 -0.00706788 0)
(1.17271 -0.0139021 0)
(1.32027 -0.129805 7.37355e-21)
(1.08851 -0.0184963 -4.54092e-21)
(1.21777 -0.282164 1.27234e-20)
(1.12159 0.0502792 -5.39907e-21)
(1.42763 0.0153805 -4.9039e-20)
(0.428286 0.0185428 0)
(1.19211 -0.14135 -1.0983e-21)
(1.26647 0.0643523 0)
(1.14176 0.0444483 -3.82887e-21)
(1.1437 0.0297852 0)
(1.04051 -0.00810489 1.2714e-20)
(1.23614 0.0490685 9.74153e-21)
(1.08363 -0.0820976 0)
(0.0526248 -0.0304552 1.60048e-19)
(0.885569 -0.220626 -7.43789e-20)
(1.35228 0.090905 -3.46606e-20)
(-0.105029 -0.113284 3.91603e-20)
(1.17944 0.020118 1.96799e-22)
(0.63629 -0.0476862 -4.23428e-21)
(-0.0979762 -0.0926708 -4.0831e-20)
(-0.0167419 -0.0462271 -2.4765e-20)
(1.02102 -0.0288625 0)
(-0.0305151 -0.0413876 0)
(1.17045 0.134468 0)
(0.1127 -0.116039 0)
(1.12088 -0.0319817 0)
(0.13517 0.0268665 0)
(1.1193 0.0325098 0)
(1.10549 0.0640367 0)
(1.35671 0.0345069 -1.67331e-21)
(0.583378 -0.289856 -2.21476e-20)
(-0.172273 0.0176387 0)
(1.1676 -0.0931017 6.4838e-20)
(1.34623 0.134711 -4.42451e-22)
(1.30858 0.138613 0)
(-0.0391796 -0.0433124 0)
(1.16403 0.0192017 -5.57446e-22)
(1.17648 -0.000411091 -4.67564e-22)
(1.15967 0.383746 0)
(0.27734 -0.103437 6.25883e-20)
(1.12135 0.0658095 1.56309e-21)
(0.236752 -0.052694 -5.42639e-20)
(-0.0587595 0.0393035 -2.86762e-20)
(-0.0318977 0.047913 7.54043e-20)
(0.102602 0.160721 -9.61026e-21)
(0.945155 -0.00553238 3.98477e-21)
(1.14507 0.0395394 -6.32705e-21)
(1.02458 -0.00763213 0)
(1.07091 -0.068507 -2.14043e-20)
(1.20667 0.0364117 -4.42345e-21)
(-0.0110343 -0.0594943 9.76739e-20)
(0.981969 -0.0734552 -5.97411e-20)
(0.741894 -0.0241687 -4.90948e-21)
(1.20736 0.111643 2.85844e-22)
(0.0721631 -0.0328344 3.44931e-20)
(0.246591 -0.0393036 -4.89377e-20)
(0.417747 -0.0752663 -5.67535e-20)
(1.23228 -0.0115445 5.64773e-21)
(-0.057367 -0.0410136 0)
(1.05024 0.065142 -1.23132e-21)
(1.12104 -0.184413 5.32061e-21)
(1.18871 -0.229449 -5.13043e-21)
(1.27601 0.10517 0)
(1.5272 -0.223203 7.57597e-20)
(1.16328 0.0309994 -3.77333e-21)
(-0.0177511 -0.0629933 -3.4023e-20)
(0.256565 0.0501969 0)
(0.912585 0.0423366 -2.89642e-21)
(1.12231 0.021167 4.29574e-22)
(0.68138 0.0300884 2.57146e-20)
(1.16996 0.0181333 1.00026e-21)
(1.11723 0.0548886 0)
(1.15826 -0.173096 -1.51382e-20)
(-0.0620987 -0.147444 -7.19197e-20)
(1.3095 -0.00889504 2.36191e-20)
(1.09838 0.173596 -8.71677e-21)
(1.11627 0.0570498 6.17482e-21)
(-0.0437051 -0.0744572 1.59066e-20)
(-0.0191322 0.013796 -5.59269e-20)
(0.85635 0.108419 0)
(0.697178 0.206598 0)
(1.14888 0.102354 -2.07569e-20)
(1.05054 0.0689699 1.43568e-20)
(1.11984 0.0506796 0)
(0.652132 0.0141905 6.2623e-20)
(0.715929 0.0774049 -1.01383e-20)
(1.09698 0.108623 0)
(1.10326 0.0608463 0)
(1.25499 0.10149 0)
(1.15242 -0.00322987 0)
(1.19692 0.138137 3.04855e-21)
(-0.0426985 0.0430467 3.1317e-20)
(1.21586 -0.03278 8.5747e-21)
(1.43672 -0.1948 -8.76244e-20)
(1.18694 0.10269 -4.41341e-21)
(-0.0747363 0.121806 0)
(1.17921 -0.129018 0)
(0.617716 -0.0176505 -5.53611e-22)
(0.527201 0.0067511 -5.39933e-20)
(0.0713816 0.0349604 4.40885e-20)
(0.931798 0.024281 -2.43907e-22)
(0.750233 -0.275676 0)
(0.685115 -0.0935699 0)
(1.1308 0.0688115 0)
(0.534555 0.506863 1.41121e-20)
(-0.0104257 -0.0131177 -2.69538e-20)
(1.16362 0.105366 1.41933e-21)
(-0.024668 -0.110617 6.52412e-20)
(1.16963 -0.0341152 2.16551e-21)
(1.16521 0.311498 4.8735e-20)
(1.11429 -0.0869847 8.01254e-21)
(0.188944 0.0953024 6.25441e-20)
(1.1468 0.131597 -4.70632e-22)
(1.02988 -0.126634 0)
(0.552746 0.26798 0)
(0.849673 -0.114082 4.19049e-21)
(-0.186638 -0.0280972 0)
(0.602576 0.0288845 2.17069e-21)
(0.610762 -0.423388 -3.28206e-21)
(0.235879 0.0482034 -1.03776e-19)
(1.12784 -0.230834 3.13998e-20)
(1.03265 0.356728 1.07526e-20)
(0.979249 0.0146725 0)
(1.16565 0.0629907 5.02193e-22)
(0.629977 0.0183157 0)
(0.981115 -0.026532 -5.23659e-22)
(0.442724 -0.023011 0)
(0.711155 0.118903 0)
(1.00829 -0.0199416 -5.11584e-21)
(1.4238 0.177529 -9.94798e-21)
(1.16049 -0.0498109 9.68847e-22)
(0.528246 -0.499415 0)
(1.13728 -0.155252 1.99314e-21)
(0.799502 0.368018 7.36036e-20)
(-0.0361024 0.0213306 1.06179e-21)
(1.24166 0.00338561 7.7815e-21)
(1.22362 0.0498042 -7.16026e-21)
(1.23777 -0.0402047 8.20029e-22)
(0.79254 0.00811595 -4.40373e-21)
(0.0640225 0.0173472 3.38998e-20)
(-0.0160349 -0.0900171 -5.43403e-20)
(-0.198861 -0.00571066 0)
(-0.209178 0.12566 0)
(1.19673 -0.62259 3.30408e-20)
(1.15935 -0.0246117 8.45404e-23)
(0.897151 -0.469993 -4.47565e-20)
(1.03488 -0.0436558 2.01522e-21)
(1.34957 0.200772 2.87536e-20)
(0.597453 0.415255 0)
(0.243474 0.407021 -1.20424e-19)
(0.590751 0.468176 0)
(-0.0703736 0.0412383 0)
(1.13201 -0.486133 0)
(-0.0398033 -0.0615214 -8.81735e-23)
(1.19091 -0.00415105 0)
(0.730121 0.0835746 5.40408e-21)
(0.587542 0.681376 1.99284e-20)
(1.21853 0.0503291 -5.02111e-21)
(-0.0302849 -0.149407 -1.11914e-19)
(0.298408 -0.167629 2.05914e-20)
(0.446168 0.142549 -1.24545e-20)
(1.20315 0.101995 0)
(1.34799 0.355336 2.8406e-20)
(1.21208 0.559166 2.05648e-21)
(0.161213 -0.0169947 -2.00987e-20)
(0.979421 0.115191 2.71801e-20)
(0.935698 -0.03234 8.7867e-22)
(0.904101 0.0296132 -2.11651e-22)
(-0.0120769 -0.0431731 0)
(0.653539 -0.665961 -2.99741e-20)
(0.612282 0.18862 0)
(0.117539 -0.150442 0)
(-0.0425296 0.0330756 0)
(0.0215585 -0.170308 -4.29653e-20)
(1.24893 0.0110814 -8.94814e-21)
(-0.0367909 0.0177119 0)
(-0.025713 0.0006417 0)
(1.44632 0.121738 -5.43703e-20)
(-0.0394131 -0.107618 5.04109e-20)
(0.113426 0.226554 -1.03635e-19)
(0.383941 0.0125386 0)
(0.171393 -0.288162 8.14464e-20)
(1.09963 -0.243551 0)
(1.00177 -0.290252 0)
(0.0208069 -0.141001 1.06463e-19)
(1.15087 0.0459294 -1.81519e-22)
(1.11854 0.337049 3.08383e-20)
(0.260252 0.0265552 4.25866e-20)
(0.408114 -0.526231 -3.60501e-20)
(1.23672 0.0896927 0)
(1.20085 0.189725 1.96577e-20)
(1.2053 0.21078 -2.41476e-20)
(0.101756 0.078542 -2.37817e-20)
(-0.0612343 -0.0947047 0)
(1.07218 -0.056048 -1.96712e-20)
(1.10678 -0.226697 -1.54651e-20)
(0.587 -0.417066 0)
(1.09904 -0.152862 -2.59707e-20)
(-0.161823 0.102276 0)
(0.562198 0.0268283 0)
(1.40547 0.061492 3.65808e-20)
(0.998202 0.0407999 5.14645e-22)
(1.06713 0.734547 -2.0862e-20)
(0.228082 -0.387176 1.30859e-19)
(1.12777 0.0421997 9.90143e-22)
(1.20507 0.0826369 -2.08064e-21)
(-0.0414612 -0.00312951 2.68331e-20)
(0.778577 0.724064 3.38135e-20)
(1.36094 -0.374319 -1.3422e-20)
(0.114358 0.169531 8.82095e-20)
(1.09909 0.0275945 0)
(0.0651811 0.026621 -4.97122e-21)
(0.907565 -0.642766 2.96022e-21)
(0.890834 0.634786 -1.28101e-20)
(0.553653 -0.0377442 -6.40684e-20)
(1.14807 0.000752345 -5.90756e-21)
(1.07671 -0.0831643 6.90406e-21)
(1.15833 0.0321442 2.14054e-21)
(1.10409 0.122422 6.18963e-21)
(1.13409 -0.126018 0)
(0.892298 0.105695 1.28149e-20)
(0.8777 0.454561 0)
(1.21102 0.0102243 -3.0521e-21)
(1.16523 0.118123 2.56696e-21)
(0.743702 0.261687 0)
(0.514352 0.10846 9.89637e-20)
(0.884861 0.702483 -1.09112e-21)
(1.07143 0.28709 -2.36834e-20)
(1.04208 -0.00944622 1.22346e-20)
(0.411838 0.478183 0)
(1.30752 -0.479174 0)
(0.529102 0.0882853 3.78006e-21)
(1.25215 0.499572 0)
(-0.0210506 0.0381863 -3.82211e-20)
(1.29348 -0.419187 -9.11103e-21)
(1.15604 0.50327 0)
(0.451845 0.203395 1.72796e-19)
(1.1115 0.313077 -1.08594e-19)
(0.822639 -0.652426 -2.56302e-20)
(1.15439 0.0279548 -5.73528e-22)
(0.903828 0.148893 7.30259e-20)
(1.08441 0.16788 5.8127e-20)
(1.06091 0.69597 2.49641e-21)
(0.910628 -0.447502 6.52632e-20)
(1.40779 0.198246 3.02406e-20)
(1.13284 0.0118751 -1.17666e-21)
(-0.000376458 -0.0765907 9.30416e-20)
(1.09202 -0.710944 2.79885e-20)
(0.879134 -0.730182 5.239e-20)
(0.254264 -0.349269 0)
(0.973299 -0.151367 7.3733e-20)
(0.359755 0.293347 -4.48454e-19)
(-0.069009 -0.0297084 2.88497e-20)
(0.228145 0.0205377 1.93431e-20)
(0.68301 -0.0610317 -7.55579e-20)
(1.07038 0.521322 0)
(0.988403 0.218019 8.50916e-20)
(1.0853 0.0330296 4.25609e-21)
(0.902141 0.432986 -9.48977e-20)
(0.790043 -0.734612 -8.12094e-21)
(0.926853 0.0164419 -4.9993e-20)
(0.970564 0.48101 0)
(1.10074 -0.0262468 1.62598e-21)
(1.39218 -0.520198 1.35448e-20)
(1.23548 -0.345635 9.65764e-21)
(-0.278754 0.162488 2.84151e-20)
(0.194912 -0.0129405 -1.83963e-20)
(0.978002 -0.122615 -5.92658e-20)
(0.347958 0.513121 0)
(0.913405 0.00884913 3.9833e-20)
(1.14587 0.630197 6.88474e-20)
(-0.0323683 -0.117056 1.54501e-19)
(-0.062453 -0.038246 -2.21583e-20)
(-0.0838539 -0.156858 4.06198e-20)
(1.0982 0.0267837 -5.8219e-21)
(1.14093 -0.466616 0)
(1.07677 -0.745242 -4.1264e-20)
(0.694498 0.338354 0)
(0.073879 -0.120097 -1.15655e-19)
(1.14215 0.0425514 3.50315e-21)
(-0.0391249 -0.151396 -3.00258e-20)
(1.04717 0.0573589 -1.19382e-20)
(0.107128 0.021092 4.96606e-20)
(0.832841 0.12261 0)
(1.3676 0.020749 4.79369e-20)
(0.0243165 0.00685141 -2.19641e-20)
(-0.253521 0.0853289 -3.37431e-20)
(-0.231179 0.073426 0)
(0.0773026 -0.0233134 0)
(1.32619 0.0124781 -1.44586e-20)
(0.38187 -0.0128094 1.55909e-19)
(1.27843 -0.735647 -2.40938e-20)
(0.827547 0.0826204 3.0534e-20)
(1.0658 0.247941 -3.37828e-20)
(0.372693 -0.571832 1.40027e-19)
(1.52635 0.283163 -2.91431e-20)
(0.0793984 -0.106655 3.62662e-20)
(0.206372 0.29054 2.00018e-19)
(0.0997635 -0.0669154 -1.35311e-19)
(0.948749 -0.501977 -4.35671e-20)
(1.43831 0.386128 2.96771e-20)
(0.573711 -0.687775 4.85776e-20)
(1.10788 -0.0809854 -6.99689e-21)
(0.269446 -0.0305729 6.33791e-20)
(1.16582 0.287589 -4.31686e-20)
(0.655819 0.628239 -4.30468e-20)
(1.34964 -0.630617 0)
(1.4018 0.51515 3.04576e-20)
(1.06162 -0.536785 -1.28352e-20)
(1.37445 0.601091 -8.44732e-20)
(1.16712 0.0204599 0)
(-0.0477857 0.0307134 0)
(1.23906 0.721903 0)
(1.14128 -0.0226429 -9.7789e-21)
(0.746565 -0.312407 -2.08904e-19)
(0.476885 -0.0957958 0)
(-0.0541753 0.0123085 -2.27526e-20)
(1.02312 -0.250091 9.94423e-20)
(-0.290035 0.1498 0)
(0.321269 0.0107911 1.24276e-20)
(1.13357 0.0272672 0)
(1.3962 0.273409 0)
(1.17636 0.026832 6.14173e-22)
(0.363608 -0.306811 0)
(1.011 0.148204 4.06274e-20)
(1.29283 0.285691 0)
(-0.0867429 -0.0276188 1.1512e-22)
(0.81642 -0.407558 0)
(1.49891 0.34184 -4.41373e-20)
(1.23146 0.363865 4.62789e-21)
(0.832915 0.634798 -1.0383e-20)
(1.00748 0.157085 -9.3913e-20)
(0.971133 -0.209392 -4.84845e-20)
(1.43531 0.295353 2.59646e-20)
(0.955731 0.0763267 0)
(0.563897 -0.0828621 0)
)
;

boundaryField
{
    FrontBack
    {
        type            empty;
    }
    Top
    {
        type            noSlip;
    }
    In
    {
        type            fixedValue;
        value           uniform (1 0 0);
    }
    Bottom
    {
        type            noSlip;
    }
    Out
    {
        type            zeroGradient;
    }
    circle
    {
        type            noSlip;
    }
}


// ************************************************************************* //
