/*--------------------------------*- C++ -*----------------------------------*\
| =========                 |                                                 |
| \\      /  F ield         | OpenFOAM: The Open Source CFD Toolbox           |
|  \\    /   O peration     | Version:  2412                                  |
|   \\  /    A nd           | Website:  www.openfoam.com                      |
|    \\/     M anipulation  |                                                 |
\*---------------------------------------------------------------------------*/
FoamFile
{
    version     2.0;
    format      ascii;
    arch        "LSB;label=32;scalar=64";
    class       surfaceScalarField;
    location    "11.1";
    object      phi;
}
// * * * * * * * * * * * * * * * * * * * * * * * * * * * * * * * * * * * * * //

dimensions      [0 3 -1 0 0 0 0];

oriented        oriented;

internalField   nonuniform List<scalar> 
1171
(
-0.946675
0.946675
0.770178
-1.07477
0.304589
-0.242687
-0.779745
1.02243
0.0533248
-0.0654389
-0.276128
0.341567
-0.770178
0.0964513
0.673726
0.924921
-0.209399
-0.715523
0.82995
-1.0119
0.181945
-0.356098
-0.0364631
0.392561
-0.00287959
0.605579
-0.602699
-0.5185
0.942615
-0.424115
-0.421537
0.974908
-0.144958
0.258705
0.0903424
-0.349047
0.975892
-0.000983785
0.303832
-0.0451267
0.984322
-0.00843015
0.677197
-0.919884
-0.787444
0.608531
0.178913
0.306323
-0.824823
0.560082
-0.914903
0.354821
-1.07835
0.667537
0.410817
-0.644118
0.641238
0.0334449
-0.253176
0.219731
0.0214792
-0.642345
0.620866
0.467278
-0.503741
-0.852766
0.878239
-0.0254727
0.996252
-0.0119303
0.862002
-1.04742
0.185416
0.997201
-0.000948541
-0.701344
-0.0861001
1.23228
-0.802752
-0.429531
0.144434
-0.0754771
-0.414534
0.490011
-0.273662
0.18389
0.089772
-0.600922
-0.473845
0.967922
-0.10592
-0.0242409
0.862145
-0.837904
0.52799
0.704293
0.530102
0.0235795
0.443699
-0.786487
-0.107917
0.894405
0.571651
0.244462
-0.816113
0.0194897
0.628467
-0.647957
-0.50862
-0.569733
-0.360723
-0.686696
0.0279685
0.245018
-0.272987
-0.933279
-0.039766
0.973045
0.37467
0.0178911
0.834734
0.0901872
-0.603649
-0.0404685
0.0379351
-0.824422
0.0779734
0.901409
-0.979382
-0.406104
0.0261121
0.379992
-0.710485
-0.222794
-0.67538
0.753353
0.622934
0.31968
-0.57912
0.991819
-0.82011
-0.17171
-0.0807998
-0.0532741
0.134074
-0.458936
-0.0448051
-0.307338
0.930272
-0.0129131
0.438885
-0.425972
-0.488102
1.05975
0.710955
-0.818873
0.391235
-0.0753562
-0.315879
0.836009
-0.836009
-0.912217
0.0397237
-0.315851
-0.677891
0.65365
-0.0325452
-0.143427
0.175972
0.878506
-0.0163614
1.03979
-0.795328
0.223355
-0.319598
0.0962424
0.971639
-0.136905
-0.67703
-0.0461716
0.723201
0.149701
-0.232252
0.0825503
0.787752
-0.997151
-0.443248
0.311312
0.131936
0.66671
-0.645231
0.846145
-0.385306
-0.460839
0.485422
-0.694181
0.036298
0.657884
0.155527
0.665237
0.0495271
-0.714764
0.134579
-0.0948555
-0.513276
0.107171
0.0314096
-0.903529
0.87212
-0.552002
-0.75779
0.0564463
0.500663
-0.0569641
0.275326
-0.833235
0.557909
0.423463
0.576537
0.599933
-0.561998
-0.378322
-0.0260937
0.404416
0.615597
0.220412
-0.673671
0.693161
0.086129
0.884204
0.00398016
-0.68101
-0.763944
0.795354
0.619065
0.107313
0.360306
-0.46762
-0.156885
0.53919
0.0892772
0.943301
-0.871159
-0.0721418
0.649277
0.342543
-0.430968
0.705001
-0.597687
0.409803
0.150279
-0.0612079
-0.633498
-0.218028
0.851526
-0.165171
-0.670839
-0.612713
0.363691
0.249022
0.659351
-0.655371
0.309021
1.01405
0.0257428
-0.763944
-0.146873
0.0660729
0.710955
0.778865
-0.778865
0.847083
-0.832591
-0.0144916
-0.454509
0.877972
-0.193624
-0.319651
0.763443
-0.669319
-0.0941237
-0.860631
0.227133
0.108632
-0.712281
0.818873
-0.975758
-0.183729
0.17989
0.00383922
0.128444
-0.971432
0.842987
0.549389
-0.0192871
-0.289295
0.595577
-0.306282
-0.651439
0.779883
-0.160759
0.723701
-0.831013
0.107313
1.01124
-0.587582
-0.423657
0.717657
-0.072479
-0.0133887
0.0132669
0.000121779
-0.798259
-0.878078
0.0983335
-0.677891
0.575547
-0.549435
0.101095
0.677759
-0.778855
0.778436
0.16824
0.4924
0.5076
-0.0808796
-0.669834
0.750713
0.95665
-0.0133492
-0.717657
0.795354
0.179931
-0.433106
-0.0329579
0.00908824
0.0238696
0.676139
-0.437561
-0.238579
0.673726
-0.0270914
-0.154378
0.557363
0.118776
-0.0133698
0.0011283
0.0122415
0.00413618
-0.0175249
0.130847
-0.206203
-0.939623
0.0426157
-0.14427
-0.0528825
0.135141
0.752416
0.743302
-0.166765
0.550483
-0.449388
-0.163531
0.386886
0.625696
0.04803
0.227253
-1.05984
-0.975758
0.317706
0.65365
-0.16039
0.016963
-0.795031
0.96906
-0.174028
0.484328
-0.104335
0.799641
0.305819
0.286731
0.0171006
-0.681131
0.681131
0.231463
0.662942
-0.0164669
0.455352
0.473544
0.0187325
-0.0516904
0.54816
0.00122885
-0.651439
0.571005
0.192438
0.00525565
0.00801127
-0.625696
0.168908
0.800152
-0.00199457
-0.741814
0.743809
0.761123
-0.823358
0.0622351
-0.778436
-0.0335833
0.0463736
-0.0127903
0.0850973
-0.122741
-0.106196
0.228936
-0.00638107
-0.0069887
0.727565
-0.72956
0.896225
0.126207
-0.325744
-0.532046
0.85779
-0.00120857
0.00120857
0.153796
0.477449
0.642969
-1.12042
-0.192811
-0.542015
0.734826
-0.0191687
0.195141
0.383878
-0.234176
1.0257
-0.548247
0.756244
1.06239
-0.419422
0.190253
0.779883
0.634926
0.210468
0.667771
-0.670839
0.318869
-0.0347232
-0.00299402
0.0377172
0.884976
0.0370267
-0.922003
-0.626496
0.625547
0.545491
-0.626496
-0.634926
0.625547
-0.00696064
0.93805
-0.0418252
-0.615597
0.545425
0.0701719
0.534935
0.576942
-1.11188
0.491484
0.534212
0.573895
0.489002
-1.0629
0.530341
0.53205
0.545425
-0.514702
-0.477273
-0.599581
-0.534188
-0.153254
-0.00504518
0.00504518
0.533966
0.532843
-1.06703
0.727665
-0.367359
-0.961806
0.374224
-0.680956
0.458162
-0.0108225
-0.878449
0.889271
0.454007
-0.0445364
0.929512
-1.00112
-0.913267
0.0611255
0.852141
0.392064
-0.189039
-0.203025
0.694123
-0.800043
0.941662
-0.882948
-0.0587138
-0.0376882
-0.833471
-0.154578
0.827664
-0.673086
-0.943373
0.905685
-0.667635
0.665221
0.00241459
-0.850959
0.0598665
0.791092
0.00347853
-0.00468709
0.425604
0.0594624
-0.894411
0.834948
-0.780182
0.699302
0.971439
0.0926501
-1.06409
0.0581716
-0.00146387
0.40588
-0.359673
0.0400755
0.891784
-0.902607
-0.724752
-0.87842
0.0449496
-0.130643
-0.898488
0.0155402
0.560322
-0.00983967
0.0546229
0.337441
-0.757898
0.817764
0.460839
-0.922985
-0.850723
0.0873277
-0.0388019
0.758208
-0.719406
-0.00921681
-0.763554
0.580125
0.180999
-0.000310644
0.929823
0.96681
0.906341
-0.890801
0.0459814
-0.0459814
-0.087868
-0.257577
0.0685374
0.339843
-0.0221368
0.25964
0.920606
0.00691179
-0.0132929
0.658957
0.341043
0.798219
-0.600922
-0.747298
-0.68238
-0.600074
0.600074
-0.207268
-0.108583
0.64735
-0.920801
0.273452
-0.502208
-0.544823
0.316818
-1.00351
-0.936046
0.877332
-0.802324
0.847274
0.653994
0.198361
-0.852355
-0.679965
-0.179396
0.841103
-0.661706
0.0154396
0.00293852
0.00310896
-0.00604748
-0.0525185
-0.205058
0.964168
0.700266
-0.368373
-0.331893
0.497241
0.746032
-0.514569
0.0117442
-0.285406
0.0976611
0.759151
-0.856812
-0.34952
-0.0870214
0.137986
-1.00925
0.0872519
-0.72244
0.0949087
0.732929
-0.827838
-0.84884
0.1264
0.6945
-0.781521
0.235914
-0.358655
-0.610389
-0.0695764
0.369351
0.738722
-0.0337214
0.000650649
-0.000650649
-0.00391688
-0.00295593
-0.0317673
-0.0158656
0.0227774
-0.620228
0.336491
0.756691
-0.823116
0.0664256
-0.690183
0.785092
0.781391
-0.0868911
-0.685294
-0.163545
-1.10179
0.020734
0.0252474
-0.522567
-0.839873
-0.83197
0.402439
-0.200606
0.229004
-0.0283984
-0.510553
-0.0120138
0.537228
0.712281
-0.0405938
-0.0122887
1.07883
0.501627
0.210973
-0.7126
-0.45127
-0.0592838
-0.00550875
0.00844727
0.68756
-0.905588
0.00626349
-0.00626349
-0.716332
0.713476
0.00285632
-0.396647
-0.137847
-0.692562
0.127002
0.623712
-0.052752
-0.871958
-0.228845
0.199223
0.0296219
0.774423
-0.707997
0.338413
0.26297
-0.601384
-0.152313
-0.702258
-0.12558
-0.214705
-0.101843
0.470488
-0.515293
0.192112
0.712943
-0.905055
0.485422
-0.160658
-0.0399475
0.100261
-0.202105
0.59598
-0.0944127
-0.501567
-0.284503
0.305017
-0.0205141
0.580848
0.146817
0.0791329
-0.310894
0.168775
0.142118
-0.168604
0.0217313
-0.309544
0.0683426
0.0228966
-0.0912392
0.843496
-0.334079
-0.0625673
0.555138
0.2693
-0.637672
0.503992
-0.503992
-0.240419
-0.506891
-0.246253
-0.506891
-0.66165
-0.848643
0.179324
-0.265542
0.748403
0.0465451
0.162946
0.575776
0.110033
0.117838
0.0100538
-0.127892
-0.0663188
0.67441
-0.975304
0.443258
-0.0231314
0.0760097
-0.0528783
-0.748597
-0.176519
-0.568107
0.77908
-0.515864
-0.0130669
-0.189038
-0.338016
-0.0808614
0.0808614
0.0449034
0.0014702
0.138572
0.250736
-0.743793
0.175686
-0.0261254
0.472384
0.527616
0.778435
0.0235857
0.0186427
-0.0422284
-0.299131
-0.572828
-0.550489
0.113456
-0.118392
0.00493639
-0.109665
-0.414064
-0.088252
0.711964
-0.575393
-0.173204
-0.066341
0.0239882
0.17844
-0.461402
-0.197214
-0.184037
-0.0221656
-0.481663
0.433226
0.0484367
-0.0503996
0.294627
-0.86436
-0.535851
0.645645
-0.848084
0.695771
0.453888
-0.030878
0.0568738
-0.0259958
0.0770946
-0.635652
-0.00114479
0.636797
-0.891605
0.641714
-0.729582
-0.0979719
0.00711063
-0.00711063
-0.29915
0.436735
-0.0308551
0.00478411
0.0188016
0.585344
0.67716
-0.749302
0.0138724
0.00443898
-0.00378833
0.00422461
-0.00422461
-0.502019
0.648837
0.0142226
-0.0142226
-0.772975
-0.00857311
0.0120516
-0.51263
0.688316
0.591332
-0.588475
0.0689013
-0.0689013
-0.00259955
-0.0490909
0.0111035
-0.953461
0.529804
-0.530418
-0.00468709
0.596849
0.0148781
-0.611728
-0.707283
0.13189
-0.316916
-0.0135028
0.330419
-0.0227378
-0.017856
-0.605835
-0.0298173
0.0252474
0.00575645
0.000507045
-0.00317149
0.00317149
-0.386942
0.295703
-0.446894
0.13535
0.662868
-0.136823
0.00245831
-0.00245831
0.508682
-0.12396
0.00831919
0.0181368
-0.000462478
0.600414
-0.724375
-0.722739
0.660172
-0.0936825
0.326912
0.762464
-0.00391688
-0.0933034
0.101315
-0.671642
0.551492
-0.319681
-0.110433
-0.0257105
-0.0258107
0.00277702
0.474773
-0.0859066
-0.415661
0.67941
0.000820568
0.00637287
-0.00637287
-0.191513
-0.136207
-0.571906
0.618451
-0.137074
0.509671
-0.164125
0.841322
0.80081
0.00575645
-0.703475
0.646432
0.0371055
-0.0301727
-0.00693273
0.609772
0.0931837
-0.0120885
0.0666338
-0.0545453
0.00891701
-0.00891701
-0.785241
0.0229199
-0.0437169
0.0618537
-0.0865889
0.0865889
0.00443898
-0.00145857
0.720662
0.0794898
-0.317821
-0.0962428
-0.519844
-0.0292355
-0.066954
0.066954
-0.0448279
0.0809143
-0.0809143
0.0266667
-0.0266667
-0.355849
-0.0751188
0.24123
0.0700813
0.0414328
-0.760955
-0.0613251
0.161025
0.018906
-0.245749
0.0807569
-0.0807569
-0.466392
-0.0489012
0.231112
-0.0113817
0.00258496
-0.649631
0.656592
0.022143
-0.066971
0.0342107
-0.0833015
-0.012013
-0.15636
0.168373
-0.150771
-0.207884
-0.0815848
0.0815848
0.0550479
-0.0550479
-0.0291093
-0.0941992
0.123308
-0.0211385
-0.18826
-0.00782487
0.00403654
-0.241248
0.536951
-0.0258135
0.447067
0.0071185
0.00512297
-0.0512058
0.0512058
-0.730727
0.31863
-0.128376
-0.209063
-0.0231883
-0.0168782
0.0194632
0.199296
0.0296405
-0.00120112
0.000738639
0.0837346
0.0297214
0.0554439
0.105581
-0.0182526
0.00596392
0.000109383
0.00452486
0.00602561
0.00666734
-0.0126929
-0.0019339
0.00793906
0.0280324
-0.0280324
0.0497556
-0.0421767
0.0421767
-0.190898
0.00964784
0.0250696
-0.0756861
0.0177497
0.0768344
-0.0768344
0.247733
-0.238089
0.0873179
-0.0673489
-0.17074
-0.0160453
0.0160453
0.40616
0.251723
-0.51938
-0.0806042
-0.0377881
0.541511
0.0130721
-0.0636629
-0.461041
0.0767604
-0.153463
0.170395
-0.0169324
-0.0471131
0.0471131
0.839225
-0.59274
-0.0103813
0.00844738
-0.00572746
-0.285102
-0.000157361
0.00500409
-0.0443622
-0.625003
0.568745
-0.661599
0.0146308
0.190605
0.0157482
0.0245391
-0.15919
-0.335049
0.259363
-0.0561248
0.0270155
0.171203
0.133814
0.230404
0.26514
-0.249392
0.00653265
-0.1139
-0.222566
0.0681118
-0.0126679
0.161303
-0.136764
-0.0684164
0.152151
-0.398629
0.121894
-0.104145
0.0584583
-0.474119
0.175399
0.176988
-0.245404
0.00673795
-0.177031
0.176874
0.00392248
0.148228
-0.0279541
0.0501279
0.458554
0.011987
0.0191871
-0.00678912
0.036043
-0.239499
-0.203113
0.591815
0.169417
0.0616951
0.0782855
-0.0634006
0.0742628
-0.0811956
-0.0302679
0.166842
-0.152211
0.0219641
-0.00634473
-0.104972
-0.0288029
0.0279281
0.251627
-0.00715321
-0.00903869
-0.31222
-0.00820815
0.217063
0.1404
0.178229
0.0571584
0.0974949
0.0498918
0.535452
-0.0125836
0.103285
0.0429359
0.0657422
-0.108678
-0.267656
-0.197559
0.0268192
-0.222492
0.2854
)
;

boundaryField
{
    FrontBack
    {
        type            empty;
    }
    Top
    {
        type            calculated;
        value           uniform 0;
    }
    In
    {
        type            calculated;
        value           uniform -1;
    }
    Bottom
    {
        type            calculated;
        value           uniform 0;
    }
    Out
    {
        type            calculated;
        value           nonuniform List<scalar> 10(1.06538 1.04964 1.07685 1.06455 1.06594 1.06624 1.06681 1.04703 0.744411 0.753143);
    }
    circle
    {
        type            calculated;
        value           uniform 0;
    }
}


// ************************************************************************* //
