/*--------------------------------*- C++ -*----------------------------------*\
| =========                 |                                                 |
| \\      /  F ield         | OpenFOAM: The Open Source CFD Toolbox           |
|  \\    /   O peration     | Version:  2412                                  |
|   \\  /    A nd           | Website:  www.openfoam.com                      |
|    \\/     M anipulation  |                                                 |
\*---------------------------------------------------------------------------*/
FoamFile
{
    version     2.0;
    format      ascii;
    arch        "LSB;label=32;scalar=64";
    class       volVectorField;
    location    "11.1";
    object      U;
}
// * * * * * * * * * * * * * * * * * * * * * * * * * * * * * * * * * * * * * //

dimensions      [0 1 -1 0 0 0 0];

internalField   nonuniform List<vector> 
808
(
(0.896131 -0.0115423 0)
(1.0224 -0.0400663 0)
(1.16985 0.0288893 0)
(1.06904 0.0110769 -2.10696e-21)
(1.46864 -0.291706 0)
(0.952925 -0.0343179 0)
(1.13212 -0.0542223 1.94191e-21)
(1.07088 -0.00432777 0)
(1.34585 -0.228919 2.53143e-20)
(1.2309 -0.0939338 -1.13893e-20)
(1.16174 -0.0876717 5.17961e-21)
(1.37448 -0.261523 0)
(0.977138 -0.00016496 0)
(0.729749 -0.0280082 0)
(1.00754 0.0311623 2.28714e-20)
(1.03688 0.0102841 0)
(0.8967 0.0339397 -7.48638e-21)
(0.97054 -0.000801572 -4.43256e-23)
(1.18164 0.0238247 0)
(1.12171 0.00716205 0)
(1.19163 -0.0915745 -7.22903e-21)
(0.928884 0.126613 1.04446e-19)
(1.07341 0.00687884 -8.43557e-21)
(1.17663 -0.0341897 0)
(0.95472 0.187223 0)
(1.33431 0.0239678 -3.65222e-20)
(1.27814 -0.181451 9.69016e-21)
(0.955204 0.00618638 -2.91924e-21)
(1.04657 0.00596685 0)
(1.02786 -0.00851231 -2.06663e-22)
(0.963358 0.00249261 2.59418e-24)
(1.12532 -0.00709068 0)
(1.00713 -0.00861621 0)
(1.05539 0.00813204 2.30932e-21)
(1.30882 -0.0816939 9.7395e-21)
(0.740768 -0.110316 1.08693e-19)
(0.857328 -0.0287459 8.26538e-22)
(0.995362 -0.0204679 4.07355e-22)
(1.1746 0.0394997 -1.63286e-23)
(1.07279 -0.00146737 0)
(1.26823 -0.0705267 -1.9386e-20)
(1.27574 -0.135588 0)
(1.0019 -0.00200811 -3.23092e-21)
(1.10365 -0.0312276 2.83647e-21)
(1.23111 -0.0830534 0)
(1.00778 0.018516 -1.4812e-20)
(0.972356 0.0101771 -3.90544e-23)
(1.25084 -0.253564 7.77445e-21)
(1.15089 0.0640425 1.69205e-21)
(1.40187 -0.190766 -3.65701e-20)
(1.12383 -0.0576627 -2.57239e-21)
(1.14996 -0.0734962 0)
(1.11607 -0.00169595 2.89949e-21)
(1.0586 0.014119 0)
(1.32249 0.224669 6.54464e-21)
(1.0638 0.0608157 4.83699e-22)
(1.06196 0.0115987 0)
(1.12646 -0.0847416 2.77858e-21)
(1.23797 -0.098781 1.22255e-20)
(1.128 0.0442396 1.32654e-21)
(-0.263364 -0.00129675 0)
(1.21452 -0.214117 -7.96232e-21)
(1.10675 -0.0685838 0)
(1.43605 -0.0985734 -2.97774e-20)
(1.10163 -0.0413013 -4.41639e-21)
(1.04018 -0.0316515 -3.71494e-21)
(1.33248 -0.144448 2.90988e-20)
(0.677532 0.00849872 0)
(1.11266 -0.0676882 0)
(1.43067 -0.354797 0)
(0.841356 0.0353285 -5.20966e-23)
(1.23004 -0.145968 -3.98326e-20)
(0.986072 0.049639 0)
(1.05712 -0.0362132 2.97258e-22)
(1.11938 -0.334274 -5.46079e-20)
(1.1159 -0.0598717 -1.31473e-22)
(1.14533 0.0319631 8.86649e-22)
(1.32589 0.496174 2.52454e-20)
(1.10904 -0.0451187 0)
(1.01662 0.28411 -1.70773e-19)
(1.35207 0.00712751 2.10925e-20)
(0.705878 0.0192655 0)
(0.833195 0.0104717 -4.95459e-22)
(0.966915 -0.109499 4.03479e-21)
(1.11035 -0.0564227 2.71587e-22)
(1.19359 0.0212926 2.17191e-21)
(1.27116 -0.237791 0)
(1.35144 0.283687 0)
(1.09538 0.00592304 -3.25788e-21)
(1.41912 0.0631986 3.9498e-20)
(1.07632 -0.0149788 7.30672e-21)
(1.3203 -0.130419 -1.48153e-21)
(0.966056 0.0259254 1.52323e-20)
(1.00342 -0.0246886 0)
(1.11703 0.0148226 6.27797e-22)
(1.29851 -0.0923393 -7.82897e-20)
(0.861966 0.00777944 -1.93065e-21)
(1.35136 -0.065193 0)
(1.3287 -0.095283 0)
(1.41406 -0.112766 -4.5005e-20)
(1.08068 -0.0633689 8.52627e-22)
(1.12433 0.0115621 1.43764e-22)
(0.952901 0.030671 6.43449e-21)
(1.18707 0.0158455 -1.04243e-21)
(1.34645 0.0367458 -3.0337e-20)
(0.999469 0.00260224 8.4671e-21)
(1.4512 -0.0673384 0)
(1.05018 0.019645 0)
(1.09745 0.0348004 -1.32966e-21)
(1.19988 -0.221389 -6.30131e-21)
(1.28704 0.0186811 1.58418e-20)
(1.04764 0.0473674 -1.15482e-19)
(1.1302 0.0476318 6.41518e-22)
(1.15064 0.101181 3.46558e-21)
(0.87081 -0.00510951 0)
(0.91685 -0.0455158 7.33944e-20)
(1.13794 0.026342 2.03968e-21)
(1.42325 -0.268309 -1.76122e-20)
(1.09416 -0.0351137 -1.47734e-22)
(0.919905 0.0101311 2.60702e-21)
(-0.382884 -0.00418105 0)
(0.859648 -0.0132161 2.08612e-21)
(0.802201 0.0297856 0)
(1.07036 -0.000300561 -6.49784e-23)
(1.01087 0.0283134 0)
(1.31398 0.318186 1.0071e-20)
(1.03139 -0.0524334 -2.71209e-20)
(1.23934 0.130076 2.28266e-21)
(1.14961 -0.0629231 0)
(1.09426 -0.023717 0)
(0.568578 -0.0469149 0)
(1.07411 -0.0272485 -9.67645e-22)
(1.25226 -0.050021 1.14031e-20)
(1.0678 0.114705 -2.82683e-20)
(0.882525 -0.00349338 0)
(1.1061 0.026123 3.41925e-22)
(1.13786 0.03529 2.37261e-21)
(1.07742 -0.00191628 -8.40061e-22)
(0.966664 0.0351514 4.90263e-22)
(1.13121 0.01574 -1.20523e-22)
(0.0122258 0.0810329 0)
(1.09375 -0.0224918 -8.21314e-21)
(1.18574 0.0395739 1.52667e-21)
(0.718903 0.0356088 1.01791e-22)
(1.25927 0.165645 1.72493e-21)
(1.0876 0.0454286 3.73792e-21)
(1.04725 0.0190671 1.33728e-20)
(0.99136 0.0290793 0)
(1.12584 -0.120872 -1.48083e-20)
(1.05995 0.0137345 0)
(0.901848 0.0301016 -2.82424e-22)
(0.970727 0.283946 1.36806e-19)
(0.952713 0.0363517 0)
(0.818653 0.103353 0)
(-0.150825 0.033576 -7.50541e-20)
(1.33885 0.124983 -1.55157e-20)
(0.646239 -0.0213529 0)
(1.45786 0.00297127 0)
(1.14703 0.0155239 0)
(1.35872 0.0757546 1.74054e-20)
(-0.034484 -0.091735 0)
(-0.0689421 0.106584 3.63272e-20)
(0.964913 -0.0639477 7.80558e-20)
(0.991437 0.0426516 -3.47419e-22)
(0.857639 0.00457942 0)
(1.03393 -0.0407341 1.133e-21)
(0.891559 0.0227846 0)
(0.712931 -0.0469804 -8.43618e-20)
(1.00852 0.0489504 -1.73965e-21)
(1.0816 -0.0546068 1.81119e-21)
(1.09115 0.0168942 2.42226e-21)
(1.01516 0.068796 -9.84431e-21)
(0.785289 0.00133364 -3.72117e-21)
(1.13549 -0.348334 5.07681e-22)
(0.91231 -0.0224857 0)
(1.06244 -0.00177586 -1.04462e-20)
(0.872471 0.0109672 -7.33307e-21)
(1.37791 -0.177706 2.24937e-21)
(0.701085 0.0339045 0)
(1.03189 -0.1449 0)
(1.07295 -0.0398472 1.48512e-21)
(1.39518 0.211793 1.24173e-20)
(1.11146 0.0202654 6.27073e-22)
(1.03761 0.018751 1.80738e-20)
(0.769886 0.0157521 -8.58234e-20)
(0.812354 0.00342074 1.47404e-20)
(1.13569 -0.0233072 -5.58885e-22)
(1.39342 -0.0897839 -5.68159e-21)
(1.07773 -0.056589 -3.04623e-21)
(1.33028 -0.0461212 4.86859e-21)
(-0.16834 0.0608843 5.50669e-20)
(1.2855 -0.0272716 0)
(0.586852 -0.0111463 0)
(1.0656 -0.0235811 -4.98097e-21)
(1.10485 0.010432 -1.92854e-21)
(0.0766672 0.0879907 0)
(0.889264 -0.0107042 -2.82343e-23)
(1.07639 -0.0325511 -1.61873e-21)
(1.01763 0.00400507 1.00897e-21)
(1.08006 0.0359524 -5.47472e-21)
(1.00935 0.0233934 2.5452e-21)
(1.02051 -0.0180911 1.4279e-21)
(1.0469 -0.0217958 0)
(0.321668 -0.0376165 0)
(1.04753 -0.063203 0)
(1.1618 0.104021 -3.25855e-20)
(-0.0346508 -0.0994402 4.75305e-20)
(1.08932 -0.00199541 -9.57603e-24)
(1.17369 0.05201 0)
(0.753461 0.0299297 -3.0551e-22)
(1.09393 0.00740022 1.17739e-21)
(-0.00654561 -0.0384498 -1.47683e-19)
(0.805844 -0.0176509 -5.25473e-20)
(0.59413 -0.0202982 0)
(1.06832 -0.00722889 0)
(0.917268 0.0545424 -1.28453e-22)
(1.00009 -0.113855 5.66098e-21)
(1.28324 0.396148 4.38748e-21)
(1.07295 0.00130054 -6.01121e-23)
(1.09067 -0.0614124 -3.55421e-21)
(1.06403 -0.00721542 0)
(1.36709 0.421956 -4.73918e-20)
(0.636271 -0.00164517 0)
(0.851169 0.00351627 -1.49337e-21)
(1.05897 0.00965686 1.09571e-22)
(0.594662 -0.00236979 0)
(1.10085 -0.00518941 0)
(0.0796214 -0.0377746 -4.78191e-20)
(1.14642 -0.0613639 -6.74708e-21)
(0.831277 -0.00291778 1.42677e-21)
(0.991857 -0.00349367 0)
(0.608636 -0.00761201 0)
(0.840385 0.000929208 -1.49598e-21)
(0.621141 -0.00608728 -1.86464e-22)
(1.31987 0.0157293 3.9329e-22)
(1.14262 0.0371807 -3.28743e-21)
(0.818127 0.00323224 -1.43595e-21)
(1.0678 0.0110782 1.29637e-22)
(1.06995 0.00132993 5.6641e-23)
(0.614728 0.00372682 3.82165e-21)
(1.0691 0.0115164 3.31918e-22)
(1.06626 0.00200975 0)
(1.0595 -0.00304355 0)
(0.599955 0.0103536 0)
(1.04873 0.00577292 0)
(1.07731 -0.00441579 -4.94682e-22)
(1.06532 0.000143602 0)
(1.06536 0.00715122 0)
(1.06545 0.000559204 0)
(1.09378 0.0185549 0)
(-0.0195088 -0.0370942 4.64088e-20)
(1.06981 -0.000570251 2.46118e-22)
(1.07018 0.00244673 0)
(1.35768 0.0347376 2.26851e-20)
(1.07379 -0.00731492 5.66977e-22)
(1.09772 0.060406 -1.55548e-21)
(1.07834 -0.0148536 3.512e-21)
(1.06678 0.000121855 0)
(0.602688 0.000749002 3.05481e-21)
(1.05345 0.0425139 9.57453e-21)
(1.15148 -0.0324626 0)
(1.07546 0.00940682 -1.33978e-21)
(1.06819 -0.00518382 2.36825e-21)
(0.653295 0.11988 -9.47556e-21)
(1.10451 -0.0187922 2.19882e-21)
(1.08437 0.009387 -3.69416e-21)
(1.04733 0.0271047 0)
(1.14624 0.0424211 -1.17154e-20)
(1.09873 0.0258714 -3.05084e-21)
(0.863853 -0.0209557 6.98389e-21)
(1.00393 0.0500878 0)
(-0.0186828 -0.0206232 0)
(0.978361 0.114661 -1.65904e-20)
(1.05507 0.00645244 0)
(1.27753 -0.0797958 2.43943e-20)
(1.07705 0.00701777 7.28993e-22)
(1.07113 0.0152655 3.55105e-21)
(1.08218 0.00617074 -2.06592e-21)
(1.35751 -0.0569133 1.14584e-19)
(1.01576 -0.321772 5.51302e-20)
(1.06878 -0.010543 -2.69978e-22)
(1.0011 0.0491609 0)
(1.03607 0.0400914 0)
(0.901304 -0.00176598 -2.22169e-20)
(1.26884 -0.114868 -4.5309e-20)
(1.07053 -0.0064586 0)
(0.741193 -0.0318266 1.12067e-20)
(0.475587 0.074651 0)
(0.970604 0.00549944 5.19608e-21)
(0.878517 -0.0188657 -1.27996e-20)
(0.773769 0.0188482 7.17556e-22)
(1.09111 -0.0160105 0)
(1.10543 0.0261885 -8.50314e-22)
(1.12707 0.0477759 3.46688e-21)
(0.916704 -0.0100635 -7.17078e-21)
(1.08462 -0.00810059 -3.19711e-21)
(0.9486 0.027637 0)
(1.09252 0.0733993 0)
(1.13009 -0.0391061 5.10663e-21)
(0.947337 -0.0131907 -5.2489e-21)
(1.087 0.00520412 4.64109e-21)
(1.05659 -0.0025809 -2.19458e-21)
(1.02886 0.0471826 4.99e-22)
(1.05457 0.00101707 0)
(0.409802 -0.137055 1.35042e-20)
(1.32506 0.0661187 -2.69368e-20)
(0.952978 0.0111712 -8.05804e-21)
(0.190243 0.0810361 1.00189e-20)
(1.42526 -0.151657 2.60918e-20)
(0.922418 -0.0492566 8.03863e-20)
(1.14343 -0.0225322 -5.2498e-21)
(1.06412 -0.00683343 -1.15182e-22)
(-0.0550512 -0.108663 -8.13787e-21)
(0.997875 -0.00538738 0)
(1.03474 -0.0868878 -1.5255e-20)
(0.854796 -0.0359379 -9.13435e-22)
(1.06966 -0.0477263 -3.53089e-22)
(0.901715 -0.0407289 -1.1294e-21)
(0.63144 -0.0091362 5.65439e-22)
(1.40744 -0.386552 -1.5126e-20)
(1.08314 0.0476015 0)
(1.04773 -0.00622936 -7.50911e-22)
(1.11571 0.0188638 -4.36894e-22)
(1.14316 -0.00676118 0)
(1.01321 0.00446309 -6.68629e-21)
(1.12007 0.0549647 7.24256e-22)
(0.865514 -0.0559075 1.82174e-20)
(1.14593 -0.0430906 1.16301e-20)
(1.00415 -0.000591892 3.83013e-21)
(-0.043308 -0.0299998 0)
(0.559741 0.167481 8.80303e-21)
(1.10715 0.0143834 0)
(0.998861 0.1821 3.38644e-21)
(0.993828 0.192661 0)
(1.11628 -0.017957 -3.84029e-21)
(1.01572 0.0268501 0)
(1.12021 -0.0260371 0)
(1.39934 -0.133436 2.28308e-20)
(0.793928 -0.0824846 0)
(1.19798 -0.129297 1.3246e-20)
(1.05319 0.010784 1.07484e-22)
(1.03189 0.051413 5.25029e-22)
(1.25196 -0.0838779 -1.51537e-20)
(1.24793 0.113873 -9.68144e-21)
(1.17289 -0.0626906 1.15961e-20)
(1.11723 0.0569822 0)
(1.16614 -0.0654763 0)
(1.07631 0.0482226 1.11977e-21)
(1.22076 -0.0373361 0)
(1.42278 0.20847 -3.0067e-20)
(0.879659 -0.074286 2.2717e-22)
(1.02645 0.0153626 1.61706e-20)
(1.26528 0.0453767 -4.45876e-22)
(-0.01563 0.00396573 0)
(-0.0266159 -0.0610629 0)
(0.102998 -0.0151625 -4.37811e-20)
(-0.0444705 -0.115775 0)
(0.819307 -0.0807643 -1.07232e-20)
(1.17836 0.0466985 4.0538e-22)
(1.13871 -0.0737985 -1.25455e-21)
(1.2057 -0.0836284 -3.16655e-21)
(1.19946 -0.0518856 0)
(0.819381 -0.00635479 -1.27958e-21)
(1.11564 0.0437711 0)
(1.08983 -0.00750221 4.53532e-22)
(0.496656 -0.108768 0)
(0.85152 -0.0760855 -3.09977e-22)
(1.09511 0.0515487 0)
(1.09624 -0.013014 0)
(0.757143 0.06339 5.73171e-20)
(0.72614 -0.0512659 -1.83839e-21)
(1.05447 -0.00121817 1.14251e-21)
(1.0152 0.0146712 -7.90191e-21)
(0.159463 -0.0901374 0)
(1.17848 -0.107643 -1.58775e-20)
(1.21505 0.0941609 -8.46846e-21)
(1.16782 -0.097161 8.15638e-23)
(0.792521 -0.0456805 6.39625e-21)
(-0.055992 -0.0628283 -9.9724e-20)
(1.12178 0.0820924 0)
(-0.0356986 0.0459235 0)
(1.15103 0.0944505 -1.7246e-21)
(0.573613 0.0211529 -6.88368e-21)
(1.08631 -0.0125877 -4.70984e-21)
(1.08888 -0.0370557 0)
(1.15286 -0.0701448 1.03001e-21)
(1.23738 -0.153305 1.4142e-20)
(0.526419 -0.0496738 -9.37203e-21)
(1.13583 -0.035439 2.72285e-21)
(1.15847 -0.0794078 7.88099e-23)
(0.115624 -0.0153336 1.04085e-20)
(1.20813 -0.0857763 -5.00487e-21)
(1.1192 0.0491918 0)
(1.12604 0.0704221 0)
(1.17604 -0.053557 4.67583e-21)
(1.1666 0.0952434 7.65357e-21)
(0.651016 -0.161548 -2.66527e-20)
(1.19278 -0.123862 -9.73248e-21)
(1.1052 0.0733274 -9.90421e-22)
(0.484797 -0.0113617 -5.52977e-23)
(0.33991 -0.0536004 -1.04868e-19)
(-0.0215627 -0.217433 2.13835e-20)
(1.17145 0.183787 -6.81576e-21)
(1.22851 -0.49327 5.55728e-21)
(1.41936 0.0858225 -1.97086e-20)
(1.1931 -0.050165 -5.54114e-21)
(0.934107 -0.230069 9.13007e-20)
(-0.263635 -0.0865008 0)
(1.07035 0.0161877 -4.26126e-22)
(0.199758 0.205064 -1.31818e-20)
(1.14381 0.0977215 1.49231e-21)
(1.10182 -0.0358072 4.77925e-21)
(1.06806 0.0324001 0)
(0.696085 -0.0184888 0)
(1.17355 -0.0501214 0)
(1.26487 0.197189 -3.8616e-21)
(1.26527 -0.0121266 -3.27514e-20)
(1.14458 -0.0480014 -5.07499e-21)
(0.601651 0.0126743 0)
(0.748915 0.00466792 0)
(0.75877 -0.00129011 1.88997e-22)
(0.602329 -0.0113594 0)
(1.09633 0.00707451 0)
(1.01961 -0.0121502 2.13197e-20)
(0.336344 0.0733042 0)
(0.941731 0.0150132 0)
(1.05797 0.0129679 0)
(1.1784 0.181698 1.83961e-21)
(1.26473 0.0583079 1.48159e-20)
(0.959931 -0.0312647 2.27635e-21)
(1.28279 -0.400638 -1.0755e-19)
(0.603998 -0.0574417 -4.17477e-21)
(1.1922 0.0440387 3.9179e-21)
(1.12377 -0.0108948 0)
(-0.40344 -0.127294 0)
(-0.268155 0.0491347 0)
(1.15629 -0.0430938 -9.51999e-21)
(1.31699 -0.291645 -2.75786e-20)
(1.29799 0.14154 0)
(1.07032 0.0510772 -1.69506e-21)
(0.438679 -0.119757 0)
(1.50369 -0.176573 7.29638e-20)
(0.41438 0.52331 1.03877e-19)
(0.264045 -0.0422363 0)
(1.08907 -0.277408 1.15442e-19)
(0.382908 0.00971037 0)
(-0.227024 -0.058419 8.72553e-21)
(1.35592 0.125131 0)
(-0.0685385 0.00165469 3.62251e-22)
(0.98348 -0.0498761 0)
(1.22189 -0.0893895 -1.00132e-20)
(-0.156136 -0.0534875 -8.09398e-21)
(1.10934 -0.0408046 -1.75928e-21)
(1.17123 -0.107452 -5.47262e-21)
(0.569565 -0.50993 -9.01053e-20)
(1.07297 -0.0129226 -9.82979e-22)
(1.19223 -0.130273 1.6731e-21)
(1.183 0.247521 -1.28862e-20)
(1.1365 -0.113223 -7.49797e-22)
(1.15536 -0.0298645 -2.12933e-21)
(-0.128585 -0.144693 -6.86139e-20)
(0.0632675 0.0985998 -8.39413e-21)
(1.20553 0.0808722 1.41435e-21)
(1.0562 -0.051294 0)
(0.620023 0.00606504 -7.38151e-21)
(1.39367 -0.443209 8.23791e-20)
(0.914194 -0.0794927 -5.84835e-20)
(1.44722 0.140969 9.13897e-20)
(1.08587 -0.0581715 -8.93711e-22)
(1.19604 -0.0806933 5.15779e-21)
(1.06278 -0.00772118 0)
(1.18432 -0.0149738 0)
(1.24983 -0.0764728 4.2195e-21)
(1.08981 -0.0209174 -4.5134e-21)
(1.17085 -0.127452 1.11293e-21)
(1.06712 0.0419177 -2.23288e-21)
(1.44865 -0.0310785 -5.36394e-20)
(0.451185 0.0361056 0)
(1.21951 -0.0854364 5.40336e-23)
(1.3195 0.113796 0)
(1.08968 0.0640965 1.01844e-22)
(1.14301 0.0148385 0)
(1.04802 -0.00725376 1.01191e-20)
(1.232 0.0241729 2.16992e-20)
(1.10348 -0.00458492 0)
(0.0519564 -0.0292045 1.5537e-19)
(0.882363 -0.208557 -7.16092e-20)
(1.30438 -0.0310668 -3.32863e-20)
(-0.126744 -0.0471875 4.33508e-20)
(1.19156 0.0450321 4.94863e-22)
(1.02674 -0.00688392 -2.2941e-21)
(-0.119696 -0.00524303 -4.51969e-20)
(-0.0310728 0.0285183 -2.85749e-20)
(1.0157 -0.0308287 0)
(-0.0267093 -0.0306048 0)
(1.24493 0.0796895 0)
(0.111465 -0.0995262 0)
(1.10536 -0.0306347 0)
(0.133679 0.0311362 0)
(1.10658 0.0614938 0)
(1.19205 0.18001 0)
(1.26873 0.121275 -1.49486e-21)
(0.570481 -0.282924 -2.12423e-20)
(-0.229928 0.070374 0)
(1.11525 -0.101277 6.08562e-20)
(1.07681 -0.000250818 1.04702e-21)
(1.36929 0.054459 0)
(-0.0364411 -0.0390289 0)
(1.15731 -0.000958403 8.33728e-21)
(1.16122 -0.021238 -3.73104e-21)
(1.17318 0.390386 0)
(0.2268 -0.0721902 5.87218e-20)
(1.12122 0.0579662 4.82601e-22)
(0.230151 -0.0512147 -5.26161e-20)
(-0.0610796 0.0522607 -3.47055e-20)
(-0.0350599 0.0496962 8.8692e-20)
(0.618229 0.0771199 2.82389e-20)
(1.069 -0.00610908 2.15882e-21)
(1.11481 0.0712562 5.0315e-21)
(1.02236 -0.00815655 0)
(1.07105 -0.0677443 -1.9179e-20)
(1.23343 0.0814941 -1.59237e-20)
(-0.0100708 -0.0197055 1.02689e-19)
(0.980179 -0.0718686 -5.68071e-20)
(0.701612 0.0527937 1.27657e-20)
(1.07704 0.00156137 -2.63487e-21)
(0.0720878 -0.0302526 3.35943e-20)
(0.241628 -0.0377758 -4.75359e-20)
(0.380677 -0.0562856 -5.32313e-20)
(1.19236 0.140524 -1.75706e-21)
(-0.0521063 -0.0310476 0)
(1.04341 0.11695 5.28753e-21)
(1.18376 -0.115655 9.67061e-21)
(1.12935 -0.089665 -9.32396e-21)
(1.28635 0.00549297 0)
(1.51038 -0.231967 7.23344e-20)
(1.07599 0.000542575 -2.08117e-21)
(-0.0121078 -0.0317342 -3.46557e-20)
(0.315841 0.0919012 0)
(0.940731 0.00950466 -1.44421e-21)
(1.12429 0.0284853 -1.93235e-21)
(0.760758 -0.151127 1.64673e-20)
(1.15842 -0.00175294 -3.19452e-21)
(1.11859 0.0451836 0)
(1.12909 -0.172694 -1.46836e-20)
(-0.0807309 -0.102335 -6.83363e-20)
(1.32421 -0.023853 2.61386e-20)
(1.10497 0.174284 -8.92894e-21)
(1.0668 0.0291258 2.55371e-21)
(-0.0365005 -0.0477319 1.55414e-20)
(-0.0289841 0.0473702 -6.87857e-20)
(0.74236 0.0235113 0)
(0.853874 0.177768 0)
(1.1543 0.0963696 -9.10917e-21)
(1.05301 0.0695569 8.99693e-21)
(1.07169 -0.000629986 0)
(0.48417 -0.0567992 5.06445e-20)
(0.738703 0.0915477 -1.2398e-20)
(1.09969 0.108762 0)
(1.06096 0.0303694 0)
(1.40285 0.16069 0)
(1.13024 -0.0028581 0)
(1.15856 0.0430749 1.84519e-21)
(-0.0428717 0.0465024 3.79075e-20)
(1.10274 0.00586032 3.27475e-21)
(1.39803 -0.201766 -8.25944e-20)
(1.20185 0.0517536 -2.89502e-21)
(-0.0357176 0.0247721 0)
(1.16383 -0.0977825 0)
(0.767813 -0.00275402 -6.99898e-22)
(0.54209 0.0092384 -6.29805e-20)
(0.0728457 0.0363438 5.09191e-20)
(1.00399 -0.00748442 1.10993e-21)
(0.734803 -0.270607 0)
(0.668543 -0.0904945 0)
(1.1661 0.0311465 0)
(0.543489 0.517546 2.73975e-20)
(-0.0218531 0.0321057 -3.19248e-20)
(1.06697 -0.00292622 -1.31656e-21)
(-0.0192587 -0.0507497 6.54136e-20)
(1.07381 -0.0210961 1.49709e-21)
(1.17684 0.315006 2.45775e-20)
(1.11319 -0.092362 6.41766e-21)
(0.311777 -0.0715189 8.95357e-20)
(1.06071 0.0514296 2.82881e-21)
(1.19278 -0.125231 0)
(0.563264 0.273329 0)
(1.03916 -0.001388 3.70445e-21)
(-0.217257 -0.00296842 0)
(0.600596 0.0243096 -3.92043e-22)
(0.598246 -0.413267 -3.08898e-21)
(0.241928 0.0496573 -1.18543e-19)
(1.1225 -0.22627 2.89421e-20)
(1.04313 0.367162 9.29016e-21)
(0.97823 0.0206757 0)
(1.09275 0.00956709 2.03506e-22)
(0.764914 0.00511095 0)
(1.02486 0.00416836 -2.33902e-22)
(0.426675 -0.019077 0)
(0.712249 0.135502 0)
(0.992732 -0.0254682 6.96436e-22)
(1.44779 0.168128 -1.77543e-20)
(1.07135 -0.0128988 1.57911e-21)
(0.517728 -0.486843 0)
(1.13111 -0.155672 1.29465e-21)
(0.806654 0.382688 6.68047e-20)
(-0.0396172 0.0207177 1.2507e-21)
(1.21438 -0.0289979 1.43826e-20)
(1.21383 0.0247959 -1.7242e-20)
(1.08913 -0.0221983 5.70173e-22)
(0.817112 -0.014992 1.0163e-21)
(0.0632055 0.0188283 4.00215e-20)
(-0.0212768 -0.0170756 -5.76586e-20)
(-0.248102 -0.00880556 0)
(-0.290015 0.139411 0)
(1.17674 -0.611891 3.16641e-20)
(1.1502 -0.0375187 2.07778e-21)
(0.879521 -0.461054 -4.28081e-20)
(1.03767 0.131406 -1.18939e-20)
(1.37684 0.196324 3.85371e-20)
(0.607715 0.423653 0)
(0.247746 0.419661 -1.09467e-19)
(0.598044 0.486692 0)
(0.0415847 0.0519769 0)
(1.11722 -0.4772 0)
(-0.0596904 0.0336304 -4.71323e-22)
(1.19839 -0.00792055 0)
(0.91178 0.193633 -2.56114e-20)
(0.598819 0.698183 2.06571e-20)
(1.32384 0.216871 9.43125e-21)
(-0.030282 -0.0866622 -1.08987e-19)
(0.82073 0.222524 -6.45175e-21)
(0.456317 0.14561 -1.42693e-20)
(1.20458 0.0845049 0)
(1.36732 0.355241 4.18843e-20)
(1.22845 0.568866 1.25279e-20)
(0.161057 -0.0141456 -2.39929e-20)
(1.01963 0.13429 3.60704e-20)
(0.963878 -0.00439403 5.73009e-22)
(0.953264 0.00244254 -3.24729e-22)
(-0.00685999 -0.0266457 0)
(0.64149 -0.645243 -2.98375e-20)
(0.614046 0.207184 0)
(0.0740722 -0.125208 0)
(-0.0525926 0.0745066 0)
(0.0037046 -0.112297 -4.11102e-20)
(1.23456 -0.0153769 -1.64982e-20)
(-0.024135 0.079103 0)
(-0.0426639 0.067586 0)
(1.45783 0.111164 -8.83112e-20)
(-0.0335586 -0.0672785 4.93286e-20)
(0.115511 0.238319 -9.80476e-20)
(0.391324 0.0184795 0)
(0.167862 -0.272279 8.0037e-20)
(1.07486 -0.239165 0)
(0.993313 -0.281815 0)
(0.0065874 -0.0875253 1.02617e-19)
(1.14746 0.0268421 1.06861e-22)
(1.13026 0.345106 2.44408e-20)
(0.264955 0.028298 4.90874e-20)
(0.399862 -0.511347 -3.6769e-20)
(1.31598 0.0666107 0)
(1.22933 0.196341 2.39884e-20)
(1.22767 0.210775 -2.9465e-20)
(0.102745 0.0937724 -2.29083e-20)
(-0.0765272 -0.00125782 0)
(1.06987 -0.0559642 -1.9181e-20)
(1.10023 -0.221643 -1.42551e-20)
(0.579229 -0.397168 0)
(1.09502 -0.149148 -2.4637e-20)
(-0.117146 0.102317 0)
(0.619954 0.0514001 0)
(1.4599 0.0342844 4.5468e-20)
(1.01806 0.00741557 3.20581e-22)
(1.08278 0.748805 -1.19214e-20)
(0.223066 -0.373221 1.30019e-19)
(1.07535 -0.00732702 -1.94225e-22)
(1.20757 0.06713 3.15049e-21)
(-0.0633464 0.0848927 3.27023e-20)
(0.792168 0.738087 2.34071e-20)
(1.34171 -0.372461 -1.29493e-20)
(-0.137506 -0.0773667 8.07412e-20)
(1.08583 -0.000643475 0)
(0.222429 -0.0432969 -9.56624e-21)
(0.889749 -0.629692 2.78617e-21)
(0.90579 0.645633 -2.48692e-20)
(0.53508 -0.0365716 -6.22117e-20)
(1.13832 -0.0085092 5.68576e-21)
(1.07668 -0.0880797 5.91145e-21)
(1.13695 0.0700517 -3.22539e-21)
(1.10533 0.121652 1.23561e-21)
(1.13175 -0.13043 0)
(0.916598 0.110466 1.56732e-20)
(0.892751 0.461681 0)
(1.27426 0.138094 4.40543e-21)
(1.16844 0.108164 -3.88679e-21)
(0.757603 0.265711 0)
(0.524839 0.110904 1.13083e-19)
(0.898148 0.717155 -8.27843e-22)
(1.08117 0.292034 -1.87702e-20)
(1.03723 -0.00910302 1.04966e-20)
(0.417312 0.498329 0)
(1.28816 -0.472938 0)
(0.696724 -0.106417 6.11486e-21)
(1.27031 0.505793 0)
(-0.0228111 0.0627412 -4.60484e-20)
(1.27673 -0.414846 -9.85085e-21)
(1.17064 0.512531 0)
(0.453143 0.224431 1.64724e-19)
(1.13041 0.317805 -1.2758e-19)
(0.80904 -0.633191 -2.55193e-20)
(1.14795 0.0712551 -4.75772e-21)
(0.922768 0.152612 8.6602e-20)
(1.08805 0.169886 4.31761e-20)
(1.07652 0.707939 -1.32603e-21)
(0.898008 -0.432524 6.37267e-20)
(1.43603 0.173018 4.77682e-20)
(1.12811 0.00456747 5.96718e-22)
(0.00164479 -0.0436761 9.11579e-20)
(1.07376 -0.697078 2.6034e-20)
(0.864004 -0.712904 5.24361e-20)
(0.248981 -0.323159 0)
(0.971054 -0.144679 7.00502e-20)
(0.363658 0.315154 -4.27729e-19)
(-0.118322 -0.0312096 2.57776e-20)
(0.249717 0.0528629 2.46172e-20)
(0.664433 -0.0591183 -7.33457e-20)
(1.08456 0.532988 0)
(0.993519 0.223208 7.36853e-20)
(1.087 0.0287276 2.05694e-21)
(0.914597 0.44671 -8.61307e-20)
(0.773674 -0.717568 -8.35831e-21)
(0.926851 0.0271224 -4.74518e-20)
(0.98177 0.493718 0)
(1.19147 0.197255 -1.20373e-20)
(1.37202 -0.513955 1.31516e-20)
(1.22365 -0.340254 8.84277e-21)
(-0.330065 0.0829354 3.92384e-20)
(0.193971 0.0127319 -1.77958e-20)
(0.972364 -0.11546 -5.63406e-20)
(0.355576 0.531867 0)
(0.916287 0.0217563 3.7809e-20)
(1.16262 0.639574 8.75269e-20)
(-0.0594864 -0.101023 1.45955e-19)
(-0.0866203 0.0629409 -2.72389e-20)
(-0.086472 -0.0789219 4.22881e-20)
(1.10037 0.0189123 -2.53146e-21)
(1.12036 -0.458156 0)
(1.0589 -0.728857 -4.13265e-20)
(0.700776 0.354746 0)
(0.0377146 -0.108963 -1.03355e-19)
(1.07071 0.00137676 2.76499e-21)
(-0.0331261 -0.0729292 -2.93676e-20)
(1.04704 0.0565619 -1.23371e-20)
(0.105268 0.0353515 5.96377e-20)
(0.852763 0.128602 0)
(1.38393 -0.0397266 5.24336e-20)
(0.0611772 0.063734 -2.79492e-20)
(-0.333775 0.0503994 -4.65829e-20)
(-0.277093 0.0654119 0)
(0.0767808 -0.0113378 0)
(1.34367 -0.0108803 -1.4757e-20)
(0.370922 -0.0111713 1.51358e-19)
(1.25682 -0.722068 -2.22468e-20)
(0.940589 -0.154041 3.40545e-20)
(1.07407 0.252012 -2.55349e-20)
(0.363892 -0.54863 1.37967e-19)
(1.55481 0.277247 -3.83727e-20)
(0.0600335 -0.0604553 3.51295e-20)
(0.209228 0.313275 1.90884e-19)
(0.0848269 -0.0332869 -1.32094e-19)
(0.938104 -0.488399 -4.2525e-20)
(1.46026 0.388961 3.91706e-20)
(0.560531 -0.667984 4.83497e-20)
(1.10628 -0.0815479 -6.01251e-21)
(0.213891 -0.0266783 5.582e-20)
(1.1889 0.29271 -5.09891e-20)
(0.665269 0.645815 -3.83222e-20)
(1.32607 -0.620314 0)
(1.4244 0.52169 3.59312e-20)
(1.04678 -0.524522 -1.21771e-20)
(1.39498 0.609265 -1.11486e-19)
(1.17789 0.0471859 0)
(-0.0572332 0.0959655 0)
(1.25717 0.733268 0)
(1.13325 -0.00156535 -3.8193e-21)
(0.736689 -0.296046 -2.02611e-19)
(0.475542 -0.0766645 0)
(-0.0605695 0.105179 -2.77096e-20)
(1.01974 -0.243689 9.42909e-20)
(-0.404687 0.0405248 0)
(0.321373 0.0330413 1.20234e-20)
(1.13973 0.0464746 0)
(1.42172 0.275514 0)
(1.17976 0.0668883 5.09449e-21)
(0.359267 -0.284391 0)
(1.01584 0.152855 3.33751e-20)
(1.31467 0.286753 0)
(-0.122434 0.0731806 -9.52766e-22)
(0.808903 -0.390341 0)
(1.52141 0.336831 -5.82425e-20)
(1.2458 0.370887 -3.82954e-21)
(0.844866 0.651326 -9.24466e-21)
(1.01262 0.158358 -8.13513e-20)
(0.968099 -0.201733 -4.61689e-20)
(1.45883 0.294205 3.42447e-20)
(1.02873 0.104969 0)
(0.563547 -0.0649944 0)
)
;

boundaryField
{
    FrontBack
    {
        type            empty;
    }
    Top
    {
        type            noSlip;
    }
    In
    {
        type            fixedValue;
        value           uniform (1 0 0);
    }
    Bottom
    {
        type            noSlip;
    }
    Out
    {
        type            zeroGradient;
    }
    circle
    {
        type            noSlip;
    }
}


// ************************************************************************* //
