/*--------------------------------*- C++ -*----------------------------------*\
| =========                 |                                                 |
| \\      /  F ield         | OpenFOAM: The Open Source CFD Toolbox           |
|  \\    /   O peration     | Version:  2412                                  |
|   \\  /    A nd           | Website:  www.openfoam.com                      |
|    \\/     M anipulation  |                                                 |
\*---------------------------------------------------------------------------*/
FoamFile
{
    version     2.0;
    format      ascii;
    arch        "LSB;label=32;scalar=64";
    class       volScalarField;
    location    "1444";
    object      p;
}
// * * * * * * * * * * * * * * * * * * * * * * * * * * * * * * * * * * * * * //

dimensions      [0 2 -2 0 0 0 0];

internalField   nonuniform List<scalar> 
808
(
-0.035985767103638
0.04502857309322165
-0.01171413558185926
0.03494673026340504
-0.304038463225889
-0.05469612957277554
-0.01458092909974364
-0.02394751703045452
-0.2003300458860111
-0.08578484839700293
-0.009676575475310792
-0.2580058345098021
-0.03058518127065557
-0.01298604329448608
-0.120631071350449
-0.01404301069176368
-0.1388061765358113
-0.01357702782492465
-0.01236132829663459
-0.05703257888159256
-0.005971481319397212
0.1183525880008487
-0.06081569335028224
-0.07351659305785026
0.1766003485210481
-0.09947217982683264
-0.155447024184583
-0.02030332197928313
-0.01735527639149521
-0.02594892336229936
-0.02017209304203877
-0.0599560872893436
-0.02290684014516239
-0.0168177128410511
-0.1013361763796408
0.3439446386340069
-0.0385764630354237
-0.0167167736165163
-0.02328442635915695
-0.02656039233140993
-0.09208122111002212
-0.1292297330646097
-0.05076876122259102
-0.02069827679557112
-0.05447819682425779
-0.03984354558611291
-0.01231250190934409
-0.1878284383600617
-0.02760241511791807
-0.207700674216253
-0.0161799713941524
-0.06907772481647027
-0.05947730789967767
-0.01454060376540957
-0.1902488007005547
-0.02898950590481328
-0.01054126370632111
-0.01394503553990762
-0.1025542299997301
-0.04070752351365554
-0.09899076160265151
-0.1287845798944773
-0.01343589017929893
-0.130866354712881
-0.01701978732786039
-0.05057887992258026
-0.1679116640257064
-0.03564561810426149
-0.01481822128888023
-0.4464645737290961
-0.02697727363907833
-0.3080929268892967
-0.02201675566746174
-0.02045282155471797
-0.06760989620777609
-0.01733957745143605
-0.0435648981553818
-0.3587179645187286
-0.03549652355204138
0.04221169484484393
-0.0903038941879864
-0.01727285170568159
0.05682923728950204
0.04334848525264511
-0.01655597976506164
-0.05334216135441112
-0.5492995734304569
-0.2226768799349333
-0.05348301594210832
-0.1114276608918638
-0.05811620022279266
-0.1352021659254273
0.04079049247267767
-0.02376774733388937
-0.06052329865992252
-0.1208791518588088
-0.03848279039649451
-0.051842744761327
-0.1184290620547573
-0.141064787179465
-0.05213538808592616
-0.04844679743934097
-0.05570495185388293
-0.04582084370557864
-0.05796485091031942
-0.07320386559759429
-0.04111353554632797
-0.01114481327696878
-0.04110622542095761
-0.1269033380828633
-0.05128193870115437
0.08342586887297981
-0.04315677265575172
-0.007945070599424054
-0.02780755741545139
0.1800783285323037
-0.03990791918269573
-0.2737935715838883
-0.02033739444408279
-0.05494985038099394
-0.02845069767444567
-0.0478306533398374
0.01255516829184377
-0.05019029343455671
-0.03397110144514724
-0.2139744760587045
-0.04301732459630448
-0.004950611402746594
-0.07787091272273472
-0.06751607197523661
-0.1495906211378869
-0.02099306667609211
-0.07668159429937628
-0.0410519034999222
-0.02276386237775796
-0.01664499778952473
-0.006339364089976511
-0.007445125040750396
-0.05317671535217952
-0.05102992564896186
-0.2079732035806869
-0.05822287068636104
-0.008551632528438461
-0.02277537457752804
-0.1447448877946794
-0.002186803988634513
-0.07789327370132929
-0.02386112728968657
-0.001172288467156088
-0.01024320087651038
-0.03391004010074349
0.09566544919053192
-0.03987023683277174
0.2527828729988729
-0.2627123135276966
-0.1302625434718734
-0.03717874073929368
-0.09124174441698127
-0.009095573597877483
-0.1116954688909068
-0.184740786606112
-0.212865380995234
-0.1841571266985016
0.05531944333538941
-0.06180574719848197
-0.020299493161189
-0.06799944822321458
-0.1741711951992964
-0.02390987660952286
-0.01858899771184845
-0.05341191106865165
-0.01796839923941235
-0.005933274327298506
-0.1107547328672635
-0.02281765359404579
-0.0467699604985326
-0.06874834100123352
-0.1641943614032383
-0.03372319585240129
-0.3961871533408322
-0.01779155049849334
-0.2223112153840558
-0.0455245872595461
0.03043682521389243
-0.1047992554861892
-0.01412948218729466
-0.04158141661669471
-0.1061462961549683
-0.01771945614022478
-0.09733228695566183
-0.204323314995835
-0.07313049545871886
-0.02374733301125985
-0.04998954239575035
-0.04390119808262217
-0.2033222203547964
-0.02188085051693643
-0.01897777738234117
-0.01137567581169596
-0.05456036879072078
-0.05215536056210862
-0.02246096663842644
-0.02080979359316483
-0.2470790487128251
0.1280627318736567
-0.2003465276081487
-0.2079473579301941
-0.01176909119017709
-0.01160942699367292
-0.06771452306536281
-0.009454514440955636
-0.5137280084482818
-0.1243544328814754
-0.01899148376706836
-0.001535944964896021
-0.02427863101060563
-0.2872937955152172
-0.2734476123892303
-0.007186866067291946
-0.01780274782570226
-0.002273903295848565
-0.3439047834819318
-0.02829232068518829
-0.02918330814150761
-0.01252564062521724
-0.01975103152204027
0.05106110372299402
-0.1113247714291202
-0.01374175179500964
-0.02074034442335728
-0.04289276141507752
-0.01821179440049261
-0.01616498300917271
-0.02336404426464623
-0.06678388210440159
-0.01183175051589755
-0.01905461032722009
-0.008583464650370154
-0.0009603110719419675
-0.02953407128481009
-0.001593876576930842
-0.002275694488818856
-0.00609665535737603
-0.02560521307926674
-0.008037199689932032
0.001608549331653494
-0.004125194497605443
0.001121575726656119
0.002474322934673029
-0.008508799327947708
-0.1406971806607255
-0.003027298311391396
-0.001030718009512312
-0.04827911298858609
-0.02146431996849874
-0.0248949545971387
-0.01432533461289983
-0.006087116410557026
-0.02090091929814317
-0.03727077845727995
-0.01413725118390484
-0.01274311113196391
-0.01199610127884866
0.006226454825734543
-0.01017659884495675
-0.01226355101519072
-0.01124485993997797
-0.01070178918058801
-0.01000976776150208
-0.01123468429514155
-0.01409525500896194
-0.3097576657630648
0.06114431614802488
-0.01525767706594381
-0.01675142960718448
-0.01298480625904378
-0.01248210329447963
-0.008668778665805841
-0.09861184380539206
0.00884263243480783
-0.01388374373282945
-0.01474652701260733
-0.01082811389164632
-0.05342192276713705
-0.009445740415058339
-0.01393231656122607
-0.009140366367923964
-0.00108843012864839
-0.009729536401861123
-0.01069690013923077
-0.02488301940363098
-0.01628084825781119
-0.01199198076747202
-0.01330281176345599
-0.008379042846159765
-0.01308543219557332
-0.01143404934494237
-0.05716100305368491
-0.01289332836326462
-0.01154559875660944
-0.008698989822236035
-0.01492005084150018
-0.01407832574733181
-0.01574260561320914
-1.38147927982658
-0.0981727350579419
-0.0128594906635558
0.02272133995023149
-0.1661016935853899
-0.09320015402645672
-0.01133670189849783
-0.01407984008589322
-0.2571808182313352
-0.03098967191728592
-0.02064888826785083
-0.01091854266942354
-0.01971587612039744
-0.01115556416651805
-0.03068571966631026
-0.4163814881040137
-0.01222078933695398
-0.01409674724195001
-0.004871828893917343
-0.01045670222233294
-0.009397472663313517
-0.01433365032254135
-0.00954612166289745
-0.02617208682106752
-0.01127350647632952
-0.1604875900906892
0.01739806401667459
-0.007764355894358165
0.002930858309093913
0.01286557301508307
-0.04725725182585513
0.03001939418775659
-0.01277986838928554
-0.136239145879672
0.2819163753857439
-0.007362426589728174
-0.01312499280943673
-0.008418437165940059
-0.03326735400644243
-0.1221723844349645
-0.01317761292776096
-0.01237085791215375
-0.01702775197158292
-0.01361584436548283
-0.04094028806037785
-0.2135488915926617
-0.0114688086862032
-0.0410538535874586
-0.03991156138701616
-0.1654516234273213
-0.164643180613968
-0.1454200178994965
-0.2592759703261254
-0.006868634236307957
-0.02129204353252057
-0.01452504790196935
-0.01280757150417395
-0.03280151793854096
-0.02437788358164475
-0.01446602972083698
-0.01504985004671693
-1.084145532665626
-0.004975940374983181
-0.01374117134922413
-0.01843392285872908
-0.01840588446767038
0.003141831646716788
-0.01397398282006261
-0.02801955854534182
-0.1666081446592416
-0.0135679966208772
-0.02206549972659303
-0.01393843130114695
0.001862984750953975
-0.1791518409071831
-0.01337925463300699
-0.1433410964745898
-0.01604226805188039
0.009601606601758296
-0.01452169009188368
-0.02308696838975691
-0.01575866342493823
0.005190645311427828
-0.2786776082970793
-0.02549662185711737
-0.01608591046336359
-0.006901078905455445
-0.009400467509284128
-0.03061239419866379
-0.01436566523854514
-0.02042061868631956
-0.02136148330389466
0.01092500867786476
-0.101379809914412
-0.02214924724513215
0.00921098701846918
-0.05053984268568005
0.1571240983334627
-0.1025697465959713
-0.3226475495860923
-0.03030554963648569
-0.02537987121778365
0.1487296842660495
0.08815912200303141
-0.003268810444159694
0.05011579262793976
-0.01571520117392876
-0.01459224771981207
0.002228127465923109
0.01202696909904085
-0.06729548932306685
-0.005452147197334245
-0.05773372796968471
-0.02228730027064663
-0.01570741106084297
-0.03652316367996256
-0.03292005461187312
-0.006645280856904519
-0.01492787780699525
-0.03950305549158551
0.03673960071155669
-0.03886795614598908
-0.01351199033233033
-0.1159565180327577
-0.0319340897371486
-0.03844746563344272
-0.6792401914901677
0.01785930142287958
-0.01106509513692397
-0.005265949035295613
0.163571282264896
-0.08508641391755915
-0.03495412354221793
-0.2478716355306896
-0.01651992426161995
-0.01660974388971161
0.06073791644501469
-0.1858010653305901
-0.2254494285098635
-0.198248511276785
-0.6882501799791945
0.00707734889688617
-0.01789142287272819
-0.01636366062851225
-0.07978974499411221
0.1175792718721139
-0.02125326328665696
-0.2494258518616989
-0.03491480844484509
-0.006428529209096921
0.276402995679355
-0.01125327402338031
-0.09420287550208682
-0.1483880125407895
-0.004752304851892761
-0.04035969886199441
-0.04605532859633219
-0.2058899764659353
-0.008912914739168719
-0.04245417542872752
-0.002661950073983787
-0.5526602389329878
-0.2011688881451532
-0.1751236750052444
-0.02272999821429888
-0.006915546429134685
-0.05973330588510691
-0.05844311818535614
-0.01516122232236368
-0.06732375311733152
0.003111905462441189
-0.01837848621712719
-0.09551756092958327
-0.2662565003717173
-0.007890987633993868
-0.02620988670102138
-0.02210649564821413
-0.07399763188468821
-0.09144833597179278
-0.08755399557169313
-0.01147718053272104
-0.9288678835804459
0.160376943939183
-0.08019105135558595
-0.2583104952889648
-0.04270865953074702
-0.0103265225358373
-0.2496607382614936
-0.1827330432900532
-0.03354870654859864
-0.1260208925895709
-0.01853389335640965
0.562392984083279
-0.02380221749754704
-0.2287274605900211
-0.02625637983741575
-0.005196157653537672
-0.01184166636429116
-1.256937937058645
-0.1843010174398397
-0.2348575407359714
0.005422515991211926
-0.03685808473404452
-0.2517720765183933
-0.06521219494473138
-0.0508279753585815
-0.1412420366416872
-0.1933179284841491
-0.06755240500343064
-1.232633733984117
-0.1446555007708388
-0.5185012655970274
0.07836698677151377
-0.007084415806677767
-0.02203591826181929
-0.04233555425702368
-0.0410275596975676
-0.02880893249571301
-0.1322106391397634
0.07955758835039568
-0.003246927174863397
-0.00970004528191633
-0.5813965977817569
-0.8661250814462431
-0.1870365983667208
-0.008104743986487192
-0.1361882740644379
0.001066027714234731
-0.0007540919236682996
-0.001918444116503953
-0.0600197221378487
-0.239944298377783
-0.01344506549875934
-0.1232763047698699
-0.1545260123383068
-0.01323409193002917
-0.036017548723703
0.02162095987984212
-0.05713473796658842
-0.06943536900177484
-0.5044116387753412
-0.246573672209572
-0.08128202427764471
-0.07212680908836534
-0.01994369581231861
-0.1216175465701645
-0.1539297777258075
-0.07567479688348577
0.02484680007941269
-0.0840614127161131
-0.04777271615094709
-0.01492195241435945
-0.1087402615770843
-0.2715189589364137
-0.0564326734359494
-0.01855029525441566
0.001021680453121563
-0.01006253627108709
-0.01115200917240544
-0.2180269762871618
-0.01493764432400391
-0.2233924361808763
-0.01048286015768893
-0.06528717982060069
-0.003543630916094759
-0.0231881986669182
-0.3765506811268812
-0.9061131159555531
-0.01132503926153178
-1.05205529680696
-0.615316904408782
-0.0107471486471505
-0.6529684079296751
-0.1752347707652718
-0.005588395726678375
-0.1307109443940457
-0.01709531366627937
-0.1211094747448986
-0.06778729708333225
-0.07522465713511177
-0.005232377469333523
-0.002754912132802339
-1.333129915901194
-0.01107569433594904
-0.1874340716248341
0.0005133127171746585
-1.015651044513666
-1.229394881573306
-0.08214302727854682
0.02032973044355078
0.1642659941515704
-0.004783850924851389
-0.02302602872140539
-0.004247424358735627
-0.2530705932388636
0.3662293320789901
-0.04073891667454443
-0.2098107002067371
-0.01494454021457954
-0.659111144446022
-0.07556030534113378
0.1916621102515703
-0.2839627732312978
-0.04968654658243675
-0.0685630809476612
-0.01586538963250867
-0.02173382803950744
-0.5733320782231021
-0.1443125043859423
-0.08623041745869796
-0.1275956683587636
-0.5583433853460541
-0.04405534976642642
-0.9113847395161071
-0.0004798425653075936
-0.2368742122937507
-1.044782567556197
0.1700459517423691
0.2927385272147032
-0.1816282926273911
-0.1942667372110225
-0.2059203520487655
-0.0684405494517365
0.0230971072391845
0.05055259803745989
0.004190707024019708
-0.165068497657973
0.0251782915869506
-1.351608389423933
-0.08484892736293377
-0.4714393564478223
-0.3284466777355344
-0.2035948216654373
-0.1752155071340963
-0.01692035117011931
-0.01545029125028352
-0.1054679220639154
0.1700247531735599
0.3859067169704519
-0.2207497145617751
-0.141888696476509
-0.2411470990007567
-0.06229450683942429
-0.1512536357363021
-0.1624098481772586
-0.1251914075039885
-0.1210508255468871
0.4673343937577891
-0.2682701889299872
0.430024922127679
-0.6014240408620015
0.07009116299075441
-0.2046645816662372
-0.0658412184663628
-0.07346070805680517
-0.8751959963482938
-0.2231269197556007
-0.189058855105075
-0.3453767834549833
-0.4559768972810456
0.5707076172410898
-0.2046716496333883
-0.0002284149989959183
-0.07132719423732924
0.3428558303372609
-0.03799644539879334
-0.1285646195148355
-0.1781679371245405
-0.06377262349409718
-0.01651299179933551
-0.1931534149860702
0.1920255581101657
-0.01276026228064645
-0.09583781211975401
-0.167482707780063
-0.3124150357207018
-0.3146258843949715
-0.06555441179262811
-0.01025431048825941
-0.07636928155244155
-0.6578580182550043
-0.6664743785003029
-0.3390248165283653
-0.05745844746985585
-0.05239123716353856
-0.02549233778296598
-0.06718606325194325
-0.05835593358319223
-0.3574275500830794
-0.9534872956416989
-0.01005564732934533
-0.08252806604481369
-1.133622141608581
-1.028031515864888
-0.1032996110162525
-0.03800842880325657
-0.07039751894804357
0.391341963561568
-0.3458083907812191
-0.05103907161377416
-0.5959223015998389
-0.1237207258691355
-0.2542990274897921
-0.2087835595063674
0.4744786729057012
-0.625145294300322
0.07217836136335669
-0.0296259796366217
-0.5554823619456249
-0.05099217135970702
-0.3590653242673456
0.1060129886031003
-0.1893266847206508
-0.05954200398520497
-0.13703482530841
-0.3642652763822621
-0.08960229365352526
0.5137282415235164
0.0849550537837637
0.4714757875923644
-0.1108131563920699
-0.1986334337944485
-0.5236496341238644
-0.1294033621114295
0.02732526274553389
-0.05318192697508581
0.1035766165609873
-0.3097970351896122
0.2361563487262842
0.0093535363581138
-0.0032962029016831
-0.515616632060224
-0.1866395091189997
-0.08643295502539655
0.5813607211576325
0.1381267409735871
0.3469687901212438
0.2258427297326861
-0.558668348023276
-0.2102265517380108
-0.2197525634599453
-0.238884114226796
-0.05996628488421835
-0.6971559951242694
-0.1955226695378403
0.3066937538129975
-0.2074711152356444
-0.01110703920137896
-0.1732040612742526
-0.009064948546743343
-0.1573315130914444
-0.4329386737650467
-0.07695865252938541
-0.19650829497673
-0.07181429263498738
-0.09145405777817683
-0.1449321001333091
-0.07364629596768166
-0.4560681495883549
-0.4171977943233988
-0.02702188179022765
-0.07379271069781969
0.3259698576873418
-0.2456531346271731
-0.1850160115200894
0.5260409464007257
-0.2077982636588286
0.01701222335903857
-0.4472775152345613
0.04508529797129606
-0.06260378422796051
-0.1528872988972128
-0.580094905759048
0.1627751674717454
-0.5832414898929383
-0.5316374537674153
-0.1069822540303133
-0.5046668547092714
-0.03747830974513131
-0.1413300523839195
-0.4076651555524767
-0.01634781079970701
0.2859629363011192
0.4893694722555233
-0.1578686778190757
-0.008727329190149215
-0.07054885604660568
0.5253884784058391
-0.03353453664127245
-0.4367051222670658
-0.03281597438638818
0.4600651636020107
-0.01434929173119174
-0.5407596434258274
-0.2439787112399818
0.1752337291334704
-0.3084524021638603
-0.1774055002576793
0.05259494762424784
0.03405126445893509
0.05378981587118944
-0.2973188502893592
-0.1567895602757679
0.4127297940148668
)
;

boundaryField
{
    FrontBack
    {
        type            empty;
    }
    Top
    {
        type            zeroGradient;
    }
    In
    {
        type            zeroGradient;
    }
    Bottom
    {
        type            zeroGradient;
    }
    Out
    {
        type            fixedValue;
        value           uniform 0;
    }
    circle
    {
        type            zeroGradient;
    }
}


// ************************************************************************* //
