/*--------------------------------*- C++ -*----------------------------------*\
| =========                 |                                                 |
| \\      /  F ield         | OpenFOAM: The Open Source CFD Toolbox           |
|  \\    /   O peration     | Version:  2412                                  |
|   \\  /    A nd           | Website:  www.openfoam.com                      |
|    \\/     M anipulation  |                                                 |
\*---------------------------------------------------------------------------*/
FoamFile
{
    version     2.0;
    format      ascii;
    arch        "LSB;label=32;scalar=64";
    class       surfaceScalarField;
    location    "1472.5";
    object      phi;
}
// * * * * * * * * * * * * * * * * * * * * * * * * * * * * * * * * * * * * * //

dimensions      [0 3 -1 0 0 0 0];

oriented        oriented;

internalField   nonuniform List<scalar> 
1171
(
-0.927913876709672
0.927913876658657
0.7874373272474252
-1.099259143885585
0.3118218167807522
-0.189650459839168
-0.7655413508598332
0.9551918107211285
0.07208611853061607
-0.1171918647171939
-0.2124153023312594
0.3296071666110132
-0.7874373191627093
0.06944364265554631
0.7179936765214868
0.8115182567198795
-0.1780014347568696
-0.6335168220078946
0.8741135595335273
-1.044222637579271
0.170109078089358
-0.285467163924453
-0.09776761155109527
0.3832347758587905
-0.0364042035189763
0.548997437573628
-0.5125932341419487
-0.5057137515693588
0.8257200733445776
-0.3200063218002279
-0.4026590240260502
1.045859259624623
-0.1717457006745761
0.392094073145946
0.04976889231879628
-0.4418629664737094
1.045926906073258
-6.764647030584979e-05
0.4436394360476329
-0.05154536467007616
1.056494325865045
-0.01056742477391745
0.5800679229609436
-0.7697183763445926
-0.724149067844883
0.5566108289441549
0.167538238825925
0.2151112696174868
-0.7208250282376552
0.5501336358106659
-0.9226680544946875
0.3725344178813958
-1.094206818888935
0.6865870180358853
0.4076198009786074
-0.5955984921239788
0.5591942945137258
0.01743759727810689
-0.2560566143306359
0.2386190159332591
-0.02263918434523508
-0.522901452307828
0.5455406367412234
0.4004211867106711
-0.4981887918624884
-0.9189608373771943
0.9416392023995648
-0.02267836501456323
1.067660130611248
-0.01116580730490878
0.934847947247576
-1.116655099380444
0.1818071520669677
1.067105481080536
0.0005546439444251888
-0.6644304597893576
-0.05971860953162213
1.262276874600014
-0.8642824977110863
-0.3979943768867417
0.1481446378671425
-0.1098495644432184
-0.3259011944582375
0.4357507592170069
-0.2855303786361219
0.1917449781377285
0.09378540100872869
-0.5836913441473762
-0.5155678028865996
1.014055937355545
-0.07920799137584551
0.009889577990606925
0.8254936832305554
-0.8353832611875628
0.5717667443021645
0.6905101320780982
0.4391478762812122
-0.03074263981361473
0.4311638262613288
-0.8080357730720235
-0.1025152490266371
0.9105510220285109
0.5020645820061199
0.2539267365147783
-0.7559913185442234
0.006966578801382923
0.5284417042095167
-0.5354082834065911
-0.4899819775525278
-0.6042248455619005
-0.4227530002631063
-0.6939020992848145
-0.02714253433475256
0.2705316915442612
-0.2433891563815354
-0.9247296744475461
-0.005080125521122762
0.9298098000146078
0.3086909335457253
0.07454385040283543
0.7616458351885684
0.0498724182715494
-0.5330359661309747
-0.0625625236681971
0.04600490381044333
-0.8540406788191559
0.0756134715369553
0.863375951262274
-0.9389894227918184
-0.3468236945863771
-0.04107883072762949
0.3879025253519852
-0.6820340411204322
-0.2426956312509722
-0.6342343243523066
0.7098477934802645
0.6142210346658427
0.2114990322438494
-0.5433358678174068
0.9456307675893012
-0.7789625030680722
-0.166668264495808
0.01158441322334448
-0.01003635490597569
-0.001548058695958906
-0.4034623303024005
-0.09472646162198471
-0.2409154717964241
0.8551365003421937
0.04788088362119887
0.3347357162251856
-0.3826165994181023
-0.4611967321458898
0.9632613110664799
0.6804482807962312
-0.7829635337054283
0.3200715406781436
-0.0164425180561325
-0.3036290230938008
0.9307339439141433
-0.9307339438991976
-0.7812030645055383
0.1108543464047347
-0.3232696444632654
-0.7499315230758231
0.7598211013111856
-0.09038012885759127
-0.1434086985352394
0.2337888279407481
0.8649254688868628
-0.03943178454393841
1.054376172557071
-0.800449441505858
0.1866158347643787
-0.3161603515617427
0.1295445166821475
0.8586389491385065
-0.09699311393795318
-0.6114586749593639
-0.03902652222875548
0.650485197211622
0.1234701374258876
-0.2305825580893931
0.1071124195412083
0.8056076238602987
-0.9836090605078691
-0.4345715735983545
0.3292681067715295
0.1053034663989894
0.5328839479731714
-0.555523135939806
1.021906348783774
-0.4561935482547396
-0.5657128005296601
0.5991533453284282
-0.7193480079416776
0.0666602614833678
0.6526877468281452
0.1026476266148314
0.5696092190503464
0.05536816428538315
-0.624977383467607
0.1945250956483364
-0.08367074673422059
-0.4923615794710848
0.1455378830135034
0.05023653282054145
-0.886466936688049
0.8362304038058878
-0.4731325555236758
-0.7132531621260756
0.04882270399063973
0.4372560635106991
-0.006092233635232709
0.2999698709549288
-0.8552635837102648
0.5552937125496784
0.4157513340430528
0.5842486659033674
0.5604912977268858
-0.5144864006116618
-0.3679524274280772
0.03860356001323827
0.3293488699216033
0.6812930761806402
0.2494408678640729
-0.5664621195792257
0.5734286985343925
0.1113548664485309
0.8750512612507594
0.01017802262542623
-0.6216366979582089
-0.7490887425351048
0.7993252733058458
0.5305826980036504
0.06987803232834176
0.3016660345547634
-0.371544067055725
-0.1674536657796738
0.4443730400905975
0.08406867099801173
0.8751190025308861
-0.8046204730296304
-0.07049852958789603
0.635300369285797
0.3103303975814967
-0.4306048659549631
0.5737346668568367
-0.5038566360371183
0.4171339830733657
0.1329996447082893
-0.04673367228536462
-0.5937997621129153
-0.1382981922439012
0.7320979543799663
-0.1497734434980574
-0.7809604975695146
-0.6109952954923159
0.3603711202853752
0.250624176271823
0.6219353499506097
-0.6117573288405164
0.2392270355324382
1.011390139438574
0.04298603287394532
-0.7490887448719508
0.2334617983813264
-0.2218773796557213
0.6804482822482961
0.8017453219340495
-0.8017453218793147
0.8376442373884474
-0.83311423610462
-0.004530001361698986
-0.4453579249321932
0.8611092579808826
-0.1472896113877603
-0.3450719659089905
0.7347390772847833
-0.6685318067251079
-0.06620727049082684
-0.7354364439389954
0.1416366820117147
0.1389932799611369
-0.6720292458945522
0.7829635498034493
-0.9504172155233098
-0.3687289453124284
0.2900139025468367
0.07871504393795699
0.145803416723176
-1.010058941164225
0.8642555244120027
0.4811844209148369
-0.04203654455679796
-0.3081023361368039
0.5863383073267423
-0.278235971306565
-0.738588412219233
0.8843918312565406
-0.1570271546373818
0.7311353258978369
-0.8423929757405763
0.1112576497588154
0.9761525305246799
-0.5394035027891168
-0.4367490276848892
0.7550116468281072
-0.06502586822459908
-0.03256975343716049
0.184794372806575
-0.1522246187378679
-0.7758156888308928
-0.8407268653114507
0.07518552135212805
-0.7499315236234786
0.5136559591346942
-0.5547347877830522
0.09970340952034315
0.7179442923640807
-0.8176477020219666
0.7536187611924947
0.1742950950807042
0.5029246529725022
0.4970753470500469
-0.05172956028719931
-0.6125483634421734
0.6642779234599964
0.8833334173850516
-0.008214418351870971
-0.7550116468430019
0.7993252731400126
0.1914982998534251
-0.4475549183640031
0.01463464217304541
0.003729834052631705
-0.01836447979378018
0.5885744781742414
-0.4375437763399635
-0.1510307022283138
0.7179936716205247
0.01013234725998151
-0.1095915398229692
0.4379054743840131
0.1506690011266378
-0.01651060702850344
-0.006418764948450986
0.02292937208886316
-0.03092876261991249
-0.001640986756476435
0.245325707541082
-0.2617682391801586
-0.9587724772698145
0.001331203026296545
-0.1594472041196657
-0.1234032389801492
0.09442654067574653
0.7223458335081437
0.7289850853337675
-0.1447364187853729
0.6743574098249321
-0.5746539986038872
-0.2117967974499888
0.3984126318245072
0.6956023765792115
0.02239129505930305
0.2418104918577852
-1.074924730865256
-0.9504172138293915
0.3025986936332706
0.7598211020638463
-0.2091544908815085
0.06574578802410982
-0.7236770357064481
0.9111185738986103
-0.1874415382196225
0.4155289066439225
-0.02762637593525057
0.7712045327363836
0.2806519884285741
0.3755881407238714
0.06805130576798252
-0.6587051551792032
0.6587051551994938
0.2146570021503244
0.6958940161764664
-0.05629685358699239
0.3910325678719639
0.3794539009377798
-0.01512952126935689
0.02976417223774268
0.4484884677453027
0.03269595544340984
-0.7385884112416129
0.5340052052241337
0.200733868475597
0.3012793570415924
-0.1164849902491232
-0.6956023763010062
0.1799671131646702
0.7311514608301763
-0.0101679856433608
-0.8136657112567022
0.82383369691868
0.6963828692739376
-0.7920100438756652
0.0956271745661751
-0.7536187528531643
-0.1501093160547583
0.2115859407500384
-0.06147662385013131
0.07733194270715225
-0.1789387674033766
-0.112152202055255
0.2910909686851964
-0.008969851584558762
-0.007540752031014477
0.7062842510686076
-0.7164522289885981
0.8866058947473097
0.06858592183579301
-0.3101998698082644
-0.5233573070806744
0.8335571770763462
0.1029989512717162
-0.1029989534328083
0.3286174535047212
0.4781194915997735
0.6086930313527007
-1.086812523050137
-0.1941082955465831
-0.5855346715519396
0.7796429670858084
0.01246747571050286
0.2213213437007563
0.3764524006094949
-0.2529822770776963
1.01535664608539
-0.5372371580240416
0.6676949621153303
0.9922924381615809
-0.3835994101404718
0.229162793517993
0.8843918337263923
0.7126461310033583
0.2138477991323535
0.7277913991825309
-0.7809604973109161
0.341294829468459
-0.2845862056289393
0.2594367577621028
0.02514944911149175
0.8516610844728398
-0.008146333809571799
-0.843514750876621
-0.7020787007604061
0.7026333419721839
0.5546420723451988
-0.7020787030045672
-0.7126461310011984
0.7026333393276345
-0.03357817916638325
0.9066770586193469
-0.02007116018878822
-0.6812930862400469
0.6122403283712347
0.06905275787148875
0.5386771329405247
0.5385466134305243
-1.077223746377019
0.4880791721658138
0.5272774729190387
0.5481915988253366
0.457976208256174
-1.006167807136007
0.4941169592070764
0.4981754777782243
0.6122403354480814
-0.5257017790901236
-0.4666373064538642
-0.555878397989194
-0.5146278367533573
-0.1244486790481192
-0.01280075750211111
0.0128007583923633
0.5095152258988197
0.5244569894677574
-1.039084826342959
0.5726150326321213
-0.2709489972266079
-0.8830202690112641
0.3436167667895594
-0.6327084882678129
0.3900128575782555
-0.0001987552712719647
-0.8272532612523764
0.8274520165584365
0.4208827552143984
-0.02468766701717678
0.8763487530842151
-0.9444341988542621
-0.8343795910209593
0.05708264714573695
0.7772969439493806
0.5521105992338723
-0.4370362806815295
-0.1150743185055241
0.6501372669783352
-0.7293452580863043
0.8854706121836987
-0.8272484327723485
-0.05822217920175961
-0.01408654055874644
-0.7905339355862252
-0.1112222042281704
0.7147919035570368
-0.603569699333278
-0.9413181575981444
0.9272316166429088
-0.7345169932528325
0.6883007251978571
0.04621626808122623
-0.8006932655632099
0.02766563235047813
0.7730276333097956
0.06185370638863132
0.04114524692738322
0.4329695149568485
0.05896360174828483
-0.8498083962655258
0.7908447943992509
-0.6453948740641742
0.5936653083781849
0.8894503293354777
0.0732945795249053
-0.9627449089320039
0.05507074037418062
-0.05033950991280779
0.379688371455192
-0.3817398266673461
0.06557947132902542
0.8405771525158703
-0.8407759116386436
-0.7321073377012529
-0.811681120279895
0.02114718417924923
-0.1681753250576858
-0.8477131662175886
0.02046472651053791
0.6232593430186261
0.05109806874244856
0.0177202773778912
0.5343903119377039
-0.8154715978511433
0.8431372339533981
0.5657128031117621
-0.8519409338547812
-0.8680235768562421
0.03865348502985003
-0.0313789118245827
0.8339901517988034
-0.8026112399407204
-0.02026115890877738
-0.7634862463686929
0.5442876296851146
0.1520952421630049
-0.01851855648393175
0.894867308735265
0.9843142647914057
0.8609742183805018
-0.8405094953922515
0.1476799426157862
-0.1476799442657447
-0.1176176617320232
-0.4649109213562259
0.02787463565459255
0.2712617394205339
0.03133695454435728
0.385720478843639
0.8746061520582424
0.007118827886002731
-0.01608866904152326
0.6585973373822602
0.3414026626378387
0.7835766508059239
-0.5836913458501725
-0.7780581439295949
-0.8107575682106084
-0.6799549691348482
0.6799549691371501
-0.1681961449394277
-0.1550734945411454
0.6019210500792864
-0.8112861845304011
0.209365134475901
-0.4940226239419636
-0.5688452498153949
0.278029438233126
-0.9719315383940391
-0.8986504452540529
0.8404282567937953
-0.8190929376672791
0.8402401225417635
0.6484821237494492
0.1344454940642483
-0.7829276178294219
-0.7645413007022211
-0.1463802904790769
0.725376710394997
-0.5789964199316571
0.02404429622367693
-0.01242876639665902
0.01574521684101634
-0.003316449417544092
-0.3525316907409788
-0.1123792278656678
0.8799504899157449
0.7396711577768825
-0.2390169813188792
-0.5006541768695584
0.6245968413697165
0.6857072754640666
-0.4710502750313551
-0.0001797777024516896
-0.2853506041007537
0.01291628351781097
0.74792268597691
-0.7608389693234674
-0.3234494135413259
-0.07196617587930623
0.07611218038211535
-0.9672761003766789
0.1237613523097237
-0.6768406879100323
0.05435237072677573
0.6400213264274738
-0.6943736971526789
-0.7564422445393646
0.07960155662431337
0.5894601484789006
-0.6614263242718657
0.1564508507415264
-0.3353896203654353
-0.7723956930033344
0.007854392268729261
0.3711272821391727
0.5999317839348475
-0.02619711425292896
0.02102690987820756
-0.02102691108756831
-0.01921951269557206
-0.05201038674709067
-0.2325758069801318
0.02235937972302677
-0.01524057825867531
-0.7212976276078207
0.2793907927275585
0.6785554400536221
-0.6898937378021038
0.01133829793829556
-0.5961613059301962
0.650513673228079
0.6545541848285601
-0.06509403608887976
-0.6309090400968217
-0.1255332073983339
-1.049901020390116
0.01121712917959514
0.136462817185636
-0.7083813457012256
-0.742131249201296
-0.7639837107247932
0.3659893352422877
-0.4060710767641398
0.4660357645552849
-0.05996468759903086
-0.6715309592254037
-0.03685038639452917
0.4997340062504195
0.7306834628554408
-0.2351629087081025
0.1117596709817887
0.9594217112757534
0.4463330255557295
0.1322425356800772
-0.5785755612989887
-0.6771942731584704
0.005663316237097411
-0.04447075271394019
0.03204196711975314
0.6374448514997761
-0.7757430449605557
-0.002655435738831218
0.002655435413011142
-0.6001290670712643
0.6496858147716613
-0.0495567477293243
-0.6594739973817001
-0.1138464387936658
-0.6717872510912906
0.05541259301468093
0.6088653252726641
-0.1376418514888613
-0.8181675413487076
-0.5675725551716773
0.5722271169331732
-0.004654561381691361
0.6303958340892192
-0.6190575390014862
0.3223780884406839
0.2136269938060776
-0.5360050822511407
-0.1046863975019679
-0.6025138120056687
-0.09185988559913906
-0.1537960394021661
-0.5121599700108438
0.4043425872534628
-0.4990690509917728
0.1260572244877669
0.6787616775301316
-0.8048189019919458
0.5991533453231892
-0.3739999823733867
-0.03207110183965017
0.06145568312609254
-0.5736156549798559
0.5513986508773691
-0.04037032124610052
-0.5110283297990111
-0.3128867394037567
0.3055345879030275
0.007352152548042706
0.4509198844381448
0.1216951460746675
0.05204037338828683
-0.3163379310315061
0.1573454588010946
0.1589924724335701
0.2512544057617345
-0.01779261533869627
-0.2963200151418327
-0.3127100948869692
0.357186248109954
-0.04447615060271481
0.7914563124909288
-0.6287943003075067
-0.03067969728865837
0.4994756862226654
0.2854039650525946
-0.5244209481049638
0.5774437259237111
-0.5774437259223363
-0.2897850661045512
-0.5865124419727061
-0.2955321442722305
-0.5865124421621597
-0.5967555699349238
-0.8384779785973844
0.1699461677824905
-0.6009196585179062
0.8212076171414564
-0.003336139980037818
0.1185785609144449
0.4813532240475201
0.0967569365863727
0.1857067276887778
-0.03623290243224753
-0.1494738241845443
-0.028692551008549
0.5903432223284779
-0.9424669666380028
0.4191096555814122
-0.005488261029654438
0.0003925008860738088
0.005095760599213925
-0.6440904562778954
-0.1321273345722492
-0.466379457205875
0.5986219943421759
-0.5035368258189076
-0.3163716964384535
-0.2572439444749363
-0.2722920719437298
-0.1115615094635049
0.1115615100077807
0.1535968388100215
0.05798910394765579
0.1969238602366623
0.4482431435843784
-0.5694984437744346
0.1031189820046614
0.2539484911689071
0.4663366427996264
0.5336633578858495
0.6457056780120893
0.08222818121839275
0.002316467042494053
-0.08454464766376438
-0.2770831482017524
-0.5410843931865326
-0.5457277074739697
0.1147169431657777
-0.126568575426215
0.01185163272093356
-0.1057233236585794
-0.3854422889009917
-0.04954436621116513
0.658409708849802
-0.4994675722571071
-0.1446228839860541
-0.3264080451809173
0.2861498387637825
0.1285282490750122
-0.6115043831552529
-0.204429057991138
-0.2628001666423498
0.001031944914824504
-0.4209490577440341
0.322463554889705
0.09848550311985813
-0.09042920147856946
0.2917120418470545
-0.8959368898555646
-0.4574391437790218
0.6297171542580391
-0.7731882187640405
0.6685018213067073
0.3406930538286305
-0.1254646919312262
0.2245031753589249
-0.0990384841830978
0.03145612969172833
-0.5861830349429979
0.02879261150692093
0.5573904231833119
-0.9006296365767559
0.5476406014862244
-0.6652582632123114
-0.1020387141143638
0.109282757766694
-0.1092827604599558
-0.3165177123295728
0.3594553116111897
0.02023305428135416
0.0216687407196381
0.06055942058348274
0.5043855844423463
0.6677028739357342
-0.7382014059543913
0.02539856705430817
0.01993117429087158
0.001095726763409411
-0.00639012352615871
0.006390124321310947
-0.4098404762271901
0.5315356192298459
0.01567563503173289
-0.01567563491165281
-0.7926509534697231
-0.06019150226481165
0.1220452013276455
-0.4516084003103084
0.554727378917539
0.4500324864996648
-0.4995892322860262
0.1501276174313885
-0.150127618695063
0.04288293642929778
-0.01311875686287948
-0.04147880972463736
-0.9760998458688097
0.5393508196111723
-0.4698051704420108
0.04114524466007391
0.5151289780554942
0.03048683308299062
-0.5456158113440018
-0.6163446283439645
0.1168770565055727
-0.3292687353676149
0.0135993042455359
0.3156694303004807
-0.1546287824189768
-0.08053414033613987
-0.5409543905141215
-0.04522863964682621
0.1364628183254353
-0.04109719603057658
0.03844175668731908
0.08142166519037027
-0.08142166212881177
-0.5281703673826307
0.483694206609314
-0.414806044685288
0.1612991226567146
0.6222775281935931
-0.09722233938623688
-0.00528168933807408
0.005281689260961774
0.5329968896458106
-0.07711406769328789
0.006283802586698896
0.02718005979729831
0.03475513452176018
0.6891194587713848
-0.7662335265963686
-0.6611732833023489
0.6304935870553137
-0.110349837813668
0.3137708814219382
0.7455808741092352
-0.01921951148338024
-0.2654137708752641
0.1489287909754466
-0.7446129402425467
0.4838169304790604
-0.425419273077901
-0.1012156453215609
0.003333240827426578
-0.01462939152903153
0.02467586847663118
0.4121498588918573
-0.1216091330030119
-0.3894191973639546
0.6290700360820214
0.01919085520628784
0.009052415553553244
-0.009052415575508347
-0.3537669130700838
-0.07992722179692166
-0.560356362315271
0.5570202221686444
-0.2376168933624981
0.4647291814146802
-0.1506052381844309
0.7306731642803679
0.6699447755408302
-0.0410971969229093
-0.6168267282355542
0.5603532359335298
0.2820381735185397
-0.2776235512964833
-0.004414620858755261
0.5400643875489723
0.09344252479503717
-0.03877606005691631
0.1964790615937924
-0.1577030010546278
0.1201977246835688
-0.1201977219792795
-0.8586303145816614
0.002447670419734312
-0.1132531094416222
0.1404331680251831
-0.1316029355660945
0.1316029363862211
0.01993117900656815
-0.02450120975277613
0.6706668386688729
0.06048462273252352
-0.3227551307898994
-0.06268715776979833
-0.4712953746432121
-0.04436987241109117
-0.1514020221330215
0.1514020233987692
-0.04166170943684257
0.1435859924751295
-0.1435859935247119
0.1364877950487458
-0.1364877930790085
-0.316098114455467
-0.1145067514428856
0.2261123149872495
0.103155790879358
0.03479661106597284
-0.8212339232475016
-0.1978333607932006
0.1699823064035049
0.02151598696720987
-0.2644981964320254
0.1261298422425887
-0.126129843161839
-0.4142941663465874
-0.08477488236005416
0.2358858497923279
0.002733161448070912
0.0403244695020672
-0.5445492635414273
0.5781274427093146
-0.03022267448612913
-0.01143903348647983
-0.02503222755296676
0.01191345906689962
0.006541608169777031
-0.1846395825313878
0.178097974383662
-0.1078323515980432
-0.2275572689144111
-0.1444729661288832
0.1444729672196356
0.07248923953712715
-0.07248923903001835
-0.01903676343302692
-0.1085921111019471
0.1276288738397973
0.2346044853313008
-0.1833422229489892
-0.02208210518387311
0.02317782390726506
-0.1293392005504112
0.6130334087640051
-0.0390722773960501
0.4253881840778327
-0.04146412751704472
0.06439348504443665
-0.1532039489021308
0.1532039505072863
-0.6364656451758385
0.3082721450147146
-0.07910935204001568
-0.2342421808323517
0.003659617987984638
-0.1219349650413395
0.162259435444709
0.1944486750102188
0.09664228896769329
0.09532370645640403
-0.06056857202932071
0.07308233767400611
0.04163460517433054
0.0641233572205186
0.1058589526917094
-0.09965830756999915
0.2114179980409506
0.01170785498088217
-0.114898879469245
-0.101662701159778
0.09649292789849435
0.005169772116540649
0.0108787606323518
-0.02227327812672587
0.03740879022235887
-0.03740879014508879
0.0745440953458006
-0.05526357774190022
0.0552635780372271
-0.2243943678502509
-0.05050539448864803
0.01177462141480122
-0.1031564193042313
0.01629006837614079
0.1087498080291803
-0.108749808629487
0.2929341764623474
-0.2709051515319684
0.1630727952104468
-0.05053402036589471
-0.2203711311530308
-0.01693180496585207
0.01693180462430793
0.3675018033128488
0.2851859342613898
-0.5278949132331134
-0.09393340403201009
-0.03263517053139291
0.5288009191826885
0.2095722434679456
-0.1687714795476921
-0.3812988452892923
0.07659467690714557
-0.147298603279232
0.1869139342690281
-0.03961533068595605
-0.06711521540637447
0.06711521501276295
0.8221755510174042
-0.5603534653883898
-0.003172362340551606
0.01405112353531559
-0.02004142242728786
-0.2872008321442579
-0.01745615245127441
-0.01287003318020709
-0.1320875736547978
-0.5722659201577901
0.5560702584989766
-0.5686020840908343
-0.006929054239181455
0.09903276309649961
-0.001801932194268465
0.01671615843643048
-0.1673400257950357
-0.3362532576100941
0.2330968381785718
-0.05411721985544306
0.03508045437638087
0.1321773558945764
0.1733572319793582
0.341350606841041
0.2760849220812895
-0.2778868548254054
-0.06322094609303447
-0.1550234748032435
-0.2206428825284076
0.07459420402260032
-0.01047084555963501
0.2136917127165921
-0.1969755547539157
-0.08623303944266671
0.1593153802486126
-0.3549750919943189
0.2082370224848145
-0.1919469541664405
0.08965828415122933
-0.4790774781465005
0.1740439012070834
0.1705709931505025
-0.2568040399549618
0.0730504213758969
-0.194743579256077
0.1772874272287243
0.01738003295648262
0.1419353460539532
-0.03958793099452196
0.06589354128392695
0.4671033488387059
0.02047698419472169
-0.08223310037803032
0.05573169043841729
0.1258037722916023
-0.2602582144585438
-0.2309497852900392
0.5597150375678374
0.1571024167412258
0.07878343370423591
0.07502050793663066
-0.03107182468281964
-0.000866935460824724
-0.003547679705598093
-0.03260744004398138
0.1707744488482911
-0.1777035035472705
-0.05755723484519239
0.02000546477205539
-0.1470261544971431
-0.05280824077233515
0.1538607504135445
0.2770577455469198
-0.04060579151369078
0.01104652548391366
-0.2551836540184059
-0.1310395300153453
0.2361504628944184
0.1787459503417049
0.1295261922993905
0.02174475280940034
0.08855659224590098
0.05218815268041806
0.4521974317909647
0.01687763326048241
0.09781156739693936
0.0430782884619955
0.07222310233025811
-0.115301389561553
-0.2427089767015458
-0.200490708610327
-0.01988042502068077
-0.202019729781569
0.2750640746072601
)
;

boundaryField
{
    FrontBack
    {
        type            empty;
    }
    Top
    {
        type            calculated;
        value           uniform 0;
    }
    In
    {
        type            calculated;
        value           uniform -1;
    }
    Bottom
    {
        type            calculated;
        value           uniform 0;
    }
    Out
    {
        type            calculated;
        value           nonuniform List<scalar> 10(1.036270771452402 1.064378911860033 1.022515704439306 1.02139443325468 0.9965228208406413 1.012803314633518 1.033972215661084 1.062867873749562 0.8672287964003472 0.8820445862617912);
    }
    circle
    {
        type            calculated;
        value           uniform 0;
    }
}


// ************************************************************************* //
