/*--------------------------------*- C++ -*----------------------------------*\
| =========                 |                                                 |
| \\      /  F ield         | OpenFOAM: The Open Source CFD Toolbox           |
|  \\    /   O peration     | Version:  2412                                  |
|   \\  /    A nd           | Website:  www.openfoam.com                      |
|    \\/     M anipulation  |                                                 |
\*---------------------------------------------------------------------------*/
FoamFile
{
    version     2.0;
    format      ascii;
    arch        "LSB;label=32;scalar=64";
    class       volScalarField;
    location    "527.5";
    object      p;
}
// * * * * * * * * * * * * * * * * * * * * * * * * * * * * * * * * * * * * * //

dimensions      [0 2 -2 0 0 0 0];

internalField   nonuniform List<scalar> 
808
(
-0.03277557597710924
0.04364361669660224
-0.01107336022213347
0.03820068733260631
-0.294363659903599
-0.05585849467196387
-0.01581242313653183
-0.02410314040152574
-0.1934816458884074
-0.08216848310215115
-0.0106844895770936
-0.2501149688281796
-0.03070265599615189
-0.01425904163357521
-0.1233501438888139
-0.01424041501440442
-0.1396652752405078
-0.01377079753466406
-0.01286212710314466
-0.05431129098917095
-0.008130466207665058
0.1163454634607854
-0.06386856930781863
-0.06998966771493098
0.1739725941811349
-0.1007766041951469
-0.1496027466478669
-0.02049494393997531
-0.01763751215649144
-0.02553869529959847
-0.02041251943845119
-0.0570145007699575
-0.02273100320324711
-0.01695528545409926
-0.09779377235443275
0.345130341865564
-0.04018621229374188
-0.01638733096394428
-0.02234214994540372
-0.02647469375415658
-0.08861509477665871
-0.1242088766428534
-0.0531571583469754
-0.02151489852271127
-0.05477972429412367
-0.04295982526702201
-0.01184794623772336
-0.181211304569605
-0.02633958655685622
-0.2006335568726869
-0.0173500578016807
-0.06552935132314686
-0.06215644484978743
-0.01479506143529233
-0.1966782642992716
-0.02755570379296414
-0.01078150160542362
-0.01490840108970388
-0.09826627472259336
-0.03874978154767143
-0.1119814184659265
-0.1233879681906215
-0.01463514314262022
-0.1268266082790045
-0.01762325989404166
-0.05293058615192899
-0.1608708209127275
-0.03535053561303137
-0.01542395048345599
-0.4348551009537371
-0.02598357349602852
-0.2960779910910574
-0.02120246385798026
-0.02120709429459636
-0.06214744580740514
-0.01828631692326235
-0.0414458711249354
-0.3677387296510257
-0.03670700369097746
0.03810330587859431
-0.09271639857814723
-0.01668604383725729
0.05733017991651104
0.04647804901942532
-0.01763951404833765
-0.05104603232708551
-0.5350032352826944
-0.2300409212435657
-0.05082925916908725
-0.1141337776637031
-0.05509831419815466
-0.1301450419710018
0.0377934106430837
-0.02709207740768069
-0.06327979378856131
-0.1186355626570329
-0.03817875492112237
-0.05223340235062376
-0.1139584671109981
-0.1371775839965713
-0.05327781806537431
-0.04617613465059964
-0.05308259350943817
-0.04370941049619191
-0.05663231390877155
-0.07603487699791597
-0.0398178922636175
-0.01066122251879615
-0.03933694173031639
-0.1212635457890173
-0.04935724779331303
0.08081057483088563
-0.0415215261073134
-0.007743107909352911
-0.02750016054983047
0.181123659986403
-0.03766124100406409
-0.2636936490064339
-0.02083674405732412
-0.0521689147002087
-0.04310753600680415
-0.04991678175215193
0.01446192776353423
-0.04717200260574567
-0.03725018014626599
-0.2211293837809589
-0.03943571898507421
-0.004260413644771322
-0.07397142129950636
-0.07027162175583969
-0.1480220051664497
-0.02126342208381789
-0.07374163318249254
-0.04484696936698979
-0.02310951856997696
-0.01455391508734563
-0.006027054304755072
-0.007546040655077693
-0.05151768975939375
-0.04844619069710776
-0.2174202623062419
-0.05489882496539292
-0.008105432913825712
-0.02164509862784595
-0.1500918482863643
-0.002361208525038566
-0.07471086678629599
-0.02037628836398443
-2.730666919132107e-05
-0.01059080265639858
-0.0326112674747647
0.09261682315044731
-0.0374828722956677
0.2512347579684346
-0.2619594418400187
-0.1347691608655135
-0.0381862142789324
-0.09096038517633041
-0.009168385537370125
-0.1155085218212374
-0.1658378242745114
-0.2171407535672281
-0.1757090959053554
0.05738523539319217
-0.06434257134187989
-0.02065752965468248
-0.06572885075599651
-0.1684160666645352
-0.02281671564517566
-0.01865522208692069
-0.05051436860639228
-0.02136939142992181
-0.007823689891111932
-0.1050482330692503
-0.02371752463334528
-0.04355639644212143
-0.07160066364529279
-0.1583001932080875
-0.03289421924930107
-0.3819220955364706
-0.01792839036394593
-0.2290064363723534
-0.04300265703043886
0.03360967424939543
-0.1066215626843641
-0.01714459269386075
-0.0437360276084468
-0.1036332611818277
-0.01786801413473576
-0.09440671677191112
-0.2043694096516137
-0.07056435058183326
-0.02423107057695995
-0.04642932530527635
-0.04154178247470809
-0.2018344339636403
-0.02250490095604828
-0.01939120595877995
-0.01123602820150038
-0.05806367708358784
-0.04918542292886403
-0.02266039460497849
-0.02057721556433079
-0.2314743444948021
0.1265849126515324
-0.20890793322103
-0.1858384046167615
-0.01171841726811965
-0.0111978454381216
-0.06621315946552389
-0.01050244837534563
-0.4890213386817073
-0.1252337658822043
-0.01974060076832243
-0.0002962507615037885
-0.023544796953002
-0.2750673201464664
-0.2814110975770002
-0.007515604276608395
-0.0175419198587251
-0.001482577859798894
-0.3526330403380277
-0.02861996617209405
-0.02940800687637703
-0.01268454738863326
-0.01938129683642991
0.04799728245178702
-0.1243675538238199
-0.0143753995308954
-0.02097025566577429
-0.04607786124722656
-0.01841978552646073
-0.01642677232016634
-0.02356485222507014
-0.0683519272859925
-0.01090531064085883
-0.01889068820707888
-0.008986131739368417
-0.001259470963971688
-0.02929566398340328
-0.0021653150151682
-0.001917872901906825
-0.005628476613509905
-0.02548851271968545
-0.008079952523782921
0.001577132825610635
-0.004184529550979991
0.001368482050598515
0.002342192103525449
-0.009005759934366454
-0.1288999360497008
-0.00289884785578847
-0.0003000785353504979
-0.04722255400973836
-0.0214306389980064
-0.02343422821907011
-0.0140299895333752
-0.006246618323829527
-0.02115372630780761
-0.04084622043109967
-0.01517269233110575
-0.01270459938031432
-0.01135188656892314
0.007291744322508177
-0.009610064325186173
-0.01302722371510422
-0.01149819717365064
-0.01003047970993929
-0.01028722766966333
-0.01144362518357734
-0.01349559616230027
-0.2892392013058664
0.05830248926253864
-0.01545931254572549
-0.01490319019384901
-0.01235937385338967
-0.01210836753781052
-0.008260015929462929
-0.09842138991492848
0.0136527935887073
-0.01428063884711922
-0.01357816410606648
-0.01050682575153491
-0.05033713743327963
-0.008491910557853347
-0.01371378916827471
-0.01027350214116847
-0.002043046715045845
-0.01179030254824118
-0.01148638893515584
-0.0241376782655938
-0.01535200786755228
-0.01239654747992151
-0.01353780733469858
-0.009437767871192835
-0.01265373035718993
-0.01098285316696256
-0.06049973887300201
-0.01362572584099412
-0.01218602280682925
-0.009259817859614597
-0.01544406699839899
-0.01389239801914168
-0.01564023835739309
-1.361997787445609
-0.1011866276692572
-0.01198370490171935
0.02556860587624412
-0.1601227277680892
-0.09298077248872619
-0.01240067772398554
-0.01422808964575765
-0.2324340123635786
-0.02760631877682355
-0.01707048967251198
-0.01259088123491565
-0.020590914456775
-0.01034256945430323
-0.03082648712582539
-0.4059808755937113
-0.0120951197045266
-0.01408137547406089
-0.00435818206507536
-0.01108628285426056
-0.01002500602191326
-0.0137825089243682
-0.006990734061169937
-0.02753493492605855
-0.01189462577305562
-0.1750212456243587
0.02085293237651375
-0.007252363330265835
0.004240453372158038
0.01199016269515511
-0.0493942843533435
0.02696612375710113
-0.01312556956010139
-0.1317105014494523
0.2830865328921859
-0.008203326569164848
-0.01369946508370372
-0.00786055855791345
-0.0330748356027152
-0.1267389363727723
-0.01282780638449391
-0.01186458091800776
-0.01758638031816284
-0.0134950132007476
-0.04185047101675399
-0.22182865543329
-0.008870093024375407
-0.04434510914079193
-0.03806035819658629
-0.1824063691285584
-0.1497108196613139
-0.1513501680376027
-0.2263277672226745
-0.002532150287596422
-0.02057103832792546
-0.01543283927494605
-0.01404179357801584
-0.03397061075689645
-0.02454850979368506
-0.01389311196645711
-0.01486678529525004
-1.065196763126217
-0.003371502933446535
-0.01322535127401197
-0.01795229881017753
-0.02191518084205159
0.004215394115788106
-0.01459811238493151
-0.02469907631947774
-0.1505517527198758
-0.01358112059961986
-0.02085052836912292
-0.01466803673607794
-0.0003493912540625342
-0.1781580580789907
-0.0123980278916005
-0.1583678652767061
-0.01534688429225144
0.003641398871992285
-0.01392517789732194
-0.02447753040007969
-0.01636515904408769
0.007335285233209321
-0.2637003074402971
-0.02695243111485058
-0.01694396909146821
-0.01576410156120312
-0.01118989611506447
-0.02901806244657895
-0.01362378320375773
-0.02125685757083575
-0.02031967283925581
0.009807517386326948
-0.09662487794166323
-0.02095450965301626
0.00967678942263123
-0.05952630308060266
0.1851246804018211
-0.1075409507873855
-0.3144307450885133
-0.0295558016321969
-0.02603676846176755
0.1519215095317972
0.09018805047993918
-0.003927562860485103
0.05384196641256613
-0.01499283162037842
-0.01306017741277311
0.002806632052290144
0.006839326531675118
-0.06415529903111358
-0.0044799371113021
-0.0554739557159187
-0.0233667520485623
-0.01568554636008231
-0.03651018724715331
-0.03293365884977201
-0.006699843635919247
-0.01457188465732286
-0.03600361663462057
0.03027448957430388
-0.03860050388703219
-0.01399549867428129
-0.1207064463536446
-0.0307034231954089
-0.04036085311529836
-0.6655844301187251
0.01428155794595178
-0.01041457419176445
-0.005838470852856155
0.1867306647151829
-0.1047622726178683
-0.03617453409857101
-0.2403533153789729
-0.01505886351096071
-0.01594637580047009
0.0827091541516565
-0.178714916712595
-0.2337103324274907
-0.1835230870585627
-0.6730578313783949
0.009381111100284521
-0.01767636039327056
-0.01528768356074131
-0.09728830445417611
0.1190058825515497
-0.0218248756508665
-0.2350529271697774
-0.03660718978660978
-0.007029948776128382
0.2805495207469179
-0.01074205706463201
-0.08994234720378613
-0.1543605209471215
-0.004083224440152845
-0.04199651220122433
-0.0483826023897713
-0.1940267592608949
-0.007663471848870079
-0.03910643323421854
-0.003802134560358351
-0.5413181474896437
-0.1915026723953893
-0.1800573462166739
-0.02375968347118802
-0.009415441783046588
-0.06280500754931899
-0.0558503619335967
-0.01546536659007047
-0.07029043019408457
0.005215249955718406
-0.01741473846831485
-0.09420868002012484
-0.2797179512155523
-0.00980199604406134
-0.02464028693739153
-0.02111578212367454
-0.07711558950199987
-0.08821033027426761
-0.09048775837616196
-0.01143777422502125
-0.9031090634430434
0.1627284857579072
-0.08256077420227709
-0.2488569854790776
-0.04092861714586583
-0.009018285637666885
-0.249901349613678
-0.2004825058892672
-0.03008529278930979
-0.113421674402008
-0.01820956739263477
0.5632808571118962
-0.02552857041822848
-0.2109461669561218
-0.0247106986309236
-0.003851853792998771
-0.01080013120693713
-1.241027856851803
-0.179855320076771
-0.224683493672364
0.005192596296461084
-0.04006221777779854
-0.232566477411342
-0.06771786603878394
-0.05258794474157152
-0.1476915591940066
-0.1780511168940833
-0.07074010554437039
-1.209694383136625
-0.1619991699250521
-0.546772775495751
0.08032772521703233
-0.005910754602211246
-0.02072529237202911
-0.04543568760173836
-0.03725965581666893
-0.02741911001381866
-0.1283368654461546
0.0820803493936999
-0.003996593770206024
-0.009965073606962657
-0.5582695304870102
-0.8446946170823075
-0.1722858040451743
-0.007591332917093148
-0.1218011550515877
0.0004175310629171392
-0.0003045806113384088
-0.002967214224715172
-0.06193998755208131
-0.2313692257480933
-0.01327234514340091
-0.1091770241631087
-0.1576288811514083
-0.01307007754711405
-0.03400227410227756
0.03075128070197287
-0.0593426404296967
-0.07289036249140321
-0.4895683064874004
-0.2175009538790758
-0.07907308180719569
-0.07663135394896511
-0.01915900778838053
-0.1103980943468808
-0.1672141270765761
-0.08277427843260776
0.02650991705898743
-0.08821653243798898
-0.05121929771546938
-0.01492794267842196
-0.1152876639760349
-0.2838024513269017
-0.06045901649175041
-0.0178672234420322
0.001042096962073736
-0.0102177404586591
-0.01040302753972933
-0.2401976837767001
-0.01402989501948728
-0.2146696452240454
-0.01074397204805469
-0.07503540120964775
-0.004187274186115536
-0.02328184412920489
-0.3963267910372251
-0.9345882502248951
-0.0112256050983294
-1.036370147569616
-0.5977433015625215
-0.01052146545934227
-0.6637225975488146
-0.1900543476800441
-0.005020667712982365
-0.1217830883452358
-0.01696674709657285
-0.126807383907604
-0.06399164584871732
-0.0802140224792534
-0.00555396829901041
-0.003185424775414658
-1.350135065892926
-0.01151324671766788
-0.1848780989908216
0.001145810453000398
-1.002600867219987
-1.2544917329843
-0.07718965650712137
0.01525021107981263
0.1647164998813836
-0.004804870730393762
-0.02295045895074817
-0.004346033946119605
-0.2361672948080766
0.3652969869215182
-0.04270885435570348
-0.215776919627752
-0.01528292659756908
-0.6484904945438728
-0.07116987196965767
0.1879035893415894
-0.3073839871180133
-0.05123932029653176
-0.07095232480188898
-0.01580046258743318
-0.02133678561075824
-0.59895540778419
-0.1556750579498264
-0.09667919680546923
-0.1166838766506112
-0.5476133867206087
-0.04583264422886367
-0.8984306095679406
-0.0003567768519768123
-0.2461894651241055
-1.058395502162693
0.1641737919175296
0.2887462448733195
-0.1708783215101518
-0.1872968692067828
-0.2172681834853942
-0.0654532800039552
0.02554859906744314
0.04402103935769194
0.004648173041167967
-0.1520166369876795
0.02646817719808662
-1.372297225679475
-0.08800140079386304
-0.4820819979381162
-0.3370228178767439
-0.2227025857724558
-0.1822043095859237
-0.01697864572527991
-0.01535377942614203
-0.09183919368193123
0.1749620689782163
0.3840055555668451
-0.2028301871265056
-0.1569539809738633
-0.2179911093642435
-0.06414443221857996
-0.1642643677428454
-0.1745610611371703
-0.1286839898070789
-0.1097177837323112
0.4635757959533874
-0.2863419202847716
0.4335601526571573
-0.5859760338057663
0.07400612164129911
-0.1857913521263361
-0.06859180774619299
-0.07901515739351141
-0.8992843733659786
-0.2150432143802932
-0.1943159019796662
-0.3576364364278303
-0.469463947375538
0.5694394126003586
-0.2167560671397205
0.003540685136115149
-0.06631134545050366
0.3460225093661287
-0.03397941993266088
-0.1205923207341208
-0.1832762272631631
-0.06454264016874942
-0.01631576426393892
-0.2008654243025473
0.1976721087276319
-0.01263130922756369
-0.09968963095790341
-0.178433515787106
-0.3210829000586438
-0.3059231026131177
-0.08474977753280889
-0.00957152018150953
-0.08148049710595406
-0.6471864047196321
-0.6775437005265276
-0.3221792780580272
-0.05980790213337481
-0.04862988183152706
-0.02415466776912161
-0.07110464198842267
-0.05394017111578272
-0.3712304893299229
-0.9672626938385884
-0.008667672007217886
-0.08626689527014807
-1.150714359738954
-1.048235094799061
-0.1104586659252867
-0.04275395769737992
-0.0670603877545758
0.3878841154282975
-0.3372632521938432
-0.05105138260172284
-0.6087882234164634
-0.1387626078689984
-0.2464923914090875
-0.2160291412886018
0.4729373677723777
-0.6407167528371637
0.07766924033108304
-0.02810964136336716
-0.5739311435787532
-0.05549299403647844
-0.3682374346396188
0.1107536073669695
-0.1951015590775657
-0.06212818293029716
-0.1241565671283136
-0.355427830673253
-0.08277117887826743
0.5158148213210063
0.08770567071501363
0.4689986367415682
-0.1217385258619029
-0.2092346603344724
-0.5058875743103128
-0.1362052581003361
0.02334281389468523
-0.05636823395278224
0.09865894364131902
-0.3013299496955042
0.2365206937704406
0.003841683758151272
-0.002511621476684888
-0.5051349952190302
-0.1799879969742408
-0.1012590906107744
0.5812009469671945
0.1401500968430359
0.3425600266743777
0.2249543154700071
-0.5698814302453455
-0.2021578382998071
-0.2218165866795767
-0.2240495457772855
-0.06302542733054169
-0.6842085232832704
-0.1880561687700202
0.3037075890439282
-0.1966984912832303
-0.01131588275265219
-0.1592124005421801
-0.01266783648262719
-0.1726698305426925
-0.4507672544613192
-0.07617071977217217
-0.2094615289505028
-0.07718390668996022
-0.1095084408939779
-0.1302882485277006
-0.07207263803693827
-0.4370956930514491
-0.4078956219831765
-0.02285294283410978
-0.07878298827967596
0.3303282084022147
-0.2542774721128943
-0.1693145904860869
0.5236110768663843
-0.1914592910742574
0.02218664143963194
-0.4582872490509002
0.05137618728205429
-0.058592918769079
-0.150343847032987
-0.5960884751047433
0.1574840496907095
-0.572055284923621
-0.544285203130714
-0.1004767509893373
-0.5159280735441234
-0.03568559205742716
-0.1571678060736508
-0.4172694734990403
-0.01599457068213216
0.2887889084492467
0.4899737115828906
-0.1693532813988847
-0.004617077759366824
-0.08463793207980748
0.5249176535676985
-0.03172976083978315
-0.4489227176010654
-0.0313859541966565
0.4620590172957486
-0.01829928579236585
-0.5539800349582492
-0.2412258002024453
0.1788551268006828
-0.3178775301692638
-0.1841398488427929
0.04678453362630514
0.03044694473321384
0.05736131797994316
-0.3069862303016676
-0.160378319438996
0.4128284663455175
)
;

boundaryField
{
    FrontBack
    {
        type            empty;
    }
    Top
    {
        type            zeroGradient;
    }
    In
    {
        type            zeroGradient;
    }
    Bottom
    {
        type            zeroGradient;
    }
    Out
    {
        type            fixedValue;
        value           uniform 0;
    }
    circle
    {
        type            zeroGradient;
    }
}


// ************************************************************************* //
