/*--------------------------------*- C++ -*----------------------------------*\
| =========                 |                                                 |
| \\      /  F ield         | OpenFOAM: The Open Source CFD Toolbox           |
|  \\    /   O peration     | Version:  2412                                  |
|   \\  /    A nd           | Website:  www.openfoam.com                      |
|    \\/     M anipulation  |                                                 |
\*---------------------------------------------------------------------------*/
FoamFile
{
    version     2.0;
    format      ascii;
    arch        "LSB;label=32;scalar=64";
    class       volScalarField;
    location    "23.7";
    object      p;
}
// * * * * * * * * * * * * * * * * * * * * * * * * * * * * * * * * * * * * * //

dimensions      [0 2 -2 0 0 0 0];

internalField   nonuniform List<scalar> 
808
(
0.123607
0.0153615
0.0125439
0.12365
-0.198971
0.0167363
0.00854629
0.02456
-0.100998
-0.0130169
0.0203427
-0.116421
0.0211591
0.0120695
-0.28991
0.0191753
-0.305139
0.0193107
0.0241799
0.0131798
0.0202673
0.38638
0.0705646
0.00345206
0.464929
-0.191131
-0.042608
0.00646449
0.0206074
0.0157104
0.0168574
0.0240112
0.0209116
0.0131775
-0.067454
0.637833
0.0126826
0.0216506
0.0192291
0.015357
-0.038971
-0.0453016
0.0333097
0.0181405
-0.209648
0.0878175
0.0207147
0.0269588
0.0128169
-0.138201
0.0117726
0.0247331
0.042517
0.010063
-0.0836964
0.00979591
0.00826666
0.0225014
-0.00770993
0.00694869
-0.283197
0.0174613
0.0293577
-0.149125
0.0189747
0.0439264
-0.220103
0.0188824
0.0207493
-0.249148
0.020055
-0.280379
0.0193481
0.019954
0.200675
0.0123516
-0.00447512
-0.0654837
0.00883817
0.319863
-0.130832
0.016819
0.0347912
0.284341
0.0175899
-0.0260772
-0.321445
-0.103125
0.0296584
-0.210167
0.0444168
-0.0842156
0.259994
0.160002
0.0384933
-0.186874
0.0149651
-0.137256
-0.0904995
-0.175946
0.0122828
0.00402599
0.0428576
-0.0202433
-0.0830829
0.0569402
-0.241338
0.0223495
0.00974928
0.0460496
-0.0709316
0.339215
0.0164632
0.033952
0.0191054
0.462168
0.0153771
-0.233748
0.0176759
0.0607758
-0.226131
0.0341367
0.0139667
0.0623916
0.113075
-0.0476182
0.114623
0.0266481
0.0409076
0.0661505
-0.222536
0.0204999
-0.0376567
0.127845
0.022131
0.0111186
0.070092
0.00966234
0.0203138
0.0125243
-0.276649
0.0530137
0.0235661
0.0179645
-0.0285091
0.099657
0.101045
0.163825
-0.0461476
0.0335211
0.01603
0.351266
0.0327342
0.54528
-0.271159
-0.102153
0.0157078
-0.238771
0.0477725
-0.125232
-0.269973
-0.274216
-0.244177
0.0200913
0.0591112
0.0197719
0.0237066
-0.249873
0.0132306
0.022859
0.0428612
0.161411
0.0941617
0.13758
0.0188487
0.0759632
0.0693699
-0.125863
0.0225484
-0.306141
0.0232592
-0.139083
0.0190688
0.273603
-0.32709
0.116694
0.018086
-0.127206
0.025701
-0.0829866
-0.267076
-0.0578702
0.0190514
0.0892644
0.0192775
-0.26772
0.017764
0.0247673
0.00289741
0.0808031
0.0704397
0.0225866
0.0216418
-0.282102
0.384128
-0.260853
-0.267062
0.00833527
0.00286953
0.0168025
0.00137785
-0.354587
-0.205354
0.0177974
-0.00625546
0.0188265
-0.286932
-0.0320344
-0.00485966
0.036932
0.0101606
-0.0815305
0.0260498
0.0258763
0.00453936
0.0229053
0.124996
-0.213624
0.0483054
0.0183925
0.11788
0.0196918
0.0215098
0.0140885
-0.112579
0.00709412
0.00749731
-0.000582308
-0.0085353
0.0113423
-0.000695979
-0.00211789
0.00282991
0.0040925
-0.000683919
0.00398692
-0.000607465
-0.00184723
0.00503614
0.0822954
-0.275154
0.00507153
0.0159979
-0.100608
0.011753
0.00366878
0.0298348
0.00218246
0.0222726
0.128721
0.0623355
0.00673801
0.0101044
0.00934213
0.0199028
0.0200424
0.0291756
0.049323
0.0239189
0.0276904
-0.0014049
-0.352847
0.28206
0.0174644
-0.0477619
0.016285
0.0136734
0.0139991
-0.159107
0.29102
0.0305946
-0.00975142
0.0156883
0.0904795
-0.17209
0.0237478
0.0655084
0.0532333
0.0346929
0.0644996
0.0230163
0.0310221
0.0165007
0.0158751
0.0440625
0.0258818
-0.000713635
0.0577065
0.0666505
0.050287
0.0154395
0.025222
0.00896521
0.015238
-0.456589
-0.104522
0.0103478
-0.0223358
-0.145681
-0.327589
0.0573057
0.0236675
-0.268839
0.135504
0.166687
0.017097
0.0188489
0.054738
0.00310832
-0.188067
0.0358649
0.00165021
0.0249963
0.0249191
0.0235434
0.0307434
0.0431985
-0.0012661
0.0360088
-0.26225
-0.124391
0.0223244
-0.0666395
0.00198757
0.00841096
0.23703
0.0476876
-0.131551
0.558832
0.0145623
0.00524758
0.0261172
-0.067496
-0.0487897
0.0259193
0.0305003
0.00420114
0.0394075
-0.0563747
-0.243158
0.0397272
0.106867
-0.0559501
-0.259158
-0.26985
-0.222663
-0.266382
0.0201046
0.0243418
0.0218879
0.0142859
-0.0292988
0.00786762
0.0333686
0.00578643
-0.451874
-0.00331696
0.03299
0.0167605
-0.157359
0.00389791
0.0238826
0.118996
-0.295119
0.0187635
-0.0475099
0.0236439
0.00700954
-0.261677
0.0162551
-0.289987
-0.00144782
0.0320129
0.0184532
0.0104395
0.019804
-0.0499171
-0.29825
0.00526104
0.0151594
0.0040285
0.0269474
-0.00641245
0.0233555
-0.00405616
-0.0123276
-0.0601914
0.0491631
0.00381203
0.0175554
-0.171172
-0.173398
0.0661438
0.017755
-0.105857
-0.0220464
0.438039
-0.238494
0.00142033
-0.0942059
0.00949099
0.0354417
0.023547
0.0595449
0.000267953
-0.0658015
-0.0549002
-6.05302e-05
-0.00450328
-0.00671367
-0.0116335
-0.0115478
0.0174967
0.122528
0.0589297
0.0120757
0.0123468
0.0237708
-0.0676989
0.0236879
-0.332242
0.0655564
0.0603299
-0.000289582
-0.215352
-0.258735
-0.0140708
-0.0583622
-0.0766086
0.027144
-0.249972
-0.192318
0.231485
-0.275649
-0.403656
-0.186382
-0.13742
-0.100379
-0.208082
0.362446
-0.0257326
-0.26743
0.00756052
0.0105346
0.591322
0.0114371
0.0251133
0.050257
-0.000511287
-0.0112588
-0.346996
-0.269295
0.0531552
0.0700527
0.0798546
-0.224768
-0.259549
-0.225807
0.0141836
0.026005
0.0928825
-0.0133059
-0.0140503
0.0787493
0.0585619
0.0211161
-0.143473
-0.279058
0.0319414
-0.0940677
0.0164567
0.0059944
0.0856508
-0.0536634
0.0119822
-0.413832
0.464312
-0.172998
-0.262616
-0.0275326
-0.00352201
-0.266156
-0.261075
0.128341
-0.289046
-0.177624
0.876627
0.0126558
-0.3127
0.00310862
-0.138839
-0.0294457
-0.405306
-0.27897
-0.2611
0.0161787
-0.175107
-0.315459
-0.015823
-0.0255767
0.108579
-0.267241
0.0298965
-0.448691
-0.303599
-0.362289
-0.202513
-0.0173938
0.000105343
0.106625
0.13725
-0.0431564
-0.258179
0.319268
0.0820282
0.0161998
-0.389035
-0.44589
-0.286737
-0.0188171
-0.304685
0.0711522
0.0706145
0.0570418
-0.160878
-0.191861
0.00904434
-0.263928
-0.275817
0.00518732
-0.00431378
-0.257988
-0.0125089
0.0358554
-0.333887
-0.272855
-0.0707804
0.105282
0.0251177
-0.283467
-0.276424
-0.157474
-0.234684
0.0406295
0.102424
0.00889433
-0.188281
-0.275935
0.105661
0.0291487
-0.19955
0.0249012
0.0444514
-0.30974
0.01226
-0.223109
0.0504819
-0.362418
0.0197476
-0.00191913
-0.340931
-0.431678
0.00281829
-0.421022
-0.409544
0.0318987
-0.0650186
-0.265647
0.0169328
-0.258829
0.0243706
0.0855887
0.0740175
-0.370757
0.0790463
0.0239432
-0.435586
0.0117084
-0.275029
0.0191615
-0.269497
-0.487097
0.114813
0.281243
0.454594
-0.00124283
0.00126324
-0.00156585
-0.296735
0.657081
0.0166904
-0.207443
0.0297498
-0.0329585
0.0933215
0.495185
-0.345796
-0.0490184
-0.0444158
0.0294937
0.0157847
-0.427813
-0.256205
-0.258207
-0.313066
-0.235262
0.00104644
-0.31272
0.0269896
-0.252309
-0.300243
0.51752
0.597896
-0.299834
0.133589
-0.264706
-0.0157734
-0.1803
0.412432
-0.116432
-0.276978
-0.153183
-0.488538
-0.02429
-0.183728
-0.0109563
-0.289676
-0.258723
-0.000483176
0.0019333
-0.279669
0.469527
0.686743
-0.264061
-0.283471
-0.279849
-0.0617107
-0.282424
-0.270716
-0.185889
-0.277326
0.762076
-0.317137
0.762372
-0.365912
0.344082
-0.265615
0.000613924
0.184649
-0.477407
0.25096
-0.26708
-0.291924
-0.319637
0.882126
-0.262631
0.223828
0.164493
0.660632
0.137705
-0.344611
-0.265811
-0.131911
0.00876748
0.094651
0.544279
0.0120669
-0.0217898
-0.271124
0.124746
-0.0949051
-0.1977
0.0217195
-0.360406
-0.121759
-0.146897
-0.323317
0.0035583
0.115758
-0.00712067
0.0798673
0.122224
-0.309912
-0.343351
-0.0719291
0.0120306
-0.447243
-0.491585
0.183807
0.203132
0.0988184
0.67793
-0.0536944
-0.355315
-0.367272
-0.276858
-0.0350022
0.0922817
0.774156
-0.43075
0.396837
-0.0117571
-0.403354
0.161895
-0.0664635
0.403483
-0.150508
0.0145239
-0.29236
-0.0472081
0.219633
0.830235
0.348286
0.769828
-0.267214
-0.275122
-0.370963
0.176317
0.27894
0.0641734
0.39121
0.164441
0.511195
0.285613
-0.0886123
-0.156528
0.0435428
-0.331232
0.896488
0.42516
0.657195
0.525395
-0.25436
-0.267906
-0.268269
-0.263451
0.0496248
-0.362146
0.127871
0.607369
-0.290443
0.0131622
-0.262126
0.194361
-0.303367
-0.344735
-0.121531
-0.266864
-0.30529
-0.274035
-0.300097
-0.0868956
-0.370974
-0.101621
-0.325624
0.155519
0.675121
-0.20658
-0.278919
0.837002
-0.278542
0.305437
-0.220145
0.412882
0.101123
-0.240292
-0.37582
0.451596
-0.239347
-0.305297
0.210219
-0.261841
-0.0185764
-0.276225
-0.107997
0.0170722
0.586682
0.794045
-0.274456
0.241342
-0.296402
0.834408
-0.00931962
-0.295106
-0.0228087
0.779739
0.216675
-0.302736
-0.267556
0.472283
-0.197996
0.046957
0.359926
0.264239
0.310861
-0.237355
-0.316448
0.702269
)
;

boundaryField
{
    FrontBack
    {
        type            empty;
    }
    Top
    {
        type            zeroGradient;
    }
    In
    {
        type            zeroGradient;
    }
    Bottom
    {
        type            zeroGradient;
    }
    Out
    {
        type            fixedValue;
        value           uniform 0;
    }
    circle
    {
        type            zeroGradient;
    }
}


// ************************************************************************* //
