/*--------------------------------*- C++ -*----------------------------------*\
| =========                 |                                                 |
| \\      /  F ield         | OpenFOAM: The Open Source CFD Toolbox           |
|  \\    /   O peration     | Version:  2412                                  |
|   \\  /    A nd           | Website:  www.openfoam.com                      |
|    \\/     M anipulation  |                                                 |
\*---------------------------------------------------------------------------*/
FoamFile
{
    version     2.0;
    format      ascii;
    arch        "LSB;label=32;scalar=64";
    class       volScalarField;
    location    "33.6";
    object      p;
}
// * * * * * * * * * * * * * * * * * * * * * * * * * * * * * * * * * * * * * //

dimensions      [0 2 -2 0 0 0 0];

internalField   nonuniform List<scalar> 
808
(
0.127785
0.0238402
0.0296446
0.127774
-0.187266
0.0218916
0.0113854
0.0396897
-0.101143
-0.0195835
0.0292217
-0.112838
0.0354401
0.0185653
-0.273663
0.0284402
-0.285021
0.022302
0.029402
0.0138388
0.0452941
0.382627
0.0760151
0.010288
0.457522
-0.135488
-0.0378509
0.0118631
0.0174755
0.0177455
0.0131421
0.024797
0.0239114
0.00851737
-0.0812902
0.635354
0.0222928
0.0211612
0.0309876
0.0241108
-0.049983
-0.0395293
0.0431894
0.0271887
-0.0815813
0.092242
0.0234132
0.0323195
0.0275365
-0.14115
0.0120064
0.0274883
0.0508907
0.00931032
-0.098725
0.0251528
0.0136441
0.0413467
-0.0119611
0.0193647
-0.277242
0.0218117
0.0467822
-0.181157
0.0391563
0.0540398
-0.245962
0.0307729
0.0176581
-0.235341
0.0342287
-0.260888
0.0329184
0.0270898
0.205316
0.0215548
-0.00312177
-0.0834282
0.0169329
0.312207
-0.0895893
0.0231733
0.0399723
0.284674
0.018942
-0.019797
-0.305432
-0.121128
0.0377909
-0.177117
0.0464256
-0.08544
0.255226
0.160949
0.0473152
-0.285647
0.0329165
-0.0565614
-0.0983006
-0.239313
0.0203669
0.007354
0.0488445
-0.0160243
-0.126345
0.0634553
-0.0697523
-0.0039347
0.0232121
0.0502358
-0.0659969
0.335402
0.0302998
0.0420008
0.0268969
0.461239
0.0223571
-0.219682
0.0283548
0.0653783
-0.341551
0.044126
0.024278
0.0670794
0.115958
-0.0632224
0.118857
0.0784549
0.0403812
0.0734587
-0.265096
0.0412019
-0.0448803
0.125963
0.0313679
0.021194
-0.0217614
-0.00979494
0.0304788
0.016425
-0.327598
0.0573177
0.0149516
0.0321613
-0.0361031
-0.0221055
0.105337
0.167009
-0.0488323
-0.0179358
0.0300917
0.34414
0.0391656
0.539329
-0.294286
-0.0975226
0.0240072
-0.137445
-0.0127928
-0.109012
-0.260847
-0.320598
-0.245259
0.0288546
0.0679694
0.0323717
0.0310075
-0.246277
0.0280972
0.0479147
0.0485927
0.161603
-0.0273631
0.142472
0.024495
0.0794596
0.0755434
-0.134143
0.03303
-0.284676
0.0421801
-0.153684
0.0261853
0.27615
-0.203009
0.121724
0.0311878
-0.160139
0.034321
-0.105679
-0.293943
-0.0706815
0.0261942
0.0930941
0.0254317
-0.315014
0.02342
0.0449341
0.0151069
0.0818834
0.0750563
0.0424257
0.0264544
-0.250787
0.379929
-0.307495
-0.265123
0.0133814
0.0480439
0.0307118
0.023558
-0.330156
-0.306147
0.0228761
0.0347798
0.0278016
-0.2651
-0.0512577
0.0367396
0.0508817
0.0122478
-0.103283
0.0381089
0.0393834
0.00737367
0.0280897
0.129996
-0.351642
0.0689578
0.0158186
0.121039
0.0205207
0.0237958
0.0123948
-0.0568796
0.0549576
0.0193929
0.0103511
0.0372217
0.0244529
0.0156174
0.00512159
-0.00516276
0.0129612
0.00092653
0.00379709
-0.00866898
0.00200433
0.00382898
-0.0259005
-0.266198
0.00188371
-0.0365081
-0.147379
-0.00680333
0.0265108
0.0210354
0.00260766
0.0303252
0.12991
0.0277432
0.0126165
0.00922861
0.0693842
0.031873
0.00763838
0.0144131
0.0209986
0.0375695
-0.0221141
0.04555
-0.325322
0.277723
0.0023304
-0.0227135
0.0243945
0.00561476
0.013252
-0.267188
0.294255
0.0344216
0.0627672
0.02705
0.0948487
-0.0611606
0.0145046
-0.035372
0.033824
-0.0277441
-0.0413202
0.0319786
0.0286147
0.0574286
0.0548744
0.0185848
0.0114167
0.0325901
0.0606633
-0.00468798
-0.00187086
0.0389874
0.0205834
0.054989
0.0219828
-0.443627
-0.0800245
0.0167769
0.00356182
-0.159917
-0.13283
-0.0204934
0.0227043
-0.270833
0.138945
0.167937
0.0270119
0.023289
0.0497022
0.00682851
-0.177606
0.0222119
0.0018295
0.0290822
-0.0264926
-0.0550046
0.029971
0.0384114
0.00795994
-0.0309326
-0.273498
0.00679422
0.0446926
0.123356
0.141614
0.0213466
0.233369
-0.0366648
-0.152419
0.556649
0.0582755
0.00761181
0.0284857
-0.0279924
-0.0502608
0.0924774
0.0276748
-0.00573661
0.027457
-0.0209157
-0.273647
0.0637529
0.10868
-0.0355633
-0.273995
-0.267981
-0.333588
-0.265401
0.0556328
0.0326207
0.0167094
-0.048155
-0.0143434
0.010222
0.0283913
0.000650707
-0.436741
0.0739375
0.0398242
0.0315693
-0.410668
0.0482739
-0.0227887
0.122439
-0.263836
0.0896984
0.000607269
0.106883
0.0389096
-0.270815
0.0518499
-0.338511
0.0303983
-0.013152
0.0326878
0.0199011
0.0170218
-0.0533158
-0.270507
0.0176489
0.0118283
-0.101722
-0.00226595
0.0141794
0.0405766
-0.00879973
0.0188463
-0.0746391
0.0522008
0.0394573
0.0192119
-0.443804
-0.0774356
0.0548362
0.0229723
-0.124129
-0.0181543
0.438261
-0.287752
0.0172349
-0.0957026
0.0416951
0.0512033
0.0261262
-0.069055
0.00831871
0.0894046
-0.0544712
0.00838929
-0.00333898
-0.00659561
-0.00901079
-0.00868409
0.0314344
0.127258
-0.1219
0.0243122
0.0113122
0.0148779
-0.0426541
0.03422
-0.321203
-0.143937
0.00410158
-0.000284114
-0.17968
-0.367178
0.000373869
-0.0530955
0.00434763
0.0320615
-0.0511361
-0.203195
0.228073
-0.241863
-0.388951
-0.345662
-0.017764
-0.0509239
-0.392448
0.361287
-0.0301177
-0.279203
0.0218157
0.0301772
0.586879
0.00332828
0.0240662
0.041035
-0.0698164
0.00553655
-0.181932
-0.309588
0.0561606
0.0741883
-0.0140416
-0.215041
-0.238177
-0.227663
0.0216827
0.0114437
0.0972203
-0.0065058
-0.037952
0.0846187
-0.066704
0.037172
-0.196872
-0.343016
-0.0518053
-0.0644714
0.0328963
0.0155077
0.0885953
-0.0378885
-0.0264682
-0.390469
0.464212
-0.321876
-0.278026
-0.0231791
-0.0214519
-0.285359
-0.27758
0.131063
-0.269794
-0.174037
0.871868
0.027167
-0.28431
0.021099
-0.0409688
0.0568659
-0.398267
-0.286734
-0.244391
-0.0152447
-0.302053
-0.288824
0.00290404
-0.0023372
0.0961494
-0.234479
0.0358072
-0.43026
-0.356696
-0.420196
-0.112443
-0.00657517
0.0319034
0.110302
0.138577
-0.0165173
-0.267433
0.316549
0.0623301
0.00885178
-0.364545
-0.425897
-0.254694
0.0774194
-0.279021
0.0640943
-0.0435421
-0.069505
-0.281722
-0.182703
0.0247401
-0.267601
-0.323208
0.0151687
0.00772677
-0.00729061
0.0072145
0.0397244
-0.313825
-0.280497
-0.102281
0.0971146
0.0324427
-0.268986
-0.311585
-0.388012
-0.200104
0.0419958
0.103145
0.00576608
-0.36397
-0.334576
0.102326
0.0294753
-0.126804
0.0364658
0.0179843
-0.365932
0.0435538
-0.21825
0.0104559
-0.203584
-0.0037302
0.00218796
-0.399284
-0.487836
0.00275985
-0.411555
-0.389059
0.0304051
-0.0745994
-0.288217
-0.0377697
-0.267335
0.0484647
0.0761398
0.0735952
-0.158262
0.0219219
0.0149988
-0.465632
-0.00915044
-0.294276
0.0268861
-0.268176
-0.535994
0.118781
0.272798
0.453364
0.0284652
0.00532406
0.00225924
-0.269296
0.652601
0.0298497
-0.218901
0.0328231
-0.035736
0.0986481
0.488791
-0.404902
-0.0170229
-0.0233401
0.0385314
0.0172175
-0.485063
-0.268438
-0.30344
-0.299194
-0.230696
0.0169375
-0.308719
0.106201
-0.284509
-0.319269
0.517023
0.594333
-0.34573
0.137883
-0.288121
-0.00876053
0.0301482
0.410522
0.0228042
-0.26025
0.0832461
-0.529056
-0.0139049
-0.209803
-0.0259585
-0.348429
-0.303323
0.00261885
0.00844834
-0.256106
0.465485
0.682491
-0.259369
-0.325684
-0.26275
-0.0306243
-0.338248
-0.298117
-0.17126
-0.257718
0.761783
-0.371878
0.756263
-0.348794
0.345947
-0.24862
0.0147601
0.174034
-0.527919
0.245414
-0.287019
-0.336363
-0.362716
0.879423
-0.278456
0.224974
0.167802
0.657346
0.139036
-0.327947
-0.324438
-0.204038
0.0198047
0.0844737
0.537546
0.0193621
-0.0147371
-0.302747
0.118623
-0.0872562
-0.441285
0.0405599
-0.258908
-0.122209
-0.160126
-0.297824
0.0171282
0.117235
0.0198476
0.0785783
0.128431
-0.36534
-0.366208
0.0339113
0.0175248
-0.48101
-0.534681
0.176644
0.193531
0.101511
0.675901
-0.0468055
-0.107772
-0.395708
-0.33246
-0.0283457
0.0792682
0.771006
-0.471694
0.395099
0.0111385
-0.456377
0.153887
-0.0793194
0.403226
-0.157875
0.0259349
-0.261974
-0.0465466
0.217642
0.824723
0.348952
0.767785
-0.312227
-0.33883
-0.349354
0.165805
0.270237
0.0688848
0.383986
0.16073
0.508344
0.276788
0.0509945
-0.148616
0.0487936
-0.258931
0.892667
0.425422
0.656587
0.520361
-0.273844
-0.27984
-0.294921
-0.270383
0.0556711
-0.353394
0.128069
0.602728
-0.284315
0.0168671
-0.268005
0.18927
-0.362975
-0.39749
-0.177542
-0.324913
-0.31393
-0.309396
-0.270952
-0.133933
-0.34687
-0.0981697
-0.0461985
0.146791
0.669629
-0.230373
-0.244076
0.83532
-0.247415
0.306924
-0.248142
0.407081
0.102394
-0.28577
-0.420641
0.448197
-0.232249
-0.335456
0.212176
-0.284514
-0.00879246
-0.324688
-0.124065
0.0455671
0.584583
0.790276
-0.316986
0.245043
-0.301553
0.830872
0.00555153
-0.331227
-0.0116535
0.775361
0.20988
-0.338532
-0.299493
0.471444
-0.222311
0.0329431
0.353942
0.256985
0.313541
-0.263822
-0.321649
0.698935
)
;

boundaryField
{
    FrontBack
    {
        type            empty;
    }
    Top
    {
        type            zeroGradient;
    }
    In
    {
        type            zeroGradient;
    }
    Bottom
    {
        type            zeroGradient;
    }
    Out
    {
        type            fixedValue;
        value           uniform 0;
    }
    circle
    {
        type            zeroGradient;
    }
}


// ************************************************************************* //
