/*--------------------------------*- C++ -*----------------------------------*\
| =========                 |                                                 |
| \\      /  F ield         | OpenFOAM: The Open Source CFD Toolbox           |
|  \\    /   O peration     | Version:  2412                                  |
|   \\  /    A nd           | Website:  www.openfoam.com                      |
|    \\/     M anipulation  |                                                 |
\*---------------------------------------------------------------------------*/
FoamFile
{
    version     2.0;
    format      ascii;
    arch        "LSB;label=32;scalar=64";
    class       surfaceScalarField;
    location    "33.6";
    object      phi;
}
// * * * * * * * * * * * * * * * * * * * * * * * * * * * * * * * * * * * * * //

dimensions      [0 3 -1 0 0 0 0];

oriented        oriented;

internalField   nonuniform List<scalar> 
1171
(
-0.945281
0.945281
0.782011
-1.09118
0.309166
-0.370652
-0.695204
1.06586
0.0547195
-0.0646532
-0.278723
0.343377
-0.782011
0.095241
0.68677
0.948634
-0.216192
-0.732442
0.860944
-1.05699
0.196048
-0.359541
-0.0367199
0.396261
-0.00588732
0.610614
-0.604726
-0.441044
0.893861
-0.452817
-0.424194
1.0366
-0.175657
0.269518
0.0771979
-0.346716
1.00246
0.0341383
0.278532
-0.00901419
1.04577
-0.0433032
0.602426
-0.973078
-0.787805
0.605996
0.18181
0.358014
-0.799057
0.559729
-0.914961
0.355232
-1.07909
0.670085
0.409001
-0.643236
0.637348
0.0313091
-0.250811
0.219501
0.0208347
-0.61936
0.598526
0.467514
-0.504234
-0.833076
0.874042
-0.0409664
1.0068
0.0389644
0.913562
-1.06855
0.154985
1.03675
-0.0299452
-0.70392
-0.0838855
1.25744
-0.843931
-0.413506
0.203671
-0.0818394
-0.41515
0.496989
-0.273264
0.185181
0.0880834
-0.60615
-0.485027
0.970141
-0.0565787
-0.0170739
0.877222
-0.860148
0.530404
0.727033
0.528774
0.0216332
0.445881
-0.790023
-0.104851
0.894874
0.581789
0.228079
-0.809868
0.0695043
0.539293
-0.608798
-0.508217
-0.570869
-0.382076
-0.686472
0.0281933
0.245912
-0.274106
-0.946441
-0.0250504
0.971491
0.379171
0.0170897
0.847061
0.101572
-0.601979
-0.0412565
0.0361779
-0.826201
0.139546
0.899758
-1.0393
-0.401401
0.0211393
0.380261
-0.705402
-0.241039
-0.683482
0.823027
0.648448
0.245413
-0.583093
0.985295
-0.814079
-0.171216
-0.0556859
-0.0584342
0.11412
-0.459594
-0.0446404
-0.27655
0.924998
-0.0118511
0.444346
-0.432495
-0.465004
1.04679
0.71391
-0.818761
0.403871
-0.0833361
-0.320535
0.774719
-0.774719
-0.917821
0.0386465
-0.31737
-0.699951
0.682877
-0.0311621
-0.144557
0.175719
0.900158
-0.0229355
1.03568
-0.807603
0.224873
-0.321131
0.0962574
0.985273
-0.138211
-0.675938
-0.0393347
0.715272
0.147475
-0.23123
0.0837554
0.800051
-1.01624
-0.441253
0.310847
0.130406
0.646479
-0.625645
0.875599
-0.395156
-0.480444
0.493523
-0.694765
0.0359995
0.658765
0.175405
0.656811
0.0553002
-0.712111
0.13426
-0.0956137
-0.512123
0.110722
0.0334516
-0.898331
0.86488
-0.542162
-0.761067
0.0571466
0.503363
-0.0574821
0.275856
-0.833847
0.557991
0.424197
0.575803
0.595522
-0.559344
-0.39202
-0.0322786
0.424299
0.554904
0.219815
-0.638181
0.707685
0.0882131
0.895292
0.00199509
-0.677933
-0.764537
0.797988
0.617476
0.0869803
0.379219
-0.466199
-0.156116
0.497878
0.0414157
0.851764
-0.592371
-0.259393
0.651557
0.333738
-0.4314
0.682227
-0.595247
0.409944
0.149785
-0.0538452
-0.742012
-0.11362
0.855631
-0.12621
-0.648509
-0.612537
0.362393
0.250145
0.655169
-0.653174
0.312215
1.0148
0.020884
-0.764537
-0.0365571
-0.0191289
0.71391
0.778847
-0.778847
0.841184
-0.826717
-0.0144678
-0.454254
0.878451
-0.190486
-0.321637
0.764017
-0.670227
-0.09379
-0.8088
0.0667885
0.111824
-0.713803
0.818761
-0.974877
-0.190323
0.209225
-0.0189013
0.127408
-0.991935
0.864527
0.551936
-0.0231616
-0.290785
0.595367
-0.304582
-0.657131
0.784538
-0.15891
0.678689
-0.894033
0.215344
1.21304
-0.745532
-0.46751
0.725002
-0.0719371
0.00125205
0.00435315
-0.0056052
-0.802323
-0.974761
0.279557
-0.699951
0.570315
-0.549176
-0.0104584
0.71665
-0.706192
0.779005
0.166276
0.492018
0.507982
0.0104751
-0.660413
0.649938
0.752538
0.0992262
-0.725002
0.797988
0.180692
-0.431503
-0.0446266
0.02898
0.0156465
0.665077
-0.435361
-0.229716
0.68677
-0.0102721
-0.296072
0.543057
0.12202
-0.0182913
0.000240694
0.0180506
0.00594697
-0.00469492
0.126242
-0.209578
-0.937756
0.0228636
-0.139768
-0.0640817
0.111343
0.770243
0.741956
-0.166153
0.489066
-0.499524
-0.163152
0.388025
0.636247
0.050523
0.232034
-1.05875
-0.974877
0.321689
0.682877
-0.160492
0.0159352
-0.793107
1.00973
-0.216622
0.478326
-0.098065
0.792942
0.305235
0.21482
0.0637125
-0.680593
0.680593
0.223687
0.671187
-0.0215546
0.4659
0.475435
-0.0156118
-0.0290147
0.539947
0.0119891
-0.657131
0.570289
0.193728
0.0185624
-0.0142092
-0.636247
0.192466
0.817263
0.0374786
-0.743939
0.70646
0.757433
-0.821406
0.0639721
-0.779005
-0.0307237
0.0430938
-0.0123701
0.0850386
-0.131367
-0.105793
0.23716
-0.0057071
-0.0125842
0.799661
-0.762183
0.844785
0.221071
-0.452691
-0.43797
0.890662
-0.00207546
0.00207546
0.176946
0.35528
0.708731
-1.06401
-0.202434
-0.558797
0.76123
-0.0210319
0.196751
0.382552
-0.235077
0.957714
-0.602434
0.708376
0.935451
-0.226721
0.192066
0.784538
0.608881
0.236233
0.63781
-0.648509
0.319407
-0.0861722
0.00926489
0.0769073
0.915413
-0.187398
-0.728015
-0.565578
0.535633
0.545746
-0.565578
-0.608881
0.535633
0.00829815
0.883
-0.0382145
-0.554904
0.470092
0.0848114
0.524704
0.611286
-1.13599
0.532332
0.425382
0.561236
0.550018
-1.11125
0.495905
0.439546
0.470092
-0.520299
-0.478185
-0.72273
-0.640743
-0.177383
-0.00519834
0.00519834
0.734857
0.503036
-1.14378
0.731636
-0.352417
-1.13961
0.394079
-0.674775
0.433736
0.00489792
-1.03428
1.02938
0.451172
0.0698777
0.845535
-1.13617
-1.00686
0.00735816
0.999505
0.183872
-0.150816
-0.0330553
0.723265
-0.779843
0.953169
-1.06675
0.113582
0.116713
-0.709084
-0.129526
0.94086
-0.811334
-0.862174
0.978887
-0.75551
0.55436
0.20115
-0.764666
0.156515
0.608151
0.00279634
-0.00487181
0.425641
0.183005
-1.01864
0.835632
-0.748518
0.758993
1.09103
-0.00437041
-1.08666
0.0841648
-0.00998884
0.434288
-0.360814
0.0396834
0.985035
-0.980137
-0.543595
-0.624607
-0.0844777
-0.162535
-1.02725
-0.0395012
0.540167
-0.051101
-0.210704
0.394576
-0.565948
0.722463
0.480444
-0.964398
-0.866544
0.0164553
-0.290323
0.72809
-0.437768
0.00212869
-0.833917
0.577956
0.179477
-0.162142
1.00768
0.986245
0.979672
-1.01917
0.0456594
-0.0456594
-0.0825874
-0.154747
0.00393075
0.344281
-0.0225921
0.204548
1.00981
0.0191686
-0.0248757
0.657499
0.342501
0.797253
-0.60615
-0.75708
-0.625166
-0.494666
0.494666
-0.209017
-0.108353
0.642358
-0.989002
0.346644
-0.47101
-0.565837
0.350173
-1.03664
-0.993001
1.10658
-0.739268
0.65479
0.67057
0.210695
-0.881265
-0.424016
-0.173977
0.85667
-0.682693
-0.0168048
0.011725
0.00229991
-0.0140249
0.0702376
-0.224985
0.992531
0.499382
-0.247374
-0.252008
0.466326
0.745573
-0.521886
0.0128582
-0.286122
0.170258
0.707263
-0.877522
-0.366075
-0.0408322
0.134954
-0.950863
0.222848
-0.778307
0.115756
0.751592
-0.867349
-0.937335
0.159028
0.72425
-0.765082
0.228675
-0.360042
-0.422203
-0.00181288
0.370234
0.723957
-0.04173
-0.00215533
0.00215533
-0.00495765
-0.0527735
-0.0333987
-0.0188939
0.0380625
-0.473304
0.341361
0.742416
-0.853164
0.110748
-0.767771
0.883527
0.790804
-0.0665537
-0.75734
-0.179996
-1.19374
0.021043
0.0246163
-0.303046
-0.886866
-0.822941
0.409435
-0.28107
0.38713
-0.10606
-0.536773
0.233727
0.525817
0.712218
-0.0395064
-0.0245752
0.952676
0.495743
0.182468
-0.67821
-0.361943
-0.174829
-0.00136162
0.0130866
0.76663
-0.88025
0.00638713
-0.00638713
-0.686455
0.741757
-0.0553026
-0.572648
-0.0996762
-0.707076
-0.0368551
0.686793
-0.0517556
-0.881053
-0.119832
0.342138
-0.222305
0.850248
-0.739499
0.341037
0.251539
-0.592576
-0.120236
-0.74312
-0.124229
-0.190712
-0.156687
0.471269
-0.51591
0.138492
0.751728
-0.890221
0.493523
-0.232394
-0.0486762
-0.175862
0.0191743
0.593343
-0.0896382
-0.503705
-0.285859
0.306836
-0.0209773
0.540806
0.19083
0.0476837
-0.31269
0.170309
0.142381
0.0672949
-0.103852
-0.288227
0.108567
0.152068
-0.260634
0.931224
-0.37703
-0.195617
0.553463
0.304852
-0.552226
0.411653
-0.411653
-0.199063
-0.400971
-0.211206
-0.400971
-0.677222
-0.850483
0.180256
-0.373099
0.750219
0.0441673
0.177316
0.546641
0.10776
0.117637
0.0107847
-0.128422
-0.0309619
0.763477
-1.06645
0.628475
0.0585402
0.0258213
-0.0843615
-0.749247
-0.178282
-0.525325
0.707793
-0.539904
0.0545812
-0.035407
-0.343127
-0.0806475
0.0806475
0.0443949
-0.00130109
0.13868
0.283278
-0.718122
0.192796
0.0678051
0.472501
0.527499
0.806676
0.0113493
0.0420164
-0.0533657
-0.293921
-0.587133
-0.519508
0.114523
-0.119278
0.00475528
-0.140106
-0.411275
-0.0389058
0.725699
-0.590807
-0.15844
-0.00385297
0.00295058
0.0442977
-0.265797
-0.198232
-0.182928
-0.0266497
-0.477285
0.420143
0.0571425
0.0511903
0.294284
-0.865153
-0.530301
0.694737
-0.863071
0.742835
0.455911
-0.0389559
0.0673208
-0.0283649
0.144028
-0.632517
-0.0028033
0.63532
-0.892475
0.638635
-0.721223
0.0401381
0.00639838
-0.00639838
-0.299832
0.455747
-0.0214595
-0.014888
0.0262373
0.575746
0.435536
-0.694928
0.014092
0.00243305
-0.00458839
0.0039839
-0.0039839
-0.474406
0.665236
0.0149337
-0.0149337
-0.778947
-0.00770605
0.0105024
-0.451576
0.644373
0.503948
-0.559251
0.0689211
-0.0689211
0.0431584
-0.0721731
0.0138228
-1.08547
0.617962
-0.580466
-0.00487181
0.599905
0.00648354
-0.606388
-0.702472
0.111665
-0.31678
-0.0119724
0.328752
-0.0177452
-0.0217612
-0.603383
-0.0291343
0.0246163
0.00570275
0.000684379
-0.00217866
0.00217866
-0.496938
0.236303
-0.456484
0.13391
0.663344
-0.131569
0.00445524
-0.00445524
0.508501
0.128779
0.00847384
0.018218
-0.000887909
0.661894
-0.533115
-0.838765
0.643147
-0.124719
0.329304
0.811198
-0.00495765
-0.106643
0.0924338
-0.659127
0.544057
-0.197942
-0.102567
-0.0254262
-0.0262319
0.0231225
0.487424
-0.0890083
-0.414697
0.7199
0.00121444
0.0055919
-0.0055919
-0.253853
-0.21366
-0.57033
0.614498
-0.144749
0.506358
-0.212687
0.815113
0.922506
0.00570275
-0.715437
0.626433
-0.0441682
-0.0269542
0.0711224
0.694337
0.0936953
-0.0128746
0.0716415
-0.0587669
0.0106959
-0.0106959
-0.7649
0.0232618
-0.0430666
0.0612846
-0.0867086
0.0867086
0.00243305
-0.000502406
0.784089
0.033174
-0.3176
-0.093675
-0.520075
-0.0480212
-0.0681083
0.0681083
-0.0102073
0.0811759
-0.0811759
0.0285822
-0.0285822
-0.356759
-0.0746414
0.23962
0.0712264
0.0584395
-0.731505
-0.0594617
0.160318
0.0203745
-0.248611
0.0811448
-0.0811448
-0.466431
-0.0494782
0.229688
-0.0101862
0.00352408
-0.653417
0.645119
0.0750166
-0.0852239
-0.0306947
-0.0414784
-0.0122548
-0.157017
0.169272
-0.148189
-0.211853
-0.0821676
0.0821676
0.0546521
-0.0546521
-0.0282582
-0.0941521
0.12241
-0.00606361
-0.189601
-6.71706e-05
-0.00452122
-0.240689
0.476993
-0.0259954
0.403683
0.00853005
0.00952053
-0.05296
0.05296
-0.724026
0.3185
-0.126434
-0.209035
-0.0221947
-0.0206404
0.0241644
0.19714
0.0400203
-0.0027556
0.00186769
0.0847042
0.029819
0.0559792
0.104338
-0.0315097
0.00693441
-0.000795222
0.00655287
0.00351613
0.00490715
-0.00842328
-0.00315885
0.00974449
0.0276447
-0.0276447
0.0510012
-0.042769
0.042769
-0.190505
0.0160734
0.0289319
-0.0771597
0.0178863
0.0773433
-0.0773433
0.254282
-0.241937
0.0937474
-0.0669812
-0.174955
-0.0154126
0.0154126
0.407163
0.251602
-0.519911
-0.0805207
-0.0387577
0.541073
-0.0367583
-0.0666228
-0.477136
0.0910914
-0.1525
0.17026
-0.01776
-0.0475243
0.0475243
0.902289
-0.589072
-0.00643038
0.00327153
-0.00606113
-0.286635
-3.1095e-05
0.004541
-0.0435265
-0.624454
0.569554
-0.647196
0.0140593
0.148543
0.0151483
0.0243778
-0.158561
-0.334602
0.257442
-0.0552657
0.0270074
0.172715
0.13412
0.156527
0.265569
-0.250421
0.0042005
-0.11392
-0.221008
0.0674977
-0.0115185
0.163513
-0.139135
-0.0684907
0.153195
-0.395657
0.125748
-0.107862
0.0601578
-0.474854
0.174801
0.17855
-0.247041
0.0069889
-0.178026
0.177995
0.0038015
0.149393
-0.0278353
0.0496871
0.458814
0.012232
0.0222431
0.000698051
0.0350526
-0.238768
-0.204195
0.588478
0.167541
0.0621463
0.0762703
-0.064112
0.100881
-0.0297586
-0.0303463
0.166666
-0.152606
0.0453656
-0.0109516
-0.10516
-0.0286324
0.0523
0.253409
-0.0212246
0.0594026
-0.309918
-0.00568781
0.218234
0.142866
0.175633
0.0556512
0.096415
0.0485199
0.527226
-0.0092185
0.10466
0.0418648
0.0665931
-0.108458
-0.268309
-0.198518
0.0235622
-0.221446
0.286356
)
;

boundaryField
{
    FrontBack
    {
        type            empty;
    }
    Top
    {
        type            calculated;
        value           uniform 0;
    }
    In
    {
        type            calculated;
        value           uniform -1;
    }
    Bottom
    {
        type            calculated;
        value           uniform 0;
    }
    Out
    {
        type            calculated;
        value           nonuniform List<scalar> 10(1.09357 1.045 1.20091 0.921288 1.1613 1.08029 1.23789 1.03685 0.610716 0.612177);
    }
    circle
    {
        type            calculated;
        value           uniform 0;
    }
}


// ************************************************************************* //
