/*--------------------------------*- C++ -*----------------------------------*\
| =========                 |                                                 |
| \\      /  F ield         | OpenFOAM: The Open Source CFD Toolbox           |
|  \\    /   O peration     | Version:  2412                                  |
|   \\  /    A nd           | Website:  www.openfoam.com                      |
|    \\/     M anipulation  |                                                 |
\*---------------------------------------------------------------------------*/
FoamFile
{
    version     2.0;
    format      ascii;
    arch        "LSB;label=32;scalar=64";
    class       surfaceScalarField;
    location    "1408";
    object      phi;
}
// * * * * * * * * * * * * * * * * * * * * * * * * * * * * * * * * * * * * * //

dimensions      [0 3 -1 0 0 0 0];

oriented        oriented;

internalField   nonuniform List<scalar> 
1171
(
-0.9278967837943946
0.92789678380287
0.7873492941506394
-1.099094397213812
0.3117451026819283
-0.1909985435179079
-0.767184182544467
0.9581827263530381
0.07210320359579693
-0.117731304931355
-0.2122566977324398
0.3299880039828165
-0.7873492843366043
0.06932286999979748
0.7180264143250509
0.810912451982693
-0.1778156514798136
-0.6330968002768897
0.8739493687550233
-1.043931264186432
0.169981895402487
-0.2851406037160427
-0.09830820420756829
0.383448807636837
-0.0365315428017523
0.5487574710069949
-0.5122259281504961
-0.5087572506567649
0.8286979321044745
-0.3199406818449984
-0.4028719051999583
1.045584436681102
-0.1716350648093405
0.393042409217822
0.05077918750497548
-0.4438215948901242
1.046051564748657
-0.0004671266083278423
0.4454135170210444
-0.0523711165267179
1.056505750729726
-0.01045418644217478
0.580462890866014
-0.7714614319795193
-0.7240320307542806
0.5566560149037839
0.1673760159703048
0.2139741348597756
-0.7227313881987089
0.5497080705992472
-0.922442860830059
0.3727347910084761
-1.094228957410096
0.6866251104905637
0.4076038468740489
-0.5955318111639187
0.5590002687665745
0.01708042941425671
-0.2555914562727007
0.2385110270147266
-0.02267643120119683
-0.5248239956285741
0.5475004289601988
0.4001322144447411
-0.4984404169209926
-0.9189252258050672
0.941700680220477
-0.02277545450074308
1.06786350305532
-0.01135775180419198
0.9349820604379745
-1.116785483975115
0.1818034236864709
1.067372517728106
0.0004909840173436899
-0.6643143974857656
-0.05971763082746831
1.262089577183486
-0.8644207163311668
-0.3976688608177792
0.1484472888055254
-0.1099787869717082
-0.3252326357443218
0.4352114223848282
-0.2855008345661912
0.192048909795122
0.09345192458471026
-0.5836130268000018
-0.5154813773543426
1.014131228405425
-0.07914916825985056
0.009868362295188511
0.8255009974859375
-0.835369359900106
0.5716843379824552
0.6904052441367413
0.4387786928781054
-0.03115032117270515
0.4312825362800195
-0.8080499480482932
-0.1025774225984996
0.9106273707848348
0.50224858610151
0.2541280422786321
-0.7563766284480943
0.005658848267016196
0.5308192255327009
-0.5364780723644453
-0.4900213754856779
-0.6042075792916041
-0.4227908154423318
-0.6939946671539085
-0.02743529303289079
0.270868012282808
-0.2434327202244352
-0.924860266298638
-0.005156741976392672
0.9300170081655135
0.3082237523406921
0.0752250589028428
0.7616169152027442
0.04929552710166952
-0.5329072273747891
-0.06262458479545631
0.04604864338684025
-0.8540985892208974
0.07699537590677395
0.8625443014479828
-0.9395396774411306
-0.3469767526598212
-0.04060377365406639
0.3875805255546064
-0.682180856679097
-0.242679406304888
-0.6340610419972426
0.7110564163795167
0.6136533520077085
0.2150445781979557
-0.5433762461051636
0.9458014693778123
-0.7789816461186228
-0.1668198234012311
0.01169792345390479
-0.004980616436327876
-0.006717306418246022
-0.4034142852478959
-0.09502613011195703
-0.241570954077855
0.8552243036643248
0.04867961721355799
0.3335536796048741
-0.3822332973828449
-0.4617021403397266
0.9639507256681308
0.6804058876416229
-0.7829833080031258
0.3184838094083013
-0.01475953419456934
-0.3037242777482542
0.930704365110248
-0.9307043651374451
-0.7816428286782221
0.1114294796384292
-0.3236861795465537
-0.7499478512498194
0.7598162152813478
-0.09114304508066687
-0.1430689073310868
0.2342119513165649
0.8648651175710057
-0.03936411612639264
1.054606083682834
-0.800478041706481
0.1867608755149254
-0.316431548291844
0.1296706733563076
0.8583668113424958
-0.09674989689308042
-0.6113346927115338
-0.03927556753717464
0.6506102601740249
0.1234475347511455
-0.2303595239310361
0.1069119899500988
0.8055283893319484
-0.9833440493448889
-0.4341228495601291
0.3290292866347002
0.1050935639450477
0.5336048410859675
-0.556281280468563
1.021981232998947
-0.4562429700431576
-0.5657382630464558
0.5991904136774423
-0.7192748211500951
0.06645105580533214
0.6528237652329564
0.1019901806868098
0.56966536285076
0.05504185872277465
-0.6247072213832076
0.1949849742460583
-0.08355549290162417
-0.4920559669867883
0.1450792138964491
0.05028046940029086
-0.8864462607172118
0.8361657914250177
-0.4740448225522822
-0.7131678933661305
0.04885349514615873
0.4368743326784628
-0.005591799979576668
0.3001084625944835
-0.8553044921103933
0.5551960295088718
0.4157606858770102
0.5842393142719599
0.5605962119342992
-0.5145475676037961
-0.3671634267247533
0.03984054626244755
0.3273228766268665
0.6812559798645116
0.2494483892312692
-0.5676292181742922
0.5732880694521244
0.1116417062759312
0.8748512518413808
0.01025960257552468
-0.6215942892308421
-0.7490717247621439
0.799352194857069
0.5303898004211385
0.07068679542592077
0.3004938635057942
-0.3711806585636036
-0.1674734758225047
0.4453185473253198
0.08550066714178774
0.8738068763526419
-0.804194860019305
-0.06961201634124721
0.6354277621203017
0.3103737103800606
-0.4308495750887164
0.574019872024485
-0.5033330705431071
0.4170424187926235
0.132665649812431
-0.04675308952213009
-0.5911121429905684
-0.139433355788278
0.7305454988640493
-0.1497105203386872
-0.7809938405447585
-0.6110461956425234
0.3601463692731032
0.250899825301366
0.6219788088473154
-0.611719205607839
0.2388449615677543
1.011678988911772
0.04292709383780779
-0.7490717243842615
0.2260745794976
-0.2143766622666592
0.6804058922022679
0.8018576751852956
-0.801857675328124
0.8375927694821815
-0.8330774358548428
-0.004515333581055886
-0.4453356233658969
0.8610963073507641
-0.1473613606752373
-0.3446946032988666
0.7347709652898169
-0.6685783861643072
-0.06619257915461316
-0.7362962799704933
0.1451841361683248
0.1391623270444692
-0.672069554003652
0.7829833133525832
-0.9504567892261824
-0.3675083333124001
0.2866124173640608
0.08089591134392356
0.1456982906994554
-1.010067614732514
0.8643693240750511
0.4807301305961779
-0.04195143779700375
-0.3080644711063418
0.5862248564238924
-0.2781603851411328
-0.7385768152110683
0.8842751083186622
-0.1570028308221254
0.7319876663103481
-0.8379229339758359
0.1059352672985137
0.9771745822046224
-0.5392859598781462
-0.437888622489548
0.7551045880060901
-0.06493827134838497
-0.03502952696612835
0.184933662088688
-0.1499041347894079
-0.7757924763399433
-0.8390684458565161
0.07188426944466589
-0.74994784878035
0.5138647792284631
-0.5544685566813282
0.09955029887240865
0.7160755994538397
-0.8156258982342867
0.7535870563264694
0.1743097267161296
0.5029307413131668
0.4970692586696933
-0.05467439006716496
-0.6108311213636055
0.6655055129220916
0.879873678313057
-0.006066805608973617
-0.7551045879840899
0.7993521904326573
0.1916720756416399
-0.4472635344667301
0.01252181584527257
0.003476890966293293
-0.01599870316120774
0.5890823299507435
-0.437381489966943
-0.1517008392673007
0.718026408880292
0.01102235304956357
-0.1070807792873121
0.438699149010115
0.1503831901967163
-0.0155448574119009
-0.007605702851213411
0.02315055970138474
-0.03164134260478367
-0.003388175648898254
0.2459405225200466
-0.2607000605630525
-0.9588605045912352
0.001611376190607253
-0.1595083141602977
-0.1215678070328115
0.09464765503007881
0.7223797710358395
0.7289348253053611
-0.1446955105411492
0.6723232092183193
-0.5727729090564544
-0.2119411344278341
0.3987020123491198
0.6956497195643172
0.02237668927486769
0.2418263482825782
-1.074903788367094
-0.9504567841631051
0.3026319560420089
0.7598162181379968
-0.2093613979138815
0.0662924849217089
-0.7239911485961888
0.9104385480169234
-0.1864473995263556
0.4157894738781862
-0.02820895391137758
0.7712275192770242
0.2807251773732812
0.3767910089919667
0.06862250635495327
-0.6587150698114763
0.6587150698028098
0.2147985825252748
0.6958287929040873
-0.05641417317144452
0.3899678619219977
0.3787972613567638
-0.01290128572985445
0.02542310477857458
0.4482912031084016
0.03243892853122278
-0.7385768131993049
0.5339661250179034
0.2008048415022424
0.2999304352207843
-0.1149967853946692
-0.6956497184804377
0.179561933787478
0.7308766141321348
-0.01025545558170177
-0.8135874970570701
0.8238429526646052
0.6964238228161633
-0.7919452987647468
0.09552147607844176
-0.753587056898503
-0.1510045493731233
0.2123025115423046
-0.06129796262042263
0.07755713983707065
-0.1781772258326248
-0.113174007620689
0.2913512354193155
-0.006090578083295076
-0.009454267698705649
0.7064211938622882
-0.716676648414356
0.8871606187062119
0.07102211236710793
-0.3139321785249959
-0.5217327036801366
0.8356648823307203
0.1038859887369852
-0.1038859852894537
0.3264529740913151
0.4742475194588457
0.6139153829697447
-1.088162902555876
-0.1940779498945382
-0.5855625856313486
0.7796405355577057
0.01345192077459312
0.2207600249737898
0.3761484275140589
-0.2527008923899577
1.016170230207169
-0.5419227119530939
0.6687769041890689
0.9929347046984962
-0.3790193224284859
0.2287870727473355
0.8842751088848435
0.7126400448969007
0.2139201275331102
0.7277805503098739
-0.7809938380070368
0.3412849208250189
-0.2831164281692865
0.2590035166106194
0.02411290744922079
0.8487465151030404
-0.001560127039626804
-0.8471863878146582
-0.7021858568090077
0.7026768395642594
0.5546643752293829
-0.7021858579821503
-0.7126400449278204
0.7026768389553624
-0.03402436382541994
0.9094370168008831
-0.02227639815101029
-0.6812559837369828
0.6122574642913671
0.06899851941891724
0.5385002247015402
0.5379642018689352
-1.076464426520364
0.4869955342855835
0.5291746958984889
0.5474949470931418
0.4573036373058388
-1.004798584378167
0.4921846174866906
0.5007500875764505
0.6122574667707217
-0.5256380573447951
-0.4664417575647595
-0.5564442344217113
-0.5136930035476035
-0.121847333176489
-0.0127369700612325
0.01273696938817866
0.5107328259634165
0.524447602905411
-1.038140606422372
0.5718637202990978
-0.2713698486110953
-0.8833995096484898
0.3441135515214346
-0.6329266841091117
0.3902472788599294
0.0008411630348558198
-0.8254141996406545
0.824573036407468
0.4208703592417638
-0.02424287547611926
0.8729893906372185
-0.9479932219222273
-0.8330541842548438
0.05510407106887422
0.7779501129738611
0.5609601091539819
-0.4393677134338049
-0.1215923954701607
0.6502739769715083
-0.7294231429892076
0.8881922463481279
-0.8272549600071953
-0.06093728661316124
-0.01451549256044707
-0.7896793690053868
-0.1110762209650117
0.7124965940153619
-0.601420373019085
-0.9406531006351232
0.9261376056967082
-0.7275156488172827
0.688903490416695
0.03861215829031591
-0.8049611172348096
0.03105041535009974
0.7739107018116158
0.06197124625483416
0.04191474266141734
0.4327741086640194
0.05980098126716791
-0.8508933738085505
0.7910923925571036
-0.6462436406345706
0.591569251380206
0.8882312271859323
0.07345545009592401
-0.9616866774304689
0.05517704310270236
-0.05023233895961031
0.3775552105221733
-0.3819883886264323
0.0655568435182103
0.8407485263240168
-0.8399073656426573
-0.7339390070330533
-0.816150064652352
0.02647069369924951
-0.1655125721569796
-0.849224693885823
0.02196972981867505
0.6215803813724049
0.05074282904568829
0.02566543815234333
0.5352946674285768
-0.8145875118406866
0.8456379248773181
0.5657382668785519
-0.8496570770669472
-0.8671976503955728
0.04223936723177487
-0.02684874947463835
0.8345861021111857
-0.8077373527118944
-0.02465165812893106
-0.7607877574695087
0.5442877639832802
0.1521360641513513
-0.01999858644322091
0.8929879764412979
0.9812416761898779
0.8622511293792441
-0.840281401403861
0.1479573183848529
-0.1479573180854667
-0.1175821423702823
-0.466965115203722
0.02759740251187718
0.2705915883506016
0.03204036741700202
0.3878133646457964
0.8683363170884755
0.009502510162397738
-0.01559309140560806
0.6585829940392719
0.3414170059627679
0.7836559051272426
-0.5836130291252569
-0.778101353455274
-0.8092974814037511
-0.6799013803388586
0.6799013803125984
-0.1682304608893767
-0.1554557120579687
0.6023439067715587
-0.81149415556871
0.2091502487651747
-0.494090512793849
-0.5688701184243219
0.2779742738675429
-0.9719689428712568
-0.8992205583751668
0.8382832694471442
-0.8147536769174711
0.8412243682916162
0.6485713734778374
0.134211906688672
-0.7827832801269089
-0.7706853234699617
-0.146472364527783
0.725042931696505
-0.57857056704453
0.03088424401853704
-0.0116298949914754
0.01574962285673181
-0.004119728289041537
-0.352886397478634
-0.1140787235002829
0.8803181887397324
0.7456359205007992
-0.2431938215422857
-0.5024420980184164
0.6240435262342678
0.6857894602704546
-0.4709908794030892
0.0001167939407022917
-0.2856176285236514
0.01204668872341339
0.7512691014803976
-0.7633157905438281
-0.3233975607303091
-0.07295556744690648
0.07648329284327128
-0.9671154129690709
0.1199290245029773
-0.6772822394708138
0.05391787701733829
0.639633395974961
-0.6935512729357002
-0.7560249380656919
0.07874269855315943
0.5888274042863455
-0.6617829717930279
0.1573349850253264
-0.3355122109562401
-0.7714870634878985
0.0008017401371540424
0.3710749320380956
0.5996957777013648
-0.02567590415322576
0.01890714170055847
-0.018907142849176
-0.02034265936147118
-0.04925541374006945
-0.2338609936542799
0.02762189400665935
-0.01811938559160047
-0.7207442373529104
0.279302528550609
0.679652653453199
-0.6889289153032455
0.009276261680496429
-0.5939578901695379
0.6478757649758655
0.6544063684608213
-0.06557895816562904
-0.6305903118808951
-0.1254346270436575
-1.050534746586963
0.01110295192407451
0.1368543642221772
-0.7086975522299899
-0.7416665387680877
-0.7637977750244676
0.3661289187911231
-0.4056340759668401
0.4606541606537504
-0.05502008596172515
-0.6634488962179869
-0.04524865605136697
0.5008543560697544
0.7306861874329149
-0.2360153504508167
0.1144475448249362
0.9663136752333372
0.4468159649385061
0.1323483203334272
-0.5791642851652915
-0.6765219364627437
0.0130730413399876
-0.04458434842310195
0.03295446257647827
0.6366631446149139
-0.7760965011493405
-0.001997993463459925
0.001997992891858399
-0.6008309994500804
0.6495288089420511
-0.04869780911877149
-0.6508564985769889
-0.1135237930477811
-0.6715989550265404
0.06084588049132
0.6046596304766537
-0.1375526303157543
-0.8180713235004827
-0.5734663739463993
0.5700349212504249
0.00343145490223713
0.6282630036969321
-0.6189867437599861
0.3225529652884483
0.2136642516268162
-0.5362172169496918
-0.1050033921617124
-0.6016051575380358
-0.09194611680417908
-0.1540150233323421
-0.5126204797747684
0.4042139151644056
-0.4992400454867391
0.1265676880122441
0.6786352341287315
-0.8052029223210635
0.5991904136764064
-0.3695813498275177
-0.03605270514632761
0.07376971891307463
-0.5863901908206473
0.5513594134771476
-0.04056475025001102
-0.5107946632541089
-0.3132160591845713
0.3058280670827942
0.007387992291290085
0.4527409971759291
0.1191227217765176
0.0528012065769014
-0.3166223141737571
0.1576404365040086
0.1589818776647693
0.2365736048394333
-0.01049901518851218
-0.2937421689496449
-0.3103433107981913
0.3494549472065451
-0.03911163483534103
0.7887059273661285
-0.6263097812732115
-0.02454671653886154
0.4992826375111558
0.2845801074418681
-0.5277739257801061
0.5774740024160625
-0.5774740024183732
-0.2897563000281512
-0.5864687840534595
-0.2955750855988789
-0.5864687845173449
-0.5955577572219244
-0.8384862715109659
0.1699078904050237
-0.5987123807863594
0.8211327306624353
-0.003109129777667523
0.1175122278685025
0.4821835503886467
0.09679286263986883
0.1860925042618876
-0.036453864813569
-0.1496386414525532
-0.02867746043624636
0.5906492554539924
-0.9432882552311279
0.4215555500826099
-0.008574144111308279
0.003281683320351346
0.005292458514691609
-0.6441495345190457
-0.1320038923590205
-0.4681271529105022
0.6004754787373033
-0.5034807471614939
-0.3239498703735242
-0.2624403173299015
-0.2716839052617722
-0.111427176724887
0.1114271774508287
0.1532680555242946
0.05903446028751982
0.1971954484459419
0.4501551479880779
-0.570253228189305
0.1021260821797759
0.2504293819961639
0.4665109442721471
0.5334890550655269
0.6443704601368645
0.08690117817750953
-0.00289835683065159
-0.08400282923443483
-0.2771402739408811
-0.5409310493204726
-0.54934166259795
0.1149072351116448
-0.1267271743009823
0.01181993893157208
-0.1054493970766268
-0.3852593480534525
-0.05041256794021935
0.6550721998685608
-0.4992911278878608
-0.144858406710798
-0.3289305108700812
0.2870291453317613
0.1291251237395259
-0.6180215614413926
-0.2046843318899365
-0.2631461524302093
0.002446088971553535
-0.4214236208095504
0.3236616209862881
0.09776199915657842
-0.09446839102250337
0.2917417081480576
-0.8959492887245365
-0.4573312004312208
0.6263947362664936
-0.7732828878733301
0.6682794956987528
0.3397355249447352
-0.1242269792830956
0.2236871396434389
-0.09946015960122925
0.02888901524662988
-0.5862458180585369
0.02871860977680363
0.557527208581257
-0.9005940693373321
0.5479658994627201
-0.6655480420361246
-0.1050049889935545
0.1098074325835706
-0.1098074300585931
-0.3165055183573144
0.3585397588327398
0.01901545315420068
0.02672373299043397
0.06017744938830452
0.5047138964701512
0.6666073564788217
-0.7362193746870715
0.03020065519895346
0.02014843009905835
-0.001241277720888214
-0.00690387680689201
0.006903876915552936
-0.4119408953477956
0.5310636154328645
0.01582179522716346
-0.01582179536888926
-0.7926216549008673
-0.06097175504673606
0.1229429886097607
-0.4554093675649762
0.5575354482019523
0.4517161608739465
-0.5004139644764507
0.1503399451316578
-0.1503399454233595
0.0355083917617431
-0.01008527173081354
-0.04238611450990585
-0.9751748713151136
0.53728625069333
-0.4669609790331843
0.04191474485474415
0.5151858545385464
0.03059169689149282
-0.5457775511329175
-0.616540863075589
0.1172497334805371
-0.3289807262106307
0.01356599574977855
0.3154147304378991
-0.155714138126521
-0.08030121517191141
-0.5410534662656257
-0.04519234751019662
0.1368543618398614
-0.04017522358595202
0.03817722519506929
0.08063939175555332
-0.0806393957613883
-0.5258094075691346
0.486697772125291
-0.4149556396743221
0.161305697782995
0.6223502072886009
-0.09698072831430646
-0.003157549307061803
0.00315754975334564
0.5329620031611033
-0.08272689576916457
0.005921443076530812
0.02704692956986769
0.03501086712993796
0.6865007677829222
-0.7692276632774042
-0.6552837422843707
0.6307370209317866
-0.1084212108791519
0.3140700208878475
0.7455822890247387
-0.02034266111606699
-0.265457004338879
0.1504602275454815
-0.7445889746978762
0.483790439488121
-0.4279528963185069
-0.101354998125935
0.003234301300052177
-0.01437642416516671
0.02472352793613545
0.4112361911463757
-0.1215253910361999
-0.3892692723757983
0.6289153774390677
0.01964084472365661
0.009284775332851642
-0.009284776021493676
-0.3505658998742895
-0.07565426038445139
-0.5602209546196806
0.5571118251304955
-0.2374009907911551
0.4646994713009196
-0.150895050539567
0.7313579463479368
0.6693919509825871
-0.04017522946270195
-0.6178341565568801
0.562311171520105
0.2835693656093743
-0.2784447265118304
-0.005124640395764609
0.5362686237279036
0.09343259377095973
-0.03894986966289606
0.1958858871659311
-0.1569360181639732
0.1195892576034358
-0.1195892599144641
-0.8586264180185331
0.002382619392688294
-0.1136399550836409
0.1406868857708021
-0.13145300477532
0.1314530055146473
0.02014844329626886
-0.02350020200413972
0.6699254667867729
0.06095114897785271
-0.32254550687806
-0.06271384233853114
-0.4712647114981092
-0.04536113714713527
-0.1511854620423191
0.1511854625557001
-0.04849444607417439
0.1437612776819372
-0.1437612784483592
0.1360797739828377
-0.1360797749750182
-0.3162296846073399
-0.1146198906170051
0.2258921635874294
0.1031371212528527
0.03478346423948957
-0.8212131432055279
-0.1985243844632132
0.1698409730013754
0.02183110202971301
-0.2640886435887748
0.1262813842883817
-0.1262813849936116
-0.4143471286502347
-0.08489291563865636
0.2356092610881201
0.002901761868158584
0.04046416094397287
-0.5445332375846288
0.578557601411086
-0.03701174790377845
-0.01148270323537129
-0.02483579972656583
0.01475052360774481
0.006578663659665219
-0.1848812644810424
0.1783026004555256
-0.1084670296674846
-0.2270451777173086
-0.1442977133275781
0.144297714059646
0.07237877489075666
-0.07237877430793699
-0.01891004916481378
-0.1085246423699842
0.1274346916067668
0.2346580264763256
-0.1835453815903847
-0.02608091847926084
0.02483964317908479
-0.1298230404141439
0.61652081380492
-0.03904839157739117
0.427712410955807
-0.04282093489840225
0.0659714962771156
-0.1529097358251172
0.1529097358877675
-0.6368294246041729
0.3079909178703644
-0.07920384648414604
-0.2339874206950652
0.003627896103729627
-0.1207830594249719
0.1612472192919072
0.1955993690371998
0.09575187089864184
0.09665590308863187
-0.0616450349887523
0.0732400777739963
0.041667153262903
0.06421809775837478
0.1056228753563974
-0.1000611803011209
0.2145087178956027
0.01128275459370706
-0.1181805733666764
-0.09996429647387822
0.09592212255049581
0.004042173621619333
0.01086366395007008
-0.02318009150879741
0.03732224811748945
-0.03732224797807575
0.07510282439867381
-0.05541217209738555
0.0554121719856568
-0.2243479486441266
-0.05220906914137378
0.01174966549063539
-0.1030885555206639
0.01649051661575822
0.1088992522989527
-0.1088992526593808
0.2933613661831802
-0.2707651886650509
0.162298161984522
-0.05093643619546229
-0.2198287515637871
-0.01679389223752675
0.01679389205206751
0.3676613125650592
0.2851624547929091
-0.5281708191023186
-0.09392703691550203
-0.03280014141715223
0.5289670160171637
0.2098222139451344
-0.1697051387030258
-0.3797910611612377
0.07654375599157801
-0.1471059129952992
0.1866854126864582
-0.03957949940140406
-0.06723211567117968
0.06723211524957322
0.8221260449979507
-0.5603461310230569
-0.005452751505230575
0.01631641213672357
-0.02002584624416896
-0.2874596060689891
-0.0174799023804911
-0.0128447027419448
-0.1322319023844029
-0.5723458788400162
0.5561576272676616
-0.5689706630461966
-0.006887758543592737
0.1000615142111515
-0.001724266984375306
0.0168299620237076
-0.1671317670953968
-0.336031962737169
0.2329434070325535
-0.05396658033968692
0.03505653196391362
0.1321903126514939
0.1736377583299292
0.3424522277247132
0.2757685659873994
-0.2774928332224331
-0.06178706483476976
-0.1552692929784913
-0.2204214248278074
0.07449491848326185
-0.01027681880420417
0.2133946857776399
-0.1965647235319616
-0.08626657319821801
0.1595066540327028
-0.3553064042065887
0.2078724473696269
-0.1913819303043167
0.08960209304453019
-0.4788713610906202
0.1738407098501505
0.1708371798482136
-0.2571037570006336
0.07347581015583395
-0.1949731718306587
0.1774932691472627
0.01738212479871232
0.142124529707111
-0.03959038809382177
0.06560569173749603
0.4673563110215085
0.02052834522894914
-0.086267152254283
0.05398200051191936
0.1263104576858148
-0.260000927306396
-0.2309383987900332
0.5597399122164893
0.1568638033947338
0.07874545956537304
0.07452874412203579
-0.03104657415720641
-0.00654948645259204
0.001424840311389891
-0.03261568532611324
0.1705808508227801
-0.1774686092117932
-0.06154362247637933
0.01938689271326707
-0.1472560248408178
-0.05284864489826355
0.1529651003802426
0.2770356488199326
-0.04005553560712771
0.008201023569599638
-0.2552541256438293
-0.1325102750844375
0.2363940262104864
0.1783477157972968
0.1296431990184776
0.02201275132529164
0.0883863056065342
0.05242676775006865
0.4522871286314042
0.01532490616575264
0.09812187340680087
0.042892502207629
0.07239052915636043
-0.1152830314650134
-0.243008363149806
-0.2003604715366607
-0.01946828298832935
-0.2018357094592342
0.2747224069554409
)
;

boundaryField
{
    FrontBack
    {
        type            empty;
    }
    Top
    {
        type            calculated;
        value           uniform 0;
    }
    In
    {
        type            calculated;
        value           uniform -1;
    }
    Bottom
    {
        type            calculated;
        value           uniform 0;
    }
    Out
    {
        type            calculated;
        value           nonuniform List<scalar> 10(1.034490481313071 1.06413828143476 1.022885991983828 1.021359313603771 0.9952678380286045 1.014443090913037 1.035180429608267 1.062960631153867 0.8672303030262215 0.8820438696926547);
    }
    circle
    {
        type            calculated;
        value           uniform 0;
    }
}


// ************************************************************************* //
