/*--------------------------------*- C++ -*----------------------------------*\
| =========                 |                                                 |
| \\      /  F ield         | OpenFOAM: The Open Source CFD Toolbox           |
|  \\    /   O peration     | Version:  2412                                  |
|   \\  /    A nd           | Website:  www.openfoam.com                      |
|    \\/     M anipulation  |                                                 |
\*---------------------------------------------------------------------------*/
FoamFile
{
    version     2.0;
    format      ascii;
    arch        "LSB;label=32;scalar=64";
    class       volVectorField;
    location    "1084";
    object      U;
}
// * * * * * * * * * * * * * * * * * * * * * * * * * * * * * * * * * * * * * //

dimensions      [0 1 -1 0 0 0 0];

internalField   nonuniform List<vector> 
808
(
(0.7562561570328361 -0.01751309537401136 0)
(1.031211797145131 -0.01249803741400475 0)
(1.116535979661769 -0.0005197097719625567 -1.812621787502903e-20)
(1.085125679941392 0.01258776951779575 0)
(1.36222134751732 0.01597601760017239 -3.899337977367569e-19)
(1.038642924587041 -0.009344590447880352 -7.147371742395504e-20)
(1.013638389964012 -0.02034233443349515 -2.318475175769339e-20)
(1.078528370051091 -0.004811303852847079 8.921871149973742e-21)
(1.252723011384416 -0.01957720966583075 6.352621284864562e-20)
(1.084407140009614 0.009436720947233647 0)
(1.013279414309059 -0.01124585605375387 0)
(1.304453064838454 -0.05227436248683143 -3.546899631335141e-19)
(1.085960983256798 -0.001561014601628756 2.028065512499119e-20)
(0.6750341236507074 0.006419825780158607 0)
(1.285136091549721 -0.1194198733887716 0)
(1.081677873762223 0.0001565260398825137 -3.801450312740117e-20)
(1.233575773719552 -0.1516114059425942 -1.004129648483323e-19)
(1.074249946938328 -4.202421505074249e-05 3.150143618075836e-20)
(0.9924720143163038 0.006641050791574459 0)
(1.026727685619216 0.009105621132286341 0)
(1.041184185271851 -0.01352169299584864 0)
(0.987480649682688 0.04476974837132606 0)
(1.051080883066342 -0.006143006308405263 5.550551451336235e-20)
(1.05341871288563 0.008498685552080209 0)
(0.9332179402438829 0.1986628252583142 4.601461452423495e-19)
(1.165515830907179 -0.08986624911470506 0)
(1.184681378299803 -0.01849635605536613 1.582253674752584e-19)
(1.077307256442028 0.00942281495145208 5.198301070040326e-20)
(1.084224650723839 0.001957992653270377 5.051116939523746e-21)
(1.072069532834642 0.03096783964125914 0)
(1.075643381939221 0.0025090019772238 -1.173197404591254e-20)
(1.033212741077485 0.006303953674969833 -1.951837238082799e-19)
(1.059843708596846 0.01483711573468193 -2.401728690044446e-20)
(1.089039448624435 0.005182110735153496 -2.92564744521065e-20)
(1.119565149038534 0.03743656854903642 0)
(0.7550962617346446 -0.1216859047644368 -4.539183674276331e-19)
(0.9543760068497791 -0.005773829055648136 0)
(1.069004696671189 0.02249024994095584 0)
(1.068844679700883 0.007310430171496209 0)
(1.073605943868658 0.008832178487798917 -2.834311328583674e-20)
(1.092067486287896 0.02314962083068361 1.109981118140681e-19)
(1.149647312979569 0.003242114619628556 2.175133721524162e-19)
(1.095673178082188 -0.002481166086449182 0)
(1.01589524985634 -0.00914746926565683 0)
(1.130278921994498 -0.09872751188881558 -1.659901873136139e-19)
(1.04407781070782 -0.0117338056293503 -7.975457466427939e-20)
(1.058433886859027 0.02667338554051894 -2.845375357434787e-20)
(1.230113396100373 -0.1114058828338449 -5.627992561019049e-20)
(1.067770269078384 0.01228271245740453 -4.251015206736101e-20)
(1.255690163039332 0.01781769355711552 0)
(0.9967512139605377 -0.01800943275724313 2.057621503417719e-21)
(1.044531135536406 -0.002311226551640623 0)
(1.087412692236912 -0.002352221224842466 0)
(0.9978010162456167 0.006973728968596962 -1.882350290785002e-20)
(1.252138595651744 0.0342286375475186 -2.32737642153937e-19)
(1.063863879789569 0.01842515859654667 6.13245380647698e-20)
(0.9891054637039336 0.008623869713530881 0)
(1.018331023649873 -0.01117316490094308 2.413166562029765e-20)
(1.106722213330972 -0.0008254637040596259 -1.194453400486114e-19)
(1.061742732632143 0.03113904752542265 0)
(-0.06483537126029869 -0.01671868846642828 7.059145329817891e-20)
(1.15416419719421 -0.05149624947553717 -1.909831608228008e-19)
(1.003173324699368 -0.008781013914329209 -2.652528797643665e-20)
(1.183233033204993 0.06672611799311995 -1.22289153430802e-19)
(0.9981161668025185 -0.01044464497432631 2.981891285680484e-20)
(1.083878237389836 -0.005552447982989475 0)
(1.242746050830168 0.09645282548146497 0)
(0.6960162799028823 0.003194796796382725 -7.503804475105807e-20)
(0.9900752638245942 -0.01507782496541321 -3.106166118106595e-20)
(1.458972017059928 -0.0169254010170561 4.490557001947715e-19)
(1.060642971001298 0.007554984646438472 -6.801186954022654e-20)
(1.365984972373614 0.09848461246172956 2.921359027214793e-19)
(1.054750474373524 0.006784823507314338 -1.834105160538888e-22)
(1.081208394691546 -0.01407989231568345 -5.251988958790874e-22)
(1.163864999700953 -0.2353052397657265 0)
(1.022449232328918 -0.01435136125907778 0)
(1.017841525481969 0.01755210144230073 -3.132088705534722e-20)
(1.38749344999919 0.3499662134725076 4.167257813157611e-19)
(1.096991729427086 -0.04200618821275878 9.288031213687487e-20)
(1.045998525351758 0.2103528324011359 2.518676579098508e-19)
(1.124936287288848 -0.06301911272616963 1.153957498916835e-19)
(0.9221412542273287 0.005167089389938003 0)
(0.9755316665940384 0.01858412462677796 0)
(1.00407998725627 -0.04881014146873391 2.752125393861625e-21)
(1.010918148531164 -0.01312193622537444 7.377112171985595e-21)
(1.03078312636862 0.02568654437759944 1.399534268064175e-20)
(1.528155862083491 0.03729595598581382 3.275430570585293e-19)
(1.290606028690206 0.07174625812770359 5.492269697125423e-19)
(1.072623208783733 0.002888043739807169 -9.212127989237014e-20)
(1.199545677908381 -0.09715010792163188 0)
(1.033840944682179 0.001539586178621896 1.341833089765826e-19)
(1.163374638791642 0.02176351963050669 -3.216041144277889e-19)
(1.001472987494552 0.03236175007067351 0)
(0.9996292376071336 0.0019979769870563 0)
(1.044309535406553 -0.0003107137501777798 7.717193188146524e-20)
(1.208755478424236 0.1043471432869037 4.038680406531061e-19)
(1.011084893385185 0.006954672520320481 0)
(1.089413121713572 -0.0718017276314012 -1.05561353770679e-19)
(1.14907073055451 0.03649783965528145 0)
(1.208899383021335 0.09321893655956384 -1.910204149608964e-19)
(1.108053076201837 -0.02853940567042303 -7.612834215393203e-20)
(1.027851636336987 0.01153760153073256 0)
(1.085413711408778 -0.004682845198273323 0)
(1.019945096129735 0.02551802976977234 8.136913985354752e-20)
(1.074134364473523 0.05323827816563508 -9.182328174170697e-21)
(1.103697696173307 -0.004349894463970055 6.232875873945991e-20)
(1.107313073621885 -0.09741059788341404 1.545100287150911e-19)
(0.9592520949294144 -0.002320709040373925 0)
(1.066560516589763 0.03135910402879576 3.856984562351731e-20)
(1.168092354375632 -0.07585202320095931 2.333941789241704e-19)
(1.053369502276761 0.04462716686935943 -2.91779186615271e-20)
(1.022684610986578 0.06755441220450784 3.735036318452853e-20)
(1.090715238259373 0.02622423711693282 0)
(1.011902089888649 0.01669964729534364 0)
(1.028976065240597 0.009439917604327667 7.924263946399611e-20)
(0.9487073596263855 -0.03301222432733936 0)
(1.053282404775555 -0.005676677839149512 -7.881284888075831e-21)
(1.340235953756896 0.06005193493953384 -1.590208014691104e-19)
(1.07992512739155 -0.01333511318818526 2.566797979678619e-20)
(0.7441474484311046 -0.001788482465796743 0)
(0.5295323536800643 0.152696791195007 -8.330325549672121e-20)
(0.7058636533904686 -0.002532727739806143 0)
(0.6991333353117748 0.01467223243002228 0)
(1.077773992915407 0.003488121183465853 -6.764953219063359e-22)
(0.9906324397454124 0.01447206975271959 0)
(1.279851480548355 0.1231641978672613 2.485060109753744e-19)
(1.012304016730202 -0.02791716404360612 -7.842199566577125e-21)
(1.039577834541052 0.0214085143344566 1.480362625862881e-21)
(1.058406930248939 -0.0120600208155335 0)
(1.126428657782429 -0.009243948938401315 -4.968087325997648e-20)
(1.255211357330102 0.1325719306181881 -2.176629796515155e-19)
(1.088925516657049 -0.01113759722752766 -8.457592993193954e-20)
(1.070130778880659 0.02530706727500344 -1.10030210252023e-19)
(1.04087716115555 0.04672522131805112 6.924566535414894e-20)
(1.022304184997336 -0.003607361219223604 -3.43787487989036e-20)
(1.061388372294937 0.02356892123548252 6.070550080066993e-21)
(1.132112011585552 -0.005499534015620512 1.082263291594331e-20)
(1.041270874178243 -0.01356438699327023 -4.697602123616468e-22)
(1.087801208496153 0.03483579037252081 0)
(1.028583110975454 0.01325565854432907 0)
(0.7808429820104481 -0.06200602319885848 -1.84555168791528e-19)
(1.030194408843103 -0.002005381891248726 -6.886201160473859e-20)
(1.136396620176428 -0.001258151693458055 -1.32094452239954e-20)
(0.7035306172904828 0.006560936796434371 7.416737202497142e-20)
(1.175883311593618 0.01994932809796212 -1.915411820895961e-19)
(1.12603652723267 -0.00298638475235042 5.762865882479704e-21)
(1.129019989377245 -0.01008066435741262 3.466683858636484e-20)
(1.000940992571475 -0.002969067406171164 -7.498358179282727e-20)
(1.094430707989552 -0.06589699929102651 0)
(0.9849433973455991 -0.001336180486821265 0)
(1.058019808253915 0.007079156336257988 0)
(1.00573151795549 0.1888388894142344 -2.457187794636132e-19)
(0.7795018994178621 0.0124105520725988 0)
(0.8569026832106317 0.1021110295169969 -8.412304879622905e-20)
(0.09037778469454683 0.04174297512269878 -3.074582988173313e-19)
(1.17354192091868 -0.03095284619424701 -2.229261740660794e-20)
(0.6712925586627835 -0.007344298846402 2.433984644234191e-20)
(1.167328112258116 -0.1062561928227985 6.983918400412958e-20)
(1.126546422730991 -0.004583395387633186 -6.165193659251004e-21)
(1.155861032654459 -0.04974852366006584 2.166306391217146e-20)
(0.09274631651591712 -0.2008959246042933 0)
(0.2679661205494514 0.08383871264169182 0)
(1.251939876569626 0.1108875873105315 1.911945458412039e-19)
(1.02160078674078 0.01985397289945184 0)
(0.7376297428765078 -0.006336474598066336 0)
(1.075113020655617 -0.01191250590546552 2.685880614584871e-20)
(0.9752145589696155 0.002804666873317891 0)
(1.285867741323281 0.1284646239610567 -1.515955358582927e-19)
(1.057458843537755 0.01124832876347055 0)
(0.9929649332966038 -0.008240774349350093 0)
(1.065226346769981 0.008044159531314826 0)
(1.006194602917587 0.02083585070916558 1.818906654150488e-20)
(0.9239940065849581 0.007173187096241858 1.133790518373231e-20)
(1.176173230957549 -0.19910540846717 0)
(1.00507084455013 -0.005223062618443297 7.757866863014294e-20)
(1.059193503972713 0.006211932869108623 0)
(0.7746023598728599 -0.003339889905533161 0)
(1.215423097741355 0.02829295290839668 1.663177374921747e-20)
(0.7050867058232011 0.001318750895432478 0)
(1.433733202745001 0.08949164071982196 -5.310222515366632e-20)
(0.9936186911572424 -0.006692244240800766 1.674440390466168e-20)
(1.275449356815226 -0.001789127142937896 -2.93185198932773e-19)
(1.059944060269174 0.00874446169497042 1.386186636183675e-19)
(1.000898556333063 -0.01361001417503466 0)
(1.218010605330476 -0.1537814914109429 2.032911564446381e-19)
(0.7331813541144337 0.01379259751279509 0)
(1.098083194044695 -0.005147762064418786 0)
(1.151912532886328 0.06563436355353201 2.009473425240883e-20)
(1.006826279109099 -0.007338610002987368 -3.013723741504707e-20)
(1.120287165776616 0.05022493441087225 -1.74908153371944e-19)
(0.1379308563033187 -0.08386583589316844 0)
(1.072824376624622 0.03694105500513604 0)
(0.6615411874921817 -0.002914986673160081 -6.731825492148395e-22)
(1.012100369525519 -0.01960908678732195 9.628646819755804e-20)
(1.061768165886188 0.000668100810865737 0)
(1.085560572917115 -0.1303947176463351 3.762236834169774e-19)
(1.002565793426069 -0.006203589051937383 -3.474488606944097e-21)
(1.001837180066277 -0.004824358507454465 1.100543780044917e-21)
(1.093976286698195 -0.009275108871621682 0)
(1.020736589106602 0.020333208754296 -6.306551471304465e-20)
(1.106756435258303 -0.001670666424072913 6.636958338785228e-22)
(1.073788268277582 -0.01103579473941673 6.526125066795101e-20)
(1.085779481201095 0.02237962276947692 0)
(1.328388478386803 0.165319111838818 0)
(1.00203186144138 0.0002398806598255775 4.415050124197708e-20)
(1.323832966138251 -0.1268983131210342 1.546904650995786e-19)
(0.04170227036026295 -0.1614177349441542 -2.529466284269318e-19)
(1.07132396104242 -0.00557748644341022 0)
(1.117602642655701 0.002041705087316965 1.231562906613821e-20)
(0.726974986304205 0.01787627874111269 0)
(1.062267525724735 0.002303554595197105 0)
(0.8698163971314568 0.1666010513287327 4.774592844533197e-19)
(1.270080275873898 0.1238137275620571 1.833949448879558e-19)
(0.6542026884484069 -0.003114169918525569 -6.279654219367692e-20)
(1.042462222226688 -0.005334275516955651 -4.651679242997406e-21)
(1.054917534154577 -0.0002829064029824266 6.634972546533977e-20)
(1.36025987830962 0.1248437028926592 6.779898746762348e-19)
(1.336201341181446 0.2530002294067421 0)
(1.058800702429859 0.00229578437517478 0)
(0.9959075538407184 -0.007228411450935092 1.500815938837219e-20)
(0.9946182135162365 -0.01112871251320338 3.189426989235422e-21)
(1.384150408584626 0.200556859667319 4.255822692529e-19)
(0.6816584671257738 0.0006413634010014322 9.819373556974847e-20)
(1.005616246998174 -0.002025516561071564 -5.956049870709853e-20)
(1.098007568517161 0.01302604492789764 2.538667401923577e-20)
(0.669470002014268 0.005012787411147716 0)
(1.066085119252498 -0.01202406973509391 0)
(0.989788367448067 0.1315655336008573 -1.202448588819738e-19)
(1.083526752536437 -0.001844594905016446 -2.447656530570599e-20)
(0.9820446789300655 -3.649768056948477e-05 3.280056262101051e-20)
(0.9912102725192244 0.00601780572547724 0)
(0.6382957793006226 -0.00114737136009929 0)
(0.9768947132302047 -0.00125015326696303 0)
(0.6420341561741157 -0.001495135648697383 2.726039163219082e-21)
(1.088950693410707 -0.05767703400403745 1.200903567845239e-19)
(1.111991097702619 -0.0007773582257553481 1.243751990073095e-21)
(0.9580371487775163 -0.0009250338122671731 3.916141989221806e-20)
(1.015672989895593 0.0106220809836666 1.662227027932541e-20)
(1.064547563318432 0.006124107264819471 -2.21581955783445e-21)
(0.6347676938306078 0.008849479886256742 -3.649234179913681e-20)
(1.00161898406657 0.01138123075101762 -8.592108728739467e-22)
(1.035263173922488 0.0121534799439018 5.012394516467789e-21)
(0.9881960761964572 -0.009420356477790175 0)
(0.6100714355551845 -0.0004879803028423446 0)
(1.068698677459493 0.02276335759902934 0)
(1.016229765747271 -0.01548590353847484 1.060666252340323e-20)
(1.022082609088671 -0.003692734485883072 0)
(0.9917381614139313 0.01510496394364549 -9.317316839795498e-21)
(1.012289640486428 0.00531291990974243 0)
(1.127587598005129 -0.006099809773033339 -1.232994881238031e-20)
(0.03666028804629769 -0.1389368810961733 -4.557927939420656e-20)
(1.036480562823433 -0.01575519455693005 -7.643603187593049e-22)
(1.044838256170468 0.00727576072035046 0)
(1.085830961606596 0.06459823371208359 8.411338345223798e-20)
(0.9698195642261421 -0.001487178847694631 3.11851014759896e-20)
(1.020667541384456 0.01713966995193493 -2.3661752774958e-20)
(1.003993901750965 0.001843656053710021 2.477266521585013e-20)
(1.040974314822779 -0.004685369811637219 0)
(0.6409583006613064 -0.004001628206809486 0)
(1.025901692040319 0.02450131993246794 -7.366701343424711e-20)
(1.078936520434008 0.003121461412724328 4.812872652663612e-20)
(1.014962643967268 0.002159098243701634 0)
(0.9806698137867582 -0.002882273588314 -1.918801620248537e-21)
(0.874886438847011 0.02528204930552239 -1.362060104026541e-20)
(1.01398319067632 0.002984917269103945 -1.022225562842216e-20)
(1.027647840809877 0.0009360776203759277 1.773738288807804e-20)
(0.9790386372179661 0.0008456206040787695 0)
(1.003448461205151 0.00889934585974061 3.482710175517809e-20)
(1.106244520412935 -0.004524804023440943 0)
(0.9269676625642951 -0.0005838512483225969 -3.415996499336893e-20)
(0.9605142574440405 0.008785077112271465 0)
(0.9140691194430234 0.2108371112889265 5.190707835310571e-20)
(1.010913748440079 0.06709906361176812 0)
(0.9923461271895556 0.003650879308881192 -2.305766328386344e-20)
(1.053462426807914 -0.05313051442918124 -2.772628450355487e-20)
(0.9912367986950006 -0.001091485589128356 3.426676107007858e-20)
(1.01151214130065 0.002257771508468157 0)
(0.9788359365861327 -0.0008394919114754196 -3.19897655246383e-20)
(1.170417142280153 0.09665175818372489 -3.327460046195688e-19)
(1.068732004017045 -0.2639250816127288 0)
(0.9940537390041984 0.002113843118657776 -2.193299754391536e-20)
(0.9823654038435869 0.00880894998866625 5.007097964473261e-21)
(0.960530458320645 0.003326447171239312 1.050040701164178e-21)
(0.7459827289388214 -0.001091687111201258 0)
(1.115175583168778 -0.07982234859298695 0)
(1.007829991866636 0.002645255739006457 -2.142816735656728e-20)
(0.8975802417772182 -0.0006454464191768219 -1.018555660727619e-20)
(0.854290168236489 0.01874448381180874 5.269712620454025e-21)
(1.011246864037852 0.005260414491253857 0)
(0.9497263151453473 0.00269175935811558 1.558988775496958e-20)
(1.005785906704269 -0.0002468334151769437 -2.307989405264895e-20)
(1.021219316356468 0.001963260960945885 -2.562693234487617e-20)
(1.111598865273151 -0.00455493572601081 -4.916888815966889e-21)
(1.11622097103762 -0.001425100509607468 0)
(1.01322961045559 -0.002394070056834365 0)
(1.023551765144881 0.002761041547829994 0)
(0.9489624875228103 0.005974826502967228 -2.185830704942235e-20)
(1.017879571563804 0.01331775418413178 5.366621677289587e-20)
(1.079256760530675 0.006907298280276651 -2.219993758310938e-20)
(1.037860366637873 0.004016912984778753 0)
(1.10605599774676 -0.006808724868541622 1.819211050262587e-21)
(0.996324939241262 0.002143697525469191 -2.203655549481446e-20)
(0.9845835102757174 0.006122110150839708 0)
(1.011958886909323 0.002388594859183206 4.671012096215583e-20)
(1.365331756376414 -0.3139604572569242 -1.130343257374833e-18)
(1.12250918311216 -0.04515319360730728 -1.08670643455529e-19)
(0.9713547280873769 0.005882318021359257 4.887033611774652e-20)
(0.7826911371322666 0.02186514247711061 -3.220250058501888e-20)
(1.22022808091759 0.05186821420728284 0)
(1.220294240277736 -0.1376038826559361 -1.466992417704844e-19)
(1.079590412834063 0.006592373691229667 0)
(1.009256338325452 0.001763855800790311 2.217140723737985e-20)
(-0.1631329852100171 -0.08776077302271205 0)
(0.9939699371874114 -0.004659605880258396 0)
(1.012420997444002 -0.02315870839619047 4.4535143289862e-20)
(0.7061063636010863 -0.01942885980626862 0)
(1.096802048135064 -0.01497137019924978 2.191805331833307e-21)
(1.04284138611282 -0.007501962269985196 1.607389772715579e-20)
(0.6331072218288751 0.00417225493568004 0)
(1.447243039929471 -0.1222764740590445 0)
(0.9868600525878959 0.001681475565281868 -1.087279743910464e-20)
(1.06970669207929 -0.01494095308888314 0)
(1.038099206261552 0.0004833981372688715 2.163868462508287e-20)
(1.086086431084208 0.001650036513974516 0)
(1.008521716231946 0.003303397185971264 -1.099300826283539e-21)
(1.006125176640603 0.003001675329221676 0)
(1.014554301992381 -0.01411820076995755 5.471414346381854e-22)
(1.003141339717208 -0.02043940185961469 0)
(1.033475919334543 0.005513243721266489 1.789355948461437e-20)
(-0.2058945470012521 0.04545642212866758 2.673272286927591e-19)
(0.8195325983844166 0.03553864561675359 5.358164527114678e-20)
(1.00559595901261 0.002181753248480477 0)
(1.130762027725857 0.02536535483694022 -1.257231667847136e-20)
(1.118265150043114 0.01944463822912867 8.862080754994081e-21)
(1.054017389150032 -0.01313512282910586 -1.280673277817598e-19)
(0.9987840094098426 0.01035877440951757 1.022045902790374e-21)
(1.080235396336273 0.005369775629741476 0)
(1.185152171520898 0.05191617907539281 0)
(0.8353218258630841 -0.07506597822661218 4.594662450646148e-19)
(1.101983987009897 -0.01311097641593316 0)
(1.032414145738222 0.007677747560231362 -7.446207328797012e-21)
(1.042724820181105 0.005243996829193807 6.115816782380857e-21)
(1.051879703080884 -0.06158948924047743 -7.468417457962518e-21)
(1.140246844931366 -0.001589559516894853 1.672864531869686e-19)
(1.080050628097072 -0.00599627647352823 0)
(0.9951933841031541 0.001334738719718981 0)
(0.996513171249784 -0.02395961299392639 -2.239650050893018e-21)
(0.9913364738192271 0.002573992370902329 0)
(1.029296662402083 -0.03838839297161071 6.357154825451943e-20)
(1.294485073309745 -0.09423407196087046 0)
(1.047693725933366 -0.01579426941504812 -6.23664699220139e-22)
(0.9861557773875752 0.01688662927426979 -8.557972403731368e-20)
(1.035173789910177 0.04105278606909118 -2.4162341017637e-21)
(-0.09130410484910148 0.1652401413676684 -1.634000803559179e-19)
(-0.06271349557761573 -0.2915641494021187 -1.403687007001237e-19)
(0.8656121766449196 0.1266404805477414 0)
(0.2929363126043809 -0.005786005665662898 -3.113837512989254e-19)
(1.012385243092175 -0.01628514796804552 -1.557683245109238e-20)
(1.063926950463494 0.002616894358031841 -2.116657274036737e-20)
(0.993061260297618 -0.01887825234275491 2.855550518150494e-20)
(1.022322512695812 -0.02731687030598731 2.474034497952909e-21)
(1.008381752552225 -0.03169710616592495 -6.531398856292284e-20)
(0.9887079202285575 0.004862336528609593 -3.469983919713565e-20)
(0.9932963158499802 0.004322591661765344 0)
(1.025024226881516 -0.001865590031404519 -3.593656268591531e-21)
(1.935673617853831 -0.1552116441083466 1.075891828651636e-18)
(1.050886031289095 -0.013145455762066 0)
(0.9955548944273513 0.007566041864897996 1.547765569941876e-20)
(1.002804227373147 -0.0001529084108764035 4.086098385378363e-20)
(1.172114362925555 0.1329162883009085 0)
(1.001589254258575 -0.007494455292349475 5.886966264324875e-22)
(0.9497361441851879 -0.003134325416154584 0)
(1.037844310609374 0.04174469475666404 0)
(1.298397957161944 0.1635566168917453 2.262760138650231e-19)
(1.08486387845135 -0.01122562030805535 2.253457639660857e-20)
(1.018591508834826 0.03185555932580698 4.728325709428744e-20)
(1.084266322344496 -0.01035252052221004 -2.174472643697827e-20)
(1.050136840836837 -0.006489933253414025 -3.070977172215984e-22)
(-0.3841100941813538 -0.03970656901308133 0)
(0.9980743030442161 0.01418825895459948 0)
(0.1120242644056519 0.05965529073158201 -8.530462830782671e-20)
(1.006350019750527 0.02293836022603465 -4.178536111705481e-20)
(0.9934202059121655 -0.002003396117017902 0)
(1.000448194350496 0.005867307413735569 -5.075022381135801e-21)
(1.081503399273492 -0.04214285334767575 0)
(0.9959165957812089 -0.01755379642658944 -7.671563599707863e-21)
(1.090229129962059 -0.05213953118175109 0)
(1.441997599860208 0.1785067837775649 0)
(1.054128214777361 -0.01183752927682393 0)
(0.9909284150926121 -0.02244434112256409 -3.838122224486334e-20)
(0.984169228379718 -0.03953696242872507 -2.205922364227399e-21)
(1.018773590551302 -0.01694809613218897 -1.706855235027171e-20)
(0.997570810283212 0.01704529982212016 -5.666072491438545e-20)
(0.9950034935802128 0.01015675908226108 -1.508401862428207e-20)
(0.9936279401157184 -0.026806566956095 0)
(1.003034096377141 0.02556440187882277 1.973649328270061e-20)
(1.043358757126622 -0.0401916531117171 0)
(1.11073062628675 -0.03580851577353873 2.620700908698232e-19)
(0.9954286324364189 0.01736963486751736 4.682886685910708e-20)
(0.6151189151266437 -0.008667697184954384 0)
(1.138271628159967 0.1328911585450548 -4.874711719668933e-21)
(0.8513777871080177 -0.1047818748495518 0)
(1.138672701289993 0.07316647255745486 -2.695122047959999e-19)
(1.31512846396634 -0.3879503998649614 1.295276875984966e-19)
(1.075667915733396 0.06148225658493522 -1.339346134840606e-20)
(1.009388032607097 -0.03047882071011349 0)
(0.9554490578267137 -0.2149935602284548 0)
(0.503691252507759 0.1432216004108048 0)
(1.012519973562139 0.01058682228038705 1.181364901126501e-21)
(0.6961750809926222 -0.02318467401500878 0)
(0.998461940565484 0.0182608141570243 3.597171693605116e-20)
(1.021280424105207 -0.003128548163351322 -2.757079398152682e-20)
(1.07915744520119 -0.008075275525312765 2.808599811466683e-21)
(1.038841116297726 -0.006262661470307848 3.353211421728478e-20)
(1.042568565250631 0.01100604119828099 0)
(1.05927405480746 0.03014937789254282 -1.024691129755518e-20)
(1.05082655125898 0.03435534341053654 -1.827835033036544e-20)
(0.9825757194505188 -0.02194156456992779 0)
(0.6249413380780336 0.005131597047936052 9.184534535573327e-20)
(0.8941698298916769 -0.005875040634549444 -8.859572571591406e-20)
(0.9093658071260819 0.00533078179447696 1.441717581153406e-20)
(0.6295625238109359 -0.006380006173215646 1.405225863387939e-20)
(0.9781916289966093 0.0006958028606697282 2.639911147766718e-20)
(1.00445835251353 -0.01757009929181729 -3.563067329983019e-20)
(0.9668902462729958 -0.0163407826487681 -3.603919996659838e-20)
(1.08549608425956 0.001486961526735854 0)
(1.019367576687753 0.004344820109956288 1.062525247606702e-20)
(1.132943262568915 0.04873528642971767 1.303569261508445e-19)
(1.034192850796398 0.04118091923219613 0)
(1.022138167679418 0.002582047674195188 0)
(1.583377805360626 -0.1665986286188794 4.410862881791477e-19)
(1.041015452138628 -0.03384173139058502 0)
(1.019267444464032 0.006411175713562019 -3.770471429146265e-20)
(1.088875620870037 -0.003869124504648773 0)
(0.4797219362022793 -0.03396522518779881 0)
(-0.03573387205284058 0.01496476494667439 0)
(0.9900364738647843 -0.02412254814893963 1.212296396752357e-20)
(1.300510641836688 -0.09509295087902971 3.753897980685633e-19)
(1.035643550373856 0.03846255551222327 0)
(1.022417257141771 0.003297694753067632 -2.258240989811296e-20)
(0.9592727290789439 -0.1646823079018724 2.628402934021436e-21)
(1.252471377320629 0.07734808182719366 0)
(0.5982181850286418 0.7311954553351767 0)
(1.310354837071646 0.1514303739147091 1.116732611851278e-19)
(1.676860892985896 -0.02449870377233501 0)
(1.061964032142582 0.1103470598839272 0)
(0.7174874085990968 -0.01286015868124107 2.58676550305758e-21)
(1.053000785574337 0.04698332167596066 0)
(0.7187853591996027 0.1040703061682398 1.173309800730723e-19)
(0.9967844493570537 -0.01646384160302973 3.571590251577273e-19)
(1.033247765836407 -0.04085413714744197 2.682206432248832e-20)
(-0.3760154528642865 -0.008978763589146661 0)
(1.071615543736854 -0.01634944743009821 0)
(1.096133411423481 -0.01164195254323342 0)
(0.6480075532855144 -0.5020896776972816 -2.483343301450169e-19)
(0.9920088718522057 -0.001155928099342353 0)
(1.091864598029324 -0.02163511531160631 4.263327503238133e-22)
(1.188297340058196 0.1214736294720216 -1.993998301607497e-19)
(1.088900254387865 -0.0408014725031037 0)
(1.005174680265399 -0.02133449018153343 0)
(0.8146748045422258 -0.1863616337394876 -1.729967397944498e-19)
(0.8976167552529927 -0.1326381924567769 1.556454142764492e-19)
(1.027562534579902 0.01127947457981726 -2.25935242228756e-20)
(1.023114044213104 -0.009182255223962838 -4.577253011543357e-20)
(0.8724409636358887 0.008979035446045268 -3.008962078948147e-22)
(1.504754052707783 -0.192955961124219 0)
(1.301486819835344 0.1200122046884913 3.18645495005287e-20)
(1.245587048265582 -0.0763306392979225 -3.004339533496265e-21)
(1.095835789375152 -0.01855797199246317 -3.823827193497392e-20)
(1.043085250926627 -0.01283605129999591 2.442951175115326e-20)
(1.092818900231652 -0.03914211958398283 9.10730784625389e-20)
(1.032285799506099 0.01962613670210424 0)
(1.044595106655092 -0.0337666207063377 0)
(1.115894287010204 -0.009012015982856612 0)
(1.088039008324136 -0.0267770082815644 0)
(0.9978760920446245 0.01105296381233919 0)
(1.149180174749442 0.07595071865590029 9.469716063431381e-20)
(1.342533065328749 -0.1500957500915807 0)
(1.038778930770226 -0.02101331505862059 -1.776296466728753e-22)
(1.05357091672665 0.05171680097193195 0)
(1.010031674688887 0.01468661286904693 -3.986868353258348e-20)
(1.033768480727938 -0.008018865091224941 9.077484576708826e-21)
(1.08896646080156 0.01335834438817573 -3.261094424586383e-20)
(1.085085510398222 -0.02943543160415734 0)
(1.075669949559754 -0.001880651583250149 0)
(1.107181132417411 0.09465094499707943 -1.425288718910903e-18)
(0.9352948102811186 -0.1492637359734105 -7.071392579402249e-20)
(1.171840469233915 0.1049604297143526 1.102439427874257e-19)
(-0.4803672470308894 0.009675918074317806 -2.924873813357733e-19)
(1.01938022968931 0.02875485936391184 -8.879288197596439e-20)
(1.004558207948486 -0.003414289214244186 0)
(-0.2949170415393336 0.04042241379968903 3.558786496318632e-19)
(-0.05363386375762944 0.3187872789632332 7.46230577629791e-21)
(0.9952294865333339 -0.006304318954991357 9.750048652725739e-20)
(0.1908890824228543 -0.03918121720585305 1.438696037526724e-19)
(1.096238660645553 0.08218487690317629 1.522954561441338e-20)
(0.09399701362884234 -0.108642476338206 -5.475583344782042e-20)
(1.107888708768552 0.003074221651182983 0)
(1.102443306589438 0.2582807712151942 0)
(1.02180711458684 0.02190068042635545 -1.738292293313975e-20)
(1.074603703654849 0.05679854521170332 0)
(1.025841210904457 0.02714495270630037 -9.745762255215671e-21)
(1.262491637676788 -0.5484036209496215 8.043642130467285e-19)
(-0.09661826324551526 -0.1960432346733718 2.203520254581001e-19)
(1.29574152005495 0.1174153846985959 -6.321288998463247e-19)
(1.123213262612838 -0.002015413647990934 0)
(1.131238572008309 0.09542119295045916 0)
(0.5282965155539281 0.08306116092159048 2.562649196648124e-19)
(1.023312745155979 -0.02107445844414305 9.300422393165127e-20)
(1.005651927652075 -0.02398805193761269 0)
(1.21182956021156 0.2713410853463462 -9.571735889857594e-20)
(1.256615882648004 0.1390756143003881 -1.600382144911439e-19)
(1.026616858006393 0.002861334728638819 1.531613823518167e-20)
(1.300142185663796 -0.08449472666951634 -5.019185549425234e-19)
(0.2950463243753106 -0.01445733112362904 2.603234542993661e-19)
(0.8272900571564772 -0.1456703160588728 6.664602042039037e-19)
(1.05578882744016 0.06104682385021296 1.045761712226903e-19)
(1.041130400570402 -0.007682315172932178 1.610624064594228e-21)
(1.001408794418349 0.02008449259381804 3.001774089936736e-20)