/*--------------------------------*- C++ -*----------------------------------*\
| =========                 |                                                 |
| \\      /  F ield         | OpenFOAM: The Open Source CFD Toolbox           |
|  \\    /   O peration     | Version:  2412                                  |
|   \\  /    A nd           | Website:  www.openfoam.com                      |
|    \\/     M anipulation  |                                                 |
\*---------------------------------------------------------------------------*/
FoamFile
{
    version     2.0;
    format      ascii;
    arch        "LSB;label=32;scalar=64";
    class       surfaceScalarField;
    location    "0.7";
    object      phi;
}
// * * * * * * * * * * * * * * * * * * * * * * * * * * * * * * * * * * * * * //

dimensions      [0 3 -1 0 0 0 0];

oriented        oriented;

internalField   nonuniform List<scalar> 
1171
(
-0.896713
0.896713
0.887727
-1.16858
0.280853
-0.214706
-0.663629
0.878335
0.103287
-0.118371
-0.238498
0.356869
-0.887727
0.0503833
0.837344
0.809885
-0.162005
-0.647879
0.820739
-0.995938
0.175199
-0.283834
-0.106818
0.390651
-0.0559717
0.564714
-0.508742
-0.502084
0.809835
-0.307751
-0.402204
0.972698
-0.151959
0.362611
-0.00569999
-0.356911
0.97079
0.00190807
0.350476
0.0121348
0.982945
-0.012155
0.587326
-0.802032
-0.72411
0.534787
0.189323
0.203485
-0.705569
0.565685
-0.944131
0.378446
-1.08538
0.680424
0.404951
-0.610854
0.554883
0.0309989
-0.248518
0.217519
-0.0489694
-0.454723
0.503692
0.402594
-0.509412
-0.857747
0.885247
-0.0275001
0.997395
-0.0144503
0.871786
-1.10006
0.228276
0.999558
-0.00216257
-0.6722
-0.0519109
1.17915
-0.79167
-0.387476
0.141811
-0.123885
-0.298376
0.422261
-0.263467
0.190368
0.0730987
-0.671214
-0.497366
0.930927
-0.0591408
0.0063303
0.804986
-0.811316
0.523511
0.655635
0.440828
-0.0307931
0.433387
-0.770965
-0.1063
0.877265
0.495543
0.251491
-0.747034
0.0365111
0.446693
-0.483204
-0.510509
-0.574866
-0.405427
-0.694635
-0.040452
0.271269
-0.230817
-0.901867
0.021032
0.880835
0.298611
0.09204
0.768214
0.0416706
-0.564133
-0.0467211
0.0261686
-0.797134
0.109715
0.8314
-0.941115
-0.347728
-0.0392415
0.38697
-0.638269
-0.263598
-0.631327
0.741043
0.608686
0.20115
-0.539535
0.923565
-0.764418
-0.159147
0.230587
0.0835666
-0.314153
-0.422141
-0.0872703
-0.236486
0.845172
0.0777353
0.2994
-0.377136
-0.47626
0.971804
0.767384
-0.873684
0.266507
0.0446438
-0.31115
1.06042
-1.06042
-0.784011
0.106123
-0.344622
-0.838842
0.845173
-0.115724
-0.148341
0.264065
0.830952
-0.0259663
0.987752
-0.736261
0.182991
-0.300577
0.117586
0.844122
-0.0759076
-0.593231
-0.0564899
0.649721
0.126709
-0.225824
0.0991153
0.751786
-0.913791
-0.450351
0.313783
0.136568
0.475763
-0.524733
1.09832
-0.43174
-0.666578
0.69289
-0.639204
-0.00460452
0.643809
0.0970878
0.590237
0.067888
-0.658125
0.203585
-0.0974615
-0.500132
0.152404
0.106712
-0.880483
0.773772
-0.460423
-0.714613
0.0424136
0.429322
0.0040646
0.27208
-0.832839
0.560759
0.432577
0.567423
0.551266
-0.525097
-0.344242
0.0802306
0.264011
0.836837
0.223586
-0.511308
0.547819
0.130946
0.802169
0.0221617
-0.615393
-0.801173
0.907885
0.533747
0.0600968
0.28271
-0.342807
-0.11671
0.377604
0.0690893
0.89262
-0.846497
-0.0461229
0.597284
0.326281
-0.462593
0.561027
-0.50093
0.419352
0.146333
-0.0409847
-0.573893
-0.140273
0.714167
-0.139257
-0.921166
-0.590808
0.343541
0.247266
0.62925
-0.607088
0.241145
0.943675
0.0440769
-0.801173
0.437995
-0.207408
0.767384
0.858795
-0.858795
0.83807
-0.827788
-0.0102816
-0.43474
0.867317
-0.160401
-0.339731
0.731022
-0.692121
-0.0389008
-0.713458
0.139565
0.131893
-0.696026
0.873684
-0.990394
-0.293401
0.178266
0.115135
0.135514
-0.953884
0.81837
0.474998
-0.0341699
-0.272698
0.573532
-0.300834
-0.871421
1.00693
-0.135168
0.644126
-0.739777
0.0956511
0.914922
-0.544083
-0.370839
0.81781
-0.0806055
0.0356343
0.117942
-0.153576
-0.761334
-0.736769
0.0731393
-0.838842
0.524199
-0.56344
0.0852349
0.634303
-0.719538
0.811455
0.0852581
0.436818
0.563182
-0.0580464
-0.521453
0.579499
0.89836
-0.00574008
-0.81781
0.907885
0.187406
-0.435924
0.042216
0.0151277
-0.0573437
0.578695
-0.447003
-0.131692
0.837344
0.0204881
-0.0926421
0.395066
0.183629
0.0164542
0.0012225
-0.0176767
-0.0216505
0.0572848
0.2677
-0.223056
-0.993963
-0.0102084
-0.0860782
-0.025701
0.0695187
0.735318
0.734584
-0.167161
0.720013
-0.634778
-0.203641
0.386632
0.827344
0.00999981
0.231818
-1.05961
-0.990394
0.302676
0.845173
-0.220463
0.0721227
-0.725109
0.909218
-0.184108
0.410648
-0.0236781
0.693166
0.360796
0.273853
0.0766232
-0.682367
0.682367
0.230238
0.647027
-0.0735633
0.372964
0.348698
-0.0850838
0.1273
0.433042
0.0419556
-0.871421
0.529516
0.201506
0.288362
-0.17042
-0.827344
0.177568
0.73165
0.0152302
-0.78485
0.76962
0.705442
-0.818694
0.113252
-0.811455
-0.162487
0.189627
-0.0271394
0.0558694
-0.222603
-0.0707713
0.293374
0.0109987
0.0054555
0.686614
-0.671383
0.817307
0.061028
-0.296455
-0.468377
0.764832
0.0301439
-0.0301439
0.258496
0.465741
0.609346
-1.07509
-0.178595
-0.538021
0.716617
0.0502845
0.21378
0.381427
-0.254718
0.963918
-0.498176
0.661063
0.985422
-0.376076
0.221027
1.00693
0.854975
0.217996
0.667251
-0.921166
0.317633
-0.240128
0.242853
-0.0027246
0.786311
-0.0136057
-0.772706
-0.84282
0.840658
0.56526
-0.84282
-0.854975
0.840658
-0.035545
0.804923
0.0123843
-0.836837
0.747071
0.0897662
0.510564
0.538832
-1.0494
0.461349
0.502569
0.544209
0.463489
-1.0077
0.489731
0.495692
0.747071
-0.483597
-0.423811
-0.569638
-0.512623
-0.105475
-0.0108909
0.0108909
0.491111
0.521158
-1.03378
0.535604
-0.252894
-0.905234
0.361151
-0.653553
0.389955
-0.013387
-0.806914
0.820301
0.461886
-0.0155145
0.801826
-0.927782
-0.850422
0.0476305
0.802792
0.644151
-0.53726
-0.106891
0.656385
-0.715526
0.873687
-0.815349
-0.0583386
-0.0237142
-0.822783
-0.102862
0.702182
-0.599319
-0.864159
0.840445
-0.775128
0.734784
0.0403438
-0.833507
0.0421347
0.791372
0.0265763
0.00356767
0.418412
0.0540951
-0.853399
0.799304
-0.626287
0.56824
0.9166
0.0906745
-1.00727
0.0661776
-0.0698634
0.333875
-0.339124
0.0385475
0.847996
-0.861383
-0.772479
-0.822811
2.77842e-05
-0.143849
-0.833294
0.0179453
0.679477
0.0405357
0.0374796
0.606671
-0.792126
0.834261
0.666578
-0.822428
-0.773485
0.0314386
-0.0354447
0.816931
-0.781486
-0.0129929
-0.807924
0.576357
0.129085
-0.0248045
0.82663
0.888075
0.867849
-0.849904
0.0737648
-0.0737648
-0.129667
-0.576522
0.0392621
0.246189
0.0564866
0.294341
0.813637
-0.00817213
0.0191708
0.652258
0.347742
0.797613
-0.671214
-0.726261
-0.795092
-0.813158
0.813158
-0.188166
-0.156456
0.608082
-0.83149
0.223407
-0.478127
-0.520491
0.246098
-0.940733
-0.84729
0.788952
-0.800608
0.800636
0.655856
0.147862
-0.803718
-0.754748
-0.142573
0.740113
-0.597541
0.033653
-0.00408028
0.00740544
-0.00332516
-0.471644
-0.104879
0.854181
0.649617
-0.206614
-0.443003
0.542726
0.663361
-0.433122
0.0225963
-0.286063
0.0195248
0.694042
-0.713567
-0.284877
-0.0784674
0.0771954
-0.888605
0.1159
-0.683628
0.0548563
0.646623
-0.701479
-0.758188
0.0745601
0.589012
-0.667479
0.131393
-0.353996
-0.748161
-0.00658664
0.356808
0.592242
-0.0312147
0.00431733
-0.00431733
-0.0096684
-0.0389176
-0.20121
0.0891083
-0.0972804
-0.707625
0.292931
0.686924
-0.688293
0.0013696
-0.575477
0.630333
0.655105
-0.0660928
-0.647661
-0.110527
-1.04776
0.0154389
0.0583259
-0.6881
-0.750523
-0.787502
0.400026
-0.341393
0.372032
-0.0306395
-0.638606
-0.0494943
0.522284
0.755544
-0.181508
0.155807
0.895192
0.447259
0.1176
-0.564859
-0.670711
0.0321051
-0.00520506
0.00112479
0.635248
-0.775521
0.00740002
-0.00740002
-0.600879
0.648505
-0.0476252
-0.633232
-0.131117
-0.632938
0.0280764
0.551423
-0.112203
-0.775511
-0.533794
0.555767
-0.0219729
0.62884
-0.627471
0.327272
0.220578
-0.54785
-0.115276
-0.609245
-0.0922339
-0.15362
-0.505718
0.407642
-0.494913
0.127017
0.693037
-0.820054
0.69289
-0.286501
-0.0548919
0.0659076
-0.571626
0.578876
-0.0387816
-0.540094
-0.292256
0.295453
-0.00319775
0.426823
0.108781
0.0458597
-0.281142
0.143093
0.138049
0.388504
0.0494904
-0.266655
-0.454412
0.493617
-0.0392048
0.776963
-0.599677
-0.0335544
0.502972
0.279769
-0.486383
0.728187
-0.728187
-0.268013
-0.729244
-0.267567
-0.729244
-0.607249
-0.910925
0.218804
-0.560415
0.747098
0.0154356
0.109498
0.482744
0.0961704
0.167989
-0.0220978
-0.145891
-0.00464781
0.596707
-0.877354
0.408977
0.0194475
-0.177404
0.157956
-0.663633
-0.130935
-0.449711
0.567311
-0.510787
-0.386601
-0.185025
-0.254664
-0.082559
0.082559
0.098386
0.0912409
0.183428
0.421523
-0.536321
0.0866091
0.2623
0.465062
0.534938
0.6141
-0.0293277
-0.0551599
0.0844876
-0.245831
-0.52968
-0.510082
0.114534
-0.121488
0.00695458
-0.102442
-0.378513
-0.0386229
0.590046
-0.529952
-0.133681
-0.303034
0.203279
0.114847
-0.684272
-0.210264
-0.292301
0.0692446
-0.410349
0.276794
0.133556
-0.0767292
0.308028
-0.882894
-0.468802
0.585398
-0.762556
0.64728
0.3031
-0.157349
0.205718
-0.0483691
0.00286258
-0.602815
0.0433166
0.559499
-0.974348
0.555335
-0.685001
-0.088402
0.0355298
-0.0355298
-0.258546
0.303145
0.0307292
-0.0153619
-0.0139657
0.502532
0.666111
-0.712234
-0.000234227
0.00943698
-0.00511965
0.0060796
-0.0060796
-0.370559
0.47934
0.0147977
-0.0147977
-0.743197
-0.0571895
0.0837658
-0.42906
0.515669
0.433689
-0.481314
0.0890036
-0.0890036
0.0091289
0.118171
-0.0785207
-0.882335
0.511496
-0.401199
0.00356767
0.54213
0.0213534
-0.563484
-0.656289
0.126336
-0.324196
-0.000163748
0.32436
-0.167631
-0.0138775
-0.593876
-0.00893951
0.0583259
-0.00390249
0.0113025
0.0184788
-0.0184788
-0.471803
0.432598
-0.430099
0.214305
0.583308
-0.0821148
0.0030881
-0.0030881
0.460457
-0.0776008
0.00538589
0.0227961
0.00964726
0.604691
-0.682291
-0.588261
0.554706
-0.0980532
0.333185
0.721812
-0.0096684
-0.238541
0.0681205
-0.695084
0.490574
-0.328874
-0.114158
-0.0175192
-0.0168784
0.0339484
0.390654
-0.120211
-0.419883
0.621314
0.0048113
0.0110968
-0.0110968
-0.255772
-0.0502802
-0.566573
0.582009
-0.228121
0.453321
-0.138655
0.725981
0.671267
-0.00390249
-0.594864
0.578625
0.268477
-0.247704
-0.020773
0.477977
0.0839131
-0.0214287
0.147453
-0.126025
0.0399075
-0.0399075
-0.788504
0.0152388
-0.0859661
0.108762
-0.0901603
0.0901603
0.00943698
-0.00658029
0.686184
0.0454656
-0.308871
-0.0696414
-0.49452
-0.0345565
-0.0823128
0.0823128
0.0936165
0.0922555
-0.0922555
0.0562371
-0.0562371
-0.348813
-0.113781
0.238045
0.0757381
0.0188835
-0.751164
-0.169392
0.161999
0.0254069
-0.278956
0.0861347
-0.0861347
-0.445026
-0.049887
0.224474
-0.00695499
0.0145763
-0.541143
0.576688
-0.0982541
0.191871
-0.0443321
0.162503
-0.00325187
-0.173786
0.177038
-0.103359
-0.250637
-0.0899968
0.0899968
0.0557281
-0.0557281
-0.0261236
-0.0947534
0.120877
0.215413
-0.17467
0.00355939
-0.00867904
-0.115284
0.547882
-0.0268309
0.400386
-0.0424579
0.0247813
-0.0758007
0.0758007
-0.641685
0.324915
-0.103888
-0.212605
-0.0132189
-0.0991016
0.113678
0.155235
0.138139
0.0662736
-0.0566263
0.0823425
0.0321914
0.0602905
0.101708
-0.0334911
0.189298
0.00369682
-0.130772
-0.0766114
0.0482599
0.0283515
-0.00165986
-0.0376466
0.0277889
-0.0277889
0.0483515
-0.0403502
0.0403502
-0.196031
-0.10599
-0.00398515
-0.0861514
0.0163296
0.0794962
-0.0794962
0.288791
-0.283128
0.179769
-0.0497537
-0.233375
-0.0135631
0.0135631
0.344501
0.299308
-0.552454
-0.0848943
-0.0365942
0.558806
0.171081
-0.100402
-0.350947
0.0520135
-0.149352
0.173888
-0.0245364
-0.0473048
0.0473048
0.773826
-0.564489
0.008738
-0.0103979
-0.00760134
-0.287391
-0.00612079
0.00016353
-0.0972697
-0.547281
0.544407
-0.58372
0.00768404
0.0859972
0.00651202
0.0195637
-0.156953
-0.321987
0.235836
-0.0540628
0.0279392
0.131576
0.163878
0.259785
0.274144
-0.267632
-0.0653089
-0.155815
-0.212769
0.0682886
-0.00799811
0.18982
-0.170256
-0.0714565
0.153799
-0.363142
0.175778
-0.159449
0.0730356
-0.492919
0.174052
0.172066
-0.243523
0.028627
-0.183105
0.176984
0.00663851
0.147161
-0.0255525
0.0112794
0.449178
0.0142258
-0.137172
0.105316
0.0918838
-0.237305
-0.185419
0.534037
0.161567
0.062907
0.0574783
-0.0463861
-0.17697
0.156197
-0.0283608
0.168517
-0.160833
-0.103223
5.89695e-05
-0.130652
-0.0359443
0.086075
0.259925
-0.0478467
-0.0144667
-0.274315
-0.119868
0.210614
0.180894
0.14402
0.0303712
0.0940461
0.0572757
0.445257
0.0320484
0.105474
0.0363589
0.0621467
-0.0985056
-0.253146
-0.211266
-0.022109
-0.232993
0.296424
)
;

boundaryField
{
    FrontBack
    {
        type            empty;
    }
    Top
    {
        type            calculated;
        value           uniform 0;
    }
    In
    {
        type            calculated;
        value           uniform -1;
    }
    Bottom
    {
        type            calculated;
        value           uniform 0;
    }
    Out
    {
        type            calculated;
        value           nonuniform List<scalar> 10(1.00556 0.994161 0.993449 0.992299 1.00232 1.00831 1.01227 0.998617 0.9962 0.996812);
    }
    circle
    {
        type            calculated;
        value           uniform 0;
    }
}


// ************************************************************************* //
