/*--------------------------------*- C++ -*----------------------------------*\
| =========                 |                                                 |
| \\      /  F ield         | OpenFOAM: The Open Source CFD Toolbox           |
|  \\    /   O peration     | Version:  2412                                  |
|   \\  /    A nd           | Website:  www.openfoam.com                      |
|    \\/     M anipulation  |                                                 |
\*---------------------------------------------------------------------------*/
FoamFile
{
    version     2.0;
    format      ascii;
    arch        "LSB;label=32;scalar=64";
    class       volScalarField;
    location    "37.8";
    object      p;
}
// * * * * * * * * * * * * * * * * * * * * * * * * * * * * * * * * * * * * * //

dimensions      [0 2 -2 0 0 0 0];

internalField   nonuniform List<scalar> 
808
(
0.117339
0.033326
0.0729238
0.116713
-0.277549
0.0308129
0.0228898
0.033039
-0.161805
-0.0313273
0.0710015
-0.184654
0.0337071
0.0258259
-0.138685
0.0322053
-0.130538
0.0234666
0.0611994
0.0182782
0.0616983
0.397658
0.0983876
-0.00381409
0.475605
-0.128882
-0.0815397
0.0134547
0.0177988
0.0369252
0.0191763
0.0240309
0.0365418
0.02048
-0.0900485
0.627734
0.0331374
0.0457505
0.0313545
0.0313632
-0.0538939
-0.0769573
0.0585331
0.0481949
-0.160724
0.115068
0.0368953
-0.0151049
0.0337017
-0.203101
0.0317435
0.0127613
0.0700819
0.00714734
-0.0441048
0.0318743
0.0137522
0.0667437
-0.0342642
0.026274
-0.315539
-0.0181398
0.0363956
-0.188909
0.050091
0.0695002
-0.331483
0.0361225
0.0771934
-0.331412
0.0378454
-0.373739
0.0296498
0.0307809
0.162214
0.0438782
0.0162934
-0.0249837
0.0308578
0.340617
-0.0815404
0.0304064
0.0487202
0.262124
0.0486876
-0.00178169
-0.418431
-0.0632606
0.0378575
-0.115812
0.0412799
-0.119487
0.277823
0.183521
0.0642025
-0.301261
0.0324045
-0.109689
-0.122264
-0.273985
0.0329341
0.0202986
0.0459188
0.00748557
-0.0441181
0.0848029
-0.197894
-0.0312824
0.0297701
0.00263469
-0.017394
0.356281
0.0354845
0.00600629
0.0363643
0.453883
0.0283465
-0.318869
0.035855
0.060318
-0.209188
0.0581585
0.0282106
0.0595199
0.14042
-0.01041
0.0993749
-0.0110822
0.0222456
0.0924546
-0.408718
0.0331809
-0.0382061
0.155995
0.035083
0.0282242
0.0546703
0.000267034
0.0356196
0.0226595
-0.224432
0.0461453
0.0834202
0.0373598
0.010528
0.000404089
0.0952485
0.152446
-0.18385
-0.0303779
0.0364228
0.366975
0.0389868
0.5505
-0.264277
-0.0508474
0.0313777
-0.170038
0.0729233
-0.0698403
-0.362002
-0.240351
-0.375207
0.0320136
0.0851447
0.0398985
0.0325711
-0.408365
0.0296945
0.0483101
0.0452431
0.186478
0.0101585
0.0989519
0.031695
0.0694746
0.0960929
-0.180472
0.0364123
-0.40603
0.0486541
-0.0874829
0.030193
0.254606
-0.150971
0.143631
0.0426825
-0.146941
0.0517437
-0.104369
-0.241211
-0.0492778
0.036412
0.0762167
0.0309363
-0.191582
0.0369574
0.0373978
0.0131304
0.108698
0.068028
0.0322838
0.0388717
-0.381013
0.389209
-0.203621
-0.355636
0.0137276
0.0578891
0.0354992
0.00207125
-0.460436
-0.382309
0.0329006
0.00606354
0.029543
-0.386235
0.00467065
0.00660443
0.012896
0.0066388
-0.0437346
0.0363759
0.0354087
0.0111679
0.0379406
0.152267
-0.407576
-0.0412835
0.0189146
0.144685
0.0210089
0.0228262
0.0175894
-0.0691143
0.0344625
0.0156813
0.00773332
0.00294365
0.0256705
0.00646927
0.00903548
0.00654109
0.0104209
0.00720284
-0.00954389
0.0164677
0.0209405
-0.0197783
0.0230413
-0.373919
-0.00489342
0.0149141
-0.0315577
0.0128771
0.0279088
0.0353912
-0.00311961
0.0281394
0.155514
-0.0336033
0.0290002
0.0236434
-0.0465104
0.0616177
0.0092475
-0.0337103
0.0315783
-0.0331343
0.0581286
-0.00529421
-0.458875
0.300833
0.0421768
-0.112751
0.0171578
0.0504449
0.0243178
-0.219238
0.256591
0.0118478
0.0461112
-0.0328101
0.0860851
-0.259676
0.0240051
0.0394336
-0.0838422
-0.00258888
0.0709401
0.0328854
0.0298267
-0.0180632
-0.00274067
-0.0511975
0.0336605
0.0352355
0.0863512
-0.028056
-0.0114085
-0.0245566
0.0286948
-0.0067239
0.0382125
-0.56953
-0.0557674
0.0691935
-0.0620033
-0.202425
-0.212301
-0.00555505
0.0332601
-0.363283
0.123475
0.148806
0.037078
0.0322768
-0.0498767
0.0100872
-0.26389
0.045276
-0.00696979
0.0485534
0.0545207
0.0127168
0.0416002
-0.0282228
0.00453413
0.0214885
-0.304229
0.0634565
0.0427915
-0.0316888
-0.0796204
0.03239
0.256628
0.0173173
-0.173633
0.54859
0.105345
0.011101
0.0451857
-0.0938395
-0.0100606
-0.0109855
0.0456978
0.00152997
0.0332949
-0.0364248
-0.181146
0.00206777
0.134379
0.00553175
-0.281312
-0.366987
-0.429866
-0.376975
0.0248062
0.0342342
0.0161291
0.027761
-0.0201986
0.0153327
0.0377062
-0.000560969
-0.563174
0.0780212
0.0205929
0.0556328
0.00711388
0.0469992
-0.0153118
0.10984
-0.424393
0.0424356
0.0289632
0.00567776
0.089481
-0.320786
0.0269917
-0.251192
0.0134766
0.0611654
0.0613336
0.0304979
0.0526666
-0.145788
-0.398674
0.0196738
0.01912
-0.180707
0.0319518
0.0235636
0.0242091
-2.75071e-05
0.0198137
-0.247648
0.0230225
0.0303049
0.0353063
-0.215647
-0.288876
0.0960604
-0.0442367
0.011099
-0.0228066
0.413653
-0.115838
0.0186533
-0.0800243
0.0268609
0.024826
0.0404458
0.0661898
0.000648031
0.0362429
-0.0228705
-0.00447307
-0.00419732
-0.00643835
-0.0124533
-0.00955743
0.0337953
0.109934
0.0201244
0.0277034
0.014107
0.0573829
0.0160694
0.0460718
-0.428595
0.0336525
0.0427331
0.0300219
-0.184467
-0.336662
-0.00498697
-0.117365
0.0446289
0.0373453
-0.390764
-0.283619
0.279022
-0.372946
-0.511522
-0.0191059
-0.119751
0.0405992
-0.348432
0.352126
-0.0646083
-0.343322
0.0238105
0.110171
0.553812
0.0215933
-0.000274479
0.0842539
-0.0856469
0.00707937
-0.352397
-0.196723
-4.42502e-05
0.0613256
-0.0331778
-0.305522
-0.375019
-0.135761
0.0350809
0.0424679
0.118801
0.00152194
-0.0581978
0.105796
-0.0213903
0.0290313
-0.158576
-0.238781
0.0491467
0.0234939
0.0317358
0.0388237
0.0777995
-0.0149372
0.0461678
-0.52644
0.446903
-0.204887
-0.312863
0.00826336
0.00701053
-0.288543
-0.265158
0.114875
-0.38945
0.0162595
0.868122
0.0328729
-0.410148
0.0255868
0.0648459
0.0178085
-0.515122
-0.26861
-0.362947
0.00173278
-0.032808
-0.416647
0.0180556
0.00420834
0.141545
-0.388272
0.0597236
-0.561841
-0.264581
-0.32465
0.0519143
0.0488259
0.0271542
0.132692
0.119332
0.0234943
-0.317019
0.297333
-0.0766014
-0.0142408
-0.499073
-0.558895
-0.396881
0.00180194
-0.403768
-0.0633738
0.0581972
0.0269336
-0.110915
-0.273685
0.0282227
-0.3513
-0.191047
0.0144758
0.0207631
-0.393874
0.0191333
0.0661886
-0.436677
-0.396796
-0.0816179
0.133503
0.0364286
-0.383733
-0.244051
-0.279412
0.0560731
0.0749148
0.129321
0.0044809
-0.388104
-0.231932
0.134361
0.0349357
0.0482367
0.0519622
0.0458315
-0.272893
0.0495706
-0.317241
0.0545053
-0.220194
0.103266
0.00489968
-0.303529
-0.390178
-4.73654e-05
-0.529489
-0.521494
0.0642744
-0.0117033
-0.254896
0.00702689
-0.334864
0.0300655
0.118067
0.0558455
-0.217182
-0.0364127
0.136298
-0.382005
0.0132916
-0.328523
0.0299835
-0.369698
-0.440807
0.0803434
0.308211
0.447688
0.0212843
0.00387406
0.00433964
-0.39721
0.661631
0.0384445
-0.132197
0.0201566
-0.117665
0.0695361
0.515423
-0.310482
-0.0223109
-0.0124813
0.0303673
0.0284733
-0.387313
-0.29559
-0.360042
-0.24596
-0.325205
0.0190806
-0.413598
-0.0707476
-0.197247
-0.245101
0.55637
0.624405
-0.185521
0.0825376
-0.269056
-0.0082647
0.092725
0.45381
0.0842914
-0.373016
0.0236161
-0.438361
0.0134631
-0.141259
0.0295376
-0.257966
-0.190677
0.00623386
0.00435643
-0.37414
0.423443
0.698956
-0.413812
-0.244796
-0.397315
-0.0314439
-0.250411
-0.246595
-0.0955207
-0.373998
0.789216
-0.281482
0.733825
-0.471525
0.315454
-0.374201
0.0337603
0.213253
-0.432754
0.184053
-0.182275
-0.245863
-0.274881
0.892484
-0.28479
0.198196
0.129422
0.634005
0.11213
-0.218561
-0.193455
-0.104397
0.0210249
0.137144
0.495907
0.0180635
0.0165282
-0.247244
0.173225
-0.160137
-0.26838
0.0531876
-0.160577
-0.210213
-0.0941169
-0.428493
0.0311061
0.0979918
0.0253873
0.109984
0.0963503
-0.26815
-0.28995
0.0446137
0.0476763
-0.395771
-0.443013
0.226353
0.228429
0.09022
0.704005
-0.118938
-0.275186
-0.318182
-0.24088
-0.0950068
0.128287
0.786429
-0.382408
0.349751
0.0237157
-0.359339
0.188206
-0.0188234
0.364702
-0.0905924
0.0430717
-0.383409
-0.124178
0.159234
0.81155
0.327986
0.789408
-0.432171
-0.228551
-0.478128
0.211604
0.298745
0.0913615
0.419238
0.0942687
0.504723
0.316004
0.012971
-0.234361
-0.00184871
-0.248639
0.897952
0.410142
0.688937
0.525052
-0.204611
-0.42212
-0.258273
-0.333255
0.0763596
-0.462304
0.0652795
0.626337
-0.453746
0.00848403
-0.337847
0.218281
-0.27326
-0.303696
-0.114265
-0.216556
-0.270957
-0.342142
-0.392504
-0.086553
-0.480762
-0.180184
-0.342592
0.183775
0.639325
-0.153284
-0.379614
0.855413
-0.374826
0.264122
-0.17595
0.357504
0.0819984
-0.443221
-0.329606
0.486759
-0.327809
-0.2591
0.160281
-0.214287
0.0179358
-0.241255
-0.0617282
0.0474659
0.562349
0.788468
-0.244616
0.214561
-0.244318
0.837477
0.0202788
-0.248939
0.0207832
0.762367
0.240084
-0.256865
-0.244168
0.440448
-0.152523
0.0815751
0.394903
0.284218
0.285641
-0.188227
-0.201885
0.698297
)
;

boundaryField
{
    FrontBack
    {
        type            empty;
    }
    Top
    {
        type            zeroGradient;
    }
    In
    {
        type            zeroGradient;
    }
    Bottom
    {
        type            zeroGradient;
    }
    Out
    {
        type            fixedValue;
        value           uniform 0;
    }
    circle
    {
        type            zeroGradient;
    }
}


// ************************************************************************* //
