/*--------------------------------*- C++ -*----------------------------------*\
| =========                 |                                                 |
| \\      /  F ield         | OpenFOAM: The Open Source CFD Toolbox           |
|  \\    /   O peration     | Version:  2412                                  |
|   \\  /    A nd           | Website:  www.openfoam.com                      |
|    \\/     M anipulation  |                                                 |
\*---------------------------------------------------------------------------*/
FoamFile
{
    version     2.0;
    format      ascii;
    arch        "LSB;label=32;scalar=64";
    class       volScalarField;
    location    "48.1";
    object      p;
}
// * * * * * * * * * * * * * * * * * * * * * * * * * * * * * * * * * * * * * //

dimensions      [0 2 -2 0 0 0 0];

internalField   nonuniform List<scalar> 
808
(
0.126649
0.0423087
-0.0199961
0.125454
-0.260938
0.0399237
0.0373867
0.031588
-0.13359
-0.00390523
0.00957356
-0.159435
0.029729
0.036544
-0.325308
0.0258381
-0.368395
0.0345368
0.0394537
0.0328373
0.0372043
0.374252
0.0820774
0.01054
0.453759
-0.172428
-0.0639575
0.0137394
0.0448379
0.0347451
0.0280482
0.0385576
0.0367518
0.0271595
-0.0486844
0.620185
0.0364518
0.0402796
0.0417768
0.0281521
-0.0219637
-0.0587384
0.0503477
0.0360807
-0.199742
0.0983623
0.04134
-0.00270429
0.0347389
-0.168508
0.0372255
0.0291318
0.0583778
0.0256411
-0.0825663
0.0320762
0.0132178
0.0163229
-0.0092476
0.0321699
-0.382896
-0.00291073
0.0420588
-0.125943
0.0317568
0.0594216
-0.242355
0.0272945
0.0288469
-0.319434
0.0386789
-0.367442
0.0378648
0.0418054
0.171007
0.0417862
0.0267122
-0.0801375
0.032751
0.311364
-0.118074
0.0350393
0.0518378
0.267347
0.050767
0.00786015
-0.407462
-0.105258
0.0458445
-0.217175
0.0535815
-0.0924272
0.255845
0.163901
0.0514243
-0.133872
0.0199753
-0.138029
-0.0867531
-0.153047
0.0371782
0.0308753
0.0567776
0.0160333
-0.0145645
0.070299
-0.249396
-0.00229913
0.0354957
0.0176143
-0.01742
0.328152
0.0391619
0.0457201
0.0316847
0.444165
0.0377702
-0.301617
0.0342245
0.071661
-0.218624
0.0537112
0.0373685
0.0711504
0.116452
-0.0496497
0.111257
0.0287929
0.0403428
0.0778085
-0.24964
0.0309105
-0.012929
0.125194
0.036261
0.0343836
0.0818929
0.0324396
0.0441691
0.0341747
-0.296171
0.0564132
0.0186861
0.0376683
-0.0288375
0.0832625
0.105215
0.159384
0.0253855
0.0330852
0.0384532
0.340263
0.0506011
0.532063
-0.321095
-0.0938835
0.0373911
-0.223801
0.0700892
-0.110804
-0.353054
-0.299446
-0.30819
0.042544
0.0728263
0.0355999
0.0442901
-0.324193
0.0369224
0.0326118
0.0554021
0.163151
0.0470175
0.109557
0.042602
0.0795697
0.0801957
-0.141614
0.0429321
-0.40439
0.0315663
-0.14252
0.0390102
0.258036
-0.435715
0.126568
0.0359053
-0.0827931
0.0397103
-0.0509468
-0.311575
-0.0237539
0.0344522
0.0873829
0.0406644
-0.284672
0.036039
0.0349423
0.000803515
0.0871954
0.0792672
0.0301347
0.0356759
-0.393233
0.370497
-0.267909
-0.340617
0.0151652
-0.0398799
0.0395658
-0.0291483
-0.470015
-0.156802
0.0391814
-0.0644078
0.0391097
-0.380388
-0.0418484
-0.0488445
0.0375115
-0.0509363
-0.0899813
0.0382129
0.0347538
0.0120449
0.0382182
0.133733
-0.177042
0.00257556
0.0354348
0.124596
0.0337227
0.0358139
0.0276985
-0.114985
-0.0274397
0.0117326
-0.00582269
-0.0423405
0.0174448
-0.0154735
-0.00967656
-0.0362136
0.00774695
-7.8905e-05
0.0100023
-0.00341694
-0.00290116
-0.0224103
0.10247
-0.361328
0.0230126
0.0314766
-0.0168326
0.0295827
0.0283978
0.0398887
0.000449073
0.0351526
0.130219
0.0503967
-0.00482218
0.0229245
-0.0420339
0.0252167
0.0308588
0.0197708
0.0648948
0.0105376
-0.0156238
-0.0623027
-0.46808
0.273732
0.0435451
-0.00297873
0.0302106
0.0160948
0.0306089
-0.0756455
0.26304
0.0400704
-0.0487967
-0.0431889
0.0964213
-0.127628
0.0407063
0.0247801
-0.00317362
0.00251739
0.0347958
0.0434976
0.0372523
-0.00444406
-0.011965
0.0152077
0.0268961
-0.026855
0.0650287
0.0542467
0.0236131
0.00918463
0.0289465
-0.0357167
0.0216393
-0.54966
-0.0860131
-0.000250294
-0.114726
-0.155308
-0.433294
0.0672111
0.0329905
-0.34206
0.132441
0.155978
0.0415657
0.0443108
0.0184959
0.00895964
-0.248953
0.0716232
0.00833842
0.0452521
0.0381378
-0.00820596
0.0563965
-0.0321275
0.0316023
0.00279446
-0.318399
-0.178883
0.0208169
-0.107584
-0.0382602
0.0296846
0.233224
0.053616
-0.124322
0.540967
-0.0578284
0.0112683
0.0454856
-0.0120248
-0.0425018
-0.0283259
0.0533905
0.0547001
0.0638143
-0.0252712
-0.254308
-0.0458162
0.111816
-0.00394935
-0.312481
-0.347801
-0.235659
-0.34746
-0.0954829
0.045081
0.0558927
0.0757301
0.0070334
0.0173542
0.0575091
0.0199381
-0.547809
-0.105198
0.0524136
0.0209006
-0.0143625
-0.0556377
0.0105073
0.119055
-0.393634
-0.0269976
-0.00553207
-0.034027
0.0262932
-0.324508
0.0262168
-0.312068
0.0213521
0.00151108
0.0210169
0.0356485
0.0353946
0.0188774
-0.404438
0.0283507
0.0549818
0.0110101
0.1008
0.024272
0.0411858
0.0482128
0.0176108
0.0952874
0.0370499
0.0240209
0.0372671
-0.0098618
-0.163181
0.0655306
-0.0258024
-0.0247355
0.0204094
0.416746
-0.186363
-0.0167082
-0.0151292
0.0288428
0.018132
0.0452657
0.105054
0.0142333
-0.0898372
-0.0128678
0.0382221
-0.00105316
-0.00424069
-0.00929539
-0.00858176
0.0245632
0.119804
0.0350673
0.0208677
0.0267431
0.0238893
-0.0074545
0.0452361
-0.408671
0.0591065
0.0699686
-0.0140998
-0.205303
-0.331768
0.0177949
-0.0984828
-0.0410467
0.0495816
-0.248224
-0.223748
0.208061
-0.384297
-0.495923
-0.0420151
-0.186926
-0.0466785
-0.208866
0.345753
0.0319498
-0.335498
0.0286149
-0.0167544
0.572335
0.0310805
0.019678
0.0490056
0.0712411
0.0161053
-0.447856
-0.302795
0.0644688
0.0718331
0.0341073
-0.287656
-0.350299
-0.245947
0.0441588
0.085502
0.103029
0.0128062
0.0597698
0.0884087
0.115647
0.0438997
-0.0733038
-0.286968
0.0723468
-0.036167
0.0418129
0.0188467
0.0879764
-0.0420979
0.0137618
-0.527013
0.444067
-0.0497486
-0.323744
0.0144288
-0.0428575
-0.319453
-0.311342
0.125091
-0.391153
-0.0361779
0.864765
0.0325553
-0.426335
0.0315122
-0.0985191
-0.00751501
-0.48429
-0.357744
-0.342604
0.0329282
-0.00639906
-0.427956
0.00561838
-0.00265503
0.0984424
-0.37846
0.036902
-0.552797
-0.322287
-0.385315
-0.136908
-0.0609773
0.0223853
0.11569
0.127255
0.00102556
-0.315975
0.301609
0.0371327
0.0147993
-0.502589
-0.553331
-0.391547
-0.00709492
-0.413272
0.0234489
0.15345
0.144109
-0.014594
-0.246532
0.0123389
-0.333327
-0.29128
0.00961873
0.0253537
-0.284918
0.00904887
0.0415426
-0.432533
-0.346673
-0.027912
0.105757
0.0483088
-0.380371
-0.310791
0.0115688
-0.0891739
0.0470497
0.107727
0.0213538
-0.098354
-0.286713
0.106258
0.0505138
-0.0490305
0.0320446
0.0726258
-0.327243
-0.00416079
-0.27824
0.0791388
-0.526424
0.0459805
0.000777165
-0.363605
-0.458769
0.00864041
-0.503582
-0.516837
0.0352559
-0.0931162
-0.311515
0.0331666
-0.319708
0.0241307
0.0825415
0.071095
-0.530076
0.0665139
0.0306272
-0.467623
-0.0120452
-0.34787
0.0381403
-0.330176
-0.516469
0.0913292
0.269956
0.43759
-0.0429307
0.00627267
0.000521607
-0.407612
0.643379
0.0361609
-0.221059
0.0405806
-0.0757016
0.0804573
0.482699
-0.36742
-0.0212034
-0.0298988
0.0280541
0.0346837
-0.455157
-0.31193
-0.327309
-0.415972
-0.295421
0.0247746
-0.379194
-0.0100365
-0.264711
-0.331565
0.498415
0.583435
-0.336658
0.0970943
-0.310778
0.00478208
-0.203831
0.392493
-0.0966645
-0.378334
-0.202641
-0.519561
-0.0118807
-0.197795
-0.0266721
-0.304927
-0.264345
0.00368658
0.00447775
-0.390811
0.447423
0.673958
-0.368447
-0.312355
-0.385138
-0.0450223
-0.297487
-0.312584
-0.197965
-0.37649
0.746775
-0.334098
0.748503
-0.461158
0.319833
-0.363081
0.0187422
0.175817
-0.505657
0.222593
-0.273742
-0.307297
-0.337396
0.869796
-0.31236
0.206563
0.140582
0.642686
0.123405
-0.451833
-0.279231
-0.0176587
0.0159482
0.074781
0.525605
0.0239817
-0.00991931
-0.30755
0.100767
-0.143419
-0.149461
0.02125
-0.507128
-0.171276
-0.174798
-0.434701
0.024155
0.108635
0.0229281
0.084814
0.103873
-0.325736
-0.373242
-0.0445381
0.0221446
-0.477458
-0.521334
0.163687
0.197647
0.0997755
0.663194
-0.101371
-0.448569
-0.39258
-0.28985
-0.078804
0.079365
0.760955
-0.458959
0.370591
0.0212874
-0.431332
0.160437
-0.0896565
0.377372
-0.153742
0.0322209
-0.401851
-0.0922791
0.188203
0.817572
0.328086
0.755983
-0.331272
-0.278213
-0.477186
0.161983
0.273715
0.072196
0.377287
0.131366
0.4948
0.27196
-0.0857175
-0.214614
0.0114598
-0.487357
0.884663
0.405369
0.640685
0.511096
-0.279156
-0.346726
-0.309348
-0.331924
0.0592333
-0.437154
0.0913935
0.594828
-0.386368
0.0269902
-0.327046
0.190606
-0.317506
-0.367328
-0.0349279
-0.274495
-0.421243
-0.359333
-0.408667
-0.0270605
-0.484446
-0.152643
-0.373772
0.150957
0.658521
-0.218838
-0.39174
0.823688
-0.390319
0.276088
-0.234643
0.389927
0.0943137
-0.292601
-0.401564
0.434429
-0.303112
-0.326753
0.177188
-0.284418
0.0183174
-0.296374
-0.129702
0.00682897
0.567002
0.78018
-0.30136
0.220958
-0.424062
0.821608
0.0224285
-0.312416
0.0165784
0.765471
0.214294
-0.321825
-0.305135
0.449615
-0.20935
0.0385869
0.343239
0.260991
0.28873
-0.251466
-0.33817
0.686799
)
;

boundaryField
{
    FrontBack
    {
        type            empty;
    }
    Top
    {
        type            zeroGradient;
    }
    In
    {
        type            zeroGradient;
    }
    Bottom
    {
        type            zeroGradient;
    }
    Out
    {
        type            fixedValue;
        value           uniform 0;
    }
    circle
    {
        type            zeroGradient;
    }
}


// ************************************************************************* //
