/*--------------------------------*- C++ -*----------------------------------*\
| =========                 |                                                 |
| \\      /  F ield         | OpenFOAM: The Open Source CFD Toolbox           |
|  \\    /   O peration     | Version:  2412                                  |
|   \\  /    A nd           | Website:  www.openfoam.com                      |
|    \\/     M anipulation  |                                                 |
\*---------------------------------------------------------------------------*/
FoamFile
{
    version     2.0;
    format      ascii;
    arch        "LSB;label=32;scalar=64";
    class       volScalarField;
    location    "105.5";
    object      p;
}
// * * * * * * * * * * * * * * * * * * * * * * * * * * * * * * * * * * * * * //

dimensions      [0 2 -2 0 0 0 0];

internalField   nonuniform List<scalar> 
808
(
-0.03298920730607861
0.04388233885621872
-0.0114246274802629
0.03798763898354814
-0.2951196893198961
-0.05559005290637322
-0.01556065388261473
-0.02400225599862425
-0.193933121280224
-0.08235392861321679
-0.01020299416385487
-0.2506469388159935
-0.03069348664718697
-0.01401270928832787
-0.1249666910732437
-0.01418760257601288
-0.1422444979498128
-0.01373720848176845
-0.01300332061108329
-0.05453158558535281
-0.007789457460710835
0.1164429478075613
-0.06356350454112156
-0.07021917359734096
0.1739917152725644
-0.1003886316546727
-0.1499857240616762
-0.02047823495899262
-0.01764773616538366
-0.02570082375985692
-0.0203790747227782
-0.05723119609301541
-0.02284355483732721
-0.0169793188927074
-0.09781290455244691
0.3451867434107787
-0.03993344835153014
-0.01658417667782409
-0.02245935643051195
-0.02651425988053107
-0.08870030184107577
-0.1244326775775896
-0.05285549774143784
-0.02130615505943501
-0.0555265502033242
-0.04266533282025769
-0.01198428247750753
-0.1815505154170323
-0.0264642064171093
-0.2010130907124568
-0.0170364856638366
-0.06576274197473646
-0.06184545041771875
-0.01518076339505858
-0.1960891497497758
-0.02772575649071858
-0.01094958609129869
-0.01547279430371221
-0.09850520334050265
-0.03896527109160428
-0.1059215106075669
-0.1237425782842299
-0.01443397804123784
-0.1262129660372932
-0.01742465326963371
-0.05264090740279598
-0.1602586387105708
-0.03543270983492226
-0.01543856406816953
-0.4357450658969521
-0.02613863329697104
-0.2975868595953168
-0.02130106226498244
-0.02093854574825657
-0.06218820903258154
-0.0181919670787146
-0.04167221285867129
-0.368004418334002
-0.03645817400888055
0.03812691366247811
-0.09271481910567281
-0.01678637753024206
0.05722694935416963
0.04635796387758025
-0.01751070106280377
-0.0512515010753587
-0.5363648274069278
-0.2294711939950599
-0.05106129448834718
-0.1139894977476753
-0.05531261475239651
-0.1302847346921894
0.03801115581078729
-0.02681625243836577
-0.06296188632532349
-0.1163656419887508
-0.0382510883883185
-0.05251811075691988
-0.1140396428307174
-0.1358865862781994
-0.05303984744650698
-0.04642803196337814
-0.0532890189098454
-0.043930494360679
-0.05676089311896854
-0.07573029802132394
-0.04081887575264848
-0.01096283162632948
-0.03955715408465222
-0.1216073199276396
-0.04961426572325932
0.08092684683084628
-0.04172459191193775
-0.008034716191864615
-0.02759440732411729
0.1810896899630982
-0.03788286862005357
-0.2646439072416177
-0.02071719728686389
-0.05237315893745138
-0.03697436634760995
-0.0496303767692389
0.01428245058330423
-0.04738072162459369
-0.03695528679360121
-0.2207292595011665
-0.0396577664402756
-0.004546923910141893
-0.07422119095867941
-0.06996933814909645
-0.1433429620384416
-0.02110917497262185
-0.07386582284804687
-0.04458120903633549
-0.02302394152472916
-0.01476551793107079
-0.006176868899076201
-0.007357801804184068
-0.05171344466639149
-0.04868062550394008
-0.2197811105655597
-0.05512565655834264
-0.008200662115575756
-0.0217983231487832
-0.1495765294286673
-0.002656207152520001
-0.07491789288022266
-0.02055890115309357
-0.00042825041161056
-0.01103238128700096
-0.03278541711452388
0.09272124775944048
-0.03767956761710988
0.2512755150205492
-0.2671708099553226
-0.1343020791745485
-0.03797120346442095
-0.09099499837766901
-0.009334910174742705
-0.1151118805788125
-0.1709566151869996
-0.2201635852397731
-0.1742961000603491
0.0572280746463857
-0.06404648165883509
-0.02062339630178281
-0.06593674048187873
-0.1647422149006482
-0.02296357334440279
-0.01853358676731142
-0.05073808730189359
-0.02111285716210644
-0.007449258599425119
-0.1052034539272154
-0.02351467859102585
-0.04376752253567236
-0.07129020402155878
-0.1584430201612248
-0.03302741535617257
-0.3839753340077988
-0.01796851140808512
-0.2284187024637166
-0.04322631608202386
0.03345461571039788
-0.1070365392359151
-0.01683800305621215
-0.04345294242619251
-0.1031367403455403
-0.01782955922245761
-0.09417445699132547
-0.2072067989959709
-0.07063937945259664
-0.02411014437262013
-0.04666112345903957
-0.04176200396672055
-0.2038898733191704
-0.0223737831731411
-0.0193108048078575
-0.0112388561240637
-0.05771258290247566
-0.04939233108074045
-0.0225475824722316
-0.02067573270827377
-0.2348946370606358
0.1266415966989081
-0.2081986497079579
-0.1881965611600016
-0.01175451803494059
-0.01122939044700477
-0.06639763967035305
-0.0105125181302804
-0.4944245331936324
-0.1215625808217737
-0.01956891901103037
0.0001331945512002645
-0.02365747796696557
-0.2765225787066255
-0.2812858416003314
-0.007272758709671439
-0.01726504517063495
-0.001107528443240475
-0.3524630736999352
-0.02853722998109898
-0.02933548847468102
-0.01261129695516239
-0.01947081376439194
0.0482967557277288
-0.1168333800930432
-0.01444022805246735
-0.02093981690864821
-0.04578587435103752
-0.0183725695860186
-0.01634439000552615
-0.02355116159110181
-0.06830461422560695
-0.0110813646227942
-0.01894735734361743
-0.008807117005620474
-0.0009220712598553315
-0.02937774258934489
-0.002004162600546986
-0.002008686912080279
-0.005666824100247339
-0.02553512700184186
-0.007999868526369464
0.001488029174057611
-0.004272031140515254
0.001431240064876703
0.002455954382579612
-0.009016648531767833
-0.1340801439495386
-0.002920576101453751
-0.0009812597348480329
-0.04769852707302653
-0.02153361091889129
-0.0236418261947554
-0.01420120272530543
-0.006237211186867126
-0.02107496368719546
-0.04057377916280167
-0.01471594342197114
-0.01286353815393479
-0.01124742469412096
0.00873177389004454
-0.009852163659362085
-0.01234027451254161
-0.01157553942645025
-0.0102367637762734
-0.01039671635912208
-0.01199189751806324
-0.01365473761137731
-0.2948197439633174
0.05845618677677943
-0.01582598071713049
-0.01476306570965326
-0.01260719702969877
-0.01182117862240401
-0.008499280415156305
-0.09692367400040632
0.01370305069651119
-0.01392862280691738
-0.01369884939081605
-0.01051913250117845
-0.05054473386585343
-0.009617397158057742
-0.01354631542174259
-0.01038558219728672
-0.0008579733690238146
-0.01160172497947085
-0.01215717958407237
-0.02425401587156623
-0.01539244933308788
-0.01210371391517105
-0.0135907050833031
-0.008146453670298901
-0.01215484942429157
-0.01142212952187377
-0.06015953278366085
-0.01365358790705509
-0.01166500558279244
-0.009119934608636242
-0.01526198117510813
-0.01366787248971139
-0.01562170379135973
-1.361267190618835
-0.1009080531220936
-0.01275770853145514
0.02680184911382925
-0.1600771775898833
-0.09197222528686103
-0.01235475438685458
-0.0141553711707474
-0.229966492953642
-0.02780630937150241
-0.01725004824761183
-0.01233451400226611
-0.0203454783223788
-0.01001799391580717
-0.03082942413975162
-0.4065365994681261
-0.01227829203815296
-0.01409390061027989
-0.004453987790509989
-0.01138838015673753
-0.01070768063573541
-0.01385710396309541
-0.006175835875516142
-0.02720833691124111
-0.01188822472304054
-0.1747707375809391
0.02022883238942896
-0.007267129071657419
0.00446417415736803
0.0130274636854872
-0.04908980378933545
0.02720728697679303
-0.01340079972997495
-0.1314097787722421
0.2830609348737171
-0.007871953316651435
-0.01377281051612589
-0.007941979873094881
-0.03273400495208156
-0.1263026324244508
-0.01235396249709878
-0.01191219411989727
-0.01723129657951734
-0.01346220122187501
-0.0417561851565337
-0.2211815670874262
-0.009171929520020746
-0.04403764625561238
-0.0384188449348761
-0.1797581934366569
-0.1537818653935378
-0.1402825687904768
-0.2203669978043919
-0.003804824354729871
-0.02067484540421455
-0.01483592560623397
-0.01359181927299162
-0.03385309358558294
-0.0245668446305963
-0.01399013056567473
-0.01484448268363586
-1.06558850522216
-0.005013224599207269
-0.01308774715968038
-0.01810287573473562
-0.02467667997690638
0.001304779269629901
-0.01494481160299243
-0.02490363404880183
-0.1468618984950915
-0.01369335390285526
-0.02131687038094428
-0.01441863079391347
-0.001669162998094187
-0.1778880854109439
-0.0124403709479509
-0.1527985581194573
-0.01550645102985949
0.001880340342567503
-0.01418937841430003
-0.02424797265354164
-0.01605237792424912
0.006024207789409942
-0.2665810623256902
-0.02667854302259204
-0.01661296482144322
-0.009236006972352521
-0.01079154899315347
-0.0292304657731356
-0.01376535890290372
-0.02102550589435793
-0.02051007337635783
0.01312100569926295
-0.09692958503410384
-0.02112979004994724
0.009561555085998028
-0.05923985033832239
0.183410806255065
-0.107127719524212
-0.3140338180654381
-0.03040359265871373
-0.02596756589428383
0.1520262453696374
0.0813166042977619
-0.003890652844227312
0.05205272432395906
-0.01497859480528096
-0.01349302811906664
0.002710245258951236
0.007447234274682349
-0.06437791678289995
-0.005153232578565649
-0.05576202086226608
-0.02297014018278267
-0.01571104012969862
-0.0365268197347045
-0.03292398422117616
-0.00668321197478459
-0.014837627819224
-0.03621683528180061
0.03302496715978976
-0.03868116251795537
-0.01406084558727254
-0.1202528065760251
-0.03107281173990529
-0.04009447220019331
-0.6658889533832447
0.01776945467147161
-0.01016244343120642
-0.00595986589078253
0.1756294523830465
-0.09812041192838895
-0.03592841479411107
-0.2407411905489725
-0.0155472296706697
-0.01605089032457252
0.08232213604639821
-0.1785484982771197
-0.2363791840423685
-0.1865329560379668
-0.673901499018459
0.004409792333527468
-0.01776617830797409
-0.01610334792912896
-0.09170081522085186
0.1189481938570924
-0.0213298677805836
-0.2294374354882208
-0.03632489021391157
-0.007033539239404258
0.281540508094407
-0.01092120325778829
-0.09018303829788604
-0.1540013313706928
-0.003531835049520199
-0.04172043852584275
-0.05215835121152437
-0.1972988431491416
-0.007706297183086711
-0.03932306084687789
-0.003044574877850767
-0.5414575736051164
-0.1911874617891293
-0.1798993494719584
-0.02351439046512595
-0.008900441108263041
-0.06251196691766457
-0.05608644175625083
-0.01434656728843303
-0.06998553595485839
0.005260098055924703
-0.017586995598201
-0.0933123088096834
-0.2782044950030947
-0.008704491699253872
-0.02519330754321381
-0.02128834404165894
-0.0767730383129852
-0.08841664451245675
-0.09018767601611066
-0.01189333423107074
-0.9064302981889093
0.1627884363886483
-0.08060557627883862
-0.2479710667727887
-0.04111190782319512
-0.009500819672563457
-0.2542594431715265
-0.2007297857175533
-0.03029078597014595
-0.1189889316499735
-0.01920143995659871
0.5638012109852363
-0.02526644941824182
-0.215756308801466
-0.02488793755109094
-0.004687370043829373
-0.01115237353693364
-1.239250218265398
-0.1793962401196217
-0.2250041723783995
0.005187333001487349
-0.03962092200520836
-0.2388338001613063
-0.06744742293596032
-0.05237939201030972
-0.1476485492766039
-0.1773662658886606
-0.07040535624357297
-1.210788585618859
-0.1560762485977447
-0.5425653234077488
0.08039252826957757
-0.005771935545410613
-0.02089454783153199
-0.04513872631722326
-0.03746819516541789
-0.02772921030721746
-0.1280638692801017
0.08201492997618011
-0.002665321137778737
-0.01001839245076008
-0.5624566475648038
-0.8468656581345824
-0.1736448880261688
-0.007887303326421593
-0.1276944983401551
0.0005279469442730103
-0.0001448782169099528
-0.002696568493144611
-0.06129160838369493
-0.2318364998164074
-0.01323173250443451
-0.1144667056983595
-0.1585730741122364
-0.01310221079183056
-0.0342607270299019
0.02970867784590193
-0.05906783682689618
-0.07252763740894631
-0.4913164329055573
-0.2077055380668472
-0.0789344478262005
-0.07630282617792201
-0.01929776829329114
-0.1161311283432768
-0.1621281623116146
-0.08004112370178286
0.02424242986713878
-0.08779429989032195
-0.05090215547275394
-0.01488681825489314
-0.1111075216520734
-0.2821693506787836
-0.06011424547328707
-0.01793583245796109
-0.0001478707239501073
-0.01007644453247732
-0.01052214295133735
-0.2345089496776203
-0.01463784695447866
-0.2149713407185456
-0.01041728839429837
-0.07542831846969644
-0.004476580560426516
-0.02328970145057396
-0.3936807636212346
-0.9325424806503033
-0.01126869527572974
-1.035617338661764
-0.5997959618487246
-0.01040106062699133
-0.6665682946105798
-0.1894517601313958
-0.005607262825893996
-0.1240170441794835
-0.01677049655104396
-0.12652931072767
-0.06422849510133935
-0.08268231973945404
-0.005194930412810292
-0.002554582621691176
-1.352481662913682
-0.01157060717092319
-0.1801283660187702
0.001047418289443781
-1.000163497101754
-1.254409355272557
-0.0774511998654704
0.01518278312343977
0.1646759939937091
-0.004570676604566323
-0.02299443718670414
-0.00425386699607971
-0.2400353783092695
0.3653138512318763
-0.04243767362298469
-0.2154153225818254
-0.0151435361139988
-0.6457906433870173
-0.07142992133477713
0.1875682354525542
-0.3024929713134272
-0.05099168261302889
-0.07063459772045301
-0.01587833726841657
-0.02143851674373887
-0.5959003121682757
-0.1530479685658687
-0.09324967872411757
-0.1197011406364034
-0.5469687501780555
-0.04554025489349931
-0.8968908332225541
0.000464806001214182
-0.2452930314901557
-1.061132744680356
0.16197048543815
0.2879843577889567
-0.1767415732911294
-0.1870065058538996
-0.2188148262743976
-0.06562342307580318
0.02415157607973445
0.04206116582397913
0.003695216130412539
-0.1578442446568334
0.02662321086929978
-1.373620282393984
-0.08763258053174923
-0.4819349024390635
-0.3376000919711887
-0.2186755782744463
-0.1820264931417689
-0.01695301095291835
-0.01539913367141544
-0.09712885144868702
0.1759522635336816
0.3837636850454136
-0.1973067355748552
-0.1502329153820483
-0.2153839753942668
-0.06391397336342944
-0.159369971450525
-0.1724701928886652
-0.1284026463323223
-0.1156535308854565
0.4623506168574505
-0.283354182410975
0.4347490051791401
-0.5873944694394079
0.07400598166469123
-0.1885872727429658
-0.06826673602613047
-0.07895650578448571
-0.8980441424880246
-0.2126393669849258
-0.1946821376478677
-0.3562859961651098
-0.4683083910327782
0.5694808267392103
-0.2179564940238494
0.003359025050634471
-0.06645591281941544
0.3467624441938452
-0.03419960971149882
-0.1268101618701475
-0.1834762132413529
-0.06389342939218541
-0.01639361858653674
-0.2017561844765696
0.1994797321131618
-0.01279770278500881
-0.09925859386673798
-0.1782403388660346
-0.3232019421760606
-0.3063476808970753
-0.07836799101574085
-0.009764203837551723
-0.08322428667654928
-0.6452061555345566
-0.6796763677481666
-0.3254527275918641
-0.05951049642917789
-0.04884282570804947
-0.02440142760348074
-0.07073922152718669
-0.05421761415039192
-0.3694944958700258
-0.969128255158849
-0.009406386769114993
-0.08587535711392733
-1.152070890670117
-1.048404733789693
-0.1115219212110002
-0.04256253990953
-0.06726479558762978
0.3871113137507917
-0.3371810384797106
-0.04947649996189733
-0.6089955028027495
-0.1331436051133303
-0.2467598376869671
-0.2164182861564051
0.4726944718092304
-0.6402702076219031
0.07854806432451553
-0.02833032689295389
-0.5725045106578247
-0.05522022401623115
-0.3692866341773028
0.1112901725310272
-0.1946091863882952
-0.06181504293002645
-0.1289993848504505
-0.3544801370908186
-0.08168665445302643
0.5165139813460274
0.08767331543579347
0.4684668556640456
-0.1098239987091568
-0.208575258729762
-0.5084587389142347
-0.1367821537619884
0.02352198939689706
-0.05605445135443642
0.09819978504292082
-0.2992787838094035
0.2365236188296711
0.003521245102620704
-0.002561474317564131
-0.5049171033202596
-0.1802289240789182
-0.0905571325159228
0.5814459062417274
0.1401326698295493
0.3411321509261975
0.2250117831318741
-0.570727662070215
-0.1929809573511685
-0.2256385281185556
-0.2198126863308922
-0.06270451357849448
-0.6840403071762079
-0.1871872554272698
0.3033779759237418
-0.1889011328433768
-0.01146046853837015
-0.1596238118459343
-0.01241180226455657
-0.1688599843960521
-0.4488515017901779
-0.07578424646215619
-0.2099074023676562
-0.07413556497378045
-0.09945018618101642
-0.1349430616955358
-0.07182270560027483
-0.4404773402628102
-0.4072497034739119
-0.02231769392303023
-0.07853693950302129
0.3316948473007365
-0.253473813135457
-0.172454978118199
0.5230068297687838
-0.195382911744708
0.02253488779149316
-0.4578520097898269
0.05313508802251654
-0.0588412447476939
-0.141391909975749
-0.5952547633949942
0.1564183218882831
-0.5716645732587898
-0.5440813514316187
-0.09993626375688848
-0.5163159944828304
-0.03592570276807236
-0.1509890458689252
-0.4180954316143443
-0.01598817390317625
0.289226827057146
0.4901095714013061
-0.1673849699316367
-0.004729951376502059
-0.09148147758113789
0.524862017865542
-0.03196805011593989
-0.4480565730457282
-0.03166574013462957
0.4625982808522325
-0.01805065578615017
-0.5533871174590471
-0.2461113701656077
0.1792089428221489
-0.3172261402715332
-0.183938734115198
0.04590816765573449
0.03068354140171162
0.05728994702885283
-0.3061741477361405
-0.1612290774243026
0.4128194254869311
)
;

boundaryField
{
    FrontBack
    {
        type            empty;
    }
    Top
    {
        type            zeroGradient;
    }
    In
    {
        type            zeroGradient;
    }
    Bottom
    {
        type            zeroGradient;
    }
    Out
    {
        type            fixedValue;
        value           uniform 0;
    }
    circle
    {
        type            zeroGradient;
    }
}


// ************************************************************************* //
