/*--------------------------------*- C++ -*----------------------------------*\
| =========                 |                                                 |
| \\      /  F ield         | OpenFOAM: The Open Source CFD Toolbox           |
|  \\    /   O peration     | Version:  2412                                  |
|   \\  /    A nd           | Website:  www.openfoam.com                      |
|    \\/     M anipulation  |                                                 |
\*---------------------------------------------------------------------------*/
FoamFile
{
    version     2.0;
    format      ascii;
    arch        "LSB;label=32;scalar=64";
    class       volScalarField;
    location    "28";
    object      p;
}
// * * * * * * * * * * * * * * * * * * * * * * * * * * * * * * * * * * * * * //

dimensions      [0 2 -2 0 0 0 0];

internalField   nonuniform List<scalar> 
808
(
0.128333
0.0203669
0.0206316
0.128525
-0.17595
0.0210199
0.0077742
0.0340976
-0.0903504
-0.0149327
0.0320952
-0.101577
0.0297627
0.0159665
-0.294584
0.0265427
-0.310845
0.0227401
0.0237039
0.0123752
0.0355047
0.386943
0.0744733
0.00941975
0.463105
-0.152784
-0.0319994
0.00884714
0.0175238
0.0142901
0.0123226
0.0245558
0.0214331
0.00958066
-0.0737885
0.641428
0.0184382
0.0180747
0.0258966
0.019736
-0.0449719
-0.0355148
0.0399874
0.025742
-0.128525
0.0911903
0.0192955
0.0389287
0.0205114
-0.129137
0.00902883
0.028725
0.0481674
0.00855012
-0.0933823
0.0175489
0.0100178
0.0426105
-0.00619602
0.011834
-0.258977
0.027531
0.0414099
-0.168364
0.03578
0.0505143
-0.221478
0.0251058
0.0161367
-0.223944
0.028267
-0.24902
0.0275181
0.0240084
0.21204
0.0132931
-0.00851897
-0.0765398
0.0121375
0.316919
-0.104921
0.0190053
0.0352537
0.290511
0.0122271
-0.0261423
-0.292093
-0.114695
0.0340274
-0.193245
0.0466205
-0.0790764
0.258923
0.161814
0.0447629
-0.243774
0.0253709
-0.0845777
-0.0910515
-0.208409
0.0177926
0.00269224
0.0466913
-0.0224288
-0.123334
0.0613542
-0.126902
0.0099279
0.0156148
0.0575322
-0.0797028
0.339132
0.023327
0.0495095
0.0223216
0.466489
0.0175657
-0.207849
0.0229675
0.0643992
-0.287508
0.0404334
0.0187201
0.0665095
0.115625
-0.0573696
0.120843
0.0663098
0.0437149
0.071311
-0.226525
0.0331507
-0.0447352
0.127599
0.0265552
0.0147533
-0.0107661
-0.0040518
0.0249283
0.013047
-0.312446
0.0578457
0.00808061
0.0255157
-0.0336118
0.0257693
0.105662
0.169049
-0.0267849
0.00415464
0.0230082
0.349195
0.0361019
0.54498
-0.281694
-0.100668
0.0210487
-0.168339
-0.00457802
-0.1164
-0.248099
-0.303321
-0.22414
0.0240395
0.0651322
0.025451
0.0271735
-0.223427
0.0217376
0.0416677
0.0466634
0.162712
0.0249449
0.148904
0.0201259
0.0802287
0.0738034
-0.122742
0.0278728
-0.272076
0.0359182
-0.150219
0.0219473
0.280631
-0.269559
0.120399
0.0267845
-0.15064
0.0291609
-0.0965767
-0.283924
-0.0711642
0.0217709
0.0947668
0.0213381
-0.30354
0.0197873
0.0394887
0.0118198
0.081993
0.0745036
0.0355802
0.0229167
-0.241203
0.385004
-0.29363
-0.250992
0.0125007
0.0347018
0.0239458
0.0182654
-0.317407
-0.251047
0.0190587
0.0250373
0.0225119
-0.252999
-0.0438027
0.0278926
0.0439512
0.0212885
-0.0950928
0.0334319
0.0345763
0.00439322
0.0243014
0.12877
-0.28055
0.0855586
0.015277
0.120522
0.0204099
0.0238323
0.012081
-0.078986
0.0372155
0.0151447
0.00536033
0.0233393
0.0186479
0.0065967
0.0020822
0.00316312
0.0100333
-0.000759436
0.00457523
-0.00881934
-0.000782527
0.00905416
0.00431029
-0.25202
0.000840876
-0.0206348
-0.150539
0.00170043
0.0165773
0.0233183
0.0021157
0.0275827
0.130465
0.0526083
0.0127149
0.00924416
0.0745324
0.0231762
0.0137416
0.022521
0.03513
0.0394363
-0.0205256
0.0449697
-0.313181
0.281361
0.00246688
-0.00866564
0.0216918
0.00787881
0.0125429
-0.23451
0.301062
0.0352337
0.0450687
0.0342281
0.0948627
-0.0803898
0.018278
-0.00897904
0.0648923
0.00354094
-0.0288953
0.0272692
0.0305848
0.05115
0.0471521
0.0368497
0.0165168
0.0201281
0.0601428
0.0306237
0.0287342
0.033956
0.0232068
0.0552077
0.0155087
-0.42712
-0.0893706
-0.00214083
0.0529183
-0.147048
-0.211106
0.00924763
0.0240705
-0.255428
0.14087
0.171981
0.023322
0.0198704
0.0624558
0.00487803
-0.166503
0.0249342
0.00304471
0.0247766
-0.0190826
-0.0249732
0.0260836
0.0504999
0.00623809
-0.00747851
-0.260336
0.0138039
0.0332207
0.0859091
0.123563
0.0169827
0.236556
-0.0124967
-0.141035
0.56261
0.0386511
0.00451989
0.0253594
-0.0280361
-0.0497724
0.0916538
0.0252406
-0.00479507
0.0294457
-0.0308107
-0.266403
0.0690778
0.108566
-0.0548813
-0.261295
-0.251939
-0.272395
-0.249418
0.0623075
0.0284043
0.0117988
-0.0361402
-0.0198987
0.00950611
0.0291513
0.00309764
-0.420964
0.0721511
0.0410095
0.0224845
-0.382975
0.0391844
-0.00547062
0.123763
-0.251544
0.0638499
-0.0227097
0.0860779
0.00862293
-0.256142
0.0418622
-0.320598
0.0207282
-0.0315485
0.0229863
0.0149514
0.0145699
-0.0343078
-0.259796
0.0133415
0.0083305
-0.0268286
-0.00519911
0.00341788
0.038653
-0.00872282
0.0032866
-0.0331612
0.0566915
0.0275987
0.0152199
-0.358956
-0.0833025
0.0596535
0.0331538
-0.145454
-0.0200632
0.444779
-0.301861
0.00786897
-0.158137
0.0317683
0.0432002
0.0226572
-0.0873262
0.00562759
0.0600665
-0.0619163
0.00605745
-0.00315937
-0.00659131
-0.0101034
-0.010177
0.0245247
0.128771
-0.068007
0.0182665
0.0124438
0.0184101
-0.0666633
0.0302749
-0.306864
-0.0657075
0.0258907
-0.00348977
-0.228934
-0.296715
-0.00355081
-0.0436697
-0.0321952
0.0281324
-0.0485872
-0.185472
0.229634
-0.233521
-0.373489
-0.362549
-0.0413241
-0.0874565
-0.297897
0.366735
-0.0210687
-0.26273
0.0168939
0.0147874
0.596187
0.00704776
0.0292438
0.044672
-0.0216742
-0.000281026
-0.222592
-0.303031
0.06764
0.0750412
0.0279991
-0.203028
-0.224281
-0.234528
0.018434
0.00477759
0.0963116
-0.0109006
-0.024514
0.0830098
-0.0190324
0.0329761
-0.182857
-0.320298
-0.0361042
-0.096318
0.0270758
0.0123518
0.0897514
-0.0437238
-0.0202305
-0.376216
0.470133
-0.281544
-0.261728
-0.0300674
-0.0208421
-0.271976
-0.265923
0.133353
-0.257599
-0.217751
0.878175
0.0214924
-0.27391
0.0123465
-0.0982612
0.0336609
-0.381029
-0.282198
-0.231144
-0.00395452
-0.297683
-0.277734
-0.00391254
-0.0114625
0.10154
-0.223726
0.0342212
-0.414857
-0.33673
-0.398342
-0.199011
-0.0204122
0.0198809
0.109638
0.142383
-0.0334107
-0.25276
0.323637
0.0851947
0.0152509
-0.351002
-0.410829
-0.244498
0.0502258
-0.267839
0.109182
-0.0443431
-0.0619203
-0.261729
-0.170393
0.0180211
-0.251432
-0.313854
0.0118904
-0.00111043
-0.0315226
-0.000351072
0.0388677
-0.30041
-0.261703
-0.0930678
0.10096
0.028738
-0.255682
-0.297555
-0.300111
-0.280787
0.0414321
0.103455
0.00782811
-0.28371
-0.314237
0.104504
0.0292279
-0.1981
0.0305149
0.01957
-0.345001
0.0328715
-0.203488
0.00965922
-0.274917
-0.0138326
-0.000619471
-0.377237
-0.466757
0.00374172
-0.395035
-0.374209
0.0233376
-0.0711478
-0.276169
-0.0208025
-0.251241
0.0423072
0.080104
0.0771797
-0.238514
0.0636037
0.00562208
-0.454747
-0.00580023
-0.276636
0.0222387
-0.25135
-0.517829
0.124949
0.277357
0.458592
0.0202167
0.00490355
0.000650811
-0.25824
0.657827
0.0250573
-0.22041
0.0338016
-0.0204959
0.102156
0.493279
-0.382338
-0.0269602
-0.0296527
0.0392894
0.0145691
-0.463435
-0.254917
-0.270969
-0.304759
-0.216116
0.0119321
-0.292312
0.118082
-0.275365
-0.31248
0.518102
0.597355
-0.339365
0.146648
-0.273953
-0.0125932
-0.0788413
0.411924
-0.0442953
-0.24848
0.0111106
-0.514165
-0.0182804
-0.200355
-0.0200639
-0.326069
-0.291964
0.000705261
0.00748688
-0.246071
0.475682
0.686927
-0.239279
-0.309955
-0.249274
-0.0395809
-0.317369
-0.285891
-0.18327
-0.246556
0.763604
-0.351261
0.764982
-0.334246
0.352479
-0.236681
0.00975016
0.179094
-0.509074
0.258675
-0.286815
-0.321156
-0.347523
0.883373
-0.266695
0.230718
0.174344
0.665161
0.144152
-0.347735
-0.308726
-0.190539
0.0150669
0.0886929
0.548672
0.0171469
-0.0179687
-0.289137
0.121082
-0.0772416
-0.345456
0.0298177
-0.314968
-0.106836
-0.155351
-0.285396
0.0122157
0.120612
0.00506609
0.0797007
0.132303
-0.345509
-0.357976
-0.0103264
0.015258
-0.468701
-0.518801
0.179808
0.198382
0.102918
0.678421
-0.0365236
-0.1983
-0.385382
-0.312325
-0.0188601
0.084736
0.775053
-0.456754
0.404884
-0.0025831
-0.436686
0.157926
-0.0744452
0.411648
-0.158016
0.0219281
-0.253158
-0.0331637
0.229227
0.832264
0.354838
0.770821
-0.274735
-0.317684
-0.335578
0.170516
0.275259
0.067786
0.38816
0.174037
0.514076
0.281308
0.00817137
-0.136605
0.0560847
-0.290347
0.897769
0.430943
0.658191
0.526228
-0.266743
-0.255751
-0.281405
-0.255587
0.0539204
-0.33802
0.139481
0.606701
-0.262146
0.0178008
-0.252782
0.192464
-0.340184
-0.377896
-0.164114
-0.306193
-0.308423
-0.278599
-0.261382
-0.122886
-0.333243
-0.085111
-0.116164
0.151029
0.678967
-0.223931
-0.236492
0.83829
-0.239208
0.31518
-0.238304
0.41888
0.105924
-0.249393
-0.404315
0.450536
-0.218429
-0.324464
0.221391
-0.276211
-0.0194962
-0.30624
-0.118008
0.0360577
0.591888
0.796142
-0.300297
0.250315
-0.288442
0.835818
-0.00518804
-0.318736
-0.0237278
0.782494
0.213794
-0.325889
-0.285827
0.47917
-0.214207
0.0386656
0.357191
0.261387
0.319233
-0.255518
-0.330861
0.704612
)
;

boundaryField
{
    FrontBack
    {
        type            empty;
    }
    Top
    {
        type            zeroGradient;
    }
    In
    {
        type            zeroGradient;
    }
    Bottom
    {
        type            zeroGradient;
    }
    Out
    {
        type            fixedValue;
        value           uniform 0;
    }
    circle
    {
        type            zeroGradient;
    }
}


// ************************************************************************* //
