/*--------------------------------*- C++ -*----------------------------------*\
| =========                 |                                                 |
| \\      /  F ield         | OpenFOAM: The Open Source CFD Toolbox           |
|  \\    /   O peration     | Version:  2412                                  |
|   \\  /    A nd           | Website:  www.openfoam.com                      |
|    \\/     M anipulation  |                                                 |
\*---------------------------------------------------------------------------*/
FoamFile
{
    version     2.0;
    format      ascii;
    arch        "LSB;label=32;scalar=64";
    class       surfaceScalarField;
    location    "28";
    object      phi;
}
// * * * * * * * * * * * * * * * * * * * * * * * * * * * * * * * * * * * * * //

dimensions      [0 3 -1 0 0 0 0];

oriented        oriented;

internalField   nonuniform List<scalar> 
1171
(
-0.945559
0.945559
0.78355
-1.09277
0.309216
-0.372238
-0.723741
1.09598
0.0544413
-0.0628884
-0.277112
0.34
-0.78355
0.0918074
0.691742
0.948877
-0.213043
-0.735833
0.852688
-1.04734
0.194655
-0.35835
-0.0338035
0.392153
-0.00104757
0.607653
-0.606606
-0.46635
0.928536
-0.462186
-0.421238
1.02589
-0.173206
0.266904
0.0813353
-0.348239
0.99653
0.0293636
0.293003
-0.0260995
1.03731
-0.0407767
0.629454
-1.00169
-0.790963
0.612048
0.178915
0.370765
-0.837116
0.560893
-0.91548
0.354586
-1.07983
0.670824
0.409004
-0.643538
0.642491
0.0332544
-0.252714
0.21946
0.0216859
-0.627832
0.606146
0.46864
-0.502443
-0.835527
0.880801
-0.0452745
1.00371
0.0335915
0.917734
-1.07153
0.153795
1.03682
-0.0331073
-0.702947
-0.0880158
1.24935
-0.84913
-0.40022
0.201295
-0.0737502
-0.418317
0.492067
-0.273434
0.183845
0.0895894
-0.60645
-0.486316
0.969772
-0.052038
-0.0168136
0.8742
-0.857386
0.518234
0.731117
0.533903
0.0263981
0.442242
-0.790079
-0.104969
0.895048
0.590071
0.228778
-0.818849
0.0425256
0.5796
-0.622126
-0.509201
-0.570627
-0.386205
-0.685324
0.0302694
0.243472
-0.273741
-0.946496
-0.0286857
0.975182
0.37758
0.0145732
0.858611
0.0902654
-0.605089
-0.0384496
0.0363642
-0.826443
0.158544
0.897782
-1.05633
-0.404344
0.0236976
0.380646
-0.710308
-0.236188
-0.701507
0.860051
0.635847
0.292689
-0.580208
0.992853
-0.819553
-0.1733
0.00465711
-0.132188
0.127531
-0.459873
-0.0425701
-0.298016
0.933863
-0.018413
0.446064
-0.427651
-0.476144
1.06622
0.714464
-0.819433
0.39524
-0.0819659
-0.313274
0.764811
-0.764811
-0.93833
0.0376488
-0.314761
-0.698779
0.681966
-0.0297711
-0.142387
0.172158
0.895801
-0.0216018
1.04103
-0.812251
0.224192
-0.319757
0.0955649
0.996562
-0.137951
-0.679425
-0.0448993
0.724325
0.148783
-0.231964
0.0831811
0.80578
-1.01882
-0.443096
0.311168
0.131928
0.656078
-0.634392
0.876579
-0.395556
-0.481023
0.490374
-0.694319
0.0363861
0.657933
0.177713
0.666465
0.049616
-0.716081
0.132173
-0.0945244
-0.513445
0.109101
0.0354017
-0.904159
0.868757
-0.546497
-0.763497
0.0605502
0.502233
-0.0599908
0.274983
-0.833151
0.558168
0.424506
0.575494
0.596958
-0.560594
-0.376827
-0.0379572
0.414784
0.544449
0.220362
-0.650322
0.692848
0.0839157
0.897588
0.00344622
-0.682872
-0.766212
0.801613
0.621566
0.1033
0.369978
-0.473278
-0.155619
0.506106
0.0734942
0.817414
-0.641389
-0.176025
0.654333
0.338521
-0.429604
0.702785
-0.599485
0.409841
0.151052
-0.0559749
-0.692387
-0.14277
0.835157
-0.120642
-0.644169
-0.612439
0.363274
0.249166
0.65946
-0.656014
0.310229
1.02481
0.0162164
-0.766212
-0.051291
0.0559481
0.714464
0.78344
-0.78344
0.843608
-0.830003
-0.0136049
-0.454321
0.878826
-0.192287
-0.321158
0.763859
-0.669
-0.0948591
-0.821709
0.129321
0.107986
-0.713074
0.819433
-0.975052
-0.175726
0.185416
-0.00969061
0.122573
-0.990819
0.868245
0.551212
-0.0173083
-0.289979
0.595524
-0.305545
-0.655345
0.777918
-0.160093
0.718582
-0.845783
0.127201
1.20265
-0.703773
-0.498882
0.727465
-0.0708232
-0.00729277
0.00999218
-0.00269941
-0.801947
-0.950956
0.227215
-0.698779
0.57346
-0.549762
-0.0405998
0.723344
-0.682745
0.779817
0.165742
0.491519
0.508481
-0.00969993
-0.653282
0.662982
0.740454
0.0769599
-0.727465
0.801613
0.17979
-0.432504
-0.0328713
0.0143426
0.0185287
0.670882
-0.436295
-0.234587
0.691742
-0.01598
-0.232374
0.550919
0.119963
-0.0139684
0.00104425
0.0129242
0.00444301
-0.0117358
0.120292
-0.202258
-0.943533
0.0339937
-0.14192
-0.0554335
0.117796
0.768199
0.742343
-0.166849
0.425026
-0.465626
-0.162302
0.386494
0.639128
0.0526137
0.229662
-1.05967
-0.975052
0.317589
0.681966
-0.158021
0.0156342
-0.802193
0.996677
-0.194484
0.481953
-0.101307
0.797934
0.305681
0.245904
0.0470993
-0.680757
0.680757
0.223231
0.671816
-0.0130001
0.459064
0.479067
0.00424695
-0.0371183
0.549869
0.00134224
-0.655345
0.572285
0.191573
0.0141938
-0.00420163
-0.639128
0.179097
0.81758
0.0291044
-0.731213
0.702109
0.758913
-0.82199
0.0630774
-0.779817
-0.0302321
0.0421697
-0.0119376
0.0845204
-0.127218
-0.106212
0.23343
-0.00647133
-0.0074971
0.78194
-0.752836
0.867392
0.228587
-0.462027
-0.466704
0.928731
-0.00178022
0.00178022
0.147459
0.371612
0.713357
-1.08497
-0.200943
-0.559181
0.760124
-0.020387
0.192545
0.383595
-0.234811
1.0231
-0.651487
0.739379
0.928345
-0.214987
0.191308
0.777918
0.604712
0.247678
0.633123
-0.644169
0.319243
-0.0521549
-0.0128496
0.0650045
0.885272
-0.093062
-0.79221
-0.563936
0.530829
0.545679
-0.563936
-0.604712
0.530829
0.00575576
0.953397
-0.0860049
-0.544449
0.461966
0.0824828
0.513204
0.632256
-1.14546
0.503654
0.519445
0.619489
0.517805
-1.13729
0.430125
0.498219
0.461966
-0.518144
-0.508133
-0.70674
-0.557847
-0.122439
-0.00451054
0.00451054
0.694522
0.542337
-1.10018
0.740551
-0.370573
-1.10204
0.398271
-0.68014
0.443951
0.011792
-1.0066
0.994808
0.452364
0.0493314
0.83594
-1.16353
-0.991701
0.0198252
0.971876
0.216065
-0.0691573
-0.146908
0.742348
-0.794386
0.997273
-1.04736
0.0500868
0.0542792
-0.695668
-0.117959
0.8941
-0.776142
-0.922535
0.976814
-0.672837
0.584806
0.0880312
-0.815934
0.188428
0.627505
0.00287454
-0.00465476
0.426035
0.16626
-1.02129
0.85503
-0.745985
0.736285
1.05372
0.051447
-1.10517
0.0620219
0.00302195
0.411762
-0.359519
0.0397619
0.970147
-0.958354
-0.587347
-0.709814
0.014146
-0.147175
-1.03555
-0.0118111
0.545636
-0.12061
-0.0995255
0.315591
-0.524365
0.712793
0.481023
-0.957269
-0.871088
0.0823086
-0.224675
0.679838
-0.455163
-0.0407408
-0.812021
0.578544
0.180369
-0.155473
0.991414
0.996639
0.987699
-0.99951
0.0451078
-0.0451078
-0.083473
-0.201419
0.132262
0.343735
-0.0261465
0.229924
0.950673
0.0092083
-0.0156796
0.658067
0.341933
0.7972
-0.60645
-0.759637
-0.548225
-0.485554
0.485554
-0.207757
-0.107004
0.65877
-0.988748
0.329978
-0.473471
-0.560868
0.355209
-1.04053
-1.003
1.05309
-0.660462
0.674608
0.675965
0.203796
-0.879761
-0.460194
-0.170776
0.849415
-0.678639
0.0523313
0.0043661
0.00285044
-0.00721654
0.06701
-0.268429
1.01398
0.593755
-0.309552
-0.284203
0.446847
0.745052
-0.521821
0.011922
-0.285356
0.158072
0.732454
-0.890526
-0.364568
-0.0531372
0.137165
-0.956219
0.16401
-0.784952
0.0837395
0.7678
-0.85154
-0.917378
0.132426
0.717355
-0.770492
0.232422
-0.35964
-0.391271
-0.0689235
0.369626
0.73839
-0.0356051
0.000687217
-0.000687217
-0.00346629
-0.0272946
-0.0248603
-0.0181552
0.0273635
-0.511881
0.33662
0.760617
-0.858066
0.0974489
-0.762048
0.845787
0.785513
-0.0681579
-0.749044
-0.168333
-1.18021
0.0208058
0.024302
-0.353808
-0.867003
-0.836202
0.435982
-0.25378
0.303655
-0.049875
-0.551405
0.197596
0.525467
0.712508
-0.0359097
-0.0195239
1.02514
0.495253
0.202815
-0.698068
-0.392322
-0.159083
-0.00443406
0.00880016
0.740757
-0.883526
0.00645985
-0.00645985
-0.7001
0.726552
-0.0264513
-0.491847
-0.0938539
-0.709607
0.00462164
0.65836
-0.0506191
-0.880384
-0.0704029
0.252157
-0.181754
0.853264
-0.755815
0.341619
0.258743
-0.600362
-0.126246
-0.737958
-0.113582
-0.204847
-0.0657813
0.472222
-0.514792
0.156975
0.741527
-0.898502
0.490374
-0.171775
-0.0820048
-0.048153
-0.0176282
0.595609
-0.0923832
-0.503226
-0.284011
0.304968
-0.0209567
0.573856
0.166695
0.0475547
-0.311257
0.169147
0.14211
-0.0345054
-0.0167857
-0.277243
0.0826584
0.114744
-0.197402
0.903389
-0.373234
-0.118613
0.554475
0.273325
-0.582877
0.406264
-0.406264
-0.196943
-0.391098
-0.209436
-0.391098
-0.669188
-0.850415
0.181415
-0.240972
0.738596
0.0458468
0.176291
0.562099
0.108014
0.116233
0.0110055
-0.127238
0.0111848
0.771661
-1.06925
0.60255
0.0389063
0.0519162
-0.0908225
-0.746797
-0.177766
-0.554773
0.757588
-0.543142
0.0749173
-0.0925455
-0.33942
-0.0809167
0.0809167
0.0423504
-0.000180706
0.137038
0.286869
-0.750147
0.195374
0.0260567
0.472081
0.527919
0.78384
0.0186216
0.0261224
-0.044744
-0.293515
-0.586869
-0.519761
0.113354
-0.118274
0.00492032
-0.130168
-0.413541
-0.021792
0.680152
-0.588613
-0.158184
-0.0572705
0.0184408
0.0590157
-0.26803
-0.196751
-0.177927
-0.0243305
-0.479789
0.426534
0.0532549
0.0161482
0.294296
-0.864923
-0.537167
0.691337
-0.859323
0.733077
0.462086
-0.0348713
0.0622887
-0.0274174
0.0899725
-0.633761
-0.00406502
0.637826
-0.893923
0.640387
-0.72386
-0.0161635
0.0064139
-0.0064139
-0.299335
0.45245
-0.0406884
-0.00149206
0.0201137
0.585961
0.482419
-0.658444
0.0128506
0.00431891
-0.00363169
0.00386331
-0.00386331
-0.50122
0.667915
0.0141932
-0.0141932
-0.779831
-0.00776301
0.0106376
-0.485548
0.680922
0.548383
-0.574835
0.0681913
-0.0681913
0.0162783
-0.0533965
0.014618
-1.0736
0.574718
-0.551095
-0.00465476
0.601608
0.00735957
-0.608967
-0.705603
0.11699
-0.317108
-0.0129152
0.330023
-0.0180199
-0.0178898
-0.604982
-0.0287788
0.024302
0.00575656
0.00070329
-0.00266538
0.00266538
-0.469236
0.271834
-0.454551
0.133437
0.663763
-0.135969
0.00216322
-0.00216322
0.508467
0.0475608
0.00819411
0.0178881
-0.000791444
0.623729
-0.576168
-0.781309
0.662696
-0.0986442
0.324802
0.793138
-0.00346629
-0.100871
0.0966696
-0.648731
0.551025
-0.239721
-0.103996
-0.0264382
-0.0258482
0.0079672
0.480409
-0.0872498
-0.415976
0.711475
0.000647227
0.00635958
-0.00635958
-0.212463
-0.182367
-0.571351
0.617198
-0.141084
0.508274
-0.219593
0.849047
0.904087
0.00575656
-0.755193
0.671713
-0.00642657
-0.0409121
0.0473387
0.678844
0.0944563
-0.0124906
0.0691819
-0.0566912
0.00982526
-0.00982526
-0.757811
0.0230835
-0.042514
0.0604021
-0.0867556
0.0867556
0.00431891
-0.00130306
0.7637
0.0538802
-0.318329
-0.0952118
-0.521501
-0.063697
-0.067574
0.067574
-0.0284657
0.0804177
-0.0804177
0.0276525
-0.0276525
-0.356302
-0.0733021
0.240827
0.0703408
0.0557017
-0.727579
-0.0583821
0.160869
0.0189205
-0.247366
0.0804247
-0.0804247
-0.467389
-0.0474032
0.230753
-0.0112928
0.00309118
-0.653502
0.647746
0.0526293
-0.081095
0.00147157
-0.0548681
-0.0122264
-0.155728
0.167955
-0.149591
-0.21005
-0.0819417
0.0819417
0.055045
-0.055045
-0.0290347
-0.0941739
0.123209
-0.00765879
-0.188447
-0.00563401
0.00200232
-0.280798
0.552632
-0.0258717
0.400124
0.0074505
0.00547367
-0.0521216
0.0521216
-0.727925
0.318788
-0.127481
-0.20918
-0.0227845
-0.0186916
0.0217828
0.198314
0.035116
-0.00209151
0.00130006
0.0837253
0.0296282
0.0554024
0.105467
-0.0207729
0.00124902
-0.000100271
0.00659058
0.00493133
0.00616596
-0.0110973
-0.00204067
0.00809773
0.0280253
-0.0280253
0.0504903
-0.0420747
0.0420747
-0.190372
0.0120643
0.0288587
-0.0762807
0.0178272
0.0766232
-0.0766232
0.251569
-0.240184
0.0905935
-0.0672181
-0.172966
-0.0160415
0.0160415
0.407254
0.250678
-0.518604
-0.080516
-0.0377579
0.540691
-0.00618722
-0.0657552
-0.469217
0.0898652
-0.153277
0.170497
-0.01722
-0.046995
0.046995
0.883004
-0.59076
-0.00879522
0.00675456
-0.00583889
-0.28477
7.03237e-06
0.00481391
-0.042748
-0.625817
0.568904
-0.659398
0.0143677
0.182754
0.0154524
0.0244692
-0.159115
-0.335391
0.259111
-0.0560545
0.0270197
0.172017
0.132951
0.166227
0.265527
-0.250075
0.00563462
-0.112753
-0.222095
0.0680382
-0.0126358
0.162516
-0.138047
-0.0682741
0.151999
-0.400655
0.123909
-0.106082
0.0592184
-0.475195
0.175311
0.177164
-0.245439
0.00600622
-0.176678
0.176685
0.00380146
0.148198
-0.0278815
0.0501694
0.458298
0.0119838
0.0253347
-0.00346656
0.0345538
-0.239315
-0.203464
0.589373
0.168974
0.0617785
0.0779178
-0.0638
0.0840469
-0.0367082
-0.0302347
0.166894
-0.152526
0.0333019
-0.00679291
-0.104155
-0.0284799
0.0345509
0.252623
-0.00713124
0.0291788
-0.311356
-0.00582552
0.216926
0.141734
0.177054
0.0564336
0.0973369
0.0493369
0.536624
-0.0111976
0.103328
0.0428705
0.0656394
-0.10851
-0.267926
-0.198168
0.0252017
-0.222572
0.286155
)
;

boundaryField
{
    FrontBack
    {
        type            empty;
    }
    Top
    {
        type            calculated;
        value           uniform 0;
    }
    In
    {
        type            calculated;
        value           uniform -1;
    }
    Bottom
    {
        type            calculated;
        value           uniform 0;
    }
    Out
    {
        type            calculated;
        value           nonuniform List<scalar> 10(1.12314 1.03135 1.21487 0.94957 1.15006 1.05607 1.23686 1.03434 0.603207 0.600533);
    }
    circle
    {
        type            calculated;
        value           uniform 0;
    }
}


// ************************************************************************* //
