/*--------------------------------*- C++ -*----------------------------------*\
| =========                 |                                                 |
| \\      /  F ield         | OpenFOAM: The Open Source CFD Toolbox           |
|  \\    /   O peration     | Version:  2412                                  |
|   \\  /    A nd           | Website:  www.openfoam.com                      |
|    \\/     M anipulation  |                                                 |
\*---------------------------------------------------------------------------*/
FoamFile
{
    version     2.0;
    format      ascii;
    arch        "LSB;label=32;scalar=64";
    class       volVectorField;
    location    "28";
    object      U;
}
// * * * * * * * * * * * * * * * * * * * * * * * * * * * * * * * * * * * * * //

dimensions      [0 1 -1 0 0 0 0];

internalField   nonuniform List<vector> 
808
(
(0.896222 -0.0093362 0)
(1.02375 -0.0346377 0)
(1.24685 0.17547 0)
(1.06765 0.009567 -2.72578e-21)
(1.46766 -0.301686 0)
(0.96078 -0.0301538 0)
(1.16386 -0.0542209 -1.81042e-21)
(1.13336 -0.0201282 0)
(1.34754 -0.236819 1.88026e-20)
(1.2381 -0.101599 -2.93475e-21)
(1.14524 -0.154607 6.51537e-21)
(1.37252 -0.271856 0)
(1.01183 -0.0285492 0)
(0.753537 -0.0228252 0)
(0.991432 -0.000876073 1.98499e-20)
(1.10606 -0.0335121 0)
(0.883646 0.00452818 -6.36255e-21)
(1.01054 -0.0456279 -1.07871e-22)
(1.20736 0.121881 0)
(1.12591 0.00127274 0)
(1.1935 -0.164945 -9.09407e-21)
(0.930604 0.126135 1.12179e-19)
(1.07367 0.0107892 -1.36561e-20)
(1.17854 -0.0341056 0)
(0.953045 0.186003 0)
(1.28188 0.0213735 -2.90758e-20)
(1.27648 -0.187891 1.20245e-21)
(0.957937 -0.0291375 -3.75543e-21)
(1.10692 -0.0403005 0)
(1.04519 0.0451988 -2.12976e-22)
(1.00118 -0.0409775 3.81928e-24)
(1.12873 -0.012261 0)
(1.03894 0.0296022 0)
(1.08338 -0.0291422 2.98983e-21)
(1.30865 -0.0877106 6.68935e-21)
(0.740454 -0.110862 1.14352e-19)
(0.884645 -0.028281 -7.90194e-21)
(1.02747 0.0320142 8.74289e-22)
(1.19724 0.036218 -3.59165e-21)
(1.0784 0.0139874 0)
(1.27295 -0.0720248 -1.26416e-20)
(1.27878 -0.141876 0)
(1.00802 0.00310975 -8.31974e-21)
(1.11549 -0.0526091 8.41342e-21)
(1.11978 -0.0285319 0)
(1.01071 0.016401 -1.98255e-20)
(1.00386 0.0320072 1.56839e-21)
(1.24892 -0.260107 -8.89602e-21)
(1.16964 0.0406115 -7.05349e-21)
(1.4034 -0.204636 -2.71634e-20)
(1.15561 -0.0544926 3.39409e-21)
(1.15088 -0.0797536 0)
(1.11897 -0.00389834 7.44526e-21)
(1.11233 -0.052026 0)
(1.31922 0.219853 5.13984e-21)
(1.06114 0.039275 -2.56762e-21)
(1.17662 -0.0605051 0)
(1.09773 -0.0557601 5.07646e-21)
(1.23975 -0.103704 3.15019e-21)
(1.13605 0.041026 -2.67216e-22)
(-0.23253 -0.203808 0)
(1.2144 -0.219441 -9.8806e-22)
(1.10137 -0.0313288 0)
(1.44748 -0.106534 -2.49031e-20)
(1.09796 -0.0711848 -1.08237e-20)
(1.04298 -0.0295575 -8.49325e-21)
(1.32625 -0.168524 2.58729e-20)
(0.648968 0.0133982 0)
(1.139 -0.0854435 0)
(1.4236 -0.362726 0)
(0.904783 0.0257117 -2.51181e-22)
(1.21355 -0.155508 -3.27811e-20)
(1.01377 0.0433999 0)
(1.04827 -0.0455551 -3.57226e-21)
(1.11835 -0.337052 -6.32173e-20)
(1.15147 -0.0610581 -6.05161e-21)
(1.1467 0.0300216 3.71974e-22)
(1.32643 0.490898 2.56412e-20)
(1.11629 -0.0434545 0)
(1.01661 0.283173 -1.83683e-19)
(1.31914 0.0155276 1.4718e-20)
(0.750433 0.0256945 0)
(0.844831 0.03851 -8.88228e-21)
(0.96757 -0.110597 4.60513e-21)
(1.11876 -0.0725938 4.01798e-21)
(1.19634 0.0168052 1.42821e-21)
(1.25669 -0.244877 0)
(1.35327 0.275352 0)
(1.08974 0.0010291 -1.56967e-20)
(1.40382 0.0433555 3.01047e-20)
(1.08581 -0.0191202 1.52033e-20)
(1.3204 -0.138822 -1.10449e-21)
(0.965598 0.0270239 1.71204e-20)
(1.00449 -0.0229636 0)
(1.1102 0.0183131 1.64754e-21)
(1.30919 -0.114513 -7.42346e-20)
(0.756902 0.0229402 -3.06199e-21)
(1.30074 -0.0334788 0)
(1.33711 -0.102094 0)
(1.41999 -0.137341 -3.87642e-20)
(1.11655 -0.0569012 -3.52525e-21)
(1.13056 0.0112816 -5.94916e-23)
(0.948562 0.024645 1.26254e-20)
(1.18881 0.0227534 -4.37332e-22)
(1.34998 0.0372894 -2.92204e-20)
(1.00296 0.00611902 1.3452e-20)
(1.43086 0.00524583 0)
(0.748113 -0.120847 0)
(1.08986 0.0317818 5.4575e-21)
(1.19775 -0.225045 -1.05614e-20)
(1.28373 0.0285504 1.1013e-20)
(1.04891 0.0486665 -1.23753e-19)
(1.15045 0.0406821 -2.09264e-21)
(1.13924 -0.0294516 7.36065e-21)
(0.787066 0.0177879 0)
(0.916459 -0.0454555 7.86539e-20)
(1.14136 0.0292535 -5.56984e-21)
(1.41562 -0.279858 -1.35817e-20)
(1.12151 -0.0464141 -7.16011e-21)
(0.931289 0.0158738 2.5868e-21)
(-0.210693 -0.0553066 0)
(0.860305 -0.0157819 2.03868e-21)
(0.792116 0.0243549 0)
(1.06178 0.00204338 -1.05118e-22)
(1.01245 0.0280261 0)
(1.31384 0.31359 8.44927e-21)
(1.03374 -0.0571314 -3.58474e-20)
(1.21261 0.0309599 4.82373e-21)
(1.15126 -0.0621479 0)
(1.09332 -0.0237905 0)
(0.540515 -0.0918145 0)
(1.12151 -0.0334432 -4.29494e-21)
(1.26174 -0.0563561 7.18744e-21)
(1.06757 0.113601 -3.31435e-20)
(0.848121 -0.010074 0)
(1.10025 0.0268753 -1.42438e-21)
(1.16718 0.0590122 -1.07476e-21)
(1.25176 0.0227457 6.57519e-22)
(0.989574 0.030932 4.15314e-21)
(1.1293 0.00786843 4.98745e-23)
(0.00857908 0.0420684 0)
(1.0979 -0.0223845 -1.69361e-20)
(1.21358 0.176737 1.61822e-22)
(0.719694 0.0226657 -3.95176e-21)
(1.26082 0.158391 2.35061e-21)
(1.01083 -0.113333 1.59556e-21)
(1.04619 0.0155105 1.86867e-20)
(0.990695 0.027126 0)
(1.13351 0.0410927 -5.48489e-21)
(0.904764 -0.114957 0)
(0.942467 0.0290195 8.18028e-21)
(0.970569 0.284609 1.47104e-19)
(0.971147 0.0329487 0)
(0.818326 0.10263 0)
(-0.130452 -0.0117458 -7.0847e-20)
(1.33482 0.120029 -1.33021e-20)
(0.682505 -0.019956 0)
(1.43808 0.00328748 0)
(1.22488 0.125057 0)
(1.33807 0.0699308 1.45372e-20)
(-0.0342163 -0.0952151 0)
(-0.0594176 0.0689811 3.52775e-20)
(0.932908 -0.0891186 6.32697e-20)
(1.00314 0.0389935 1.11905e-21)
(0.858426 0.00164176 0)
(1.02632 -0.0276316 1.12356e-20)
(0.887743 0.0244416 0)
(0.685681 -0.0707055 -6.83827e-20)
(1.02236 0.0350554 1.18446e-20)
(1.09637 -0.0619176 3.8504e-21)
(1.09457 0.011219 7.44152e-21)
(1.01475 0.0700893 -1.19674e-20)
(0.692286 -0.170676 -1.58848e-21)
(1.13407 -0.350877 8.55361e-22)
(0.912768 -0.0273798 0)
(1.06833 -0.000101583 -1.54881e-20)
(0.872978 0.00984098 -1.11031e-20)
(1.38448 -0.190747 1.67693e-21)
(0.70313 0.0286709 0)
(1.0119 -0.151274 0)
(1.09832 -0.0275111 3.08518e-21)
(1.39434 0.20155 1.08527e-20)
(1.11285 0.0224022 5.50226e-21)
(1.03722 0.0196202 2.10283e-20)
(0.724961 -0.0723182 -6.1509e-20)
(0.812861 0.00248098 1.9948e-20)
(1.13794 -0.0181388 5.67539e-21)
(1.41445 -0.105782 -4.74433e-21)
(1.09248 -0.0484874 -6.15126e-21)
(1.34628 -0.0511867 4.06546e-21)
(-0.137183 0.00271624 5.21611e-20)
(1.2904 -0.0219781 0)
(0.62036 -0.0197145 0)
(1.06491 -0.0257601 -7.758e-21)
(1.09859 0.0147781 6.92576e-21)
(0.0809693 0.0410383 0)
(0.874978 -0.0207809 4.14021e-22)
(1.09565 -0.0147918 -4.25775e-21)
(0.985097 0.0334731 2.08888e-21)
(1.0777 0.0371977 -7.38764e-21)
(1.00473 0.0193235 2.81832e-21)
(1.03572 -0.0190952 3.75584e-21)
(1.04285 0.029196 0)
(0.295123 -0.0441679 0)
(1.04644 -0.0619264 0)
(1.17101 0.0923396 -3.21976e-20)
(-0.0345935 -0.107362 4.11392e-20)
(1.11199 0.0274687 -1.86505e-23)
(1.14774 0.145653 0)
(0.74618 0.0169058 -7.85661e-21)
(1.15444 -0.150849 2.54566e-21)
(-0.0117877 -0.0382208 -1.26274e-19)
(0.806968 -0.0548705 -4.87423e-20)
(0.630442 -0.0184778 0)
(0.92285 -0.147165 0)
(0.946113 0.0449505 8.36806e-21)
(0.978529 -0.122877 4.67349e-21)
(1.2847 0.391652 1.07832e-21)
(1.09364 -0.0753844 -2.889e-22)
(1.09721 -0.0233504 -5.56707e-21)
(0.975665 -0.175876 0)
(1.36844 0.415542 -4.22648e-20)
(0.676314 -0.017714 0)
(0.807022 -0.0237453 -4.63521e-21)
(1.04046 -0.0289971 3.57746e-22)
(0.592649 0.015635 0)
(1.10084 -0.00584089 0)
(0.125948 -0.106494 -4.62222e-20)
(0.984448 0.0841355 -1.73317e-20)
(0.717757 -0.0239188 2.18992e-21)
(0.990378 -0.0024147 0)
(0.561288 -0.018713 0)
(0.763469 -0.0219657 -4.14201e-21)
(0.532618 -0.0209073 -4.60102e-22)
(1.30538 0.0350752 2.18686e-22)
(1.22322 0.0836281 -6.42364e-21)
(0.705397 0.0179484 -2.37557e-21)
(1.08486 -0.0263504 3.52116e-22)
(1.05141 -0.0333195 2.72249e-22)
(0.555948 0.0150703 6.30237e-21)
(1.17311 -0.0157138 5.49228e-22)
(1.12772 0.0311524 0)
(0.879886 -0.0905247 0)
(0.503868 0.0180921 0)
(1.03292 -0.0168547 0)
(1.21291 0.062258 -1.0738e-21)
(0.959288 0.0164486 0)
(1.15168 0.000855979 0)
(1.04757 0.0372984 0)
(1.12479 -0.0475531 0)
(-0.0166186 -0.0324753 3.91487e-20)
(1.30676 0.0568733 4.62635e-22)
(1.13801 0.0103409 0)
(1.39261 0.0626307 2.16796e-20)
(1.25727 0.00916323 4.23918e-22)
(1.09876 0.0428924 2.88619e-21)
(1.21879 0.041965 3.5994e-21)
(1.23054 0.0904244 0)
(0.596171 -0.0145113 8.97192e-21)
(1.0514 0.0405974 1.16395e-20)
(1.15453 0.113608 0)
(1.16411 -0.0872841 -2.98394e-21)
(1.21703 -0.0431871 2.22925e-21)
(0.36942 0.113919 -1.04285e-20)
(1.123 0.0546449 3.94623e-21)
(1.21791 -0.107788 -3.31022e-21)
(0.906808 -0.0614377 0)
(1.2327 -0.0427927 -1.74088e-20)
(1.03211 -0.0803722 -6.44529e-21)
(0.803817 0.0802042 -2.35572e-21)
(0.793397 0.171516 0)
(-0.0243647 -0.0200801 0)
(0.978426 0.114723 -1.78714e-20)
(1.16693 -0.0506205 0)
(1.26503 -0.0197744 5.91798e-21)
(1.14651 -0.0202534 1.42814e-21)
(1.21944 -0.124706 3.18241e-21)
(1.15313 -0.0215159 -1.7649e-21)
(1.37616 -0.0861717 1.10913e-19)
(1.01489 -0.323213 6.38232e-20)
(1.16749 -0.0186871 -8.42292e-22)
(0.99696 0.167097 0)
(0.74154 -0.00554025 0)
(0.907571 0.00486317 -3.17939e-20)
(1.1556 0.0276528 -1.20972e-20)
(1.25237 -0.041709 0)
(0.585392 -0.164225 -4.20474e-21)
(0.305408 -0.140476 0)
(0.69655 0.168397 2.97733e-21)
(0.905716 -0.00808266 4.98103e-21)
(0.827472 0.0299608 -5.19899e-21)
(1.1963 0.0450938 0)
(1.19623 -0.0379904 -1.66584e-21)
(1.06151 0.0317048 6.60903e-21)
(0.658962 0.211254 -9.40114e-21)
(1.24378 -0.0157342 -3.38604e-21)
(0.861198 0.219978 0)
(1.0908 0.0693423 0)
(1.06524 0.116656 3.66731e-21)
(0.817264 0.166213 -3.00756e-21)
(1.25203 -0.0549402 9.12206e-21)
(1.18909 -0.0300744 -4.00642e-21)
(0.926557 0.0674819 1.13803e-21)
(1.16614 -0.0475736 0)
(0.401574 -0.135906 1.20612e-20)
(1.31856 0.0702944 -1.85268e-20)
(1.01396 0.150037 2.08414e-21)
(0.095243 0.17333 1.10255e-20)
(1.43198 -0.166602 2.11944e-20)
(0.846583 -0.0920103 5.88967e-20)
(1.23867 0.0461386 -3.73556e-21)
(1.16201 -0.0281468 -1.06114e-21)
(-0.0558471 -0.125222 -7.02189e-21)
(1.00119 -0.00702637 0)
(1.03499 -0.087236 -1.71046e-20)
(0.855303 -0.0313719 8.73294e-21)
(1.10841 -0.0516945 4.24315e-21)
(0.690895 0.107082 -1.27062e-21)
(0.506649 -0.0175102 2.63494e-22)
(1.4047 -0.3934 -1.47762e-20)
(1.14434 0.0574327 0)
(1.03413 0.037547 -1.4567e-21)
(1.14187 0.0443851 -2.14378e-21)
(1.33181 -0.100251 0)
(0.721191 -0.00276824 5.45802e-21)
(1.15064 0.0452649 2.94331e-21)
(0.60548 0.057646 2.33234e-20)
(1.1613 -0.0212928 -1.18728e-21)
(0.934748 0.051503 -2.95276e-21)
(-0.0403019 -0.0397717 0)
(0.327628 0.345632 1.70075e-21)
(1.14859 0.0622644 0)
(0.922933 0.159996 -8.71619e-21)
(0.758646 0.119189 0)
(1.12746 -0.000724413 3.77282e-21)
(1.01635 0.0256716 0)
(1.14962 -0.00197652 0)
(1.41279 -0.149586 1.96174e-20)
(0.794669 -0.083466 0)
(1.17443 -0.182969 1.53365e-20)
(1.09284 -0.0290487 -3.6196e-23)
(1.07032 0.0554661 2.57614e-21)
(1.24381 -0.0140735 -3.58808e-21)
(1.23783 0.112094 -6.17595e-21)
(1.14128 0.00870259 2.98456e-20)
(1.20933 0.0624347 0)
(1.2268 -0.0712013 0)
(1.16914 0.0462292 1.31659e-21)
(1.21942 -0.000661859 0)
(1.42939 0.188995 -2.82882e-20)
(0.615913 -0.0794396 9.24757e-22)
(1.02676 0.0166512 2.14954e-20)
(1.26445 0.06248 -2.91846e-22)
(-0.0150279 0.00615804 0)
(-0.0247877 -0.0561969 0)
(0.127164 -0.113486 -3.81598e-20)
(-0.0491903 -0.140729 0)
(0.5471 -0.169303 -1.44147e-20)
(1.18884 0.0389706 -2.56183e-21)
(1.18315 -0.107338 -2.79356e-21)
(1.31241 -0.0371377 9.44553e-22)
(1.21293 -0.00781891 0)
(0.677719 -0.013897 -1.78305e-21)
(1.20783 0.0339462 0)
(1.17207 0.0398724 1.05136e-21)
(0.484215 -0.108707 0)
(0.672543 -0.18645 -4.14218e-22)
(1.16733 0.0199638 0)
(1.1097 0.0291386 0)
(0.891473 0.0846083 7.00793e-20)
(0.591874 -0.242737 -1.06686e-21)
(0.797479 -0.117007 -2.62759e-21)
(1.01097 0.0182099 -1.04853e-20)
(0.13697 -0.12068 0)
(1.1941 -0.0930314 -2.81145e-20)
(1.1853 0.0765848 -2.25316e-21)
(1.03737 -0.0834855 -2.28286e-21)
(0.811894 -0.197572 -1.61561e-21)
(-0.0529119 -0.0741986 -8.79527e-20)
(1.14119 0.0219584 0)
(-0.0376432 0.0477126 0)
(1.14681 0.0536639 7.71779e-21)
(0.600418 -0.175776 1.73896e-21)
(1.09703 0.0412784 -8.81917e-21)
(1.13076 -0.0396971 0)
(1.16434 -0.106938 2.11035e-21)
(1.1559 -0.00848361 5.23747e-21)
(0.499374 -0.0582491 -7.73662e-21)
(1.1491 -0.0315451 -2.42295e-21)
(1.20222 -0.0801641 -1.46877e-22)
(0.0429381 0.343886 -2.14869e-21)
(1.29694 -0.117498 2.59006e-21)
(1.12126 0.0475213 0)
(1.16792 0.0109615 0)
(1.2198 -0.0170018 2.01726e-21)
(1.13919 0.0819146 2.0364e-21)
(0.453674 0.0272678 -1.60848e-20)
(1.19242 -0.128114 -2.15598e-20)
(1.10311 0.0444992 9.40454e-21)
(0.521117 -0.00268493 1.08705e-20)
(0.430009 -0.106536 -1.26079e-19)
(-0.26539 0.0545083 1.07634e-20)
(1.17601 0.178142 -6.74818e-21)
(1.22572 -0.495861 2.89129e-21)
(1.41228 0.0944656 -1.92475e-20)
(1.22791 -0.0268972 -2.39053e-21)
(0.935078 -0.230665 9.80002e-20)
(0.0312808 0.0743892 0)
(1.14026 -0.0428968 -7.05108e-22)
(0.288497 0.349548 -1.8234e-20)
(1.13809 0.0297738 -6.67839e-21)
(1.13884 0.0347033 8.28319e-21)
(1.10311 0.0427731 0)
(0.789788 -0.105581 0)
(1.17358 -0.0519499 0)
(1.13077 0.120397 4.15653e-21)
(1.27302 -0.00923742 -2.45097e-20)
(1.16958 -0.0450234 1.57785e-21)
(0.459593 0.0174181 0)
(0.608918 0.0136874 0)
(0.606666 -0.00512242 3.92943e-22)
(0.43046 -0.0154353 0)
(1.11984 0.0257837 0)
(1.02198 -0.0124057 2.82114e-20)
(0.410181 0.149841 0)
(0.92859 0.0215089 0)
(1.11394 -0.0664011 0)
(1.17529 0.182498 -4.44475e-21)
(1.24751 0.0682575 1.02377e-20)
(0.97044 -0.0296895 7.39771e-21)
(1.27251 -0.403841 -9.38903e-20)
(0.57372 0.095515 8.10348e-21)
(1.33439 0.00394479 4.00519e-21)
(1.31616 -0.132907 0)
(-0.348369 0.0415521 0)
(-0.301984 -0.133843 0)
(1.16827 -0.0258287 2.59803e-22)
(1.31533 -0.29752 -1.10119e-20)
(1.29325 0.144639 0)
(1.11285 0.0416264 -7.7509e-21)
(0.183382 -0.118559 0)
(1.50738 -0.192297 6.0114e-20)
(0.414881 0.523671 1.12474e-19)
(0.239333 -0.0489986 0)
(1.07692 -0.280102 1.00777e-19)
(0.587035 0.0802958 0)
(-0.172406 0.214407 1.74945e-20)
(1.32646 0.127172 0)
(-0.0071694 -0.130614 -4.73427e-21)
(0.983701 -0.0495588 0)
(1.26994 -0.0167528 -2.50743e-21)
(-0.144002 -0.0977169 -6.96706e-21)
(1.12931 -0.0207471 1.93831e-21)
(1.21889 -0.191181 -3.92802e-21)
(0.568694 -0.509604 -9.47157e-20)
(1.19827 -0.0134705 -1.07968e-21)
(1.19615 -0.133633 6.7613e-21)
(1.1849 0.242762 -1.85448e-20)
(1.1573 0.0372616 -3.32996e-21)
(1.1575 -0.00177812 4.58687e-22)
(-0.229756 -0.261692 -4.47096e-20)
(0.0650798 0.0448378 -8.0477e-21)
(1.25465 -0.0297108 1.49153e-21)
(1.06066 -0.049149 0)
(0.419726 -0.287731 -6.35785e-21)
(1.3878 -0.448721 6.68852e-20)
(0.889144 -0.0917684 -4.73731e-20)
(1.4403 0.120926 8.14921e-20)
(1.08541 -0.0571776 3.69511e-21)
(1.25745 -0.168772 1.05196e-22)
(1.06212 -0.00783526 0)
(1.18574 -0.0107196 0)
(1.30655 -0.0325361 4.86784e-21)
(1.08798 -0.0202202 -4.4413e-21)
(1.18487 -0.0572002 3.54505e-21)
(1.10131 0.0280112 -7.33525e-21)
(1.46507 -0.0272712 -4.91698e-20)
(0.482966 0.0279714 0)
(1.33237 -0.122204 -8.67425e-21)
(1.34643 0.144423 0)
(1.11327 0.0349258 -5.48347e-21)
(1.13976 0.0253321 0)
(1.0421 -0.00929022 1.50029e-20)
(1.22408 0.0360526 1.1988e-20)
(1.18238 -0.120102 0)
(0.0454204 -0.0304848 1.35804e-19)
(0.882734 -0.208916 -7.68642e-20)
(1.34387 -0.0281121 -3.35206e-20)
(-0.117279 -0.0783514 3.92294e-20)
(1.19467 0.0381099 3.2391e-22)
(0.67805 -0.137146 4.16823e-21)
(-0.107207 -0.0346852 -4.0905e-20)
(-0.0292051 0.025803 -2.67815e-20)
(1.01789 -0.0299868 0)
(-0.0245239 -0.0268927 0)
(1.27509 0.145019 0)
(0.11121 -0.0990022 0)
(1.12014 -0.024449 0)
(0.120541 0.0286374 0)
(1.10234 0.0536663 0)
(1.17928 0.25747 0)
(1.25406 0.0856191 -7.38151e-21)
(0.564312 -0.280985 -1.86797e-20)
(-0.214242 -0.00550489 0)
(1.09327 -0.114728 4.92942e-20)
(1.30212 -0.0129789 -8.19547e-22)
(1.42537 0.116034 0)
(-0.0366818 -0.0373433 0)
(1.1547 0.0168481 5.50406e-22)
(1.16365 0.00126666 -5.50213e-22)
(1.1738 0.388149 0)
(0.199459 -0.0898043 4.71351e-20)
(1.11861 0.057819 1.25614e-21)
(0.220881 -0.051446 -4.65329e-20)
(-0.060518 0.0542161 -3.47309e-20)
(-0.0304612 0.049358 8.90388e-20)
(0.684536 0.270191 2.8696e-20)
(1.12822 -0.175022 -3.92256e-21)
(1.11469 0.0496255 -7.96015e-21)
(1.02335 -0.00813646 0)
(1.06996 -0.0720952 -2.42586e-20)
(1.21093 0.100879 -1.10031e-20)
(-0.00878555 -0.0155272 9.16286e-20)
(0.979874 -0.0708634 -6.24078e-20)
(0.522172 -0.142974 1.16546e-20)
(1.08314 -0.0941898 -4.56954e-21)
(0.0637468 -0.0311498 2.84248e-20)
(0.23028 -0.0390508 -4.13138e-20)
(0.348073 -0.0709446 -4.27143e-20)
(1.1269 0.0703833 1.17405e-20)
(-0.0516588 -0.0286561 0)
(0.828956 -0.106486 1.27068e-20)
(1.26938 -0.174434 -1.70859e-20)
(1.21352 -0.0810713 1.64733e-20)
(1.3228 -0.00887285 0)
(1.51193 -0.244665 5.80412e-20)
(1.13565 0.0173274 -3.60234e-21)
(-0.0101602 -0.0266555 -3.03229e-20)
(0.355382 0.0477025 0)
(0.919773 0.0279408 -3.02668e-21)
(1.12903 0.0296122 3.89247e-22)
(0.433794 -0.0105922 3.89489e-21)
(1.15683 0.0134713 1.22526e-22)
(1.11578 0.0488831 0)
(1.1125 -0.178944 -1.25837e-20)
(-0.083691 -0.136482 -5.73086e-20)
(1.32763 -0.0278546 2.27298e-20)
(1.10535 0.174469 -9.04338e-21)
(1.12299 0.0241049 8.38923e-21)
(-0.0344488 -0.0426146 1.30608e-20)
(-0.0304014 0.0481299 -6.71509e-20)
(0.799216 -0.0186221 0)
(0.955438 0.259777 0)
(1.1506 0.0930171 -1.58086e-20)
(1.05199 0.0672811 1.24808e-20)
(1.14864 0.0361043 0)
(0.488777 -0.12824 4.69789e-20)
(0.768929 0.0784441 -1.2451e-20)
(1.09893 0.103139 0)
(1.11821 0.0286617 0)
(1.37966 0.237139 0)
(1.17088 0.0836891 0)
(1.30976 0.0402798 3.3371e-22)
(-0.0426137 0.0481191 3.79361e-20)
(1.13847 0.0410949 6.78582e-21)
(1.39068 -0.218627 -6.68645e-20)
(1.33497 0.0884064 -1.69859e-21)
(-0.0746349 -0.107429 0)
(1.21409 -0.223262 0)
(0.618871 -0.0150137 -3.89026e-22)
(0.560903 0.00658994 -6.31931e-20)
(0.0813215 0.034447 5.10369e-20)
(0.946757 0.0307617 2.08873e-21)
(0.724255 -0.269486 0)
(0.653279 -0.0919081 0)
(1.27318 0.117466 0)
(0.54468 0.51833 2.37559e-20)
(-0.0221917 0.0330009 -3.0348e-20)
(1.07361 -0.0346959 3.02735e-21)
(-0.0176568 -0.0470499 5.65986e-20)
(1.12656 -0.00875823 3.61689e-21)
(1.17744 0.311858 3.53698e-20)
(1.11453 -0.0959223 9.99569e-21)
(0.177132 -0.170236 5.85284e-20)
(0.986762 -0.146416 4.30792e-21)
(1.21586 -0.240781 0)
(0.568731 0.274662 0)
(0.986548 -0.100716 -3.24043e-21)
(-0.194027 -0.0715462 0)
(0.608865 0.0270103 2.52578e-21)
(0.594361 -0.411228 -2.51016e-21)
(0.251498 0.049187 -1.17844e-19)
(1.11969 -0.229857 3.9739e-20)
(1.04267 0.366098 1.00509e-20)
(0.977955 0.0216231 0)
(1.19309 -0.0797671 5.41147e-22)
(0.63972 0.0168964 0)
(0.97315 -0.02062 -4.85808e-22)
(0.406186 -0.0228628 0)
(0.710982 0.135387 0)
(1.00454 -0.0186976 -5.0535e-21)
(1.44134 0.155013 -1.50333e-20)
(1.12619 -0.00472876 3.54796e-21)
(0.515391 -0.484871 0)
(1.13224 -0.158742 4.00065e-21)
(0.805595 0.381297 7.03907e-20)
(-0.0335348 0.0214857 1.25634e-21)
(1.21021 -0.00453898 6.49017e-21)
(1.20488 0.0336251 -8.83564e-21)
(1.14952 0.0482299 1.15023e-21)
(0.7888 0.0108403 -3.34695e-21)
(0.0720317 0.0175156 4.02102e-20)
(-0.020008 -0.0169134 -5.17234e-20)
(-0.233371 -0.113691 0)
(-0.247819 0.0264847 0)
(1.17142 -0.612724 2.80724e-20)
(1.15117 -0.0218305 -4.47582e-22)
(0.87179 -0.459252 -3.60605e-20)
(0.911917 -0.0189174 -2.62056e-20)
(1.38057 0.18657 3.67679e-20)
(0.610466 0.424906 0)
(0.247926 0.419802 -1.14465e-19)
(0.597693 0.485801 0)
(0.0452319 -0.042486 0)
(1.11556 -0.479914 0)
(-0.0544719 0.0192398 -6.72381e-22)
(1.19989 -0.0105437 0)
(0.970639 0.318543 -2.83343e-20)
(0.599321 0.698019 2.0798e-20)
(1.24583 0.231232 3.12169e-22)
(-0.0327403 -0.0928778 -9.06021e-20)
(0.732021 0.287024 1.07988e-20)
(0.464792 0.146405 -1.41223e-20)
(1.1983 0.0840192 0)
(1.37024 0.348577 3.86186e-20)
(1.22945 0.565694 9.30712e-21)
(0.179413 -0.0183563 -2.41406e-20)
(1.04323 0.107933 3.56408e-20)
(0.924451 -0.0206624 5.77141e-22)
(0.920949 0.0381612 -6.40797e-22)
(-0.0137901 -0.0274716 0)
(0.640441 -0.644616 -3.22958e-20)
(0.613651 0.206876 0)
(0.0660591 -0.159455 0)
(-0.0529099 0.0743666 0)
(-0.0013452 -0.135672 -3.39589e-20)
(1.22402 0.00761032 -7.48301e-21)
(-0.0186077 0.0675996 0)
(-0.0418814 0.064329 0)
(1.43406 0.0997725 -7.73451e-20)
(-0.0352014 -0.0666808 4.10582e-20)
(0.115562 0.23843 -1.01263e-19)
(0.411901 0.0144406 0)
(0.167154 -0.27151 8.33184e-20)
(1.05927 -0.241643 0)
(0.993615 -0.283486 0)
(0.000930779 -0.102692 8.50197e-20)
(1.14398 0.035327 -1.2378e-22)
(1.13089 0.341816 2.75404e-20)
(0.277766 0.0266477 4.89884e-20)
(0.398619 -0.509751 -4.22543e-20)
(1.3136 0.050807 0)
(1.24486 0.183053 2.36853e-20)
(1.23774 0.203307 -2.90886e-20)
(0.102823 0.0940053 -2.35962e-20)
(-0.0705075 -0.0214413 0)
(1.07013 -0.0562908 -2.029e-20)
(1.09812 -0.223813 -1.94994e-20)
(0.578527 -0.396872 0)
(1.09605 -0.151978 -2.86378e-20)
(-0.14031 0.00310414 0)
(0.646117 0.034685 0)
(1.47981 0.0520505 4.4215e-20)
(0.99742 0.0255428 5.10951e-22)
(1.08274 0.746556 -1.49863e-20)
(0.222462 -0.372101 1.38192e-19)
(1.10895 0.00778566 -4.8379e-22)
(1.20241 0.0692691 -4.33805e-23)
(-0.0584193 0.0706699 3.18193e-20)
(0.793823 0.738377 2.70516e-20)
(1.33928 -0.3799 -1.24987e-20)
(0.025056 -0.174487 9.05206e-20)
(1.11143 0.0525417 0)
(0.182936 -0.141215 -7.93322e-21)
(0.884537 -0.62784 2.26406e-21)
(0.90947 0.646324 -2.15641e-20)
(0.513877 -0.0414021 -5.27987e-20)
(1.14093 -0.00235507 -5.25234e-21)
(1.07729 -0.0867044 8.23928e-21)
(1.13791 0.0569553 2.2482e-21)
(1.10624 0.119064 3.94234e-21)
(1.12966 -0.13305 0)
(0.934447 0.102112 1.57403e-20)
(0.899496 0.462395 0)
(1.21214 0.11191 -1.13903e-21)
(1.16571 0.107524 5.35186e-23)
(0.76783 0.266079 0)
(0.537606 0.110576 1.12395e-19)
(0.898699 0.716416 -8.67175e-22)
(1.08197 0.29043 -2.11507e-20)
(1.0437 -0.0119595 1.383e-20)
(0.41702 0.497645 0)
(1.28523 -0.477363 0)
(0.526682 -0.180101 3.77669e-21)
(1.2754 0.503177 0)
(-0.0160973 0.0590837 -4.62449e-20)
(1.27402 -0.418497 4.35052e-21)
(1.17034 0.508932 0)
(0.452732 0.224083 1.70207e-19)
(1.13994 0.315719 -1.25851e-19)
(0.808546 -0.633785 -2.88571e-20)
(1.14436 0.0597834 -1.81109e-21)
(0.937125 0.15027 8.61015e-20)
(1.0916 0.167204 5.09255e-20)
(1.0785 0.706838 -1.25094e-22)
(0.897585 -0.433127 7.03327e-20)
(1.42659 0.162797 4.22805e-20)
(1.12639 0.008888 -9.35468e-22)
(-0.00695451 -0.0449472 7.47231e-20)
(1.07037 -0.697361 1.53531e-20)
(0.862254 -0.712582 6.13479e-20)
(0.248391 -0.322834 0)
(0.970754 -0.144861 7.74198e-20)
(0.363486 0.314625 -4.41721e-19)
(-0.132517 -0.14193 2.33355e-20)
(0.275489 0.0394375 2.48948e-20)
(0.645453 -0.0618188 -6.30666e-20)
(1.08457 0.530671 0)
(0.995552 0.223958 8.04632e-20)
(1.08505 0.0311415 3.61919e-21)
(0.91375 0.445442 -9.07557e-20)
(0.770553 -0.715906 -9.99815e-21)
(0.925063 0.0269836 -5.01098e-20)
(0.980849 0.491622 0)
(1.105 0.223617 -9.10196e-21)
(1.36871 -0.518335 1.03946e-20)
(1.22184 -0.344173 7.82256e-21)
(-0.275605 -0.104869 3.43916e-20)
(0.19371 0.0124538 -1.83546e-20)
(0.973689 -0.115588 -5.98721e-20)
(0.355566 0.531503 0)
(0.914065 0.0209661 3.99268e-20)
(1.16654 0.63828 8.33255e-20)
(-0.0689785 -0.15792 1.22342e-19)
(-0.0767713 0.0412692 -2.63831e-20)
(-0.0803351 -0.0986499 3.73048e-20)
(1.09525 0.0220261 -4.87517e-21)
(1.11189 -0.458561 0)
(1.05734 -0.730077 -5.20245e-20)
(0.700286 0.354411 0)
(0.0319596 -0.165418 -8.62028e-20)
(1.13859 0.0222818 4.91335e-21)
(-0.031783 -0.076439 -2.48996e-20)
(1.04882 0.0541217 -1.22026e-20)
(0.119203 0.0323969 5.99254e-20)
(0.87194 0.124164 0)
(1.41155 -0.0429869 4.80643e-20)
(0.0649131 0.0453761 -2.82644e-20)
(-0.332981 -0.0875967 -4.08152e-20)
(-0.249449 -0.0912173 0)
(0.0652203 -0.0120926 0)
(1.3689 -0.00713942 -1.21098e-20)
(0.354771 -0.0138533 1.29285e-19)
(1.25313 -0.723743 -9.9531e-21)
(0.832117 -0.177862 9.66516e-21)
(1.0764 0.251328 -2.97552e-20)
(0.363029 -0.547392 1.4506e-19)
(1.55403 0.263996 -3.69802e-20)
(0.0464465 -0.0719697 2.85505e-20)
(0.209057 0.31299 1.96924e-19)
(0.0678209 -0.0408069 -1.07971e-19)
(0.937398 -0.489289 -4.57236e-20)
(1.46396 0.381627 3.7226e-20)
(0.558889 -0.66661 5.23333e-20)
(1.10696 -0.0841859 -7.95612e-21)
(0.209094 -0.0850424 4.66373e-20)
(1.20212 0.287882 -5.10688e-20)
(0.665349 0.64527 -4.03692e-20)
(1.31978 -0.622205 0)
(1.43088 0.516934 3.53178e-20)
(1.04548 -0.525772 -1.19972e-20)
(1.39841 0.605602 -1.05089e-19)
(1.17832 0.0485629 0)
(-0.0547465 0.0854594 0)
(1.25839 0.730706 0)
(1.13341 0.0884227 -8.07816e-21)
(0.736357 -0.295913 -2.1316e-19)
(0.474749 -0.0769278 0)
(-0.0579732 0.0837483 -2.69649e-20)
(1.01724 -0.245362 1.07632e-19)
(-0.388769 -0.0657796 0)
(0.321225 0.0329398 1.24009e-20)
(1.13532 0.0446709 0)
(1.42995 0.265044 0)
(1.18251 0.0546688 1.93929e-21)
(0.358393 -0.284113 0)
(1.01631 0.151874 3.76254e-20)
(1.32239 0.280064 0)
(-0.106811 0.0373521 -1.3711e-21)
(0.808796 -0.390655 0)
(1.52163 0.327384 -5.53573e-20)
(1.24692 0.365648 -9.41176e-22)
(0.844214 0.649605 -9.75801e-21)
(1.01405 0.158706 -8.89099e-20)
(0.966342 -0.202864 -5.20816e-20)
(1.46132 0.285076 3.25484e-20)
(1.03431 0.0700283 0)
(0.563381 -0.0652281 0)
)
;

boundaryField
{
    FrontBack
    {
        type            empty;
    }
    Top
    {
        type            noSlip;
    }
    In
    {
        type            fixedValue;
        value           uniform (1 0 0);
    }
    Bottom
    {
        type            noSlip;
    }
    Out
    {
        type            zeroGradient;
    }
    circle
    {
        type            noSlip;
    }
}


// ************************************************************************* //
