/*--------------------------------*- C++ -*----------------------------------*\
| =========                 |                                                 |
| \\      /  F ield         | OpenFOAM: The Open Source CFD Toolbox           |
|  \\    /   O peration     | Version:  2412                                  |
|   \\  /    A nd           | Website:  www.openfoam.com                      |
|    \\/     M anipulation  |                                                 |
\*---------------------------------------------------------------------------*/
FoamFile
{
    version     2.0;
    format      ascii;
    arch        "LSB;label=32;scalar=64";
    class       volVectorField;
    location    "1331.5";
    object      U;
}
// * * * * * * * * * * * * * * * * * * * * * * * * * * * * * * * * * * * * * //

dimensions      [0 1 -1 0 0 0 0];

internalField   nonuniform List<vector> 
808
(
(0.7562629106843388 -0.01750469601931504 0)
(1.031557033950128 -0.01262680134305433 0)
(1.11116904008039 -0.00632086761103637 -1.72863105782024e-20)
(1.085121209478344 0.01259855373772729 0)
(1.363925326027553 0.01393320636012392 -3.850297309878869e-19)
(1.038753198498267 -0.009386432488889936 -7.291590759711417e-20)
(1.014234289248849 -0.02110708918358053 -2.414214480193563e-20)
(1.079188569074181 -0.00539290608857809 9.056833931838904e-21)
(1.254648300703156 -0.02072451493851028 6.296559566674561e-20)
(1.085197023307578 0.01008117521573097 0)
(1.008985712843248 -0.008163448581927432 0)
(1.306161721580897 -0.05382203912750975 -3.498717605688455e-19)
(1.086311532878566 -0.002024070993556389 2.04309959253263e-20)
(0.675205951202437 0.006360643590572846 0)
(1.277381680310239 -0.1154500282337556 0)
(1.081566519281119 -0.000359267424471523 -3.858762198020747e-20)
(1.225051451231391 -0.1439016155053206 -9.485515624763445e-20)
(1.074014441416223 -0.000203390547099186 3.200299335557999e-20)
(0.9901852042426672 0.003493156106977035 0)
(1.026419429867751 0.009705971918983142 0)
(1.032979646052785 -0.01131356471594582 0)
(0.9875390786997511 0.04479443205167032 0)
(1.051111932620154 -0.005950443559326017 5.713171169765927e-20)
(1.053681366996182 0.009171866438559658 0)
(0.9329231094233418 0.1975853991873061 4.584981764681797e-19)
(1.163824570329911 -0.08488687876705912 0)
(1.186028257228406 -0.01911556023309246 1.558997752574191e-19)
(1.077351595265875 0.009589338399180398 5.219491066458943e-20)
(1.083631956403524 0.002265755800422006 5.100797404877434e-21)
(1.071751367698017 0.03088652955193549 0)
(1.075280915322691 0.002821273971461114 -1.179847762600896e-20)
(1.033112702408242 0.006850287962211614 -1.908780174754449e-19)
(1.060024622425419 0.01461875535096795 -2.356742743109548e-20)
(1.088907836159354 0.00563924282486486 -2.936674528943241e-20)
(1.121251822357644 0.03886209031249804 0)
(0.7550187400648717 -0.1232816973787747 -4.542992367811562e-19)
(0.9548203364494802 -0.005858777652610322 0)
(1.068772477128121 0.02222278895115194 0)
(1.068800549364074 0.007277122726522434 0)
(1.073752088160971 0.008855411508135031 -2.824801413824971e-20)
(1.092889612854415 0.02445864830472661 1.094590326790937e-19)
(1.151061739149094 0.003240782521748845 2.145170772947337e-19)
(1.095973141777332 -0.002251061573594364 0)
(1.015333111232938 -0.00916355960187938 0)
(1.132439828693139 -0.09298915397209501 -1.623631068583409e-19)
(1.044088485890126 -0.01161912456683967 -8.226386554609948e-20)
(1.058110392404079 0.02662730148137494 -2.707447886325568e-20)
(1.231269736292599 -0.112459676062101 -5.580390843619585e-20)
(1.067522927087485 0.01203973852621678 -4.13147899159475e-20)
(1.25837724347887 0.01659295214927806 0)
(0.9966221837254219 -0.01925933271398369 2.197435102211987e-21)
(1.044735593568362 -0.001960379385394142 0)
(1.087577146675219 -0.002067180942775482 0)
(0.9994152794716917 0.007318412616526071 -1.852893508271479e-20)
(1.250607074364918 0.03372599981097253 -2.365433302268838e-19)
(1.063460720485043 0.01806506789581416 5.959983659141334e-20)
(0.9918344699093522 0.01071185316556749 0)
(1.018013641531542 -0.006363004758966216 2.458118174111574e-20)
(1.107623424445987 -0.0005683871765907564 -1.17371682111246e-19)
(1.06107866661843 0.03111065106643388 0)
(-0.08970121204293917 0.006531391343930401 7.555410500595344e-20)
(1.154978360132066 -0.05202526958806495 -1.875954486071182e-19)
(1.006485730646299 -0.00582160044747138 -2.699584884449419e-20)
(1.187404672519429 0.06899375782302497 -1.22111880283459e-19)
(0.9975373858992663 -0.009375533001393597 3.084203467768824e-20)
(1.084315130604604 -0.005466779204105052 0)
(1.249276592865037 0.09620003352927607 0)
(0.6960856676531513 0.00317818749752853 -7.435667691287106e-20)
(0.9885909468856435 -0.01382798843470141 -3.213456354838599e-20)
(1.460166385483182 -0.01916876842771919 4.43443401112815e-19)
(1.060482786813195 0.00761207765007171 -6.608186876228624e-20)
(1.368292585318571 0.09487937903683435 2.866587146877469e-19)
(1.054816025735117 0.00686297632659151 -1.958292323923592e-22)
(1.081055896602796 -0.01387917863550332 -2.914511406404507e-22)
(1.164813605907181 -0.2363224932527298 0)
(1.021808255562567 -0.01497836156294779 0)
(1.017001999576037 0.01796402973663014 -3.043172657133726e-20)
(1.386080798174095 0.3484552242060629 4.195988264012567e-19)
(1.097347277001084 -0.04249155021259925 9.531133414472249e-20)
(1.045715635150557 0.2096150028860368 2.46459853256999e-19)
(1.12430188524952 -0.06023313296491958 1.168328165523864e-19)
(0.9219363252907566 0.005146738264276775 0)
(0.9753311299108569 0.0185094359808602 0)
(1.004067838052839 -0.0487605606933174 2.953515044478338e-21)
(1.009822797117766 -0.01341295799411024 7.76668362713586e-21)
(1.030012370801478 0.02682319525421095 1.370014570633866e-20)
(1.529350907660598 0.03472109411429172 3.236694006488368e-19)
(1.28920033250363 0.07081816624178325 5.579958746718956e-19)
(1.072336103415218 0.003121710161656011 -8.979687113006292e-20)
(1.196139955604973 -0.09308184813590437 0)
(1.033760796080576 0.0019166969864176 1.312205813312244e-19)
(1.16536461494852 0.02185275715589981 -3.171236207064445e-19)
(1.001461949858284 0.03241974105293047 0)
(0.9996263012205473 0.002025806969650712 0)
(1.044414725509135 5.602825408784029e-05 7.910705727319184e-20)
(1.216139882355132 0.1105742883461273 4.130422801141748e-19)
(1.011108278221855 0.006986788514819597 0)
(1.091578752634679 -0.06809696780211374 -1.059727739810832e-19)
(1.151241009893221 0.03743998537208729 0)
(1.215847486185734 0.09454874186002968 -1.93765782143497e-19)
(1.108236748443218 -0.02885638374539896 -7.780607125919431e-20)
(1.027271876939683 0.01188372571274794 0)
(1.085025972043607 -0.004595545748442407 0)
(1.018980957481961 0.02633319507027988 7.949162028602494e-20)
(1.072149442806654 0.05634844608178706 -9.61834132405912e-21)
(1.103802532072388 -0.004139750211091333 6.367341217267703e-20)
(1.109950890348235 -0.09239757805364633 1.495010849172055e-19)
(0.9640423671752592 0.004466316812525711 0)
(1.065949034546172 0.03117087977084148 3.743969783526657e-20)
(1.16890767381217 -0.07666834099899965 2.292716209074184e-19)
(1.051411574652548 0.04697167540185885 -2.874981232626144e-20)
(1.022745476397272 0.06758214850795845 3.685648471912445e-20)
(1.09018216057533 0.02602990958950296 0)
(1.017913729588744 0.0159077059490881 0)
(1.028998097720811 0.009376654237797495 7.852306680246484e-20)
(0.9485910044675 -0.03312322319918885 0)
(1.052741733389433 -0.005506011637677877 -7.585688567558983e-21)
(1.342498936530421 0.05731468003762935 -1.559158768813636e-19)
(1.07982230045219 -0.01312126508587607 2.656998656671408e-20)
(0.7439645009716871 -0.001723193978819809 0)
(0.5927037202940977 0.1944128581144993 -1.084559570181878e-19)
(0.7061983714790729 -0.002499943984590444 0)
(0.6987588058856469 0.01462473788540098 0)
(1.07765990340585 0.003668058253777601 -6.592955699249246e-22)
(0.9906515605279278 0.01450652611383484 0)
(1.278642396134885 0.1223331828173138 2.523512592904508e-19)
(1.012292895391125 -0.0278318962002622 -7.600178074188193e-21)
(1.045885941735174 0.01829900734224139 1.600328955815619e-21)
(1.058692736647785 -0.01185136697789697 0)
(1.126630187737783 -0.009112737709675262 -5.075231893343707e-20)
(1.271903541756887 0.1347957926720673 -2.290698175086154e-19)
(1.089302389748728 -0.01103917496678026 -8.621676620174279e-20)
(1.070439453839784 0.02675636876988212 -1.085075615723579e-19)
(1.040862413779211 0.04677130167289455 7.224107802376246e-20)
(1.022626289383241 -0.003736090839861654 -3.474530763774824e-20)
(1.060846560222234 0.02359998501282788 5.842838990735482e-21)
(1.13510097075093 0.002555824839040675 1.037172355736121e-20)
(1.03903659888148 -0.01520088122540431 -4.811024536193625e-22)
(1.087367501947301 0.03471603884708218 0)
(1.028093111420119 0.01372303585803808 0)
(0.7717175036025847 -0.07250372622794217 -1.810203501714173e-19)
(1.0302379267809 -0.001664788363415894 -6.696074756105261e-20)
(1.129826827663373 -0.004253156594321831 -1.247309997453835e-20)
(0.7034227132686103 0.006569794413852511 7.206254439092519e-20)
(1.174808952046121 0.01978544727448891 -1.950895925721626e-19)
(1.137000231727525 0.007160568148070331 5.01303333966011e-21)
(1.128983588267352 -0.01002097895797357 3.411567864582972e-20)
(1.000935018012011 -0.002944538817252057 -7.090510361193483e-20)
(1.103276730590729 -0.06196760114884015 0)
(0.9888866472887925 0.005243324510978209 0)
(1.057819052764867 0.007041097007771407 0)
(1.005555198284827 0.1882704606516881 -2.409828385473713e-19)
(0.779173724905434 0.01242788204589894 0)
(0.8569620530737653 0.1011063305190457 -8.310738207431091e-20)
(0.0831425080526922 0.03501982562236251 -2.975972624967528e-19)
(1.171828799971587 -0.0304659666732195 -2.269066832720513e-20)
(0.671297771047775 -0.007310725724170194 2.449374406265497e-20)
(1.167390473464357 -0.0998904747939833 6.888274361599125e-20)
(1.124023377224666 -0.00233749699765821 -5.70435665652524e-21)
(1.154137657054428 -0.04840986819581864 2.204964206336456e-20)
(0.09406954226198275 -0.2170508052021083 0)
(0.2374108119341441 0.07178675179853773 0)
(1.261564342357188 0.1087140021756372 1.892603488406379e-19)
(1.021080208363137 0.01980108618723948 0)
(0.7378146902517116 -0.006248321840947918 0)
(1.075217960011514 -0.01149648676409126 2.738598126787138e-20)
(0.9747605148851871 0.002845408702756657 0)
(1.298095754341537 0.1246704520928705 -1.53588956975102e-19)
(1.057395163930622 0.01101512731774289 0)
(0.9934847064570361 -0.006935075221434938 0)
(1.065054248253847 0.00833739898472069 0)
(1.006205307349806 0.0208674766499851 2.043252612121611e-20)
(0.9380337428174261 0.01468105781970295 1.197095673914542e-20)
(1.177032379154008 -0.1999646929419136 0)
(1.005164944199293 -0.005182790806018384 7.998496502549638e-20)
(1.059150353729637 0.006398051356757578 0)
(0.774642955500108 -0.003282002831547786 0)
(1.218338912669251 0.02770782465153723 1.641352651309624e-20)
(0.7049603553901063 0.001363833143417179 0)
(1.435264558323952 0.08557172837053725 -5.182936861929674e-20)
(0.9952434295636697 -0.005764891513235395 1.697034355977841e-20)
(1.273292073659452 -0.002529774265190814 -2.977964415827033e-19)
(1.059542570163014 0.009028412489635852 1.351202276573263e-19)
(1.000911758127398 -0.01354608310346863 0)
(1.210921482224958 -0.1409636555934622 2.053633765360469e-19)
(0.7331851482778269 0.01378569171606174 0)
(1.098493567152077 -0.004953148088753739 0)
(1.155017004602322 0.06885736978725419 1.93696180481178e-20)
(1.006717610718082 -0.006403558924474347 -3.045600009785395e-20)
(1.121963428816436 0.05289732260179342 -1.739737218983567e-19)
(0.1074600125360309 -0.0918321742996968 0)
(1.072634679427583 0.03928570044589505 0)
(0.6617692916923407 -0.00289461523688732 -5.4244549535776e-22)
(1.012144082781637 -0.01945097380261907 9.304056944947861e-20)
(1.06132270255995 0.000848819892501474 0)
(1.075707766732177 -0.1325580253472229 3.74056149325685e-19)
(1.002801603580399 -0.006159922929040487 -3.335667232114774e-21)
(1.00330688883745 -0.004668231790412506 8.092703235014561e-22)
(1.093955524127452 -0.009261914611694021 0)
(1.020701785364034 0.02047701260798 -6.523756648349511e-20)
(1.106564774921047 -0.001568197115899773 6.468239601306021e-22)
(1.07462864869488 -0.01108246381016694 6.65604851491283e-20)
(1.085703586366699 0.02220266586949712 0)
(1.328968720905779 0.1583188695752853 0)
(1.002041434923344 0.0003594025311534879 4.409307219838191e-20)
(1.318701945334488 -0.129476911356486 1.585263714806341e-19)
(0.02338287991996038 -0.1779930615015654 -2.381179641038004e-19)
(1.071159203235275 -0.005372918089637351 0)
(1.11251105757463 -0.00531207187909674 1.167080087819239e-20)
(0.7267378132381475 0.01779813373890853 0)
(1.059586296245093 0.01076590485819455 0)
(0.8647296984410351 0.1628911364165939 4.639420362793054e-19)
(1.280951361361637 0.1305016732885345 1.929358390733439e-19)
(0.6543084318407337 -0.003097342017884887 -6.489984082912626e-20)
(1.039776202771475 0.004486240336935593 -5.836651614746362e-21)
(1.05474382888824 -0.000226930895710897 6.494528797865488e-20)
(1.364059117267645 0.1191370364731831 6.641705454376917e-19)
(1.334979383698401 0.2518551283208888 0)
(1.059314796979062 0.006421057880309714 0)
(1.00049738617493 -0.004873921171447925 1.431356238981562e-20)
(0.9927664553191035 -0.004045758226528907 4.30515636723241e-21)
(1.382837305071915 0.1994315604997468 4.293004625141957e-19)
(0.6818458632181325 0.0004648416784979258 9.950905640623844e-20)
(1.005650220621912 -0.002201685307531022 -6.015426395483286e-20)
(1.098229572065641 0.01311499937770956 2.559917328951096e-20)
(0.6694573848437115 0.00495940876420411 0)
(1.066088893323577 -0.01201754854717444 0)
(1.017568120530107 0.149267066611913 -1.402390269432394e-19)
(1.091660023519047 -0.00420208458590542 -2.554099200214044e-20)
(0.9820130261198082 9.198305073680174e-05 3.302044114234562e-20)
(0.9912116075245726 0.006019173289398817 0)
(0.6381716723979023 -0.001073311322655753 0)
(0.9767074456401539 -0.001203815923229836 0)
(0.6421042330216112 -0.001436993209755807 2.638232140112751e-21)
(1.089113769038021 -0.05521667994717328 1.20679197793556e-19)
(1.111424418496302 -0.004493268900375031 1.151519277100305e-21)
(0.957922587874651 -0.0008619477481874423 3.883457335467851e-20)
(1.017007405157285 0.01009079099344743 1.738231207535663e-20)
(1.066807038753966 0.003728465156099864 -2.533352556778016e-21)
(0.6347327762889871 0.008876456660759192 -3.618776003914166e-20)
(1.005833532130765 0.008952180177905679 -7.304404818758989e-22)
(1.037395958018937 0.006577383723700382 5.428298931704111e-21)
(0.9857513459986211 -0.008318732685395281 0)
(0.6099512127440274 -0.0004565697960857755 0)
(1.068887906416552 0.02249224246739189 0)
(1.01668775858132 -0.01677119021595069 1.031500981724618e-20)
(1.023685828654286 -0.009374755147541851 0)
(0.9924553557058975 0.01338513126977019 -9.913031174008393e-21)
(1.009134183337242 0.001569028183000985 0)
(1.132963935872628 0.003318527969682262 -1.162981026141695e-20)
(0.03449042900443018 -0.1433271133075912 -3.805467576093147e-20)
(1.034754611322793 -0.01859120200198373 -5.784252842678024e-22)
(1.041464782701714 0.00546942673084292 0)
(1.081911239827347 0.06989494242283259 8.454135946108679e-20)
(0.9671573377845577 -0.001982984018951667 3.107760395021642e-20)
(1.020154570534984 0.01667069465634877 -2.275226481221173e-20)
(1.003533294884828 -0.002812974499973704 2.432042694395267e-20)
(1.039010780334137 -0.008061102561330536 0)
(0.6408909226166859 -0.004070548286508389 0)
(1.025875559982687 0.02452893247008123 -7.715639932379431e-20)
(1.087988768764684 -0.005075850718397239 5.025432686476438e-20)
(1.014644238140695 0.007488809471686997 0)
(0.9796434211366982 -0.001025111114501169 -1.951200987951759e-21)
(0.8575374915155487 0.008902883322436444 -9.584588874940461e-21)
(1.014007421692135 0.00258798874843494 -9.60888784959262e-21)
(1.022319759881353 0.004890536253857537 1.885082889624006e-20)
(0.9843510181178728 0.003739851118747976 0)
(1.005909521838011 0.01195600481301397 3.293117193326436e-20)
(1.111099804839501 0.0003972929820429901 0)
(0.9308944774495905 0.009712780126643662 -3.09018801265172e-20)
(0.9545085245282816 -0.001114998443589473 0)
(0.9057926805093102 0.204332187411663 5.00489437198029e-20)
(1.01096262863971 0.0671145214796693 0)
(0.991669833523092 0.00499818287174005 -2.270118455370547e-20)
(1.059258375797146 -0.05089744321938997 -2.865812764700537e-20)
(0.993452934532376 0.0008019538522296832 3.263025537600633e-20)
(1.008212558272575 0.007168776086800084 0)
(0.9792600913791402 0.0008820741287068925 -3.024419962367656e-20)
(1.175402900808661 0.1043990294909721 -3.426210723680205e-19)
(1.069405748695505 -0.2650158367050119 0)
(0.9935823275298676 0.0003577508278713335 -2.27355215759639e-20)
(0.9733517105531102 0.001100916279814103 4.854471254029579e-21)
(0.9622847953570242 0.001377637829923567 9.97493032196967e-22)
(0.745948707920942 -0.001047429462181374 0)
(1.123503447687175 -0.0736683185051891 0)
(1.002686921084177 0.001585969143860352 -2.273366123019941e-20)
(0.9098374742952495 0.01269479687633204 -1.02189044427612e-20)
(0.8442816067268583 0.0004391930786341965 2.752510207771987e-21)
(1.013861152647235 -0.008918418377355528 0)
(0.9597567772913099 0.01384156765602375 1.423564508104881e-20)
(1.005557703755279 -0.0002207212094060201 -2.258805791925761e-20)
(1.024785583561218 -0.003514829624042902 -2.513997897690451e-20)
(1.115051284109255 -0.001937068148816065 -4.924428156908728e-21)
(1.118519803635669 -0.002393817203244879 0)
(1.011549456732044 -0.005916140830808764 0)
(1.020583236552851 -0.00146225945928956 0)
(0.9421127342639333 0.001952008653398422 -1.970484538285188e-20)
(1.017853036432207 0.0135494590923749 5.531301489297718e-20)
(1.087399820076438 -0.006312204617928677 -2.325003643700346e-20)
(1.04004210015936 -0.008040720952972105 0)
(1.108405574413534 -0.002515415331747996 1.84930615027376e-21)
(0.9941114400294854 0.001725196160391855 -2.242470467157337e-20)
(0.982833119803538 0.0008574356351462213 0)
(1.010231886455827 0.002999372208875838 4.676194528055976e-20)
(1.365536404930492 -0.3144669553782154 -1.12524807431362e-18)
(1.121368877877819 -0.04344986876064311 -1.100217806859936e-19)
(0.9674861902934282 0.007320347654932054 4.413231124767516e-20)
(0.7644135608725761 0.002314340925820973 -3.3754521876726e-20)
(1.224018124708966 0.05164113175748392 0)
(1.220744568336993 -0.1263198712644493 -1.477034466558598e-19)
(1.083130628506 -0.003834978372799549 0)
(1.008204496291287 0.0005810028690745335 2.298315639155128e-20)
(-0.1954637417093987 -0.1323200145044871 0)
(0.9939672507754965 -0.004658824696312834 0)
(1.012375069711318 -0.02307781354924796 4.169494432658972e-20)
(0.7064353075767907 -0.01944998575231118 0)
(1.096787716064916 -0.01480974687983843 2.238403060832654e-21)
(1.040741853941398 -0.002895208119039335 1.694209263077444e-20)
(0.6332302054792205 0.004121118870536945 0)
(1.448345976999526 -0.1238037010588611 0)
(0.9859527663371692 0.001636711598496786 -1.068850219821107e-20)
(1.069753416216616 -0.01509504328539815 0)
(1.037775882391611 0.0004423885212386659 2.064312913780672e-20)
(1.08177553729126 0.002936561654210373 0)
(1.012230022065203 -0.002243414646599927 -1.127608852121159e-21)
(1.005831872928407 0.003209384469511572 0)
(1.008114868955061 0.00107991553480496 -1.052792260171014e-21)
(1.004467501245938 -0.02063750789374233 0)
(1.036426986029957 -0.006086643520177989 1.730194733679142e-20)
(-0.1795213360941852 0.03195767788826313 2.748581228812308e-19)
(0.797955965534338 0.02234285065959715 5.672293180274306e-20)
(1.00529462895569 0.001903498375305807 0)
(1.125212243955766 0.01018764729395915 -1.16682442471071e-20)
(1.115132653552729 0.006106706816099607 8.882583137898714e-21)
(1.054492565763772 -0.01277016781696322 -1.31330658143553e-19)
(0.9987759730095431 0.01038312841468715 2.126423866763452e-22)
(1.080893342395817 -0.002480610909473721 0)
(1.188706718800304 0.05254749292254549 0)
(0.8352311049176864 -0.07597278928399856 4.599230107190234e-19)
(1.089878532911156 0.0004766838715463031 0)
(1.033902668746761 0.007574385142436573 -7.60495817248005e-21)
(1.042442194122182 0.005268261896330178 5.756420830399547e-21)
(1.055312044329604 -0.05904536262644034 -7.603706559285011e-21)
(1.13924492188347 -0.001265249900546786 1.703875475400352e-19)
(1.085196158358377 -0.001514286896087772 0)
(0.9941571802898045 0.001748665788359756 0)
(0.9972575017551301 -0.02681506686686359 -2.427810195030145e-21)
(0.9901475770625905 0.003525021760964439 0)
(1.031374892110132 -0.03728970356054218 6.47827029156407e-20)
(1.290622056586944 -0.09554811743983717 0)
(1.040591315515145 0.002252957438813201 -4.613125305896278e-21)
(0.986180702300971 0.01698067341233466 -8.881939604514824e-20)
(1.032823943412099 0.04255418431612318 -2.351768827237771e-21)
(-0.07404646726306231 0.1689557983360461 -1.72102697941942e-19)
(-0.07118888296222842 -0.2955199556814725 -1.30515812883526e-19)
(0.8935755372052441 0.1302002078846048 0)
(0.2824739449592203 -0.03572875177055909 -3.185488028983161e-19)
(1.005582113606053 0.0002532453201487476 -1.108139563023306e-20)
(1.063872989307899 0.002726224086875354 -2.077529133859071e-20)
(0.9914407039015544 -0.02084015165584331 3.096967904052689e-20)
(1.024836519486934 -0.03166164995010644 2.681075925865336e-21)
(1.01021651838054 -0.03133127513298078 -6.663296091374249e-20)
(0.98887491060407 0.004838319249378329 -3.482849272208187e-20)
(0.9932668276311901 0.005219784201633363 0)
(1.02482601700593 -0.002358450037713507 -3.469724664351392e-21)
(1.935002873999185 -0.1563661039425562 1.071048636068399e-18)
(1.043978560688846 -0.003194120250948552 0)
(0.9961765807384677 0.008428040332058576 1.508993795428201e-20)
(1.003598107067836 -0.000464501202337007 4.002918298270945e-20)
(1.162818624054685 0.1569045841702841 0)
(1.001817474810387 -0.01120386772076537 7.843860868232586e-21)
(0.9515968023912432 0.002896725361135047 0)
(1.0378390241385 0.04174805199548932 0)
(1.307812687337481 0.1548602161518551 2.301989632694501e-19)
(1.079509526651136 0.00066082183929569 2.326594836871572e-20)
(1.016407000789127 0.0298397906115976 4.502024280201097e-20)
(1.082824199703 0.002219275019101015 -2.241191045538948e-20)
(1.052774068637319 -0.01754874966598136 -8.479819439429231e-21)
(-0.3872921184536395 -0.05080579930797456 0)
(0.9997984786262907 0.01315340694064212 0)
(0.1171996974176586 0.05347430379030915 -9.340134297843992e-20)
(1.006630954179828 0.02026485713040315 -4.034577312239478e-20)
(1.004412108867894 -0.02578819908214893 0)
(1.001442104407965 0.005364006374536155 -4.89345501969275e-21)
(1.082024300422537 -0.04248021378459794 0)
(0.9938820177415825 -0.01779919514523417 -8.078207346165803e-21)
(1.101951484031062 -0.05638680231291252 0)
(1.444903696449621 0.1720504359823181 0)
(1.054904999266769 -0.0121240169918426 0)
(0.9908854272739092 -0.02495572733776625 -4.160486707522236e-20)
(0.9989953406515857 -0.03534731830602045 -3.486635170147938e-21)
(1.01464836672041 -0.02118759789677919 -2.061951520944239e-20)
(0.996615786378754 0.01667551375524748 -5.480078885459258e-20)
(0.9960728665549256 0.01006431101799604 -1.470621914872495e-20)
(0.9951915022564982 -0.02844319638343103 0)
(1.002093722482497 0.02368455707458682 1.897248822226914e-20)
(1.05238970812088 -0.03085271289615437 0)
(1.111279306621037 -0.03603650479123835 2.568958386700728e-19)
(0.9955650149287766 0.01659053258106213 4.517870871869702e-20)
(0.6150354227194325 -0.008693088802533694 0)
(1.148311287907372 0.1625547965446206 -3.306663326550804e-22)
(0.8384196911779818 -0.08180601765813092 0)
(1.13801520242394 0.07282399633845928 -2.758152540701425e-19)
(1.316304340487331 -0.3893788332313464 1.288976843350082e-19)
(1.068920033275262 0.06518852465676575 -1.237234230295296e-20)
(1.011713252225104 -0.03163121501272856 0)
(0.9558861375846631 -0.215985730794312 0)
(0.5380524647831653 0.1720572858330575 0)
(1.01641593675745 0.01129798762804039 1.190455515682844e-21)
(0.6995612091964297 -0.02293942804957944 0)
(0.9993874751359042 0.01648503574155375 3.473834745817835e-20)
(1.027490347453087 -0.003098017286787496 -2.727444664686134e-20)
(1.078966871339476 -0.008056490685667054 2.675860182399432e-21)
(1.053239776060798 -0.02795909913024836 2.716140770717029e-20)
(1.042672210732932 0.0117575607107735 0)
(1.061230386995392 0.02068716588802551 -8.61506885267564e-21)
(1.04989106268282 0.03634292165220331 -1.789211875272383e-20)
(0.9837139606673639 -0.02268724619999252 0)
(0.6248908628107948 0.005100626132991324 9.16866873467527e-20)
(0.8941521110728559 -0.005934985565447483 -8.844215964006686e-20)
(0.9093737125700014 0.005247356628679052 1.451679071267827e-20)
(0.6296246430014556 -0.006440885020305361 1.408799711886621e-20)
(0.9809343960445306 0.000614947331877954 2.469381348838683e-20)
(1.00441860200451 -0.01748302640483479 -3.423481860182656e-20)
(0.9844294014598726 -0.03640535646672544 -2.928727626191777e-20)
(1.085618806626578 0.001643330148821693 0)
(1.019802489067345 0.005232594403443799 1.023229969841349e-20)
(1.132355505649069 0.04861664452781477 1.331986931333101e-19)
(1.031025399360391 0.04151977808841566 0)
(1.02266455115649 0.002569861447630704 0)
(1.584582267152388 -0.1680716451515652 4.384913008842242e-19)
(1.059088978748879 -0.04473160934082326 0)
(1.018775248396789 0.01044945652486839 -3.689335402800028e-20)
(1.082231523307509 0.006487382421370497 0)
(0.4905606568531566 -0.002899157981669055 0)
(0.009692583967649843 0.01840612666022528 0)
(0.9913687131499679 -0.02392797408038682 1.243405319068883e-20)
(1.301910185340968 -0.09641511140759572 3.705443285979089e-19)
(1.031695770394803 0.03518879980489986 0)
(1.022377982797972 0.003569308746033191 -2.197860030701971e-20)
(0.9393545983570608 -0.1604368477840545 -4.176273069434407e-21)
(1.257015057664596 0.07611443714766912 0)
(0.5971268480146243 0.7287629671099921 0)
(1.310864689491652 0.1432118027155346 1.057475671262136e-19)
(1.677567577291896 -0.0261588078952092 0)
(1.055133402485086 0.1256847246061468 0)
(0.7171771080034188 -0.01414039401287119 4.096166706131571e-21)
(1.046695283844685 0.04481784642443488 0)
(0.7589433110683798 0.1234790953905748 1.363721810884831e-19)
(0.9967900550171085 -0.01640825106159411 3.577397511208712e-19)
(1.039012294799585 -0.04089579210935316 2.770961615285899e-20)
(-0.3797308767217979 -0.04041413640167963 0)
(1.072314262281193 -0.0163240971718158 0)
(1.084059352138541 -0.006547087715516195 0)
(0.6489917012165226 -0.5048631051753973 -2.473261959352668e-19)
(0.9895270204535462 -0.0007382798984063772 0)
(1.092440576681439 -0.0216115853856101 5.902703022119539e-22)
(1.187405754299358 0.1208714483633335 -2.024535844790622e-19)
(1.098401630057274 -0.04791774924196159 0)
(1.006144383276866 -0.02092750159761992 0)
(0.7724204783032945 -0.184207001493596 -1.624421201742051e-19)
(0.8807585476932557 -0.1355166897537058 1.471160082736292e-19)
(1.03317008381059 0.0142821839233522 -2.101913847660472e-20)
(1.0231250529975 -0.00897151817822682 -4.415739069710655e-20)
(0.8777233171358321 0.007375068885524404 2.958965039897626e-22)
(1.50585978446091 -0.1946739235490091 0)
(1.308926301122987 0.1135471276562985 2.971972750856543e-20)
(1.241410610666276 -0.07529897082206519 -3.29470503964591e-21)
(1.095731073714774 -0.01860467912589041 -3.986144994481242e-20)
(1.035070202510858 -0.01584812123550092 2.926196618961188e-20)
(1.092828993878523 -0.03907903980628869 9.393866849821417e-20)
(1.031934360909719 0.02064808760563462 0)
(1.050166658763275 -0.03690940213540799 0)
(1.115934360555648 -0.008956261661207979 0)
(1.098388097023639 -0.0417049603750645 0)
(0.9982793653239959 0.01099937658842021 0)
(1.151607332230837 0.0817450819720375 9.503637874947038e-20)
(1.339120723686091 -0.1561586358896769 0)
(1.037674998782301 -0.02749786273397104 -2.543394343330092e-22)
(1.047684686909486 0.05265982546333899 0)
(1.010226605520425 0.0142699125798356 -3.84609516801751e-20)
(1.033740007190485 -0.007405496121137055 9.272985005823039e-21)
(1.088940261248036 0.01345278135317979 -3.20924578268457e-20)
(1.084854700680052 -0.02808035086120654 0)
(1.070911273111975 0.004346059250891132 0)
(1.10409903759077 0.09317091945181988 -1.406917197005009e-18)
(0.93542078529515 -0.1499844236096801 -7.084735913343986e-20)
(1.173595583289825 0.1176189382936913 1.149235178682125e-19)
(-0.4646089088114418 -0.02303468795637181 -2.905126334626669e-19)
(1.017872813033584 0.02928547691929363 -8.674579075079594e-20)
(1.006180714261974 0.003652412846801596 0)
(-0.2492352634995028 -0.004775051954479231 3.566121624682306e-19)
(-0.03342186379535871 0.296185254022354 7.436368152513993e-21)
(0.9952096877891881 -0.006267125094631251 9.318069457666584e-20)
(0.1839477980159479 -0.04499806335106711 1.299166089641022e-19)
(1.08477397863347 0.08808396145361368 1.408532952669724e-20)
(0.09367699385151215 -0.1109412913800723 -5.470047593949356e-20)
(1.108423219863216 0.003022197698326287 0)
(1.098166130647466 0.2516539719917956 0)
(1.021086286150153 0.02147813405213104 -1.697891563990832e-20)
(1.062888999162207 0.05302761308841969 0)
(1.025880689807369 0.02345596698573485 -8.371206485941788e-21)
(1.263448950957795 -0.5491701019124335 8.028357936830675e-19)
(-0.1122899166355404 -0.2405092981738768 2.117141722870647e-19)
(1.300993149416006 0.1133005410734551 -6.206036009275564e-19)
(1.122433109971688 -0.001753373016054213 0)
(1.122852199660903 0.1057262819246032 0)
(0.5228510530980206 0.07743394324984196 2.432793468234159e-19)
(1.023591864905936 -0.02024163073888978 9.50211167130323e-20)
(1.006442472404708 -0.02324119424568268 0)
(1.210919164094648 0.2703591022196927 -9.672137050846e-20)
(1.260649724286405 0.1283864268525062 -1.527725197474142e-19)
(1.026553958836495 0.003259287385029673 1.571515625408716e-20)
(1.299006419580581 -0.08512433919377102 -4.976777785925306e-19)
(0.3038036995269587 -0.02108299780755581 2.875475834576392e-19)
(0.8308806357309986 -0.1485498530690907 6.850304304879597e-19)
(1.040150450729228 0.05385728874272212 1.096822605666502e-19)
(1.038205154248941 0.003582003998167627 1.658526412966553e-21)
(1.000962192771251 0.01916786500378377 2.888644538200322e-20)
(1.066494245686691 -0.03682675046196355 0)