/*--------------------------------*- C++ -*----------------------------------*\
| =========                 |                                                 |
| \\      /  F ield         | OpenFOAM: The Open Source CFD Toolbox           |
|  \\    /   O peration     | Version:  2412                                  |
|   \\  /    A nd           | Website:  www.openfoam.com                      |
|    \\/     M anipulation  |                                                 |
\*---------------------------------------------------------------------------*/
FoamFile
{
    version     2.0;
    format      ascii;
    arch        "LSB;label=32;scalar=64";
    class       volScalarField;
    location    "1245";
    object      yPlus;
}
// * * * * * * * * * * * * * * * * * * * * * * * * * * * * * * * * * * * * * //

dimensions      [0 0 0 0 0 0 0];

internalField   uniform 0;

boundaryField
{
    FrontBack
    {
        type            empty;
    }
    Top
    {
        type            calculated;
        value           nonuniform List<scalar> 
15
(
142.2886338348719
133.5883709042303
138.067635345825
144.4100803116093
159.7699453797032
131.368116843002
140.1378337005891
135.3600817554251
153.4528380309762
135.7309829523172
136.0946218642045
136.7696651729698
125.2664975211765
132.9130332338662
123.9537278577726
)
;
    }
    In
    {
        type            calculated;
        value           uniform 0;
    }
    Bottom
    {
        type            calculated;
        value           nonuniform List<scalar> 
15
(
155.566626216495
158.1188697689664
141.083485000021
142.0419101142937
141.1768279459712
148.4243252318938
142.6987337252446
143.1477737287486
143.4220610681029
134.0571374066485
125.7252411030883
141.5540416556052
122.405153011526
123.4868641218433
124.1295713956368
)
;
    }
    Out
    {
        type            calculated;
        value           uniform 0;
    }
    circle
    {
        type            calculated;
        value           nonuniform List<scalar> 
32
(
56.14822529334817
22.18221252064386
65.29101065538039
24.25705934247572
19.58722030350039
56.15792894957179
56.69869448398593
23.84672158937784
22.34117018640467
65.52881800286792
39.92910595413357
62.98894248334977
50.48645747155899
15.89775863324704
23.33095423445003
17.94983954740472
39.1521639784446
59.70118493896599
60.99966795740117
24.33021817498873
65.73042936300308
63.82090154448154
63.00916678544103
59.93059251555109
64.09909433171094
45.92647332509281
66.38806136735961
32.02419898524573
38.02859373094535
55.76560027686567
20.97553303714114
43.17172989522468
)
;
    }
}


// ************************************************************************* //
