/*--------------------------------*- C++ -*----------------------------------*\
| =========                 |                                                 |
| \\      /  F ield         | OpenFOAM: The Open Source CFD Toolbox           |
|  \\    /   O peration     | Version:  2412                                  |
|   \\  /    A nd           | Website:  www.openfoam.com                      |
|    \\/     M anipulation  |                                                 |
\*---------------------------------------------------------------------------*/
FoamFile
{
    version     2.0;
    format      ascii;
    arch        "LSB;label=32;scalar=64";
    class       volScalarField;
    location    "1578.5";
    object      yPlus;
}
// * * * * * * * * * * * * * * * * * * * * * * * * * * * * * * * * * * * * * //

dimensions      [0 0 0 0 0 0 0];

internalField   uniform 0;

boundaryField
{
    FrontBack
    {
        type            empty;
    }
    Top
    {
        type            calculated;
        value           nonuniform List<scalar> 
15
(
142.2791335680857
133.5558876398254
138.0605052651887
144.3834277758524
159.7578413008964
131.3661412043992
140.1114438663631
135.3381298087486
153.444788193719
135.7291887828686
136.0776267570247
136.7804173073401
125.2464215499208
132.9055445289377
123.9547076857765
)
;
    }
    In
    {
        type            calculated;
        value           uniform 0;
    }
    Bottom
    {
        type            calculated;
        value           nonuniform List<scalar> 
15
(
155.5680090605666
158.1141163169186
141.1069446145119
142.0721979209939
141.1885383584119
148.4546418605281
142.7162433087795
143.1618600871907
143.4216466205755
134.0681129391949
125.7373075393965
141.5633413862629
122.4099266518732
123.4875448295479
124.142718579684
)
;
    }
    Out
    {
        type            calculated;
        value           uniform 0;
    }
    circle
    {
        type            calculated;
        value           nonuniform List<scalar> 
32
(
56.04300722349976
21.68901531642399
65.1934389996711
26.41036002167517
20.36645769398938
56.2998022832662
56.6059257470908
23.89382277860766
22.0507993560418
65.42670037140482
39.84502676606932
62.89325674134687
50.64376190068993
17.32992635704764
22.54702538888176
19.01471410492701
39.31307741909652
59.840761459703
61.12043571597538
26.49648973598849
65.837270661517
63.71143285691978
63.127286319081
59.80917722855347
64.20917429576627
46.10212719029676
66.49836547616657
32.26317362487448
37.8200224940303
55.62345916861431
21.45425551986531
43.01797781224567
)
;
    }
}


// ************************************************************************* //
