/*--------------------------------*- C++ -*----------------------------------*\
| =========                 |                                                 |
| \\      /  F ield         | OpenFOAM: The Open Source CFD Toolbox           |
|  \\    /   O peration     | Version:  2412                                  |
|   \\  /    A nd           | Website:  www.openfoam.com                      |
|    \\/     M anipulation  |                                                 |
\*---------------------------------------------------------------------------*/
FoamFile
{
    version     2.0;
    format      ascii;
    arch        "LSB;label=32;scalar=64";
    class       volVectorField;
    location    "0.4";
    object      cellDisplacement;
}
// * * * * * * * * * * * * * * * * * * * * * * * * * * * * * * * * * * * * * //

dimensions      [0 1 0 0 0 0 0];

internalField   nonuniform List<vector> 
256
(
(9.04026e-05 0.0131663 0)
(-0.00187492 0.0127964 0)
(-0.00347674 0.0116447 0)
(-0.00445067 0.0099289 0)
(-0.0046836 0.00791357 0)
(-0.00419981 0.00581838 0)
(-0.00314961 0.00380831 0)
(-0.00164612 0.0018366 0)
(-6.95346e-05 0.0390163 0)
(-0.0055792 0.0380011 0)
(-0.0101404 0.0349637 0)
(-0.0131086 0.0304319 0)
(-0.0141697 0.0250256 0)
(-0.0133609 0.0193306 0)
(-0.010888 0.0136559 0)
(-0.00711215 0.00813989 0)
(-0.000549924 0.0634542 0)
(-0.00915236 0.0618242 0)
(-0.0163514 0.0572934 0)
(-0.0212593 0.0505785 0)
(-0.0234206 0.0425225 0)
(-0.0227956 0.0338894 0)
(-0.0197131 0.025283 0)
(-0.0144575 0.0167456 0)
(-0.00134647 0.0866806 0)
(-0.0126853 0.084503 0)
(-0.02227 0.0787868 0)
(-0.0290725 0.0703958 0)
(-0.0325199 0.0602815 0)
(-0.0325617 0.049392 0)
(-0.0293995 0.0383248 0)
(-0.0234599 0.0273721 0)
(-0.00245619 0.108788 0)
(-0.0162368 0.106099 0)
(-0.0280021 0.0994478 0)
(-0.0366558 0.0898108 0)
(-0.0415509 0.078164 0)
(-0.0425479 0.0654929 0)
(-0.039928 0.0526235 0)
(-0.0339758 0.0397572 0)
(-0.00391414 0.129915 0)
(-0.0199057 0.126786 0)
(-0.0337022 0.119432 0)
(-0.0441643 0.108856 0)
(-0.0505964 0.0960641 0)
(-0.05289 0.0821416 0)
(-0.0511534 0.0678369 0)
(-0.0457919 0.0535491 0)
(-0.00575503 0.150145 0)
(-0.0237615 0.146603 0)
(-0.0394617 0.138742 0)
(-0.051685 0.127476 0)
(-0.0597677 0.113902 0)
(-0.0635027 0.0990327 0)
(-0.0631065 0.0837906 0)
(-0.0588447 0.0684864 0)
(-0.00804744 0.16956 0)
(-0.0279085 0.165646 0)
(-0.045397 0.157399 0)
(-0.0593567 0.145669 0)
(-0.069127 0.131559 0)
(-0.0745715 0.116125 0)
(-0.0757124 0.100186 0)
(-0.0729596 0.0841917 0)
(-0.0108655 0.188225 0)
(-0.0324393 0.183966 0)
(-0.051613 0.175405 0)
(-0.0672708 0.163388 0)
(-0.0788289 0.148979 0)
(-0.0860308 0.133149 0)
(-0.0890376 0.116816 0)
(-0.0881733 0.10042 0)
(-0.0143241 0.206144 0)
(-0.0374683 0.201578 0)
(-0.0582209 0.192766 0)
(-0.0755664 0.180578 0)
(-0.0889073 0.166013 0)
(-0.0981009 0.150012 0)
(-0.103119 0.13346 0)
(-0.104428 0.116783 0)
(-0.0185573 0.223342 0)
(-0.0431181 0.218417 0)
(-0.065352 0.209408 0)
(-0.0843461 0.197167 0)
(-0.0995903 0.182558 0)
(-0.110818 0.166536 0)
(-0.118131 0.149833 0)
(-0.121846 0.133032 0)
(-0.023727 0.239706 0)
(-0.0495104 0.234392 0)
(-0.0731495 0.225249 0)
(-0.0937834 0.213001 0)
(-0.110953 0.19846 0)
(-0.124421 0.182431 0)
(-0.134163 0.165698 0)
(-0.140523 0.148661 0)
(-0.0299776 0.255043 0)
(-0.0568655 0.249325 0)
(-0.0817471 0.240081 0)
(-0.104025 0.227856 0)
(-0.123156 0.213404 0)
(-0.138983 0.197359 0)
(-0.151358 0.180493 0)
(-0.160596 0.163121 0)
(-0.0376957 0.268979 0)
(-0.0653625 0.262872 0)
(-0.0913995 0.253488 0)
(-0.115159 0.241331 0)
(-0.136336 0.226839 0)
(-0.154588 0.21072 0)
(-0.169868 0.193431 0)
(-0.182209 0.175521 0)
(-0.0470173 0.280895 0)
(-0.0752145 0.27431 0)
(-0.102081 0.264774 0)
(-0.12722 0.252551 0)
(-0.150335 0.237984 0)
(-0.171201 0.221426 0)
(-0.189541 0.203399 0)
(-0.205361 0.184177 0)
(-0.0575605 0.28853 0)
(-0.0855642 0.281499 0)
(-0.112744 0.271757 0)
(-0.138838 0.259397 0)
(-0.163595 0.24454 0)
(-0.186776 0.227327 0)
(-0.208159 0.207925 0)
(-0.227536 0.186521 0)
(-0.00159256 0.00185903 0)
(-0.00313164 0.00343211 0)
(-0.00469052 0.00455581 0)
(-0.00641618 0.00524249 0)
(-0.00820443 0.00536262 0)
(-0.0099244 0.00485238 0)
(-0.0115157 0.00373908 0)
(-0.0127009 0.00207713 0)
(-0.00709651 0.00811073 0)
(-0.0114211 0.0120337 0)
(-0.0160214 0.014758 0)
(-0.020838 0.016072 0)
(-0.0257784 0.0158378 0)
(-0.0306187 0.0139578 0)
(-0.0348532 0.0104459 0)
(-0.0379163 0.00556507 0)
(-0.0145678 0.0164226 0)
(-0.0214833 0.0219628 0)
(-0.0286633 0.0254356 0)
(-0.0362709 0.0267785 0)
(-0.0439824 0.02572 0)
(-0.0512869 0.0221466 0)
(-0.0575596 0.0161912 0)
(-0.061986 0.00831268 0)
(-0.023973 0.0266319 0)
(-0.0330394 0.0328922 0)
(-0.042612 0.0365023 0)
(-0.0525597 0.0372552 0)
(-0.0625277 0.0349446 0)
(-0.0719296 0.0294916 0)
(-0.0797601 0.0210886 0)
(-0.085086 0.0104011 0)
(-0.0350271 0.0383521 0)
(-0.0460876 0.0446897 0)
(-0.0576034 0.0477237 0)
(-0.0695964 0.0474301 0)
(-0.0814813 0.0435326 0)
(-0.0923951 0.0360048 0)
(-0.101363 0.0251883 0)
(-0.107208 0.011883 0)
(-0.0476987 0.0513883 0)
(-0.0603438 0.0570278 0)
(-0.0736473 0.0590061 0)
(-0.0872701 0.0572003 0)
(-0.100581 0.0514195 0)
(-0.112695 0.0417091 0)
(-0.122405 0.0285139 0)
(-0.128498 0.0127719 0)
(-0.0617129 0.0653408 0)
(-0.0758486 0.0697688 0)
(-0.090507 0.0701269 0)
(-0.10549 0.0664758 0)
(-0.119934 0.0585862 0)
(-0.13277 0.0465999 0)
(-0.142847 0.0310763 0)
(-0.148958 0.0130709 0)
(-0.0770902 0.0799947 0)
(-0.0923461 0.0826009 0)
(-0.10825 0.0809827 0)
(-0.124207 0.075135 0)
(-0.139351 0.0649576 0)
(-0.152645 0.050643 0)
(-0.16277 0.0328537 0)
(-0.168699 0.0127357 0)
(-0.0936242 0.0949533 0)
(-0.109946 0.0953425 0)
(-0.126702 0.091345 0)
(-0.143352 0.0830511 0)
(-0.158942 0.0704285 0)
(-0.172242 0.0537596 0)
(-0.182158 0.0337935 0)
(-0.187724 0.0117115 0)
(-0.111412 0.109969 0)
(-0.128486 0.107646 0)
(-0.145927 0.10098 0)
(-0.162939 0.0900196 0)
(-0.178515 0.074847 0)
(-0.191585 0.0558339 0)
(-0.201041 0.0337896 0)
(-0.206089 0.00989286 0)
(-0.130414 0.124589 0)
(-0.148112 0.119229 0)
(-0.165874 0.10956 0)
(-0.182887 0.0957636 0)
(-0.198171 0.0779839 0)
(-0.210642 0.0566776 0)
(-0.219404 0.0326865 0)
(-0.223779 0.00714119 0)
(-0.150749 0.138399 0)
(-0.168812 0.129601 0)
(-0.186624 0.11667 0)
(-0.20327 0.0999161 0)
(-0.217825 0.0795018 0)
(-0.229388 0.0560182 0)
(-0.237208 0.030242 0)
(-0.24075 0.00325622 0)
(-0.172511 0.150721 0)
(-0.190738 0.138093 0)
(-0.208181 0.121741 0)
(-0.224028 0.101875 0)
(-0.237454 0.0789551 0)
(-0.247742 0.0534141 0)
(-0.254315 0.0261272 0)
(-0.256803 -0.00203597 0)
(-0.195898 0.160481 0)
(-0.213866 0.143765 0)
(-0.230478 0.123708 0)
(-0.244954 0.100867 0)
(-0.256729 0.0755571 0)
(-0.265308 0.0483722 0)
(-0.270312 0.0199257 0)
(-0.271558 -0.00900237 0)
(-0.220741 0.165862 0)
(-0.237834 0.144728 0)
(-0.252764 0.121228 0)
(-0.265154 0.0957281 0)
(-0.274709 0.0686048 0)
(-0.281185 0.0402779 0)
(-0.284413 0.0112329 0)
(-0.284312 -0.0180388 0)
(-0.244723 0.16332 0)
(-0.259553 0.138547 0)
(-0.271883 0.112439 0)
(-0.281595 0.0852484 0)
(-0.288595 0.0572368 0)
(-0.292815 0.0286739 0)
(-0.294216 -0.000165025 0)
(-0.292783 -0.0290024 0)
)
;

boundaryField
{
    walls
    {
        type            cellMotion;
        value           uniform (0 0 0);
    }
    cylinder
    {
        type            cellMotion;
        value           nonuniform List<vector> 
16
(
(-0.0575605 0.28853 0)
(-0.0855642 0.281499 0)
(-0.112744 0.271757 0)
(-0.138838 0.259397 0)
(-0.163595 0.24454 0)
(-0.186776 0.227327 0)
(-0.208159 0.207925 0)
(-0.227536 0.186521 0)
(-0.244723 0.16332 0)
(-0.259553 0.138547 0)
(-0.271883 0.112439 0)
(-0.281595 0.0852484 0)
(-0.288595 0.0572368 0)
(-0.292815 0.0286739 0)
(-0.294216 -0.000165025 0)
(-0.292783 -0.0290024 0)
)
;
    }
    outlet
    {
        type            cellMotion;
        value           uniform (0 0 0);
    }
    inlet
    {
        type            cellMotion;
        value           nonuniform List<vector> 0();
    }
    frontAndBack
    {
        type            empty;
    }
    procBoundary3to1
    {
        type            processor;
        value           nonuniform List<vector> 
16
(
(0.00207191 0.0126922 0)
(0.00555547 0.0378879 0)
(0.00830321 0.0619384 0)
(0.0103963 0.0850199 0)
(0.0118865 0.107126 0)
(0.012786 0.128403 0)
(0.0130968 0.148853 0)
(0.0127735 0.168589 0)
(0.0117606 0.187616 0)
(0.0099498 0.205987 0)
(0.00719939 0.223691 0)
(0.00330939 0.240679 0)
(-0.00199823 0.256753 0)
(-0.00898006 0.27153 0)
(-0.0180304 0.284302 0)
(-0.0290024 0.292783 0)
)
;
    }
    procBoundary3to2
    {
        type            processor;
        value           nonuniform List<vector> 
16
(
(-0.013198 8.10089e-05 0)
(-0.0391079 -0.000101005 0)
(-0.0635971 -0.00060594 0)
(-0.0868654 -0.00142684 0)
(-0.109002 -0.0025581 0)
(-0.130146 -0.00403461 0)
(-0.15038 -0.00588929 0)
(-0.169786 -0.00818986 0)
(-0.188431 -0.0110077 0)
(-0.206321 -0.0144598 0)
(-0.223482 -0.0186769 0)
(-0.239809 -0.0238195 0)
(-0.255108 -0.030038 0)
(-0.269011 -0.0377265 0)
(-0.280905 -0.0470288 0)
(-0.28853 -0.0575605 0)
)
;
    }
}


// ************************************************************************* //
