/*--------------------------------*- C++ -*----------------------------------*\
| =========                 |                                                 |
| \\      /  F ield         | OpenFOAM: The Open Source CFD Toolbox           |
|  \\    /   O peration     | Version:  2412                                  |
|   \\  /    A nd           | Website:  www.openfoam.com                      |
|    \\/     M anipulation  |                                                 |
\*---------------------------------------------------------------------------*/
FoamFile
{
    version     2.0;
    format      ascii;
    arch        "LSB;label=32;scalar=64";
    class       surfaceScalarField;
    location    "0.4";
    object      meshPhi;
}
// * * * * * * * * * * * * * * * * * * * * * * * * * * * * * * * * * * * * * //

dimensions      [0 3 -1 0 0 0 0];

internalField   nonuniform List<scalar> 
480
(
0.00360124
-0.00208939
0.00365341
0.000619801
0.00358348
0.00308799
0.00334731
0.00486204
0.00299328
0.00572031
0.00243441
0.00562057
0.00164609
0.00472738
0.00397835
0.00129841
0.0106672
-0.0036674
0.0108438
0.00120373
0.0106749
0.00562392
0.010035
0.00886884
0.00905707
0.0105537
0.00752587
0.0106134
0.00536272
0.00929968
0.00796928
0.00433658
0.0174089
-0.00476493
0.0177035
0.00172487
0.0175099
0.00758749
0.0166357
0.0119995
0.0152533
0.0145052
0.0129761
0.0148681
0.00981935
0.0133748
0.0118125
0.00833188
0.0238147
-0.00543803
0.0240749
0.0021759
0.0239008
0.00903193
0.0230892
0.0144221
0.0215243
0.0176902
0.0187315
0.0184276
0.014991
0.017099
0.0156643
0.0134156
0.0299591
-0.00575728
0.0300835
0.00263431
0.0299704
0.0102253
0.029455
0.0163572
0.0278977
0.0202454
0.0249729
0.0215149
0.0210912
0.0206383
0.019466
0.0196482
0.0359345
-0.00569241
0.0360784
0.00323852
0.0360725
0.0113435
0.0358205
0.0179425
0.0344525
0.0222628
0.0318024
0.0240704
0.0281572
0.0237896
0.022966
0.0269536
0.0417506
-0.0053256
0.0420895
0.00383298
0.0422895
0.0122009
0.0422508
0.0190575
0.0412619
0.0237105
0.0391437
0.0260422
0.0359203
0.026262
0.0257187
0.0350566
0.0473794
-0.00478035
0.0479
0.00436778
0.0484736
0.012804
0.0488002
0.0197397
0.048349
0.0245746
0.0467934
0.0272245
0.0440694
0.027826
0.027654
0.0437569
0.0528802
-0.00409187
0.0535877
0.00478868
0.0546095
0.0130991
0.0554435
0.0198835
0.0554844
0.0246335
0.0544833
0.027456
0.0525235
0.0284671
0.0287531
0.0530536
0.058275
-0.00328019
0.0592703
0.00511289
0.0606855
0.0129475
0.0619872
0.0193337
0.0625633
0.023928
0.0622923
0.0269042
0.06146
0.0283583
0.0292248
0.0633268
0.063551
-0.0023843
0.064801
0.00522269
0.0665713
0.012282
0.0684018
0.0180923
0.0697912
0.0224841
0.0706184
0.0255853
0.0714078
0.0274825
0.028795
0.07498
0.0686669
-0.00145965
0.0700739
0.00496184
0.072223
0.0109789
0.0747939
0.0160571
0.0773171
0.0200596
0.079754
0.0231128
0.0824183
0.0251431
0.0266058
0.0875399
0.0734928
-0.00055224
0.0750604
0.00440034
0.0776917
0.00910075
0.0811593
0.0132146
0.0851188
0.0165787
0.0894192
0.0191907
0.093899
0.021055
0.0224895
0.100376
0.0779078
0.000360529
0.0797447
0.00368019
0.0829959
0.00693417
0.0874058
0.00988593
0.0928557
0.0123643
0.0989714
0.0142144
0.105384
0.0155483
0.0167601
0.113267
0.0816134
0.00154361
0.0838837
0.00312452
0.0877968
0.00469949
0.0931149
0.00617625
0.0997649
0.00745435
0.107413
0.00842583
0.115675
0.00917367
0.00993233
0.125051
0.0814383
0.0844144
0.0889792
0.0949411
0.102108
0.110229
0.118997
0.128363
0.00170675
-0.00324102
0.00237123
-0.00501398
0.00298125
-0.00701929
0.00325833
-0.00830526
0.00320848
-0.00854884
0.0032223
-0.00797792
0.00332453
-0.00680704
-0.00486228
0.0053744
-0.00742278
0.00732841
-0.0103256
0.00896202
-0.0135655
0.0097446
-0.0154279
0.0096901
-0.0156468
0.0095973
-0.0144101
0.00983459
-0.0120318
-0.00852598
0.0097526
-0.0124188
0.0126706
-0.0158367
0.015007
-0.0195407
0.0161827
-0.0215355
0.0162294
-0.0215199
0.015889
-0.0195489
0.0161162
-0.0159844
-0.0111473
0.0149563
-0.0178092
0.0184341
-0.0212538
0.0211525
-0.0248879
0.0225925
-0.0265451
0.0228171
-0.0261155
0.0223464
-0.0235512
0.0224177
-0.0190158
-0.0129966
0.0210291
-0.0233237
0.0247068
-0.0264529
0.0275092
-0.0296027
0.0290447
-0.030677
0.029382
-0.0296229
0.0289216
-0.026393
0.028802
-0.0210752
-0.0141559
0.0279006
-0.0283905
0.031432
-0.0309013
0.0340912
-0.0333389
0.0355047
-0.033661
0.0357315
-0.0318312
0.0353042
-0.0279303
0.0350845
-0.0220673
-0.0146012
0.0353833
-0.0325444
0.0384432
-0.0343395
0.0407689
-0.0358414
0.04192
-0.0354316
0.041926
-0.0329864
0.0414963
-0.0285237
0.0411833
-0.0222393
-0.0144505
0.0433917
-0.0354768
0.0457775
-0.0366408
0.0475634
-0.0372901
0.0483592
-0.0361203
0.0481868
-0.0331564
0.0476273
-0.028309
0.0471145
-0.0217243
-0.0138191
0.0519805
-0.0370267
0.0536344
-0.0377065
0.0546773
-0.0376531
0.0549922
-0.0358537
0.054534
-0.032449
0.0536528
-0.027326
0.0528611
-0.0205939
-0.0127729
0.0614636
-0.0372913
0.0620944
-0.0374298
0.0622152
-0.0366846
0.0617874
-0.0344244
0.0607886
-0.0307652
0.059488
-0.0255756
0.0583932
-0.0189754
-0.0114561
0.071995
-0.0361683
0.0711102
-0.0357568
0.0699509
-0.0342748
0.0685267
-0.0316655
0.0668214
-0.0279391
0.0650738
-0.0229384
0.0637082
-0.0167959
-0.00986965
0.0831984
-0.0331011
0.0804833
-0.032295
0.0778005
-0.0303159
0.0752084
-0.0275268
0.072668
-0.0239162
0.0704263
-0.0193543
0.0688142
-0.0138988
-0.00788609
0.0945392
-0.0278393
0.090043
-0.0268214
0.0857641
-0.0246891
0.0818502
-0.0219435
0.0783858
-0.0186816
0.0755646
-0.0147802
0.0736662
-0.0103099
-0.005559
0.105858
-0.0202171
0.0995523
-0.0191893
0.0935771
-0.0171622
0.088276
-0.0148206
0.0837931
-0.0122143
0.0803212
-0.00929875
0.0780982
-0.00616072
-0.0029519
0.116186
-0.00964252
0.107885
-0.00877734
0.100267
-0.00747887
0.0936559
-0.00610186
0.0882379
-0.00464889
0.084208
-0.00312651
0.0817155
-0.00156344
-1.18764e-05
0.117796
0.108002
0.0994107
0.0922315
0.0866216
0.0826956
0.080521
)
;

boundaryField
{
    walls
    {
        type            calculated;
        value           uniform 0;
    }
    cylinder
    {
        type            calculated;
        value           nonuniform List<scalar> 
16
(
1.80552e-11
-2.21682e-11
-7.35356e-12
1.3379e-11
-3.7679e-11
2.72942e-11
4.22664e-11
-2.13975e-11
2.13978e-11
-4.22659e-11
-2.72935e-11
3.76793e-11
-1.33791e-11
7.35471e-12
2.21697e-11
-1.80544e-11
)
;
    }
    outlet
    {
        type            calculated;
        value           uniform 0;
    }
    inlet
    {
        type            calculated;
        value           nonuniform List<scalar> 0();
    }
    frontAndBack
    {
        type            empty;
    }
    procBoundary3to1
    {
        type            processor;
        value           nonuniform List<scalar> 
16
(
-0.00350063
-0.0104124
-0.0170628
-0.0234282
-0.0295646
-0.0355177
-0.0413256
-0.0470242
-0.0525705
-0.0578861
-0.0630681
-0.0681801
-0.0730163
-0.0773527
-0.0808918
-0.0801274
)
;
    }
    procBoundary3to2
    {
        type            processor;
        value           nonuniform List<scalar> 
16
(
0.00342384
0.010203
0.0167761
0.0231319
0.0293233
0.0353775
0.0412895
0.04706
0.0526343
0.0579333
0.063053
0.0680855
0.0728901
0.0772538
0.0808394
0.0801141
)
;
    }
}


// ************************************************************************* //
