/*--------------------------------*- C++ -*----------------------------------*\
| =========                 |                                                 |
| \\      /  F ield         | OpenFOAM: The Open Source CFD Toolbox           |
|  \\    /   O peration     | Version:  2412                                  |
|   \\  /    A nd           | Website:  www.openfoam.com                      |
|    \\/     M anipulation  |                                                 |
\*---------------------------------------------------------------------------*/
FoamFile
{
    version     2.0;
    format      ascii;
    arch        "LSB;label=32;scalar=64";
    class       pointVectorField;
    location    "0.4";
    object      pointDisplacement;
}
// * * * * * * * * * * * * * * * * * * * * * * * * * * * * * * * * * * * * * //

dimensions      [0 1 0 0 0 0 0];

internalField   nonuniform List<vector> 
578
(
(0 0 0)
(0 0 0)
(0 0 0)
(0 0 0)
(0 0 0)
(0 0 0)
(0 0 0)
(0 0 0)
(0 0 0)
(0.00192197 0.0257231 0)
(-0.00185802 0.0257825 0)
(-0.00527731 0.0243887 0)
(-0.00781064 0.0217736 0)
(-0.00912173 0.0183463 0)
(-0.00911856 0.0145316 0)
(-0.00790565 0.0106505 0)
(-0.00569289 0.00684652 0)
(-0.00425221 0.00486113 0)
(0.00331732 0.0506045 0)
(-0.00383808 0.0506078 0)
(-0.0103138 0.0480543 0)
(-0.015229 0.0433472 0)
(-0.0180068 0.0371637 0)
(-0.0184535 0.0302079 0)
(-0.0167026 0.0230473 0)
(-0.0130486 0.0159554 0)
(-0.0106688 0.0121955 0)
(0.00420593 0.0743017 0)
(-0.00593469 0.0741459 0)
(-0.0151218 0.0706323 0)
(-0.0222503 0.0642924 0)
(-0.0265838 0.05597 0)
(-0.0278423 0.0465421 0)
(-0.0261344 0.0367367 0)
(-0.0217729 0.0269423 0)
(-0.0189513 0.0216095 0)
(0.00462293 0.0969298 0)
(-0.00818324 0.0965449 0)
(-0.0198049 0.0922365 0)
(-0.0290105 0.0846373 0)
(-0.034964 0.0746888 0)
(-0.0373125 0.0633559 0)
(-0.0361292 0.0514788 0)
(-0.0317124 0.039539 0)
(-0.02893 0.0328309 0)
(0.00457646 0.118582 0)
(-0.010631 0.117921 0)
(-0.0244676 0.112966 0)
(-0.0356401 0.104412 0)
(-0.0432545 0.093249 0)
(-0.0469132 0.0804908 0)
(-0.0466502 0.0670472 0)
(-0.0427374 0.0534676 0)
(-0.0404342 0.045559 0)
(0.00405267 0.139351 0)
(-0.0133374 0.138384 0)
(-0.0292132 0.132913 0)
(-0.0422611 0.123649 0)
(-0.0515645 0.111599 0)
(-0.0567045 0.0978102 0)
(-0.0576837 0.0832262 0)
(-0.0547505 0.0684454 0)
(-0.0533189 0.0594919 0)
(0.00301483 0.159307 0)
(-0.0163719 0.158008 0)
(-0.0341371 0.152117 0)
(-0.0489817 0.142343 0)
(-0.0599936 0.129674 0)
(-0.0667562 0.11518 0)
(-0.0692423 0.0998096 0)
(-0.0676814 0.0841949 0)
(-0.0674588 0.0743142 0)
(0.00140209 0.178516 0)
(-0.0198192 0.176867 0)
(-0.0393439 0.170622 0)
(-0.0559149 0.160485 0)
(-0.0686538 0.14742 0)
(-0.0771514 0.132477 0)
(-0.0813554 0.116595 0)
(-0.0814943 0.100435 0)
(-0.0827734 0.0897171 0)
(-0.000873909 0.197009 0)
(-0.0237785 0.194993 0)
(-0.0449393 0.188444 0)
(-0.0631722 0.178051 0)
(-0.0776496 0.164759 0)
(-0.0879769 0.14956 0)
(-0.0940868 0.133383 0)
(-0.0962098 0.116899 0)
(-0.0992284 0.105379 0)
(-0.00393802 0.214805 0)
(-0.0283712 0.212383 0)
(-0.0510431 0.205555 0)
(-0.0708745 0.194995 0)
(-0.0871071 0.181597 0)
(-0.0993615 0.1663 0)
(-0.107554 0.149982 0)
(-0.111897 0.133305 0)
(-0.116855 0.120966 0)
(-0.00794966 0.231867 0)
(-0.0337325 0.228975 0)
(-0.0577851 0.221877 0)
(-0.0791597 0.211219 0)
(-0.0971708 0.197812 0)
(-0.11145 0.182514 0)
(-0.121891 0.166145 0)
(-0.128677 0.14933 0)
(-0.135727 0.136071 0)
(-0.0131051 0.248056 0)
(-0.0400243 0.244625 0)
(-0.0653201 0.237271 0)
(-0.0881768 0.226558 0)
(-0.10798 0.213193 0)
(-0.12438 0.197929 0)
(-0.137235 0.181513 0)
(-0.146666 0.164515 0)
(-0.155957 0.150155 0)
(-0.0196704 0.263085 0)
(-0.0474797 0.259062 0)
(-0.0738451 0.251449 0)
(-0.0980821 0.240698 0)
(-0.119668 0.227369 0)
(-0.138264 0.212094 0)
(-0.153699 0.195516 0)
(-0.166008 0.17816 0)
(-0.177688 0.162421 0)
(-0.0279402 0.276433 0)
(-0.0563279 0.271769 0)
(-0.0835161 0.263866 0)
(-0.108964 0.253043 0)
(-0.132259 0.239685 0)
(-0.15311 0.224253 0)
(-0.171294 0.207258 0)
(-0.186738 0.189148 0)
(-0.200968 0.171499 0)
(-0.0379166 0.286632 0)
(-0.0663483 0.281312 0)
(-0.0939058 0.273088 0)
(-0.120222 0.262124 0)
(-0.144996 0.248624 0)
(-0.167974 0.232828 0)
(-0.188915 0.215031 0)
(-0.207646 0.195521 0)
(-0.224563 0.174977 0)
(-0.0433859 0.291358 0)
(-0.0717351 0.285702 0)
(-0.0993934 0.277295 0)
(-0.126094 0.266218 0)
(-0.151581 0.252577 0)
(-0.175608 0.236503 0)
(-0.197944 0.218151 0)
(-0.218373 0.197699 0)
(-0.2367 0.175343 0)
(0 0 0)
(0 0 0)
(0 0 0)
(0 0 0)
(0 0 0)
(0 0 0)
(0 0 0)
(0 0 0)
(0 0 0)
(0.00192197 0.0257231 0)
(-0.00185802 0.0257825 0)
(-0.00527731 0.0243887 0)
(-0.00781064 0.0217736 0)
(-0.00912173 0.0183463 0)
(-0.00911856 0.0145316 0)
(-0.00790565 0.0106505 0)
(-0.00569289 0.00684652 0)
(-0.00425221 0.00486113 0)
(0.00331732 0.0506045 0)
(-0.00383808 0.0506078 0)
(-0.0103138 0.0480543 0)
(-0.015229 0.0433472 0)
(-0.0180068 0.0371637 0)
(-0.0184535 0.0302079 0)
(-0.0167026 0.0230473 0)
(-0.0130486 0.0159554 0)
(-0.0106688 0.0121955 0)
(0.00420593 0.0743017 0)
(-0.00593469 0.0741459 0)
(-0.0151218 0.0706323 0)
(-0.0222503 0.0642924 0)
(-0.0265838 0.05597 0)
(-0.0278423 0.0465421 0)
(-0.0261344 0.0367367 0)
(-0.0217729 0.0269423 0)
(-0.0189513 0.0216095 0)
(0.00462293 0.0969298 0)
(-0.00818324 0.0965449 0)
(-0.0198049 0.0922365 0)
(-0.0290105 0.0846373 0)
(-0.034964 0.0746888 0)
(-0.0373125 0.0633559 0)
(-0.0361292 0.0514788 0)
(-0.0317124 0.039539 0)
(-0.02893 0.0328309 0)
(0.00457646 0.118582 0)
(-0.010631 0.117921 0)
(-0.0244676 0.112966 0)
(-0.0356401 0.104412 0)
(-0.0432545 0.093249 0)
(-0.0469132 0.0804908 0)
(-0.0466502 0.0670472 0)
(-0.0427374 0.0534676 0)
(-0.0404342 0.045559 0)
(0.00405267 0.139351 0)
(-0.0133374 0.138384 0)
(-0.0292132 0.132913 0)
(-0.0422611 0.123649 0)
(-0.0515645 0.111599 0)
(-0.0567045 0.0978102 0)
(-0.0576837 0.0832262 0)
(-0.0547505 0.0684454 0)
(-0.0533189 0.0594919 0)
(0.00301483 0.159307 0)
(-0.0163719 0.158008 0)
(-0.0341371 0.152117 0)
(-0.0489817 0.142343 0)
(-0.0599936 0.129674 0)
(-0.0667562 0.11518 0)
(-0.0692423 0.0998096 0)
(-0.0676814 0.0841949 0)
(-0.0674588 0.0743142 0)
(0.00140209 0.178516 0)
(-0.0198192 0.176867 0)
(-0.0393439 0.170622 0)
(-0.0559149 0.160485 0)
(-0.0686538 0.14742 0)
(-0.0771514 0.132477 0)
(-0.0813554 0.116595 0)
(-0.0814943 0.100435 0)
(-0.0827734 0.0897171 0)
(-0.000873909 0.197009 0)
(-0.0237785 0.194993 0)
(-0.0449393 0.188444 0)
(-0.0631722 0.178051 0)
(-0.0776496 0.164759 0)
(-0.0879769 0.14956 0)
(-0.0940868 0.133383 0)
(-0.0962098 0.116899 0)
(-0.0992284 0.105379 0)
(-0.00393802 0.214805 0)
(-0.0283712 0.212383 0)
(-0.0510431 0.205555 0)
(-0.0708745 0.194995 0)
(-0.0871071 0.181597 0)
(-0.0993615 0.1663 0)
(-0.107554 0.149982 0)
(-0.111897 0.133305 0)
(-0.116855 0.120966 0)
(-0.00794966 0.231867 0)
(-0.0337325 0.228975 0)
(-0.0577851 0.221877 0)
(-0.0791597 0.211219 0)
(-0.0971708 0.197812 0)
(-0.11145 0.182514 0)
(-0.121891 0.166145 0)
(-0.128677 0.14933 0)
(-0.135727 0.136071 0)
(-0.0131051 0.248056 0)
(-0.0400243 0.244625 0)
(-0.0653201 0.237271 0)
(-0.0881768 0.226558 0)
(-0.10798 0.213193 0)
(-0.12438 0.197929 0)
(-0.137235 0.181513 0)
(-0.146666 0.164515 0)
(-0.155957 0.150155 0)
(-0.0196704 0.263085 0)
(-0.0474797 0.259062 0)
(-0.0738451 0.251449 0)
(-0.0980821 0.240698 0)
(-0.119668 0.227369 0)
(-0.138264 0.212094 0)
(-0.153699 0.195516 0)
(-0.166008 0.17816 0)
(-0.177688 0.162421 0)
(-0.0279402 0.276433 0)
(-0.0563279 0.271769 0)
(-0.0835161 0.263866 0)
(-0.108964 0.253043 0)
(-0.132259 0.239685 0)
(-0.15311 0.224253 0)
(-0.171294 0.207258 0)
(-0.186738 0.189148 0)
(-0.200968 0.171499 0)
(-0.0379166 0.286632 0)
(-0.0663483 0.281312 0)
(-0.0939058 0.273088 0)
(-0.120222 0.262124 0)
(-0.144996 0.248624 0)
(-0.167974 0.232828 0)
(-0.188915 0.215031 0)
(-0.207646 0.195521 0)
(-0.224563 0.174977 0)
(-0.0433859 0.291358 0)
(-0.0717351 0.285702 0)
(-0.0993934 0.277295 0)
(-0.126094 0.266218 0)
(-0.151581 0.252577 0)
(-0.175608 0.236503 0)
(-0.197944 0.218151 0)
(-0.218373 0.197699 0)
(-0.2367 0.175343 0)
(0 0 0)
(0 0 0)
(0 0 0)
(0 0 0)
(0 0 0)
(0 0 0)
(0 0 0)
(0 0 0)
(-0.00579386 0.00634723 0)
(-0.00880347 0.00869367 0)
(-0.0119846 0.0101652 0)
(-0.0153079 0.0106433 0)
(-0.0186366 0.0100211 0)
(-0.021742 0.00826831 0)
(-0.0242699 0.00547353 0)
(-0.0257631 0.00191552 0)
(-0.0136314 0.014631 0)
(-0.0193922 0.0185551 0)
(-0.0254463 0.0207735 0)
(-0.0317204 0.0211185 0)
(-0.0379262 0.0194339 0)
(-0.0435962 0.0157029 0)
(-0.0481026 0.0101426 0)
(-0.0506821 0.00330027 0)
(-0.023262 0.0244859 0)
(-0.0314488 0.0292112 0)
(-0.0400298 0.0315092 0)
(-0.0488427 0.0311922 0)
(-0.0574439 0.028093 0)
(-0.0651526 0.0222448 0)
(-0.0711221 0.0140094 0)
(-0.074412 0.00417541 0)
(-0.0345312 0.0356561 0)
(-0.0448407 0.0404702 0)
(-0.0555998 0.042246 0)
(-0.066552 0.0408085 0)
(-0.0770992 0.0360096 0)
(-0.086382 0.0279561 0)
(-0.0933783 0.0171484 0)
(-0.0970664 0.00457767 0)
(-0.0472935 0.0478851 0)
(-0.0594284 0.0521324 0)
(-0.0720403 0.0528597 0)
(-0.0847465 0.0499131 0)
(-0.0968055 0.0431809 0)
(-0.107236 0.0328643 0)
(-0.114892 0.0195947 0)
(-0.118738 0.00451644 0)
(-0.061407 0.0609049 0)
(-0.075099 0.0640052 0)
(-0.0892422 0.0632218 0)
(-0.103335 0.0584369 0)
(-0.116515 0.0495911 0)
(-0.127701 0.0369825 0)
(-0.1357 0.0213612 0)
(-0.139518 0.00397894 0)
(-0.076759 0.0744523 0)
(-0.0917519 0.0758925 0)
(-0.10713 0.0731992 0)
(-0.122264 0.0663034 0)
(-0.136195 0.0552067 0)
(-0.14778 0.0402983 0)
(-0.15584 0.0224349 0)
(-0.159476 0.00292968 0)
(-0.0932623 0.0882489 0)
(-0.109328 0.08759 0)
(-0.125646 0.082646 0)
(-0.141483 0.0734056 0)
(-0.155817 0.0599545 0)
(-0.167475 0.042765 0)
(-0.175358 0.0227724 0)
(-0.178678 0.00130911 0)
(-0.11088 0.102003 0)
(-0.127784 0.0988485 0)
(-0.14475 0.0913641 0)
(-0.160959 0.0795964 0)
(-0.175343 0.0637218 0)
(-0.186777 0.0442942 0)
(-0.194271 0.0222939 0)
(-0.197157 -0.000969999 0)
(-0.12962 0.115382 0)
(-0.147121 0.109371 0)
(-0.164429 0.0990928 0)
(-0.18065 0.0846601 0)
(-0.19475 0.066337 0)
(-0.205687 0.0447444 0)
(-0.212595 0.0208729 0)
(-0.214932 -0.00403071 0)
(-0.149538 0.127975 0)
(-0.167378 0.118779 0)
(-0.184687 0.105485 0)
(-0.200561 0.0882941 0)
(-0.214028 0.0675433 0)
(-0.224179 0.043901 0)
(-0.2303 0.0183251 0)
(-0.231967 -0.00803061 0)
(-0.17072 0.139219 0)
(-0.188613 0.126535 0)
(-0.20555 0.110054 0)
(-0.220667 0.0900599 0)
(-0.233123 0.0669666 0)
(-0.242181 0.0414423 0)
(-0.247282 0.0143892 0)
(-0.248128 -0.0131661 0)
(-0.193273 0.148274 0)
(-0.210841 0.13183 0)
(-0.226936 0.112045 0)
(-0.240814 0.0893061 0)
(-0.251828 0.0640639 0)
(-0.259435 0.0369484 0)
(-0.263259 0.00874336 0)
(-0.263128 -0.0197083 0)
(-0.217108 0.15371 0)
(-0.233763 0.13335 0)
(-0.248364 0.110371 0)
(-0.260409 0.085174 0)
(-0.269501 0.0581865 0)
(-0.275318 0.0299365 0)
(-0.277658 0.00101641 0)
(-0.276453 -0.0279585 0)
(-0.240753 0.153095 0)
(-0.255546 0.12921 0)
(-0.26788 0.103633 0)
(-0.277537 0.0766762 0)
(-0.284343 0.0486718 0)
(-0.288169 0.0199818 0)
(-0.288938 -0.00901206 0)
(-0.286637 -0.0379215 0)
(-0.252746 0.151298 0)
(-0.266359 0.125796 0)
(-0.277407 0.0990823 0)
(-0.285783 0.0714145 0)
(-0.291406 0.043059 0)
(-0.294224 0.0142889 0)
(-0.294208 -0.0146189 0)
(-0.291358 -0.0433859 0)
(0 0 0)
(0 0 0)
(0 0 0)
(0 0 0)
(0 0 0)
(0 0 0)
(0 0 0)
(0 0 0)
(-0.00579386 0.00634723 0)
(-0.00880347 0.00869367 0)
(-0.0119846 0.0101652 0)
(-0.0153079 0.0106433 0)
(-0.0186366 0.0100211 0)
(-0.021742 0.00826831 0)
(-0.0242699 0.00547353 0)
(-0.0257631 0.00191552 0)
(-0.0136314 0.014631 0)
(-0.0193922 0.0185551 0)
(-0.0254463 0.0207735 0)
(-0.0317204 0.0211185 0)
(-0.0379262 0.0194339 0)
(-0.0435962 0.0157029 0)
(-0.0481026 0.0101426 0)
(-0.0506821 0.00330027 0)
(-0.023262 0.0244859 0)
(-0.0314488 0.0292112 0)
(-0.0400298 0.0315092 0)
(-0.0488427 0.0311922 0)
(-0.0574439 0.028093 0)
(-0.0651526 0.0222448 0)
(-0.0711221 0.0140094 0)
(-0.074412 0.00417541 0)
(-0.0345312 0.0356561 0)
(-0.0448407 0.0404702 0)
(-0.0555998 0.042246 0)
(-0.066552 0.0408085 0)
(-0.0770992 0.0360096 0)
(-0.086382 0.0279561 0)
(-0.0933783 0.0171484 0)
(-0.0970664 0.00457767 0)
(-0.0472935 0.0478851 0)
(-0.0594284 0.0521324 0)
(-0.0720403 0.0528597 0)
(-0.0847465 0.0499131 0)
(-0.0968055 0.0431809 0)
(-0.107236 0.0328643 0)
(-0.114892 0.0195947 0)
(-0.118738 0.00451644 0)
(-0.061407 0.0609049 0)
(-0.075099 0.0640052 0)
(-0.0892422 0.0632218 0)
(-0.103335 0.0584369 0)
(-0.116515 0.0495911 0)
(-0.127701 0.0369825 0)
(-0.1357 0.0213612 0)
(-0.139518 0.00397894 0)
(-0.076759 0.0744523 0)
(-0.0917519 0.0758925 0)
(-0.10713 0.0731992 0)
(-0.122264 0.0663034 0)
(-0.136195 0.0552067 0)
(-0.14778 0.0402983 0)
(-0.15584 0.0224349 0)
(-0.159476 0.00292968 0)
(-0.0932623 0.0882489 0)
(-0.109328 0.08759 0)
(-0.125646 0.082646 0)
(-0.141483 0.0734056 0)
(-0.155817 0.0599545 0)
(-0.167475 0.042765 0)
(-0.175358 0.0227724 0)
(-0.178678 0.00130911 0)
(-0.11088 0.102003 0)
(-0.127784 0.0988485 0)
(-0.14475 0.0913641 0)
(-0.160959 0.0795964 0)
(-0.175343 0.0637218 0)
(-0.186777 0.0442942 0)
(-0.194271 0.0222939 0)
(-0.197157 -0.000969999 0)
(-0.12962 0.115382 0)
(-0.147121 0.109371 0)
(-0.164429 0.0990928 0)
(-0.18065 0.0846601 0)
(-0.19475 0.066337 0)
(-0.205687 0.0447444 0)
(-0.212595 0.0208729 0)
(-0.214932 -0.00403071 0)
(-0.149538 0.127975 0)
(-0.167378 0.118779 0)
(-0.184687 0.105485 0)
(-0.200561 0.0882941 0)
(-0.214028 0.0675433 0)
(-0.224179 0.043901 0)
(-0.2303 0.0183251 0)
(-0.231967 -0.00803061 0)
(-0.17072 0.139219 0)
(-0.188613 0.126535 0)
(-0.20555 0.110054 0)
(-0.220667 0.0900599 0)
(-0.233123 0.0669666 0)
(-0.242181 0.0414423 0)
(-0.247282 0.0143892 0)
(-0.248128 -0.0131661 0)
(-0.193273 0.148274 0)
(-0.210841 0.13183 0)
(-0.226936 0.112045 0)
(-0.240814 0.0893061 0)
(-0.251828 0.0640639 0)
(-0.259435 0.0369484 0)
(-0.263259 0.00874336 0)
(-0.263128 -0.0197083 0)
(-0.217108 0.15371 0)
(-0.233763 0.13335 0)
(-0.248364 0.110371 0)
(-0.260409 0.085174 0)
(-0.269501 0.0581865 0)
(-0.275318 0.0299365 0)
(-0.277658 0.00101641 0)
(-0.276453 -0.0279585 0)
(-0.240753 0.153095 0)
(-0.255546 0.12921 0)
(-0.26788 0.103633 0)
(-0.277537 0.0766762 0)
(-0.284343 0.0486718 0)
(-0.288169 0.0199818 0)
(-0.288938 -0.00901206 0)
(-0.286637 -0.0379215 0)
(-0.252746 0.151298 0)
(-0.266359 0.125796 0)
(-0.277407 0.0990823 0)
(-0.285783 0.0714145 0)
(-0.291406 0.043059 0)
(-0.294224 0.0142889 0)
(-0.294208 -0.0146189 0)
(-0.291358 -0.0433859 0)
)
;

boundaryField
{
    walls
    {
        type            fixedValue;
        value           uniform (0 0 0);
    }
    cylinder
    {
        type            solidBodyMotionDisplacement;
        value           nonuniform List<vector> 
34
(
(-0.0433859 0.291358 0)
(-0.0433859 0.291358 0)
(-0.0717351 0.285702 0)
(-0.0717351 0.285702 0)
(-0.0993934 0.277295 0)
(-0.0993934 0.277295 0)
(-0.126094 0.266218 0)
(-0.126094 0.266218 0)
(-0.151581 0.252577 0)
(-0.151581 0.252577 0)
(-0.175608 0.236503 0)
(-0.175608 0.236503 0)
(-0.197944 0.218151 0)
(-0.197944 0.218151 0)
(-0.218373 0.197699 0)
(-0.218373 0.197699 0)
(-0.2367 0.175343 0)
(-0.2367 0.175343 0)
(-0.252746 0.151298 0)
(-0.252746 0.151298 0)
(-0.266359 0.125796 0)
(-0.266359 0.125796 0)
(-0.277407 0.0990823 0)
(-0.277407 0.0990823 0)
(-0.285783 0.0714145 0)
(-0.285783 0.0714145 0)
(-0.291406 0.043059 0)
(-0.291406 0.043059 0)
(-0.294224 0.0142889 0)
(-0.294224 0.0142889 0)
(-0.294208 -0.0146189 0)
(-0.294208 -0.0146189 0)
(-0.291358 -0.0433859 0)
(-0.291358 -0.0433859 0)
)
;
        solidBodyMotionFunction oscillatingRotatingMotion;
        oscillatingRotatingMotionCoeffs
        {
            origin          ( 0 0 0 );
            axis            ( 0 0 1 );
            omega           1.5;
            amplitude       ( 0 0 30 );
        }
    }
    outlet
    {
        type            fixedValue;
        value           uniform (0 0 0);
    }
    inlet
    {
        type            fixedValue;
        value           nonuniform List<vector> 0();
    }
    frontAndBack
    {
        type            empty;
    }
    procBoundary3to1
    {
        type            processor;
    }
    procBoundary3to2
    {
        type            processor;
    }
}


// ************************************************************************* //
