/*--------------------------------*- C++ -*----------------------------------*\
| =========                 |                                                 |
| \\      /  F ield         | OpenFOAM: The Open Source CFD Toolbox           |
|  \\    /   O peration     | Version:  2412                                  |
|   \\  /    A nd           | Website:  www.openfoam.com                      |
|    \\/     M anipulation  |                                                 |
\*---------------------------------------------------------------------------*/
FoamFile
{
    version     2.0;
    format      ascii;
    arch        "LSB;label=32;scalar=64";
    class       volScalarField;
    location    "49";
    object      p;
}
// * * * * * * * * * * * * * * * * * * * * * * * * * * * * * * * * * * * * * //

dimensions      [0 2 -2 0 0 0 0];

internalField   nonuniform List<scalar> 
808
(
0.118752
0.0522811
0.0465275
0.117315
-0.313079
0.0468638
0.0378989
0.0368017
-0.176942
-0.0242634
0.0346942
-0.206283
0.0355667
0.0421853
-0.175847
0.0359252
-0.184319
0.0385856
0.0723191
0.0288967
0.0757716
0.395582
0.109342
-0.00180038
0.474603
-0.134472
-0.0938339
0.0195045
0.0349779
0.0497807
0.0272643
0.0319459
0.0447165
0.0381875
-0.0734741
0.621407
0.0515422
0.0600935
0.0441637
0.0375526
-0.0424237
-0.0851378
0.071778
0.0529311
-0.205561
0.125815
0.0498729
-0.0309573
0.044176
-0.215945
0.0450218
0.01438
0.0823894
0.0238717
-0.0360784
0.0436781
0.0153809
0.0564356
-0.0322989
0.0372655
-0.343304
-0.0290211
0.0422691
-0.167778
0.0544718
0.082044
-0.328548
0.0376213
0.078431
-0.373208
0.0486338
-0.426069
0.0410329
0.0449764
0.146265
0.0665116
0.0307632
-0.0243087
0.044941
0.34128
-0.0783009
0.0443039
0.0598487
0.254299
0.0732754
0.0136007
-0.469981
-0.0559344
0.0446511
-0.135494
0.0458299
-0.121827
0.280406
0.189572
0.0745816
-0.240958
0.0305759
-0.114255
-0.115135
-0.240225
0.0534114
0.0331726
0.0527786
0.0238605
-0.00869004
0.096283
-0.260224
-0.013682
0.0401848
-0.0127993
0.0030539
0.355
0.0454163
0.0387928
0.0417303
0.446605
0.0393808
-0.357897
0.0471161
0.0655036
-0.228523
0.0734402
0.039049
0.0636744
0.145817
-0.00362871
0.09724
-0.00258113
0.0224191
0.1026
-0.396315
0.036217
-0.0257766
0.158587
0.0453876
0.0398107
0.0820077
0.0400348
0.0471741
0.0333989
-0.227026
0.0465927
0.0729884
0.0467811
0.0154729
0.0343282
0.0971067
0.15057
-0.090165
0.00652882
0.045676
0.366088
0.0488038
0.54787
-0.278271
-0.0471358
0.0480145
-0.203752
0.100755
-0.0664198
-0.411602
-0.240242
-0.404149
0.0428921
0.0967094
0.0475447
0.0435837
-0.442636
0.0416539
0.0517311
0.0512466
0.191523
0.0487207
0.0838406
0.052919
0.0709713
0.106006
-0.184901
0.049328
-0.466123
0.0497541
-0.0848361
0.0387759
0.246621
-0.267286
0.153142
0.0566263
-0.114267
0.0566294
-0.0790235
-0.241604
-0.0319822
0.0466028
0.0748265
0.0405002
-0.189453
0.0485885
0.0398764
0.00855026
0.116225
0.0719849
0.0334419
0.0457586
-0.45104
0.386094
-0.194224
-0.396244
0.0212388
0.0251885
0.0449386
-0.0246465
-0.53216
-0.309549
0.0500606
-0.0160415
0.0414496
-0.442867
0.00808822
-0.0334953
0.0172006
-0.02501
-0.0389043
0.044944
0.0417278
0.012432
0.047784
0.161075
-0.290804
-0.0375417
0.0344898
0.152249
0.0325115
0.0320608
0.0289088
-0.0767538
0.0033282
0.0155333
-0.00383713
-0.0336014
0.0256444
-0.0134944
0.00646572
-0.0257957
0.0111927
0.00685509
-0.00154618
0.0151735
0.0130706
-0.0247017
0.0700135
-0.423362
0.0208658
0.0473803
0.00176289
0.0368452
0.0379543
0.03772
-0.0169027
0.0367619
0.160233
-0.0103351
0.0328815
0.0292956
-0.121495
0.0588883
0.0125644
-0.0175299
0.0472181
-0.018764
0.0167456
-0.0323876
-0.530471
0.301173
0.0578417
-0.0665303
0.0305573
0.0445489
0.0441001
-0.150682
0.242116
0.0289613
0.00925663
-0.0625877
0.0886123
-0.20552
0.0499772
0.044383
-0.0773956
0.0111864
0.0489961
0.0463017
0.0435661
-0.028117
-0.0173085
-0.0253551
0.0390359
-0.00637271
0.0949106
0.00752403
0.012202
-0.0147857
0.0372945
-0.0354066
0.0465098
-0.626143
-0.0478818
0.0248401
-0.112976
-0.202679
-0.332723
0.0427046
0.0353027
-0.402036
0.121523
0.143658
0.0559457
0.0501012
-0.0383498
0.0130783
-0.299277
0.0635955
-0.0017402
0.062415
0.0554825
-0.000159361
0.0584299
-0.0748535
0.0353504
0.0144756
-0.321099
-4.1386e-05
0.0372416
-0.111832
-0.113172
0.0491287
0.259344
0.0476177
-0.163839
0.541873
0.0205157
0.0108159
0.0553465
-0.0618348
-0.00280395
-0.0384169
0.0663614
0.0291027
0.058157
-0.0171972
-0.179947
-0.0663054
0.141291
0.0210482
-0.294689
-0.409343
-0.382683
-0.422119
-0.0283917
0.0443262
0.0481378
0.0472856
0.0138125
0.0231062
0.0517104
0.00991583
-0.621676
0.0130854
0.0375066
0.0526687
0.0786659
0.0198931
0.0128955
0.109432
-0.484242
-0.00671682
0.035214
-0.043275
0.0972561
-0.343391
0.0288642
-0.248905
0.0262536
0.041857
0.0583627
0.045333
0.0503642
-0.0541249
-0.465235
0.0375427
0.0523136
-0.048527
0.0961556
0.0338848
0.0411821
0.0331218
0.0287532
-0.053487
0.0172087
0.0339518
0.0479619
-0.0756719
-0.285124
0.102514
-0.0684146
0.032432
0.0181514
0.403944
-0.206358
-0.00669128
0.0164319
0.0352813
0.0127608
0.057567
0.0715723
0.00594362
-0.0610597
-0.00464701
0.0310825
-0.0016292
-0.00528122
-0.0116592
-0.00884577
0.033219
0.108213
0.0531925
0.0285253
0.0237144
0.0632487
0.0302921
0.0623334
-0.473733
0.0701031
0.0663015
0.000814491
-0.192564
-0.330768
0.0207441
-0.138417
0.0258139
0.0534221
-0.419953
-0.290177
0.271834
-0.441995
-0.567201
0.0450646
-0.08012
0.0425302
-0.251123
0.345724
0.0117194
-0.363669
0.0398237
0.063405
0.546344
0.0371164
-0.00115002
0.0888785
-0.0314505
0.0257543
-0.430074
-0.195755
0.0357388
0.0614002
0.0151068
-0.342215
-0.42886
-0.150806
0.0586859
0.0704778
0.129065
0.013425
0.0106582
0.114787
0.0232026
0.0447335
-0.107232
-0.225567
0.0941817
0.0348998
0.0452435
0.0517704
0.0788718
-0.00414666
0.0314111
-0.596697
0.43805
-0.101041
-0.330245
0.0262281
-0.00845805
-0.292836
-0.27569
0.113447
-0.450813
0.0610128
0.865738
0.0471085
-0.481538
0.0356244
0.0570283
0.00384705
-0.562055
-0.282213
-0.411099
0.0288863
0.0515438
-0.485924
0.0294785
0.0152826
0.142869
-0.459361
0.0690709
-0.625975
-0.259116
-0.318221
0.0314984
0.00675735
0.0349161
0.14227
0.11481
0.0338808
-0.336982
0.290065
-0.0258838
0.00179564
-0.569567
-0.625248
-0.462303
-0.0201684
-0.469615
-0.0307497
0.134343
0.113393
-0.0139093
-0.30224
0.0217953
-0.385023
-0.1864
0.0152811
0.0328997
-0.436175
0.0297151
0.0742041
-0.497055
-0.432377
-0.0509322
0.140001
0.0479117
-0.440451
-0.249677
-0.110145
0.0602388
0.0816758
0.136289
0.0195842
-0.268141
-0.22028
0.139948
0.0480581
0.0790683
0.0534504
0.066718
-0.265569
0.0251832
-0.343188
0.0651958
-0.35228
0.134087
0.0041721
-0.296469
-0.386057
0.00575977
-0.578877
-0.587601
0.0703861
-0.0197415
-0.264209
0.0380708
-0.360446
0.0266656
0.122022
0.0551471
-0.409931
0.000256068
0.15224
-0.386872
-0.0150377
-0.341013
0.0442735
-0.404358
-0.439657
0.0680819
0.307636
0.441139
-0.0259149
0.00700838
0.00383939
-0.46702
0.658501
0.0529103
-0.13946
0.0395654
-0.140533
0.0625493
0.513723
-0.303364
-0.00921045
-0.00202841
0.0392127
0.0439048
-0.383233
-0.310255
-0.3532
-0.282344
-0.359778
0.0360525
-0.452201
-0.0576326
-0.195043
-0.252414
0.550576
0.621331
-0.183981
0.0628251
-0.275684
0.000158586
0.0073795
0.447928
0.0623468
-0.434029
-0.0783055
-0.440082
0.0218233
-0.138592
0.0288631
-0.247771
-0.182538
0.00474308
0.00761343
-0.440441
0.413828
0.696504
-0.475996
-0.247668
-0.463518
-0.0239553
-0.24387
-0.256071
-0.111977
-0.435042
0.785105
-0.273212
0.72995
-0.529258
0.303491
-0.436315
0.0465363
0.214751
-0.430738
0.170605
-0.183759
-0.239821
-0.270049
0.889998
-0.29418
0.190371
0.117388
0.627161
0.105582
-0.268329
-0.185739
-0.0266618
0.0255357
0.133134
0.488844
0.021225
0.0237447
-0.25455
0.166386
-0.187235
-0.161728
0.0476218
-0.262256
-0.237564
-0.101212
-0.498378
0.0464385
0.0947434
0.0336272
0.11787
0.0858979
-0.259153
-0.295586
0.0126965
0.0553894
-0.398796
-0.443485
0.221548
0.231546
0.0903978
0.700481
-0.145874
-0.408524
-0.320309
-0.232431
-0.119295
0.128449
0.783572
-0.382716
0.337184
0.0328639
-0.356196
0.193476
-0.0237279
0.352024
-0.0913166
0.055712
-0.451237
-0.148964
0.143382
0.808532
0.318667
0.786183
-0.431231
-0.214617
-0.543924
0.210285
0.301471
0.100581
0.417068
0.0775982
0.498835
0.314297
-0.0537714
-0.267769
-0.0190118
-0.340426
0.895679
0.401585
0.684354
0.521219
-0.208642
-0.45559
-0.267376
-0.36007
0.0857135
-0.506544
0.0459736
0.624303
-0.509302
0.0171907
-0.366095
0.221127
-0.262486
-0.298
-0.0536831
-0.204643
-0.299798
-0.330041
-0.460751
-0.0451553
-0.551662
-0.208989
-0.428223
0.187192
0.633532
-0.153215
-0.451733
0.852374
-0.445699
0.249141
-0.173392
0.347573
0.079226
-0.450381
-0.32768
0.482462
-0.364834
-0.258869
0.142994
-0.216468
0.0331618
-0.239595
-0.065098
0.0230963
0.554265
0.784779
-0.246495
0.204399
-0.320921
0.834659
0.0333438
-0.245985
0.03687
0.75813
0.244349
-0.254532
-0.249804
0.429944
-0.149683
0.0841785
0.391414
0.287646
0.274659
-0.187182
-0.220866
0.693699
)
;

boundaryField
{
    FrontBack
    {
        type            empty;
    }
    Top
    {
        type            zeroGradient;
    }
    In
    {
        type            zeroGradient;
    }
    Bottom
    {
        type            zeroGradient;
    }
    Out
    {
        type            fixedValue;
        value           uniform 0;
    }
    circle
    {
        type            zeroGradient;
    }
}


// ************************************************************************* //
