/*--------------------------------*- C++ -*----------------------------------*\
| =========                 |                                                 |
| \\      /  F ield         | OpenFOAM: The Open Source CFD Toolbox           |
|  \\    /   O peration     | Version:  2412                                  |
|   \\  /    A nd           | Website:  www.openfoam.com                      |
|    \\/     M anipulation  |                                                 |
\*---------------------------------------------------------------------------*/
FoamFile
{
    version     2.0;
    format      ascii;
    arch        "LSB;label=32;scalar=64";
    class       surfaceScalarField;
    location    "49";
    object      phi;
}
// * * * * * * * * * * * * * * * * * * * * * * * * * * * * * * * * * * * * * //

dimensions      [0 3 -1 0 0 0 0];

oriented        oriented;

internalField   nonuniform List<scalar> 
1171
(
-0.944742
0.944742
0.753498
-1.05466
0.30116
0.00221216
-0.756995
0.754783
0.0552584
-0.083407
-0.27634
0.359747
-0.753498
0.0761248
0.677373
0.889525
-0.207182
-0.682343
0.827085
-1.06063
0.233542
-0.34673
-0.0569544
0.403685
-0.0190805
0.600178
-0.581098
-0.700328
0.975081
-0.274753
-0.430137
1.0021
-0.175014
0.232322
0.103095
-0.335417
0.949594
0.052505
0.308648
-0.0763261
0.972896
-0.0233028
0.786011
-0.783799
-0.77055
0.596802
0.173748
0.0488621
-0.74919
0.548892
-0.910243
0.36135
-1.07711
0.665572
0.411541
-0.641985
0.622904
0.0269224
-0.247678
0.220755
0.0290701
-0.649809
0.620738
0.455517
-0.512471
-0.869538
0.921437
-0.0518988
1.00713
-0.0342375
0.912409
-1.08056
0.168155
1.01007
-0.00293777
-0.692427
-0.0781224
1.30392
-0.877988
-0.425936
0.140533
-0.0974497
-0.382439
0.479888
-0.276023
0.190818
0.0852056
-0.588656
-0.466002
1.00517
-0.0927565
-0.032793
0.879119
-0.846326
0.516355
0.787569
0.502729
0.00100364
0.454513
-0.781067
-0.114446
0.895513
0.570148
0.260979
-0.831127
0.00515485
0.678763
-0.683918
-0.506288
-0.570825
-0.382513
-0.69805
0.0108398
0.258273
-0.269112
-0.948321
-0.0362131
0.984534
0.361497
0.0421874
0.811919
0.0776062
-0.589616
-0.0523692
0.0418901
-0.822957
0.0354561
1.02004
-1.0555
-0.40171
0.0255944
0.376115
-0.708925
-0.239395
-0.80914
0.844596
0.789585
0.185495
-0.580094
0.98829
-0.807334
-0.180956
-0.146239
0.106787
0.039452
-0.45204
-0.0604313
-0.307283
1.09687
0.0369554
0.38862
-0.425576
-0.565882
1.13603
0.701305
-0.815751
0.378517
-0.0340979
-0.344419
0.794264
-0.794264
-0.840635
0.0541218
-0.330462
-0.689643
0.65685
-0.05244
-0.1546
0.20704
0.874764
0.00435457
1.05721
-0.796231
0.222823
-0.324241
0.101418
0.897491
-0.0855721
-0.659304
-0.0561995
0.715503
0.148476
-0.230386
0.0819099
0.77377
-0.980952
-0.434184
0.307668
0.126516
0.678966
-0.649896
0.881444
-0.401968
-0.479477
0.498932
-0.695075
0.0354847
0.65959
0.0663644
0.644088
0.0455455
-0.689633
0.154059
-0.0999374
-0.507493
0.105784
0.0339427
-0.891036
0.857094
-0.546714
-0.746434
0.0540065
0.489612
-0.0350988
0.277619
-0.834707
0.557088
0.423587
0.576413
0.600244
-0.558354
-0.415473
0.0512924
0.36418
0.554361
0.239902
-0.696842
0.701997
0.107173
0.849895
0.00586906
-0.665173
-0.758303
0.792246
0.587888
0.107903
0.31114
-0.419043
-0.157385
0.586296
0.092467
0.816313
-1.01895
0.202639
0.655278
0.333012
-0.4412
0.667915
-0.560012
0.407262
0.141631
-0.0536473
-0.658278
-0.280345
0.938623
-0.127177
-0.667086
-0.617247
0.36317
0.254076
0.652733
-0.646864
0.307307
1.04313
0.0140835
-0.758303
-0.0760802
-0.0701591
0.701305
0.779504
-0.779504
0.83703
-0.819651
-0.0173794
-0.456039
0.879625
-0.191484
-0.31601
0.761919
-0.675029
-0.0868901
-0.983843
0.325565
0.121883
-0.711499
0.815751
-0.973136
-0.270059
0.196605
0.0734543
0.107001
-1.017
0.910003
0.531625
-0.0288961
-0.291862
0.595191
-0.303329
-0.659548
0.766549
-0.154602
0.556359
-0.802994
0.246636
0.989576
-0.627002
-0.362574
0.725856
-0.0683705
-0.00947544
0.00838017
0.00109527
-0.798803
-0.644276
-0.112719
-0.689643
0.572633
-0.547038
0.348237
0.551723
-0.89996
0.775682
0.169059
0.493176
0.506824
-0.193081
-0.6799
0.87298
1.02368
-0.207368
-0.725856
0.792246
0.184667
-0.432345
-0.0169074
-8.40471e-05
0.0169914
0.674511
-0.4351
-0.239411
0.677373
-0.0631796
-0.0879175
0.560883
0.113628
-0.0223789
0.00142812
0.0209507
0.00361409
-0.0130895
0.211206
-0.245303
-0.934105
0.0261221
-0.141859
-0.0588537
0.138208
0.828747
0.741706
-0.165293
0.678647
-0.330411
-0.16885
0.391672
0.645465
0.0319085
0.236462
-1.05611
-0.973136
0.326398
0.65685
-0.180524
0.0259244
-0.854869
1.04634
-0.191468
0.480936
-0.104821
0.788723
0.304925
0.356976
-0.0483279
-0.680261
0.680261
0.238525
0.656988
-0.0466848
0.435305
0.433204
0.0354097
-0.0523171
0.514467
0.017158
-0.659548
0.562341
0.199578
-0.00629665
0.0146768
-0.645465
0.150624
0.895714
0.018654
-0.729257
0.710603
0.757381
-0.823182
0.0658011
-0.775682
-0.0556812
0.0745853
-0.018904
0.0897573
-0.120235
-0.103076
0.223311
-0.0104969
-0.0118819
0.740692
-0.722038
0.978913
-0.22413
-0.109167
-0.757478
0.866644
0.00141195
-0.00141195
0.247897
0.62685
0.292674
-0.919523
-0.177373
-0.554261
0.731634
-0.0125241
0.219564
0.379876
-0.2314
1.0739
-0.447052
0.9054
0.962989
-0.670315
0.188392
0.766549
0.591535
0.250631
0.670806
-0.667086
0.319739
-0.0240385
0.109543
-0.0855044
0.89269
0.214489
-1.10718
-0.568233
0.565295
0.543961
-0.568233
-0.591535
0.565295
-0.0178758
0.954222
0.0246903
-0.554361
0.471497
0.0828646
0.566075
0.704595
-1.27067
0.503956
0.569946
0.728491
0.535697
-1.26419
0.529775
0.433213
0.471497
-0.544083
-0.531748
-0.584973
-0.474906
-0.251271
-0.0109131
0.0109131
0.457828
0.498656
-0.973563
0.628085
-0.316944
-0.985122
0.35812
-0.69422
0.454824
-0.106383
-0.809382
0.915764
0.449844
-0.224971
1.11766
-0.918306
-1.04749
0.239497
0.807989
0.55159
-0.365808
-0.185781
0.758443
-0.851199
0.967909
-0.8352
-0.13271
-0.211697
-0.807255
-0.232075
0.825783
-0.593708
-1.16234
0.950641
-0.605684
0.615024
-0.00933981
-0.577156
-0.260246
0.837402
0.00666362
-0.00525167
0.41925
-0.049603
-0.865359
0.914962
-0.834637
0.641556
1.04922
0.231428
-1.28065
0.0017372
-0.0522413
0.416422
-0.364844
0.0406028
0.86535
-0.971733
-0.801286
-0.860714
0.0534591
-0.0936035
-0.816941
-0.0182587
0.359048
0.319599
0.158704
0.392886
-0.86334
0.603094
0.479477
-1.03435
-0.93091
0.0233122
0.298981
0.597374
-0.896354
0.0988234
-0.502305
0.57943
0.17795
0.265966
0.851695
1.19014
0.899596
-0.917855
0.0525459
-0.0525459
-0.0890133
-0.180486
-0.185322
0.318403
0.00799579
0.293796
0.950518
0.00303559
-0.0135325
0.655773
0.344227
0.798102
-0.588656
-0.764323
-0.681865
-0.513396
0.513396
-0.209621
-0.120841
0.690123
-0.844113
0.15399
-0.513838
-0.531604
0.29852
-0.99657
-0.821284
0.688574
-0.732328
0.785787
0.666904
0.155361
-0.822264
-0.691205
-0.188631
0.822629
-0.633998
-0.129234
0.00674693
0.00301008
-0.00975701
-0.344433
0.163947
0.988643
0.73435
-0.280037
-0.454313
0.548568
0.744966
-0.506441
0.0161522
-0.292176
-0.25444
0.875961
-0.621521
-0.329666
-0.13264
0.137533
-1.07861
-0.0285709
-0.688752
0.11004
0.675008
-0.785048
-0.831967
0.143216
0.655598
-0.788238
0.234918
-0.355152
-0.708357
0.0171518
0.373338
0.674173
-0.00625784
-0.00435573
0.00435573
-0.00948498
0.0791181
-0.103157
-0.0145342
0.0175698
-0.388758
0.320504
0.77427
-0.752614
-0.0216565
-0.589238
0.699279
0.763954
-0.108355
-0.637709
-0.194259
-1.09881
0.0210794
0.0314665
-0.643198
-0.869783
-0.92238
0.496444
-0.0457861
0.0795897
-0.0338036
-0.261634
-0.381564
0.353366
0.711032
-0.0830989
0.0242452
1.06146
0.553151
0.127934
-0.681085
-0.444474
0.182839
-0.00725416
0.0140011
0.689152
-0.969497
0.00337324
-0.00337324
-0.741045
0.77217
-0.031125
-0.28577
-0.163937
-0.679792
0.279444
0.593536
-0.0682053
-0.868423
-0.535343
0.167434
0.367909
0.606351
-0.628008
0.361208
0.243889
-0.605097
-0.180631
-0.644762
-0.140286
-0.187894
-0.255899
0.458211
-0.518643
0.197327
0.734088
-0.931415
0.498932
-0.211131
0.165345
0.287476
-0.543375
0.590775
-0.0915288
-0.499246
-0.293562
0.312312
-0.0187498
0.560116
0.0679687
0.119191
-0.316536
0.172967
0.143569
-0.0651955
-0.0108847
-0.419592
-0.22228
-0.0234756
0.245756
0.876829
-0.174347
-0.111423
0.544782
0.348813
-0.628849
0.430755
-0.430755
-0.219741
-0.41077
-0.22935
-0.41077
-0.784208
-0.85105
0.176021
-0.359669
0.756257
0.0437362
0.0835737
0.590599
0.112649
0.130935
0.00461168
-0.135546
-0.192235
0.574511
-0.902518
0.14504
-0.204729
0.127889
0.0768399
-0.742354
-0.171865
-0.613889
0.741822
-0.501761
-0.209418
-0.333956
-0.336424
-0.0796931
0.0796931
0.0664694
0.00811583
0.152014
0.068705
-0.64369
0.0298012
-0.0951857
0.472511
0.527489
0.760748
0.0356662
-0.00616039
-0.0295058
-0.303635
-0.564788
-0.572659
0.118709
-0.123266
0.00455672
-0.177132
-0.407539
-0.171509
0.765046
-0.562175
-0.180178
-0.102631
0.029113
0.344915
-0.711974
-0.205009
-0.232634
-0.0126693
-0.476443
0.433086
0.0433569
-0.142839
0.292875
-0.8637
-0.515886
0.57281
-0.872296
0.691665
0.383064
-0.0308225
0.0523474
-0.0215248
0.0712709
-0.633952
0.00120428
0.632748
-0.887053
0.641738
-0.730751
-0.213944
0.0110506
-0.0110506
-0.300384
0.367684
0.0487379
0.0148795
0.0207867
0.581631
0.774483
-0.571844
0.0147955
-0.000457893
-0.00389784
0.0068562
-0.0068562
-0.431318
0.499286
0.0169474
-0.0169474
-0.769637
-0.0133855
0.0200491
-0.50741
0.537211
0.63503
-0.666155
0.0752912
-0.0752912
-0.0571817
0.00486463
-0.0130705
-0.98277
0.620196
-0.465121
-0.00525167
0.592296
0.0180617
-0.610358
-0.708489
0.146314
-0.312628
-0.0127344
0.325362
-0.0538001
-0.0292988
-0.602815
-0.0311374
0.0314665
0.00515776
-0.00178452
-0.00327155
0.00327155
-0.0605818
0.306337
-0.47659
0.140668
0.657434
-0.0904857
0.00736581
-0.00736581
0.507995
-0.319088
0.00963869
0.0204159
0.00160453
0.555045
-0.874133
-0.644081
0.532659
-0.0974378
0.349494
0.789306
-0.00948498
-0.0816682
0.0963451
-0.646393
0.534547
-0.42756
-0.116193
-0.0233846
-0.0264647
-0.0206946
0.450362
-0.0893299
-0.409916
0.69602
0.0040569
0.00137835
-0.00137835
-0.162393
0.00812322
-0.571663
0.615399
-0.133898
0.505862
-0.137444
0.923455
0.717727
0.00515776
-0.759518
0.629809
0.143927
-0.0222283
-0.121699
0.38982
0.102626
-0.0117071
0.065244
-0.0535368
0.00843559
-0.00843559
-0.751345
0.0227454
-0.0520765
0.0724923
-0.0856168
0.0856168
-0.000457892
-0.00211917
0.73819
0.157523
-0.313576
-0.0939627
-0.511921
0.0412966
-0.0660976
0.0660976
-0.0866875
0.0864698
-0.0864698
0.0259415
-0.0259415
-0.355526
-0.0856743
0.236595
0.0710729
0.0407416
-0.773433
-0.0815908
0.159962
0.0247045
-0.241525
0.0854029
-0.0854029
-0.460019
-0.0586234
0.228839
-0.00808353
0.00188621
-0.641924
0.6598
-0.0771105
-0.00957699
0.117769
-0.112905
-0.0111785
-0.164465
0.175644
-0.149571
-0.205581
-0.0807126
0.0807126
0.053788
-0.053788
-0.0269743
-0.0941883
0.121163
-0.047213
-0.192144
-0.00503846
0.00114062
0.0159713
0.290366
-0.0259051
0.553182
0.00864358
0.0123072
-0.050309
0.050309
-0.729547
0.316391
-0.127998
-0.207502
-0.0228838
-0.0172277
0.0191139
0.195715
0.0275955
0.00274959
-0.00114506
0.0876446
0.0310643
0.0576907
0.102272
-0.0241441
0.0483893
-0.00199489
-0.00657429
0.00419541
0.000630049
-0.00482546
-0.00183624
0.0127005
0.0268506
-0.0268506
0.0480162
-0.0452853
0.0452853
-0.191877
0.00573286
0.0223905
-0.0760325
0.0175059
0.0809062
-0.0809062
0.239072
-0.235453
0.0858822
-0.0666461
-0.168807
-0.0140298
0.0140298
0.405026
0.254564
-0.524375
-0.0817123
-0.0415533
0.545693
0.0705561
-0.0540727
-0.414382
0.109864
-0.151681
0.169009
-0.0173281
-0.049842
0.049842
0.89917
-0.592014
-0.00504251
0.00320627
-0.00592372
-0.292706
-0.0010669
0.00490424
-0.0556663
-0.622634
0.570544
-0.664484
0.014615
0.0756672
0.0157886
0.0243675
-0.157605
-0.329319
0.253287
-0.0539116
0.0269374
0.170146
0.142166
0.335093
0.263343
-0.247554
0.00241089
-0.12256
-0.220237
0.0667325
-0.00904178
0.159712
-0.135344
-0.0702605
0.157905
-0.420595
0.120183
-0.102677
0.0602891
-0.470205
0.173913
0.182414
-0.252674
0.0154501
-0.184282
0.183215
0.00449662
0.153409
-0.0283379
0.0463071
0.461688
0.0128209
0.00200759
-0.00172532
0.0460276
-0.237565
-0.202803
0.589491
0.166492
0.0623472
0.0709945
-0.0628427
-0.00540722
-0.116292
-0.0309772
0.165644
-0.151029
-0.018687
-0.00390189
-0.112801
-0.0308732
0.0297023
0.253758
-0.0313183
-0.118312
-0.310402
-0.0235659
0.223017
0.138896
0.177495
0.0570349
0.0952574
0.0705494
0.511081
-0.00682035
0.109105
0.0400189
0.0698912
-0.10991
-0.269811
-0.195931
0.0271235
-0.216447
0.283278
)
;

boundaryField
{
    FrontBack
    {
        type            empty;
    }
    Top
    {
        type            calculated;
        value           uniform 0;
    }
    In
    {
        type            calculated;
        value           uniform -1;
    }
    Bottom
    {
        type            calculated;
        value           uniform 0;
    }
    Out
    {
        type            calculated;
        value           nonuniform List<scalar> 10(1.23245 1.11016 1.11672 1.09972 1.24029 0.908119 0.956484 1.04544 0.650496 0.64012);
    }
    circle
    {
        type            calculated;
        value           uniform 0;
    }
}


// ************************************************************************* //
