/*--------------------------------*- C++ -*----------------------------------*\
| =========                 |                                                 |
| \\      /  F ield         | OpenFOAM: The Open Source CFD Toolbox           |
|  \\    /   O peration     | Version:  2412                                  |
|   \\  /    A nd           | Website:  www.openfoam.com                      |
|    \\/     M anipulation  |                                                 |
\*---------------------------------------------------------------------------*/
FoamFile
{
    version     2.0;
    format      ascii;
    arch        "LSB;label=32;scalar=64";
    class       volVectorField;
    location    "49";
    object      U;
}
// * * * * * * * * * * * * * * * * * * * * * * * * * * * * * * * * * * * * * //

dimensions      [0 1 -1 0 0 0 0];

internalField   nonuniform List<vector> 
808
(
(0.896172 -0.0133017 0)
(0.995447 -0.0429736 0)
(0.986903 -0.249521 0)
(1.06617 0.0131335 -2.44252e-21)
(1.50182 -0.232083 0)
(0.936153 -0.0183418 0)
(1.08944 -0.0592034 -8.93876e-21)
(1.13757 -0.0467265 0)
(1.36788 -0.184644 3.32143e-20)
(1.20798 -0.042485 -8.01682e-21)
(1.14399 0.167998 1.12063e-20)
(1.40615 -0.191355 0)
(0.992577 -0.0434764 0)
(0.71714 -0.0212864 0)
(0.986982 0.0676028 1.25714e-20)
(1.06452 -0.0361022 0)
(0.833964 0.067733 -4.84928e-21)
(0.954241 -0.0211036 -1.62546e-22)
(1.12165 -0.140439 0)
(1.09295 0.00715657 0)
(1.11473 0.133715 -1.56355e-20)
(0.924586 0.121728 1.16102e-19)
(1.07056 0.00835815 -2.08161e-20)
(1.15847 -0.0195883 0)
(0.957407 0.171547 0)
(1.37505 0.0560169 -2.2105e-20)
(1.285 -0.12187 1.51077e-20)
(0.995318 -0.0244658 -1.12068e-20)
(1.04079 -0.000110015 0)
(1.05029 0.0112553 -2.97019e-22)
(0.972114 0.0115732 8.55118e-24)
(1.1042 -0.00228792 0)
(1.07604 0.0499403 0)
(1.08474 -0.0178763 9.42103e-21)
(1.26214 -0.00834894 6.55151e-21)
(0.749868 -0.126233 1.08451e-19)
(0.845159 -0.030607 -2.02641e-20)
(1.04643 0.0401604 2.47496e-21)
(1.18028 0.0625287 -6.51474e-21)
(1.13712 0.0453754 0)
(1.22125 -0.0319405 -1.07642e-20)
(1.26492 -0.0854091 0)
(1.004 -0.0209934 -1.45447e-20)
(1.13555 -0.00662032 1.77775e-20)
(1.34884 -0.122919 0)
(1.00867 0.01562 -2.66094e-20)
(1.00745 0.0351642 4.6362e-21)
(1.26235 -0.206809 2.53643e-20)
(1.16748 0.0548695 -1.42992e-20)
(1.40977 -0.0876849 -4.79816e-20)
(1.08187 -0.0349931 1.69242e-20)
(1.13588 -0.0461521 0)
(1.11102 -0.00100652 1.30869e-20)
(1.21891 0.017659 0)
(1.3114 0.222604 1.18799e-21)
(1.06689 0.0432126 -5.62259e-21)
(1.2556 0.10372 0)
(1.32023 0.0216796 2.41407e-21)
(1.21957 -0.0568226 8.60599e-21)
(1.13425 0.0232216 -2.22506e-21)
(-0.05853 0.252358 0)
(1.21942 -0.188376 -1.24125e-20)
(1.25085 -0.0309616 0)
(1.36125 0.0229832 -2.71177e-20)
(1.16935 -0.000235612 -1.73281e-20)
(1.03075 -0.0295514 -1.45122e-20)
(1.43683 0.0212165 3.05529e-20)
(0.670178 0.0199306 0)
(1.15131 0.0365471 0)
(1.51542 -0.313915 0)
(0.885192 0.0285529 -4.30257e-22)
(1.38008 -0.0809443 -5.62308e-20)
(0.997628 0.052468 0)
(1.0507 -0.0303473 -7.83932e-21)
(1.14251 -0.326697 -4.78571e-20)
(1.07198 0.0027186 -3.27068e-20)
(1.11847 0.0149817 -6.27329e-22)
(1.31681 0.492266 2.45658e-20)
(1.0743 -0.0471262 0)
(1.00284 0.268776 -1.95749e-19)
(1.36146 0.00518225 9.61491e-21)
(0.747454 0.0112688 0)
(0.853832 0.0179947 -1.91455e-20)
(0.974316 -0.112875 3.90211e-21)
(1.07663 -0.0241094 2.57275e-20)
(1.14786 0.0121265 -9.86866e-23)
(1.40178 -0.200055 0)
(1.33455 0.278896 0)
(1.07229 0.00805833 -2.07377e-20)
(1.41688 0.102502 2.49454e-20)
(1.06616 -0.0107684 1.35521e-20)
(1.306 -0.0580339 -1.67568e-21)
(0.965501 0.02139 1.91605e-20)
(1.00303 -0.0256827 0)
(1.10994 0.0075241 2.77596e-21)
(1.34458 0.1168 -6.09812e-20)
(0.783815 0.00881592 -3.93002e-21)
(1.38204 -0.081898 0)
(1.29019 -0.0304654 0)
(1.41304 0.0609477 -5.20121e-20)
(1.06963 -0.0414889 -1.09157e-20)
(1.09787 0.0114796 -2.67241e-22)
(0.936877 0.0201618 1.36611e-20)
(1.14139 -0.0071216 7.37513e-22)
(1.20606 0.00819352 -3.21908e-21)
(1.00009 -0.00285023 2.03066e-20)
(1.50819 -0.164373 0)
(1.02636 0.28252 0)
(1.08373 0.0307996 1.21617e-20)
(1.2166 -0.191779 -2.92743e-21)
(1.19769 0.00742849 5.61418e-23)
(1.03365 0.0341473 -1.27614e-19)
(1.14583 0.0339733 -4.75545e-21)
(1.24773 0.224838 4.65989e-21)
(0.824561 0.0185357 0)
(0.922786 -0.0550029 7.41786e-20)
(1.13085 0.0170835 -1.1824e-20)
(1.51076 -0.20049 -2.42894e-20)
(1.13673 -0.0424534 -1.40985e-20)
(0.923779 0.0175511 1.78924e-21)
(-0.185965 0.211478 0)
(0.846184 -0.0188697 2.0055e-21)
(0.787964 0.0227902 0)
(1.05268 0.00522564 -1.01119e-22)
(1.0141 0.0275679 0)
(1.30016 0.313274 2.70027e-21)
(1.03918 -0.0433573 -2.94715e-20)
(1.42018 0.197867 -1.85314e-21)
(1.14107 -0.046351 0)
(1.08827 -0.0189321 0)
(0.891825 0.16384 0)
(1.1522 -0.0327181 -6.12836e-21)
(1.20453 -0.0179388 5.49269e-21)
(1.06757 0.107108 -3.91477e-20)
(0.856198 -0.0388146 0)
(1.08504 0.0193503 -3.12306e-21)
(0.940835 0.18012 3.59029e-21)
(1.04641 0.0478829 -5.56779e-21)
(0.987405 0.030959 7.82796e-21)
(1.10439 0.0111272 2.24025e-22)
(-0.0105479 0.0608919 0)
(1.08543 -0.00950982 -1.48282e-20)
(0.834068 -0.181128 2.56327e-21)
(0.7079 0.0265472 -7.53714e-21)
(1.2544 0.163905 4.64962e-21)
(1.12817 0.292784 2.61168e-21)
(1.04306 0.0233513 1.73015e-20)
(0.992073 0.0312628 0)
(1.18457 -0.372684 -1.30731e-20)
(1.15341 0.307938 0)
(0.934563 0.0306437 1.56979e-20)
(0.963859 0.271792 1.5613e-19)
(0.961096 0.034883 0)
(0.822991 0.0865758 0)
(-0.115781 0.0813414 -6.63415e-20)
(1.33672 0.125489 -7.29385e-21)
(0.664961 -0.0211892 0)
(1.48199 0.0160555 0)
(0.956033 -0.0130829 0)
(1.3536 0.0905611 8.70043e-21)
(-0.0626102 -0.162697 0)
(-0.0504403 0.0696597 2.93327e-20)
(1.24324 0.0918362 1.19928e-19)
(0.995073 0.0351961 2.51054e-21)
(0.856025 -0.00261186 0)
(1.04722 -0.0513944 1.97189e-20)
(0.876325 0.0213085 0)
(0.989131 0.0787449 -1.29524e-19)
(1.02917 0.0464059 2.30735e-20)
(1.17824 -0.0232871 5.30104e-21)
(1.08182 0.0161536 9.04097e-21)
(1.01343 0.0664833 -1.43546e-20)
(0.844502 0.382524 -2.5999e-21)
(1.14794 -0.33881 1.8125e-22)
(0.911064 -0.0126918 0)
(1.06293 0.011237 -1.3654e-20)
(0.872711 0.00455746 -1.5583e-20)
(1.36935 -0.0947152 2.54418e-21)
(0.67135 0.0227966 0)
(1.1931 -0.109416 0)
(1.16549 -0.057904 8.55449e-21)
(1.37982 0.209706 5.77868e-21)
(1.09904 0.0156488 7.40287e-21)
(1.03352 0.0226396 1.80842e-20)
(0.843743 0.150399 -7.91299e-20)
(0.813583 0.00366232 2.62807e-20)
(1.12174 -0.0238084 1.19908e-20)
(1.29396 0.0370858 -3.70005e-21)
(1.14918 -0.0204449 -9.85495e-21)
(1.25283 0.0068726 3.17058e-21)
(-0.108608 0.13568 4.69518e-20)
(1.21367 -0.00316157 0)
(0.618812 -0.0107928 0)
(1.05623 -0.0172273 -5.82759e-21)
(1.08261 0.0119814 1.35224e-20)
(0.0569297 0.118354 0)
(0.882951 -0.0283103 9.31128e-22)
(1.17681 -0.0768017 -4.16795e-21)
(0.976146 0.00534014 2.1417e-21)
(1.07649 0.0309576 -9.54572e-21)
(0.996676 0.0243176 2.15836e-21)
(1.06735 -0.0652614 3.67664e-21)
(1.08327 0.0251188 0)
(0.504623 -0.00309539 0)
(1.04869 -0.0696716 0)
(1.14898 0.10287 -2.06811e-20)
(-0.0648655 -0.148271 6.21327e-20)
(1.08078 0.0361628 -2.33684e-23)
(1.00174 -0.228462 0)
(0.745836 0.0256613 -1.49863e-20)
(1.02774 0.321123 1.38498e-21)
(0.0158967 -0.0392279 -2.09909e-19)
(0.980834 0.191493 -5.27989e-20)
(0.634857 -0.0162766 0)
(0.915728 0.286907 0)
(0.916876 0.0155776 1.43079e-20)
(1.17523 -0.0622868 8.29773e-21)
(1.26991 0.391744 -8.4306e-21)
(1.08326 0.162351 3.77433e-22)
(1.31844 -0.0677229 3.66066e-22)
(0.950292 0.336843 0)
(1.3521 0.417227 -2.18411e-20)
(0.655278 -0.0169692 0)
(0.802744 -0.0172042 -5.86125e-21)
(1.10466 -0.0279916 3.22847e-22)
(0.610239 0.0103411 0)
(1.10003 -0.00655323 0)
(0.270004 0.419732 -4.34264e-20)
(1.30787 -0.272765 7.44301e-21)
(0.750434 -0.0138246 5.07521e-21)
(0.989709 -0.00536311 0)
(0.556325 -0.0102966 0)
(0.763857 -0.012644 -5.52466e-21)
(0.564977 -0.0148167 -9.06902e-22)
(1.36119 -0.00554583 1.8706e-22)
(1.1769 -0.103081 1.38304e-21)
(0.72615 0.0162246 -2.91699e-21)
(1.23982 -0.00499222 2.63888e-22)
(1.1468 0.0412295 -3.55591e-22)
(0.555729 0.0116933 7.89219e-21)
(1.32091 -0.000852791 -7.26228e-22)
(1.222 -0.111888 0)
(0.957395 0.168103 0)
(0.506694 0.0161199 0)
(1.10578 -0.0240928 0)
(1.12171 -0.0714975 -2.28034e-21)
(1.08343 -0.101671 0)
(1.23205 -0.0625455 0)
(0.923754 -0.0595085 0)
(1.07215 0.212002 0)
(-0.0392045 -0.0867238 6.54915e-20)
(1.06018 -0.0318809 1.72539e-21)
(0.905396 0.0746961 0)
(1.18903 0.00416939 -4.8188e-21)
(1.09039 0.0421064 3.54794e-21)
(1.11664 0.0381387 5.78954e-21)
(1.07336 -0.160228 6.9227e-21)
(0.973147 -0.113732 0)
(0.570106 -0.0126547 1.16467e-20)
(1.04981 0.0416934 1.39614e-20)
(1.26767 -0.265376 0)
(1.12029 0.165702 -7.61393e-22)
(1.18608 0.124396 6.18715e-21)
(0.821786 0.0809929 1.92507e-20)
(1.18009 -0.0272856 9.68411e-21)
(1.03841 0.104771 -8.5984e-21)
(1.16063 0.193158 0)
(1.12337 0.189437 -1.82262e-20)
(1.27577 0.235846 2.9531e-21)
(0.770194 -0.0409733 4.21063e-21)
(0.872254 -0.285219 0)
(0.00179816 -0.0230738 0)
(0.965629 0.106515 -1.84621e-20)
(1.09586 0.060434 0)
(1.26717 -0.169793 1.63049e-20)
(1.30956 0.121032 -3.90688e-23)
(1.02077 0.177934 8.26497e-21)
(1.16292 0.0984789 -5.94323e-21)
(1.31604 0.138006 7.85828e-20)
(1.03224 -0.328342 4.8315e-20)
(1.0946 -0.0701932 -5.00362e-22)
(0.804897 -0.318185 0)
(1.01799 0.062978 0)
(0.904634 0.00289783 -2.97696e-20)
(1.4011 -0.343591 -6.98514e-20)
(1.00531 -0.0424453 0)
(0.750942 0.327186 1.05297e-20)
(0.738076 0.195526 0)
(0.848963 -0.321009 2.14945e-21)
(0.737644 0.185371 -1.33463e-20)
(0.810544 0.0156078 -9.33746e-21)
(1.08082 -0.172553 0)
(1.28722 0.155552 4.55768e-23)
(1.21321 0.0412387 -8.09343e-22)
(0.925128 -0.312336 6.02619e-21)
(1.02364 -0.0556789 -6.3337e-21)
(0.75757 -0.394279 0)
(1.09042 0.0648502 0)
(1.18838 -0.269022 4.55983e-21)
(0.916716 -0.364991 -2.17136e-21)
(1.23741 0.200309 -3.70762e-21)
(1.06597 -0.0385666 -6.14547e-21)
(1.02259 -0.0837598 -5.84038e-22)
(1.02265 0.0506225 0)
(0.472154 -0.149905 1.76819e-20)
(1.33579 0.0645705 -1.09346e-20)
(0.726641 -0.185455 -6.39705e-21)
(0.421423 -0.289663 -2.03598e-20)
(1.39854 -0.0211033 2.71704e-20)
(1.0085 0.0838932 7.17306e-20)
(1.15022 -0.207098 -4.92364e-21)
(1.0503 -0.0757813 7.33025e-22)
(-0.0767028 -0.11714 -1.07531e-20)
(0.998761 -0.00613099 0)
(1.03501 -0.0885096 -1.50808e-20)
(0.83019 -0.0359363 2.23942e-20)
(1.09841 -0.025061 9.31177e-21)
(1.01182 -0.23376 4.8423e-21)
(0.538419 -0.0251982 1.28496e-21)
(1.45453 -0.352266 -1.81316e-20)
(1.05154 -0.0257847 0)
(1.04795 -0.0169173 -1.40156e-21)
(1.12849 0.0137729 -5.00221e-21)
(1.03386 0.0328964 0)
(0.87993 0.0134086 2.23155e-22)
(1.0862 0.0218305 6.00902e-21)
(0.903993 -0.0645285 -2.55303e-20)
(1.11441 -0.0725241 -1.3476e-20)
(0.868469 -0.189763 1.32237e-21)
(-0.0525511 -0.0751528 0)
(0.476912 -0.345641 1.19714e-20)
(1.13771 -0.0423604 0)
(1.07795 -0.0503868 1.75465e-20)
(1.14418 0.138382 0)
(1.12061 -0.0351126 1.27757e-20)
(1.01539 0.0256087 0)
(0.993519 -0.134112 0)
(1.34981 -0.020605 1.79427e-20)
(0.805807 -0.0965055 0)
(1.05198 0.284542 7.55957e-21)
(1.17003 0.000460449 6.06087e-22)
(1.02403 0.00523684 6.01142e-21)
(1.31933 -0.180026 -1.22708e-20)
(1.23896 0.114 1.08634e-21)
(1.26145 -0.193463 -1.32828e-20)
(1.03348 0.009558 0)
(1.08293 -0.0325458 0)
(1.03615 0.0663447 3.41268e-21)
(1.20245 -0.0809414 0)
(1.40691 0.217346 -1.83045e-20)
(0.929965 0.0711636 5.11898e-21)
(1.02745 0.0116816 2.86693e-20)
(1.18757 -0.0234083 1.65805e-22)
(-0.0105872 -0.0439899 0)
(-0.0490484 -0.136603 0)
(0.164188 0.356627 -5.7053e-20)
(-0.0666869 -0.0826894 0)
(0.761287 0.306693 1.02989e-20)
(1.15846 0.0398018 -4.10835e-21)
(1.06376 0.020554 -1.0222e-20)
(1.11992 -0.167431 -6.56066e-21)
(1.15848 -0.113989 0)
(0.722911 -0.0253976 -4.28815e-21)
(1.07221 0.094483 0)
(1.09181 -0.0140016 1.22942e-21)
(0.582818 -0.112483 0)
(0.746736 0.347718 -1.25712e-22)
(1.09289 0.112878 0)
(1.23904 0.0335111 0)
(0.306649 0.10497 1.17022e-21)
(0.693423 0.458194 -5.55828e-22)
(0.920566 0.294556 5.06384e-21)
(1.00843 0.0179493 -9.18597e-21)
(0.391462 0.0247701 0)
(1.17536 0.130419 6.05004e-22)
(1.24042 0.0188725 6.98968e-21)
(1.26812 -0.0539634 2.74083e-21)
(0.546116 0.22498 9.08136e-21)
(-0.0718172 -0.0983634 -1.21771e-19)
(1.17737 0.100645 0)
(-0.0248335 0.020297 0)
(1.23396 0.0673553 9.08813e-21)
(0.584897 0.187807 -9.76991e-21)
(1.18773 0.029505 -1.9892e-20)
(1.0835 -0.0352695 0)
(1.08598 0.0966502 7.2619e-21)
(1.28225 -0.393264 1.24859e-20)
(0.716078 -0.000317332 -1.37451e-20)
(1.11461 -0.0439234 -6.89897e-21)
(1.06265 -0.077554 -8.30607e-22)
(0.586001 -0.514792 1.28058e-20)
(1.11937 0.00199927 -3.14692e-20)
(1.13185 0.0198286 0)
(1.14577 0.114021 0)
(1.1068 -0.103939 -3.39073e-21)
(1.23846 0.0259237 -6.31672e-21)
(0.765862 -0.387798 -4.02485e-20)
(1.1909 -0.0823351 -8.31881e-21)
(1.14423 0.0536872 1.35735e-20)
(0.521951 5.34338e-05 2.47318e-20)
(0.2724 0.382035 -1.55356e-20)
(0.675954 -0.250019 3.13184e-20)
(1.16526 0.180563 -6.26977e-21)
(1.27157 -0.490848 1.0498e-20)
(1.22282 -0.0144023 1.81963e-21)
(1.1296 -0.0784022 4.01833e-21)
(0.950197 -0.243049 9.00483e-20)
(-0.103709 -0.130099 0)
(1.22928 0.0520209 9.3223e-22)
(0.117399 -0.29598 -7.54619e-21)
(1.22433 0.116072 -7.86456e-21)
(1.21928 -0.163182 2.8895e-21)
(1.06986 0.0201017 0)
(0.373744 -0.099147 0)
(1.14479 -0.0312089 0)
(1.42645 0.0687134 -7.21748e-21)
(1.19049 -0.0103713 -2.76628e-22)
(1.09358 -0.0519907 8.53033e-21)
(0.491011 0.0166743 0)
(0.656018 0.00330463 0)
(0.647284 0.000912393 2.92494e-22)
(0.453722 -0.00965439 0)
(1.27394 0.040409 0)
(1.01905 -0.011016 2.31448e-20)
(0.369024 -0.260757 0)
(0.959285 0.0563882 0)
(1.11375 0.0669761 0)
(1.16643 0.172011 -1.77853e-20)
(1.20621 0.00242735 -6.6582e-21)
(0.945483 -0.0349781 1.41182e-20)
(1.38251 -0.394281 -1.43623e-19)
(0.499766 -0.336695 -1.61456e-21)
(1.12122 0.131134 7.45937e-21)
(1.02626 0.259808 0)
(0.33639 -0.479509 0)
(-0.192999 0.560001 0)
(1.12807 -0.0533451 8.96716e-21)
(1.34901 -0.258663 -4.89388e-20)
(1.29098 -0.059977 0)
(1.03914 0.0400726 -1.46624e-20)
(0.842368 -0.23858 0)
(1.51069 -0.0679912 9.48723e-20)
(0.40946 0.513807 1.29317e-19)
(0.4384 -0.0175823 0)
(1.19406 -0.270132 1.54228e-19)
(-0.0613831 0.129791 0)
(0.292164 -0.602316 -4.26098e-21)
(1.27503 -0.0415847 0)
(-0.167168 0.379074 9.46246e-21)
(0.984722 -0.0518949 0)
(1.19737 -0.188095 -4.79019e-21)
(-0.188923 0.0826782 -1.06556e-20)
(1.10507 -0.051956 4.94828e-21)
(0.999443 0.301284 -6.99361e-21)
(0.591293 -0.539538 -8.78548e-20)
(1.06864 0.117379 -4.97569e-21)
(1.18946 -0.0958764 1.33452e-21)
(1.16586 0.238743 -3.01965e-20)
(1.17973 -0.252214 -6.32234e-22)
(1.14878 -0.0548919 2.46065e-21)
(0.289785 0.132226 -8.05408e-20)
(0.0361971 0.135402 -6.11401e-21)
(1.25107 0.239235 4.83243e-21)
(1.0549 -0.0400241 0)
(0.812257 0.385121 1.38133e-21)
(1.46818 -0.420961 1.143e-19)
(1.12131 -0.0125342 -8.72481e-20)
(1.43436 0.158978 5.14744e-20)
(1.05623 -0.0110699 1.14419e-20)
(1.02107 0.149951 2.4715e-20)
(1.05813 -0.0113576 0)
(1.14217 -0.0130304 0)
(1.09351 -0.170669 -4.91054e-21)
(1.08667 -0.0186114 -4.50154e-21)
(1.14334 -0.249244 7.42596e-22)
(1.09226 0.0689645 -1.10882e-20)
(1.30501 0.0492829 -2.28795e-20)
(0.415051 0.0155586 0)
(0.993547 -0.0308911 2.4543e-20)
(1.20816 -0.0645796 0)
(1.10671 0.0701694 -7.83082e-21)
(1.13671 0.0101475 0)
(1.03683 -0.00778918 1.32264e-20)
(1.22876 0.0198075 2.27226e-21)
(0.95528 0.196621 0)
(0.0889205 -0.0243103 2.13027e-19)
(0.888726 -0.223542 -7.063e-20)
(1.22172 0.140253 -1.66958e-20)
(-0.148546 0.023982 4.57467e-20)
(1.15307 0.0134568 -1.84e-22)
(0.844083 0.273557 2.18276e-22)
(-0.120311 0.028639 -4.76686e-20)
(-0.0207831 -0.0272255 -2.73987e-20)
(1.02327 -0.0248648 0)
(-0.0370919 -0.0580337 0)
(1.08011 -0.0475754 0)
(0.114704 -0.121589 0)
(1.09589 -0.036213 0)
(0.212491 0.0444876 0)
(1.12449 0.0259184 0)
(1.05045 -0.145604 0)
(1.40286 0.0784017 2.53361e-21)
(0.625782 -0.305942 -2.81066e-20)
(-0.133111 0.237002 0)
(1.30919 -0.00614769 9.08296e-20)
(1.13012 0.0974022 6.9399e-21)
(1.08226 0.0505637 0)
(-0.0386482 -0.0511629 0)
(1.15208 -0.00697244 -7.23403e-21)
(1.15642 -0.0340581 2.22393e-21)
(1.15829 0.381554 0)
(0.459551 -0.0242299 9.27432e-20)
(1.12018 0.0549649 2.20148e-21)
(0.292318 -0.052955 -7.05221e-20)
(-0.0565972 0.0255179 -2.67384e-20)
(-0.036083 0.0485332 7.11334e-20)
(0.119678 -0.481422 -4.0757e-21)
(0.894597 0.397262 -2.05381e-22)
(1.14734 0.0559223 -1.57918e-20)
(1.02366 -0.00951817 0)
(1.07276 -0.0526882 -1.92063e-20)
(1.21325 -0.0378302 7.15668e-21)
(-0.0174924 -0.06965 1.20424e-19)
(0.97598 -0.0714688 -5.60077e-20)
(0.951869 0.326402 -1.90969e-21)
(1.19313 0.195332 1.09334e-21)
(0.119269 -0.025764 4.8485e-20)
(0.310889 -0.0334875 -6.5967e-20)
(0.625338 0.0162648 -8.42913e-20)
(1.35061 0.119102 -2.43649e-21)
(-0.055517 -0.0518796 0)
(1.21399 0.347375 -5.39287e-21)
(0.9007 -0.174476 4.0004e-20)
(1.06249 -0.140292 -3.85774e-20)
(1.1801 0.0909231 0)
(1.52497 -0.150509 1.00651e-19)
(1.16524 0.0379119 -4.41163e-21)
(-0.0288137 -0.0838963 -4.3622e-20)
(0.251777 0.099812 0)
(0.918444 0.0318237 -3.18058e-21)
(1.11111 0.0143803 3.241e-21)
(1.19041 -0.348289 2.35493e-20)
(1.16007 -0.0147327 3.88362e-21)
(1.11592 0.0392516 0)
(1.26938 -0.137994 -2.05565e-20)
(-0.0884249 0.0194172 -9.96994e-20)
(1.23865 0.0219137 9.92031e-21)
(1.09513 0.16191 -8.38095e-21)
(1.07579 0.074335 1.26815e-20)
(-0.0511782 -0.10383 2.22156e-20)
(-0.00974708 0.00578882 -5.63481e-20)
(0.68827 0.239359 0)
(0.431864 -0.0867614 0)
(1.14912 0.0943366 -2.64387e-20)
(1.05201 0.0614343 1.70088e-20)
(1.06992 0.00745583 0)
(0.732423 0.293436 5.08707e-20)
(0.711176 0.0839417 -9.08509e-21)
(1.09755 0.10458 0)
(1.06123 0.0656063 0)
(1.09708 -0.0332628 0)
(1.19222 -0.10162 0)
(1.03609 0.0854696 4.28033e-21)
(-0.041994 0.03872 2.91972e-20)
(1.34127 -0.00244229 4.78775e-21)
(1.4891 -0.0940193 -1.12195e-19)
(1.06861 -0.0107238 -7.57555e-21)
(0.145308 0.329618 0)
(0.977901 -0.000507189 0)
(0.647768 -0.0107193 -1.63737e-21)
(0.530592 0.00816227 -5.13133e-20)
(0.0682076 0.0367991 4.22087e-20)
(0.954047 0.000526834 1.88187e-21)
(0.818829 -0.285333 0)
(0.778464 -0.0873095 0)
(1.00621 -0.119432 0)
(0.537638 0.510369 1.24599e-20)
(-0.00545892 -0.0116417 -2.90314e-20)
(1.04979 0.168595 -5.83706e-21)
(-0.0373337 -0.123205 8.57528e-20)
(1.15877 -0.0639872 3.17893e-21)
(1.16203 0.304474 5.7596e-20)
(1.10909 -0.0676202 7.50841e-21)
(0.570198 0.153652 1.05242e-19)
(1.17128 0.296747 1.18344e-21)
(0.802358 0.22401 0)
(0.555641 0.270225 0)
(0.91134 0.134694 -1.92501e-21)
(-0.263413 0.251422 0)
(0.616279 0.0307876 4.61607e-21)
(0.640164 -0.44165 -4.45986e-21)
(0.234755 0.0493096 -1.00374e-19)
(1.14075 -0.213526 2.14829e-20)
(1.03003 0.355573 1.10307e-20)
(0.986091 0.0107951 0)
(1.19899 0.166187 -7.09754e-22)
(0.669994 0.0116984 0)
(1.02978 -0.00960132 -3.61695e-22)
(0.568718 6.51722e-05 0)
(0.718766 0.116053 0)
(0.989162 -0.0286813 -1.07324e-20)
(1.4284 0.169237 -7.9627e-21)
(1.11599 -0.0812412 4.32153e-21)
(0.546928 -0.5172 0)
(1.13605 -0.13782 4.94539e-22)
(0.805458 0.368189 7.44932e-20)
(-0.040895 0.0164192 1.00065e-21)
(1.21876 -0.0671445 3.2818e-21)
(1.21976 0.0197613 -7.38743e-22)
(1.18678 -0.185381 9.14188e-22)
(0.81479 0.00881472 -1.05292e-20)
(0.0589995 0.0185958 3.19274e-20)
(-0.0236956 -0.0797208 -6.62471e-20)
(-0.176736 0.314567 0)
(-0.12276 0.402761 0)
(1.24012 -0.625374 4.1382e-20)
(1.13554 -0.0360648 -2.40106e-21)
(0.952012 -0.486209 -5.87553e-20)
(1.17508 0.289197 9.92018e-21)
(1.36246 0.195028 2.57187e-20)
(0.601064 0.418558 0)
(0.244271 0.408323 -1.21651e-19)
(0.595065 0.469291 0)
(0.0537512 0.222397 0)
(1.15091 -0.474196 0)
(-0.0470045 0.00291376 3.5353e-22)
(1.16249 0.000601217 0)
(0.660232 -0.303525 2.44777e-21)
(0.591618 0.685106 1.98876e-20)
(1.21566 -0.0791948 2.00684e-21)
(-0.017358 -0.142463 -1.60846e-19)
(0.669253 -0.297253 -2.32971e-20)
(0.447837 0.143975 -1.20874e-20)
(1.20433 0.0808903 0)
(1.35627 0.355237 2.39175e-20)
(1.21789 0.562481 -5.98517e-22)
(0.15477 -0.0224998 -1.84778e-20)
(0.981451 0.137852 2.28941e-20)
(0.986307 -0.0354014 1.7566e-21)
(0.918179 0.000364856 -7.59287e-22)
(0.0281768 -0.0365235 0)
(0.666797 -0.676827 -2.7325e-20)
(0.616635 0.186996 0)
(0.249629 0.0020499 0)
(-0.0343492 0.0204653 0)
(0.0495392 -0.091132 -6.28336e-20)
(1.23474 -0.0287629 -3.85492e-21)
(-0.0360837 0.0224335 0)
(-0.0166702 0.00666067 0)
(1.45198 0.118163 -4.81738e-20)
(-0.0259027 -0.118658 7.21244e-20)
(0.113731 0.226167 -1.04114e-19)
(0.381583 0.011413 0)
(0.175618 -0.296006 7.94763e-20)
(1.2025 -0.232905 0)
(1.00709 -0.28375 0)
(0.0718509 -0.0897762 1.54458e-19)
(1.14531 0.0245648 -4.01415e-22)
(1.1121 0.334492 3.26186e-20)
(0.256608 0.0280552 4.08984e-20)
(0.418738 -0.541366 -2.87475e-20)
(1.30095 0.0812633 0)
(1.21294 0.198617 1.80976e-20)
(1.21509 0.211109 -2.22307e-20)
(0.102264 0.0757472 -2.37687e-20)
(-0.0841167 -0.0093056 0)
(1.0712 -0.0490633 -1.82341e-20)
(1.11028 -0.21421 -1.07366e-20)
(0.596673 -0.424086 0)
(1.09988 -0.146505 -2.30277e-20)
(-0.0318684 0.38228 0)
(0.558996 0.0371571 0)
(1.2383 0.0286695 3.67159e-21)
(1.00056 0.0303904 7.42675e-22)
(1.0751 0.739361 -2.22936e-20)
(0.233229 -0.397902 1.23126e-19)
(1.13054 0.0535895 -1.74876e-22)
(1.20338 0.0686309 -4.78603e-21)
(-0.0338683 0.0287467 2.71299e-20)
(0.783892 0.728552 3.52398e-20)
(1.38717 -0.332643 -1.62543e-20)
(-0.0859475 0.412993 4.45924e-20)
(1.15235 -0.00337205 0)
(0.364158 0.208611 -7.06708e-21)
(0.948473 -0.661397 4.02282e-21)
(0.896544 0.6391 -1.13103e-20)
(0.685403 -0.00767725 -8.93771e-20)
(1.13254 -0.0164924 -1.81888e-20)
(1.07628 -0.0741787 6.22002e-21)
(1.16868 0.0316643 6.68303e-21)
(1.10432 0.114967 8.5006e-21)
(1.13693 -0.104189 0)
(0.903298 0.108141 1.14843e-20)
(0.882495 0.457739 0)
(1.35619 0.021258 -1.05671e-21)
(1.16656 0.103383 5.90455e-21)
(0.746493 0.263593 0)
(0.51411 0.109789 9.57117e-20)
(0.890787 0.706183 -9.81678e-22)
(1.06519 0.280499 -2.50504e-20)
(1.03782 -0.00281779 1.21927e-20)
(0.414911 0.479276 0)
(1.33713 -0.456472 0)
(0.974657 0.00475164 7.08613e-21)
(1.25949 0.503257 0)
(-0.0220369 0.0307655 -3.50336e-20)
(1.31658 -0.400612 -2.83957e-20)
(1.16203 0.504899 0)
(0.45619 0.201798 1.73054e-19)
(1.11867 0.316869 -1.04034e-19)
(0.836065 -0.657068 -2.14722e-20)
(1.16887 0.0148082 4.68293e-21)
(0.910316 0.152256 6.92973e-20)
(1.08019 0.162221 6.41452e-20)
(1.06738 0.700491 3.12403e-21)
(0.925161 -0.449757 5.81694e-20)
(1.42799 0.181419 2.49866e-20)
(1.12524 -0.00442406 -2.74077e-21)
(0.0408285 -0.0776882 1.36044e-19)
(1.12339 -0.717566 4.6957e-20)
(0.899244 -0.740141 4.06192e-20)
(0.259913 -0.358658 0)
(0.976021 -0.154193 6.87574e-20)
(0.362318 0.29261 -4.49248e-19)
(-0.0758828 0.334921 3.05841e-20)
(0.211046 0.0239908 1.67281e-20)
(0.800632 -0.0462923 -1.03202e-19)
(1.07553 0.523961 0)
(0.979024 0.211825 8.82928e-20)
(1.08474 0.0256478 5.53924e-21)
(0.910374 0.434176 -9.60371e-20)
(0.817932 -0.752889 -5.81612e-21)
(0.937041 0.0123341 -4.90798e-20)
(0.976046 0.482273 0)
(1.22063 -0.128934 8.12453e-21)
(1.42503 -0.500573 1.88325e-20)
(1.24637 -0.324188 1.34078e-20)
(-0.101599 0.397436 3.64171e-20)
(0.197819 -0.0171232 -1.83196e-20)
(0.98243 -0.124599 -5.75872e-20)
(0.350211 0.515051 0)
(0.926728 0.00273044 3.91061e-20)
(1.15275 0.634872 6.52324e-20)
(-0.049646 0.0997615 2.13375e-19)
(-0.0574131 0.0311942 -2.2844e-20)
(-0.121659 -0.0741941 5.15825e-20)
(1.09851 0.0169601 -7.75003e-21)
(1.2022 -0.470416 0)
(1.09906 -0.747241 -2.64838e-20)
(0.699312 0.337714 0)
(0.142882 0.0945642 -1.61677e-19)
(1.10973 0.0505609 6.13132e-21)
(-0.0550133 -0.13601 -4.11684e-20)
(1.04834 0.0520487 -1.17322e-20)
(0.0993601 0.0107337 4.55679e-20)
(0.839119 0.126828 0)
(1.23065 0.072859 2.23657e-20)
(0.0314879 0.0254353 -1.8994e-20)
(-0.166972 0.451271 -4.32882e-20)
(-0.28504 0.46811 0)
(0.142879 -0.00765908 0)
(1.22048 0.011957 -8.414e-21)
(0.478317 0.00157404 2.14872e-19)
(1.3149 -0.73536 -4.5254e-20)
(1.11344 -0.0537114 5.45382e-20)
(1.05855 0.23978 -3.6712e-20)
(0.381981 -0.5859 1.34434e-19)
(1.54685 0.283808 -2.62315e-20)
(0.172581 -0.0625704 5.37325e-20)
(0.208133 0.289733 2.00477e-19)
(0.208159 -0.0338113 -1.98769e-19)
(0.961348 -0.50242 -4.05877e-20)
(1.44799 0.388315 2.66569e-20)
(0.590203 -0.703776 4.42852e-20)
(1.10588 -0.0643195 -6.70204e-21)
(0.49596 0.219152 8.78865e-20)
(1.17571 0.292685 -4.08563e-20)
(0.659798 0.63044 -4.36212e-20)
(1.40169 -0.627944 0)
(1.41373 0.520832 2.91672e-20)
(1.07966 -0.534763 -1.39298e-20)
(1.38496 0.606181 -7.87006e-20)
(1.15023 -0.0011452 0)
(-0.041476 0.0381497 0)
(1.24818 0.726998 0)
(1.24805 -0.0961687 -4.08403e-21)
(0.756836 -0.317579 -2.02183e-19)
(0.483548 -0.099298 0)
(-0.0432602 0.0490466 -2.29954e-20)
(1.03022 -0.244579 8.98259e-20)
(-0.144649 0.338511 0)
(0.324442 0.0069627 1.23755e-20)
(1.13006 0.014004 0)
(1.40905 0.278003 0)
(1.1667 0.0173772 -5.01513e-21)
(0.370114 -0.314031 0)
(1.00577 0.140609 4.30902e-20)
(1.30185 0.286664 0)
(-0.0678925 0.0686819 1.85209e-21)
(0.825413 -0.412164 0)
(1.51206 0.339865 -3.97027e-20)
(1.2266 0.362784 7.35829e-21)
(0.839545 0.638209 -1.05411e-20)
(1.00009 0.14902 -9.73577e-20)
(0.969696 -0.206839 -4.39131e-20)
(1.44648 0.293439 2.3384e-20)
(0.976556 0.12062 0)
(0.568252 -0.0872282 0)
)
;

boundaryField
{
    FrontBack
    {
        type            empty;
    }
    Top
    {
        type            noSlip;
    }
    In
    {
        type            fixedValue;
        value           uniform (1 0 0);
    }
    Bottom
    {
        type            noSlip;
    }
    Out
    {
        type            zeroGradient;
    }
    circle
    {
        type            noSlip;
    }
}


// ************************************************************************* //
