/*--------------------------------*- C++ -*----------------------------------*\
| =========                 |                                                 |
| \\      /  F ield         | OpenFOAM: The Open Source CFD Toolbox           |
|  \\    /   O peration     | Version:  2412                                  |
|   \\  /    A nd           | Website:  www.openfoam.com                      |
|    \\/     M anipulation  |                                                 |
\*---------------------------------------------------------------------------*/
FoamFile
{
    version     2.0;
    format      ascii;
    arch        "LSB;label=32;scalar=64";
    class       volScalarField;
    location    "884";
    object      p;
}
// * * * * * * * * * * * * * * * * * * * * * * * * * * * * * * * * * * * * * //

dimensions      [0 2 -2 0 0 0 0];

internalField   nonuniform List<scalar> 
808
(
-0.03537377623156697
0.04504710090177737
-0.0119384243669621
0.03557348566086413
-0.3022024704785133
-0.05459430026044648
-0.01449790922531004
-0.02380936262246677
-0.1989494834495841
-0.08502932806158522
-0.009303078870981356
-0.2564245608377656
-0.03052975422179633
-0.01293387561185241
-0.123070614888909
-0.01396877974923985
-0.1417649909207239
-0.01353782739057861
-0.01267784870099526
-0.05658681454151009
-0.005976966765780526
0.1179962198870994
-0.06119473289852276
-0.07283670560161566
0.1760011955740629
-0.09926820393917163
-0.1542679739570037
-0.02031583964142243
-0.01740200880730181
-0.02605054801267512
-0.02016208168477515
-0.05943856925971574
-0.0230035744932093
-0.01685028166802978
-0.1004249222540175
0.3443812948186079
-0.03860523954049843
-0.01687081486628204
-0.0232390673650279
-0.02660165487211997
-0.09126187941619471
-0.128110537073694
-0.05096318321583554
-0.02057446450231153
-0.05512012902355218
-0.04025274364751434
-0.01237948301208475
-0.1863878308513508
-0.02748554633607675
-0.2061829204534102
-0.0160149373696797
-0.06839327952737534
-0.05974370569104182
-0.0149987538869632
-0.1912448097391443
-0.02887652516784218
-0.0107720880087581
-0.01468129728259849
-0.1016626992245385
-0.04049041362433535
-0.09607844639654615
-0.1276978115460607
-0.0134328596650038
-0.1290987421069728
-0.01684513547020203
-0.05077554916849417
-0.1653063938900294
-0.03567783312327936
-0.01488101087138162
-0.444245802392214
-0.02695385171907159
-0.3064168509966608
-0.02198413412875999
-0.0202541546939222
-0.06615420913976057
-0.01735582687855422
-0.04331078873632183
-0.3613052889787825
-0.03541572160582477
0.0412258141067128
-0.09084843114189738
-0.01727937337069204
0.05680237580759247
0.04408889736725746
-0.01658135018504419
-0.05300931559133374
-0.546846721278441
-0.2239439350885975
-0.05306596243127319
-0.1118876996980055
-0.057571330108196
-0.133981446306789
0.04031078971886449
-0.02426178277411956
-0.0608034236810379
-0.1177333794208314
-0.03849661474534055
-0.05213173011531431
-0.1173142758312885
-0.1385595618507702
-0.05205746289878357
-0.0481711811762955
-0.05527067571392672
-0.04556569338104834
-0.05782256201042758
-0.07352047501629477
-0.04157759348640897
-0.01131418779219907
-0.04095027224237575
-0.1257345558399938
-0.05111655356766621
0.08293204752019286
-0.04301854518664716
-0.008331537937199771
-0.02785467690600421
0.1803800226229483
-0.03960721420908406
-0.272046732541052
-0.02023257747983924
-0.05446373934135627
-0.02723210701089865
-0.04795616599812232
0.01280148224999274
-0.04963616643305018
-0.03442887303956492
-0.2153650107311024
-0.04230018612528868
-0.005241634395822704
-0.07709997274449401
-0.06781440614851998
-0.1441095137565836
-0.02081255876681621
-0.07605903335942754
-0.04168605089548447
-0.02267390696071701
-0.01638129242587194
-0.00647595560413101
-0.007290671547722382
-0.05302033649089636
-0.05064123664067122
-0.2129901030214153
-0.05759826309747729
-0.008548308633254826
-0.02271652531080388
-0.1455277903475078
-0.002669989656257998
-0.07728411149156661
-0.02311858233848168
-0.0009979091387004638
-0.01078408468826753
-0.03383055337026816
0.09504333134581987
-0.03949790167001992
0.2524863855376903
-0.2684518583529645
-0.1308683913114579
-0.03709498223691449
-0.0910655612855069
-0.009346345867023282
-0.1121935468202775
-0.1847594994430054
-0.2173755926735186
-0.1802815780795334
0.05563531046853326
-0.06204858971948882
-0.02025290641559823
-0.06767509823422853
-0.1686555036030097
-0.02386272335567017
-0.01833986825993753
-0.05291213305361187
-0.01850641450586759
-0.006228277419926859
-0.109358919725999
-0.02272338190996622
-0.04615788937312911
-0.06906609452944677
-0.1627409535200869
-0.03371559861015191
-0.3944721727701313
-0.01777389638444634
-0.2233769298123092
-0.04514031718608166
0.03114517833774918
-0.1058184643489726
-0.01449838956836232
-0.04172865735333699
-0.1049768284904219
-0.01760655974311254
-0.09632187632628546
-0.2069675988984131
-0.07256223959819551
-0.02364891808123726
-0.04929360324853203
-0.04356340300314251
-0.2048422629031721
-0.02180150772501747
-0.01892463118032765
-0.01135035575878776
-0.05501776899015181
-0.05161352572077213
-0.02231250019479157
-0.0208824761419603
-0.2464629976810052
0.1278007083891998
-0.2018061390064561
-0.2043693230099078
-0.01180277263514949
-0.01156894293989508
-0.0675895475157918
-0.009738572711019909
-0.5126958342972561
-0.1205941000213867
-0.0188966460093617
-0.0007320935075983109
-0.0242689879213681
-0.2855039069028488
-0.2753442287029972
-0.007018045580440124
-0.0173444233469658
-0.001647714342001241
-0.3459558067924061
-0.02820917221767818
-0.02909085341025976
-0.01247940268446838
-0.01978270294275882
0.05067055806448644
-0.1074059844333241
-0.0139695628379695
-0.0207310290492984
-0.04332632498624613
-0.01816922472499293
-0.01609216571568071
-0.02337226300658258
-0.06702862330793337
-0.01177574662498032
-0.01908266748461011
-0.008505949676967809
-0.0006951982727427464
-0.02957196911972574
-0.001588862654112482
-0.002269778875209474
-0.00599735908585096
-0.02563197413628791
-0.007963534007912729
0.001506321504095585
-0.004234724655238883
0.001258258830107731
0.002557016950853678
-0.008729370359637192
-0.1428906476250038
-0.003019323265843854
-0.001529968204249957
-0.04857154385057901
-0.02157233452361798
-0.02482222261461729
-0.01436949631279863
-0.006121237017952035
-0.02081986975201141
-0.03783668823988797
-0.01394006569180175
-0.01287605084458592
-0.01172067244615114
0.00777992553809208
-0.01031095974417922
-0.01174815143570392
-0.01138679291425861
-0.01083001797753029
-0.01021749398527971
-0.01188221493860896
-0.01409532276223583
-0.3100603206670885
0.06063401118632357
-0.01567593421607506
-0.01587358821805174
-0.01308546907516529
-0.01205723570695369
-0.008821775702680383
-0.09698817027119945
0.01022319153890065
-0.01359458933683333
-0.01457756840514619
-0.01073604408658399
-0.05284416975146655
-0.01017253398011123
-0.01367583675416711
-0.009653377529429217
-0.0002719546614273262
-0.01012135709343042
-0.0116876792061206
-0.02487506904514766
-0.01600782123907704
-0.01181874074063986
-0.01342929735713683
-0.0073450576237527
-0.01241906994299551
-0.0117871480932584
-0.05758237553342025
-0.01311502082370049
-0.0111963736195639
-0.00872741179204853
-0.01484259895467074
-0.01379314830654257
-0.01567151467608199
-1.375431048186613
-0.09857840099133007
-0.01341291065461079
0.02461944384992844
-0.1644159305782883
-0.09202101774802877
-0.01156175563336571
-0.014015590694704
-0.2475131044328903
-0.03030688699360965
-0.01987021437236599
-0.01096030656940084
-0.01956795319299573
-0.01058708203803399
-0.0307093112592048
-0.4141388370226584
-0.01243704676891239
-0.01410755097392092
-0.004884878362824388
-0.01092050497548636
-0.01025924446270898
-0.01433107670983005
-0.007976784933673726
-0.02604158006253064
-0.01141020166700515
-0.1647742870158252
0.01705324030458017
-0.007688873811188705
0.00334225272452298
0.01359885588110325
-0.04737674166719609
0.02955171566982842
-0.01312129937607126
-0.1346757606347815
0.2822601198075707
-0.007146956502293497
-0.0133504019202321
-0.008412740762342321
-0.03270737677231162
-0.1228292269747324
-0.01251141055817733
-0.01235420079630885
-0.01663076765269833
-0.0136254348202499
-0.04090932739308312
-0.2149932755421983
-0.01110529686122588
-0.04150004576649519
-0.03989203140074085
-0.1669948616312402
-0.1646194025264708
-0.1355346049853474
-0.2449947412595265
-0.007070506242475293
-0.02128180661289263
-0.01396501148196413
-0.01247338477340272
-0.03282662315705099
-0.02441820355713006
-0.01449300003347878
-0.01497806840143655
-1.079413508432726
-0.006254817522059041
-0.01356681620300119
-0.01848366951812109
-0.02237922104807031
0.0004069484662836101
-0.01449201505160052
-0.02736300089160122
-0.1581932934269581
-0.01354987602482655
-0.02237728422856056
-0.01372720065349808
2.699891823878044e-05
-0.1793063130066616
-0.01326482963974509
-0.1415439702091635
-0.016174173626911
0.00627652287185912
-0.01466466854987971
-0.02307571765169986
-0.01544479820263743
0.005072306655272829
-0.2776512488257282
-0.02545411167055596
-0.01580609727160648
-0.001067273652611118
-0.009320554891372634
-0.0305108877979321
-0.01441907517175036
-0.0202203840798718
-0.02142546815749744
0.01493989487568239
-0.1004204467190058
-0.02212098048744478
0.009166303757374763
-0.05228471660349231
0.1625757061136168
-0.1033613482167929
-0.3199909814488557
-0.03110166072706707
-0.02530177450956115
0.1497417847038865
0.07937382180536325
-0.00341327178785887
0.04879614957985152
-0.01563120464849749
-0.014522904765599
0.002219208794508104
0.01142886385119867
-0.06672390220089836
-0.006101485471255769
-0.05749446965940235
-0.02200162697614613
-0.01573179489176673
-0.0365382865243707
-0.03291127040289885
-0.006635947467780286
-0.01512924932226779
-0.03880053950511326
0.03792921995330432
-0.03889912261462475
-0.01369466939488965
-0.1166430009996353
-0.03212950262994069
-0.03854513951069755
-0.6758504483207124
0.02072435168425157
-0.01069917198124113
-0.00554835194126642
0.1584858882538594
-0.08479804045986711
-0.03486866624653793
-0.2462388394992868
-0.0168105136700403
-0.01661562556863463
0.06608699823605424
-0.183686757260294
-0.2303411514314961
-0.1974417402913216
-0.6850084370730036
0.00219917064071419
-0.01949648625784463
-0.01714266582836294
-0.07931890291170714
0.1179504792245639
-0.02068639242669911
-0.2371544689781318
-0.03493065561201816
-0.006429756445392036
0.2786063634947596
-0.01130900588879352
-0.09331874404453158
-0.1495055417272393
-0.003788275958413155
-0.04036420721004157
-0.05067155109243802
-0.2056353268679736
-0.008709107429961357
-0.04180796738392339
-0.002406832917325336
-0.549726077686047
-0.1982287648613429
-0.1761817782580996
-0.02261798542951666
-0.006925282855902488
-0.06013187678736888
-0.0580515608825444
-0.01387289520272902
-0.06768010598632807
0.003757818246956217
-0.01839482145293713
-0.0942603600755844
-0.268173922050804
-0.007121427814336469
-0.0265263762480373
-0.02212217430538731
-0.0743524449640395
-0.09082134429225966
-0.08790639295630324
-0.01194129814761969
-0.925353917838711
0.161119608439737
-0.07881912307476081
-0.2549290607522628
-0.04252144634666494
-0.01046166776769473
-0.2547103525467784
-0.1864606760185549
-0.03284414713845824
-0.1284706078806917
-0.01967209649908923
0.5632442661239817
-0.02385025270274935
-0.2289650430842765
-0.02612775822541192
-0.005962544236371664
-0.01209475557282818
-1.250763133419062
-0.1819726143961423
-0.2324257305621758
0.005343285726362559
-0.03767375294306647
-0.2531623545902398
-0.06547212035335179
-0.05093724662063515
-0.1428246666028835
-0.188404608874615
-0.06793528505424673
-1.227553555476979
-0.1428880459277432
-0.5214863442980364
0.0783668259279519
-0.006607675877336379
-0.02197198019581844
-0.04273914826676031
-0.04023113050568904
-0.02889792623129058
-0.1306749243918776
0.08020266691443376
-0.002134548764582849
-0.009848381699290185
-0.5795101194234279
-0.8625816105746712
-0.1844261584807095
-0.008454744444562422
-0.1385076110273954
0.0009829594878807213
-0.0002749719921092381
-0.001647071002518715
-0.06005346427114979
-0.2381057806902471
-0.0133747201350206
-0.1244986230251742
-0.1562264126791867
-0.01323646817156648
-0.0358317710083882
0.0231129718657666
-0.05730431594956011
-0.06986366550320881
-0.5022176563381429
-0.2284987260219115
-0.08057717664544817
-0.0728848541985702
-0.01996449593057376
-0.1246519115410426
-0.152280239153958
-0.07447537255881347
0.02248505889705467
-0.08462182876501451
-0.04825245087230363
-0.01488776018910284
-0.1058671171204433
-0.272990824331542
-0.05704351453664054
-0.01851790532438507
-0.0005353247581594333
-0.009999556304957613
-0.01114098480530254
-0.2177634059161295
-0.01535092570981576
-0.2213377077921856
-0.0102954301755798
-0.06811069389786915
-0.00399958336443066
-0.02320948796217529
-0.3789405074926388
-0.9114768186199156
-0.01134557914371793
-1.047011014076279
-0.6126970187257545
-0.01061578942554422
-0.658707727028793
-0.1782485901628282
-0.006030818615586974
-0.1306300375185717
-0.01678398211281916
-0.1222411900748542
-0.06702864802445579
-0.07876502940604217
-0.005084521130205087
-0.002262907037035065
-1.340026226829117
-0.01126499785853697
-0.1804281489301359
0.0005160829176630776
-1.009558956571918
-1.23592773638341
-0.08107189035651541
0.01898951433650711
0.1644045373213268
-0.004534554742186172
-0.02305827178024503
-0.00417310411099846
-0.2525465297646053
0.3660686958033552
-0.04084647538298896
-0.2109243115945336
-0.01483315341552243
-0.6533957027107644
-0.07465126808714267
0.1903950886795503
-0.2849101296277225
-0.04969802640104092
-0.06873856442490206
-0.01586585694710796
-0.02177595721578008
-0.5768512047972921
-0.144984754984617
-0.08592930599661661
-0.128319465616834
-0.5547486755815326
-0.04408460105565144
-0.9062556007790772
0.0003518726446039417
-0.2383255662907465
-1.051174530549165
0.166270440006648
0.2909557469400189
-0.1845872913865436
-0.192056155618583
-0.2095463358365421
-0.067860076328031
0.02193104985722195
0.04685331184961268
0.003098404410949729
-0.1678701254394821
0.02539510262179979
-1.358428025481927
-0.08518691474312987
-0.4740238304594333
-0.3312421458550877
-0.2043754028425349
-0.1768244777144648
-0.01689815393398316
-0.01547769172943639
-0.1073886764045717
0.1724362799764993
0.3852203832781075
-0.2091848197891155
-0.1388269569455511
-0.2326296321152517
-0.06241378996618982
-0.1497087547727999
-0.1635949931728661
-0.1257194423554435
-0.1243645409181961
0.4651207064994635
-0.2698454596072872
0.4322764976787739
-0.5987143326607582
0.07118074002383114
-0.202962377927539
-0.06611161769604051
-0.07478968789955906
-0.8802352699694322
-0.2183977015365283
-0.1907879381581666
-0.3471404318107867
-0.458268738811067
0.5704821397842741
-0.2091269061001258
0.000612632852193706
-0.07010943103387915
0.3445358892603443
-0.03713719952680621
-0.1327637517617934
-0.1796347276846011
-0.06339395496409066
-0.01655631917683362
-0.1960534332567918
0.1954830935713974
-0.01291343534524201
-0.09630359724469159
-0.1702690018248252
-0.3168457860420698
-0.3127067150434874
-0.06469999726803312
-0.01030772852481978
-0.0797343136731163
-0.6528818432985267
-0.6715589315510144
-0.3378881634556101
-0.05764386869722645
-0.05160808910881549
-0.02551416289295971
-0.06774341816083725
-0.05745133532314806
-0.3591949754957861
-0.9590173658830878
-0.01063847107865297
-0.08300434232448785
-1.139509363235945
-1.033513203671051
-0.1062333301700269
-0.03898121889827962
-0.06973619402899618
0.389688325893728
-0.3433956954787792
-0.04962799741658349
-0.5994771486820399
-0.1218359332623413
-0.2524545160495808
-0.2110294093645178
0.4738874466124035
-0.6287350490526611
0.07461924636330765
-0.02956551219569323
-0.5588081461960439
-0.05181198978916586
-0.3625177509254927
0.1078933847004599
-0.1902474867191226
-0.05977826666830242
-0.1387377897672842
-0.3608606359244818
-0.08658930230365448
0.5150827125817504
0.08569794414266048
0.4703352301294055
-0.1000020889000828
-0.2006428061322794
-0.5215224829464764
-0.1317306756654312
0.02654059926910343
-0.05358843430975027
0.1018702202367383
-0.3053350341713988
0.2363215272755066
0.007632439681011179
-0.003371078203858283
-0.5125395031358335
-0.1850822480970529
-0.0804521814088083
0.5816425039228719
0.138698120549671
0.3443817194268444
0.2257374227028572
-0.5624510195036148
-0.1959830751913491
-0.2237927119869634
-0.2306553412571321
-0.0603287985127531
-0.6934625009671809
-0.1925671053320868
0.3056235895237921
-0.1949393469349644
-0.01132853223684506
-0.1700904675161485
-0.00966194438527692
-0.1573928578848758
-0.4355814504880891
-0.07638926157548337
-0.2004433773573044
-0.07100948396475108
-0.0869259555302857
-0.1458771086558093
-0.07300346075416754
-0.4544647653706374
-0.4139853738373648
-0.0253810602787035
-0.07477146070261548
0.3286242618263136
-0.2470121035768754
-0.1841724222481383
0.5248326034374942
-0.2075728737467218
0.01880733192825456
-0.449658479542164
0.0486625597675809
-0.06179115744523676
-0.1425242121772485
-0.5833903503864101
0.1603341392090022
-0.5797910082777883
-0.5347012039564297
-0.1046304373697258
-0.5079827639669307
-0.03735344638218212
-0.1389489659207715
-0.4109976820452145
-0.01628194122068937
0.2872332630383492
0.4897380570834539
-0.159079854936189
-0.007716630873176992
-0.07742543362033789
0.5252720989344516
-0.0333961957700421
-0.4389602627686501
-0.03285023787016815
0.4612259594722792
-0.01504884210266653
-0.5435665922101396
-0.2483161115289197
0.176624769425337
-0.310184535494862
-0.1788971124327616
0.05021602456829778
0.03342811177363643
0.05470760010344566
-0.2989464684750691
-0.1585994220254628
0.4128113658146391
)
;

boundaryField
{
    FrontBack
    {
        type            empty;
    }
    Top
    {
        type            zeroGradient;
    }
    In
    {
        type            zeroGradient;
    }
    Bottom
    {
        type            zeroGradient;
    }
    Out
    {
        type            fixedValue;
        value           uniform 0;
    }
    circle
    {
        type            zeroGradient;
    }
}


// ************************************************************************* //
