/*--------------------------------*- C++ -*----------------------------------*\
| =========                 |                                                 |
| \\      /  F ield         | OpenFOAM: The Open Source CFD Toolbox           |
|  \\    /   O peration     | Version:  2412                                  |
|   \\  /    A nd           | Website:  www.openfoam.com                      |
|    \\/     M anipulation  |                                                 |
\*---------------------------------------------------------------------------*/
FoamFile
{
    version     2.0;
    format      ascii;
    arch        "LSB;label=32;scalar=64";
    class       volScalarField;
    location    "10";
    object      p;
}
// * * * * * * * * * * * * * * * * * * * * * * * * * * * * * * * * * * * * * //

dimensions      [0 2 -2 0 0 0 0];

internalField   nonuniform List<scalar> 
808
(
0.0989532
0.00187063
0.0283991
0.0990215
-0.225719
-0.00374602
-0.00800115
0.0198287
-0.134982
-0.0471998
0.0227764
-0.147705
0.0186708
-0.00767942
-0.317831
0.0138491
-0.325898
0.0123576
0.0265572
-0.0122627
0.0276558
0.36138
0.0506716
-0.0233023
0.437823
-0.193262
-0.071732
0.00907114
0.0123366
0.0108868
0.0105437
-0.00129986
0.0166898
0.010587
-0.109391
0.610189
-0.00271939
0.0143773
0.0023246
0.0149284
-0.0771023
-0.0739425
0.0137896
0.0100728
-0.20788
0.0675873
0.0109971
-0.000951115
-0.00403194
-0.175167
-0.00562836
-0.00297805
0.0236964
0.00879693
-0.110973
-0.00579515
0.00840237
0.0283296
-0.0410238
-0.0104396
-0.320844
-0.0106249
0.0236886
-0.20868
0.0139777
0.0244621
-0.278071
0.0183383
0.014868
-0.274127
0.00907785
-0.303124
0.00446998
0.00330568
0.173706
-0.000253161
-0.0304459
-0.0921859
-0.00895999
0.293526
-0.143261
-0.00496691
0.0158877
0.256634
0.00594055
-0.0504096
-0.345717
-0.130925
0.00738458
-0.221262
0.0204746
-0.118937
0.234794
0.136726
0.0207733
-0.297099
0.0178153
-0.144385
-0.130004
-0.260535
-0.00597474
-0.0216982
0.0238526
-0.0442705
-0.140541
0.0376873
-0.225747
0.0147187
-0.00585311
0.018094
-0.099002
0.315142
0.000946197
0.0199001
0.0192291
0.436178
-0.0059659
-0.25982
0.00185734
0.0388064
-0.319305
0.0180132
-0.00173503
0.0393705
0.0903099
-0.0749251
0.088361
0.033066
0.0110118
0.0459378
-0.299158
0.00935486
-0.0730328
0.104003
0.00477256
-0.00695515
0.0368269
0.00661458
0.00326572
-0.012577
-0.319102
0.0277058
0.0334179
0.00292308
-0.0553109
0.0529022
0.0754479
0.136929
-0.0977061
0.0104521
0.00177194
0.325055
0.0143781
0.518058
-0.298987
-0.123896
-0.00196288
-0.227949
0.0305071
-0.142932
-0.297112
-0.312881
-0.287642
0.0037798
0.0393379
0.00740688
0.00488113
-0.292786
-0.00410173
0.0176774
0.0197759
0.138769
0.0558354
0.110381
0.00234497
0.0526763
0.0492061
-0.166739
-0.000270938
-0.327476
0.0172155
-0.166469
-0.00441864
0.247434
-0.303864
0.0954247
-0.000124803
-0.185477
0.0135956
-0.131131
-0.299527
-0.0975258
0.0026065
0.0615832
-0.00213319
-0.306956
0.000248244
0.0173884
0.00445256
0.0572845
0.0452404
0.0159471
0.0190804
-0.297726
0.358522
-0.300326
-0.297642
0.00705408
0.0305887
0.00373496
0.00840747
-0.374073
-0.320243
-0.00160609
0.00717484
-0.00690685
-0.309028
-0.060276
0.00518663
0.0234793
0.00531149
-0.110684
0.0147999
0.0155486
0.00412497
0.0161709
0.104286
-0.351131
0.0395286
0.0115854
0.0968594
0.0119814
0.0117027
0.0115912
-0.123285
0.0231599
0.00906306
7.51145e-05
0.00281434
0.0156597
0.0033298
0.00165461
0.00291706
0.0081338
0.0010208
0.000791497
0.00110529
0.000698483
0.0021488
0.0397545
-0.303563
0.00264665
0.00362782
-0.161151
0.00604999
-0.00688297
0.0196622
0.00104285
0.0135551
0.107023
0.0291636
0.00874409
0.0120652
0.0724211
0.0171761
0.0159248
0.0150103
0.0289351
0.0179811
0.0403031
0.0283413
-0.370346
0.257658
0.0131153
-0.0709286
0.0154364
0.0131169
0.0124042
-0.271265
0.263994
0.0173719
0.0275457
0.0211878
0.0639407
-0.175785
0.0162684
0.0482499
0.0841395
0.0265597
0.0406701
-0.00487241
0.0239118
0.0195765
0.0246421
0.0378219
0.0192748
0.0353174
0.0362495
0.0309786
0.0296419
0.0158641
0.0145655
0.0228585
0.0130494
-0.482777
-0.121011
0.0343522
0.0828219
-0.191794
-0.2824
0.0240681
0.0141048
-0.303706
0.108712
0.138893
0.00339364
-0.00034129
0.0401964
0.00687939
-0.214443
0.0193844
0.00155614
0.0140348
0.0185935
0.0187153
0.00975436
0.0482393
-0.0215552
0.0218296
-0.290592
0.0292004
0.016786
0.031817
0.0749786
-0.0100997
0.211574
0.0239066
-0.182326
0.531456
0.048525
0.00291405
0.00437339
-0.0879172
-0.073918
0.0337524
0.0158374
-0.0146473
0.0164048
-0.068878
-0.277525
0.0471515
0.0850412
-0.0721254
-0.285119
-0.301679
-0.3432
-0.302211
0.0600713
0.00422049
0.00724404
-0.0185665
-0.0484538
0.0103663
0.0138674
0.00401441
-0.476798
0.0592592
0.0211134
0.019673
-0.324107
0.0638876
0.00794101
0.0921463
-0.315731
0.0398452
-0.0419597
0.0420839
0.0546181
-0.292595
0.0135555
-0.326289
-0.00120104
0.0615824
0.019524
-0.00645133
0.00924402
-0.0889313
-0.316057
-0.0131342
-0.00267269
0.0110808
0.00687476
-0.0184981
0.0114522
-0.0232832
-0.0160008
-0.103131
0.0207475
0.00229926
0.00664335
-0.368756
-0.123547
0.0385168
-0.0102457
-0.146298
-0.0442349
0.41049
-0.282348
0.00629932
-0.0998878
0.0073953
0.0291426
0.00288059
0.0325446
-0.0246771
0.0170304
-0.0851859
-0.0172631
0.000784167
-0.00263085
-0.0046949
-0.00188155
0.0174877
0.0984992
0.0501576
0.0122408
0.0118011
-0.00323333
-0.0784105
0.00787208
-0.358904
-0.00201372
0.0310352
0.0124219
-0.215623
-0.348135
-0.0320138
-0.0874845
-0.048755
0.00729073
-0.195469
-0.237829
0.212164
-0.28987
-0.428801
-0.274453
-0.000688071
-0.0851593
-0.350983
0.335692
-0.0558667
-0.306931
-0.00973271
0.0373371
0.559398
0.00941559
-0.00601749
0.0245213
-0.0440663
-0.0274861
-0.319448
-0.309403
0.0388318
0.0427247
0.0643402
-0.251515
-0.285116
-0.251443
-0.00248932
0.019304
0.072514
-0.0373677
-0.0439488
0.0596244
0.00172915
0.0109198
-0.215277
-0.323141
-0.00447274
-0.0974858
0.00533831
-0.0126081
0.0612782
-0.0739206
0.0169612
-0.434144
0.437363
-0.30752
-0.298294
-0.0491837
0.0146157
-0.29919
-0.283954
0.102147
-0.311984
-0.209235
0.847081
-0.00333584
-0.329299
-0.010709
-0.0940279
-0.00023915
-0.434586
-0.308983
-0.287949
0.00894689
-0.275085
-0.333575
-0.0298794
-0.0408828
0.0824646
-0.285456
0.00767255
-0.471838
-0.341864
-0.40255
-0.13407
0.0114029
-0.00425863
0.0846945
0.109146
-0.0497331
-0.287589
0.290102
0.0720721
0.0122131
-0.408558
-0.468129
-0.304198
0.0135876
-0.323339
0.070475
0.0379296
0.00308914
-0.266
-0.221837
0.0127407
-0.296597
-0.316534
0.00814916
-0.0230999
-0.211212
-0.0275721
0.0131809
-0.355966
-0.31812
-0.122515
0.0796322
0.0131036
-0.308947
-0.305822
-0.350183
-0.240611
0.0187364
0.0798543
0.00672317
-0.351982
-0.31793
0.0810176
0.0085614
-0.190414
0.0230959
0.0236587
-0.349611
0.0189357
-0.257161
0.0289525
-0.318418
0.0288766
0.00177545
-0.381463
-0.47099
0.0032018
-0.448956
-0.431538
0.0241611
-0.0856777
-0.290543
0.00675698
-0.291855
0.0213355
0.0599887
0.0438102
-0.322109
0.0487568
0.0472668
-0.464029
0.014532
-0.319601
-0.0068705
-0.301447
-0.523318
0.087799
0.255837
0.429041
0.00631465
0.00406921
0.00239449
-0.314206
0.630358
0.00089038
-0.235281
0.0190576
-0.0665222
0.0675302
0.469871
-0.386373
-0.0629524
-0.0623314
0.0260893
0.00638974
-0.467482
-0.283356
-0.332066
-0.325108
-0.265014
-0.0148931
-0.343264
0.0611566
-0.286028
-0.324241
0.497663
0.574533
-0.338655
0.105653
-0.293584
-0.0410858
-0.0363914
0.392474
-0.0375002
-0.300459
0.0215745
-0.521308
-0.0443853
-0.213463
-0.0364605
-0.330604
-0.298936
0.00225762
0.00305108
-0.299842
0.437362
0.660969
-0.305757
-0.316886
-0.306248
-0.0778378
-0.32263
-0.296423
-0.204221
-0.299889
0.740078
-0.356386
0.730032
-0.38974
0.317238
-0.292247
-0.0160171
0.158499
-0.514219
0.216589
-0.301644
-0.328681
-0.355261
0.856141
-0.290984
0.195569
0.137101
0.630301
0.109162
-0.359251
-0.30899
-0.21027
0.0112308
0.0714965
0.51009
0.0105692
-0.0427217
-0.299731
0.104471
-0.12239
-0.346796
0.0175924
-0.329916
-0.15418
-0.169138
-0.342135
-0.0137337
0.0879564
-0.0142414
0.0548853
0.0968981
-0.350095
-0.369136
-0.0263338
-0.00819893
-0.477379
-0.525403
0.161913
0.176775
0.0714795
0.655082
-0.0810728
-0.298303
-0.396042
-0.317133
-0.0625326
0.0666615
0.748681
-0.464201
0.366099
-0.0228959
-0.441629
0.136397
-0.0896152
0.374337
-0.175782
-0.00252987
-0.306922
-0.0783945
0.187815
0.79919
0.321708
0.745869
-0.345031
-0.319918
-0.392131
0.151581
0.251757
0.0440894
0.366576
0.131039
0.484221
0.260626
-0.0162669
-0.184023
0.0157218
-0.325889
0.868668
0.399008
0.635935
0.497866
-0.279616
-0.321562
-0.294961
-0.295667
0.0290518
-0.390151
0.0972212
0.582498
-0.330314
0.00850209
-0.293985
0.168952
-0.344515
-0.383223
-0.190515
-0.308601
-0.336441
-0.338173
-0.315828
-0.148508
-0.390767
-0.131363
-0.262965
0.130092
0.642556
-0.237203
-0.292795
0.812857
-0.294753
0.27699
-0.250516
0.378956
0.0728642
-0.323606
-0.411239
0.429871
-0.267706
-0.335381
0.181234
-0.288776
-0.0369647
-0.312587
-0.132699
0.0209436
0.557712
0.765742
-0.309034
0.21504
-0.333945
0.807226
-0.0258917
-0.328337
-0.0397936
0.749587
0.190915
-0.335539
-0.296945
0.443405
-0.22743
0.0203937
0.33709
0.237702
0.28476
-0.267808
-0.349303
0.67471
)
;

boundaryField
{
    FrontBack
    {
        type            empty;
    }
    Top
    {
        type            zeroGradient;
    }
    In
    {
        type            zeroGradient;
    }
    Bottom
    {
        type            zeroGradient;
    }
    Out
    {
        type            fixedValue;
        value           uniform 0;
    }
    circle
    {
        type            zeroGradient;
    }
}


// ************************************************************************* //
