/*--------------------------------*- C++ -*----------------------------------*\
| =========                 |                                                 |
| \\      /  F ield         | OpenFOAM: The Open Source CFD Toolbox           |
|  \\    /   O peration     | Version:  2412                                  |
|   \\  /    A nd           | Website:  www.openfoam.com                      |
|    \\/     M anipulation  |                                                 |
\*---------------------------------------------------------------------------*/
FoamFile
{
    version     2.0;
    format      ascii;
    arch        "LSB;label=32;scalar=64";
    class       surfaceScalarField;
    location    "10";
    object      phi;
}
// * * * * * * * * * * * * * * * * * * * * * * * * * * * * * * * * * * * * * //

dimensions      [0 3 -1 0 0 0 0];

oriented        oriented;

internalField   nonuniform List<scalar> 
1171
(
-0.944535
0.944535
0.760392
-1.07907
0.318683
-0.240863
-0.742326
0.983189
0.0554649
-0.0658121
-0.277295
0.343107
-0.760392
0.0859712
0.67442
0.924298
-0.220087
-0.704211
0.825079
-0.999694
0.174615
-0.357407
-0.0376849
0.395092
-0.00576261
0.609004
-0.603241
-0.486164
0.909759
-0.423596
-0.423219
0.97403
-0.148951
0.258481
0.0884742
-0.346956
0.975904
-0.00187348
0.293566
-0.0350844
0.988437
-0.0125337
0.644923
-0.885787
-0.783804
0.603521
0.180282
0.312637
-0.7988
0.558786
-0.91487
0.356084
-1.07904
0.669058
0.409982
-0.645193
0.63943
0.0321415
-0.251524
0.219382
0.0234754
-0.636946
0.613471
0.467791
-0.505476
-0.86323
0.891325
-0.0280953
1.00752
-0.0190814
0.873659
-1.0617
0.188042
1.00723
0.000288336
-0.698762
-0.085042
1.23538
-0.823238
-0.412143
0.144001
-0.080288
-0.414527
0.494815
-0.273115
0.184616
0.0884998
-0.602945
-0.47613
0.971476
-0.097817
-0.0315519
0.879743
-0.848191
0.534291
0.701091
0.528716
0.0208101
0.446981
-0.783275
-0.109395
0.89267
0.576061
0.225984
-0.802045
0.0320602
0.609194
-0.641254
-0.507754
-0.571286
-0.35241
-0.709291
0.0274314
0.246119
-0.273551
-0.935965
-0.0306429
0.966608
0.376634
0.0184581
0.834844
0.0894536
-0.60164
-0.0435531
0.0396237
-0.822899
0.0785992
0.897078
-0.975677
-0.404263
0.0245933
0.37967
-0.707437
-0.228528
-0.673143
0.751742
0.629961
0.279799
-0.582431
0.985619
-0.820232
-0.165388
-0.110972
-0.0363316
0.147304
-0.459482
-0.0459945
-0.289383
0.919344
-0.00987504
0.440046
-0.430171
-0.467394
1.04346
0.711946
-0.821341
0.397625
-0.0779745
-0.319651
0.84969
-0.84969
-0.89099
0.0396893
-0.316984
-0.677115
0.645563
-0.0325175
-0.144394
0.176911
0.875127
0.00461544
1.02265
-0.796663
0.224232
-0.32066
0.0964275
0.957328
-0.122484
-0.673977
-0.0411698
0.715147
0.148594
-0.231254
0.0826593
0.787601
-1.00769
-0.441754
0.310409
0.131346
0.662691
-0.639215
0.86582
-0.402832
-0.462988
0.51341
-0.694722
0.0357623
0.65896
0.155283
0.658405
0.0536971
-0.712102
0.135075
-0.0953854
-0.512158
0.107894
0.0359654
-0.905664
0.869699
-0.548472
-0.758721
0.0599592
0.503088
-0.0561068
0.274943
-0.832089
0.557146
0.424925
0.575075
0.597519
-0.557895
-0.38775
-0.0252403
0.412991
0.630722
0.218967
-0.666621
0.698682
0.0885607
0.873573
0.00196178
-0.675939
-0.759892
0.795857
0.617235
0.0965672
0.368647
-0.465215
-0.153841
0.535764
0.0734302
0.949757
-0.867828
-0.0819286
0.640328
0.345292
-0.43205
0.693954
-0.597386
0.409613
0.149173
-0.0671097
-0.652927
-0.194443
0.84737
-0.148237
-0.701452
-0.611956
0.362003
0.249952
0.658413
-0.656451
0.31059
0.99269
0.0299574
-0.759892
-0.143227
0.0322551
0.711946
0.774868
-0.774868
0.845705
-0.825822
-0.0198828
-0.453532
0.878457
-0.192169
-0.319989
0.76366
-0.67016
-0.0935003
-0.844069
0.191142
0.111482
-0.713122
0.821341
-0.975182
-0.191252
0.195547
-0.00429534
0.148568
-0.969343
0.820775
0.551285
-0.0225686
-0.290144
0.594998
-0.304854
-0.658803
0.807371
-0.161819
0.721922
-0.858455
0.136533
1.00116
-0.587429
-0.413728
0.707758
-0.0724178
-0.00829475
0.00958549
-0.00129074
-0.802274
-0.877687
0.135361
-0.677115
0.575508
-0.550914
0.100754
0.687926
-0.78868
0.779774
0.164761
0.492099
0.507901
-0.0710534
-0.679245
0.750298
0.953951
-0.00419419
-0.707758
0.795857
0.180421
-0.431945
-0.0411032
0.0185672
0.022536
0.67318
-0.436822
-0.236358
0.67442
-0.0277839
-0.155765
0.55449
0.11869
-0.0171178
0.000589215
0.0165286
0.00510228
-0.013397
0.131962
-0.209937
-0.936687
0.0233468
-0.14083
-0.0592899
0.118417
0.754073
0.742986
-0.167911
0.587253
-0.486499
-0.163581
0.387813
0.628846
0.0455744
0.232144
-1.05797
-0.975182
0.320527
0.645563
-0.161121
0.0167275
-0.777419
0.969243
-0.191824
0.48222
-0.10255
0.797281
0.305278
0.272977
0.0205888
-0.680888
0.680888
0.232144
0.660526
-0.0211091
0.461155
0.473706
0.00791607
-0.0490193
0.543689
0.00759522
-0.658803
0.57013
0.19353
0.00635237
0.00323312
-0.628846
0.17892
0.790323
-0.0114213
-0.743783
0.755204
0.758903
-0.823545
0.0646426
-0.779774
-0.0327922
0.0457839
-0.0129916
0.0851298
-0.124413
-0.105854
0.230267
-0.00641854
-0.0106993
0.720815
-0.732237
0.856309
0.12688
-0.318112
-0.521281
0.839393
-0.00152296
0.00152296
0.170307
0.472799
0.63555
-1.10835
-0.182576
-0.538835
0.721411
-0.0200702
0.196981
0.382369
-0.233775
1.01449
-0.54169
0.72752
1.05657
-0.421019
0.1902
0.807371
0.65842
0.21793
0.673395
-0.701452
0.319112
-0.0553391
0.00655932
0.0487798
0.877381
0.0159057
-0.893287
-0.645887
0.646175
0.546468
-0.645887
-0.65842
0.646175
-0.00393088
0.89905
-0.0427404
-0.630722
0.561629
0.0690933
0.533297
0.58171
-1.11501
0.482712
0.531777
0.575953
0.473493
-1.04945
0.529532
0.527037
0.561629
-0.515872
-0.474427
-0.594479
-0.531792
-0.170529
-0.00579474
0.00579474
0.526731
0.530151
-1.06194
0.725954
-0.357306
-0.959694
0.372266
-0.678332
0.449805
-0.00525594
-0.869503
0.874759
0.452842
-0.0394114
0.916792
-0.991255
-0.900923
0.0539374
0.846985
0.364333
-0.206854
-0.157478
0.690726
-0.788543
0.933475
-0.868694
-0.0647819
-0.0177948
-0.850033
-0.16884
0.850196
-0.681356
-0.91079
0.892996
-0.716155
0.664125
0.0520302
-0.865511
0.0527746
0.812736
0.00328221
-0.00480517
0.424116
0.05778
-0.889456
0.831676
-0.779598
0.708545
0.966209
0.0768375
-1.04305
0.0652861
-0.00894229
0.421933
-0.360535
0.0398752
0.883017
-0.888273
-0.73863
-0.877833
0.0277991
-0.143481
-0.896088
0.027394
0.579622
0.00763061
-0.0161702
0.380503
-0.79356
0.846335
0.462988
-0.908914
-0.833953
0.0650966
-0.0608554
0.800304
-0.739448
-0.0213289
-0.799486
0.57992
0.178983
-0.00674338
0.923536
0.946933
0.908537
-0.881143
0.0460659
-0.0460659
-0.0847255
-0.232597
0.0257426
0.34161
-0.0210834
0.245193
0.902207
0.0132283
-0.0196468
0.65908
0.34092
0.797378
-0.602945
-0.751089
-0.723543
-0.61808
0.61808
-0.208064
-0.10892
0.664549
-0.902108
0.237559
-0.498602
-0.553879
0.286275
-0.995566
-0.921588
0.856806
-0.826954
0.854753
0.676988
0.1675
-0.844487
-0.671512
-0.184082
0.846335
-0.662253
0.0193811
0.00779254
0.00288099
-0.0106735
-0.0385668
-0.19403
0.950824
0.672363
-0.335755
-0.336608
0.514885
0.744264
-0.51212
0.0130273
-0.286143
0.0927104
0.758027
-0.850738
-0.318579
-0.0809167
0.138686
-0.998015
0.104728
-0.734608
0.112049
0.726123
-0.838172
-0.858933
0.124325
0.698742
-0.779659
0.233783
-0.358195
-0.631701
-0.039811
0.370703
0.733702
-0.0397482
-0.00129238
0.00129238
-0.00520553
-0.0201758
-0.0351633
-0.0174381
0.0306663
-0.624071
0.336292
0.735707
-0.815576
0.0798694
-0.692797
0.804846
0.783541
-0.084799
-0.671615
-0.187318
-1.09308
0.0208856
0.0251803
-0.53136
-0.840455
-0.813285
0.401141
-0.228617
0.288253
-0.0596361
-0.553995
0.0226345
0.532932
0.714545
-0.0422043
-0.0170856
1.03783
0.49674
0.201839
-0.698579
-0.461788
-0.0922072
-0.0039389
0.0117314
0.693704
-0.888147
0.00624857
-0.00624857
-0.709024
0.71284
-0.00381579
-0.477958
-0.122559
-0.689005
0.113867
0.636431
-0.0528625
-0.873087
-0.241243
0.256935
-0.0156922
0.780376
-0.700506
0.333041
0.262217
-0.595257
-0.146751
-0.696047
-0.142124
-0.212284
-0.127376
0.470949
-0.516944
0.175307
0.719232
-0.894539
0.51341
-0.198985
-0.0296319
0.0300173
-0.157393
0.595617
-0.092544
-0.503073
-0.285345
0.305981
-0.0206361
0.559544
0.16641
0.087494
-0.311982
0.169929
0.142052
-0.119309
-0.0239182
-0.297703
0.0892916
0.054259
-0.143551
0.832248
-0.370414
-0.107544
0.554388
0.27605
-0.611806
0.521716
-0.521716
-0.241238
-0.523809
-0.251793
-0.523809
-0.641905
-0.84882
0.17866
-0.344672
0.753259
0.044703
0.17231
0.561392
0.109001
0.118208
0.0101735
-0.128381
-0.0877363
0.679667
-0.950038
0.428758
-0.00918253
0.0670535
-0.057871
-0.747052
-0.1771
-0.547108
0.748946
-0.508195
-0.00273481
-0.154659
-0.340734
-0.080438
0.080438
0.0459163
-0.000132415
0.139093
0.264335
-0.731854
0.184746
-0.00262321
0.473174
0.526826
0.796039
0.0201417
0.0289497
-0.0490914
-0.293398
-0.57969
-0.538101
0.114141
-0.11892
0.00477861
-0.112709
-0.412533
-0.103242
0.739674
-0.582478
-0.164575
-0.0390665
0.0142684
0.166014
-0.463864
-0.197891
-0.185295
-0.0246416
-0.479645
0.429782
0.0498637
-0.0184247
0.294294
-0.865581
-0.53182
0.651937
-0.837649
0.690898
0.452213
-0.0326393
0.0590662
-0.026427
0.104339
-0.635319
-0.000577176
0.635896
-0.893205
0.644773
-0.729499
-0.0932323
0.00692342
-0.00692342
-0.298955
0.442034
-0.0201015
-0.00344404
0.0235857
0.577487
0.679592
-0.761521
0.0151231
0.00324083
-0.00453321
0.00436762
-0.00436762
-0.493391
0.659801
0.0147957
-0.0147957
-0.769527
-0.00822973
0.0115119
-0.493842
0.678588
0.568019
-0.571835
0.0691248
-0.0691248
0.014053
-0.0630722
0.0116865
-0.942739
0.529011
-0.553027
-0.00480517
0.598618
0.0124346
-0.611052
-0.708859
0.126382
-0.315918
-0.0129665
0.328884
-0.0212747
-0.0209297
-0.604248
-0.0310702
0.0251803
0.00573783
0.00051074
-0.00290505
0.00290505
-0.430295
0.286744
-0.444734
0.134175
0.663203
-0.137187
0.00417337
-0.00417337
0.508937
-0.0833612
0.00844639
0.0182569
-0.000437554
0.622666
-0.706027
-0.756276
0.648733
-0.110993
0.329048
0.766377
-0.00520553
-0.0954073
0.0986404
-0.67469
0.549759
-0.298139
-0.110242
-0.0243286
-0.0260466
0.0115117
0.481301
-0.0886244
-0.414449
0.695514
0.00142713
0.00594911
-0.00594911
-0.219087
-0.16596
-0.571016
0.615719
-0.138494
0.506373
-0.162281
0.807204
0.803992
0.00573783
-0.684645
0.648228
0.0185826
-0.0172862
-0.00129641
0.630308
0.0942704
-0.0122604
0.0676817
-0.0554214
0.00935531
-0.00935531
-0.795117
0.0230589
-0.043708
0.0619649
-0.0862897
0.0862897
0.00324083
-0.00103216
0.713658
0.0766658
-0.317423
-0.0951096
-0.519591
-0.0204839
-0.0670489
0.0670489
-0.0350384
0.0812062
-0.0812062
0.0270878
-0.0270878
-0.357035
-0.0750155
0.240036
0.0703725
0.0399131
-0.767665
-0.0610922
0.160484
0.019937
-0.245862
0.0810754
-0.0810754
-0.466833
-0.0501109
0.23006
-0.0106784
0.00283277
-0.653277
0.657208
0.0395657
-0.0746041
0.0175134
-0.0805856
-0.0120814
-0.156908
0.168989
-0.149859
-0.208336
-0.0814616
0.0814616
0.0545996
-0.0545996
-0.0284823
-0.0940359
0.122518
-0.0208159
-0.188918
-0.00444959
-8.3616e-05
-0.243894
0.530638
-0.0258384
0.434694
0.00816796
0.00836065
-0.0515093
0.0515093
-0.730076
0.317686
-0.127486
-0.208469
-0.0227847
-0.0177501
0.0205828
0.198452
0.0318152
-0.00191724
0.00147969
0.0843597
0.0297814
0.0557697
0.104714
-0.0256427
0.0085571
-0.000299454
0.00502357
0.00533339
0.00581654
-0.0111499
-0.00270829
0.00959509
0.0276559
-0.0276559
0.0499317
-0.0426447
0.0426447
-0.190605
0.0133842
0.0248434
-0.0758817
0.0177325
0.0772047
-0.0772047
0.248315
-0.238421
0.0885619
-0.0670999
-0.171321
-0.01549
0.01549
0.407673
0.251286
-0.520615
-0.0804398
-0.0384799
0.541848
-0.00330258
-0.063592
-0.468299
0.078569
-0.152622
0.169826
-0.0172035
-0.0474233
0.0474233
0.844946
-0.59139
-0.00905539
0.00634711
-0.00585173
-0.28602
-0.000130771
0.00482814
-0.0443646
-0.622362
0.569702
-0.657019
0.0144127
0.177111
0.0155396
0.0244215
-0.158474
-0.3341
0.258218
-0.0554259
0.0269436
0.171758
0.134224
0.224709
0.264481
-0.248941
0.00584413
-0.114262
-0.221435
0.0675919
-0.0118221
0.161416
-0.136994
-0.0684045
0.152764
-0.394802
0.122521
-0.104789
0.0592051
-0.473654
0.174654
0.177824
-0.246228
0.00767784
-0.177675
0.177544
0.00387071
0.148894
-0.027849
0.049002
0.459935
0.0121659
0.0193899
-0.00452581
0.0359183
-0.238639
-0.202754
0.588965
0.168266
0.061794
0.0758603
-0.0636669
0.0881362
-0.0894326
-0.0302857
0.166282
-0.151869
0.0309016
-0.00913901
-0.105322
-0.0287812
0.0394587
0.252292
-0.0160867
0.00755059
-0.310886
-0.00754543
0.217699
0.140639
0.177048
0.0566272
0.0966798
0.0454982
0.531989
-0.0114494
0.104176
0.0421078
0.0663289
-0.108437
-0.269329
-0.197266
0.0259445
-0.221362
0.284942
)
;

boundaryField
{
    FrontBack
    {
        type            empty;
    }
    Top
    {
        type            calculated;
        value           uniform 0;
    }
    In
    {
        type            calculated;
        value           uniform -1;
    }
    Bottom
    {
        type            calculated;
        value           uniform 0;
    }
    Out
    {
        type            calculated;
        value           nonuniform List<scalar> 10(1.05866 1.04917 1.06891 1.06131 1.0552 1.05883 1.05688 1.05248 0.762954 0.775602);
    }
    circle
    {
        type            calculated;
        value           uniform 0;
    }
}


// ************************************************************************* //
