/*--------------------------------*- C++ -*----------------------------------*\
| =========                 |                                                 |
| \\      /  F ield         | OpenFOAM: The Open Source CFD Toolbox           |
|  \\    /   O peration     | Version:  2412                                  |
|   \\  /    A nd           | Website:  www.openfoam.com                      |
|    \\/     M anipulation  |                                                 |
\*---------------------------------------------------------------------------*/
FoamFile
{
    version     2.0;
    format      ascii;
    arch        "LSB;label=32;scalar=64";
    class       volVectorField;
    location    "10";
    object      U;
}
// * * * * * * * * * * * * * * * * * * * * * * * * * * * * * * * * * * * * * //

dimensions      [0 1 -1 0 0 0 0];

internalField   nonuniform List<vector> 
808
(
(0.89209 -0.0122909 0)
(1.0181 -0.0464234 0)
(1.12698 0.0506058 0)
(1.07057 0.0139208 -2.0588e-21)
(1.47265 -0.291647 0)
(0.947305 -0.0266122 0)
(1.12484 -0.0609932 1.45223e-21)
(1.05062 0.00442262 0)
(1.353 -0.22873 2.63519e-20)
(1.23416 -0.0918926 -1.24087e-20)
(1.12557 -0.0873997 4.89764e-21)
(1.3805 -0.261645 0)
(0.970621 0.00273852 0)
(0.71605 -0.0280249 0)
(0.99206 0.0294809 2.18735e-20)
(1.04106 0.00256689 0)
(0.882476 0.0155299 -6.88348e-21)
(0.977309 -0.00324604 -5.5567e-23)
(1.1196 0.0164003 0)
(1.11114 0.00805369 0)
(1.1461 -0.114114 -6.83572e-21)
(0.931004 0.124108 1.04498e-19)
(1.07535 0.00980497 -8.78722e-21)
(1.17834 -0.025118 0)
(0.952377 0.183428 0)
(1.33228 0.0225311 -3.4443e-20)
(1.28307 -0.178176 1.03277e-20)
(0.970093 0.00245771 -3.93601e-21)
(1.0478 0.011518 0)
(1.04141 -0.0147837 -2.29127e-22)
(0.977617 0.00393677 3.05031e-24)
(1.12363 -0.00965542 0)
(1.01127 0.00993625 0)
(1.06391 0.0107103 3.19208e-21)
(1.31548 -0.0717275 1.04108e-20)
(0.740045 -0.113952 1.08129e-19)
(0.865135 -0.0351709 -1.83953e-22)
(1.00599 -0.0109737 6.65499e-22)
(1.17704 0.0532983 2.26604e-22)
(1.07625 -0.00115168 0)
(1.27168 -0.060991 -2.05619e-20)
(1.28035 -0.129786 0)
(1.00111 -0.0094086 -3.54673e-21)
(1.08009 -0.0523108 3.34986e-21)
(1.22929 -0.0589905 0)
(1.00739 0.0125462 -1.50822e-20)
(0.979372 -0.0135933 1.01822e-21)
(1.25381 -0.252624 9.09436e-21)
(1.138 0.0389917 1.35693e-21)
(1.41036 -0.18831 -3.80698e-20)
(1.12235 -0.0588001 -2.02142e-21)
(1.14893 -0.0714225 0)
(1.11786 -0.00516738 3.11851e-21)
(1.05303 0.00619259 0)
(1.3185 0.222417 6.53875e-21)
(1.06392 0.0481004 3.22484e-22)
(1.05453 0.0145724 0)
(1.08933 -0.0594432 3.25208e-21)
(1.24149 -0.0931386 1.33198e-20)
(1.12093 0.0523445 1.1511e-21)
(-0.331188 0.0657424 0)
(1.21715 -0.214002 -8.48609e-21)
(1.08861 -0.0326806 0)
(1.44882 -0.0822033 -3.16071e-20)
(1.07659 -0.0636813 -4.30267e-21)
(1.04346 -0.0300191 -3.96818e-21)
(1.35896 -0.146443 3.20498e-20)
(0.691021 0.0104616 0)
(1.0827 -0.0805394 0)
(1.4376 -0.357497 0)
(0.831635 0.0326255 -5.15467e-23)
(1.23935 -0.14766 -4.02789e-20)
(0.997471 0.0720988 0)
(1.0595 -0.047432 -2.17674e-22)
(1.12256 -0.336067 -5.3928e-20)
(1.1142 -0.0468745 -8.36582e-22)
(1.13518 0.03836 8.79697e-22)
(1.32181 0.491045 2.5257e-20)
(1.11155 -0.0640302 0)
(1.01438 0.281189 -1.70459e-19)
(1.34271 0.0180851 2.0022e-20)
(0.710794 -0.00177372 0)
(0.860325 -0.00639674 -3.9633e-21)
(0.967796 -0.111584 3.97635e-21)
(1.09639 -0.0462917 7.83979e-22)
(1.18494 0.0261688 2.15607e-21)
(1.27662 -0.240365 0)
(1.34943 0.27725 0)
(1.09606 -0.00605622 -3.40606e-21)
(1.40016 0.0602206 3.70019e-20)
(1.0756 -0.0171838 6.99623e-21)
(1.32687 -0.124727 -1.54831e-21)
(0.963735 0.0262168 1.52527e-20)
(1.00219 -0.0237171 0)
(1.10651 0.0128259 7.83992e-22)
(1.34848 -0.0769408 -8.82492e-20)
(0.875028 -0.00117539 -2.34418e-21)
(1.34435 -0.0508626 0)
(1.33687 -0.0861316 0)
(1.42861 -0.114567 -4.85778e-20)
(1.0783 -0.0501406 8.15267e-22)
(1.11656 0.0172677 1.40897e-22)
(0.948408 0.0302657 6.87742e-21)
(1.17929 0.025407 -1.03426e-21)
(1.34072 0.0521293 -3.2427e-20)
(0.993491 0.00752682 8.7889e-21)
(1.44135 -0.0489857 0)
(1.05506 0.00348398 0)
(1.09181 0.0417874 -7.9728e-22)
(1.20366 -0.220396 -5.99091e-21)
(1.27617 0.0363583 1.53569e-20)
(1.04732 0.0463514 -1.15511e-19)
(1.12091 0.0587047 3.54542e-22)
(1.16027 0.0592076 3.70619e-21)
(0.891246 0.00964168 0)
(0.915824 -0.0484417 7.31399e-20)
(1.13751 0.0295103 1.39042e-21)
(1.43218 -0.271883 -1.81689e-20)
(1.06602 -0.0372416 -1.32714e-21)
(0.917392 0.0135428 1.99703e-21)
(-0.375874 0.0244285 0)
(0.85671 -0.0126192 1.70116e-21)
(0.795674 0.0299689 0)
(1.07098 0.0112956 -6.306e-23)
(1.01077 0.0316094 0)
(1.31092 0.314314 1.01451e-20)
(1.03479 -0.0567314 -2.67816e-20)
(1.22059 0.100977 2.74222e-21)
(1.14998 -0.055979 0)
(1.09614 -0.023295 0)
(0.596385 -0.076011 0)
(1.05856 0.000675589 -1.2283e-21)
(1.25152 -0.0442366 1.20354e-20)
(1.06688 0.109971 -2.8381e-20)
(0.901492 0.00672097 0)
(1.10323 0.0300667 1.30378e-22)
(1.16778 0.0528133 2.11366e-21)
(1.06482 -0.000139175 -1.30079e-21)
(0.958391 0.0357653 5.93989e-22)
(1.11936 0.0122176 -1.18118e-22)
(0.00462581 0.0544664 0)
(1.09771 -0.0133907 -7.84609e-21)
(1.15973 0.071514 1.7465e-21)
(0.717426 0.0479618 -3.80517e-22)
(1.2599 0.159404 1.68294e-21)
(1.11182 0.051785 3.42069e-21)
(1.04723 0.0182497 1.30038e-20)
(0.991889 0.0294344 0)
(1.1416 -0.0902354 -1.68251e-20)
(1.05337 -0.0100835 0)
(0.901069 0.0332473 8.68616e-22)
(0.969644 0.282193 1.366e-19)
(0.952415 0.0276644 0)
(0.818592 0.0992463 0)
(-0.166061 -0.0105469 -7.50698e-20)
(1.33374 0.120357 -1.52215e-20)
(0.646947 -0.0165288 0)
(1.43054 0.0107761 0)
(1.15349 0.043055 0)
(1.3502 0.0793615 1.67084e-20)
(-0.0367038 -0.122882 0)
(-0.071488 0.0773535 3.65137e-20)
(0.983057 -0.0737337 8.20806e-20)
(0.98797 0.0426662 -1.77456e-22)
(0.859239 0.00379104 0)
(1.02134 -0.0308587 2.56188e-21)
(0.890398 0.0294755 0)
(0.741285 -0.0617361 -8.87006e-20)
(1.03083 0.0459461 -1.6471e-21)
(1.07007 -0.0570355 1.57124e-21)
(1.08457 0.00952683 2.38024e-21)
(1.01839 0.0725583 -1.00356e-20)
(0.824851 -0.0115603 -3.4053e-21)
(1.13826 -0.349019 4.80577e-22)
(0.914265 -0.0240317 0)
(1.05994 0.00284882 -1.03801e-20)
(0.871792 0.0115344 -7.75417e-21)
(1.38694 -0.176765 2.35071e-21)
(0.694191 0.0269787 0)
(1.03569 -0.147813 0)
(1.06554 -0.0142922 1.29611e-21)
(1.3925 0.205363 1.22401e-20)
(1.10983 0.0243208 6.17064e-22)
(1.03673 0.0214037 1.78667e-20)
(0.732786 0.00348787 -7.5756e-20)
(0.814225 -0.000332429 1.52019e-20)
(1.1279 -0.0214078 9.49949e-23)
(1.40283 -0.0780252 -6.05432e-21)
(1.07337 -0.0284844 -2.91689e-21)
(1.33833 -0.0339084 5.1881e-21)
(-0.179187 0.0159595 5.50416e-20)
(1.2846 -0.0114979 0)
(0.594209 -0.00765061 0)
(1.06439 -0.0246794 -4.71489e-21)
(1.10212 0.0160003 -1.31978e-21)
(0.0670649 0.0640523 0)
(0.896565 -0.00202206 1.96523e-23)
(1.06965 -0.0218178 -1.88965e-21)
(1.03088 -0.00504293 1.13025e-21)
(1.07884 0.0356744 -5.71956e-21)
(1.00531 0.0243819 2.30204e-21)
(1.01595 0.000834487 1.66686e-21)
(1.0533 -1.99781e-05 0)
(0.319351 -0.0436197 0)
(1.04602 -0.0622659 0)
(1.16264 0.0975478 -3.29477e-20)
(-0.0339543 -0.138893 4.82907e-20)
(1.08783 -0.0100001 -8.92475e-24)
(1.11633 0.054807 0)
(0.740155 0.0255248 -1.02122e-21)
(1.06965 0.0115802 1.49017e-21)
(-0.00918577 -0.0391179 -1.48332e-19)
(0.869411 -0.0261653 -6.12857e-20)
(0.59822 -0.0121762 0)
(1.05603 -0.00681971 0)
(0.899405 0.0374529 -9.36636e-22)
(1.0048 -0.119116 5.69354e-21)
(1.28011 0.391891 4.44168e-21)
(1.05639 0.00101125 -4.54017e-23)
(1.07872 -0.0286466 -3.72776e-21)
(1.05567 9.76289e-05 0)
(1.36297 0.416367 -4.7688e-20)
(0.658161 0.00512156 0)
(0.884186 -0.00292136 -2.17306e-21)
(1.07228 0.00113136 2.83562e-22)
(0.631524 0.00403373 0)
(1.10014 -0.00385284 0)
(0.141893 -0.0571159 -5.61471e-20)
(1.12688 -0.0467441 -7.22909e-21)
(0.854713 -0.00166364 1.85536e-21)
(0.992101 -0.00302974 0)
(0.632172 -0.00815428 0)
(0.862999 -0.00470382 -2.03189e-21)
(0.645243 -0.00969739 -9.65445e-23)
(1.30763 0.0210195 3.69472e-22)
(1.09843 0.0328335 -3.60607e-21)
(0.838133 0.00439662 -1.77901e-21)
(1.06643 0.00518038 1.0961e-22)
(1.06286 -0.00146235 4.278e-23)
(0.631023 0.00123591 4.71911e-21)
(1.05564 -0.00458469 3.75547e-22)
(1.05778 -0.00354111 0)
(1.05585 0.00284499 0)
(0.620665 0.00963038 0)
(1.04985 0.00382259 0)
(1.0691 -0.00345531 -6.70235e-22)
(1.06134 -0.00104224 0)
(1.05607 0.00120772 0)
(1.05897 0.00117887 0)
(1.12552 0.0324261 0)
(-0.0196973 -0.0438699 4.71313e-20)
(1.05993 -0.00464922 3.02566e-22)
(1.06059 0.00254732 0)
(1.35309 0.0688409 2.26278e-20)
(1.06427 0.00264461 7.44573e-22)
(1.09437 0.0522241 -8.89926e-22)
(1.06564 -0.00735069 3.51268e-21)
(1.05751 -0.00226545 0)
(0.629718 -0.00257799 4.29739e-21)
(1.0497 0.0435582 9.76061e-21)
(1.13895 -0.024797 0)
(1.07045 0.0112578 -1.64988e-21)
(1.05933 -0.00821801 2.29891e-21)
(0.611432 0.0603218 -1.27849e-20)
(1.08647 -0.00667307 3.21326e-21)
(1.07265 0.0171189 -4.43108e-21)
(1.05067 0.00849884 0)
(1.17308 0.062909 -1.27611e-20)
(1.07263 0.00263324 -2.9705e-21)
(0.914622 0.040171 7.61333e-21)
(1.02592 0.0338157 0)
(-0.0221531 -0.0209133 0)
(0.973734 0.112695 -1.66486e-20)
(1.05215 0.0136358 0)
(1.29194 -0.0756299 2.53271e-20)
(1.05954 0.000238402 6.71897e-22)
(1.05805 0.00970653 4.25937e-21)
(1.07195 -0.00670253 -1.98407e-21)
(1.3807 -0.0459447 1.29337e-19)
(1.01839 -0.324324 5.44451e-20)
(1.05439 -0.00588731 -4.56971e-22)
(1.02086 0.0493699 0)
(1.04614 0.0148187 0)
(0.904969 0.000679643 -2.13644e-20)
(1.26548 -0.0870823 -4.20227e-20)
(1.06474 0.0119204 0)
(0.802897 -0.0134211 1.00712e-20)
(0.500557 -0.0164689 0)
(1.01669 0.00464114 5.16542e-21)
(0.921541 0.0217606 -1.14848e-20)
(0.761291 0.0187488 1.23373e-21)
(1.07612 -0.0131543 0)
(1.07813 0.00459155 -7.83707e-22)
(1.08666 0.0239911 3.83729e-21)
(0.961994 0.00341987 -7.36189e-21)
(1.07082 0.00289172 -3.20342e-21)
(0.984596 0.0565905 0)
(1.0913 0.0630661 0)
(1.1195 -0.03099 5.04126e-21)
(0.995172 -0.00775079 -5.21791e-21)
(1.06002 -0.00474827 4.5886e-21)
(1.05137 0.0038146 -2.42766e-21)
(1.04114 0.026753 5.28908e-22)
(1.05432 0.0108349 0)
(0.410685 -0.137765 1.3633e-20)
(1.31535 0.0678543 -2.56296e-20)
(0.979246 0.0576763 -8.86127e-21)
(0.219685 0.0400403 1.35184e-20)
(1.4363 -0.144799 2.75359e-20)
(0.885397 -0.0489316 7.11963e-20)
(1.12734 -0.00810226 -5.18003e-21)
(1.0522 0.0016843 -2.48664e-22)
(-0.0535039 -0.155537 -8.27899e-21)
(0.997314 -0.00732718 0)
(1.03437 -0.0879193 -1.5124e-20)
(0.851954 -0.0312007 2.03294e-22)
(1.06585 -0.0411339 2.58552e-22)
(0.936738 -0.00898862 -1.02018e-21)
(0.652407 -0.00596216 6.34428e-22)
(1.41122 -0.387398 -1.51533e-20)
(1.07981 -0.00571909 0)
(1.05295 -0.00174869 -1.14793e-21)
(1.11098 -0.0181938 -7.48273e-22)
(1.10798 0.000174115 0)
(1.03659 -0.00716222 -6.58317e-21)
(1.1077 0.0253854 9.03963e-22)
(0.891801 -0.00861241 1.84318e-20)
(1.14523 -0.0549953 1.11336e-20)
(1.03051 -0.00819299 3.71117e-21)
(-0.0458411 -0.0703385 0)
(0.470185 0.165874 -5.06005e-21)
(1.09669 -0.0125763 0)
(0.975899 0.138165 -4.92386e-21)
(0.973606 0.134326 0)
(1.12495 -0.0190902 -3.32824e-21)
(1.01591 0.0260702 0)
(1.10827 -0.0102343 0)
(1.40967 -0.129923 2.43678e-20)
(0.795183 -0.0865296 0)
(1.178 -0.115554 1.6186e-20)
(1.05943 0.00810133 1.55298e-22)
(1.03542 0.000755241 8.99249e-22)
(1.25494 -0.0679849 -1.52723e-20)
(1.24769 0.115388 -9.61738e-21)
(1.14288 -0.0410647 1.26128e-20)
(1.11698 0.0167015 0)
(1.16149 -0.0860927 0)
(1.08531 0.0477918 1.10265e-21)
(1.22065 -0.031914 0)
(1.42049 0.199367 -2.98483e-20)
(0.883938 -0.0417216 1.12649e-21)
(1.02915 0.0156191 1.64638e-20)
(1.24659 0.0651813 -4.18983e-22)
(-0.0153418 -0.0115568 0)
(-0.0285638 -0.0777927 0)
(0.156514 -0.0698246 -4.79884e-20)
(-0.0386002 -0.162488 0)
(0.836929 -0.0621885 -1.18127e-20)
(1.16091 0.0498546 9.57042e-22)
(1.12998 -0.0781412 -1.72931e-21)
(1.22011 -0.112439 -3.14284e-21)
(1.20144 -0.0458733 0)
(0.840556 -0.00622077 -1.8162e-21)
(1.11529 0.0646483 0)
(1.08007 -0.00752751 7.78243e-22)
(0.496705 -0.109567 0)
(0.855396 -0.0803309 -4.03028e-22)
(1.09279 0.0676153 0)
(1.07692 -0.000822967 0)
(0.834149 0.130574 6.6083e-20)
(0.765389 -0.092775 -2.03744e-21)
(1.05761 -0.00196207 1.40303e-21)
(1.01591 0.0169016 -7.44257e-21)
(0.168321 -0.119611 0)
(1.15511 -0.0622102 -1.91329e-20)
(1.19319 0.0813666 -6.44291e-21)
(1.13528 -0.0593162 6.38143e-22)
(0.826312 -0.0942994 7.71166e-21)
(-0.0572503 -0.107359 -1.01242e-19)
(1.11278 0.0590775 0)
(-0.0365607 0.0456737 0)
(1.14634 0.0868522 8.3149e-22)
(0.653385 -0.0788045 -8.29964e-21)
(1.06189 0.00334005 -6.82195e-21)
(1.09221 -0.058248 0)
(1.11769 -0.0866996 1.36104e-21)
(1.25802 -0.151703 1.60688e-20)
(0.525134 -0.0550064 -9.42596e-21)
(1.14136 -0.0373709 2.44172e-21)
(1.14903 -0.0761923 6.86156e-23)
(0.219615 0.0309924 9.24531e-21)
(1.18103 -0.106067 -3.42301e-21)
(1.11079 0.0529978 0)
(1.1194 0.0602259 0)
(1.17907 -0.0847502 4.69918e-21)
(1.15206 0.0916423 5.82299e-21)
(0.645101 -0.120034 -2.8876e-20)
(1.19628 -0.119828 -8.99807e-21)
(1.08964 0.0484287 7.24914e-22)
(0.523053 -0.00793464 4.8384e-21)
(0.487835 0.00177812 -1.2182e-19)
(-0.0638045 -0.061862 2.08996e-20)
(1.17336 0.178927 -6.77226e-21)
(1.23211 -0.494847 5.85493e-21)
(1.39587 0.102474 -2.01178e-20)
(1.19733 -0.0670871 -5.56879e-21)
(0.936391 -0.233317 9.07722e-20)
(-0.179552 0.00555737 0)
(1.06246 0.00354617 -4.8214e-22)
(0.183277 0.276152 -8.60122e-21)
(1.13548 0.0776177 -7.19496e-22)
(1.08284 -0.014942 4.93895e-21)
(1.05803 0.00106349 0)
(0.772361 -0.0895619 0)
(1.16956 -0.04518 0)
(1.2269 0.157205 -4.48512e-23)
(1.25772 0.00031713 -3.24515e-20)
(1.13855 -0.0623523 -4.98696e-21)
(0.625298 0.015297 0)
(0.767295 0.0087951 0)
(0.780274 -0.00191781 7.35256e-23)
(0.628769 -0.0108767 0)
(1.07389 0.00922494 0)
(1.02 -0.00934636 2.10475e-20)
(0.468651 -0.0187427 0)
(0.954162 0.0121346 0)
(1.05125 0.0112393 0)
(1.17988 0.179319 1.86813e-21)
(1.24659 0.0702845 1.31612e-20)
(0.965127 -0.0365957 2.92934e-21)
(1.28757 -0.402885 -1.08673e-19)
(0.683446 -0.0787736 -8.36385e-22)
(1.21157 0.0692502 3.93882e-21)
(1.08858 -0.0024432 0)
(-0.390408 -0.0688178 0)
(-0.265725 -0.0038463 0)
(1.15857 -0.0387879 -9.01899e-21)
(1.32179 -0.29145 -2.89908e-20)
(1.25488 0.13694 0)
(1.06857 0.0541507 -1.99547e-21)
(0.424011 -0.0846457 0)
(1.5129 -0.176466 7.63894e-20)
(0.412804 0.519936 1.05063e-19)
(0.262843 -0.0511897 0)
(1.09291 -0.279306 1.16652e-19)
(0.511751 0.123615 0)
(-0.155351 0.0191373 1.40529e-20)
(1.31682 0.132096 0)
(-0.0361974 -0.00471753 3.09701e-22)
(0.983488 -0.0494701 0)
(1.23672 -0.0928245 -1.08054e-20)
(-0.16121 -0.105501 -8.31961e-21)
(1.10732 -0.025175 -1.4556e-21)
(1.16599 -0.120743 -6.58987e-21)
(0.571146 -0.514753 -8.9371e-20)
(1.07407 -0.00297827 -1.21341e-21)
(1.19762 -0.126856 1.27727e-21)
(1.18289 0.24316 -1.30534e-20)
(1.14928 -0.138415 -3.26267e-21)
(1.15783 -0.0208015 -1.69701e-21)
(-0.19716 -0.106439 -6.18793e-20)
(0.0469773 0.0654171 -8.36877e-21)
(1.20838 0.0622745 2.15074e-21)
(1.05681 -0.04432 0)
(0.660947 -0.0392123 -6.70772e-21)
(1.39921 -0.445367 8.35923e-20)
(0.922586 -0.0887826 -5.95863e-20)
(1.43569 0.133105 8.85689e-20)
(1.08273 -0.0381617 -8.54557e-22)
(1.17525 -0.124086 4.16273e-21)
(1.06287 -0.00875142 0)
(1.17918 -0.00674862 0)
(1.278 -0.0940076 4.9325e-21)
(1.08702 -0.0186957 -4.38411e-21)
(1.21494 -0.166337 3.70644e-21)
(1.0678 0.0391191 -2.88607e-21)
(1.45935 -0.00415198 -5.75111e-20)
(0.46295 0.0316315 0)
(1.23637 -0.105049 -1.64848e-21)
(1.28961 0.139198 0)
(1.07488 0.0323395 -7.37047e-22)
(1.14017 0.0120921 0)
(1.04742 -0.0154227 1.0055e-20)
(1.23258 0.0327731 2.07513e-20)
(1.08059 -0.00780564 0)
(0.0501938 -0.0300777 1.56218e-19)
(0.882879 -0.212614 -7.11956e-20)
(1.36548 0.0145438 -3.76735e-20)
(-0.127793 -0.096782 4.39097e-20)
(1.18062 0.0494686 4.65004e-22)
(1.03851 -0.00837744 -2.63778e-21)
(-0.128015 -0.0531725 -4.57841e-20)
(-0.0306394 0.00628178 -2.86453e-20)
(1.01742 -0.0302243 0)
(-0.0264934 -0.0320394 0)
(1.24416 0.139329 0)
(0.111531 -0.103972 0)
(1.10971 -0.0304877 0)
(0.129619 0.0292726 0)
(1.10123 0.069564 0)
(1.16931 0.215313 0)
(1.22481 0.108042 -2.79406e-21)
(0.57243 -0.284176 -2.1565e-20)
(-0.26712 0.0128077 0)
(1.12785 -0.104191 6.20116e-20)
(1.06525 0.00508448 1.62126e-21)
(1.40797 0.119315 0)
(-0.037265 -0.0394572 0)
(1.15855 -0.000110627 7.04188e-21)
(1.16564 -0.0124085 -3.30357e-21)
(1.16962 0.387083 0)
(0.234312 -0.0933636 5.9374e-20)
(1.12056 0.0523871 5.26622e-22)
(0.229647 -0.0518094 -5.29737e-20)
(-0.0606973 0.0522308 -3.52263e-20)
(-0.0325972 0.0493655 8.99795e-20)
(0.677363 0.168787 1.74807e-20)
(1.06058 -0.00176 2.48229e-21)
(1.10732 0.0663081 2.53126e-21)
(1.02461 -0.00879141 0)
(1.07098 -0.0693133 -1.87729e-20)
(1.20622 0.0906531 -1.41452e-20)
(-0.0107666 -0.0343893 1.03878e-19)
(0.982491 -0.0720063 -5.63619e-20)
(0.709698 -0.00118745 1.22041e-20)
(1.06389 0.00332158 -2.67536e-21)
(0.0694103 -0.031511 3.37272e-20)
(0.239888 -0.0387981 -4.77552e-20)
(0.38031 -0.0703753 -5.38218e-20)
(1.16915 0.118717 2.55884e-21)
(-0.0533826 -0.0323405 0)
(1.04486 0.0605479 6.75662e-21)
(1.202 -0.16403 6.71438e-21)
(1.15374 -0.139107 -6.4739e-21)
(1.30803 0.0504688 0)
(1.51544 -0.231805 7.40363e-20)
(1.07627 -0.00617355 -2.37158e-21)
(-0.0133173 -0.0429248 -3.52463e-20)
(0.323308 0.074868 0)
(0.937625 0.00724664 -1.70433e-21)
(1.1121 0.0345487 -1.67679e-21)
(0.719525 -0.0845502 1.65453e-20)
(1.16012 0.00394651 -2.53112e-21)
(1.11763 0.0392174 0)
(1.13435 -0.174828 -1.47786e-20)
(-0.0748667 -0.154533 -7.1145e-20)
(1.32849 -0.0108562 2.84106e-20)
(1.10579 0.170149 -9.00777e-21)
(1.06949 0.0590832 3.30088e-21)
(-0.0370392 -0.0543836 1.57562e-20)
(-0.0294348 0.0434931 -6.90169e-20)
(0.828148 0.034183 0)
(0.893805 0.238517 0)
(1.14972 0.0918092 -9.41768e-21)
(1.05338 0.0672138 9.21914e-21)
(1.06507 -0.00948352 0)
(0.561112 -0.0697033 5.90652e-20)
(0.750034 0.085436 -1.26087e-20)
(1.09704 0.101556 0)
(1.0711 0.0663849 0)
(1.39157 0.202176 0)
(1.0843 0.0070459 0)
(1.18476 0.039148 1.98699e-21)
(-0.0427153 0.0469972 3.84764e-20)
(1.06142 0.0112845 3.92091e-21)
(1.41156 -0.205709 -8.53151e-20)
(1.1916 0.0303197 -3.00868e-21)
(-0.0875688 0.0127311 0)
(1.16294 -0.148995 0)
(0.789153 -0.00434373 -8.19628e-22)
(0.549474 0.00803501 -6.38036e-20)
(0.0769396 0.0352829 5.14915e-20)
(1.01723 -0.00288445 1.42024e-21)
(0.736573 -0.271704 0)
(0.669522 -0.0920906 0)
(1.14258 0.0134559 0)
(0.541857 0.51507 2.67955e-20)
(-0.0217232 0.0221739 -3.19269e-20)
(1.0636 0.00611859 -1.61678e-21)
(-0.0208997 -0.0755404 6.66514e-20)
(1.06334 -0.013263 1.85269e-21)
(1.17418 0.311047 2.48966e-20)
(1.1138 -0.0898376 6.07482e-21)
(0.247115 -0.0487294 8.08954e-20)
(1.0667 0.0339409 2.8742e-21)
(1.20129 -0.162842 0)
(0.564075 0.272853 0)
(1.05221 -0.0100343 3.7217e-21)
(-0.216357 -0.0660758 0)
(0.621508 0.0233834 -5.96929e-22)
(0.600349 -0.4151 -3.17759e-21)
(0.245973 0.0492666 -1.1921e-19)
(1.12352 -0.228083 2.81677e-20)
(1.0398 0.364314 9.28441e-21)
(0.976641 0.0195301 0)
(1.0682 0.00193935 2.04194e-22)
(0.788669 0.00528639 0)
(1.03299 0.00927892 -9.10085e-23)
(0.425544 -0.0217176 0)
(0.711171 0.131617 0)
(0.98428 -0.0166061 1.78046e-22)
(1.44544 0.162394 -1.71572e-20)
(1.0562 -0.00931621 1.90511e-21)
(0.519514 -0.489127 0)
(1.13368 -0.155422 1.16333e-21)
(0.804467 0.378182 6.67599e-20)
(-0.0364403 0.0211682 1.26964e-21)
(1.21877 -0.0176296 1.36664e-20)
(1.21616 0.033263 -1.64817e-20)
(1.07214 -0.0243974 6.62278e-22)
(0.852607 -0.00610233 -1.69632e-21)
(0.0675609 0.0181759 4.06332e-20)
(-0.0219656 -0.0451614 -5.82395e-20)
(-0.242397 -0.0669012 0)
(-0.311949 0.0840466 0)
(1.18059 -0.614339 3.21478e-20)
(1.14675 -0.0200932 1.65592e-21)
(0.88233 -0.462743 -4.3675e-20)
(1.02119 0.0624078 -1.45782e-20)
(1.37589 0.191372 3.86155e-20)
(0.60682 0.422234 0)
(0.246588 0.415868 -1.09953e-19)
(0.596145 0.481248 0)
(0.0154955 0.0154774 0)
(1.12062 -0.479142 0)
(-0.0619401 -0.000448626 -4.8493e-22)
(1.19371 -0.00122039 0)
(0.897002 0.223895 -1.75002e-20)
(0.596153 0.693211 2.05135e-20)
(1.28456 0.211885 4.16236e-21)
(-0.0283294 -0.116419 -1.10281e-19)
(0.799309 0.206737 7.96048e-21)
(0.459012 0.145489 -1.43184e-20)
(1.20349 0.0850257 0)
(1.36448 0.350648 4.21172e-20)
(1.22491 0.564239 1.24496e-20)
(0.169737 -0.0163354 -2.44638e-20)
(1.02659 0.122999 3.64715e-20)
(0.973162 -0.00217873 6.4742e-22)
(0.96161 -0.00461772 -3.53506e-22)
(-0.0114646 -0.0316992 0)
(0.643519 -0.649698 -2.94117e-20)
(0.613396 0.202879 0)
(0.0995827 -0.161985 0)
(-0.0523258 0.0708143 0)
(0.0153519 -0.155799 -4.18321e-20)
(1.2366 -0.0113765 -1.56726e-20)
(-0.0223159 0.0683875 0)
(-0.0429518 0.054767 0)
(1.45565 0.103959 -8.53562e-20)
(-0.0345845 -0.0817775 4.9814e-20)
(0.114903 0.234707 -9.81434e-20)
(0.400404 0.0162219 0)
(0.16831 -0.276182 7.94974e-20)
(1.07849 -0.24125 0)
(0.995838 -0.284471 0)
(0.0153707 -0.118967 1.04197e-19)
(1.14512 0.0323687 7.37645e-23)
(1.12631 0.341159 2.44498e-20)
(0.270797 0.0273994 4.95063e-20)
(0.401227 -0.514201 -3.57286e-20)
(1.31024 0.0620032 0)
(1.23288 0.189866 2.42238e-20)
(1.22926 0.206517 -2.97526e-20)
(0.102376 0.0892663 -2.28676e-20)
(-0.0817479 -0.0433466 0)
(1.07251 -0.0554986 -1.92559e-20)
(1.10233 -0.224181 -1.38852e-20)
(0.580176 -0.40148 0)
(1.09699 -0.152325 -2.41284e-20)
(-0.153541 0.0506872 0)
(0.625851 0.0416022 0)
(1.46259 0.0677086 4.82461e-20)
(1.0237 0.00117401 3.46047e-22)
(1.07889 0.743486 -1.21902e-20)
(0.223935 -0.37621 1.28475e-19)
(1.08137 0.000645727 1.56007e-22)
(1.20589 0.0698822 2.74803e-21)
(-0.0639255 0.0641906 3.28741e-20)
(0.789747 0.734386 2.38532e-20)
(1.34672 -0.374121 -1.29139e-20)
(0.0128525 -0.0214981 9.51013e-20)
(1.08026 -0.00629581 0)
(0.154858 -0.0607188 -8.54478e-21)
(0.89293 -0.632132 2.86607e-21)
(0.904403 0.643238 -2.43232e-20)
(0.534676 -0.0389213 -6.24878e-20)
(1.13865 -0.0150823 5.04245e-21)
(1.07665 -0.0829998 5.75608e-21)
(1.13038 0.069067 -1.93662e-21)
(1.10542 0.116567 1.50117e-21)
(1.13257 -0.129459 0)
(0.922179 0.106134 1.59394e-20)
(0.893319 0.460424 0)
(1.22672 0.121 1.77185e-21)
(1.16463 0.107667 -3.39027e-21)
(0.760532 0.265167 0)
(0.529867 0.110497 1.13714e-19)
(0.895264 0.71273 -9.24705e-22)
(1.07778 0.28992 -1.87771e-20)
(1.04006 -0.00794532 9.99068e-21)
(0.415671 0.49214 0)
(1.29258 -0.474677 0)
(0.65264 -0.0865189 5.36849e-21)
(1.26893 0.502389 0)
(-0.0193974 0.0587644 -4.68982e-20)
(1.28055 -0.415515 -1.10388e-20)
(1.1667 0.507867 0)
(0.452483 0.218783 1.64593e-19)
(1.13171 0.315493 -1.28213e-19)
(0.811707 -0.637231 -2.50437e-20)
(1.14052 0.0689691 -4.24002e-21)
(0.926994 0.150884 8.74138e-20)
(1.08772 0.166455 4.32186e-20)
(1.07391 0.704037 -1.21474e-21)
(0.90034 -0.435461 6.30209e-20)
(1.42752 0.169802 4.68566e-20)
(1.11955 -0.00254817 4.08966e-22)
(-0.0018815 -0.0551502 9.12975e-20)
(1.07734 -0.699987 2.74209e-20)
(0.866952 -0.716468 5.11745e-20)
(0.249783 -0.330022 0)
(0.972525 -0.147179 6.94075e-20)
(0.36248 0.308805 -4.2741e-19)
(-0.111567 -0.0995588 2.93664e-20)
(0.258893 0.0433001 2.50816e-20)
(0.664999 -0.0608234 -7.37232e-20)
(1.0811 0.528667 0)
(0.992618 0.223003 7.34187e-20)
(1.08736 0.0312359 2.17575e-21)
(0.911584 0.44271 -8.60741e-20)
(0.776725 -0.720808 -8.06406e-21)
(0.925006 0.0226026 -4.7294e-20)
(0.978625 0.489406 0)
(1.1495 0.175013 -7.19615e-21)
(1.37627 -0.51572 1.33897e-20)
(1.22684 -0.341977 9.01477e-21)
(-0.368834 0.073618 3.7992e-20)
(0.193779 0.00517262 -1.7747e-20)
(0.973441 -0.118413 -5.61991e-20)
(0.3534 0.526012 0)
(0.915478 0.0166581 3.76834e-20)
(1.161 0.636248 8.7248e-20)
(-0.0413889 -0.15098 1.52487e-19)
(-0.0918916 0.0300084 -2.71953e-20)
(-0.0890368 -0.125985 4.29474e-20)
(1.09431 0.0195321 -2.69443e-21)
(1.12402 -0.460339 0)
(1.06275 -0.732421 -3.99574e-20)
(0.698958 0.35084 0)
(0.0613033 -0.16075 -1.09504e-19)
(1.07693 0.0012575 2.79973e-21)
(-0.0357153 -0.10948 -2.99069e-20)
(1.04663 0.0557762 -1.22298e-20)
(0.111933 0.0327215 6.07603e-20)
(0.859694 0.126071 0)
(1.39163 -0.0123539 5.62183e-20)
(0.0604927 0.0495638 -2.84766e-20)
(-0.378353 0.00238212 -4.50956e-20)
(-0.272659 -0.00746712 0)
(0.0726165 -0.0147027 0)
(1.35014 0.00877787 -1.62578e-20)
(0.369591 -0.0127293 1.52113e-19)
(1.26145 -0.725235 -2.37758e-20)
(0.898289 -0.104636 3.0153e-20)
(1.07343 0.24976 -2.56572e-20)
(0.365411 -0.553896 1.36834e-19)
(1.54949 0.27043 -3.85069e-20)
(0.0633378 -0.0841886 3.52522e-20)
(0.208296 0.306179 1.90782e-19)
(0.0832204 -0.0483225 -1.32371e-19)
(0.940365 -0.491065 -4.21768e-20)
(1.45733 0.383795 3.92853e-20)
(0.562965 -0.672042 4.7661e-20)
(1.10795 -0.0774748 -5.85461e-21)
(0.251849 -0.0703071 5.95225e-20)
(1.19189 0.289398 -5.16308e-20)
(0.662949 0.640646 -3.85261e-20)
(1.33098 -0.623028 0)
(1.42337 0.517373 3.60751e-20)
(1.04986 -0.526784 -1.22802e-20)
(1.39222 0.604847 -1.11201e-19)
(1.16527 0.0512796 0)
(-0.0558926 0.0848653 0)
(1.25348 0.728504 0)
(1.0896 0.0185446 -4.4477e-21)
(0.737574 -0.29931 -2.01562e-19)
(0.474765 -0.0810876 0)
(-0.0618711 0.0851096 -2.78599e-20)
(1.0205 -0.246261 9.32534e-20)
(-0.432877 0.0787701 0)
(0.320835 0.0271005 1.19901e-20)
(1.12764 0.056822 0)
(1.42134 0.269754 0)
(1.16839 0.0674825 4.54007e-21)
(0.359562 -0.289907 0)
(1.01371 0.149167 3.33787e-20)
(1.31456 0.282476 0)
(-0.129601 0.0386695 -1.10064e-21)
(0.810183 -0.393998 0)
(1.5166 0.331084 -5.83736e-20)
(1.24153 0.365721 -3.87672e-21)
(0.841618 0.645794 -9.27244e-21)
(1.00948 0.158576 -8.1097e-20)
(0.969549 -0.205475 -4.57832e-20)
(1.45594 0.288569 3.42981e-20)
(1.02759 0.0879768 0)
(0.56299 -0.0690905 0)
)
;

boundaryField
{
    FrontBack
    {
        type            empty;
    }
    Top
    {
        type            noSlip;
    }
    In
    {
        type            fixedValue;
        value           uniform (1 0 0);
    }
    Bottom
    {
        type            noSlip;
    }
    Out
    {
        type            zeroGradient;
    }
    circle
    {
        type            noSlip;
    }
}


// ************************************************************************* //
