/*--------------------------------*- C++ -*----------------------------------*\
| =========                 |                                                 |
| \\      /  F ield         | OpenFOAM: The Open Source CFD Toolbox           |
|  \\    /   O peration     | Version:  2412                                  |
|   \\  /    A nd           | Website:  www.openfoam.com                      |
|    \\/     M anipulation  |                                                 |
\*---------------------------------------------------------------------------*/
FoamFile
{
    version     2.0;
    format      ascii;
    arch        "LSB;label=32;scalar=64";
    class       volScalarField;
    location    "256";
    object      yPlus;
}
// * * * * * * * * * * * * * * * * * * * * * * * * * * * * * * * * * * * * * //

dimensions      [0 0 0 0 0 0 0];

internalField   uniform 0;

boundaryField
{
    FrontBack
    {
        type            empty;
    }
    Top
    {
        type            calculated;
        value           nonuniform List<scalar> 
15
(
142.2741811082479
133.5515663759866
138.0621591465844
144.3832113165196
159.7594513552921
131.3665613376966
140.1082707006134
135.339363575118
153.4378984866454
135.735106626877
136.0790631031452
136.7802718825265
125.2397086511612
132.9020622489411
123.951771725138
)
;
    }
    In
    {
        type            calculated;
        value           uniform 0;
    }
    Bottom
    {
        type            calculated;
        value           nonuniform List<scalar> 
15
(
155.5673187524505
158.1122324502451
141.1077635060788
142.0799222778106
141.1899891518708
148.459403097903
142.7169888577187
143.1679209319981
143.4224838831145
134.0667596809147
125.7393053437666
141.5621186381847
122.4122194652428
123.4895348733997
124.1457121613726
)
;
    }
    Out
    {
        type            calculated;
        value           uniform 0;
    }
    circle
    {
        type            calculated;
        value           nonuniform List<scalar> 
32
(
56.1477334866868
21.69513313845718
65.21680741161768
25.95327725148995
20.09544031390363
56.29365159599043
56.6654377938676
24.02301786992382
22.07983531304612
65.44253160343332
39.96655256272202
62.93030363026404
50.55093289574297
16.32404541065153
22.76174858717734
19.38628691520972
39.18086201728477
59.78052622772968
61.11208268545439
26.61149964649597
65.8214932270587
63.72307182429278
63.09058564866084
59.81834575220106
64.19774917741792
46.09870098330524
66.4752038022494
32.26339146324369
37.83121422847729
55.63203066356437
21.45669571371692
43.02547962926882
)
;
    }
}


// ************************************************************************* //
