/*--------------------------------*- C++ -*----------------------------------*\
| =========                 |                                                 |
| \\      /  F ield         | OpenFOAM: The Open Source CFD Toolbox           |
|  \\    /   O peration     | Version:  2412                                  |
|   \\  /    A nd           | Website:  www.openfoam.com                      |
|    \\/     M anipulation  |                                                 |
\*---------------------------------------------------------------------------*/
FoamFile
{
    version     2.0;
    format      ascii;
    arch        "LSB;label=32;scalar=64";
    class       volVectorField;
    location    "33.4";
    object      U;
}
// * * * * * * * * * * * * * * * * * * * * * * * * * * * * * * * * * * * * * //

dimensions      [0 1 -1 0 0 0 0];

internalField   nonuniform List<vector> 
808
(
(0.896775 -0.00981016 0)
(1.02117 -0.0314442 0)
(1.20877 0.168146 0)
(1.06709 0.0106927 -2.66719e-21)
(1.47881 -0.295209 0)
(0.955341 -0.0299579 0)
(1.15985 -0.0569167 -2.23255e-21)
(1.14949 -0.0230336 0)
(1.36235 -0.23314 2.18776e-20)
(1.23936 -0.093058 -5.30699e-21)
(1.07628 -0.123557 7.51155e-21)
(1.38762 -0.264982 0)
(1.02444 -0.037446 0)
(0.751175 -0.025248 0)
(0.950827 0.000849156 1.69177e-20)
(1.11385 -0.0428279 0)
(0.833729 -0.0251314 -4.81454e-21)
(1.0204 -0.0493443 -9.78772e-23)
(1.12517 0.108698 0)
(1.11837 0.00551922 0)
(1.13715 -0.139668 -1.04845e-20)
(0.931685 0.124573 1.11912e-19)
(1.07335 0.0108423 -1.45051e-20)
(1.17354 -0.0198629 0)
(0.949939 0.178065 0)
(1.29481 0.0234527 -2.50123e-20)
(1.28428 -0.176469 3.56578e-21)
(0.946813 -0.025257 -4.23285e-21)
(1.11028 -0.0356682 0)
(1.04046 0.0452926 -3.18432e-22)
(0.995787 -0.0348475 3.80397e-24)
(1.12424 -0.00537353 0)
(1.04952 0.0111799 0)
(1.07605 -0.0250115 3.04026e-21)
(1.31291 -0.0654901 7.72899e-21)
(0.740886 -0.118264 1.12818e-19)
(0.88276 -0.032897 -9.17201e-21)
(1.02443 0.0170816 1.2003e-21)
(1.20406 0.0385435 -4.29866e-21)
(1.08952 -0.000924503 0)
(1.27085 -0.0495499 -1.42069e-20)
(1.27999 -0.12959 0)
(1.00944 0.00362461 -9.1339e-21)
(1.10375 -0.0512905 9.54498e-21)
(1.13367 0.0440734 0)
(1.00992 0.0152677 -2.05263e-20)
(0.99958 0.024408 1.91083e-21)
(1.25629 -0.254004 -3.35341e-21)
(1.16953 0.0335721 -9.08068e-21)
(1.41917 -0.188523 -3.16071e-20)
(1.14354 -0.0633136 4.51816e-21)
(1.14843 -0.0729436 0)
(1.11835 -0.00321431 8.17769e-21)
(1.10098 -0.0207277 0)
(1.3081 0.219197 4.95344e-21)
(1.0594 0.0303811 -3.50655e-21)
(1.15343 -0.0337844 0)
(1.08322 0.0153481 6.68768e-21)
(1.24207 -0.0898887 5.69661e-21)
(1.12651 0.0361985 -8.3766e-22)
(-0.247211 0.10752 0)
(1.21695 -0.218211 -2.92993e-21)
(1.08351 0.00478121 0)
(1.45631 -0.0661738 -2.75941e-20)
(1.07596 -0.0557514 -1.18256e-20)
(1.04275 -0.0293326 -9.33487e-21)
(1.38692 -0.153159 3.12297e-20)
(0.659542 0.0143265 0)
(1.10062 -0.091901 0)
(1.44663 -0.36341 0)
(0.907123 0.0273261 -2.9111e-22)
(1.24779 -0.151769 -3.5699e-20)
(1.01846 0.0458908 0)
(1.04262 -0.0410538 -4.02933e-21)
(1.12693 -0.339289 -6.06581e-20)
(1.12596 -0.0759967 -1.04673e-20)
(1.13157 0.0323305 2.0986e-22)
(1.32099 0.482903 2.56677e-20)
(1.10612 -0.050813 0)
(1.01387 0.275787 -1.8322e-19)
(1.30256 0.033949 1.23426e-20)
(0.746151 0.0257084 0)
(0.845344 0.0320018 -1.03729e-20)
(0.968994 -0.113335 4.45666e-21)
(1.09435 -0.0649616 7.9247e-21)
(1.18144 0.0218533 1.1716e-21)
(1.28155 -0.24543 0)
(1.34775 0.265656 0)
(1.08227 0.0067945 -1.69927e-20)
(1.36355 0.0498919 2.60283e-20)
(1.08239 -0.0134104 1.46721e-20)
(1.32715 -0.122944 -1.26234e-21)
(0.965886 0.026198 1.71399e-20)
(1.00435 -0.0223911 0)
(1.1084 0.0197306 1.80307e-21)
(1.4031 -0.0578631 -8.88703e-20)
(0.769406 0.0209068 -4.01995e-21)
(1.29217 0.00374316 0)
(1.3415 -0.0813973 0)
(1.44751 -0.126863 -4.59027e-20)
(1.11176 -0.0640564 -3.82201e-21)
(1.11948 0.0165108 -9.19365e-23)
(0.94347 0.0238822 1.27691e-20)
(1.17255 0.0346711 -2.46733e-22)
(1.31924 0.0660277 -2.99138e-20)
(1.00328 0.00494244 1.42583e-20)
(1.39318 0.0377795 0)
(0.756603 -0.207914 0)
(1.08304 0.0278552 7.60289e-21)
(1.20581 -0.219766 -9.25596e-21)
(1.25219 0.0560201 8.11904e-21)
(1.04579 0.0460522 -1.23394e-19)
(1.14392 0.0382056 -2.98065e-21)
(1.19288 -0.0890191 4.45946e-21)
(0.796021 0.012597 0)
(0.916896 -0.0488548 7.76158e-20)
(1.13345 0.029079 -6.87428e-21)
(1.44238 -0.278926 -1.54608e-20)
(1.11511 -0.0333164 -9.15833e-21)
(0.930031 0.0181362 2.41168e-21)
(-0.124327 0.0819059 0)
(0.860112 -0.0150744 2.08759e-21)
(0.785455 0.0235945 0)
(1.05808 0.00445404 -1.03834e-22)
(1.01151 0.0276163 0)
(1.30651 0.30879 8.41307e-21)
(1.03497 -0.0554616 -3.47442e-20)
(1.23682 -0.0389071 3.28158e-21)
(1.15124 -0.052073 0)
(1.09296 -0.0229528 0)
(0.621331 -0.12151 0)
(1.11904 -0.0280288 -5.48687e-21)
(1.25274 -0.0425024 7.92227e-21)
(1.06577 0.11162 -3.34536e-20)
(0.856367 -0.00950625 0)
(1.09216 0.0264016 -1.86421e-21)
(1.20362 0.181323 -1.57507e-21)
(1.2787 0.0818162 2.27075e-21)
(0.987406 0.0276112 5.15505e-21)
(1.11913 0.0125122 7.70733e-23)
(-0.0169152 -0.0204808 0)
(1.0968 -0.0173965 -1.62983e-20)
(1.20112 0.217872 1.28518e-21)
(0.721931 0.0217159 -5.0297e-21)
(1.25325 0.148818 2.21528e-21)
(1.09091 -0.0172312 -2.70218e-21)
(1.0451 0.0161987 1.838e-20)
(0.991699 0.0288892 0)
(1.17214 0.0864901 -1.49241e-20)
(0.927232 -0.142555 0)
(0.943738 0.0283755 1.04887e-20)
(0.970142 0.279183 1.46711e-19)
(0.96681 0.0316753 0)
(0.818681 0.0949132 0)
(-0.149756 -0.104586 -7.13938e-20)
(1.3223 0.11029 -1.23236e-20)
(0.675745 -0.0177172 0)
(1.37821 0.0326566 0)
(1.23897 0.224446 0)
(1.31813 0.0781031 1.26615e-20)
(-0.0363804 -0.14941 0)
(-0.0668817 -0.000452491 3.57191e-20)
(0.995575 -0.0899672 7.38807e-20)
(0.997291 0.0362291 1.47076e-21)
(0.858475 0.00161878 0)
(1.0266 -0.0152162 1.4384e-20)
(0.881161 0.0247373 0)
(0.759303 -0.0829598 -7.98296e-20)
(1.02499 0.0332047 1.48519e-20)
(1.08797 -0.0347707 4.28311e-21)
(1.0899 0.0138197 7.90283e-21)
(1.01412 0.067887 -1.21862e-20)
(0.783768 -0.099599 2.69007e-21)
(1.13998 -0.350541 7.46637e-22)
(0.908103 -0.0278523 0)
(1.06659 0.00273516 -1.50133e-20)
(0.873258 0.00865221 -1.16543e-20)
(1.39812 -0.181132 1.91657e-21)
(0.704217 0.0327247 0)
(1.03696 -0.152515 0)
(1.10641 0.00366708 3.87686e-21)
(1.38637 0.190741 1.01896e-20)
(1.10539 0.0244427 6.09454e-21)
(1.03687 0.0231014 2.04341e-20)
(0.635983 -0.112282 -3.69449e-20)
(0.812724 0.00177569 2.0706e-20)
(1.13784 -0.0205294 6.72896e-21)
(1.41755 -0.0688083 -5.19768e-21)
(1.09141 -0.0327237 -7.52611e-21)
(1.34883 -0.0259749 4.45412e-21)
(-0.146461 -0.0922934 5.22215e-20)
(1.27735 0.00991813 0)
(0.623961 -0.0143806 0)
(1.06621 -0.020818 -7.29991e-21)
(1.09185 0.0175735 8.29699e-21)
(0.0524922 -0.0097462 0)
(0.875844 -0.021009 5.08587e-22)
(1.11608 0.010175 -4.92622e-21)
(0.995092 0.0453937 2.55732e-21)
(1.07609 0.0371912 -7.62468e-21)
(1.0019 0.0189264 2.71882e-21)
(1.05037 -0.00915068 4.34548e-21)
(1.04229 0.0218243 0)
(0.310139 -0.0496172 0)
(1.04472 -0.0626092 0)
(1.16774 0.0803638 -3.2024e-20)
(-0.0281414 -0.178778 4.43646e-20)
(1.13164 0.0367055 -1.98465e-23)
(1.07914 0.0983341 0)
(0.743296 0.0157331 -9.94698e-21)
(1.10397 -0.132626 2.90487e-21)
(-0.0141923 -0.0401749 -1.35075e-19)
(0.931502 -0.0500575 -6.46866e-20)
(0.626556 -0.0148568 0)
(0.84215 -0.127577 0)
(0.945376 0.0517442 9.53279e-21)
(1.00655 -0.125752 5.04909e-21)
(1.2801 0.385288 9.46658e-22)
(1.03144 -0.0247206 -4.09234e-22)
(1.11545 0.031092 -6.89311e-21)
(0.984577 -0.139042 0)
(1.36339 0.407316 -4.22086e-20)
(0.684575 -0.0226078 0)
(0.811965 -0.0226685 -5.08394e-21)
(1.03547 -0.0204717 7.9265e-23)
(0.597307 0.0148712 0)
(1.10091 -0.00587294 0)
(0.267296 -0.109072 -6.23264e-20)
(1.01066 0.188411 -1.38939e-20)
(0.721266 -0.0210384 2.1086e-21)
(0.990465 -0.00209707 0)
(0.559014 -0.0193802 0)
(0.766787 -0.0236531 -4.16102e-21)
(0.537278 -0.0163393 -4.34368e-22)
(1.2932 0.0429438 1.57386e-22)
(1.1454 0.00406937 -7.85166e-21)
(0.717616 0.0172276 -3.08657e-21)
(1.08234 -0.00555962 6.79991e-22)
(0.950673 0.0733147 3.85633e-22)
(0.566569 0.0134896 8.20873e-21)
(1.1508 0.0468691 1.41442e-21)
(1.10488 0.0960012 0)
(0.886016 0.0565541 0)
(0.510777 0.0181097 0)
(1.05063 -0.00979322 0)
(1.18957 0.0790635 -5.23091e-22)
(0.930829 0.120069 0)
(1.17213 0.0309861 0)
(1.07634 0.135801 0)
(1.18583 0.0950836 0)
(-0.0173292 -0.0443812 4.26354e-20)
(1.2844 0.118447 4.0075e-22)
(1.22323 0.116566 0)
(1.3617 0.116393 1.71819e-20)
(1.29036 0.0419152 -2.47779e-22)
(1.09607 0.0315687 4.72549e-21)
(1.25799 0.0106426 2.71396e-21)
(1.22322 0.143636 0)
(0.59769 -0.0143628 9.45438e-21)
(1.04989 0.0390243 1.18523e-20)
(1.1779 0.135649 0)
(1.10686 -0.073093 -3.55222e-21)
(1.25902 -0.0228148 2.39418e-21)
(0.339478 -0.0815064 -6.51201e-21)
(1.10613 0.0500669 6.10044e-21)
(1.17705 -0.159326 -2.16698e-21)
(0.890775 -0.156857 0)
(1.30385 -0.00346879 -8.11602e-21)
(1.03722 -0.125477 -5.22316e-21)
(0.871199 0.227312 1.83463e-21)
(0.720756 0.0810703 0)
(-0.0282686 -0.0214445 0)
(0.978315 0.112134 -1.78798e-20)
(1.1382 -0.06714 0)
(1.31596 -0.0127136 1.4081e-20)
(1.16981 -0.0506168 1.37323e-21)
(1.18267 -0.129547 2.08324e-21)
(1.1991 -0.0508129 -1.93342e-21)
(1.41162 -0.0479982 1.31312e-19)
(1.0208 -0.327527 6.12418e-20)
(1.20151 -0.0340795 -8.59081e-22)
(0.907362 0.154312 0)
(0.684919 -0.161254 0)
(0.907644 0.00642319 -3.13154e-20)
(1.15812 0.0660689 -1.27372e-20)
(1.23821 -0.114097 0)
(0.707803 -0.0140718 -1.00661e-20)
(0.363614 -0.343153 0)
(0.761465 0.0838073 -4.15147e-21)
(0.97635 0.130815 1.09576e-20)
(0.824361 0.0282554 -5.9159e-21)
(1.24478 0.0282858 0)
(1.14721 -0.133273 -1.60176e-21)
(1.00298 -0.0660207 8.44528e-21)
(0.68766 0.273534 -5.02424e-21)
(1.26411 -0.0851318 -2.73246e-21)
(0.820534 0.266431 0)
(1.08956 0.0680466 0)
(1.1447 0.0603097 -3.2259e-21)
(0.879915 0.154257 4.19363e-21)
(1.25116 -0.068284 6.67681e-21)
(1.19516 -0.0429664 -3.22472e-21)
(0.856195 -0.0463088 1.11538e-21)
(1.13946 -0.0685525 0)
(0.409971 -0.138649 1.28363e-20)
(1.30348 0.0732948 -1.55229e-20)
(0.994389 0.234062 -2.94477e-21)
(0.221975 -0.0981266 6.88557e-21)
(1.44683 -0.139613 2.38354e-20)
(0.765312 -0.0980065 3.65483e-20)
(1.27337 -0.0434963 3.23249e-21)
(1.18045 -0.0334838 -1.16366e-21)
(-0.0439465 -0.211296 -7.57504e-21)
(1.0009 -0.00646021 0)
(1.03523 -0.088847 -1.67206e-20)
(0.854396 -0.0302663 1.01365e-20)
(1.10107 -0.0467175 4.78606e-21)
(0.745876 0.225153 -2.24377e-21)
(0.516944 -0.0175649 7.04241e-22)
(1.4174 -0.391727 -1.5196e-20)
(1.12127 0.0726117 0)
(1.03278 0.0393103 -3.90048e-22)
(1.13167 0.0386864 -2.41401e-21)
(1.34598 -0.177012 0)
(0.782358 -0.146095 1.08627e-20)
(1.14681 0.0554366 3.21812e-21)
(0.645189 0.2402 1.78676e-20)
(1.17081 -0.0265169 -3.18019e-22)
(0.965006 -0.055594 -6.88085e-21)
(-0.0396387 -0.124562 0)
(0.131746 0.268436 -4.77749e-21)
(1.11736 0.0627751 0)
(0.821977 0.0395003 -2.17021e-20)
(0.633204 -0.0989845 0)
(1.12969 0.000200725 5.18769e-21)
(1.01661 0.025311 0)
(1.21471 -0.125242 0)
(1.42173 -0.131522 2.14455e-20)
(0.798247 -0.0893204 0)
(1.08839 -0.166505 2.76213e-20)
(1.08279 -0.00855428 -1.35489e-22)
(1.06377 0.0599278 2.9009e-21)
(1.27404 0.0333721 -7.32081e-21)
(1.22921 0.114408 -5.52742e-21)
(1.08895 0.131695 2.87852e-20)
(1.19218 0.076577 0)
(1.22152 -0.109067 0)
(1.17351 0.0573136 1.13894e-21)
(1.22594 0.000317214 0)
(1.42221 0.171999 -2.69887e-20)
(0.615756 0.0529072 2.35639e-21)
(1.02601 0.0165262 2.22293e-20)
(1.21795 0.0914675 -1.78934e-22)
(-0.0120176 -0.0300494 0)
(-0.0284852 -0.0853816 0)
(0.219906 -0.176194 -4.72585e-20)
(-0.0257026 -0.223712 0)
(0.55468 -0.0421857 -1.397e-20)
(1.19724 0.0421151 -3.07849e-21)
(1.16251 -0.114601 -3.94344e-21)
(1.33997 -0.119076 3.22535e-22)
(1.23304 -0.0106975 0)
(0.688662 -0.00985902 -1.73964e-21)
(1.22505 0.0658369 0)
(1.18406 0.0587752 1.46964e-22)
(0.493616 -0.11068 0)
(0.564036 -0.180382 -5.61179e-22)
(1.20336 0.0364642 0)
(1.10807 0.013051 0)
(0.984461 0.253364 8.00528e-20)
(0.499748 -0.254709 -3.61388e-22)
(0.88249 -0.0743596 -6.24835e-21)
(1.00981 0.0181791 -1.01898e-20)
(0.168968 -0.160164 0)
(1.1181 -0.0368102 -4.18257e-20)
(1.16296 0.0333915 2.658e-21)
(0.970946 0.0348502 1.07798e-21)
(0.718211 -0.239262 3.1024e-21)
(-0.0480156 -0.162798 -9.41253e-20)
(1.17482 0.003763 0)
(-0.0382937 0.0437627 0)
(1.15576 0.00579569 1.04763e-20)
(0.608013 -0.316091 -3.33925e-21)
(1.06836 0.0130733 -1.29767e-20)
(1.12514 -0.0474418 0)
(1.12666 -0.102966 2.88049e-21)
(1.20804 -0.00960877 1.42524e-20)
(0.518187 -0.0615322 -8.35902e-21)
(1.15372 -0.0393961 -2.78564e-21)
(1.17041 -0.108879 -1.6892e-22)
(0.32637 0.299351 -2.88174e-21)
(1.25576 -0.141669 1.82755e-21)
(1.10853 0.0407027 0)
(1.20605 0.00924738 0)
(1.23366 -0.0471377 2.7276e-21)
(1.12895 0.0470623 -2.40234e-21)
(0.530262 0.120439 -4.13829e-20)
(1.19504 -0.118621 -1.8835e-20)
(1.10708 0.0302711 1.29651e-20)
(0.522496 -0.00375971 1.27231e-20)
(0.693183 0.0960276 -1.49303e-19)
(-0.205118 0.40298 1.90308e-20)
(1.1722 0.172349 -6.66623e-21)
(1.2381 -0.499611 4.17045e-21)
(1.34023 0.11328 -1.71518e-20)
(1.24453 -0.0377517 -3.23228e-21)
(0.941125 -0.236121 9.62939e-20)
(0.0773154 0.315636 0)
(1.09644 0.000488134 -1.81589e-21)
(0.123008 0.447788 -9.53624e-21)
(1.15641 -0.014549 -9.06568e-21)
(1.15349 0.0738369 1.01196e-20)
(1.10221 0.0413612 0)
(0.81652 -0.267439 0)
(1.16656 -0.0407784 0)
(1.13464 0.0176518 9.84492e-21)
(1.2492 0.0116064 -1.99509e-20)
(1.17696 -0.0607794 1.01813e-21)
(0.464942 0.017952 0)
(0.615154 0.0139272 0)
(0.617801 -0.00578288 2.56885e-22)
(0.442951 -0.0175863 0)
(1.12001 -0.03504 0)
(1.02286 -0.0107773 2.73243e-20)
(0.605522 -0.13339 0)
(0.946982 0.0193231 0)
(1.08547 -0.0708271 0)
(1.1706 0.181834 -5.01809e-21)
(1.20663 0.0587853 4.76659e-21)
(0.970679 -0.0303705 8.23857e-21)
(1.29258 -0.407505 -1.00747e-19)
(0.744077 -0.0108796 2.63015e-20)
(1.38801 0.070337 8.89668e-22)
(1.2977 -0.166385 0)
(-0.215861 0.197209 0)
(-0.211614 -0.184289 0)
(1.17708 -0.0231945 -1.15145e-22)
(1.32836 -0.294707 -1.7091e-20)
(1.23221 0.111406 0)
(1.10956 0.0548593 -8.42744e-21)
(0.253976 0.0312034 0)
(1.52466 -0.180664 6.88569e-20)
(0.412478 0.51822 1.15352e-19)
(0.253653 -0.0598485 0)
(1.09576 -0.283091 1.08149e-19)
(0.68527 0.293057 0)
(0.00522197 0.237376 7.81431e-21)
(1.21756 0.116169 0)
(0.0582451 -0.0969961 -5.42867e-21)
(0.983875 -0.0495243 0)
(1.31711 -0.0257703 -7.04645e-21)
(-0.137843 -0.194155 -7.63173e-21)
(1.13037 -0.0194824 2.32237e-21)
(1.20353 -0.16154 -8.80482e-21)
(0.575012 -0.522222 -9.28393e-20)
(1.25127 0.0152476 -1.8987e-22)
(1.20039 -0.126833 5.50546e-21)
(1.17903 0.235343 -1.91053e-20)
(1.21045 -0.0198361 -1.51033e-20)
(1.1642 -0.00486229 7.72156e-22)
(-0.290148 -0.0708609 -3.11931e-20)
(0.0199006 -0.0312856 -7.84951e-21)
(1.34204 -0.0256539 1.24791e-21)
(1.05974 -0.0448118 0)
(0.463569 -0.30378 -1.08842e-21)
(1.40699 -0.45078 7.36496e-20)
(0.925136 -0.0996384 -5.24425e-20)
(1.4127 0.111504 7.28274e-20)
(1.07936 -0.0461169 4.00617e-21)
(1.17012 -0.228866 2.30603e-21)
(1.06289 -0.00780948 0)
(1.17421 0.00316206 0)
(1.35343 -0.0806127 7.99827e-21)
(1.08775 -0.0194715 -4.42741e-21)
(1.28113 -0.173145 1.57299e-20)
(1.11823 0.0213589 -7.75473e-21)
(1.46418 0.023323 -5.34115e-20)
(0.501447 0.0152185 0)
(1.3313 -0.182584 -1.25302e-20)
(1.28714 0.150836 0)
(1.12798 0.0223114 -7.195e-21)
(1.13727 0.0258932 0)
(1.04061 -0.00788291 1.45431e-20)
(1.21939 0.0420421 9.45814e-21)
(1.19319 -0.17815 0)
(0.0459219 -0.0316538 1.44595e-19)
(0.885196 -0.214727 -7.55278e-20)
(1.43194 0.0786932 -3.88608e-20)
(-0.105825 -0.176037 4.12447e-20)
(1.17597 0.0323053 1.98581e-22)
(0.67044 -0.223915 1.01781e-21)
(-0.114686 -0.135353 -4.30183e-20)
(-0.0252333 -0.0276809 -2.73789e-20)
(1.01913 -0.0288379 0)
(-0.0253477 -0.0303256 0)
(1.21347 0.246546 0)
(0.111929 -0.108768 0)
(1.12019 -0.0275965 0)
(0.122073 0.0273285 0)
(1.09387 0.0425207 0)
(1.09796 0.239778 0)
(1.22253 0.0289155 -8.82796e-21)
(0.574161 -0.285934 -2.01929e-20)
(-0.249626 -0.108933 0)
(1.1378 -0.109873 5.45829e-20)
(1.34589 0.0793265 -2.83049e-21)
(1.44614 0.223081 0)
(-0.0390345 -0.0395576 0)
(1.15144 0.0192979 -1.6097e-21)
(1.16216 0.00750382 3.22348e-22)
(1.16905 0.382026 0)
(0.23098 -0.116657 5.15015e-20)
(1.11669 0.0596206 1.37803e-21)
(0.226524 -0.0527284 -4.94533e-20)
(-0.0596186 0.0502144 -3.55615e-20)
(-0.0258432 0.0486351 9.11489e-20)
(0.562594 0.374624 -2.39215e-22)
(1.09067 -0.217645 -9.57919e-22)
(1.11019 0.0304615 -1.3793e-20)
(1.0237 -0.00826994 0)
(1.07075 -0.0679881 -2.31826e-20)
(1.17457 0.0921805 -5.12302e-21)
(-0.00890502 -0.0463665 9.75478e-20)
(0.981301 -0.0711276 -6.09488e-20)
(0.564531 -0.246775 3.12913e-21)
(1.12585 -0.068186 -2.91759e-21)
(0.0635146 -0.0335564 3.04716e-20)
(0.234481 -0.0405279 -4.40175e-20)
(0.370149 -0.08605 -4.66805e-20)
(1.11365 -0.0235042 1.87464e-20)
(-0.0554247 -0.0313671 0)
(0.858747 -0.211761 7.89479e-21)
(1.25656 -0.282179 -1.67881e-20)
(1.24844 -0.221618 1.61876e-20)
(1.34564 0.094931 0)
(1.5225 -0.235076 6.47034e-20)
(1.15534 0.00370822 -4.44467e-21)
(-0.0120081 -0.0482396 -3.28124e-20)
(0.365461 0.0117763 0)
(0.93488 0.0337324 -3.72426e-21)
(1.11357 0.0310505 1.22017e-21)
(0.402655 0.103425 7.85782e-21)
(1.15562 0.0151836 1.05344e-21)
(1.11385 0.0491934 0)
(1.13813 -0.179188 -1.35037e-20)
(-0.0577605 -0.230389 -6.48722e-20)
(1.32228 -0.00249787 2.51939e-20)
(1.10368 0.171498 -9.05347e-21)
(1.1378 0.0267342 8.86896e-21)
(-0.036617 -0.0539484 1.41956e-20)
(-0.028924 0.0335514 -6.76302e-20)
(0.941823 0.0218713 0)
(0.945137 0.328762 0)
(1.14649 0.0897993 -1.69161e-20)
(1.05104 0.0663265 1.29123e-20)
(1.16004 0.0520594 0)
(0.660052 -0.0982291 6.23411e-20)
(0.787415 0.0635486 -1.27332e-20)
(1.09754 0.0991961 0)
(1.12217 0.04359 0)
(1.30228 0.26355 0)
(1.11931 0.0638761 0)
(1.32149 0.11559 8.14995e-22)
(-0.0421053 0.0479901 3.8842e-20)
(1.11392 -0.0159305 8.72821e-21)
(1.42585 -0.214106 -7.53741e-20)
(1.28524 0.146284 -1.95818e-21)
(-0.188344 -0.117925 0)
(1.21093 -0.249752 0)
(0.632368 -0.0161601 -8.7382e-22)
(0.573198 0.00375513 -6.455e-20)
(0.0882091 0.0325773 5.19707e-20)
(0.955596 0.0295399 1.03171e-21)
(0.736733 -0.273273 0)
(0.667323 -0.0946267 0)
(1.21399 0.162355 0)
(0.542419 0.514618 2.2375e-20)
(-0.0195747 0.00585586 -3.07452e-20)
(1.11935 0.0435035 7.1989e-21)
(-0.0191508 -0.0948184 6.16041e-20)
(1.15687 0.00546005 3.73743e-21)
(1.17134 0.305746 3.64394e-20)
(1.11533 -0.0918167 9.40543e-21)
(0.0186686 -0.0620334 4.13643e-20)
(1.03573 -0.147044 1.35671e-21)
(1.21764 -0.234969 0)
(0.570422 0.274191 0)
(0.97734 -0.207247 -5.20233e-21)
(-0.175587 -0.180284 0)
(0.607083 0.0275769 2.8491e-21)
(0.603191 -0.418005 -2.86479e-21)
(0.258078 0.048461 -1.18818e-19)
(1.12264 -0.230656 3.65455e-20)
(1.03914 0.358879 1.00649e-20)
(0.978125 0.0182719 0)
(1.12878 -0.0152325 7.89144e-22)
(0.647705 0.0196762 0)
(0.980378 -0.0230418 -3.17615e-22)
(0.419621 -0.0251206 0)
(0.710807 0.126302 0)
(1.00472 -0.0178258 -6.03506e-21)
(1.43453 0.144331 -1.3323e-20)
(1.16105 -0.0103271 2.50005e-21)
(0.522318 -0.492864 0)
(1.13428 -0.156087 3.36937e-21)
(0.802865 0.372081 7.05177e-20)
(-0.0274988 0.0217873 1.28803e-21)
(1.21573 0.0133397 4.65987e-21)
(1.20393 0.0396153 -6.77453e-21)
(1.19385 0.0856295 1.17359e-21)
(0.794723 0.00890351 -3.94989e-21)
(0.0796036 0.0161698 4.12278e-20)
(-0.017718 -0.0775053 -5.4815e-20)
(-0.192865 -0.185312 0)
(-0.274079 -0.0818949 0)
(1.18602 -0.619271 3.02689e-20)
(1.15345 -0.0213018 -7.53465e-22)
(0.88517 -0.465411 -3.98774e-20)
(0.874283 -0.173912 -1.76808e-20)
(1.37658 0.178058 3.62333e-20)
(0.60954 0.423024 0)
(0.24606 0.413313 -1.1578e-19)
(0.594669 0.474563 0)
(-0.0183493 -0.1136 0)
(1.12655 -0.484185 0)
(-0.0521804 -0.0563771 -6.46958e-22)
(1.19073 0.00327533 0)
(0.862036 0.26153 -4.75286e-21)
(0.595159 0.689659 2.05523e-20)
(1.18319 0.143671 -9.17892e-21)
(-0.0285162 -0.141635 -9.79325e-20)
(0.443957 0.170933 2.98838e-20)
(0.469276 0.146304 -1.41806e-20)
(1.19294 0.083028 0)
(1.36617 0.342182 3.86236e-20)
(1.22453 0.558099 8.91771e-21)
(0.195584 -0.0240258 -2.49573e-20)
(1.05009 0.0829792 3.54501e-20)
(0.931263 -0.0154843 1.07542e-21)
(0.925379 0.041219 -5.06054e-22)
(-0.0188865 -0.0351126 0)
(0.647823 -0.656859 -3.10747e-20)
(0.613282 0.196071 0)
(0.124214 -0.212646 0)
(-0.0504057 0.0582356 0)
(0.0257801 -0.20886 -3.70573e-20)
(1.22281 0.0156401 -5.37304e-21)
(-0.0171726 0.0358403 0)
(-0.0385001 0.026845 0)
(1.43177 0.0852761 -6.86494e-20)
(-0.0371878 -0.0909344 4.42724e-20)
(0.114563 0.231819 -1.01689e-19)
(0.427939 0.00858904 0)
(0.169073 -0.280939 8.20851e-20)
(1.08 -0.244973 0)
(0.999867 -0.287122 0)
(0.0205518 -0.152472 9.2415e-20)
(1.1407 0.0390129 -1.74988e-22)
(1.12675 0.334293 2.75914e-20)
(0.287403 0.0248728 4.96399e-20)
(0.403635 -0.518743 -3.90863e-20)
(1.2935 0.0462201 0)
(1.25007 0.170262 2.39319e-20)
(1.24005 0.19614 -2.93886e-20)
(0.102398 0.0850097 -2.35577e-20)
(-0.071645 -0.11233 0)
(1.07253 -0.0519136 -2.00454e-20)
(1.10289 -0.224568 -1.7951e-20)
(0.58316 -0.408392 0)
(1.09769 -0.154216 -2.74892e-20)
(-0.235636 -0.0920896 0)
(0.64895 0.0133943 0)
(1.46141 0.105085 4.51416e-20)
(1.01678 0.031238 6.04798e-22)
(1.07702 0.737501 -1.57336e-20)
(0.225396 -0.380395 1.34119e-19)
(1.13897 0.0102952 7.2105e-22)
(1.19669 0.0701318 -8.56434e-22)
(-0.0542435 0.0169369 3.22259e-20)
(0.790313 0.732582 2.81751e-20)
(1.35475 -0.379335 -1.28151e-20)
(0.33148 0.00485383 1.17562e-19)
(1.07807 0.048408 0)
(0.0682218 -0.178201 -5.64038e-21)
(0.897291 -0.636315 2.58389e-21)
(0.907793 0.642907 -2.03113e-20)
(0.529814 -0.0425743 -5.66873e-20)
(1.13946 0.00184447 -7.26596e-21)
(1.07769 -0.0841832 7.77857e-21)
(1.1241 0.0397602 5.13798e-21)
(1.10433 0.117885 4.50071e-21)
(1.13118 -0.126446 0)
(0.94334 0.0928261 1.60968e-20)
(0.900886 0.460777 0)
(1.12835 0.0637897 -6.15662e-21)
(1.16131 0.106021 1.05658e-21)
(0.772755 0.265368 0)
(0.545718 0.109745 1.13312e-19)
(0.894211 0.708385 -1.04878e-21)
(1.07781 0.285021 -2.11899e-20)
(1.04265 -0.0101957 1.34658e-20)
(0.41458 0.485796 0)
(1.29993 -0.479862 0)
(0.413917 -0.0887151 2.10888e-21)
(1.27385 0.498349 0)
(-0.00932002 0.0460561 -4.76159e-20)
(1.28632 -0.419034 -8.21049e-22)
(1.16517 0.500791 0)
(0.452515 0.211533 1.70254e-19)
(1.14239 0.312417 -1.26597e-19)
(0.817443 -0.644811 -2.72977e-20)
(1.1249 0.0444952 2.25767e-22)
(0.944114 0.147282 8.72342e-20)
(1.08865 0.163959 5.11532e-20)
(1.07473 0.700377 1.77077e-22)
(0.905848 -0.441323 6.79618e-20)
(1.40655 0.162093 3.9141e-20)
(1.12525 0.00858792 -1.23322e-21)
(-0.00962686 -0.0620213 7.98084e-20)
(1.08307 -0.705704 2.09652e-20)
(0.872309 -0.72291 5.70861e-20)
(0.251529 -0.33867 0)
(0.972077 -0.147697 7.54099e-20)
(0.361773 0.301518 -4.4192e-19)
(-0.0961933 -0.227815 3.05099e-20)
(0.28963 0.0177473 2.53499e-20)
(0.661459 -0.063545 -6.74984e-20)
(1.07969 0.522505 0)
(0.993821 0.219488 8.01917e-20)
(1.08333 0.0308494 3.85527e-21)
(0.908815 0.436692 -9.09195e-20)
(0.781604 -0.726437 -9.06253e-21)
(0.923863 0.0215919 -4.96332e-20)
(0.976533 0.482949 0)
(1.06005 0.0967125 2.9807e-21)
(1.38331 -0.520966 1.16465e-20)
(1.23094 -0.345503 8.65651e-21)
(-0.294254 -0.146947 3.21489e-20)
(0.194325 -0.00312821 -1.82798e-20)
(0.978018 -0.118744 -5.92731e-20)
(0.352071 0.521111 0)
(0.912546 0.0145332 3.95467e-20)
(1.16442 0.633309 8.24469e-20)
(-0.00963936 -0.233248 1.39659e-19)
(-0.0796323 -0.0334494 -2.65886e-20)
(-0.0737277 -0.190892 3.98902e-20)
(1.0943 0.0213767 -5.23451e-21)
(1.12785 -0.464272 0)
(1.06961 -0.739576 -4.71101e-20)
(0.697779 0.344775 0)
(0.0860395 -0.240714 -1.00648e-19)
(1.16219 0.032961 4.42137e-21)
(-0.0327699 -0.146563 -2.72134e-20)
(1.048 0.0535918 -1.18874e-20)
(0.13171 0.0243555 6.17851e-20)
(0.883306 0.1188 0)
(1.41222 0.0137027 5.2211e-20)
(0.0605849 0.00861167 -2.87822e-20)
(-0.371564 -0.180391 -3.81456e-20)
(-0.210136 -0.185646 0)
(0.0646928 -0.0170858 0)
(1.36554 0.0287332 -1.42258e-20)
(0.364003 -0.0153244 1.38623e-19)
(1.26868 -0.731746 -1.6171e-20)
(0.714534 -0.0185102 5.92481e-21)
(1.07202 0.246433 -2.9897e-20)
(0.368338 -0.561228 1.42157e-19)
(1.54347 0.25396 -3.65315e-20)
(0.0609014 -0.107834 3.05673e-20)
(0.207734 0.299568 1.97126e-19)
(0.0741753 -0.0615551 -1.15399e-19)
(0.94494 -0.496599 -4.46432e-20)
(1.46002 0.37388 3.71027e-20)
(0.567207 -0.678529 5.03585e-20)
(1.10705 -0.0774878 -7.5992e-21)
(0.30267 -0.136412 5.4967e-20)
(1.20709 0.282314 -5.20475e-20)
(0.661597 0.635371 -4.09177e-20)
(1.33761 -0.628519 0)
(1.42988 0.510502 3.54665e-20)
(1.05561 -0.532331 -1.24021e-20)
(1.39478 0.599056 -1.04012e-19)
(1.15519 0.0449289 0)
(-0.0506117 0.0534318 0)
(1.25322 0.723297 0)
(1.0784 0.0567723 -1.03195e-20)
(0.741788 -0.3048 -2.10308e-19)
(0.47539 -0.088263 0)
(-0.0594948 0.0312972 -2.73219e-20)
(1.01872 -0.246346 1.04322e-19)
(-0.340576 0.0328139 0)
(0.321353 0.0196755 1.23495e-20)
(1.11606 0.04162 0)
(1.42945 0.255375 0)
(1.15891 0.0424351 -2.41745e-22)
(0.360788 -0.297526 0)
(1.01543 0.148314 3.76928e-20)
(1.32245 0.273451 0)
(-0.113467 -0.0400539 -1.30008e-21)
(0.813676 -0.399829 0)
(1.51341 0.32002 -5.50317e-20)
(1.24193 0.357424 -8.26219e-22)
(0.839188 0.639156 -9.8514e-21)
(1.01159 0.156424 -8.86553e-20)
(0.967264 -0.206321 -5.06225e-20)
(1.45547 0.276488 3.22763e-20)
(1.01862 0.0362118 0)
(0.56379 -0.0753492 0)
)
;

boundaryField
{
    FrontBack
    {
        type            empty;
    }
    Top
    {
        type            noSlip;
    }
    In
    {
        type            fixedValue;
        value           uniform (1 0 0);
    }
    Bottom
    {
        type            noSlip;
    }
    Out
    {
        type            zeroGradient;
    }
    circle
    {
        type            noSlip;
    }
}


// ************************************************************************* //
