/*--------------------------------*- C++ -*----------------------------------*\
| =========                 |                                                 |
| \\      /  F ield         | OpenFOAM: The Open Source CFD Toolbox           |
|  \\    /   O peration     | Version:  2412                                  |
|   \\  /    A nd           | Website:  www.openfoam.com                      |
|    \\/     M anipulation  |                                                 |
\*---------------------------------------------------------------------------*/
FoamFile
{
    version     2.0;
    format      ascii;
    arch        "LSB;label=32;scalar=64";
    class       volScalarField;
    location    "1362";
    object      p;
}
// * * * * * * * * * * * * * * * * * * * * * * * * * * * * * * * * * * * * * //

dimensions      [0 2 -2 0 0 0 0];

internalField   nonuniform List<scalar> 
808
(
-0.03598184313939525
0.04506012592141243
-0.01178551994929177
0.03495085619415255
-0.3041351207896282
-0.05465704016602783
-0.01455252258912461
-0.02392658323174591
-0.2003657319339726
-0.0857705282143397
-0.009572111450593656
-0.2580569350767957
-0.03058269052122575
-0.0129526458799382
-0.1210418542434908
-0.01402802264914321
-0.1394460330534266
-0.01356973964880828
-0.01238547968843163
-0.0570294202771109
-0.005888388831550955
0.1183914170375629
-0.06075819005197048
-0.0735126319919953
0.1766212625312936
-0.09939161367793639
-0.1554705761138687
-0.02030024727297721
-0.01735877787016827
-0.02597215981631985
-0.0201643984453808
-0.05995185414525741
-0.02292407311142191
-0.01682285626081402
-0.1012828560396082
0.3439939924818644
-0.03854164911883603
-0.01674978516948441
-0.02327882903352683
-0.02656251700162067
-0.09204278244901548
-0.1292187827217266
-0.05071751909919835
-0.02066525960397212
-0.05463879414766114
-0.03978719516236502
-0.01232808712015796
-0.187840809922148
-0.02759045555815631
-0.2077176731713914
-0.01613705162098603
-0.06907547135271133
-0.05942189916802074
-0.01463080455082597
-0.1901236150938621
-0.0289843712133125
-0.01058136672212694
-0.01408070917341206
-0.1025503787869739
-0.04070743764718148
-0.09749679500608988
-0.1288041867098736
-0.01339355126707759
-0.1306601952637466
-0.016982795745734
-0.05053046469134749
-0.1676767095144664
-0.03565465924912653
-0.01484269931674797
-0.446582951697015
-0.02698078373941456
-0.3083558898162249
-0.02201021416898968
-0.02040582460749228
-0.06755979366357991
-0.01734272765062114
-0.04356487863170331
-0.3587877976691247
-0.03546482811289944
0.04222355220550329
-0.0903285714340904
-0.01727597842910398
0.05682303875284452
0.04336988128530275
-0.01654992488719426
-0.05333585978494274
-0.5495145510137345
-0.2225556858474655
-0.05348443928638705
-0.1114071564097926
-0.0581117954080502
-0.1351708654790318
0.04084594409713498
-0.02370929148294664
-0.06046584386040935
-0.120278771723892
-0.0384907668607203
-0.05194167973797138
-0.1183859520203526
-0.1406897780355615
-0.05210471183208693
-0.04845277352346544
-0.05570086751916271
-0.04581876584779308
-0.05794145486854164
-0.07314809937545833
-0.04132024711041194
-0.01120503184382755
-0.04110882318378134
-0.1269204081388304
-0.05128624434921879
0.08346442345476478
-0.04315750318088385
-0.007982624364886974
-0.02781811861442062
0.1801065705191891
-0.03990777710707118
-0.2739350343441879
-0.02032066115758397
-0.05494478953891974
-0.02746149107193038
-0.04778464781024164
0.01256138494327817
-0.05018529490939545
-0.03391154423779168
-0.2138908472978216
-0.04301377336770922
-0.004987685724327211
-0.07787167502279485
-0.06746149414961944
-0.1484245776312402
-0.02096330919065504
-0.07665309343790913
-0.04099420166504142
-0.02275022900520172
-0.01664375352026825
-0.006372520022553578
-0.007402321567478831
-0.0531764643062745
-0.05103075229424615
-0.2084994165246625
-0.05822038502777234
-0.008558787755915582
-0.02277495996273661
-0.1446367644793809
-0.002250803531848699
-0.07788770657096467
-0.0238499232871784
-0.001273395048775867
-0.01034099702721998
-0.03391060501358662
0.095701226153997
-0.03986492262104305
0.2528141082287569
-0.2639702030185975
-0.1301675355830217
-0.03714949909239408
-0.09126250988228982
-0.009127264724635906
-0.1116195158744006
-0.1857738118935278
-0.2135737843933497
-0.1837364140780499
0.05533223605594741
-0.0617543707239169
-0.02029887709748803
-0.06799710922738561
-0.1732441036376166
-0.0239060071022612
-0.01855926989243699
-0.05341044127537255
-0.01791233494019515
-0.005876633554320205
-0.1107293757564811
-0.02278913535293686
-0.04676505831183973
-0.06869062422607783
-0.1641591989190175
-0.03372564261521869
-0.3965634198082014
-0.0178027993694499
-0.2221870631849825
-0.04552408730250358
0.03045111645931612
-0.1049766713660975
-0.01407114326952718
-0.04153639304481564
-0.105978475874558
-0.01771458140263469
-0.09722079927896546
-0.2047726578351521
-0.07309020330092811
-0.02372847798093304
-0.04998793144199532
-0.04390072081756627
-0.2037867409347302
-0.02186251519880858
-0.01896426263478065
-0.01137252743908095
-0.05448869394387965
-0.05215025375907076
-0.02243859896595218
-0.02082217520049337
-0.2477645827709531
0.1280958359969903
-0.2001993117816757
-0.2084414098835793
-0.01177423134807517
-0.01161405660956455
-0.06771444514504321
-0.009460479796322611
-0.5148341324646226
-0.123425563185864
-0.01896703894278314
-0.001429027552111034
-0.02428000655748409
-0.2875496306149224
-0.2734263383684653
-0.007131309882618727
-0.01773713867618181
-0.002179767177624379
-0.3438757348775043
-0.02827786617789988
-0.02916897597197799
-0.01250985231612688
-0.01975867616302084
0.05111812576384248
-0.109581110112185
-0.01376264616794925
-0.02073480978692403
-0.04283542572527392
-0.01820220197925481
-0.01614791869871387
-0.02336202778170765
-0.0667971441336912
-0.01186071526195455
-0.01906230205035269
-0.008545682127191515
-0.000885022341769316
-0.02954583655606706
-0.001562419083259808
-0.002294687610397792
-0.006099798105382915
-0.02561191543859909
-0.008019251494528614
0.001588560163606742
-0.004145521255043064
0.001137538489031671
0.002500648974623601
-0.008503204775930154
-0.1417963185626369
-0.003031243576551579
-0.00117946813931787
-0.0483297160707949
-0.02148562837341676
-0.02489627103500627
-0.01436131136111926
-0.006085338145835194
-0.02088519354080147
-0.03721314456506942
-0.0140473793116346
-0.01277794289972748
-0.01196362048835443
0.006568420632892095
-0.0102187642004472
-0.01211450426462968
-0.01125640184298519
-0.01072579847317433
-0.010033482125057
-0.01135696916126508
-0.01412526297438356
-0.310925770078163
0.06118813428516252
-0.01534357125328245
-0.01674646145944943
-0.01303280471332248
-0.01241413333703746
-0.008716384677146728
-0.09821614653335596
0.008910615988843754
-0.01381173301080761
-0.01476706518796624
-0.01082062077620278
-0.05341674776880953
-0.009708489248965193
-0.01389433613931287
-0.009188452542206736
-0.0008321527749459049
-0.009704537718277619
-0.01086847391778782
-0.02488457242979453
-0.01628439395853552
-0.01192365899955818
-0.01331072834217203
-0.008086485004228382
-0.01296803417372484
-0.01153150440418286
-0.05709373710685723
-0.01291414277355162
-0.01143756877216944
-0.008669304143030054
-0.01488331624332504
-0.01402151559042213
-0.01574064735581113
-1.381188401013453
-0.0981274894369266
-0.01301793094734486
0.02309725514603761
-0.1660205610141957
-0.09298113249294725
-0.0113361762952526
-0.01406924551345981
-0.2564852487060001
-0.03098200708109109
-0.02063709441062728
-0.01088190527157783
-0.01967746756013928
-0.0110695932185113
-0.03068713008401265
-0.416427701313127
-0.01224996663263865
-0.0140988865447621
-0.004877292081733337
-0.01052682044421636
-0.009549561799016955
-0.01433093356717395
-0.009340233714607607
-0.02612672124855715
-0.01126745679500844
-0.1607420300062058
0.01747321401221054
-0.00775276480046546
0.003065474039672287
0.0131416560832101
-0.0472081020658567
0.03007820376104819
-0.01283718563400369
-0.1361047217618671
0.2819454585651729
-0.007301971245115021
-0.0131455953606615
-0.008417789371079953
-0.03321918046361528
-0.1220850046689769
-0.01306285472509323
-0.01236490575092073
-0.01699206334648382
-0.01359156591515994
-0.04094185006901312
-0.2134157239782889
-0.0115373961955169
-0.04099235981036247
-0.03993971765144873
-0.1648825601886506
-0.1654371488012112
-0.1429596880583906
-0.2579419123161842
-0.007157995825864106
-0.02129020526130741
-0.01441145761520506
-0.0127521173987703
-0.03280527276575567
-0.02438274310294125
-0.01446288640383479
-0.01504212167842076
-1.084114977223855
-0.005357845569469171
-0.01368574690958633
-0.01845747087703191
-0.01905416152696944
0.002477297259862397
-0.01405270494032612
-0.02801304485457194
-0.1656443898167652
-0.01358597052970619
-0.02211335394766325
-0.01386765281882085
0.001553696227700253
-0.1793932735260566
-0.0133448424343072
-0.142126043663259
-0.01602983662855057
0.009159064329144267
-0.01456988427021704
-0.02305961386664524
-0.01570862871813356
0.004917524037016291
-0.2792453974710551
-0.02546049362503128
-0.01604278453720513
-0.005618960822280173
-0.00935287703022201
-0.03061108341314838
-0.01436573658241265
-0.02040263771457646
-0.02135393100399032
0.0116900074482149
-0.1013904890111681
-0.02214519055381603
0.009200889438877752
-0.05040132548049724
0.1567900838030616
-0.1024801310342209
-0.3224843817976713
-0.03043887687374536
-0.02539565148654001
0.1488016841719887
0.0860936550299241
-0.003265792286547406
0.04991896599148259
-0.01566724626771804
-0.01468135084800707
0.002226354125337881
0.01205901468995606
-0.06729134032255224
-0.005537441068232149
-0.05774531008476243
-0.02222954750367554
-0.01571188530964194
-0.03652632611523239
-0.03291801210109711
-0.006641686798484279
-0.01498004724558477
-0.03949782671377088
0.03720524013403204
-0.0388785595974677
-0.01353026452750117
-0.1158601843593746
-0.03196816383151923
-0.0384073017529785
-0.6792137772601817
0.01836884609313088
-0.01098408411770538
-0.005298559314130596
0.1612763805356294
-0.08393777432057152
-0.03492432806191732
-0.2478913950356332
-0.01656737096987529
-0.01661050914526857
0.06071157214750476
-0.1856816566918781
-0.2260622278832564
-0.1988382023639704
-0.6883407709551141
0.005899669918137807
-0.01770350147811171
-0.01649255189927496
-0.07858209887417882
0.1176042984600385
-0.02119677148019873
-0.2475298732222504
-0.03487455322531317
-0.006436077809882375
0.2766823642436366
-0.01128762176044541
-0.09420020258313594
-0.1483108071921185
-0.004781527625580427
-0.04032079715198587
-0.0470123994310894
-0.206566228833094
-0.008892575279422927
-0.04244978110087889
-0.002540054141550157
-0.5526066665745386
-0.2010553623659754
-0.1751033072166426
-0.02269599429216707
-0.006838487777561032
-0.05967779032974796
-0.05844353844340255
-0.01497829142654906
-0.06726624837836739
0.002911745200469749
-0.01838396752679882
-0.09526195765699574
-0.265927230837625
-0.007703427360234977
-0.02627834317915096
-0.02210816172525678
-0.07393462650671238
-0.09144248370325071
-0.08750345572735542
-0.01158361721661086
-0.9294824812632841
0.1604335059745957
-0.07970166414597077
-0.2582639874081959
-0.04269818973230843
-0.01042838107010663
-0.2508183219534136
-0.1825265302592649
-0.03354222952210902
-0.1272208458244997
-0.01871597437864659
0.5625503097233711
-0.02376495980772052
-0.2297286002362389
-0.02624914224776134
-0.005302568004496806
-0.0118652923804006
-1.256422896735283
-0.1839960973714715
-0.2348689746059189
0.005421369442650506
-0.0368071696193769
-0.2531076820359315
-0.06516976869699907
-0.05080301690251625
-0.1412345884706197
-0.1930700319879245
-0.06748911235890521
-1.232746750149823
-0.1433113154808889
-0.5175793641638944
0.07846890050799341
-0.007046911777980116
-0.02202812760431102
-0.04227843922457286
-0.04102122831284596
-0.02882462243063675
-0.1320212471224312
0.0795875763180582
-0.002930762491817467
-0.009715439309438072
-0.5822252847062038
-0.8664933434015198
-0.1872175296949901
-0.008122557107727612
-0.1374598899310593
0.00114861087373886
-0.0007442323414281599
-0.001895540009344041
-0.05987311840925461
-0.2399794325016009
-0.01342954636841797
-0.124309673760302
-0.1547583902545434
-0.01323642349538312
-0.03602524790901702
0.02143464175836845
-0.05709248156872702
-0.0693638854239821
-0.5047139352896421
-0.2441010921985024
-0.08119381901887626
-0.07205535796498948
-0.01994517918556863
-0.1228666092532369
-0.1528542797656279
-0.07498341492552428
0.0243569229221883
-0.08397383790016157
-0.04770762171701155
-0.01491046243903395
-0.1076798606074661
-0.2711642158070892
-0.05635858119240347
-0.01853964730418829
0.0007788972860336147
-0.01002284243705466
-0.01115975666009533
-0.216740516562418
-0.01506529637315846
-0.2233886613501768
-0.01040487803046067
-0.06547159300974303
-0.003662356745908502
-0.02319043067665596
-0.3759729746209677
-0.9057007123398385
-0.01133302403229278
-1.051776596081526
-0.6156758060957982
-0.01070865324917031
-0.653631084843785
-0.1749989109089931
-0.005714670320851705
-0.1311246929129507
-0.01705093034044947
-0.1210486434473813
-0.0677860112716942
-0.075777635570121
-0.00513793076204455
-0.002658961132345292
-1.33369978184927
-0.0110932981087491
-0.1860112194841459
0.000512551965986703
-1.014997828457979
-1.229429454961556
-0.08214442476662499
0.02031730326637392
0.1642893318943892
-0.004728101815414266
-0.02303332150209846
-0.004226876855507787
-0.2538555861762192
0.3662593426393262
-0.04069804442716304
-0.2097417498145076
-0.01491735237285771
-0.65840924377233
-0.07556259217755786
0.1915989394617631
-0.2828668138062248
-0.04965347266998969
-0.068508833881534
-0.01588727578742951
-0.02174286010926409
-0.5726748944194223
-0.1439022892607345
-0.08558512433947077
-0.1283993557256729
-0.5581116551323233
-0.04401108195650161
-0.9109373435826861
-0.0002231123880330236
-0.2366839421993074
-1.045431000825033
0.1695489720383769
0.2925762819661702
-0.1829691754543858
-0.194133811080707
-0.2060704785645526
-0.06842351221612994
0.02293716768243308
0.05010745323131144
0.004094207753876048
-0.1663779841801873
0.02541507288710234
-1.351954395055346
-0.08477924440918805
-0.4714198001227036
-0.3285859589904023
-0.2027030618738977
-0.1751895719188153
-0.01691467509697339
-0.01545782596879284
-0.1066111284237189
0.1703078582746055
0.3858729381634682
-0.2191811884955954
-0.1404095713051648
-0.2405825918148158
-0.06226370815743934
-0.1501939459915477
-0.1619245228610675
-0.1251396991137007
-0.1223714912842025
0.467065798484821
-0.2676100462474706
0.4303473902399663
-0.6016458704110267
0.07014370511286117
-0.2053492063602377
-0.06578354677211119
-0.07344672490487923
-0.8749585426845341
-0.2225050850135689
-0.1891645933125108
-0.345088148981044
-0.4557346875036521
0.5707430071047488
-0.2050615014103474
-0.0002172211278143781
-0.07130219932217367
0.3430722238280293
-0.03799224306544709
-0.130040723954764
-0.1782270342470285
-0.06358705306994601
-0.01652475081134932
-0.1933617294636936
0.1924991653459461
-0.01279302790697011
-0.09575182434739941
-0.1673931226372671
-0.3129056233652834
-0.3146492927734103
-0.06434397472724503
-0.01028370934006256
-0.07693844663639139
-0.657320685314478
-0.666976655653872
-0.3396711741655932
-0.05740945174323757
-0.05238537912261799
-0.02549864207501994
-0.0671100258438679
-0.05836283361045257
-0.3570521005783845
-0.9539378737528861
-0.0101550754318703
-0.0824493250717025
-1.133965176874313
-1.028110520806665
-0.1035449678008957
-0.03796271731304517
-0.07039093085308086
0.3911801923519719
-0.3457159410699093
-0.05072761353366765
-0.5959895410171541
-0.1224803075682348
-0.2542900863231563
-0.2088759051046754
0.4744479192441223
-0.625068776746506
0.07243875340862568
-0.02962519474409758
-0.5551854095281108
-0.0509309950215617
-0.3593146661447449
0.1061913538675943
-0.1892255803111112
-0.05948724425784836
-0.138091289582837
-0.3639729947645464
-0.0892881114256525
0.5139310459881722
0.08499336135978974
0.471374809807323
-0.1078574713505269
-0.1984832939443155
-0.5241277556813227
-0.1295368838670569
0.02737150745871069
-0.05312216714432841
0.103478744207567
-0.3092536438615302
0.2361901584465654
0.009282715207208981
-0.003236481575401501
-0.5154846270967665
-0.1866294439697322
-0.0840411992562661
0.5814483044049018
0.1381632398899972
0.3466535929204953
0.225880912086409
-0.5588777478177411
-0.207424804269739
-0.2204595637891588
-0.2381343147767032
-0.05990640268811289
-0.6970240567818629
-0.195254891349265
0.3066322646135162
-0.2052732737839852
-0.0111378778420227
-0.1733274441118259
-0.009005706501344633
-0.1564954283430902
-0.4325266051988093
-0.0768240371539976
-0.1966080462564749
-0.07134166782591983
-0.08921209105257588
-0.1459159074529849
-0.07353292636130072
-0.4567291043661474
-0.4169723569764431
-0.02688893660122637
-0.07373709363100873
0.3263365274111222
-0.245482150770127
-0.1856956250036797
0.5259224146001026
-0.2086338856735204
0.01714978819552944
-0.4471933110017973
0.04555083447345082
-0.06260487883962368
-0.1507781255902152
-0.5799300218680582
0.1625383215766968
-0.5830663506529709
-0.5316095761765141
-0.1067942662726597
-0.5047711673778266
-0.0374805009610139
-0.1399428274529441
-0.407864698064959
-0.0163373608793858
0.2861078656037945
0.4894345730473472
-0.1574798041029588
-0.008699373785690965
-0.0717065640631237
0.5254046682211471
-0.03353777655916004
-0.4365261926516075
-0.03282825288854389
0.4602298838600266
-0.01429116146565027
-0.5406447389181523
-0.2450471253688616
0.1753642040259923
-0.3083160471184568
-0.1773640941948724
0.05239892406413169
0.03411051214548658
0.05382413616714225
-0.2971464734521272
-0.1570078160148589
0.4127588923058297
)
;

boundaryField
{
    FrontBack
    {
        type            empty;
    }
    Top
    {
        type            zeroGradient;
    }
    In
    {
        type            zeroGradient;
    }
    Bottom
    {
        type            zeroGradient;
    }
    Out
    {
        type            fixedValue;
        value           uniform 0;
    }
    circle
    {
        type            zeroGradient;
    }
}


// ************************************************************************* //
