/*--------------------------------*- C++ -*----------------------------------*\
| =========                 |                                                 |
| \\      /  F ield         | OpenFOAM: The Open Source CFD Toolbox           |
|  \\    /   O peration     | Version:  2412                                  |
|   \\  /    A nd           | Website:  www.openfoam.com                      |
|    \\/     M anipulation  |                                                 |
\*---------------------------------------------------------------------------*/
FoamFile
{
    version     2.0;
    format      ascii;
    arch        "LSB;label=32;scalar=64";
    class       surfaceScalarField;
    location    "44.2";
    object      phi;
}
// * * * * * * * * * * * * * * * * * * * * * * * * * * * * * * * * * * * * * //

dimensions      [0 3 -1 0 0 0 0];

oriented        oriented;

internalField   nonuniform List<scalar> 
1171
(
-0.944853
0.944853
0.761341
-1.07154
0.310196
-0.150928
-0.644452
0.79538
0.0551473
-0.0780517
-0.282101
0.360152
-0.761341
0.0837436
0.677597
0.906946
-0.20987
-0.697076
0.84395
-1.08579
0.241838
-0.356993
-0.0523435
0.409336
-0.0210262
0.610791
-0.589765
-0.564431
0.84891
-0.284479
-0.435044
1.02858
-0.184632
0.216431
0.0971249
-0.313556
0.982694
0.0458883
0.231472
-0.0150414
1.02006
-0.03737
0.669861
-0.820789
-0.772597
0.591935
0.180662
0.187937
-0.752368
0.549966
-0.910413
0.360446
-1.0782
0.668362
0.409836
-0.643787
0.622761
0.0225589
-0.241845
0.219286
0.0477104
-0.621945
0.574234
0.460989
-0.513333
-0.844705
0.880642
-0.0359372
0.977913
0.0421508
0.895727
-1.0615
0.165771
0.98777
-0.00985692
-0.697742
-0.0748554
1.31202
-0.856537
-0.455482
0.143065
-0.104483
-0.393318
0.4978
-0.273984
0.19317
0.0808135
-0.598194
-0.473342
0.994498
-0.0987712
-0.0289287
0.890898
-0.86197
0.535724
0.776296
0.506309
0.00260162
0.458388
-0.788777
-0.108744
0.897522
0.539129
0.253502
-0.792631
0.0953683
0.54285
-0.638219
-0.506546
-0.571652
-0.377192
-0.684307
0.0162586
0.257668
-0.273926
-0.952511
-0.0294926
0.982004
0.373763
0.0355733
0.802354
0.104592
-0.591959
-0.051828
0.0360824
-0.82486
0.0196019
0.967164
-0.986766
-0.396678
0.0249439
0.371735
-0.702071
-0.25044
-0.706005
0.725607
0.801973
0.0469368
-0.587163
0.978964
-0.803601
-0.175363
-0.296612
0.228184
0.068428
-0.457641
-0.055692
-0.240448
1.04242
0.0281538
0.410105
-0.438259
-0.524583
1.06371
0.709573
-0.818317
0.404786
-0.056037
-0.348749
0.801365
-0.801365
-0.809062
0.0486796
-0.33078
-0.696695
0.667766
-0.0451435
-0.15473
0.199874
0.892242
-0.00134414
1.04445
-0.790947
0.227637
-0.32774
0.100103
0.91823
-0.115875
-0.659544
-0.0451439
0.704688
0.14502
-0.227317
0.0822967
0.783502
-0.993372
-0.430899
0.306971
0.123928
0.672045
-0.624335
0.874824
-0.401302
-0.473523
0.497632
-0.695597
0.0342835
0.661314
0.125598
0.634756
0.058397
-0.693153
0.149203
-0.100523
-0.503658
0.10698
0.0322624
-0.887539
0.855277
-0.52482
-0.748563
0.050821
0.499932
-0.0415442
0.278828
-0.835678
0.556849
0.423374
0.576626
0.596452
-0.560369
-0.432939
0.0346292
0.39831
0.561625
0.23974
-0.662728
0.758096
0.106614
0.867245
0.00334923
-0.662893
-0.758285
0.790547
0.589612
0.079005
0.343574
-0.422579
-0.156497
0.559484
-0.0166337
0.921482
-0.785208
-0.136274
0.653644
0.32532
-0.441382
0.647231
-0.568226
0.40834
0.141626
-0.0484273
-0.804138
-0.195589
0.999727
-0.137961
-0.663404
-0.615332
0.359723
0.255609
0.649371
-0.646022
0.315009
1.01512
0.0293314
-0.758285
-0.103997
-0.192614
0.709573
0.774614
-0.774614
0.836718
-0.818871
-0.0178468
-0.453534
0.876907
-0.187769
-0.31589
0.764603
-0.676283
-0.0883196
-0.907507
0.103369
0.12346
-0.715419
0.818317
-0.974814
-0.266737
0.242481
0.0242558
0.115739
-1.01722
0.90148
0.541723
-0.0354148
-0.291203
0.593794
-0.302591
-0.667352
0.78309
-0.15423
0.590129
-0.95367
0.363541
1.09649
-0.771066
-0.325422
0.726187
-0.070958
0.0223502
-0.0185968
-0.00375335
-0.800391
-0.864088
0.219636
-0.696695
0.566668
-0.541724
0.307919
0.61626
-0.924179
0.776132
0.168721
0.492221
0.507779
-0.0922296
-0.736918
0.829147
1.06625
-0.144764
-0.726187
0.790547
0.185827
-0.427672
-0.0513335
0.0457625
0.00557097
0.66066
-0.42716
-0.2335
0.677597
-0.0639844
-0.273959
0.5519
0.10876
-0.0303858
-0.00131491
0.0317007
0.0102552
0.012095
0.188862
-0.244899
-0.928845
-0.00210148
-0.138297
-0.0778752
0.120034
0.823264
0.740949
-0.164322
0.76301
-0.455091
-0.166885
0.394522
0.63802
0.0395768
0.236492
-1.05536
-0.974814
0.332219
0.667766
-0.176465
0.021735
-0.821163
1.08121
-0.260049
0.471006
-0.0992712
0.784319
0.304403
0.244331
-0.012859
-0.68032
0.68032
0.231486
0.666036
-0.0524108
0.462516
0.445389
-0.0285053
-0.0228282
0.509829
0.0318939
-0.667352
0.563899
0.200704
-0.00601426
-0.0125826
-0.63802
0.184308
0.896904
0.0387376
-0.749201
0.710463
0.755624
-0.820107
0.0644835
-0.776132
-0.0447824
0.0618733
-0.0170909
0.0895874
-0.125658
-0.100455
0.226113
-0.00482015
-0.0255656
0.798073
-0.759335
0.878409
-0.0830286
-0.245887
-0.52872
0.774607
-0.00102856
0.00102856
0.27711
0.570757
0.347621
-0.918378
-0.194243
-0.547209
0.741452
-0.0182299
0.218103
0.376152
-0.231132
0.910522
-0.339765
0.782372
0.967389
-0.619768
0.188384
0.78309
0.598458
0.222356
0.658286
-0.663404
0.31968
-0.116512
0.136405
-0.0198924
0.946239
-0.0730856
-0.873153
-0.561088
0.551231
0.546466
-0.561088
-0.598458
0.551231
0.00931745
0.736027
0.142382
-0.561625
0.469208
0.092417
0.573158
0.616362
-1.18952
0.648146
0.262376
0.51931
0.641139
-1.16045
0.724883
0.242506
0.469208
-0.540504
-0.43834
-0.67267
-0.744749
-0.33741
-0.00989235
0.00989235
0.658148
0.438406
-1.18315
0.639555
-0.295981
-1.11222
0.341155
-0.683144
0.432704
-0.101304
-0.943077
1.04438
0.449746
-0.156039
1.10228
-0.951892
-1.1164
0.181253
0.935146
0.253957
-0.402683
0.148726
0.685189
-0.78396
0.875179
-0.970958
0.0957786
0.0503967
-0.835605
-0.225049
0.941638
-0.716589
-0.975212
1.02561
-0.774579
0.432724
0.341855
-0.531012
-0.243187
0.774199
0.00461538
-0.00564394
0.420455
0.0767127
-0.920413
0.8437
-0.832901
0.740671
1.15783
0.0298909
-1.18772
0.041434
-0.0622892
0.4606
-0.366845
0.0391056
0.938546
-1.03985
-0.614041
-0.564905
-0.2707
-0.177434
-0.864785
-0.106173
0.411038
0.351972
-0.219418
0.473375
-0.865065
0.621877
0.473523
-1.09912
-0.945322
-0.209295
-0.0383185
0.719607
-0.681289
0.179596
-0.652359
0.576845
0.178779
0.145458
0.956821
1.20686
0.878262
-0.984435
0.0505061
-0.0505061
-0.0724349
-0.0813136
-0.321369
0.331644
0.000574272
0.180347
1.13642
0.0355441
-0.0403643
0.655611
0.344389
0.796624
-0.598194
-0.75137
-0.754374
-0.515294
0.515294
-0.21315
-0.11763
0.624345
-0.907549
0.283203
-0.466558
-0.547739
0.305389
-0.989695
-0.891827
0.987605
-0.866467
0.595767
0.649545
0.211555
-0.8611
-0.412519
-0.199358
0.866014
-0.666656
-0.24459
0.0287867
-0.000264599
-0.0285221
-0.263905
0.182592
0.929734
0.462057
-0.103373
-0.358684
0.610783
0.752277
-0.520791
0.0185125
-0.292496
-0.128734
0.763735
-0.635001
-0.340151
-0.0748047
0.139508
-1.09101
0.217853
-0.695994
0.14499
0.70134
-0.84633
-0.90331
0.207316
0.708988
-0.783793
0.225424
-0.351081
-0.692853
0.280334
0.370361
0.672337
-0.0251051
-0.0128431
0.0128431
-0.0112073
-0.0223682
-0.094144
-0.0119681
0.0475122
-0.340881
0.345034
0.683464
-0.805932
0.122468
-0.658249
0.803239
0.802403
-0.0934141
-0.704103
-0.199207
-1.13923
0.0216918
0.0288142
-0.469615
-0.929151
-0.862706
0.407224
-0.175316
0.297388
-0.122073
-0.37822
-0.0913947
0.446478
0.710758
-0.0715688
-0.0063064
0.810672
0.539448
0.104425
-0.643873
-0.232656
-0.145564
0.00459232
0.0241944
0.759696
-0.955286
0.0032364
-0.0032364
-0.699208
0.807593
-0.108385
-0.452074
-0.177517
-0.683176
0.173404
0.655743
-0.0630123
-0.882534
-0.510673
0.329556
0.181116
0.735945
-0.613477
0.357824
0.232566
-0.59039
-0.169455
-0.677392
-0.168938
-0.15976
-0.337268
0.463704
-0.519396
0.147693
0.766039
-0.913732
0.497632
-0.335353
0.160037
-0.10225
-0.235019
0.586134
-0.0874144
-0.498719
-0.295099
0.315473
-0.0203738
0.491587
0.147969
0.125011
-0.319355
0.176299
0.143056
0.122771
-0.226768
-0.434842
-0.0205209
0.082789
-0.0622682
1.00023
-0.24921
-0.202864
0.547906
0.399784
-0.503157
0.421445
-0.421445
-0.210486
-0.412256
-0.22082
-0.412256
-0.7805
-0.852168
0.175884
-0.570579
0.775464
0.0444096
0.123684
0.548652
0.111379
0.127801
0.00739857
-0.135199
-0.241023
0.604228
-0.929303
0.400583
-0.103828
0.0665171
0.0373106
-0.76007
-0.177377
-0.534436
0.63886
-0.516066
-0.138644
-0.0963745
-0.348174
-0.0784294
0.0784294
0.0615537
0.000319581
0.149493
0.0706204
-0.615271
0.0808353
0.032577
0.474256
0.525744
0.865682
0.00309662
0.0475928
-0.0506894
-0.304073
-0.578462
-0.447064
0.12082
-0.124831
0.00401108
-0.177075
-0.403304
-0.207432
0.863176
-0.586255
-0.173815
0.0895395
-0.0345196
0.283138
-0.546486
-0.205752
-0.220511
-0.0243877
-0.462929
0.41606
0.0468694
-0.0164228
0.294494
-0.866146
-0.512491
0.622153
-0.886073
0.716618
0.400226
-0.0383116
0.0617097
-0.023398
0.189762
-0.632106
-0.00500356
0.637109
-0.886643
0.64796
-0.720395
0.0583027
0.00872051
-0.00872051
-0.300842
0.382464
0.0781351
-0.0326753
0.035772
0.564507
0.517795
-0.654069
0.0130871
-0.00707477
-0.00576833
0.00591225
-0.00591225
-0.419341
0.56731
0.0186527
-0.0186527
-0.777415
-0.0102726
0.0148879
-0.459527
0.540363
0.507723
-0.616108
0.0740745
-0.0740745
0.0287094
-0.0515375
-0.00240779
-1.0621
0.736676
-0.541414
-0.00564394
0.601495
0.00639513
-0.60789
-0.706375
0.12012
-0.311554
-0.0107159
0.32227
-0.037166
-0.0344028
-0.603861
-0.0282451
0.0288142
0.00497085
-0.00173446
-0.0019546
0.0019546
-0.178403
0.116135
-0.481028
0.137103
0.659521
-0.0952203
0.0125785
-0.0125785
0.508539
-0.0731114
0.00974908
0.0200937
0.000268311
0.641041
-0.714152
-0.811915
0.609051
-0.15895
0.350582
0.81773
-0.0112073
-0.0906621
0.0780795
-0.656784
0.529325
-0.273808
-0.10488
-0.027016
-0.027262
0.0356247
0.477283
-0.0897804
-0.408939
0.715274
0.00398009
-0.00122751
0.00122751
-0.257218
-0.107783
-0.568497
0.612907
-0.138767
0.504014
-0.145774
0.815636
0.811545
0.00497085
-0.638118
0.537586
0.0205553
0.0330151
-0.0535704
0.592628
0.103038
-0.012229
0.0691031
-0.0568741
0.0102744
-0.0102744
-0.758226
0.0235685
-0.0489691
0.0690628
-0.084762
0.084762
-0.00707477
0.00137125
0.798012
0.0988916
-0.312166
-0.0911383
-0.514715
0.110095
-0.0665828
0.0665828
-0.02198
0.0860228
-0.0860228
0.0275962
-0.0275962
-0.359607
-0.0817748
0.234018
0.0729531
0.0477626
-0.761324
-0.0732849
0.157668
0.0281589
-0.237506
0.0855553
-0.0855553
-0.462909
-0.0564862
0.224632
-0.00534553
0.00301626
-0.663673
0.654356
0.0157629
-0.037743
0.0294048
-0.0809423
-0.0119483
-0.164372
0.176321
-0.14541
-0.205671
-0.0804602
0.0804602
0.0524441
-0.0524441
-0.024895
-0.093523
0.118418
-0.0495609
-0.194996
0.015435
-0.0212033
-0.0599575
0.176092
-0.0259853
0.480405
0.0118755
0.0198252
-0.0515041
0.0515041
-0.725399
0.313438
-0.125055
-0.205821
-0.0214965
-0.0209094
0.0239256
0.188607
0.0375059
-0.00193462
0.00220293
0.0898141
0.0310061
0.0587998
0.0988685
-0.0471752
0.0408688
-0.0044639
0.000337029
0.00120685
-0.00480016
0.00359331
-0.00584726
0.0158556
0.0257349
-0.0257349
0.0481937
-0.0465839
0.0465839
-0.190547
0.0201622
0.0292195
-0.0775363
0.0173218
0.0816012
-0.0816012
0.235476
-0.235983
0.0905732
-0.0653998
-0.170583
-0.0123828
0.0123828
0.407581
0.253733
-0.526493
-0.0809821
-0.0438492
0.544684
-0.0201561
-0.0531562
-0.45493
0.11868
-0.14877
0.167149
-0.0183789
-0.050595
0.050595
0.93641
-0.585891
0.00353733
-0.00938459
-0.0063326
-0.295007
-0.000467495
0.00430176
-0.0515499
-0.625671
0.571201
-0.640788
0.0138775
0.0227522
0.0150787
0.0239079
-0.155102
-0.328397
0.250861
-0.0516042
0.0267092
0.174411
0.141062
0.290442
0.261207
-0.246128
-0.000527608
-0.120596
-0.216537
0.0649562
-0.00615644
0.16006
-0.136152
-0.0696443
0.159458
-0.408221
0.122274
-0.104952
0.0613047
-0.470243
0.17145
0.1856
-0.255244
0.013921
-0.185214
0.184746
0.00395418
0.155504
-0.0279312
0.0452332
0.463306
0.013352
-0.00660527
0.00855351
0.0418008
-0.234915
-0.204469
0.588614
0.161962
0.0626696
0.0672263
-0.06469
0.0521682
-0.105739
-0.0310356
0.163831
-0.149954
0.0290195
-0.017666
-0.111631
-0.0297096
0.0698882
0.254258
-0.0547041
-0.0287742
-0.304942
-0.0142406
0.224706
0.139646
0.173792
0.0551074
0.0924326
0.0610652
0.503442
-0.000870589
0.112188
0.037192
0.0717804
-0.108972
-0.272759
-0.194754
0.0241707
-0.215985
0.280772
)
;

boundaryField
{
    FrontBack
    {
        type            empty;
    }
    Top
    {
        type            calculated;
        value           uniform 0;
    }
    In
    {
        type            calculated;
        value           uniform -1;
    }
    Bottom
    {
        type            calculated;
        value           uniform 0;
    }
    Out
    {
        type            calculated;
        value           nonuniform List<scalar> 10(1.16746 1.11366 1.11101 0.987259 1.2575 0.987254 1.09655 1.0143 0.631931 0.633075);
    }
    circle
    {
        type            calculated;
        value           uniform 0;
    }
}


// ************************************************************************* //
