/*--------------------------------*- C++ -*----------------------------------*\
| =========                 |                                                 |
| \\      /  F ield         | OpenFOAM: The Open Source CFD Toolbox           |
|  \\    /   O peration     | Version:  2412                                  |
|   \\  /    A nd           | Website:  www.openfoam.com                      |
|    \\/     M anipulation  |                                                 |
\*---------------------------------------------------------------------------*/
FoamFile
{
    version     2.0;
    format      ascii;
    arch        "LSB;label=32;scalar=64";
    class       surfaceScalarField;
    location    "11.3";
    object      phi;
}
// * * * * * * * * * * * * * * * * * * * * * * * * * * * * * * * * * * * * * //

dimensions      [0 3 -1 0 0 0 0];

oriented        oriented;

internalField   nonuniform List<scalar> 
1171
(
-0.946821
0.946821
0.770328
-1.07473
0.304401
-0.243859
-0.782362
1.02622
0.0531789
-0.0656023
-0.276056
0.341659
-0.770328
0.0951761
0.675152
0.92334
-0.206901
-0.716439
0.829407
-1.01368
0.184268
-0.355843
-0.0365565
0.392399
-0.00252042
0.604881
-0.60236
-0.525819
0.948829
-0.423009
-0.421445
0.976019
-0.146612
0.256847
0.0913766
-0.348223
0.97651
-0.000490773
0.30399
-0.0471439
0.983613
-0.00710292
0.677296
-0.921155
-0.786753
0.60832
0.178433
0.301195
-0.827014
0.559959
-0.914871
0.354912
-1.07811
0.667855
0.410255
-0.643963
0.641443
0.0336624
-0.253332
0.21967
0.0219377
-0.643423
0.621485
0.467186
-0.503743
-0.850301
0.87575
-0.0254488
0.994963
-0.0113499
0.863066
-1.04602
0.182957
0.996047
-0.00108399
-0.700178
-0.0865752
1.23259
-0.798986
-0.433609
0.145746
-0.0748818
-0.414266
0.489148
-0.273754
0.183813
0.0899416
-0.600863
-0.473866
0.966031
-0.102965
-0.0240492
0.860363
-0.836314
0.528704
0.70389
0.529999
0.0237079
0.443478
-0.786262
-0.10763
0.893892
0.572818
0.243209
-0.816026
0.0184751
0.631192
-0.649667
-0.508501
-0.569609
-0.36434
-0.681683
0.0277514
0.245062
-0.272813
-0.934548
-0.041166
0.975714
0.374328
0.0180714
0.83609
0.0872498
-0.603988
-0.0399754
0.0388948
-0.825157
0.0783556
0.901917
-0.980273
-0.406434
0.0265503
0.379883
-0.710169
-0.224379
-0.676104
0.75446
0.627852
0.320977
-0.578652
0.992417
-0.820013
-0.172404
-0.0820582
-0.048546
0.130604
-0.458739
-0.0450034
-0.306528
0.93438
-0.0127145
0.438186
-0.425472
-0.491386
1.0642
0.710895
-0.818525
0.390332
-0.0745051
-0.315827
0.831885
-0.831885
-0.914396
0.0398714
-0.315928
-0.678364
0.654315
-0.0327449
-0.143472
0.176217
0.876029
-0.0156661
1.04019
-0.796979
0.223175
-0.319489
0.0963135
0.972941
-0.136851
-0.677877
-0.0466327
0.72451
0.149779
-0.232262
0.0824826
0.788622
-0.995523
-0.443183
0.311206
0.131977
0.667687
-0.645749
0.846222
-0.384887
-0.461335
0.481882
-0.694009
0.0362448
0.657764
0.156914
0.665922
0.0486891
-0.714611
0.134748
-0.0948761
-0.513384
0.10695
0.0316341
-0.90454
0.872906
-0.552046
-0.758554
0.0583758
0.500323
-0.0568449
0.275324
-0.833199
0.557875
0.423622
0.576378
0.600828
-0.561933
-0.377617
-0.0249799
0.402597
0.613166
0.218719
-0.675321
0.693796
0.0860567
0.883798
0.00392841
-0.681806
-0.764387
0.796021
0.61929
0.109134
0.35805
-0.467184
-0.157303
0.541318
0.0898739
0.941163
-0.871619
-0.0695442
0.650341
0.342075
-0.430988
0.706189
-0.597055
0.409521
0.150438
-0.0598276
-0.633802
-0.221053
0.854855
-0.167046
-0.664839
-0.612821
0.363718
0.249103
0.659733
-0.655804
0.308914
1.01483
0.0253617
-0.764387
-0.15107
0.0690115
0.710895
0.779357
-0.779357
0.846164
-0.832299
-0.013865
-0.454564
0.878186
-0.193764
-0.31962
0.762877
-0.668807
-0.09407
-0.86652
0.232718
0.108364
-0.712352
0.818525
-0.975827
-0.183792
0.177835
0.00595657
0.126237
-0.974343
0.848106
0.548688
-0.0186891
-0.289487
0.595569
-0.306082
-0.650482
0.776718
-0.16028
0.721422
-0.82713
0.105708
1.01268
-0.587027
-0.42565
0.71953
-0.0734853
-0.0137375
0.013338
0.000399495
-0.798529
-0.873723
0.0913608
-0.678364
0.575776
-0.549226
0.106683
0.67547
-0.782153
0.778252
0.168569
0.492382
0.507618
-0.0846948
-0.669934
0.754629
0.957619
-0.0164558
-0.71953
0.796021
0.17981
-0.433142
-0.031388
0.00765047
0.0237375
0.676485
-0.437113
-0.239372
0.675152
-0.028182
-0.152301
0.55834
0.118145
-0.013006
0.00121398
0.0117921
0.004062
-0.0177995
0.131757
-0.206262
-0.939637
0.0404833
-0.143616
-0.0520347
0.1394
0.757676
0.743179
-0.166801
0.548263
-0.44158
-0.163618
0.386793
0.62512
0.0500318
0.228259
-1.06056
-0.975827
0.317483
0.654315
-0.160548
0.0170759
-0.798159
0.968932
-0.170773
0.484663
-0.10478
0.79942
0.305991
0.289501
0.0144898
-0.681104
0.681104
0.229656
0.664236
-0.0161923
0.454378
0.472956
0.0203344
-0.0517224
0.548366
0.000321931
-0.650482
0.57027
0.192607
0.0042821
0.00905594
-0.62512
0.165569
0.803363
-0.00148698
-0.7408
0.742287
0.761121
-0.823377
0.0622558
-0.778252
-0.0339011
0.0467668
-0.0128657
0.0851292
-0.122159
-0.106099
0.228258
-0.00641855
-0.00658748
0.727512
-0.728999
0.905233
0.120988
-0.326983
-0.534304
0.861287
-0.00115062
0.00115062
0.152855
0.478399
0.642764
-1.12116
-0.192979
-0.543996
0.736975
-0.0190169
0.195234
0.38392
-0.234141
1.02919
-0.550789
0.763607
1.06419
-0.421424
0.190157
0.776718
0.630107
0.208908
0.666842
-0.664839
0.318896
-0.030215
-0.00371157
0.0339266
0.887167
0.0429781
-0.930145
-0.623004
0.62192
0.545436
-0.623004
-0.630107
0.62192
-0.0076341
0.945282
-0.0400491
-0.613166
0.542738
0.0704278
0.535001
0.575824
-1.11082
0.493636
0.535552
0.573402
0.491556
-1.06496
0.530411
0.533777
0.542738
-0.513951
-0.477986
-0.600766
-0.53364
-0.15166
-0.00505156
0.00505156
0.53469
0.533769
-1.06741
0.725946
-0.367896
-0.961932
0.374906
-0.682246
0.457867
-0.0110718
-0.880334
0.891406
0.453692
-0.0462452
0.933412
-1.00309
-0.917373
0.065069
0.852305
0.398171
-0.190844
-0.207327
0.695653
-0.798618
0.941872
-0.886314
-0.0555588
-0.0420943
-0.829524
-0.158493
0.826678
-0.668184
-0.950346
0.908251
-0.659891
0.664047
-0.0041554
-0.845913
0.0578208
0.788092
0.00354296
-0.00469358
0.425763
0.0612149
-0.895742
0.834527
-0.782493
0.697798
0.975059
0.0939992
-1.06906
0.0576858
-0.0011519
0.403749
-0.359634
0.0401456
0.893763
-0.904835
-0.724925
-0.877028
0.0475034
-0.128616
-0.900134
0.01382
0.554184
-0.00592092
0.0661229
0.332048
-0.752663
0.810484
0.461335
-0.926579
-0.856346
0.0889355
-0.0304823
0.750561
-0.720079
-0.00872768
-0.755408
0.57996
0.181161
0.00210247
0.931309
0.97332
0.907092
-0.893272
0.0460516
-0.0460516
-0.0874099
-0.256488
0.0656444
0.339415
-0.0219317
0.261319
0.922582
0.00601299
-0.0124315
0.65881
0.34119
0.798373
-0.600863
-0.746948
-0.677101
-0.596471
0.596471
-0.207235
-0.108693
0.643593
-0.921016
0.277423
-0.501652
-0.544551
0.324792
-1.00647
-0.936323
0.880764
-0.796743
0.844246
0.654387
0.195459
-0.849846
-0.681256
-0.181835
0.841504
-0.659668
0.0137414
0.00241749
0.00309839
-0.00551588
-0.0571424
-0.199346
0.968385
0.704027
-0.371834
-0.332193
0.4967
0.745631
-0.515975
0.0117331
-0.285487
0.0924696
0.762426
-0.854895
-0.352088
-0.0886963
0.138663
-1.01032
0.0801757
-0.725557
0.0912828
0.734735
-0.826018
-0.846571
0.121015
0.693107
-0.781804
0.236293
-0.358452
-0.608174
-0.0730818
0.369685
0.738752
-0.0325632
0.000774396
-0.000774396
-0.00383758
0.00136896
-0.031584
-0.0155093
0.0215223
-0.614095
0.332033
0.757481
-0.821985
0.0645034
-0.688207
0.77949
0.78178
-0.0886731
-0.685223
-0.161349
-1.10242
0.0207283
0.0253233
-0.521626
-0.843716
-0.835084
0.401475
-0.193219
0.217036
-0.0238164
-0.497223
-0.0244027
0.536195
0.711989
-0.0408658
-0.0111689
1.0834
0.503774
0.21012
-0.713894
-0.446627
-0.050596
-0.00568358
0.00810107
0.686159
-0.907212
0.00620019
-0.00620019
-0.719143
0.71471
0.00443317
-0.380504
-0.139431
-0.691122
0.134397
0.620231
-0.052918
-0.872958
-0.23838
0.191527
0.0468528
0.771914
-0.70741
0.34017
0.262925
-0.603095
-0.157557
-0.700953
-0.125065
-0.21537
-0.103982
0.470288
-0.515291
0.192501
0.712985
-0.905486
0.481882
-0.155971
-0.0372479
0.111018
-0.215
0.596316
-0.0946412
-0.501675
-0.2845
0.304971
-0.0204704
0.583656
0.14229
0.0808279
-0.310876
0.168696
0.14218
-0.178294
0.0272243
-0.310498
0.067276
0.0102896
-0.0775656
0.843783
-0.324295
-0.0562094
0.554868
0.269611
-0.641445
0.500875
-0.500875
-0.239598
-0.504094
-0.245267
-0.504094
-0.667583
-0.848807
0.18
-0.25865
0.747423
0.0470907
0.160531
0.578221
0.110033
0.117959
0.00998867
-0.127947
-0.0671232
0.675018
-0.979436
0.445133
-0.028052
0.077309
-0.0492569
-0.748341
-0.176384
-0.572538
0.782658
-0.517813
-0.0195851
-0.195415
-0.337758
-0.0808429
0.0808429
0.0450706
0.00169617
0.138687
0.24426
-0.744187
0.171649
-0.0317636
0.472308
0.527692
0.778626
0.0240811
0.0167299
-0.040811
-0.300403
-0.572555
-0.5537
0.113422
-0.118373
0.00495072
-0.109628
-0.414261
-0.0904185
0.71065
-0.575266
-0.173076
-0.0681311
0.0246165
0.18667
-0.465982
-0.197246
-0.18446
-0.0218018
-0.481584
0.433901
0.0476836
-0.0551006
0.294724
-0.864332
-0.536179
0.643527
-0.852385
0.694828
0.453226
-0.030477
0.0562466
-0.0257696
0.0720797
-0.635751
-0.0020505
0.637802
-0.891989
0.642048
-0.729458
-0.0986717
0.00717195
-0.00717195
-0.299143
0.434559
-0.0308103
0.00596601
0.0181151
0.586726
0.67603
-0.745575
0.0136165
0.00444109
-0.00366669
0.00427094
-0.00427094
-0.502167
0.644458
0.0141931
-0.0141931
-0.774269
-0.00864255
0.0121855
-0.515361
0.68701
0.596909
-0.592476
0.0689617
-0.0689617
-0.00588099
-0.0458415
0.0107733
-0.956864
0.531214
-0.525984
-0.00469358
0.597378
0.0148749
-0.612253
-0.70778
0.132515
-0.316903
-0.0135573
0.330461
-0.0232688
-0.0175971
-0.606268
-0.0294829
0.0253233
0.00574426
0.000455928
-0.00321755
0.00321755
-0.373356
0.295791
-0.447619
0.135595
0.662778
-0.135673
0.00232399
-0.00232399
0.508553
-0.133935
0.00832257
0.0181514
-0.00042264
0.595483
-0.729418
-0.715606
0.659397
-0.0914241
0.326985
0.761576
-0.00383758
-0.09232
0.101376
-0.670372
0.552106
-0.324031
-0.110402
-0.0263084
-0.0258002
0.00122057
0.473278
-0.0857615
-0.415914
0.679162
0.000780621
0.00629279
-0.00629279
-0.186782
-0.129096
-0.572063
0.619154
-0.136576
0.509807
-0.169767
0.847063
0.796033
0.00574426
-0.707632
0.643732
0.0409697
-0.0303165
-0.0106532
0.604296
0.0923767
-0.0120351
0.0663323
-0.0542972
0.00881753
-0.00881753
-0.784149
0.0229101
-0.0438109
0.0619623
-0.0865535
0.0865535
0.00444109
-0.00151359
0.720566
0.0827963
-0.317942
-0.0963196
-0.519745
-0.0271614
-0.0668766
0.0668766
-0.046692
0.0809592
-0.0809592
0.0265543
-0.0265543
-0.355695
-0.0752927
0.241227
0.0699796
0.0418628
-0.759219
-0.0615606
0.161049
0.0187616
-0.245291
0.0807855
-0.0807855
-0.466328
-0.0489633
0.231159
-0.0114894
0.00252671
-0.649289
0.656923
0.0171155
-0.0638075
0.0383541
-0.0841955
-0.0119975
-0.156412
0.168409
-0.150885
-0.207567
-0.0815314
0.0815314
0.0550471
-0.0550471
-0.0291521
-0.0941743
0.123326
-0.0225274
-0.188187
-0.00810059
0.0044339
-0.235748
0.531538
-0.0257958
0.451263
0.00706548
0.00472657
-0.0510979
0.0510979
-0.731509
0.318624
-0.128468
-0.209038
-0.0232239
-0.0166917
0.0192184
0.199164
0.0290944
-0.00110278
0.000680143
0.0836888
0.0297332
0.0553852
0.105664
-0.0170913
0.0059224
9.26037e-05
0.00443103
0.00609526
0.00657954
-0.0126748
-0.00185171
0.0078461
0.0280416
-0.0280416
0.0496406
-0.0421597
0.0421597
-0.190939
0.0091576
0.0255486
-0.0756767
0.0177368
0.0768436
-0.0768436
0.246847
-0.23782
0.0869353
-0.0673544
-0.170466
-0.0160737
0.0160737
0.406026
0.251738
-0.519313
-0.0806432
-0.0377294
0.541621
0.0158267
-0.0632256
-0.45932
0.0770511
-0.153472
0.170363
-0.016891
-0.0471104
0.0471104
0.838627
-0.592845
-0.0103719
0.0085202
-0.00571067
-0.285076
-0.000173721
0.00502211
-0.0444846
-0.626377
0.568709
-0.662989
0.0146548
0.190182
0.0157787
0.0245435
-0.159183
-0.335108
0.259431
-0.0561576
0.0270055
0.171096
0.133875
0.234157
0.265078
-0.249299
0.00655119
-0.11398
-0.222595
0.0681255
-0.0127403
0.161154
-0.13661
-0.0684579
0.152147
-0.400064
0.121652
-0.103915
0.0585101
-0.474424
0.175385
0.176892
-0.24535
0.00674332
-0.177056
0.176882
0.00394191
0.148205
-0.0279666
0.0500401
0.458513
0.0119679
0.0184845
-0.00697903
0.0361621
-0.239486
-0.203131
0.591416
0.169507
0.0616523
0.0782305
-0.0633718
0.0706941
-0.0813473
-0.0302668
0.166816
-0.152161
0.019705
-0.00593801
-0.105037
-0.0288509
0.0256274
0.251792
-0.0060936
-0.0135015
-0.312347
-0.00843948
0.217038
0.140243
0.178382
0.0572387
0.0975306
0.0509893
0.535737
-0.0125822
0.103169
0.0430071
0.065696
-0.108703
-0.267575
-0.197481
0.0270153
-0.222631
0.285332
)
;

boundaryField
{
    FrontBack
    {
        type            empty;
    }
    Top
    {
        type            calculated;
        value           uniform 0;
    }
    In
    {
        type            calculated;
        value           uniform -1;
    }
    Bottom
    {
        type            calculated;
        value           uniform 0;
    }
    Out
    {
        type            calculated;
        value           nonuniform List<scalar> 10(1.06704 1.04895 1.07875 1.06596 1.06738 1.06742 1.06846 1.0462 0.740474 0.749362);
    }
    circle
    {
        type            calculated;
        value           uniform 0;
    }
}


// ************************************************************************* //
