/*--------------------------------*- C++ -*----------------------------------*\
| =========                 |                                                 |
| \\      /  F ield         | OpenFOAM: The Open Source CFD Toolbox           |
|  \\    /   O peration     | Version:  2412                                  |
|   \\  /    A nd           | Website:  www.openfoam.com                      |
|    \\/     M anipulation  |                                                 |
\*---------------------------------------------------------------------------*/
FoamFile
{
    version     2.0;
    format      ascii;
    arch        "LSB;label=32;scalar=64";
    class       volVectorField;
    location    "959";
    object      U;
}
// * * * * * * * * * * * * * * * * * * * * * * * * * * * * * * * * * * * * * //

dimensions      [0 1 -1 0 0 0 0];

internalField   nonuniform List<vector> 
808
(
(0.7562679283843722 -0.01750968265538112 0)
(1.031567159824121 -0.01261767036854678 0)
(1.111052455974087 -0.005621269731489241 -1.720020209317968e-20)
(1.085123518016099 0.01259122359406754 0)
(1.363112223128793 0.01327283694485429 -3.830796625742991e-19)
(1.038754562871312 -0.009409344955605465 -7.31504076576096e-20)
(1.014410822653356 -0.0210298118515453 -2.430520333882056e-20)
(1.079242745758666 -0.005312002749789529 9.062378651359024e-21)
(1.254252582624815 -0.0212731885224178 6.274114171549708e-20)
(1.08529396204731 0.009771672829659446 0)
(1.008081718599651 -0.008941016705135267 0)
(1.305572619341497 -0.05428984985905776 -3.477693323013315e-19)
(1.086380084051513 -0.002012946636612264 2.04554111744919e-20)
(0.6752129022389071 0.006355862936562146 0)
(1.275896150846643 -0.1172845236043901 0)
(1.08166969029289 -0.0004278781977181805 -3.873430009166811e-20)
(1.224150706213158 -0.1452939447293135 -9.477199734155683e-20)
(1.074102746983931 -0.0002907587848623842 3.21251335352263e-20)
(0.9894221384504051 0.003634565507052154 0)
(1.026541971112404 0.009693956503241088 0)
(1.032546026592104 -0.0124966017029728 0)
(0.9875657456284374 0.04501384558667848 0)
(1.051091850954644 -0.005997338324275012 5.766999676762854e-20)
(1.053763649973471 0.009004593953985328 0)
(0.9331827475722005 0.1981579803924766 4.575588221062636e-19)
(1.162522462162744 -0.08579199754518584 0)
(1.185757933549085 -0.01953992307548316 1.548406308691848e-19)
(1.077297325343231 0.009638665820071918 5.229725078467263e-20)
(1.083626259428813 0.002183820308781247 5.119604309656779e-21)
(1.071741784711195 0.03089918785018906 0)
(1.075251538893426 0.002808200053635924 -1.182476432695312e-20)
(1.033208091311969 0.006790170284984408 -1.890362747134694e-19)
(1.060058144625524 0.01455564362960289 -2.352256811336145e-20)
(1.088823941382169 0.005658059001785715 -2.938851337671776e-20)
(1.121556211443809 0.03830619448309419 0)
(0.754949968419935 -0.1224962063916706 -4.546588306717182e-19)
(0.9548130969031443 -0.005835676604916627 0)
(1.068757927340467 0.022214819404938 0)
(1.068798662133408 0.007247129073264138 0)
(1.07378012195761 0.008780160063434482 -2.821671802788655e-20)
(1.093124078347335 0.02411828611505257 1.086233489941127e-19)
(1.150959418737949 0.002779720542091126 2.128961430158034e-19)
(1.095902787379468 -0.002253057365092858 0)
(1.015223333999966 -0.009256383986806433 0)
(1.130980116260945 -0.09274298272921315 -1.62426575007191e-19)
(1.044079698491121 -0.01165595687205652 -8.310745085681657e-20)
(1.058116797418501 0.02663828885910451 -2.688299809456229e-20)
(1.230768349762579 -0.1126074912589583 -5.567866262975744e-20)
(1.067492451133456 0.01202104793717694 -4.09826778480461e-20)
(1.258070297067919 0.01577314793696486 0)
(0.9968433638043477 -0.01927408684552456 2.211855682075654e-21)
(1.044751662408036 -0.002093116330397216 0)
(1.087516416829677 -0.00209070961940853 0)
(0.9992181415673431 0.007597846352000823 -1.8686044148235e-20)
(1.250984135440532 0.03322037699539444 -2.379852299813468e-19)
(1.063425510397994 0.01807167084784904 5.912072108458477e-20)
(0.9912687643956024 0.01118784831211152 0)
(1.016703604785321 -0.006328382486045726 2.497929350025564e-20)
(1.107611594330152 -0.0009169276745892019 -1.163688665044214e-19)
(1.061113904814084 0.03117570955553109 0)
(-0.08950618795505963 0.0002213715760219054 7.62759231927074e-20)
(1.154685671263363 -0.05224658695376679 -1.860167304990044e-19)
(1.005629508923569 -0.00562429056024193 -2.743260743892205e-20)
(1.187986541028184 0.06782199123990094 -1.213098123611518e-19)
(0.9972842012388304 -0.009558632392205887 3.100328613695364e-20)
(1.084260835941582 -0.005457208350900966 0)
(1.249393051468303 0.09440682901769702 0)
(0.6960863381451859 0.003169458745414328 -7.427639993184992e-20)
(0.9883736642276274 -0.01430873059253582 -3.230091840563904e-20)
(1.459117260714256 -0.01972840964544492 4.41215884289117e-19)
(1.060508661497966 0.007611109058066188 -6.563775590601533e-20)
(1.36741283177054 0.093736245574295 2.849734950297895e-19)
(1.054846315065786 0.006834082422211387 -1.959815747546792e-22)
(1.080992051610562 -0.01392687501355679 -2.576416398185495e-22)
(1.164240835150719 -0.2360629282710959 0)
(1.021962245750769 -0.01507882463805908 0)
(1.017123455263092 0.0180451700583662 -3.015099930672236e-20)
(1.38704963946027 0.3485704374575888 4.214275075331761e-19)
(1.097411457235135 -0.04248715460457719 9.572885414942487e-20)
(1.046064172218077 0.2100295970960261 2.435734912005814e-19)
(1.123563435013939 -0.06056073860236611 1.174572433955629e-19)
(0.9219455336373269 0.005161435508240493 0)
(0.9753295470097685 0.01851755956275863 0)
(1.004033663538105 -0.04863803285642077 3.06205364452989e-21)
(1.009847228808116 -0.01358257442089499 7.816339070459151e-21)
(1.030267124828447 0.02687628605281656 1.359814926521331e-20)
(1.528163700457255 0.03403785358921992 3.222800859557527e-19)
(1.289813177313705 0.07038353519523971 5.611805348075618e-19)
(1.072398859684777 0.003115231336372749 -8.890586733594132e-20)
(1.195016880222389 -0.09439118886836391 0)
(1.033818914908584 0.001867946784130385 1.299556806524737e-19)
(1.165339889512181 0.02123666453968321 -3.146961047233411e-19)
(1.001482650100276 0.03247476374583129 0)
(0.9996269297172574 0.00201439162674502 0)
(1.044345698831536 6.528123081560129e-06 7.967722752451015e-20)
(1.217570943163959 0.1087603373381988 4.103211729627681e-19)
(1.011128441345051 0.006978353302324967 0)
(1.090643447719326 -0.06786191482079751 -1.063192447551733e-19)
(1.151427262581392 0.03675734350160451 0)
(1.216363375259116 0.09277658941091475 -1.922724079326995e-19)
(1.108283807672336 -0.02889597256866618 -7.809406649896157e-20)
(1.027386620096016 0.0119198509421077 0)
(1.08508083736533 -0.004589512787866895 0)
(1.019187060523595 0.02643933805403981 7.886687631339544e-20)
(1.072882764141346 0.0566021594577395 -9.582185378754114e-21)
(1.103764163344129 -0.004170261965410754 6.409194586017826e-20)
(1.108313886775003 -0.09183344133562589 1.49484307241275e-19)
(0.9640438813877991 0.003499025146136937 0)
(1.065965139816533 0.03122753010625374 3.711673003155802e-20)
(1.168541496972288 -0.07681975039847669 2.273414802361273e-19)
(1.051854694385512 0.04723444153992504 -2.860348930078403e-20)
(1.022860870401078 0.06778740599699631 3.663405649161857e-20)
(1.090182231780314 0.02605828492525683 0)
(1.017887018395483 0.01501890965067886 0)
(1.028991240564189 0.009366815894880361 7.843829047202794e-20)
(0.9485592363035532 -0.03277331744711022 0)
(1.05280648117655 -0.005463225438590178 -7.483530337591862e-21)
(1.341728622885367 0.05638183431031683 -1.54865960896428e-19)
(1.079743443757153 -0.01313660249823701 2.66637769383465e-20)
(0.7440041795572306 -0.0017263029056013 0)
(0.5927690361788945 0.1932462851670695 -1.120910352037701e-19)
(0.7061592127281057 -0.002488716378529341 0)
(0.6987770579966764 0.01462965423419517 0)
(1.077694867675971 0.003644663282719506 -6.518174053318203e-22)
(0.9906527989914 0.01448910855460637 0)
(1.27927320709213 0.1221195919686216 2.539322130175806e-19)
(1.012263083874651 -0.02786075542968032 -7.484023861651098e-21)
(1.045111589289534 0.01725380205208567 1.539909214925805e-21)
(1.058660504642219 -0.01199647538223585 0)
(1.126584938129586 -0.009127701000189102 -5.108590144969649e-20)
(1.272245977204879 0.1310132785559587 -2.274533892302772e-19)
(1.089213113546652 -0.01096431644061412 -8.630921343970706e-20)
(1.070724034253846 0.02654358013751523 -1.076748088107359e-19)
(1.040945751048054 0.04678602665783388 7.338824192070882e-20)
(1.022611332753535 -0.003695507090806858 -3.479811310639097e-20)
(1.060887214130766 0.02364239423275679 5.764134236729506e-21)
(1.136961494611155 0.00375677180328556 1.03498048322786e-20)
(1.039096666366708 -0.01463953871137445 -4.794592395694696e-22)
(1.087365510621122 0.03472086149381719 0)
(1.028208301919054 0.01373424889187502 0)
(0.7766187630022462 -0.07657381582608443 -1.81355469252653e-19)
(1.03026851455611 -0.001744622751750681 -6.610685471442705e-20)
(1.130820621218908 -0.002574595116378483 -1.244972504534563e-20)
(0.7034376460568185 0.00656277740814665 7.157834014271659e-20)
(1.175028628817781 0.01937476371063393 -1.963244941942265e-19)
(1.137304507970037 0.005933836833870527 5.079358099849843e-21)
(1.12899942641806 -0.01003671942596694 3.386544925028654e-20)
(1.000933897445918 -0.002954442349080912 -6.887798185489157e-20)
(1.102677014716089 -0.05960402689012866 0)
(0.9895562480572242 0.005285539429794448 0)
(1.05781853579496 0.007029393817750754 0)
(1.005764880465058 0.1886880170948153 -2.385311310279681e-19)
(0.7792069238962454 0.0124335315265093 0)
(0.857004118429201 0.1017674331138316 -8.256843480460181e-20)
(0.08886087550622651 0.03363174970822686 -2.970707270929337e-19)
(1.171756968648149 -0.03111105497407933 -2.282533259772034e-20)
(0.6712778770462641 -0.007324359835183484 2.452080915786196e-20)
(1.165596120610672 -0.1003203938166836 6.907080168398586e-20)
(1.125234005245202 -0.000788037839116588 -5.759606213648424e-21)
(1.15378557065934 -0.04903973818533205 2.218048028305869e-20)
(0.08709154680910167 -0.2112185632079947 0)
(0.2382043817811296 0.06707761705475555 0)
(1.261844406939086 0.1065874853159383 1.872888302117834e-19)
(1.021107031303904 0.01981775130036858 0)
(0.7377677925124173 -0.006247908179644939 0)
(1.075096361681595 -0.01144283431271105 2.743452894219378e-20)
(0.9748028346497221 0.002865174973599123 0)
(1.297849096929806 0.1216790170354375 -1.506337057848451e-19)
(1.057371618467299 0.0109740953356896 0)
(0.9931967461618342 -0.007000825647214913 0)
(1.065110389453192 0.008312390770457031 0)
(1.006225487518324 0.02088938726106991 2.126817318121448e-20)
(0.936563523770129 0.01245991112557176 1.244484884534224e-20)
(1.176526193693277 -0.199791873111323 0)
(1.005120938314737 -0.005188926107117318 8.03634033859526e-20)
(1.059170457900134 0.006357666423929265 0)
(0.7746154485501282 -0.003291817024310196 0)
(1.218242903488089 0.026883498130933 1.629073635206127e-20)
(0.7049889567407768 0.001368153936602769 0)
(1.434176334819486 0.08451751603770097 -5.137810784112518e-20)
(0.9951079782595353 -0.005478860399976686 1.686976765936441e-20)
(1.273651904147003 -0.003314911534463687 -2.994353998018907e-19)
(1.059617980652425 0.00903985560368158 1.337790079986061e-19)
(1.000910247361553 -0.01353674451958379 0)
(1.209837851980791 -0.1425590689880091 2.05333206994183e-19)
(0.7331792524196543 0.01378498782408813 0)
(1.098417683580706 -0.00492533559480434 0)
(1.155871317980979 0.06794224787395284 1.908134729266595e-20)
(1.006552287451703 -0.006409686971211823 -3.048784444299217e-20)
(1.122558009563746 0.05235675443974867 -1.728403796555022e-19)
(0.1186148543831493 -0.093412338248058 0)
(1.073076344717744 0.03917728368709958 0)
(0.6617368626155163 -0.002883447368345787 -5.150987050753109e-22)
(1.012125573707227 -0.01951199244971507 9.156341737941558e-20)
(1.061380622230001 0.0008698817705515994 0)
(1.077387658310904 -0.1357659815523475 3.755157265458305e-19)
(1.002746449214984 -0.006144062606627186 -3.308762344991751e-21)
(1.003292830870565 -0.004370938917282146 9.151529654900433e-22)
(1.093979338643859 -0.009229129667824488 0)
(1.020730229205935 0.02039303383714044 -6.597567620401554e-20)
(1.106607295584715 -0.001578404596024789 6.394875651079908e-22)
(1.074584777439125 -0.01093334933424568 6.661044845656518e-20)
(1.08566591408433 0.02217841201679903 0)
(1.327394997241514 0.1566083113964808 0)
(1.002060936159228 0.0004514572360981642 4.408134270173627e-20)
(1.318784381912224 -0.1314675716286859 1.596959928786597e-19)
(0.01493749800977567 -0.168248392295469 -2.338101144360122e-19)
(1.071124300175507 -0.005355983642857786 0)
(1.111652607491158 -0.00545986425323321 1.16396029461503e-20)
(0.7267353004902221 0.01779441223384122 0)
(1.058735055443126 0.01127183302975709 0)
(0.8628220423360422 0.1619298282326749 4.609344870662094e-19)
(1.283306974335015 0.1273846614141325 1.915377267375627e-19)
(0.6542642583161357 -0.003099814904802144 -6.522045171662242e-20)
(1.039612520291967 0.005390736035598306 -4.920142510494411e-21)
(1.054774645739343 -0.0002139482766325343 6.465982060423337e-20)
(1.363323103598322 0.1175955685449334 6.592723946484855e-19)
(1.335807683534842 0.2518620268040795 0)
(1.05865842787314 0.008222633733768104 0)
(0.9999130796228376 -0.004380610175229866 1.401325254691392e-20)
(0.9929307041892564 -0.002740045793243683 3.512828538796853e-21)
(1.383698203948406 0.199287454871637 4.311287197454894e-19)
(0.6818596858607391 0.00047612550747655 9.968825129501321e-20)
(1.00567868901164 -0.002205417951008627 -6.023973430429495e-20)
(1.098203858137508 0.01313803326702226 2.562062958122121e-20)
(0.6694541357369795 0.004952998819477899 0)
(1.066087137949168 -0.01202196254247588 0)
(1.015719024787182 0.1444708766001201 -1.424239488326792e-19)
(1.090400181316132 -0.001285562918481387 -2.576127539190308e-20)
(0.98196359166586 9.800452838517271e-05 3.308806836143944e-20)
(0.9912117719620414 0.00600917088319899 0)
(0.6381413384540895 -0.001082185628889727 0)
(0.9767019097823856 -0.001229834416455569 0)
(0.6420688487753425 -0.001423943526672353 2.63383016836404e-21)
(1.088378094658565 -0.05526007847477465 1.210798458326633e-19)
(1.110547578928426 -0.005299005028309287 1.143064173539091e-21)
(0.9579494627865933 -0.0008553279509995775 3.879929634093891e-20)
(1.01717333472025 0.01021109825392129 1.742263986731119e-20)
(1.066317158316933 0.005596609662027516 -2.487424129090681e-21)
(0.634758018004961 0.008873539331759306 -3.61548943707644e-20)
(1.005991268795948 0.009733411639866778 -6.735464021138724e-22)
(1.037720991341736 0.007109423070920036 5.401385753946594e-21)
(0.9856052083081157 -0.00647897670296087 0)
(0.609963776101056 -0.0004476319855798329 0)
(1.068957771373851 0.02248760606314657 0)
(1.016438379827957 -0.01687582925949013 1.030764767555254e-20)
(1.023407771055502 -0.008158886987528442 0)
(0.9928436243603344 0.01343396248693239 -9.89509734155407e-21)
(1.009036428951939 0.002534472911897156 0)
(1.134099590754486 0.003379191695573285 -1.189040482390004e-20)
(0.03270172357358903 -0.1423956451889647 -3.824092535056682e-20)
(1.034454745743227 -0.01839689327195458 -5.824864538879297e-22)
(1.042150914683392 0.00641984750419511 0)
(1.08303058269568 0.07041499254143289 8.444892036223353e-20)
(0.967144269174065 -0.001662396075443062 3.10859480048753e-20)
(1.020090200892598 0.01670430917690248 -2.253696482715904e-20)
(1.004646828691397 -0.002863618434087106 2.412876922041459e-20)
(1.038883504808044 -0.008077877771073444 0)
(0.6409088547519232 -0.004081948819166962 0)
(1.025921016143015 0.0245172893769639 -7.848404332993062e-20)
(1.088042925527065 -0.003377098390724796 5.073101192084614e-20)
(1.013550189809417 0.00777092153888752 0)
(0.9801681929828017 -0.0006292117918096004 -1.945022702667203e-21)
(0.8554028938579892 0.008415690036243715 -1.008164674220517e-20)
(1.013990359104528 0.002645378747720416 -9.538371984728816e-21)
(1.022146220117815 0.003685542149461871 1.879978149751377e-20)
(0.9836037876482733 0.002549610466868451 0)
(1.006920098378604 0.01158029021529019 3.249497783170563e-20)
(1.111127720458778 -0.0002109961682475794 0)
(0.9328373909960158 0.0113560301646105 -3.125798031793293e-20)
(0.9536854877456669 -0.0011606887200105 0)
(0.903044362844436 0.2029065655744315 4.967356676456993e-20)
(1.011059935921377 0.06728742481434846 0)
(0.9912069536609083 0.004985158436435445 -2.276027647379823e-20)
(1.058802361522196 -0.04990579827387362 -2.829559981112055e-20)
(0.9938338634538393 0.0005295264420332024 3.248720050305533e-20)
(1.007343848480148 0.006803008193420597 0)
(0.9798072812654655 0.0008365362475999104 -3.009639277121297e-20)
(1.177199481657603 0.103086161251969 -3.408878894764667e-19)
(1.068935629773857 -0.2645940902835566 0)
(0.9939694240458703 0.0003562270646092623 -2.271651152177243e-20)
(0.9732495970545518 0.001894263538217982 4.801883982183327e-21)
(0.9611111097732401 -0.0002471411246868487 1.007520515811632e-21)
(0.7459716416736558 -0.001053514976928891 0)
(1.12193830066889 -0.07121675088317007 0)
(1.003062879283148 0.0005940786185761501 -2.267182711252664e-20)
(0.909667952581793 0.0110638827003719 -1.049880746628804e-20)
(0.8420130620933746 -0.001166634356945716 3.084703349754355e-21)
(1.013176505480866 -0.00845600189072448 0)
(0.9614690855610796 0.01428101092245018 1.454761477100821e-20)
(1.005586196189346 -0.0002066855641376674 -2.248875170934929e-20)
(1.02579846870119 -0.003027543234984496 -2.494445146553399e-20)
(1.114724092075901 -0.002807675126919103 -4.917770508052258e-21)
(1.117507989208842 -0.00366255767894661 0)
(1.010578422451613 -0.002715424037585888 0)
(1.021612394396758 -0.002406973138212503 0)
(0.9432958354155869 0.004125969548170252 -1.968418505405209e-20)
(1.017857266416289 0.01346301894921544 5.585856241502363e-20)
(1.088106119396071 -0.005529190529396437 -2.348487600048475e-20)
(1.039422993976786 -0.006127818062007065 0)
(1.108837307090421 -0.002319486601958612 1.843408249989881e-21)
(0.9941133196518952 0.001370626241955741 -2.245000105864802e-20)
(0.9813791122916204 -0.0002267308357209913 0)
(1.010006264725496 0.002739731446627497 4.684636445250985e-20)
(1.364357294044701 -0.314248378831242 -1.122278157004654e-18)
(1.120967440394748 -0.04391541983208498 -1.106093983482413e-19)
(0.9696078993572654 0.009283780379737077 4.42132636269332e-20)
(0.7650714349062399 0.004865442999385047 -3.475652933525626e-20)
(1.224075854093729 0.05052664519230803 0)
(1.218257492590057 -0.1271112579030845 -1.479625161765125e-19)
(1.084514438327561 -0.004698894895618021 0)
(1.008416527752132 0.0004582295558036934 2.296399872424857e-20)
(-0.1992924495091742 -0.1219746974916759 0)
(0.9939681500941371 -0.00466456982240694 0)
(1.012350611773676 -0.02305222480163072 4.025477866378913e-20)
(0.7064309631511047 -0.01944141133728768 0)
(1.096788416883432 -0.0148531643501524 2.287364726002377e-21)
(1.03980209910117 0.0003409126624320318 1.613937813248312e-20)
(0.633232001646445 0.004128594725317286 0)
(1.447343146900554 -0.124053398366969 0)
(0.9858241360347436 0.001825401665142427 -1.067767376351035e-20)
(1.069710291868356 -0.01509427867739194 0)
(1.037786231049585 0.0004823968574353156 2.05183246808204e-20)
(1.082821726253393 0.0008475119113184725 0)
(1.012320101953293 -0.004388169232921146 -1.166669358940441e-21)
(1.005906385160417 0.003268622951305189 0)
(1.007789567687836 0.003041246899825276 -1.222721441566259e-21)
(1.004466736288693 -0.02047155660818319 0)
(1.036439729784068 -0.007486952223592861 1.761768830983266e-20)
(-0.1856890216279702 0.0362153242975896 2.784865774322859e-19)
(0.8004239232795115 0.02518636093571473 5.811095919000604e-20)
(1.00516753542457 0.002007232628536854 0)
(1.123278450210729 0.00988134984340296 -1.177629569136804e-20)
(1.112468491785263 0.004455062092576317 9.050728224523881e-21)
(1.05437745029164 -0.01274749706608248 -1.322146706356547e-19)
(0.9987736775853058 0.01039335163299547 -8.693612370115783e-23)
(1.082457675277195 -0.004544002484083013 0)
(1.188971145436042 0.05156220980971106 0)
(0.8351440779950475 -0.07535922167323035 4.603513470985337e-19)
(1.089156407526856 -0.001295557895162044 0)
(1.033930187817435 0.007716373345882745 -7.666282466884215e-21)
(1.042486766766099 0.005317743128205828 5.690624513143991e-21)
(1.054478030560279 -0.05857730617080691 -7.602490090167646e-21)
(1.139276322718199 -0.001664543772080248 1.714798797368151e-19)
(1.083431027540317 0.0006878007153478244 0)
(0.9941935334060098 0.001871199819997715 0)
(0.9977103153084961 -0.0266946351164894 -2.43913238047661e-21)
(0.9903507785656991 0.00360965708330056 0)
(1.031063651101438 -0.03688044007537165 6.501248437867429e-20)
(1.29086382951072 -0.09696893653055363 0)
(1.040378861785985 0.002607037804581811 -4.560493603125553e-21)
(0.9861849916717104 0.01693941063915679 -8.993532539186714e-20)
(1.033134840170726 0.04293195359769057 -2.334235124627518e-21)
(-0.07375182518253404 0.1793168080759064 -1.733255714685507e-19)
(-0.07082501613585483 -0.2907891882495959 -1.296553876481865e-19)
(0.8879106743246299 0.1237381527656312 0)
(0.2793122177333955 -0.0325987380597291 -3.09882317381984e-19)
(1.006594507969759 -0.002075315825430446 -1.009365612484145e-20)
(1.063913287831054 0.002725379720719206 -2.069227810699533e-20)
(0.9917379078220199 -0.0213923044147269 3.10858798981055e-20)
(1.025966273745542 -0.03110868420280255 2.693247553931686e-21)
(1.010115592876341 -0.03090500736875658 -6.691206648542869e-20)
(0.9888580142244688 0.0048610697554261 -3.489020474732481e-20)
(0.9934786481257607 0.005146605028723171 0)
(1.02462619277253 -0.002297864891810126 -3.467764917003758e-21)
(1.93307830481691 -0.1564762659853812 1.068193677433174e-18)
(1.045467528469527 -0.006507897732848301 0)
(0.9964665642728602 0.008204164621183179 1.498313618044359e-20)
(1.003647723829966 -0.0005209662678186187 3.994672313024152e-20)
(1.165925189225643 0.1591916627947614 0)
(1.004062293965018 -0.01559861894038818 6.701687392799308e-21)
(0.9525437219133162 0.003594646234341909 0)
(1.03784174322247 0.0417366491639243 0)
(1.304555724283588 0.1517552715999427 2.259765584830677e-19)
(1.077733198570087 0.0005039331387455999 2.334487178679928e-20)
(1.016105728064356 0.03017314254726356 4.47346421706748e-20)
(1.080698864916107 0.00378408693021335 -2.247953075537691e-20)
(1.05532405939719 -0.02091421712679525 -7.213219193457405e-21)
(-0.3887567362167001 -0.0480729771575072 0)
(0.9997506443799689 0.01279215760203467 0)
(0.1210250276400399 0.05330628803350763 -9.445401214888239e-20)
(1.006292363702286 0.02019670075185536 -4.011320254844215e-20)
(1.006273538851046 -0.02716783446617521 0)
(1.001292629697237 0.005314632187325304 -4.875087311622178e-21)
(1.082048839817659 -0.0424368773624372 0)
(0.9938817460711156 -0.01833284215204811 -8.129961944458666e-21)
(1.101560706753387 -0.05366698745509059 0)
(1.443979848642264 0.1703860479325145 0)
(1.054900906210239 -0.0120325780674547 0)
(0.9912308146992354 -0.02501532414979191 -4.177192212550934e-20)
(0.9963511299962513 -0.02939417665747861 -3.537105177948396e-21)
(1.015556619667169 -0.02169067908767425 -2.136813010790888e-20)
(0.996582748511785 0.01679925153321044 -5.429359015670561e-20)
(0.9961366865402261 0.009795930753943341 -1.46021366295459e-20)
(0.9953972477231573 -0.02808712872816933 0)
(1.001806246654075 0.02385584985531036 1.883656563511138e-20)
(1.048410360364267 -0.02693118893647167 0)
(1.111098945036312 -0.03622961825776207 2.544474417394488e-19)
(0.9954367452823712 0.01654233333895285 4.484415757533492e-20)
(0.6150344186517537 -0.008695225512328953 0)
(1.152301200934545 0.1631609108639133 4.744847060477936e-22)
(0.8313902813206983 -0.0796907257748775 0)
(1.138303042132573 0.07267493128234162 -2.781447669877221e-19)
(1.315441620336375 -0.3890473561479023 1.282846121713119e-19)
(1.069686367438366 0.06627804449891253 -1.242231137067232e-20)
(1.011842178949524 -0.03109141170592019 0)
(0.9555732360864256 -0.2154216583447285 0)
(0.5454969192101419 0.1765368181308181 0)
(1.015974341110748 0.0123264798520288 1.127783822661209e-21)
(0.7050364889058536 -0.01896585617290445 0)
(0.9991280936248252 0.01627896383943623 3.45385305113563e-20)
(1.027246512257485 -0.001967664895396614 -2.69786562276445e-20)
(1.078987310774742 -0.008036236106456866 2.650531269321245e-21)
(1.054600955597188 -0.02765901254905139 2.594101613696025e-20)
(1.042795984040998 0.01163645078805342 0)
(1.058884069894342 0.02031864334055044 -8.658150984190248e-21)
(1.050293229849849 0.03636862262424677 -1.775807814312491e-20)
(0.9838459070217677 -0.02250853835890404 0)
(0.6248831504962508 0.005106103701524383 9.169218820412748e-20)
(0.8941561722459643 -0.005945484606667412 -8.844740386043321e-20)
(0.9093671160032906 0.005232420240779165 1.45183409102457e-20)
(0.6296395345751461 -0.006443035462466102 1.410218004650281e-20)
(0.9810324261218407 0.0002339988103437719 2.463225142209449e-20)
(1.004411592714554 -0.01751180668205774 -3.357236575144031e-20)
(0.9835348822283769 -0.03299683169246816 -2.79850031648367e-20)
(1.085635783594456 0.001615288103047154 0)
(1.01949488398929 0.005319541072885639 1.036216754905412e-20)
(1.132564643616135 0.04841763496042329 1.342211065825686e-19)
(1.031145671405914 0.04207485747516061 0)
(1.022634390008543 0.002590304005182972 0)
(1.583316638404302 -0.168190159973945 4.370006804972362e-19)
(1.057410481423033 -0.04109119499539882 0)
(1.020002511815654 0.01068875926569876 -3.64447563792733e-20)
(1.082321408428853 0.005781877500443068 0)
(0.4922285024878467 0.00180318411049042 0)
(0.003636004201838984 0.01327691658644631 0)
(0.9912793755676315 -0.023721244188322 1.249670317129261e-20)
(1.3012863062138 -0.09666992986677718 3.682657013335563e-19)
(1.031097561976561 0.03586281437170414 0)
(1.022466814292832 0.003579043092436219 -2.186267714205929e-20)
(0.934021633785252 -0.1606550210102634 -5.54850080348e-21)
(1.256767599012567 0.07483983666643371 0)
(0.5976199847188174 0.729579929039162 0)
(1.308860727117278 0.1415998689073386 1.044576714738832e-19)
(1.676114843927972 -0.02648745648806938 0)
(1.059570788257845 0.1303314739678773 0)
(0.7222184692631536 -0.008554432600767874 4.151175613499574e-21)
(1.04625125023773 0.04596034382406183 0)
(0.7550951012647761 0.1192466815300846 1.386191572142108e-19)
(0.996803308379972 -0.01634648183152648 3.581766478284653e-19)
(1.039135562159287 -0.03998366523613668 2.735549707981875e-20)
(-0.3768704516879358 -0.04955667050809198 0)
(1.072258421745679 -0.01624983880255434 0)
(1.084220346995536 -0.009066696388080903 0)
(0.6485375697832673 -0.5038486715593016 -2.483394079519858e-19)
(0.9898285777685026 -0.0003857887260019688 0)
(1.092346898595058 -0.02180970911918045 6.448860166499512e-22)
(1.187879498620757 0.1207611516192559 -2.037381766843771e-19)
(1.099399214643818 -0.04594477130845052 0)
(1.005976940243699 -0.02080847829399693 0)
(0.7729957765436933 -0.1873992093788857 -1.626894072631067e-19)
(0.8836881027460712 -0.1389224659150283 1.459578157078519e-19)
(1.033824294017507 0.01351569526616116 -2.071521284052069e-20)
(1.023128802453594 -0.009024720686107232 -4.340556303946348e-20)
(0.8750847243370589 0.003810920612359272 2.222803006555358e-22)
(1.504747078783737 -0.1948126055127835 0)
(1.308492922829678 0.1113331236282915 2.976761016513244e-20)
(1.241036884690161 -0.0766627407213831 -3.289351474109803e-21)
(1.095773665416207 -0.0186890646880262 -4.008690958529419e-20)
(1.035965089581041 -0.01721138315528503 3.034858305197431e-20)
(1.092821144970767 -0.03910385992724254 9.490191027375455e-20)
(1.032140093278941 0.02062001279893849 0)
(1.051052436838365 -0.0358039313253711 0)
(1.115914531319658 -0.008975804677742472 0)
(1.100010332377817 -0.04055316809402588 0)
(0.9982912867090159 0.01089082591651822 0)
(1.152928352132754 0.08097490794138726 9.449826668403529e-20)
(1.340632496083535 -0.1584296434752102 0)
(1.039237312488145 -0.02746757181146297 -2.593232227737717e-22)
(1.047890155781661 0.05367524750008545 0)
(1.010164722140731 0.01419445128992833 -3.817579344382392e-20)
(1.033648482578251 -0.007529279150073183 9.333998622743138e-21)
(1.088953833398723 0.01342354502778715 -3.185706844464561e-20)
(1.08457588867105 -0.02834287410074986 0)
(1.071704685383589 0.002255792982552667 0)
(1.102444306795136 0.09273918928797847 -1.401155915334338e-18)
(0.9352515669129495 -0.1494495875272261 -7.097018047230837e-20)
(1.176212740746696 0.1171313555753942 1.148370042986873e-19)
(-0.4592473405025454 -0.02838864705978375 -2.91143141101377e-19)
(1.018040731988064 0.02950657430229461 -8.606135565621464e-20)
(1.006777653316604 0.001948282510738232 0)
(-0.2437673775451884 -0.005459057112844804 3.574010838082609e-19)
(-0.03253125752950483 0.3058510787706216 7.497389818830562e-21)
(0.9952078176463316 -0.006279743188305238 9.109475299185706e-20)
(0.1831737388302838 -0.0450653518286671 1.285097913948485e-19)
(1.086089684016653 0.09007993999796807 1.413972000048299e-20)
(0.09351742308207971 -0.109970974213306 -5.430668780928578e-20)
(1.108388633537759 0.003060563640748368 0)
(1.095944925322322 0.2500164577482883 0)
(1.021050570454092 0.02155656326731307 -1.684971725065621e-20)
(1.062085508567507 0.0550717811738744 0)
(1.025263820389875 0.02349638180620061 -8.297850789075434e-21)
(1.262474041653427 -0.5487362775044283 8.008934539308515e-19)
(-0.1061536314496154 -0.2414400547140798 2.091669496470127e-19)
(1.300560405414079 0.111842129397637 -6.155852465676317e-19)
(1.123128353634781 -0.000845806369813188 0)
(1.125251634842804 0.1073838137899496 0)
(0.5211515076534058 0.07642298528990274 2.410976205401389e-19)
(1.023407830053912 -0.02029700623891741 9.560874040891823e-20)
(1.006227535861856 -0.02315287673684254 0)
(1.211577308318505 0.2705817126112304 -9.743307373400884e-20)
(1.257841821582286 0.1264539885615993 -1.506298769763675e-19)
(1.026520163673616 0.003146720594787093 1.584346742517681e-20)
(1.297609125106901 -0.08517492569217523 -4.960261596091041e-19)
(0.3071361291039818 -0.02287241964830598 2.909799057365542e-19)
(0.8330397602775389 -0.1496902907092772 6.900344524653669e-19)
(1.042395092559079 0.05830818593391021 1.100947077016818e-19)
(1.038404206319245 0.003014132173037384 1.536791733014553e-21)
(1.00081881718923 0.01921083285621491 2.8610624423045e-20)