/*--------------------------------*- C++ -*----------------------------------*\
| =========                 |                                                 |
| \\      /  F ield         | OpenFOAM: The Open Source CFD Toolbox           |
|  \\    /   O peration     | Version:  2412                                  |
|   \\  /    A nd           | Website:  www.openfoam.com                      |
|    \\/     M anipulation  |                                                 |
\*---------------------------------------------------------------------------*/
FoamFile
{
    version     2.0;
    format      ascii;
    arch        "LSB;label=32;scalar=64";
    class       surfaceScalarField;
    location    "1735";
    object      phi;
}
// * * * * * * * * * * * * * * * * * * * * * * * * * * * * * * * * * * * * * //

dimensions      [0 3 -1 0 0 0 0];

oriented        oriented;

internalField   nonuniform List<scalar> 
1171
(
-0.9278971383872047
0.9278971382716098
0.7873102081228626
-1.098982338513631
0.3116721296045233
-0.192139642961079
-0.7676215742525226
0.9597612179042639
0.07210287158425227
-0.1178071729456028
-0.2121190804814816
0.3299262558021022
-0.7873102200680925
0.06928643467116646
0.7180237853834064
0.8107243633143006
-0.1776808247242002
-0.6330435380101114
0.8739611592351166
-1.043762507166532
0.1698013479532023
-0.2849667009059751
-0.09837012688141948
0.3833368279770476
-0.03646127483208161
0.5486133686606504
-0.5121520938951816
-0.5090717545799694
0.8294880495822829
-0.3204162961823729
-0.4027738687647713
1.045528304851275
-0.1715671552146954
0.3938995439397798
0.05060712029643741
-0.4445066611509244
1.046158045760861
-0.0006297452185468819
0.4461182837770037
-0.05221873319680811
1.056601755798844
-0.01044371301762533
0.5800911375478979
-0.7722307814536771
-0.7240656308001524
0.5567668874277548
0.167298743427865
0.2149628334371885
-0.7240345866850194
0.5496869926060134
-0.9224193524289468
0.3727323599563329
-1.094226983118286
0.6865958772763688
0.407631105974019
-0.5954778361703159
0.5590165570330619
0.0171530736078789
-0.255668769360543
0.2385156936219175
-0.0230302709012766
-0.5250264685197051
0.5480567451119092
0.4000010502191887
-0.498371171318918
-0.918881103511714
0.9416712169695838
-0.0227901137520982
1.06789524956642
-0.01129349602562511
0.9350638823990837
-1.116859180921945
0.1817952985455726
1.067447148347344
0.0004480995026196964
-0.6642787540870663
-0.05978687357121099
1.26203680205447
-0.864460942936636
-0.397575859032098
0.1485660440828089
-0.109829344763905
-0.3251442297548725
0.4349735744536496
-0.2855346629723418
0.1919730205760812
0.09356164311895331
-0.5835482203124465
-0.5154341107806852
1.014147084884746
-0.07908320868011731
0.00987400929893169
0.825491482295878
-0.8353654916771771
0.5716853164755293
0.6903514797533311
0.4387840253681252
-0.03114632092671459
0.431147372203681
-0.8079876193496458
-0.1026024663634061
0.91059008594345
0.502390590032029
0.2541317243476608
-0.7565223146418281
0.004908047437339311
0.5312649440891727
-0.5361729889482174
-0.4900074096403436
-0.6042195802449005
-0.4228238823436933
-0.6940353061719466
-0.02751344735188108
0.2708620804843475
-0.2433486336496546
-0.9249034750895327
-0.005185952035595831
0.9300894270303586
0.3080247120616696
0.07531212242909807
0.7617515368428083
0.04897282231385339
-0.5328968405455925
-0.06258099452543052
0.04611449504459917
-0.8541021177317765
0.0772796635137334
0.8621862821716118
-0.9394659458762679
-0.3471052919304112
-0.04056278812712455
0.3876680783027883
-0.6822702362770336
-0.2426332314057963
-0.633516778866675
0.7107964439006829
0.6126454607250226
0.2168425904894923
-0.5432984217214307
0.9459313403344231
-0.7790689001256417
-0.1668624404473423
0.01368599612948712
-0.005240236949376254
-0.008445762060095664
-0.403311565046603
-0.09505960731587405
-0.2418170472421692
0.8544625120973313
0.0485501425484075
0.3333868738623106
-0.3819370168058338
-0.4616332896154913
0.9640238822237943
0.6803365772359197
-0.7829390464724904
0.3180247271311592
-0.01453038736326103
-0.3034943471348243
0.9306889324804862
-0.9306889325008799
-0.7820495829116653
0.1115292612310402
-0.3236483408296891
-0.7499720737471146
0.7598460903649129
-0.09128302161056336
-0.1429036369214615
0.2341866570441722
0.8648646917215805
-0.03937319844565304
1.054637631763867
-0.8005059057087036
0.1866734202584448
-0.3163612204797017
0.1296878014243943
0.8584542537116215
-0.09670271725267726
-0.6113771422789661
-0.03937183533672235
0.6507489775279695
0.1235139455213129
-0.2304210426820376
0.1069070964667298
0.80552647331967
-0.9832073025748745
-0.4341865590036623
0.3290496778740841
0.1051368826715773
0.5334903283771556
-0.5565206015559683
1.022031392235043
-0.4562628639645431
-0.5657685284314938
0.599207512689112
-0.7192612164357333
0.06643121330071004
0.6528300037125245
0.1019319425049684
0.5698408772305045
0.05488011361282964
-0.6247209906928745
0.1950101242049323
-0.08348085078295411
-0.4921540103904358
0.1450487073584715
0.05031067867042612
-0.8865124192304913
0.8362017406128582
-0.4744193622840289
-0.7131936569130841
0.04891490351334501
0.4366976894084389
-0.005550323782675517
0.3001160574620174
-0.8553078212433103
0.5551917633950298
0.4157571581395367
0.5842428420699463
0.5606265327321721
-0.5145120403872091
-0.3665748598144192
0.03939388038195505
0.327180975841815
0.6812633506184919
0.2494255769076595
-0.5677978752611048
0.5727059238673908
0.1115534646353361
0.8748129188663716
0.01028733538932897
-0.6216644805405371
-0.7491131725418237
0.7994238580724651
0.5304690433824714
0.07107906901746895
0.3002639171967513
-0.3713429856785211
-0.1675062505375748
0.4450034756190772
0.08626146299310163
0.8737328017717371
-0.8028357756838339
-0.07089702629529068
0.6354817880816552
0.3104495507331158
-0.4308250123939752
0.5743887515418975
-0.5033096861886546
0.4170334903849797
0.1326535061157293
-0.04678844730006072
-0.5899412521626459
-0.1395745785132666
0.7295158309097809
-0.1496861323785498
-0.7810028025846331
-0.6110618629802061
0.3601676513938697
0.2508942112613801
0.6220504068539314
-0.6117630702928003
0.2386432337962558
1.011741082635049
0.0428965510010765
-0.7491131692836097
0.2228718325455182
-0.2091858401398342
0.6803365722164387
0.8019464605503737
-0.8019464607146433
0.8375974937776083
-0.8331113447012197
-0.004486149201057429
-0.4453350806412381
0.8610922421550466
-0.147436109109346
-0.3447179078791738
0.7347725107890138
-0.6685739199597582
-0.06619859073894926
-0.7357434698777856
0.1458022159166381
0.1391420656355966
-0.6720389021598895
0.7829390478504372
-0.9504452983888029
-0.3666324594254906
0.2858936584548424
0.0807387920321742
0.1457016948767186
-1.009975177464634
0.8642734825051627
0.4805914681457624
-0.0418074427687782
-0.3080713825615682
0.5862269319635216
-0.278155549228264
-0.7385246381283362
0.8842263252889833
-0.1570184948284287
0.7327455055737508
-0.8366266466768413
0.1038811401472814
0.9776484680464372
-0.5397173143143269
-0.4379311540054513
0.7551580143135348
-0.06489758720439338
-0.03582675812861801
0.1855357668899601
-0.1497090063420158
-0.7757746431215983
-0.8396900502057162
0.07206847736028757
-0.7499720673022199
0.513974861407441
-0.5545376603934485
0.09773074204473256
0.7159979389511075
-0.8137286809791611
0.7535992935220936
0.1742978681442721
0.5029233852604601
0.4970766147353
-0.05516852710524411
-0.6093515284776192
0.6645200582951497
0.8788357883197142
-0.0051029873991219
-0.7551580143114769
0.7994238611537293
0.1916207288184618
-0.4472895017780447
0.0131248533747535
0.002943421415694086
-0.01606827372421311
0.5892924028819198
-0.437514127975259
-0.1517782739875765
0.7180237938646664
0.01188374802653206
-0.1069445439717141
0.4387500494933155
0.1505423471857963
-0.01486960568432147
-0.007769657140138528
0.02263926229623697
-0.03223848624586863
-0.00358827456280391
0.2456743636280483
-0.2602047572716739
-0.9589649541914952
0.001765896113494414
-0.1595410929957114
-0.1209580960672466
0.09472394882126753
0.7222068342617004
0.7289350259337712
-0.1446921875596563
0.6695745793881605
-0.5718438354010242
-0.2119710058252851
0.3986444200604037
0.6956280929009537
0.02239570085743357
0.2417921473038575
-1.074903481586784
-0.9504453041703222
0.3024743884075518
0.7598460971085368
-0.2093107003900402
0.06640705930600777
-0.7239727259124897
0.9100584532824109
-0.1860857276754432
0.4159690114791592
-0.02830094472449728
0.771304163388433
0.2807387758035417
0.3763395559676008
0.069778724553685
-0.6587147331539785
0.6587147331583129
0.2148356153133096
0.6957544665745518
-0.05617742416981741
0.3895642999766721
0.3787961486406523
-0.01230432118490308
0.02542915392635547
0.4484295764082315
0.03216189136003539
-0.7385246432380478
0.5339824807302409
0.2007900367608564
0.3005592701008278
-0.1150235269854559
-0.695628095236451
0.1794890442280734
0.7305694057574018
-0.01027973235681145
-0.8135767130648042
0.8238564454632973
0.6964135030598627
-0.7919484605639122
0.0955349577305577
-0.7535993044455727
-0.1511644909496056
0.2123506550573069
-0.06118616328876905
0.07758064910673294
-0.1781768331468578
-0.1134368166198203
0.2916136529405986
-0.005279226068931561
-0.009590372424242589
0.7064965507551858
-0.7167762809209224
0.8869060251119384
0.07285519338278947
-0.3155090985043731
-0.5203920749063482
0.8359011741347453
0.1040870443596932
-0.1040870406866169
0.3252875208155909
0.4730833515298972
0.6159553497286006
-1.089038701856244
-0.1940775727855457
-0.585591362629835
0.7796689354257709
0.01371898202562776
0.2204676694169888
0.3762336453071198
-0.2527196929084758
1.01587916167207
-0.54279581122776
0.6683767796743857
0.9934448852809057
-0.3774895360496963
0.2287975345083018
0.8842263225596846
0.7126591642980158
0.2139044900363212
0.727766727159658
-0.7810028063217878
0.3412852645740525
-0.2813587356928836
0.2562171108460719
0.02514161524131446
0.8475562091739043
-0.001123615582260778
-0.8464325934485362
-0.7022154495509876
0.7026635494636747
0.5546649177660496
-0.7022154500794429
-0.7126591643964415
0.7026635481153419
-0.03430755133595604
0.9096426425340209
-0.02273661615515189
-0.6812633507954231
0.6122815919858909
0.06898175871221858
0.5384941115674736
0.537596663328615
-1.076090774738947
0.4875050501629545
0.5283741115194881
0.5464156490788705
0.4574861590088825
-1.003901808082494
0.4925814518489171
0.5008634332238564
0.6122815924440705
-0.525601182091095
-0.4661376888160954
-0.5566342442882642
-0.5143928547745581
-0.1206287010844176
-0.01261728823403392
0.01261728814533685
0.5115107813480293
0.5241829038253127
-1.03857575882008
0.5722360944408482
-0.271972179416946
-0.8839016333452768
0.3441843207309689
-0.6330173766558479
0.3903841461200021
0.001464808487828618
-0.8256187705783945
0.8241539617036673
0.4208636472582247
-0.02285727609086791
0.8704134867889702
-0.9490258776174773
-0.8328483941308569
0.0543759669548647
0.7784724268289817
0.5642603402883648
-0.4399020702076875
-0.124358269013077
0.6502726233502328
-0.7293558351694268
0.8885889730544221
-0.8282016770316262
-0.06038729620977556
-0.0137089901123345
-0.7891267859104183
-0.1107777913369537
0.7120200901153542
-0.6012422988226525
-0.9395966732715009
0.9258876822736751
-0.7254048993004069
0.6896397543554319
0.03576514478430865
-0.8072997211054572
0.03355163632954269
0.7737480848037458
0.06195749991181224
0.04212956257207763
0.432769568691585
0.06043690818514737
-0.8513368102077735
0.7908999017721873
-0.6458900152016481
0.5907214855054486
0.8881864650068043
0.07289035741767717
-0.9610768229573348
0.05533806790336836
-0.04968165026727054
0.3768626215225155
-0.381953081988018
0.06559185211203143
0.8410916997926512
-0.839626894793856
-0.7344445270388006
-0.8166844068321817
0.02755761920755288
-0.1643480573319529
-0.8503700454845825
0.02216836647915105
0.6215237572775494
0.04805082874088708
0.02944405731844262
0.5348162769926851
-0.8128363758417603
0.8463880130238566
0.5657685284090102
-0.8484760510503908
-0.8667063187277902
0.04293632240161464
-0.0272637064242537
0.8354084583578394
-0.80814475208579
-0.02621609023718053
-0.7617082324705561
0.5442998899965692
0.152113608924129
-0.02257208243686471
0.8929855678899894
0.9802636470438898
0.8626303099581391
-0.8404619455887417
0.147962570798777
-0.147962573883751
-0.1177705459771214
-0.4702956218449034
0.03039355204033633
0.2703835497990978
0.03209083858964855
0.3882233094659818
0.8667694774346802
0.009346775031842945
-0.01462599113697529
0.6585828770554135
0.3414171229876253
0.7836621582928249
-0.5835482194956124
-0.7781102026029241
-0.8092683663353041
-0.6798734358118564
0.6798734357157341
-0.1681536133175833
-0.1554947222226184
0.6023822363290653
-0.8116941826089886
0.2093119462133485
-0.4940466287283599
-0.5689040778869298
0.27799914595877
-0.9720344531966997
-0.8998887352213347
0.8395014371487209
-0.8132687530146425
0.8408263721645383
0.6486283760626051
0.1341575658426306
-0.7827859418518046
-0.7735032216692187
-0.1464065222391732
0.7247946254143021
-0.5783881028479797
0.03311925837419226
-0.01198698951995596
0.01627016169399792
-0.004283170965208498
-0.3534496372030919
-0.1168459838728377
0.8803813846432889
0.7473322061077534
-0.2449506114901552
-0.5023815930250336
0.6229739364198893
0.6857252835831561
-0.470889669313704
7.585047397418859e-05
-0.285610512427147
0.01424066455615839
0.7514178206416127
-0.7656584856834397
-0.3234060761779276
-0.07318408425659505
0.0764607287471783
-0.9657880228434311
0.1193554301558055
-0.6775366135224249
0.05339328164509707
0.6397688375355125
-0.6931621191217434
-0.756008612587592
0.07847199899246424
0.5884875435473689
-0.6616716277904993
0.1575286762993702
-0.3357055046975611
-0.7710308249121233
-0.002472396577658354
0.3710848192357991
0.599943343442418
-0.02555459165129483
0.01898517388047492
-0.01898517805436303
-0.02038693230118749
-0.04856161729538203
-0.2327970924277687
0.02859444743814827
-0.01924769335649699
-0.7229799932338004
0.2792733350113175
0.6801176413141269
-0.6887416607103398
0.008624019462527865
-0.5937210788606762
0.647114360145679
0.6541137318102734
-0.06562618532677671
-0.6306686068532225
-0.1253400102632389
-1.050680871577819
0.01106396028630072
0.1368986064716098
-0.7087393217551234
-0.7414464058974957
-0.7636215440356249
0.3660456795491575
-0.4068536531096705
0.4601089894143714
-0.05325533887833225
-0.6624458664194853
-0.0462934552404084
0.5013462519955936
0.7306857462458055
-0.2358225162302139
0.1148644267320262
0.9682604184175146
0.4468248241809637
0.1327372630206388
-0.5795620871087362
-0.6766877086383598
0.0142418492048125
-0.04467931802739409
0.03269231050603601
0.6364178583328507
-0.7759924390172839
-0.001800791267781788
0.001800788814661681
-0.6010760320669294
0.6492299551610398
-0.04815392218750643
-0.6472436484653541
-0.1133489227636683
-0.6715351614530775
0.06107389100957454
0.6034461664700987
-0.1374454895160918
-0.8179416881602201
-0.5724653844294929
0.5684508298303169
0.004014559984352718
0.6284486218192914
-0.619824602665291
0.3225678219547919
0.2137755861005562
-0.5363434081403174
-0.1050285463519016
-0.6014110370254114
-0.0917510817904081
-0.1542512050001004
-0.5113914867261358
0.4041563531969204
-0.4992159599097848
0.1267624782398096
0.6785304138544562
-0.8052928924762803
0.5992075126583067
-0.3680760920184774
-0.03877756131491659
0.07861617880836388
-0.5900076528712949
0.5514359505299353
-0.04061793531219809
-0.5108180156286269
-0.3131658173681421
0.3057520002034477
0.007413820070178949
0.4535862603115028
0.1186498325182087
0.05270269022181422
-0.316583621532055
0.1575839379672995
0.158999684009056
0.2313520268280795
-0.008480201644941485
-0.2931053630510334
-0.3099681777034551
0.349435085812574
-0.03946689863345151
0.7877322116971063
-0.6257043510503805
-0.021539296027801
0.4992296873817175
0.2835919920502047
-0.5285426043074462
0.5774885438955777
-0.5774885438726995
-0.2897454196005094
-0.5864527500042924
-0.2955862313742926
-0.5864527500792844
-0.5950311471683589
-0.8384937707195036
0.1699198584937139
-0.5953108034782773
0.8211108916184908
-0.003101724390990792
0.1174544685796042
0.4824888711428006
0.0967883519255601
0.1861055376733627
-0.03650211699411796
-0.1496034232702418
-0.02685996494603388
0.5913913831584845
-0.9440877618714174
0.4236956868391504
-0.00825372307666971
0.003893162867680765
0.004360555644820207
-0.6440142905858777
-0.1319117884252172
-0.4684894291639681
0.6012266911398836
-0.5035126055933089
-0.3263217099330942
-0.2636859609080078
-0.2714035156847224
-0.1114853420580495
0.1114853450824365
0.1530202826847372
0.05933037258968217
0.1971694950237524
0.4516287957556434
-0.57104072316654
0.1025512967015083
0.2479633978643982
0.4665187841577555
0.533481215748558
0.6434241795705041
0.0881936717985473
-0.00483614099901015
-0.08335754995748741
-0.2771087033346052
-0.5408329842561281
-0.5506956459994838
0.1148318022734589
-0.1266675545354594
0.01183575262713965
-0.1054292069057705
-0.3853358497889162
-0.0497031008744775
0.6531492715527448
-0.4991219952745197
-0.1448922954456126
-0.3315619619797505
0.2882549802498382
0.1282735226160073
-0.6181372812880283
-0.2046557340234821
-0.2630194981551873
0.002814749507414065
-0.4217194209789004
0.3238770204185262
0.09784239943253575
-0.09558596188652096
0.2917305989162235
-0.8959501806071671
-0.4574222442964322
0.6262893076304665
-0.7732543639790015
0.6682258176442348
0.3398826497557011
-0.1240560175010397
0.2237202375241942
-0.09966421993024127
0.02728975830380628
-0.5862721948431884
0.02879627648998779
0.5574759185526506
-0.9006056031840279
0.5478884245339193
-0.6656589710520738
-0.1045863261991795
0.1099020239277189
-0.1099020237952323
-0.3165077722566309
0.3592156721955639
0.0176469460949221
0.02888837683071302
0.05930530445098633
0.5049144472023618
0.6653430169997261
-0.7362400442281092
0.03183179598985185
0.02078119696523005
-0.001796029756377846
-0.007098730042349616
0.007098732165636044
-0.41348587104877
0.5321356991780626
0.01576679204918345
-0.01576679215891192
-0.7925428155619112
-0.06116120933879592
0.123118697068331
-0.456595896535707
0.5591471882390244
0.4521514730569398
-0.5003053917225867
0.1503212421520872
-0.1503212458101372
0.03306837092765873
-0.007639218858523179
-0.04255183565460369
-0.9751606588740563
0.5372295069469808
-0.4667411966634927
0.04212955430947832
0.5150763120449433
0.03071106768992087
-0.5457873794321348
-0.6165016915843976
0.1173796922002047
-0.3290090800118118
0.01353068735902832
0.3154783907466946
-0.1558350537309769
-0.07998748411196142
-0.5410395417170687
-0.04523266077690152
0.1368986104616613
-0.03996256438746475
0.03816176807212512
0.08049617681347032
-0.08049617997427373
-0.5271685845241956
0.4877016800565638
-0.4149087443723607
0.1613125668020203
0.622349591438496
-0.09707321671426589
-0.002714989243478434
0.002714990914867721
0.5329499970329196
-0.08332100207635984
0.005814980601645597
0.02699659501657019
0.03503082975341288
0.6854551551150175
-0.7687761567465758
-0.6535790588585804
0.6320397619806242
-0.1075255252785368
0.3139553536542879
0.7456895466589477
-0.0203869334272986
-0.2657965089278296
0.1507729660172208
-0.7445949516836028
0.4838865390471918
-0.4280340116774831
-0.1014253831547649
0.00326034138628751
-0.01430057808026228
0.02375831846361941
0.4109580403019704
-0.12151852713975
-0.389299498927034
0.62885262147182
0.01971599304456415
0.00961408929493166
-0.009614090736543067
-0.3504291441705093
-0.07553980413755532
-0.5602433608068463
0.5571416367343093
-0.2374928247625046
0.4647084089073897
-0.1510255480426373
0.7311166867200026
0.6698633773209255
-0.03996255671673108
-0.6177677638024744
0.5629188336186016
0.2851111768592103
-0.2803625185490852
-0.004748661736647201
0.5364537960638414
0.09342068544007219
-0.03901016975743363
0.1958589601020551
-0.1568487909191302
0.1195063647780543
-0.1195063643837085
-0.8586494966264834
0.002358660238818071
-0.1136886460840873
0.1406852410927041
-0.1314985630311021
0.1314985667270094
0.02078119850686287
-0.02310193237661221
0.6698255593220176
0.06074384251802103
-0.3225771555851787
-0.06275869620117318
-0.471248863101746
-0.04645076415616831
-0.1512061842534597
0.1512061884111868
-0.05028917629464805
0.1437273886897131
-0.1437273930321415
0.1360474903679602
-0.1360474883539502
-0.3161680431031036
-0.1146569695053957
0.2259430737096631
0.1031065995001383
0.03479304915401411
-0.8211874135437859
-0.1986067022742058
0.169879246421077
0.02174148406980408
-0.264190734419181
0.1262372726251359
-0.1262372764635023
-0.4143138237193183
-0.08490213819073271
0.2356806210516709
0.002835071417462602
0.04053362457617727
-0.5442919327521695
0.578599484105638
-0.03741664107073083
-0.01287254452386497
-0.02545247059097638
0.01781326119102134
0.006593849855178713
-0.1848530759407176
0.1782592252128268
-0.1086379468707663
-0.2270675614544633
-0.1443313919592714
0.1443313962687843
0.07244451373779059
-0.07244451116201954
-0.01896394476310311
-0.1085288917001239
0.1274928350412482
0.2360362499348767
-0.1834780216992743
-0.02754859081886106
0.02575259540305963
-0.1315258869646802
0.619227570457095
-0.03904081755117343
0.4276213032404032
-0.04321912600237347
0.06585838395098598
-0.1529104854294318
0.1529104892813474
-0.6368627031448779
0.3080621214159265
-0.0792645915021571
-0.2340270474976181
0.003606013899753284
-0.1205921575827932
0.161125781462329
0.1958912850989191
0.09572237094688028
0.09696336789340951
-0.06193253600645417
0.0731724997974882
0.04165930163841442
0.06418542648352604
0.1056938208869198
-0.09941380156794483
0.214278236523017
0.0114148980312692
-0.1186614844743952
-0.09962332961398765
0.09606290953775398
0.003560416518353293
0.01116710894308579
-0.0235031374493533
0.03738823180221441
-0.03738823132420405
0.07526680635941536
-0.05534946599734253
0.05534946635281257
-0.2243691399156134
-0.0528031119991435
0.01168852823054727
-0.1030660089881054
0.01654113337209792
0.1088445146041267
-0.1088445168621154
0.2937336933787811
-0.2708639588644871
0.16222601232725
-0.05104307272605254
-0.2198208880884016
-0.01688383704089601
0.01688383580082426
0.3676582376281654
0.285171765101724
-0.5281390559978461
-0.0939369200168433
-0.03273063832454161
0.5289708015448075
0.2105837743274978
-0.1700741330036671
-0.3794977027470867
0.07651594000230855
-0.1471682371258999
0.1867296466556632
-0.03956140813593654
-0.06718521667549146
0.06718521473355607
0.8222054866378908
-0.5604019738682673
-0.006096061881859025
0.01726316387210345
-0.02001322638112332
-0.2874065124328551
-0.01749011754520316
-0.01283281192340879
-0.1321996455045671
-0.5723150559191968
0.5561510057275966
-0.569159949503155
-0.006874793633792238
0.1009212999245065
-0.001704283262137408
0.01686299204242452
-0.1671814651233131
-0.3360601160709355
0.2329941063830549
-0.05402022593058715
0.03505627799902686
0.1321107321035901
0.1736412691844548
0.3417725482256895
0.2758308743141595
-0.2775351594151494
-0.06146156145790421
-0.1552957807572724
-0.2204963639718069
0.07452461026291685
-0.01033918223661838
0.2134292914546115
-0.1965662999276067
-0.086280496082587
0.1594529977106664
-0.3553843636920004
0.2078918598301177
-0.1913507254403097
0.08958304963047416
-0.478882549039731
0.1738968358741997
0.1707552861863889
-0.2570357843213758
0.07346022616421341
-0.1949293690842442
0.1774392517717153
0.01739274733748612
0.1420602493388248
-0.03958268314419727
0.06561356248756058
0.4673364346190725
0.02050439044625568
-0.08597826381725021
0.05364610767860029
0.1263846636544436
-0.2600577724363694
-0.2309232396838325
0.5597447073066197
0.1569511733498842
0.07872944735958586
0.07455713925209567
-0.03101446514352174
-0.008833880309193083
0.004085227072972586
-0.03265062908995165
0.1706280604812086
-0.177502854803784
-0.06221994788039038
0.0196565320536578
-0.1472447601247871
-0.05286911591195339
0.1520582825427457
0.2770362225713909
-0.0396150515676731
0.008979366259131198
-0.2553685006730152
-0.1327905916831222
0.2363471350219496
0.1783436720032702
0.1297184481088349
0.02207856216467945
0.0884520195274356
0.05245686521045777
0.4524575818680381
0.01497531483381504
0.09803610007207259
0.04298980832553546
0.0723133219643038
-0.1153031277682582
-0.2429672936942147
-0.2004222289034314
-0.01939866211799194
-0.201846328280374
0.2747671580158553
)
;

boundaryField
{
    FrontBack
    {
        type            empty;
    }
    Top
    {
        type            calculated;
        value           uniform 0;
    }
    In
    {
        type            calculated;
        value           uniform -1;
    }
    Bottom
    {
        type            calculated;
        value           uniform 0;
    }
    Out
    {
        type            calculated;
        value           nonuniform List<scalar> 10(1.033920699980408 1.064095294979394 1.022771933076828 1.020955563870667 0.9950828243785385 1.0152562878499 1.035693684477681 1.062950706409762 0.8672339651710462 0.8820389814421771);
    }
    circle
    {
        type            calculated;
        value           uniform 0;
    }
}


// ************************************************************************* //
