/*--------------------------------*- C++ -*----------------------------------*\
| =========                 |                                                 |
| \\      /  F ield         | OpenFOAM: The Open Source CFD Toolbox           |
|  \\    /   O peration     | Version:  2412                                  |
|   \\  /    A nd           | Website:  www.openfoam.com                      |
|    \\/     M anipulation  |                                                 |
\*---------------------------------------------------------------------------*/
FoamFile
{
    version     2.0;
    format      ascii;
    arch        "LSB;label=32;scalar=64";
    class       volVectorField;
    location    "460.5";
    object      U;
}
// * * * * * * * * * * * * * * * * * * * * * * * * * * * * * * * * * * * * * //

dimensions      [0 1 -1 0 0 0 0];

internalField   nonuniform List<vector> 
808
(
(0.7562686511658659 -0.01752322586978255 0)
(1.031277416208567 -0.01249546226506377 0)
(1.115566466550338 0.000277729216113 -1.777979316528385e-20)
(1.08513030531926 0.01257283537320056 0)
(1.360634844750297 0.01421596315780379 -3.849568343151449e-19)
(1.038658464348597 -0.00939893549681909 -7.22817408946672e-20)
(1.014105489311002 -0.02027634229783624 -2.375589690558772e-20)
(1.07873632150663 -0.004710758045252708 8.951468150297568e-21)
(1.252110954434349 -0.02096152812885244 6.295439943820469e-20)
(1.084735559055286 0.008840140312978332 0)
(1.010662921659996 -0.01245838849109362 0)
(1.3033733326098 -0.05354003440517023 -3.493964914067481e-19)
(1.086162437184626 -0.001599982258737066 2.03401853606451e-20)
(0.6750693964067144 0.00640146364724632 0)
(1.280621256042414 -0.1227844669185664 0)
(1.081893413668676 -6.567680904766092e-05 -3.828243334685196e-20)
(1.230126937859174 -0.1534883373201517 -9.913814067470916e-20)
(1.074408832924591 -0.0002505932411713221 3.171966655170812e-20)
(0.9904970698259747 0.006525897408399498 0)
(1.026957812281331 0.009160416284785896 0)
(1.039089378201162 -0.01569660587187416 0)
(0.9875490609393311 0.04526311867133511 0)
(1.051040745501069 -0.006220260107416103 5.695860986772974e-20)
(1.053639357879403 0.008220514803928968 0)
(0.9337619250771224 0.1997805532087578 4.577863286719461e-19)
(1.162474223454647 -0.09104490777376252 0)
(1.184268922159012 -0.01952886160036379 1.555728194945309e-19)
(1.077193880611389 0.009551667235916144 5.222141925033703e-20)
(1.084126708290675 0.001823447770731633 5.090195424145331e-21)
(1.072006431910054 0.0309860974417456 0)
(1.07552961646769 0.002520775350604475 -1.179326279635317e-20)
(1.033411370833858 0.006244700911684485 -1.903433796504785e-19)
(1.059940739407982 0.01466811114143218 -2.383043816104535e-20)
(1.088840391695493 0.005281889944014887 -2.931209533011912e-20)
(1.120478154861888 0.03641129330090233 0)
(0.7549306913344253 -0.1201602889292383 -4.54743131686947e-19)
(0.9544169227881754 -0.005734018031510291 0)
(1.068941277008896 0.02243802245816093 0)
(1.068835053263317 0.007240888000675811 0)
(1.073687083597069 0.008670116974646111 -2.823374834418107e-20)
(1.092702674569945 0.02257932341760036 1.088987503988502e-19)
(1.149620811890166 0.002213934904504826 2.13519129759645e-19)
(1.095557688911426 -0.002456538239882061 0)
(1.015585966008762 -0.009353371892110005 0)
(1.127615092538514 -0.09750493019492186 -1.658821249492144e-19)
(1.044059835153456 -0.01180034955667084 -8.202782333877446e-20)
(1.058405551647451 0.02669228615440012 -2.768535076426369e-20)
(1.229154624120979 -0.111884220130499 -5.594065362758863e-20)
(1.067671151796216 0.01220993099007443 -4.14583410586492e-20)
(1.255382910120847 0.01580765599466944 0)
(0.9972161908662933 -0.01821416963456297 2.121119644896728e-21)
(1.04459732834487 -0.002558766937968131 0)
(1.087301031104841 -0.002366726130940173 0)
(0.9975854606313882 0.007627765295740711 -1.912647356061735e-20)
(1.252759226845248 0.03303779788083841 -2.364887391182925e-19)
(1.063733776381022 0.01839226968191202 5.980713502592601e-20)
(0.9882273185004542 0.009944450941287226 0)
(1.015429237328458 -0.01046942015244771 2.513137970770635e-20)
(1.106823189243455 -0.001565831681798036 -1.169249073799548e-19)
(1.061733700290839 0.03127940795113418 0)
(-0.0674081604724342 -0.02770198329426052 7.35702469877457e-20)
(1.153627872480329 -0.05206466667878686 -1.870272901722797e-19)
(1.001780086704442 -0.007992625224826543 -2.761974976745192e-20)
(1.185120267921825 0.06448591901476093 -1.204990055346467e-19)
(0.9975046298852296 -0.01068980327127017 3.039853889900402e-20)
(1.083815737074093 -0.005520502734606513 0)
(1.244006078471505 0.09240386150511615 0)
(0.6960274627875789 0.003173422351433996 -7.470225016289289e-20)
(0.9893903667471744 -0.0159460830546733 -3.166305213589322e-20)
(1.456792725158103 -0.01848335037848518 4.433695158749914e-19)
(1.060678391153575 0.007560551456584724 -6.652227733716715e-20)
(1.364325660144654 0.09542259297771796 2.876899242684905e-19)
(1.054825990998788 0.006733438833027485 -1.870970382333275e-22)
(1.081049766740775 -0.0141595663713658 -4.041632763303444e-22)
(1.162715290702174 -0.2348707581609464 0)
(1.022689626269716 -0.01464948099705721 0)
(1.017998267464166 0.01778493404981938 -3.050627226376584e-20)
(1.389456909224895 0.350012166512619 4.212154178863799e-19)
(1.097177209298409 -0.04206235982332569 9.43222562303223e-20)
(1.046734421256263 0.2111681825083462 2.446281492215775e-19)
(1.12325418118368 -0.06334629196501974 1.169557008923928e-19)
(0.9221345380373075 0.005196669158828182 0)
(0.9755012127966095 0.01859154287641383 0)
(1.004001568122591 -0.04853140751019418 3.020339943397247e-21)
(1.010820064318646 -0.01352144663808492 7.567098491831078e-21)
(1.031241047598588 0.02595804608981777 1.371075343658106e-20)
(1.525671331847681 0.0354173864730685 3.239501913106295e-19)
(1.291770128275333 0.07064892975145537 5.57537889554693e-19)
(1.072724388321172 0.002903577501612417 -8.97046387063594e-20)
(1.19660046712019 -0.09935681985256907 0)
(1.033959955890735 0.001481764536105546 1.308580554162382e-19)
(1.163603537321938 0.02040516488201883 -3.156225372438111e-19)
(1.001517266995669 0.03249298739569937 0)
(0.9996301467887675 0.001977296876729714 0)
(1.044171906283723 -0.0003720515151181787 7.875961299157258e-20)
(1.212995277713917 0.1013264830095108 3.994298549285716e-19)
(1.011132442201289 0.006940743409198198 0)
(1.087674478891361 -0.07093099324697948 -1.064462933436974e-19)
(1.149792418423975 0.03512005532085992 0)
(1.211062659885394 0.08949241920000274 -1.882603877759167e-19)
(1.108175992733196 -0.02866643342341153 -7.711719436959219e-20)
(1.028027848801722 0.01166182803439715 0)
(1.08548440023632 -0.004658262886082805 0)
(1.02026882895697 0.02585976525877984 7.95505241208203e-20)
(1.07547259131547 0.05422792086813558 -9.1868765517067e-21)
(1.10362719233239 -0.00438860826397622 6.347895652588243e-20)
(1.104314918798363 -0.09571576742340049 1.542587621202568e-19)
(0.959906874890976 -0.003553701752520737 0)
(1.066515903889376 0.03145895865177838 3.757455106414545e-20)
(1.167389470443438 -0.07630713131577592 2.285608202715817e-19)
(1.054074617443968 0.04552598670456037 -2.875183890982919e-20)
(1.022950218138468 0.06801552411371137 3.677958122916484e-20)
(1.090645504168357 0.0262605056246198 0)
(1.012668245630737 0.01467352515665253 0)
(1.02896391205727 0.009409330275724043 7.888802300865188e-20)
(0.9486198568410558 -0.03224835268020094 0)
(1.053354462091095 -0.005558952652319233 -7.592563181784349e-21)
(1.338823321795511 0.05758823431164218 -1.562772583798185e-19)
(1.079740072622456 -0.01333832784219683 2.605049062017464e-20)
(0.7442111183525535 -0.00178686016129955 0)
(0.5373078805951641 0.1572009364687306 -9.413420790572284e-20)
(0.7058210409827202 -0.002504059432490012 0)
(0.6991244247718987 0.01467638765728251 0)
(1.077836575013204 0.00346051828928573 -6.569206577146885e-22)
(0.9906379980319882 0.01443832759412553 0)
(1.281085263376874 0.1225729678346224 2.525712190108747e-19)
(1.012236648727311 -0.02796975634650714 -7.548296195539284e-21)
(1.038717107400085 0.01873374007922642 1.276959420839732e-21)
(1.05837644763808 -0.01235464031672855 0)
(1.12635541370514 -0.009259418041896722 -5.059758543097117e-20)
(1.25846209380546 0.1245174284969586 -2.160762680019896e-19)
(1.088781726050216 -0.01096174700096895 -8.504458142716306e-20)
(1.070803978306395 0.02503558115039281 -1.079400507345535e-19)
(1.041060231549837 0.04676304723386333 7.224830298303238e-20)
(1.022315343107922 -0.003535792228024346 -3.453274339609442e-20)
(1.061407215766377 0.02366670045081997 5.848118661662118e-21)
(1.13652914456334 -0.001877772579742793 1.064686777460488e-20)
(1.041108455568358 -0.01255398262729191 -4.671158836449857e-22)
(1.087740320352182 0.03483064631698374 0)
(1.028772081474331 0.01334233641182075 0)
(0.790489876171882 -0.07288903446665357 -1.847498184358559e-19)
(1.030269859072139 -0.002136599381358623 -6.665869716317379e-20)
(1.137738583581436 0.002045002788497999 -1.305372163228959e-20)
(0.7035494583951687 0.006547136899614514 7.254316727905636e-20)
(1.176218539758225 0.01901834546541412 -1.947816620375905e-19)
(1.128148107468691 -0.004201852673885808 5.800730670181796e-21)
(1.129050822871689 -0.01010754702203631 3.402070305340614e-20)
(1.000937712564348 -0.002987765365365604 -6.987816848814607e-20)
(1.094144076612657 -0.06033311156673007 0)
(0.9869395802710393 -0.0003717397717498598 0)
(1.057992700447502 0.007048726658346213 0)
(1.006175919249383 0.189684443321468 -2.395456708413558e-19)
(0.7795325194025133 0.01242514341142896 0)
(0.8570068827079342 0.1034426047518232 -8.276556401020217e-20)
(0.1032872952385773 0.03620351642777354 -3.047153349451305e-19)
(1.173141928829891 -0.0323025359029648 -2.264405784404583e-20)
(0.6712490057228324 -0.007369090490802817 2.443137043071839e-20)
(1.1635980897443 -0.1062315041117007 7.00778934904029e-20)
(1.128886899967636 -0.0009427067669307566 -6.140091655502546e-21)
(1.154850574142259 -0.05093949130557468 2.200449994986328e-20)
(0.07683900600842193 -0.1898143122765399 0)
(0.265961937944327 0.07026768789475545 0)
(1.254023762471628 0.1058728461763906 1.864514229308434e-19)
(1.021591601357647 0.01988400157838113 0)
(0.7375511032459684 -0.006324051770492635 0)
(1.074861194197682 -0.01174015431163338 2.706050592756526e-20)
(0.9752488219804663 0.002854026112826305 0)
(1.287216481530222 0.1213754576446823 -1.453774678543599e-19)
(1.057399391551313 0.01112739185001759 0)
(0.9924241758675656 -0.00820779711510914 0)
(1.065328110444185 0.008027453777280836 0)
(1.006240954137816 0.02088927532006058 2.038837280339842e-20)
(0.9227618020669081 0.003462280347346398 1.236959592906224e-20)
(1.175161675844917 -0.1988421015006714 0)
(1.004986835182288 -0.005231458849999503 7.889252033214102e-20)
(1.059233083009725 0.006148475233965581 0)
(0.7745468365587225 -0.003353835651355939 0)
(1.215622665647513 0.02636593801398324 1.633235751654454e-20)
(0.7051328432334291 0.001334364178178167 0)
(1.431515481500192 0.08660375510549968 -5.193133695855788e-20)
(0.9935354107863155 -0.005949830192145604 1.658689727359731e-20)
(1.275938182155904 -0.003636169335707872 -2.974614612319002e-19)
(1.060057799238396 0.008806775198023772 1.349810394401128e-19)
(1.000897229738912 -0.01357990983257763 0)
(1.214359871448597 -0.1548839413777046 2.034206065603274e-19)
(0.733168914993694 0.0137901280488631 0)
(1.097969652756846 -0.005062679497788187 0)
(1.154232696304358 0.06408785575125855 1.937455296260366e-20)
(1.006442524572537 -0.007232902157411939 -3.028580089137449e-20)
(1.121832473858617 0.04940755454613659 -1.722436644638514e-19)
(0.1571993686160219 -0.08868143233306734 0)
(1.073774372672488 0.03702440222166183 0)
(0.6615008006550224 -0.002887814364299141 -5.790893404352279e-22)
(1.012066004015089 -0.01972319310946856 9.249223929274239e-20)
(1.061837392063799 0.000739287218375488 0)
(1.087792326300237 -0.1378754526243008 3.79039557209261e-19)
(1.002477134059795 -0.006162551256206086 -3.381735836883335e-21)
(1.001995015212829 -0.004151859016024117 1.300015419503185e-21)
(1.094025739801878 -0.009202167274120227 0)
(1.02079502123037 0.02016748302453762 -6.503826130548618e-20)
(1.106825364449197 -0.001679682435970445 6.444925389669282e-22)
(1.073802752503679 -0.01071466737231668 6.557339706098453e-20)
(1.085686496696095 0.02230206006630571 0)
(1.325041416244874 0.1605996694655198 0)
(1.002076782294865 0.000462554681523521 4.411159091135104e-20)
(1.323253119075308 -0.1317059755431967 1.578043740566783e-19)
(0.01964316874530068 -0.1396200721337047 -2.408294363968429e-19)
(1.071225483815421 -0.005513819670317246 0)
(1.115033609546288 0.0007433529942087562 1.212659205741611e-20)
(0.7269389488034366 0.01785795872584916 0)
(1.060053543794914 0.004547932987408217 0)
(0.8648503701737895 0.1639408177519125 4.6901814248175e-19)
(1.276979640152593 0.1180322088272373 1.819732261164667e-19)
(0.6541193881598194 -0.003116663461475099 -6.391550925709251e-20)
(1.041743291336732 -0.002044020857489328 -2.790459007840744e-21)
(1.054961493998673 -0.0002472779099130428 6.532855400727608e-20)
(1.359108898234813 0.1206827171925474 6.651550890367844e-19)
(1.33787669666141 0.2528545206147735 0)
(1.05744141047697 0.006779630318997999 0)
(0.9952736983230376 -0.005850688905693686 1.423218372105573e-20)
(0.9947223072793069 -0.007322066024830301 1.595247943928634e-21)
(1.385885211196737 0.200077402916429 4.301835459053244e-19)
(0.6817138581383001 0.0006434072227215448 9.87620157431003e-20)
(1.005683801043271 -0.002058523465903773 -5.98006026953077e-20)
(1.097978683741437 0.01308944280560836 2.545707464724552e-20)
(0.6694609812715669 0.004991428271021943 0)
(1.066081714635915 -0.01203277670616102 0)
(0.9895734351531593 0.1243571801226272 -1.281611094971696e-19)
(1.081861953842396 0.004134917038637807 -2.50952615411306e-20)
(0.981933053141581 -9.133129911551594e-06 3.295650439811527e-20)
(0.9912108344147575 0.005996262558304342 0)
(0.6382152249676903 -0.00115705431267852 0)
(0.9768569894795689 -0.001299664214742622 0)
(0.6419651202270895 -0.001459730388131008 2.71120815013212e-21)
(1.087381298156658 -0.05745536753177968 1.211252189031081e-19)
(1.109996082437012 -0.003054303674363715 1.211171211914613e-21)
(0.9580809817189389 -0.0009024985457940402 3.901545417375318e-20)
(1.016212744070318 0.01081683691731035 1.680775837203613e-20)
(1.06377353843254 0.00988050091738266 -2.157500261107892e-21)
(0.6348183899822908 0.008846708551543157 -3.635633836711113e-20)
(1.002522973835754 0.01276176792183084 -7.145500569749533e-22)
(1.036251279578832 0.01257871846444251 5.003714971099593e-21)
(0.9875520428968199 -0.005246535680492685 0)
(0.6100834367214446 -0.000464413478609495 0)
(1.068876435096927 0.02271779123393685 0)
(1.015745747558783 -0.01588557688266165 1.054520239204786e-20)
(1.021689280666043 -0.00179493028409225 0)
(0.9926829337241359 0.0149861814198619 -9.354571199451192e-21)
(1.011660355658325 0.006928285807870137 0)
(1.130715439652161 -0.004693072788237489 -1.268207093248751e-20)
(0.03255849920984246 -0.1375664071221566 -4.501133195729643e-20)
(1.035595998077723 -0.01570431319872655 -7.448240894001787e-22)
(1.045892085785007 0.009125668870913773 0)
(1.087756109341705 0.06642659905304704 8.386932123619386e-20)
(0.9694378437944955 -0.0008522828952134485 3.117730371030816e-20)
(1.020458112575445 0.01715194733265148 -2.293830987420184e-20)
(1.006353533569165 0.001137662435834897 2.431396416105341e-20)
(1.040433597192751 -0.005167787365000019 0)
(0.6409867663625914 -0.004036951101972905 0)
(1.025999066655578 0.02447805738901675 -7.714685180714458e-20)
(1.080232642656931 0.00574449838870846 4.94032944689457e-20)
(1.012521583010516 0.003491705750043054 0)
(0.9816828406978823 -0.001772244437435626 -1.907719512098761e-21)
(0.8678711088678474 0.02167193177848736 -1.46198019577078e-20)
(1.013949560192122 0.00305998312055005 -9.948659299566599e-21)
(1.026556094543241 -0.001187580796417135 1.778476622017643e-20)
(0.9781053567997363 -0.001365456940418602 0)
(1.005981014053299 0.008456808913683521 3.326692171419566e-20)
(1.106942241053701 -0.005183879771061117 0)
(0.9316643772848494 0.004339325367358714 -3.452187649402291e-20)
(0.9579169691041565 0.007360563397329423 0)
(0.906776159363199 0.2067408005899478 5.083268771472419e-20)
(1.011136944596253 0.06748633667573911 0)
(0.9912385783033089 0.003805688685935334 -2.314340755294562e-20)
(1.053157599013871 -0.05068241689215189 -2.735395690993986e-20)
(0.9923671708942594 -0.001437275092524751 3.367928479510583e-20)
(1.009166009992661 0.002121357912335435 0)
(0.9800902768081002 -0.0007135160671586136 -3.137917933446042e-20)
(1.175059370978772 0.09487501751969103 -3.30478138466501e-19)
(1.067775453822914 -0.2631396094362946 0)
(0.9948395164093699 0.001869616918914448 -2.206584312015433e-20)
(0.9809837240353031 0.009519412938915752 4.862708483395535e-21)
(0.9581824918275966 -0.000484257776654907 1.066736378460697e-21)
(0.7460293202586512 -0.001099171472740022 0)
(1.112867465510439 -0.07396880899866988 0)
(1.007984448956504 0.0003064319931932176 -2.148128860874397e-20)
(0.8988982335076547 -0.0024628225917229 -1.073077102126486e-20)
(0.8478304049452906 0.01258145240080133 5.877941553212111e-21)
(1.010069421791249 0.004401192230403341 0)
(0.9547735138432893 0.005032138635424792 1.603060420402327e-20)
(1.005817784556683 -0.0002124643110306958 -2.272585975305959e-20)
(1.023882072598334 0.002335006375944761 -2.515539447393987e-20)
(1.111341620854232 -0.006104222724082197 -4.897279006883776e-21)
(1.114316803285611 -0.004337905283271418 0)
(1.010928524616565 0.004147594422924211 0)
(1.025420447431288 0.0001216775575590003 0)
(0.950680267188123 0.01022383037954449 -2.154094165637657e-20)
(1.01788535219494 0.01315951434350261 5.513546463253195e-20)
(1.08185000490357 0.006931605347334647 -2.280899901420788e-20)
(1.03678267829887 0.006634377765234277 0)
(1.107305007357779 -0.005810796057531123 1.808533999762187e-21)
(0.996036385757435 0.001314350484356518 -2.216137803422927e-20)
(0.9811520558487461 0.003050062833300244 0)
(1.011229068406471 0.001911751839040531 4.692529316301059e-20)
(1.36272815858603 -0.3135425335218712 -1.1230760697681e-18)
(1.121465454292005 -0.04592716709887983 -1.101384887001327e-19)
(0.9754546317464926 0.0104002721466607 4.847695851969345e-20)
(0.7819221301610003 0.02490661295814664 -3.509618175845592e-20)
(1.220898324281452 0.04937388173233494 0)
(1.215049786311927 -0.1372467090960208 -1.472101054051504e-19)
(1.083090865635514 0.003370993371674116 0)
(1.009586398264557 0.001325632035144401 2.230569181317743e-20)
(-0.1784302094566547 -0.06841210492019563 0)
(0.9939716045897408 -0.004671968508550063 0)
(1.012359765071991 -0.0230925569091411 4.092382159446511e-20)
(0.7061388274089254 -0.01941262991549336 0)
(1.096802768095231 -0.01504353147009773 2.318137982910462e-21)
(1.040535074386458 0.0001354296587449651 1.450772013066688e-20)
(0.6331263886674662 0.004182727755081537 0)
(1.445155420931674 -0.1230471254488323 0)
(0.9864531371828783 0.002085500930153419 -1.077872679339172e-20)
(1.069619322085538 -0.01495940489688663 0)
(1.038080043764319 0.0005651723740134449 2.112033397542515e-20)
(1.087803793584226 -0.002784398598310894 0)
(1.009220493430778 -0.00212433996703493 -1.216424452405217e-21)
(1.006244957777633 0.003157815830338994 0)
(1.012964931752208 -0.007852629399450578 -7.888631098127493e-23)
(1.0033104703216 -0.02009922508100838 0)
(1.033901858032591 0.0009132001078431169 1.854180995219713e-20)
(-0.2140104597017929 0.05292765700162533 2.745681038199909e-19)
(0.8223888261672654 0.0404854002315015 5.793746027878176e-20)
(1.005274930865739 0.002369666348368517 0)
(1.125561818240657 0.02285153051431125 -1.316196285860798e-20)
(1.111805628728915 0.01389535645557224 9.592180111482987e-21)
(1.053826623996379 -0.01303859874406001 -1.306060662607544e-19)
(0.9987776230313152 0.01038554248385902 2.328044794796029e-22)
(1.083764484018163 -0.0001965028557726994 0)
(1.186240999082896 0.04982613010095589 0)
(0.8351144021322587 -0.07382489204943699 4.604526812404331e-19)
(1.098748616463448 -0.01506463943912009 0)
(1.032672743239516 0.007975744841397679 -7.600455408470736e-21)
(1.042783813983957 0.005353066631669452 5.872626783119046e-21)
(1.050487658877267 -0.06033209496131054 -7.508762340362537e-21)
(1.140177221081825 -0.002426231529953306 1.701471614060469e-19)
(1.076892009176372 -0.000634703579083229 0)
(0.9951368047305921 0.001659065807235307 0)
(0.9976152858285595 -0.02406838701020161 -2.311644721246896e-21)
(0.9916337014884378 0.002893437498001766 0)
(1.028878041124149 -0.0373488362912702 6.445393088008964e-20)
(1.294448236913435 -0.09757438910375352 0)
(1.046250436349951 -0.01258192106977046 -1.146798376100055e-21)
(0.9861686651501552 0.01680724875152908 -8.85597055334394e-20)
(1.035535875997389 0.04207862240465009 -2.362153409039799e-21)
(-0.09204134789314808 0.1873226573322115 -1.680059391529421e-19)
(-0.06354629717921553 -0.2812011981732611 -1.373793657506748e-19)
(0.8568112926659521 0.1137951396143078 0)
(0.2821406007055888 -0.004359556273876665 -2.93869522691981e-19)
(1.013636608779522 -0.01910516902998316 -1.275940677665997e-20)
(1.064007393343041 0.002629653267623966 -2.087904169020789e-20)
(0.9934977624456863 -0.02036237445165785 2.933728189343049e-20)
(1.025172524079013 -0.02657565333127714 2.552759177728199e-21)
(1.008379183765516 -0.03071261137926875 -6.632234875297827e-20)
(0.9886914411925471 0.004909385913964151 -3.483755049558399e-20)
(0.9937651842183086 0.004284975860982645 0)
(1.024561841166492 -0.001799890992975972 -3.572071128851116e-21)
(1.931281617044537 -0.1556180165527896 1.068912780079029e-18)
(1.05318887627719 -0.01894056294817388 0)
(0.9962648523889933 0.007188104965991897 1.507387071349928e-20)
(1.003017725964884 -0.000321338362445735 4.051907656741752e-20)
(1.177660034205453 0.1409023908795724 0)
(1.006560975119972 -0.01768286817067177 -1.122861869739939e-21)
(0.9520469585229823 -0.0007962350572297706 0)
(1.037849571659329 0.04171881794254232 0)
(1.292513519270143 0.1554955102753213 2.175705001712022e-19)
(1.080294293426725 -0.009878663560890413 2.283951000554263e-20)
(1.017653448364478 0.03231688741580966 4.605961744930769e-20)
(1.079476413956334 -0.005183561222430968 -2.202250678433132e-20)
(1.056007525680025 -0.0157364771838221 1.542842923841554e-21)
(-0.3846263446477482 -0.03478214280111324 0)
(0.9981967628978606 0.01325632376103259 0)
(0.1215122310320699 0.05855703438725607 -8.871947918149767e-20)
(1.005644669752985 0.02243515854784009 -4.068516676459716e-20)
(0.9987890343012208 -0.008377346208229953 0)
(1.00025167223734 0.005692490045126408 -5.002205394929898e-21)
(1.081624403468486 -0.04209246701347833 0)
(0.9956156365863176 -0.01873679474447688 -7.86957767841876e-21)
(1.090664600752956 -0.04670937657515023 0)
(1.44036949216708 0.1739603686651322 0)
(1.05421816744196 -0.01167461246288457 0)
(0.9917012929380646 -0.02292897580875308 -3.945162131762603e-20)
(0.9804623813533641 -0.02554150564422154 -2.460485378227119e-21)
(1.02022693059731 -0.01871433166917471 -1.928209529540377e-20)
(0.9973737402202326 0.01726815130422396 -5.506039067525673e-20)
(0.9952725658642381 0.009554156085111377 -1.469051751657193e-20)
(0.9942651773070825 -0.02622489689204183 0)
(1.002279224091064 0.02569360880686591 1.92076013853877e-20)
(1.035998436726153 -0.03055307035140026 0)
(1.110407705873662 -0.0362705381369395 2.559126626326236e-19)
(0.9951668624371812 0.01716224015232461 4.562023082421992e-20)
(0.6151053182305627 -0.008675962988514805 0)
(1.148454727795762 0.1380178617441323 -2.643780882365385e-21)
(0.8342781188193344 -0.09826011664360186 0)
(1.139219679644845 0.0727869237444452 -2.756025875340567e-19)
(1.313364750919674 -0.3874121053236916 1.280868820593274e-19)
(1.076444109370738 0.06431800393134039 -1.327764580418881e-20)
(1.009952102643487 -0.02944077795533645 0)
(0.95480858868855 -0.2138759770723119 0)
(0.5238149966020296 0.1569530734900574 0)
(1.012071627096972 0.01292728298695118 1.05073249123621e-21)
(0.7086571994000392 -0.01451815039547253 0)
(0.9980189321075504 0.01757834982550387 3.502632736019269e-20)
(1.021579256326553 -0.0006783784982205459 -2.687518724210207e-20)
(1.079176940907405 -0.008027691361482764 2.715825347576302e-21)
(1.043728206989933 -0.00855065220390855 2.999582085653007e-20)
(1.042858488579624 0.01083941596931314 0)
(1.05430982728861 0.02812664916871826 -9.941070870517302e-21)
(1.051583379637161 0.03468174526259984 -1.790472872969091e-20)
(0.9830135266015848 -0.02164631905193077 0)
(0.6249182607457442 0.0051395627972598 9.182691945084235e-20)
(0.8941769898391438 -0.005905909998087711 -8.857774517814802e-20)
(0.9093521347504935 0.005286746751288317 1.443293155851475e-20)
(0.6296031464750562 -0.00639281470808228 1.408556025741041e-20)
(0.9787745192286934 -0.000151481609849679 2.600188595269237e-20)
(1.004437701689804 -0.01762359557117033 -3.39459960152685e-20)
(0.9672690359808713 -0.01119655973270148 -3.228497314856956e-20)
(1.085550021249117 0.001446725750280655 0)
(1.018751840609632 0.004649895845695045 1.085709112453274e-20)
(1.133324369448415 0.0482776254551575 1.330388433539422e-19)
(1.034035931881239 0.04243094175439951 0)
(1.022139451269152 0.002624942454856013 0)
(1.580719960832625 -0.1670673370972018 4.374400941309873e-19)
(1.039670727042558 -0.0268075375971226 0)
(1.021867187288082 0.00745616040480345 -3.639544735228812e-20)
(1.088189951861049 -0.004035340329266078 0)
(0.484383051750306 -0.02058991294037817 0)
(-0.0418861408590674 0.006866070991125434 0)
(0.9900107809739386 -0.02364724952036996 1.233978323855033e-20)
(1.299312012786076 -0.09584761173138291 3.696962982347257e-19)
(1.033803645185997 0.03952735560198364 0)
(1.022604018045509 0.00335850061579318 -2.215238186494076e-20)
(0.9450922881499564 -0.165662949607375 -1.105044420217439e-21)
(1.252630311089139 0.07430321674758199 0)
(0.5991727864786538 0.7326917199793879 0)
(1.306101988304841 0.1465919747710881 1.080802343203815e-19)
(1.673715725011697 -0.02546269657484253 0)
(1.070722373874331 0.1220263058300931 0)
(0.7287245475898857 -0.0002826745738548101 2.879468122012367e-21)
(1.051184116230755 0.04920098745267679 0)
(0.7154520543021369 0.09853073121582637 1.252303888264581e-19)
(0.9968147089546846 -0.01631724782511512 3.581744227821704e-19)
(1.034243136231895 -0.03884961059075947 2.645274553043476e-20)
(-0.3708921706460586 -0.03229952661198117 0)
(1.071582127592577 -0.01618496825852702 0)
(1.094864161652808 -0.01661210809630271 0)
(0.6471352783966425 -0.500216779099216 -2.50429381947294e-19)
(0.9923396080244333 -0.0003277748627874065 0)
(1.091738744666929 -0.0220740121329303 5.669866626813541e-22)
(1.189225847370746 0.121144446560892 -2.026931912982399e-19)
(1.092008363857744 -0.03732840607758864 0)
(1.004931130211034 -0.02102305002472534 0)
(0.8109318468478216 -0.194416442300192 -1.735963820487077e-19)
(0.9013174800809512 -0.1408369861116858 1.515015468400309e-19)
(1.029756624531754 0.01000555264428899 -2.145080756562177e-20)
(1.023125204267822 -0.009272248406656665 -4.38581263061461e-20)
(0.867414378162901 0.001185122186864456 -3.658286914581109e-22)
(1.502420679381792 -0.193504437074641 0)
(1.301504900319618 0.1143743022252021 3.155750851746473e-20)
(1.244142603638034 -0.0791642364944046 -3.043250920007506e-21)
(1.095911833547747 -0.01874284421959351 -3.906251850945426e-20)
(1.044001154726378 -0.01632404664431873 2.760296104817858e-20)
(1.092802783682847 -0.03918905658876121 9.36688221791156e-20)
(1.032691664787807 0.01970205467882535 0)
(1.047231784802549 -0.0316655918177252 0)
(1.115855755848927 -0.009047989250886655 0)
(1.092676888858338 -0.02593721852088492 0)
(0.9979549707723899 0.01080710785862258 0)
(1.152415013092272 0.07508925626080751 9.355299048706132e-20)
(1.345420264153145 -0.1560195078603678 0)
(1.042156995188428 -0.02184857308710729 -2.065778440150904e-22)
(1.053215356934008 0.05405076446210355 0)
(1.00992091667854 0.01446760573269917 -3.883853494823212e-20)
(1.033564044614632 -0.008208578519323106 9.242927394730295e-21)
(1.088993821022042 0.013306494076438 -3.200312513242543e-20)
(1.084444000285758 -0.02982233952065718 0)
(1.076781679692932 -0.005653215359338956 0)
(1.103057894447595 0.09348347798784409 -1.410085281380261e-18)
(0.9349343769239891 -0.148175797634765 -7.099986626982491e-20)
(1.177780733400295 0.1058279198830171 1.107464577712784e-19)
(-0.4642364884943596 -0.004914723047960825 -2.923035367764628e-19)
(1.019548074210308 0.02930917836193385 -8.680378175072123e-20)
(1.006083901459737 -0.006218983752298158 0)
(-0.275851509795996 0.03182963141569015 3.555045428315676e-19)
(-0.05200817886601659 0.3390457411585565 7.324115308202701e-21)
(0.9952229962593523 -0.006329005704879231 9.221422460448509e-20)
(0.1879988161127279 -0.04016864135059592 1.39104015062853e-19)
(1.097500772591701 0.08733573784818791 1.509466012803472e-20)
(0.09358043504253058 -0.1068101129001624 -5.387230318945991e-20)
(1.107881702560007 0.00315110854089104 0)
(1.096897343284103 0.2537034879477341 0)
(1.021633976741081 0.02201708034294299 -1.700620678616053e-20)
(1.071462482400373 0.06070604233417545 0)
(1.024510333631176 0.02674453318160811 -9.219627718913583e-21)
(1.26044918705823 -0.5475419091072655 7.998550835329146e-19)
(-0.0835544600639815 -0.207772337543587 2.132985335441238e-19)
(1.29538269661578 0.1135140736819071 -6.191285531466579e-19)
(1.124643057938403 2.592672972116528e-06 0)
(1.135168318389979 0.1005580242326857 0)
(0.5237452018245465 0.08001479255158057 2.49765263297646e-19)
(1.022948271580583 -0.02108829679158999 9.466422713260022e-20)
(1.005283386362071 -0.02370529798929267 0)
(1.213168772397983 0.2716981436200443 -9.745017839986385e-20)
(1.250825657504361 0.1329316935751837 -1.542652037768774e-19)
(1.02653434106093 0.002666695330320457 1.566417446311794e-20)
(1.296865539607315 -0.08469384641454786 -4.976913375017867e-19)
(0.3037846420570522 -0.01942113944565489 2.716541376106799e-19)
(0.8326310313027574 -0.1486347195188089 6.803102559091484e-19)
(1.058910553223536 0.06990768044211397 1.071062890208552e-19)
(1.0411634723652 -0.007417429637668087 1.345378800626514e-21)
(1.00103848053115 0.02005632732087363 2.910388990382374e-20)