/*--------------------------------*- C++ -*----------------------------------*\
| =========                 |                                                 |
| \\      /  F ield         | OpenFOAM: The Open Source CFD Toolbox           |
|  \\    /   O peration     | Version:  2412                                  |
|   \\  /    A nd           | Website:  www.openfoam.com                      |
|    \\/     M anipulation  |                                                 |
\*---------------------------------------------------------------------------*/
FoamFile
{
    version     2.0;
    format      ascii;
    arch        "LSB;label=32;scalar=64";
    class       surfaceScalarField;
    location    "555.5";
    object      phi;
}
// * * * * * * * * * * * * * * * * * * * * * * * * * * * * * * * * * * * * * //

dimensions      [0 3 -1 0 0 0 0];

oriented        oriented;

internalField   nonuniform List<scalar> 
1171
(
-0.9279403237924618
0.9279403238101008
0.787363106752996
-1.098937223197109
0.3115741168309837
-0.1933207500162078
-0.765284258796163
0.9586050085525941
0.07205967735051981
-0.1167892693015525
-0.211975126337353
0.3287643944627137
-0.7873631158660951
0.06943315891936312
0.7179299569628075
0.811473405296224
-0.177611543834835
-0.6338618617049003
0.87442922916418
-1.043826974086694
0.1693977449438403
-0.2850880425924066
-0.09729580584510787
0.3823838485983478
-0.03588703108497486
0.5486385601397218
-0.5127515290654829
-0.5029557812629121
0.8252734045700243
-0.3223176228627623
-0.4018773103322123
1.046008108786087
-0.1715788844824829
0.3946718042149515
0.04759914054940173
-0.4422709467891893
1.046247823897198
-0.0002397150746571355
0.4442090339449957
-0.04953723635275473
1.05692681990619
-0.01067899634656443
0.5776667624460302
-0.7709875128345757
-0.7244721473849468
0.5570795825527555
0.1673925647738786
0.2214241441877493
-0.724379923073077
0.5506393001818995
-0.9228740595091331
0.3722347588443826
-1.09416046356335
0.6863846552053489
0.4077758083823783
-0.5954294805515136
0.5595424516754289
0.01830513606902535
-0.2571081908219354
0.2388030549699276
-0.02433374258166726
-0.5212508836640657
0.5455846244209407
0.4001967655816476
-0.4974925716255119
-0.9187955214031847
0.9414040163820571
-0.02260849485961072
1.067521832134976
-0.0105950116673454
0.9350564792227186
-1.116829062371508
0.1817725830984722
1.067090210979452
0.0004316230518756663
-0.6644187128882834
-0.06005343502802808
1.26228730066972
-0.8642780647679073
-0.3980092359338789
0.1482946948456036
-0.1089466781613724
-0.3264166938222288
0.4353633721994541
-0.2857450141311378
0.1909410196312585
0.09480399450851082
-0.5834803951355605
-0.5154568191986866
1.014023658058722
-0.07896718411841672
0.009948861753541241
0.8254362539593308
-0.8353851156768691
0.5718894865850549
0.690397807968622
0.4396918764676764
-0.0301469000302614
0.4303436623783922
-0.8077021113916157
-0.1025502056718222
0.9102523169264146
0.5024898798338943
0.2536595042899785
-0.7561493840332578
0.005113935475956636
0.5273732183218569
-0.5324871549171517
-0.4898522683281261
-0.6043081962220979
-0.4228620776811926
-0.693966990892147
-0.02710626772008237
0.2700211403388928
-0.2429148719468293
-0.9247525318782853
-0.005110781384271702
0.9298633133097559
0.3083922144068902
0.07399163267386955
0.7623270213910225
0.04914638942900413
-0.5331635541784244
-0.06226592829832257
0.04626879567574333
-0.8539709052064915
0.07502269257924343
0.8628219118599794
-0.9378446043568885
-0.3472232583370147
-0.04157046246448134
0.3887937215280142
-0.682255200694172
-0.2424973298200454
-0.6318192211304335
0.7068419174447756
0.6101348327822714
0.2151385735391187
-0.5428984263133176
0.9460114564873634
-0.7793532325140238
-0.1666582238812763
0.02134177671378054
-0.01867258022277724
-0.00266919783937783
-0.4030278882404941
-0.09446468478269023
-0.2412111832936268
0.8513460196982231
0.04614203122887574
0.3355970440655411
-0.3817390748297779
-0.4601686040254515
0.9626584833104681
0.6801625014417988
-0.7827127070086333
0.3201258294763648
-0.01773734797622495
-0.3023884794373077
0.9307011177514198
-0.9307011177336614
-0.7824862267307405
0.1105141257382255
-0.3224892498516237
-0.7500258427059626
0.7599747059038291
-0.08996737633228855
-0.1430922062531717
0.23305958347606
0.8650109649725398
-0.0395747086981318
1.054202894279606
-0.8005433903515096
0.185976036504258
-0.3154235728925986
0.1294475358685138
0.8594260917003522
-0.09709906997784629
-0.6118362109681653
-0.03913921729148354
0.6509754283031661
0.1238255839261136
-0.2312076033147893
0.1073820190349477
0.8057048148512324
-0.983316355591788
-0.4355302386033723
0.32971467077123
0.1058155670072726
0.531267183671379
-0.5556009234925744
1.022045037450764
-0.456220555470307
-0.5658244819208799
0.5991829610403577
-0.7193856552099303
0.06686318405535316
0.6525224711315417
0.1032767107097086
0.5703725716669034
0.05504583218587133
-0.62541840399188
0.1939869657269834
-0.08347285021756019
-0.4932818072156546
0.1460585479392587
0.05032003347083219
-0.886811891472103
0.8364918579605216
-0.4736517294309481
-0.7134937547953785
0.04907504057319036
0.4369435970360467
-0.006599936217759126
0.2998156913928268
-0.8552283733693425
0.5554126820040259
0.4157128424616609
0.584287157431695
0.5604872463986876
-0.5142184528555407
-0.3662678550597355
0.03474398748522655
0.3315238698422798
0.6813819645301523
0.2493191471218605
-0.5656197842253549
0.5707337233591857
0.1105269011330876
0.875137981749438
0.01019616179833385
-0.6220323768357325
-0.7493102612832349
0.7996302952752387
0.5312333471540742
0.07063592987395773
0.3021919313125482
-0.3728278615045882
-0.1675862501888568
0.4414326626388576
0.0859405625141897
0.8766657505220835
-0.7985902117131531
-0.0780755387877133
0.6353795575469698
0.3106318937484625
-0.4301341586458809
0.5751094307321944
-0.5044735053635488
0.4172251066708139
0.1334141969997195
-0.04687564297464403
-0.5920004526645138
-0.1373654630530592
0.7293659156642075
-0.1497455841658182
-0.780955536472276
-0.6110005678552571
0.360802679251229
0.250197889270826
0.6222176601375466
-0.6120214986183622
0.2387970240568193
1.011275757471968
0.0429271389774688
-0.7493102632378323
0.2287598255840727
-0.2074180548064492
0.6801625061169787
0.802012268807105
-0.8020122687261496
0.8377368516572846
-0.833326586258778
-0.004410265389439003
-0.445392833339346
0.8611056774311827
-0.1475470814423609
-0.34573471889086
0.7346985140157073
-0.6684484460694368
-0.06625006794883112
-0.7314605591980036
0.1394601044319742
0.1386558412642752
-0.6718193967451641
0.7827127176053081
-0.9502989677569461
-0.3662853033720712
0.2913377956481336
0.07494751231392635
0.1459761811070366
-1.009598593761321
0.8636224126709953
0.4811550440486017
-0.04146316753972536
-0.3081957948971916
0.5865118233614928
-0.2783160285982575
-0.7383526218666583
0.8843287996250769
-0.157135578312714
0.7336882493948076
-0.8423685710179488
0.1086803219478656
0.9770070176971816
-0.5416795630630316
-0.4353274544969
0.7551366209282998
-0.06495279669215075
-0.03270886085240814
0.1873449921940833
-0.1546361316665722
-0.7757596841527069
-0.8462182425338012
0.08093398266178752
-0.750025840865216
0.513886805072454
-0.5554572656137393
0.09117875020118835
0.7201677299234119
-0.8113464802403113
0.7537205191629145
0.1742198178679648
0.5028797797045398
0.4971202203058399
-0.04993909597231729
-0.6076615275829429
0.6576006223202838
0.8832141803254542
-0.006548429529896638
-0.7551366209340054
0.7996302931961166
0.1909973534225203
-0.4481055491617731
0.0204265497436466
0.00216954750624569
-0.02259609892776502
0.5888694641801143
-0.4384274057823006
-0.1504420589793972
0.7179299606960123
0.01309746612976212
-0.1125299935519313
0.4370174285438043
0.1518520345651284
-0.01464326290758281
-0.005429465025961233
0.02007272705621315
-0.03281506560908727
0.0001062090235480321
0.2431923283769594
-0.2609296823865719
-0.9591478527794586
0.001677159093114557
-0.1595175595973631
-0.1230929638468473
0.09447820014149659
0.7214472994252283
0.7290587951435781
-0.1447716338740695
0.6640011771457005
-0.5728224278787505
-0.2117401798554916
0.3977162157823969
0.6954254836807269
0.0225044770667343
0.2416247016499482
-1.074951287902293
-0.9502989623936203
0.3017922817739145
0.7599747072345591
-0.2086103798740183
0.06551817751451509
-0.7231244566034938
0.9102326020483305
-0.1871081453363981
0.4160192809369994
-0.02722556051654513
0.7715390613715448
0.2806143399448065
0.3719104791223839
0.07229855592937999
-0.6586871401587272
0.6586871401694873
0.2146353325241097
0.6956169854546659
-0.05499344696221853
0.3905904780630824
0.3803699190739994
-0.0154537900534119
0.03588035049870268
0.4494276820026938
0.0317273632881609
-0.7383526237240234
0.5341349774693631
0.200563538246491
0.3060531194479192
-0.1187081240474501
-0.6954254862373374
0.1802045677065065
0.7300280327462157
-0.01016258983887521
-0.8137242698109325
0.8238868596471589
0.69626888282869
-0.7921164237485954
0.09584754080745674
-0.7537205243806894
-0.1496042133662166
0.2107984889677778
-0.06119427545189914
0.07712594310741146
-0.1800301779380093
-0.1119184405780769
0.2919486168575102
-0.009309056847729348
-0.005334216982711644
0.7064547721996585
-0.7166173574184289
0.8845824928503863
0.07402251256421456
-0.3125465568633504
-0.5191554928209737
0.83170204952032
0.102702405660024
-0.1027024084317519
0.3260817961640849
0.4779684211388613
0.6111679520627613
-1.089136373016208
-0.1941502251913899
-0.5856356665475041
0.7797858917276675
0.01235355120418075
0.2207060356226999
0.3773099661686452
-0.2534843843366529
1.012769139352635
-0.534800718762408
0.6642378703265273
0.9938651646560659
-0.3826972124917472
0.2297628801324411
0.8843287978027718
0.7127499137826792
0.2136634901591972
0.7277405291395372
-0.7809555399052456
0.3413128458946452
-0.2780754666763878
0.2465685785474847
0.03150689218550396
0.8500015228933175
-0.01532131671479268
-0.8346802064151254
-0.7020709209582214
0.7025025453930076
0.5546071645827497
-0.7020709185102721
-0.7127499137417561
0.7025025467772874
-0.03435260257380552
0.9037193771384873
-0.01913688263355358
-0.68138196768796
0.6123340653297745
0.0690479023971609
0.5389031075397294
0.5375822999694705
-1.076485407574771
0.4921139757640799
0.5206551641402457
0.5439081337187023
0.4598351170533334
-1.003743250808119
0.4988219932082284
0.4950431711139763
0.6123340678949188
-0.5256123840664518
-0.4654291081780377
-0.5559972812063286
-0.5193964286159662
-0.1222008414911135
-0.01233084103786566
0.01233084146906717
0.5115779106878595
0.5231696521140841
-1.042566080723196
0.5754534052622319
-0.2732614805226594
-0.8849333422977275
0.3432537796631939
-0.6328345646592041
0.3903372332000511
0.001351000365859389
-0.8308870693035165
0.8295360691054688
0.4208630077776151
-0.01850524985669662
0.868506773983477
-0.9443657765127379
-0.8352721453367553
0.05635756490942014
0.7789145806120932
0.5553955827823555
-0.4368710788627678
-0.1185245042206148
0.649934117791509
-0.7289013050369481
0.8835092228342715
-0.8319063133792105
-0.05160290925048812
-0.009534189035826986
-0.7890560227344914
-0.1099442387176065
0.7157197363079323
-0.6057754975637759
-0.937101616115823
0.9275674291485664
-0.7340950260939055
0.6909590788871949
0.04313594724938945
-0.806027055033258
0.03509872284117256
0.7709283322384627
0.06162180033983557
0.04108060592162987
0.4332298930009275
0.06085654888379716
-0.8504064537666387
0.7895499049082654
-0.642400991925638
0.5924619021900667
0.8909781804421311
0.07030812478598934
-0.9612863050649274
0.05570603659764811
-0.04786389754665082
0.3793877700979676
-0.381206999228491
0.06578342743021881
0.8419978760724718
-0.8406468740365728
-0.7320045367441835
-0.8078542266305079
0.01879820497764637
-0.1662288549400597
-0.8511496079181605
0.01924329654750889
0.6254147024802018
0.03858647472276919
0.0246282786088631
0.5307673068085196
-0.808114790048002
0.8432135163912859
0.5658244816643667
-0.8493923163275074
-0.866793491421747
0.03692588747379896
-0.03988852419159583
0.8371801206341084
-0.7972915963815355
-0.02161353691129999
-0.7718930589781284
0.5443445932246744
0.1519242894899282
-0.02906533602394539
0.8975721099826133
0.9839249951666434
0.8610014604531765
-0.8417581621912391
0.1473073721775953
-0.1473073719545278
-0.1185835031366534
-0.4789855032373323
0.0421144245957117
0.2712121904099624
0.0305800915706232
0.3850079592127998
0.8759585748809231
0.002851196826743351
-0.01216026289567494
0.6586190561141277
0.3413809438760964
0.7834941173852129
-0.5834803957718855
-0.7780389126264137
-0.8126129098446633
-0.6798940566068735
0.6798940566473128
-0.1677733427566078
-0.1547159071801172
0.6015000646446531
-0.8119621348938242
0.2104620702922113
-0.4937112737512307
-0.5689760580235852
0.2782327963948776
-0.972199787077805
-0.9010953976694674
0.8494924904851532
-0.81807669848825
0.8368749057440221
0.6486344539437636
0.1345102634784504
-0.7831447174511481
-0.7694769633709806
-0.1459168554240919
0.724625892596555
-0.5787090373057422
0.02513682237289232
-0.01523054586993337
0.01834525309697788
-0.003114707279174184
-0.3548359832028479
-0.1241495147482489
0.8797328552297065
0.7389476933960167
-0.2414989059199378
-0.497448788436325
0.6204231911753202
0.685268244541902
-0.4706329111826092
-0.0008131143700613151
-0.2849318976185987
0.02464233657046065
0.7439114050926081
-0.7685537414135655
-0.3235653383540633
-0.07166727621792961
0.07545938783155463
-0.9610557512523642
0.1263755453445091
-0.6774518787927164
0.05235383259902893
0.6412723720819928
-0.6936262047584674
-0.7569884375563727
0.07953655879189545
0.5886798422920771
-0.6603471184574062
0.156103429088275
-0.336133606296302
-0.7714827262237044
0.002005762763977637
0.3712534149780298
0.6014526492936015
-0.02634322215405234
0.02446192038191354
-0.02446191981065965
-0.01776030746092422
-0.05239094557991659
-0.2256845311375921
0.01921953985006705
-0.01636834492576711
-0.7328962486672304
0.2793752993462241
0.6792095167252398
-0.6904187639513162
0.01120924731112889
-0.598322822290453
0.6506766543806137
0.6533076355517559
-0.06462778888992353
-0.6317659425401132
-0.1252224997315478
-1.049708553929753
0.01119136451327055
0.1361160094098279
-0.7082539057818051
-0.7417101902723539
-0.7633865971371268
0.3653773561102462
-0.4124202317711551
0.4706049753422276
-0.05818474177615842
-0.6781817961856558
-0.0300721095907699
0.5005169675061995
0.7306787317855148
-0.2330174360937456
0.1099244709973316
0.9590499858300217
0.4456859766785581
0.1339918255688261
-0.5796778023118739
-0.678550597565595
0.0003688015408018328
-0.04444173451569477
0.02921120827496571
0.637364853081824
-0.7747303189526312
-0.00272233103138016
0.00272233203868096
-0.6003091146984362
0.6484583979146155
-0.04814928358609485
-0.6539223192865465
-0.113452479976787
-0.6717422339086322
0.04918695281863189
0.6084136670563933
-0.1372506646997032
-0.8176590814853258
-0.554938502776867
0.5680644212986924
-0.01312592042986531
0.6344693548668709
-0.6232601074407447
0.3222026797128918
0.2141105549242728
-0.5363132346088167
-0.1043453350490052
-0.6028621592349986
-0.09076404312060356
-0.1546231462984975
-0.5057515346806607
0.4042425906902586
-0.4987072801406452
0.1262719249411694
0.6784337657719172
-0.8047056905525547
0.5991829610491503
-0.3731293275792398
-0.03929089887649652
0.06767421325057957
-0.5734257551906498
0.5518256469160455
-0.0403447420136413
-0.5114809048392009
-0.3121692986947778
0.3047428541892012
0.007426443986077213
0.4524575595544999
0.1229958460867606
0.05044548506568126
-0.3157309489330931
0.1566355966486946
0.1590953522277628
0.2461315734160875
-0.01737173532976984
-0.2969013318816036
-0.3138057856134485
0.3679619112376404
-0.05415612767455877
0.790613419870111
-0.6289385444918584
-0.02498377540058323
0.4994890149513604
0.2817412428661095
-0.5232401462672281
0.577471730641605
-0.5774717306499114
-0.2897731451796955
-0.5864968361891103
-0.2955253706725728
-0.5864968356743974
-0.5959089489497474
-0.8385011874906247
0.1700527410616485
-0.5868241000333844
0.8212086343235189
-0.003631624862954846
0.1197878552585564
0.4816647900018106
0.09668211075921078
0.1852160768574659
-0.03615053829075759
-0.1490655369360266
-0.01875968863871484
0.593518887982102
-0.9452079992400464
0.4260525078586697
0.0001403866084705266
0.0006904122151979464
-0.0008307961158621293
-0.643336820094681
-0.1318561747760248
-0.4656394670965268
0.5996312832815156
-0.5037694221455709
-0.3174799866177566
-0.2559457509291015
-0.2718083921752596
-0.1120428772331349
0.1120428763563311
0.1528847617205855
0.05791373452331023
0.1964074471580415
0.4532332193622279
-0.5722454121321622
0.1066059424440297
0.2467089703749969
0.4661253773409374
0.5338746230622563
0.6429073792372687
0.08114216537364256
0.001001899084202184
-0.0821440600034626
-0.2768422822866387
-0.5408167994444143
-0.5471295926416131
0.1140766908584892
-0.1260524615302583
0.0119757707775994
-0.1060187607921594
-0.3860794684583614
-0.04458456472009012
0.6529982487585734
-0.4988853691796361
-0.1444514508455161
-0.3361525748986349
0.2905993033918535
0.1235904114763828
-0.6028945328902588
-0.2039238744543558
-0.2616863138728104
0.000756634670473515
-0.4216806528931483
0.3217996855178418
0.09988096795276087
-0.0899105655285319
0.2916118015047969
-0.8959199995962215
-0.4580258450530567
0.6342385603339087
-0.7729119679918206
0.6685666329600098
0.3427265719144789
-0.1264458773242811
0.2258352818375668
-0.09938940488577665
0.02741654866001102
-0.5862188119466371
0.02928273441363927
0.5569360772893145
-0.9007314713686957
0.5467946522009102
-0.6653781551860171
-0.0957155072977679
0.1089896024677403
-0.108989604142653
-0.3165440645644661
0.3638471272595831
0.01554063400565497
0.02454016710361374
0.05660201461937883
0.5048901216297994
0.6630838630442971
-0.7411594012092756
0.02670970349948436
0.02300945656831676
0.001452476720450381
-0.006594553377046081
0.006594553059505873
-0.414396884299384
0.5373927296141053
0.01519640792347267
-0.01519640782051566
-0.7922990986785128
-0.05999231605623927
0.1216141119094467
-0.4522112948355682
0.558817236539807
0.4497193168666522
-0.4978686025171195
0.1497317915863735
-0.1497317909098175
0.04116719413989775
-0.005286839895474596
-0.04098026453193419
-0.9773765665825327
0.5420491128656827
-0.472581647212742
0.04108061076418289
0.5144973372193669
0.0309308120686075
-0.5454281495759895
-0.6158596158513567
0.116974251382017
-0.3298268018196476
0.013476574915143
0.3163502271810485
-0.1536413807844553
-0.07937604886358648
-0.5407371671272775
-0.04548164223589556
0.1361160109012028
-0.04144276172367586
0.03872043519274282
0.08188106816615186
-0.08188106523276663
-0.5384146724487169
0.484258535249073
-0.4143684545775173
0.1613308083993167
0.6221633090271749
-0.09801302058151923
-0.006116684732757349
0.00611668320098837
0.5329885646819598
-0.07212722616030549
0.006287200557097527
0.02712640933763044
0.03448605860477971
0.6877560646287322
-0.7598832910575485
-0.6616551166942315
0.6366713462754464
-0.1087344924154958
0.3127886556600481
0.7461038432072905
-0.01776030718953497
-0.2669206355053151
0.1482125219152077
-0.7446763606170966
0.4843171942911859
-0.4221746254536613
-0.1013622706515778
0.003607426655113943
-0.01462340505725998
0.02022143938236638
0.4120972792751572
-0.1216991370099217
-0.3897817777914004
0.6289919258477804
0.01892539031311237
0.01020294688973974
-0.01020294626622746
-0.3575886898741617
-0.08518144559578304
-0.560660226477677
0.5570286013838114
-0.2383643149607345
0.464812689134341
-0.1508315491585186
0.7284983098138285
0.6730554416286572
-0.04144276455237626
-0.6150458289329812
0.5605254480514927
0.2873786804313128
-0.2851604928960786
-0.002218186049355946
0.546760790646231
0.09339722364865125
-0.03880870482712026
0.1972166884558
-0.1584079831298214
0.1206897834237178
-0.1206897820784882
-0.8587492022298703
0.00242442807005043
-0.1129345982766039
0.1400610069119352
-0.1320450114928322
0.1320450105006305
0.02300946793070506
-0.02387697989124259
0.6712491325051729
0.05877889831022319
-0.3232136320050846
-0.06286583548066213
-0.4712558601838737
-0.04877389306556293
-0.1518202680850362
0.1518202671695802
-0.04097684960774568
0.1431695253866166
-0.1431695243106283
0.1369299024377698
-0.1369299021388747
-0.3156021646078855
-0.1145319939288248
0.2266801053820217
0.1030345635692558
0.03486233851293257
-0.8211377538607676
-0.1972429816323829
0.170375619945607
0.0206217325351512
-0.2655772200524674
0.1256977243693241
-0.125697723408597
-0.4140499106055298
-0.08465737075661264
0.2366363582658798
0.002166693781496337
0.0404383040014103
-0.5433728638670839
0.5777254665315519
-0.02309128892071172
-0.01788555578036736
-0.02820014978766793
0.0229133098730023
0.006562265083433181
-0.1841551208204534
0.1775928560888207
-0.1077270928668106
-0.2284065075240098
-0.1448939163536403
0.1448939152857127
0.07297291459076695
-0.07297291530973314
-0.01948291946827925
-0.1087120932317013
0.1281950128606338
0.2410620765394305
-0.1827217625992683
-0.02359500989782767
0.02504746978922566
-0.1373397679860259
0.621598299917167
-0.03906996018777647
0.421477473439366
-0.04146330570809936
0.06153603029478513
-0.1536390896704896
0.1536390890693157
-0.6360954161387825
0.3090282348241156
-0.07926535320438653
-0.2348072419125312
0.003599635081111687
-0.1227066928751896
0.1631449976128753
0.1941774382755604
0.09777118069465007
0.09490589629827746
-0.06041983856822476
0.07252608808084952
0.04155060146119031
0.06383021721053291
0.1065454051862272
-0.09607336252487195
0.2059978203606924
0.01292528328247301
-0.1124416968821571
-0.1024760278014897
0.09795030780590683
0.004525720991366616
0.01280652351527207
-0.02253792459050593
0.03785828734401232
-0.03785828748532554
0.07450999089370666
-0.05474217975058585
0.05474217974687087
-0.2245714070797375
-0.05090566217587995
0.01150793064587596
-0.1031467017226051
0.01624012664765081
0.1082685672275734
-0.1082685666865467
0.2940584084853774
-0.2715814174633545
0.1638543249246247
-0.05045713468901443
-0.2211242820642115
-0.01756867574532338
0.01756867603826353
0.3672511040555738
0.2852713676868998
-0.5273423508367129
-0.09399452116512935
-0.03205793953259107
0.5285819091241929
0.2128619136520139
-0.1691494595129636
-0.3819959844829253
0.07653227368680905
-0.1478836356650277
0.1874631525735923
-0.03957951728843206
-0.06671795460287047
0.06671795513993573
0.8226361169043803
-0.5606360288649509
-0.002557553635356046
0.01536408013861772
-0.02000213544231238
-0.2865720757702783
-0.01747178887053933
-0.01284889392786794
-0.1317248001136581
-0.5719951778062856
0.5559132371968112
-0.5689916008247143
-0.006926355969610441
0.101762675129805
-0.001818813655120341
0.01670917980613891
-0.1678857737755864
-0.3367117378428824
0.2335650363216214
-0.05459755167719318
0.0351146295184985
0.1317707340008329
0.1729721180971789
0.3362340654891326
0.2768507402237468
-0.2786695534798465
-0.06375559139555996
-0.1548013393493235
-0.2213306720292607
0.07488716767962492
-0.01105695341864628
0.2142945700144762
-0.1975853902656413
-0.08625378635270539
0.1587798752559013
-0.3548810484435646
0.2088651137857166
-0.1926249875680493
0.08964859915114513
-0.4794303754780829
0.1746142589953364
0.1697880725517509
-0.2560418550663217
0.07236797207200441
-0.1942004620137687
0.1767286732976212
0.01742915912574397
0.1413507183654432
-0.03954576925203238
0.06634617265293148
0.466642392267189
0.02028961322750423
-0.07548223622294845
0.05668581933855232
0.1254376007730852
-0.2609101869225982
-0.2308961773464592
0.5597000948091853
0.1578756304095509
0.07876072508867414
0.075870788888649
-0.03095175566719406
-0.005718167504467518
0.003499988067479745
-0.03276507960900803
0.1712875410534749
-0.1782138970115123
-0.05526079775109902
0.02248992336599381
-0.1466411040281876
-0.05284973514798914
0.1507370327228909
0.2770966603205849
-0.03926941321683822
0.01719514529013845
-0.2556320742056668
-0.130281710953828
0.2355714982773633
0.1793087174279048
0.1297195167651417
0.02166957417416134
0.08912504921673263
0.05199605061457847
0.452894071065116
0.01745098741284395
0.0969465042063548
0.04382202693551513
0.07160370462305224
-0.1154257318474389
-0.2420709863038899
-0.2009782999592552
-0.02014598853692165
-0.202333715995517
0.2757780608838108
)
;

boundaryField
{
    FrontBack
    {
        type            empty;
    }
    Top
    {
        type            calculated;
        value           uniform 0;
    }
    In
    {
        type            calculated;
        value           uniform -1;
    }
    Bottom
    {
        type            calculated;
        value           uniform 0;
    }
    Out
    {
        type            calculated;
        value           nonuniform List<scalar> 10(1.036022111480961 1.064515493124168 1.021426389394632 1.019477158239024 0.9974174197575026 1.014439600025219 1.034747564167796 1.062687331847818 0.8672448787662582 0.8820222068486955);
    }
    circle
    {
        type            calculated;
        value           uniform 0;
    }
}


// ************************************************************************* //
