/*--------------------------------*- C++ -*----------------------------------*\
| =========                 |                                                 |
| \\      /  F ield         | OpenFOAM: The Open Source CFD Toolbox           |
|  \\    /   O peration     | Version:  2412                                  |
|   \\  /    A nd           | Website:  www.openfoam.com                      |
|    \\/     M anipulation  |                                                 |
\*---------------------------------------------------------------------------*/
FoamFile
{
    version     2.0;
    format      ascii;
    arch        "LSB;label=32;scalar=64";
    class       volScalarField;
    location    "1102";
    object      p;
}
// * * * * * * * * * * * * * * * * * * * * * * * * * * * * * * * * * * * * * //

dimensions      [0 2 -2 0 0 0 0];

internalField   nonuniform List<scalar> 
808
(
-0.03488159668194879
0.04483812059289947
-0.01189804874296682
0.03607188464352203
-0.3008270341961375
-0.05476138872716052
-0.01468804159117221
-0.02382602159776997
-0.1979501438886411
-0.08446454039155905
-0.009398246011254363
-0.2552825603833134
-0.03055587584637029
-0.01312283280731203
-0.1237165429639175
-0.01399737728751471
-0.1422632047658222
-0.01356783652211238
-0.01277327321686433
-0.05616227014608149
-0.006268881656724228
0.1177130675612298
-0.06162990831447949
-0.07229334180423283
0.175611584121468
-0.0994306524784522
-0.1534064267646735
-0.02034548178294384
-0.01745196652516394
-0.02600633607915879
-0.0201979021866797
-0.05898123138453638
-0.02299109524509258
-0.01687916112235259
-0.09984069419567201
0.3445870585477734
-0.03884561097858778
-0.01684646507802597
-0.02308711654544115
-0.02659151634975826
-0.09069985933797273
-0.1273428563688157
-0.05130729651165047
-0.02069116904288667
-0.05534600680298055
-0.04069730822362722
-0.01232078285256998
-0.1854083193977284
-0.02727832358416836
-0.2051374850005836
-0.01618383692917929
-0.06784977707469453
-0.0601267599134503
-0.01510399505196429
-0.192125583189448
-0.02864673587902387
-0.01083900249193024
-0.01493297200355472
-0.1010080903872304
-0.04018271860387391
-0.09704968575426116
-0.1269012805104336
-0.01359360784645868
-0.1283271003063734
-0.01692843943020069
-0.05111598581500518
-0.1641113882288986
-0.03564154064834164
-0.01499795708709604
-0.4426034808045765
-0.02680087183600851
-0.3048147174470929
-0.0218519089395881
-0.02035005124904971
-0.06530519301319324
-0.01751917275568715
-0.04297593663293031
-0.3627183586090211
-0.0355990437110744
0.04060806423802205
-0.0912415645634799
-0.01719162602285842
0.05687437640999352
0.04457067580335351
-0.01675657035565003
-0.05263975369577524
-0.5448787581144954
-0.2249677268607739
-0.05265681222411046
-0.1122824959129638
-0.05710403793244106
-0.133192099013844
0.03988999215800725
-0.02473271780809932
-0.06119657200449694
-0.1169389613563924
-0.03845851765922144
-0.05228500853040996
-0.1166019666542335
-0.1376988499605717
-0.05222782051308443
-0.04781940787361474
-0.05486286468996834
-0.04522783159510818
-0.05757434576787569
-0.07392491918292782
-0.04162921133844135
-0.01129375968207131
-0.04067338773390276
-0.1249023672386581
-0.05080282165314726
0.08255689662369747
-0.04276167921381348
-0.008314858822840913
-0.02781745626523841
0.1805496744128655
-0.03925632041418715
-0.2706372086168774
-0.02031021945663792
-0.0540322504067943
-0.02836834400720959
-0.04825952839343782
0.01310347522183187
-0.04917007364363626
-0.03489365363503267
-0.2163856090742616
-0.04175542765273118
-0.005143341373714739
-0.07650816873001311
-0.06820866195995652
-0.1430727091493882
-0.02084287196490266
-0.07558071469818092
-0.04222693572359317
-0.02272761923464054
-0.01605346132601834
-0.006446351946741065
-0.007274442302022627
-0.05275986168969609
-0.05024032290973289
-0.2148202058217955
-0.05708805821380811
-0.008500305985590137
-0.02253880171981475
-0.1462614085200196
-0.002746931457579525
-0.07679468959034437
-0.02258508040263273
-0.001081166542637349
-0.01091136682712522
-0.03362685620785234
0.09460191726052679
-0.03912402143375981
0.2522673229240945
-0.2691964528172744
-0.1314854623546197
-0.03724438733579653
-0.09106278381333408
-0.009383622341941794
-0.1127217038919834
-0.1827221434058595
-0.2185258530996889
-0.1787286306627303
0.05596640549301627
-0.06241355786071415
-0.0203192251491911
-0.06732058404772512
-0.1671338847130824
-0.02368784499386954
-0.0183500714270489
-0.05246538282828925
-0.0189895621073958
-0.006463754515252719
-0.1084900328875407
-0.02285546137993243
-0.04566368448962916
-0.06947189954690665
-0.1618295581859981
-0.03358802873126773
-0.392625567563806
-0.01781473145178778
-0.2242956526533571
-0.04474852142706096
0.03162966378624067
-0.1061003346532685
-0.01492673148841923
-0.04204383236479449
-0.1044608091550835
-0.01763913729699489
-0.09578446311745584
-0.2075247933004144
-0.07212856408294713
-0.02372120064688326
-0.04875195715360106
-0.04319607152918521
-0.2048756731045227
-0.02189665838455249
-0.01898556098225279
-0.0113281500658733
-0.05550737827972346
-0.05115461205828365
-0.02233612877876154
-0.02085754189611696
-0.2446607631520691
0.127593150587657
-0.2029710939942441
-0.2012744830334496
-0.01179970697503524
-0.01151044225797348
-0.06735416546910196
-0.009902591346054871
-0.5098325993343701
-0.120096244869382
-0.01900752910994804
-0.0004718983465383034
-0.0241567229584747
-0.2838539697017328
-0.2765315647908945
-0.007029564900811998
-0.01726727566168307
-0.001464909774530046
-0.3472519778079462
-0.02825823574173472
-0.02912348020249237
-0.01249365700802918
-0.01973334691294405
0.05023444015361411
-0.1083235124408009
-0.01408516982090889
-0.02076574790886085
-0.04377937906220223
-0.01819904253256414
-0.01612533099397286
-0.02340465771321266
-0.06729438078677885
-0.0116629513543212
-0.01906481505693769
-0.008537962284969934
-0.0006856863999315827
-0.02954623938109581
-0.001649190727899259
-0.002230713836291084
-0.005933605231293049
-0.02562026426255047
-0.007957095059379901
0.001486806021133783
-0.00425917963415383
0.001305644623053445
0.002555224385110768
-0.008798648959471812
-0.1419588532063039
-0.00300325076142065
-0.001533492366400255
-0.04841871290610975
-0.02158378101142753
-0.02459178491776341
-0.01436039890208184
-0.0061436631984485
-0.0208540884716844
-0.03834540386002216
-0.01402451755972549
-0.01289925456277734
-0.01160517433529102
0.008251690713186623
-0.01025897078348618
-0.01175235443319431
-0.01143963871328359
-0.01074333061119816
-0.01027823595364019
-0.01201797793641017
-0.01403186912533375
-0.3078646261768214
0.06022860582491172
-0.01577242176504648
-0.01568148545841738
-0.01302902936079754
-0.0119557778287018
-0.008797615845146094
-0.0966469800714463
0.01098672472277902
-0.01360333861653729
-0.0144231826478254
-0.01068985623338481
-0.05236891575500307
-0.01034295042459097
-0.01362206634460688
-0.009849836113961662
-0.0001922553585647688
-0.0104029823451851
-0.0119188787567162
-0.02476065946334844
-0.01587871348076102
-0.01183046145732749
-0.0134724975306484
-0.007303902685508364
-0.01227850347004009
-0.01179648841680782
-0.05805180678253475
-0.01322949225214383
-0.0112084207254692
-0.008787939990140475
-0.01489643340455391
-0.01372658140638993
-0.01565722254665474
-1.372327470070134
-0.09901291054098839
-0.01341712679846144
0.02529999315564139
-0.1634578051064774
-0.09179908451424867
-0.01171850687262288
-0.01403304987456853
-0.2431431146452674
-0.0297883196004612
-0.01932392148122188
-0.01120901301952448
-0.01969000450309518
-0.01042868186082929
-0.03073360158889531
-0.4126243788540856
-0.01243912174082328
-0.0141070449082915
-0.004811757335072923
-0.01107168150056445
-0.01047553076139862
-0.01424474755199774
-0.007470472358703585
-0.02624398627006806
-0.01151005061621115
-0.1667510161189424
0.01762449906957179
-0.007604222331849412
0.003638718685504169
0.0136677778274703
-0.04768725867008562
0.02912432711511749
-0.01322677434023682
-0.1338867985548896
0.2824503949126925
-0.007219433927374101
-0.01345163965299264
-0.008327662826363913
-0.0327065134311291
-0.1234620071042291
-0.01238223507523144
-0.01227219872728858
-0.01671255134161725
-0.01358634339607087
-0.04109494505867984
-0.2161329422922863
-0.01078654564785142
-0.04196567463667312
-0.03960619076329207
-0.1689929931045054
-0.1630143918717535
-0.1344398408462535
-0.2389823361190648
-0.006636684115377559
-0.02116854909965222
-0.01404839643329306
-0.01265861896426497
-0.03304412137384084
-0.02445053474214321
-0.01440324680304105
-0.01494624288891952
-1.076579367311915
-0.006299022624995305
-0.01344377379686272
-0.01843183542708651
-0.02325173179896424
5.358567097815753e-05
-0.0146443004143247
-0.02685373218929127
-0.1550576615194851
-0.01357784922322376
-0.02221066475044532
-0.0137912168975549
-0.0005551521525432767
-0.1788256941247539
-0.01309175520609779
-0.1428328169073646
-0.01604777024175169
0.005048250280989247
-0.01461336986947257
-0.0232897503350317
-0.01551729641795586
0.004921896045780689
-0.2758397780562259
-0.02567375318513437
-0.01593105884468063
-0.001971933965410967
-0.009571307341220081
-0.03025494315577935
-0.01430160924447104
-0.02036980419410421
-0.02124691972806553
0.01498851105106532
-0.09971153450411882
-0.02192996484087587
0.009229666566754816
-0.05338579551000214
0.166279641999788
-0.1040534084491663
-0.3186507378967992
-0.03105243313083132
-0.02546441981332762
0.1502653869571455
0.0782276869487043
-0.003508840884863682
0.04927816030756997
-0.01548043643178192
-0.01436331399938961
0.002307102646902527
0.01069226039603874
-0.06623641272775622
-0.006005725581457907
-0.05714001196855262
-0.02215118761325775
-0.01573207671450115
-0.03653881702362734
-0.03291213391821722
-0.006642431475300847
-0.01511676161206044
-0.03826658147486953
0.03734521806722749
-0.03886841963095737
-0.013782227435383
-0.1172974526845353
-0.03193415352063878
-0.03882741203386539
-0.6738030052658702
0.0206142466387636
-0.0105496304358616
-0.005657811470396114
0.1601028582870298
-0.08648912664966073
-0.03506573171395645
-0.2451305431267055
-0.01660208963643035
-0.01651323659119144
0.06916130383448042
-0.1825542578271853
-0.2320401818253405
-0.195711868330544
-0.6828189023397319
0.001865966608158596
-0.0188365512082285
-0.01703926959316728
-0.08115773052031049
0.1181763835715039
-0.02076784147660538
-0.2337197866593399
-0.03518237673830356
-0.006526143435127986
0.2794214695150136
-0.01126053388916808
-0.09267117967459042
-0.150355291624466
-0.003654417592644568
-0.04061205332569336
-0.05157949338415539
-0.2042315218370586
-0.008502911390431751
-0.04129429574085965
-0.002461661008206124
-0.5480006180226507
-0.1966372872596407
-0.176897125355262
-0.02276762729805445
-0.007247025698943456
-0.06057046992387329
-0.05764523754423426
-0.01381809315799314
-0.06810226066974898
0.004076561524134082
-0.01824791462418131
-0.0938561888947007
-0.2699444358784483
-0.007288473491420706
-0.02630590803987661
-0.02196603473691452
-0.07479417173732952
-0.09032354865512651
-0.08832755248779831
-0.01201517360757527
-0.9219808603353409
0.1615064049266599
-0.07879177659149776
-0.2529763346083279
-0.04222483030908409
-0.01034531362107049
-0.2552616026141184
-0.1891535797546884
-0.03231531332378233
-0.1274850054710343
-0.01968894273988971
0.5634795189288778
-0.02410783376679289
-0.2270555252675992
-0.02587640908981528
-0.005821995194470157
-0.01194253615059567
-1.248025086103357
-0.1811988721137593
-0.230879754085022
0.005307045436412028
-0.03796812733821767
-0.2512838485434508
-0.06584169273729977
-0.05121279472498923
-0.1437961587683819
-0.1859146216782722
-0.06838648037034839
-1.224233114520356
-0.1444854425417706
-0.5250625803004433
0.07886800532255792
-0.006405733741838691
-0.02175815375980821
-0.04318042470883516
-0.03965957645085198
-0.0286782727464831
-0.1300022313414009
0.08059804148992687
-0.002019449212861951
-0.009895264160707838
-0.5766820594847983
-0.8596712088454405
-0.1824244119622454
-0.008375531121772016
-0.1373018210161134
0.0009097889503941977
-0.0002177523333853283
-0.001824713773849053
-0.06014130479982181
-0.2368445834590039
-0.01333896224240295
-0.123236065350997
-0.1568040680605676
-0.01321468752527644
-0.03551933255045014
0.02419398932230756
-0.05763102083956409
-0.07034753317753667
-0.5002326498673296
-0.2226743318613965
-0.08015832339851864
-0.07352067783171631
-0.01984301866594112
-0.1239095201230581
-0.1533455774785442
-0.07494929383914524
0.02252478696691837
-0.08519577098432937
-0.04873795428225478
-0.01488097592152488
-0.1061420909098323
-0.2745638684297048
-0.05760692861077048
-0.01840464836213583
-0.0006142378494275848
-0.009994477885764028
-0.01103692389454604
-0.2201431560696015
-0.01531357591700165
-0.2200260483983279
-0.01027298306062068
-0.06966185409924423
-0.00418506486311294
-0.02322680382439016
-0.3814910098223949
-0.915457047204901
-0.01133711949674143
-1.044479141671167
-0.6103507509887538
-0.01055466973263598
-0.6608172962018247
-0.1804023166365901
-0.006043385383292797
-0.1296476209642631
-0.01674071001461105
-0.1230616338252923
-0.06645225821533507
-0.07979517502088285
-0.00506426451338037
-0.002260080466233391
-1.343003545449656
-0.01134500087667724
-0.1791291261622727
0.0006133361939042804
-1.007144197252174
-1.239727368033047
-0.08033157208779985
0.01820933929059863
0.1644807829539304
-0.004501535990933688
-0.02305292102546714
-0.004173616839633464
-0.2506093659389327
0.3659409623094881
-0.04113708924106643
-0.2117636373170662
-0.01486994761882626
-0.6513064669356684
-0.07399199587266166
0.1897739299273118
-0.2876251899897513
-0.04994528256268431
-0.06908269935115077
-0.01587269092470151
-0.02172310959355664
-0.5802230363916265
-0.146103964341585
-0.08689315664158812
-0.1269309080030498
-0.552986431416997
-0.04434776216014517
-0.9040059504028182
0.0005258044341518718
-0.2395820276508478
-1.053701599795045
0.1650155273396681
0.2902288771065307
-0.183751752566454
-0.1909234071035571
-0.2113976051881359
-0.06738416366156452
0.0221513900909259
0.04553781040525923
0.003075439407192886
-0.1668592553446216
0.02566232454398582
-1.361793861103343
-0.08562721825758761
-0.4756132465233152
-0.3326397851105809
-0.2065791908374281
-0.1778371110167254
-0.0169045047366224
-0.01546951541828368
-0.1061938721120163
0.173372635388883
0.3849009613032882
-0.205493303659139
-0.1399083015699734
-0.2285815874486639
-0.0626987931548362
-0.1508158581127864
-0.1650855184558243
-0.1262084790031016
-0.1236386101303065
0.4643545674832237
-0.2720745155834691
0.4330294230155648
-0.5965822078872717
0.07179883182347319
-0.2004974406773719
-0.06650467518764638
-0.07562272078651561
-0.8836843103349952
-0.2167448558713747
-0.1916269312026663
-0.3487651385477822
-0.4601144312523794
0.5703076214095111
-0.210938916124924
0.001184053049661192
-0.06934262189970879
0.3451593286591415
-0.03653156238367243
-0.1323988938258678
-0.1804050746983629
-0.06331805141762152
-0.01653661277544832
-0.1973710147193946
0.1966633488240832
-0.01291916026769938
-0.09683423488216583
-0.1719393767874852
-0.3185148189830628
-0.3114268740720302
-0.06631402025202632
-0.01022888865641323
-0.08079528393487839
-0.6509052738331595
-0.6735965387760474
-0.3358585681695457
-0.05798490718219967
-0.05103623577394816
-0.0253029761494018
-0.06829028334231285
-0.05679374323768899
-0.3609846394540092
-0.9614221184599938
-0.0104844663908584
-0.08352385428468523
-1.142332547020288
-1.036610046805193
-0.1074950508447665
-0.03967040848350354
-0.06922432914523254
0.389041613780214
-0.3420573683181908
-0.04937563086759126
-0.6014638549827837
-0.1231306878987158
-0.2512853314017677
-0.2121932937687711
0.4736230144772496
-0.6310221036354496
0.07562220406638956
-0.02932102512344951
-0.5613662158033699
-0.05245398430675991
-0.364084243247776
0.1087251689645513
-0.1910437107129371
-0.06014916902284131
-0.1375810600510287
-0.3593356358252438
-0.08534737308552319
0.5155324796936459
0.08613287501240299
0.4698790787901949
-0.09947972195728978
-0.2021188862976593
-0.5192349937900462
-0.1328576994391101
0.02596595227609071
-0.05404137320199531
0.1010510940584453
-0.3036824191702835
0.2363914650699638
0.006745271498742712
-0.003190432136900159
-0.5108850753232269
-0.1840830901593114
-0.08107251639165097
0.5816717531187297
0.1390223484844458
0.343480514787117
0.2256226138792885
-0.5642942587549118
-0.1933342519803753
-0.2247404787842703
-0.2272431599492535
-0.06076366532213634
-0.6914435114330095
-0.1912638738946191
0.3051235813911309
-0.1919915229163272
-0.01138243890335614
-0.1678942976280475
-0.01017190341905885
-0.1590501873449054
-0.4379613160073415
-0.07613129933190516
-0.2024910374977131
-0.07128393008365398
-0.08821808588482222
-0.144419296669413
-0.07265742225979611
-0.4521308359763445
-0.4124396749032602
-0.02475819224888464
-0.0754901758298753
0.3295337159732436
-0.2481834767244808
-0.1822711567987015
0.5243728148525516
-0.2057218823135888
0.01967493232973573
-0.451254928424443
0.04993370379387012
-0.0611864335141124
-0.1405072907643573
-0.5856758383612066
0.1593575859278958
-0.578001593282478
-0.5365854009176799
-0.1035276028314387
-0.5097563469572802
-0.0370666225881279
-0.1402665705311294
-0.4125930026929542
-0.01622364252672383
0.2877548664541168
0.4898672691837436
-0.1604689320751493
-0.007083625207515026
-0.07992158483441161
0.5252040410675322
-0.03311060037910668
-0.4406646956965557
-0.0326238364867666
0.4616357968426879
-0.01561076674056762
-0.5454706211149931
-0.2487218347571311
0.1772548797119335
-0.3115048012162551
-0.1798861750991046
0.04919122687595111
0.03291921958749893
0.05526290105400816
-0.3002749284668172
-0.1592513636864779
0.4128386821642382
)
;

boundaryField
{
    FrontBack
    {
        type            empty;
    }
    Top
    {
        type            zeroGradient;
    }
    In
    {
        type            zeroGradient;
    }
    Bottom
    {
        type            zeroGradient;
    }
    Out
    {
        type            fixedValue;
        value           uniform 0;
    }
    circle
    {
        type            zeroGradient;
    }
}


// ************************************************************************* //
