/*--------------------------------*- C++ -*----------------------------------*\
| =========                 |                                                 |
| \\      /  F ield         | OpenFOAM: The Open Source CFD Toolbox           |
|  \\    /   O peration     | Version:  2412                                  |
|   \\  /    A nd           | Website:  www.openfoam.com                      |
|    \\/     M anipulation  |                                                 |
\*---------------------------------------------------------------------------*/
FoamFile
{
    version     2.0;
    format      ascii;
    arch        "LSB;label=32;scalar=64";
    class       volScalarField;
    location    "30";
    object      p;
}
// * * * * * * * * * * * * * * * * * * * * * * * * * * * * * * * * * * * * * //

dimensions      [0 2 -2 0 0 0 0];

internalField   nonuniform List<scalar> 
808
(
0.125092
0.0204845
0.00125099
0.12486
-0.21118
0.0211141
0.0150384
0.0255542
-0.106938
-0.0101377
0.015042
-0.124494
0.022457
0.0165078
-0.297948
0.0201779
-0.318178
0.0227275
0.023995
0.0182972
0.0248835
0.385454
0.07349
0.00577034
0.464424
-0.191753
-0.0463634
0.00937938
0.0264326
0.0188281
0.0210269
0.0279889
0.021255
0.0186349
-0.0626639
0.635675
0.0176641
0.0235601
0.0223016
0.0152689
-0.0341442
-0.0475605
0.0369117
0.0205742
-0.214976
0.0905382
0.0244061
0.0217861
0.0162407
-0.14374
0.0180966
0.026554
0.0459039
0.0147437
-0.0810925
0.0135562
0.00809744
0.0181992
-0.00705203
0.0120585
-0.309417
0.0139581
0.0329749
-0.141953
0.0199527
0.0473548
-0.22415
0.0183843
0.0228147
-0.262812
0.0221806
-0.297672
0.021357
0.0245857
0.195643
0.0191606
0.00316898
-0.0657349
0.0136515
0.319806
-0.12971
0.0190904
0.0367849
0.281936
0.0245485
-0.0181912
-0.338156
-0.100926
0.0335463
-0.213565
0.0471496
-0.0852389
0.260543
0.161509
0.0409804
-0.173406
0.0137514
-0.141925
-0.0888728
-0.169303
0.0178039
0.0105884
0.0461095
-0.0114336
-0.0622399
0.0602009
-0.253747
0.0148981
0.0143956
0.0410662
-0.0572206
0.338539
0.0201274
0.0321505
0.0193881
0.459837
0.0204573
-0.247364
0.0214575
0.0634984
-0.227234
0.0383736
0.0180896
0.064838
0.114791
-0.0457734
0.114716
0.0216612
0.0418832
0.0688998
-0.228947
0.0222685
-0.0307608
0.128718
0.0253945
0.0161436
0.0848189
0.0175707
0.02436
0.0179098
-0.275934
0.0543984
0.0218236
0.0205884
-0.0273329
0.0993411
0.10261
0.163935
-0.0298079
0.0460295
0.0193155
0.350752
0.0366649
0.544293
-0.27822
-0.100359
0.0200271
-0.245204
0.0583109
-0.12296
-0.284843
-0.275143
-0.256797
0.0244948
0.0621779
0.0232809
0.0280057
-0.265412
0.0165871
0.0237421
0.0461761
0.162679
0.0908216
0.132822
0.0244056
0.0774039
0.0720929
-0.128332
0.0254588
-0.325478
0.0231646
-0.137663
0.0237915
0.271403
-0.357886
0.119278
0.0217841
-0.11565
0.028283
-0.0750302
-0.272222
-0.0480592
0.0226048
0.0897792
0.0241955
-0.267187
0.0217343
0.0250252
0.000290051
0.082812
0.0728106
0.0234676
0.0221701
-0.304006
0.382959
-0.257609
-0.280015
0.00865902
-0.0151014
0.0202844
-0.00736354
-0.375497
-0.197178
0.0227027
-0.0268551
0.0217583
-0.305577
-0.0313485
-0.0205813
0.0382909
-0.00619335
-0.0803758
0.0285189
0.0274376
0.0065668
0.0240221
0.127461
-0.207888
0.0288463
0.0228453
0.120094
0.0232546
0.0248193
0.0183602
-0.116718
-0.00911274
0.00630902
-0.00200084
-0.022235
0.0109374
-0.00458615
-0.00582508
-0.00514645
0.00320563
-0.00024537
0.00533728
-0.00308425
-0.00183702
0.00330883
0.0933077
-0.290538
0.00914169
0.0295522
-0.0733471
0.0164012
0.00682774
0.0329608
0.00180897
0.0250712
0.129931
0.0616049
0.00498439
0.00894924
-0.0179383
0.017759
0.0243702
0.0244476
0.0517954
0.0174815
0.022719
-0.0308461
-0.376021
0.281937
0.0262936
-0.0401714
0.0156277
0.016782
0.015743
-0.134996
0.286414
0.0332554
-0.0345787
-0.0122896
0.0923972
-0.173124
0.0305906
0.0662267
0.0236456
0.0301816
0.0736787
0.0259095
0.0344534
0.00632556
0.00384767
0.0366657
0.0269297
-0.0150084
0.0597696
0.0733882
0.0487981
0.00802454
0.0283562
-0.0176482
0.0182608
-0.474426
-0.101078
0.0121352
-0.0672884
-0.146634
-0.366813
0.0732386
0.0272431
-0.281746
0.135688
0.165546
0.0220817
0.0244383
0.0445261
0.00497687
-0.199681
0.0429674
0.00284968
0.0286149
0.0340891
0.0208905
0.0354843
0.0203955
0.00647875
0.0381128
-0.270538
-0.156867
0.0190398
-0.0991725
-0.0200932
0.0129701
0.237566
0.0631339
-0.128422
0.556592
-0.00727227
0.00731518
0.0291103
-0.0584086
-0.0470363
-0.00050696
0.0345934
0.0161114
0.045199
-0.0500223
-0.242231
0.0127454
0.108917
-0.0443317
-0.266678
-0.283501
-0.224975
-0.280202
-0.0217745
0.026822
0.0310738
0.0313535
-0.0199121
0.0111296
0.037705
0.00876291
-0.470347
-0.0430408
0.0350198
0.0136937
-0.0854833
-0.0129395
0.0262901
0.119896
-0.314779
0.000534353
-0.0398306
8.67623e-05
0.0236377
-0.271394
0.0129118
-0.289672
-0.000565534
0.029457
0.0156783
0.0151655
0.0232389
-0.0287058
-0.319202
0.0103451
0.0260728
0.0100365
0.0486639
-0.001208
0.0243187
0.00729244
-0.00885438
-0.0021954
0.0474189
0.00442555
0.0208112
-0.121012
-0.189788
0.0678745
0.00986594
-0.0763342
-0.0107787
0.434919
-0.22107
-0.00373759
-0.0673374
0.00966152
0.0324839
0.0269271
0.0904564
0.00387749
-0.0924221
-0.043977
0.00875355
-0.00438117
-0.00658788
-0.0107212
-0.0109889
0.0149788
0.122732
0.0554891
0.0117639
0.0169148
0.0253296
-0.0538946
0.028057
-0.34692
0.0744494
0.0637049
-0.0065512
-0.219964
-0.263924
-0.0070228
-0.0657704
-0.0730375
0.0306116
-0.286003
-0.198088
0.228566
-0.297068
-0.421539
-0.122251
-0.14536
-0.0891374
-0.195117
0.360276
-0.00802956
-0.279215
0.0119603
0.00572775
0.588969
0.0138436
0.0248539
0.0514574
0.0200229
-0.00572348
-0.388995
-0.271122
0.0529545
0.0712129
0.0718342
-0.236692
-0.278058
-0.229021
0.0206604
0.0416608
0.0954269
-0.00737417
0.00828462
0.0812652
0.0861326
0.0236603
-0.126013
-0.274796
0.0496698
-0.0785865
0.0198126
0.00896016
0.0868818
-0.0516032
0.0145827
-0.436057
0.461461
-0.13794
-0.271899
-0.0171702
-0.0133588
-0.273884
-0.268008
0.128568
-0.307866
-0.135163
0.875745
0.0166013
-0.334534
0.00731421
-0.126274
-0.0313078
-0.42019
-0.292136
-0.277412
0.0217283
-0.120279
-0.337213
-0.0116964
-0.021412
0.108641
-0.288566
0.031955
-0.468859
-0.302346
-0.360922
-0.192959
-0.0321914
0.00191226
0.10908
0.13633
-0.033433
-0.267146
0.316977
0.066866
0.0137164
-0.411467
-0.466705
-0.30766
-0.0251296
-0.325494
0.0471648
0.10731
0.0926473
-0.117939
-0.202945
0.0066703
-0.275624
-0.273529
0.00394927
0.00180002
-0.292731
-0.00852682
0.0376649
-0.353148
-0.286879
-0.0594293
0.107136
0.0288234
-0.300962
-0.279392
-0.11943
-0.195305
0.0427954
0.104393
0.0109272
-0.169012
-0.27228
0.107004
0.0324009
-0.157696
0.0233443
0.0532104
-0.307852
0.00163157
-0.23413
0.0614958
-0.412494
0.0369231
-0.000925368
-0.33941
-0.431077
0.0035259
-0.436713
-0.430392
0.0324869
-0.0682088
-0.271469
0.0278368
-0.26874
0.0220025
0.0865446
0.0745426
-0.425143
0.0718796
0.0372571
-0.437768
0.0100641
-0.287216
0.0216735
-0.280538
-0.48741
0.110889
0.280805
0.452389
-0.0130493
0.00126817
-0.000911978
-0.318443
0.655857
0.020504
-0.208651
0.032667
-0.04024
0.091337
0.494344
-0.344234
-0.0441338
-0.0425445
0.028842
0.0185159
-0.427236
-0.264372
-0.269089
-0.334671
-0.246357
0.00568889
-0.325021
0.00441054
-0.251282
-0.303195
0.515088
0.596498
-0.302328
0.127189
-0.27052
-0.0107959
-0.194359
0.409977
-0.114178
-0.295288
-0.185084
-0.489737
-0.0217426
-0.183231
-0.0116239
-0.287064
-0.255406
0.000633869
0.00118167
-0.300313
0.4665
0.685655
-0.282203
-0.284815
-0.299738
-0.0607303
-0.280452
-0.275548
-0.188752
-0.295681
0.760277
-0.315096
0.761153
-0.384436
0.34026
-0.282412
0.00427333
0.184801
-0.477452
0.246742
-0.266026
-0.290243
-0.318469
0.881043
-0.269602
0.221303
0.160514
0.658431
0.135907
-0.367989
-0.262351
-0.101151
0.00830818
0.0929086
0.54211
0.0121623
-0.0191333
-0.274728
0.121964
-0.104001
-0.169969
0.0183165
-0.397972
-0.130522
-0.149751
-0.345075
0.00770457
0.11535
-0.00291732
0.0818507
0.119258
-0.30738
-0.345756
-0.0747633
0.0145702
-0.448832
-0.492392
0.181768
0.203755
0.0998611
0.676364
-0.0625166
-0.400311
-0.36849
-0.274347
-0.0430904
0.091924
0.772923
-0.431444
0.392839
-0.00592799
-0.403032
0.163313
-0.0685603
0.399464
-0.149834
0.0179694
-0.313479
-0.0550763
0.214616
0.829229
0.345331
0.768411
-0.279371
-0.270073
-0.391498
0.175532
0.279521
0.0664546
0.390226
0.159171
0.509283
0.284825
-0.102264
-0.167431
0.0379106
-0.371368
0.895567
0.42239
0.655213
0.524099
-0.256203
-0.283652
-0.272927
-0.274087
0.0520822
-0.376385
0.121744
0.60636
-0.309485
0.0139129
-0.272781
0.195217
-0.300527
-0.343567
-0.0987629
-0.263726
-0.328099
-0.290261
-0.321037
-0.0697166
-0.393005
-0.110838
-0.360707
0.156227
0.673324
-0.206209
-0.300857
0.835654
-0.300042
0.300683
-0.219583
0.409784
0.100725
-0.249747
-0.375782
0.449734
-0.251291
-0.305723
0.204677
-0.263066
-0.00991321
-0.27585
-0.10959
0.00983774
0.584054
0.792708
-0.275718
0.238042
-0.321812
0.833275
-0.00279106
-0.294459
-0.0138773
0.778342
0.217755
-0.302359
-0.271432
0.468953
-0.197159
0.0474463
0.358366
0.265078
0.30736
-0.236962
-0.319933
0.700625
)
;

boundaryField
{
    FrontBack
    {
        type            empty;
    }
    Top
    {
        type            zeroGradient;
    }
    In
    {
        type            zeroGradient;
    }
    Bottom
    {
        type            zeroGradient;
    }
    Out
    {
        type            fixedValue;
        value           uniform 0;
    }
    circle
    {
        type            zeroGradient;
    }
}


// ************************************************************************* //
