/*--------------------------------*- C++ -*----------------------------------*\
| =========                 |                                                 |
| \\      /  F ield         | OpenFOAM: The Open Source CFD Toolbox           |
|  \\    /   O peration     | Version:  2412                                  |
|   \\  /    A nd           | Website:  www.openfoam.com                      |
|    \\/     M anipulation  |                                                 |
\*---------------------------------------------------------------------------*/
FoamFile
{
    version     2.0;
    format      ascii;
    arch        "LSB;label=32;scalar=64";
    class       surfaceScalarField;
    location    "30";
    object      phi;
}
// * * * * * * * * * * * * * * * * * * * * * * * * * * * * * * * * * * * * * //

dimensions      [0 3 -1 0 0 0 0];

oriented        oriented;

internalField   nonuniform List<scalar> 
1171
(
-0.9457
0.9457
0.77593
-1.07953
0.303599
-0.215339
-0.828514
1.04385
0.0543001
-0.0683815
-0.274029
0.34241
-0.77593
0.079536
0.696394
0.913603
-0.196574
-0.717029
0.830977
-1.04248
0.211504
-0.351224
-0.0387916
0.390015
-0.000171723
0.598226
-0.598054
-0.618435
1.04875
-0.430317
-0.419605
1.00275
-0.171775
0.255906
0.0947691
-0.350675
0.984182
0.0185701
0.321053
-0.065147
1.01008
-0.0258943
0.746993
-0.962332
-0.786896
0.615059
0.171836
0.254119
-0.872554
0.559831
-0.915198
0.355367
-1.08017
0.669407
0.410759
-0.642142
0.64197
0.0352715
-0.255337
0.220065
0.0220279
-0.650035
0.628007
0.463949
-0.50274
-0.846626
0.903064
-0.0564382
1.01083
-0.000750953
0.927334
-1.08445
0.157119
1.03641
-0.0255869
-0.696675
-0.0902205
1.26907
-0.870099
-0.398968
0.189788
-0.0712989
-0.408533
0.479832
-0.274892
0.183229
0.0916631
-0.599799
-0.479729
0.986504
-0.0591698
-0.0228422
0.871726
-0.848883
0.502163
0.766904
0.526927
0.0229479
0.441001
-0.785941
-0.108643
0.894584
0.606974
0.240339
-0.847313
-0.00418589
0.657905
-0.653719
-0.509117
-0.571049
-0.389813
-0.69464
0.02494
0.245519
-0.270459
-0.951011
-0.0359535
0.986964
0.368438
0.0215777
0.858624
0.0549787
-0.602057
-0.0400847
0.0396969
-0.825638
0.14846
0.954442
-1.1029
-0.408359
0.0269572
0.381402
-0.719154
-0.231857
-0.786167
0.934628
0.656693
0.392058
-0.575106
1.0032
-0.822601
-0.180595
-0.0427601
-0.0491285
0.0918886
-0.455792
-0.0469479
-0.334189
0.990883
-0.00833946
0.427202
-0.418863
-0.52017
1.12714
0.709302
-0.817945
0.378497
-0.0628002
-0.315697
0.769587
-0.769587
-0.950487
0.0423284
-0.316357
-0.695804
0.672961
-0.0360923
-0.144017
0.180109
0.882779
-0.0110533
1.05867
-0.818326
0.221175
-0.318228
0.0970531
0.975901
-0.117278
-0.675393
-0.059227
0.73462
0.150984
-0.233377
0.0823934
0.80639
-1.00296
-0.444433
0.311256
0.133177
0.674336
-0.652308
0.885876
-0.40162
-0.484256
0.496064
-0.694717
0.0373827
0.657334
0.128588
0.673277
0.0383459
-0.711622
0.137254
-0.0949252
-0.515042
0.106682
0.0377065
-0.907075
0.869368
-0.555266
-0.75971
0.0630347
0.494841
-0.0538399
0.274297
-0.832405
0.558108
0.424354
0.575646
0.599817
-0.56012
-0.370158
-0.0103375
0.380495
0.539268
0.230319
-0.687094
0.682908
0.086308
0.885926
0.00748163
-0.682875
-0.765807
0.803513
0.61405
0.130685
0.329136
-0.459821
-0.156231
0.547957
0.109948
0.743548
-0.87458
0.131033
0.660964
0.342232
-0.430852
0.718501
-0.587815
0.409161
0.150669
-0.0581899
-0.61407
-0.252027
0.866096
-0.116405
-0.653182
-0.613775
0.36521
0.248566
0.663729
-0.656247
0.306318
1.04768
0.010982
-0.765807
-0.110613
0.0678526
0.709302
0.789947
-0.789947
0.84404
-0.830481
-0.0135594
-0.454774
0.879128
-0.195001
-0.320041
0.762019
-0.669074
-0.0929453
-0.917381
0.303311
0.107725
-0.709783
0.817945
-0.974176
-0.18798
0.154361
0.0336195
0.10958
-1.00122
0.891641
0.53889
-0.0119633
-0.290377
0.596546
-0.306169
-0.657698
0.767278
-0.158872
0.739714
-0.717154
-0.0225601
1.09997
-0.607887
-0.492079
0.731757
-0.0678151
-0.0214675
0.0194502
0.00201727
-0.799794
-0.758268
-0.0702466
-0.695804
0.57856
-0.551603
0.151211
0.603235
-0.754446
0.779366
0.166334
0.49193
0.50807
-0.110621
-0.647068
0.757689
0.809654
-0.0661063
-0.731757
0.803513
0.179488
-0.434825
-0.00512292
-0.0156031
0.020726
0.681458
-0.439563
-0.241894
0.696394
-0.025712
-0.0185536
0.563822
0.117636
-0.00810256
0.00280138
0.00530119
0.00137956
-0.022847
0.145109
-0.20791
-0.948819
0.0464623
-0.145306
-0.0428707
0.138081
0.792954
0.743241
-0.167595
0.431634
-0.280423
-0.164267
0.385441
0.646716
0.0496778
0.229149
-1.05963
-0.974176
0.314598
0.672961
-0.162843
0.0188264
-0.839417
0.996007
-0.15659
0.487624
-0.106222
0.801553
0.305283
0.320663
0.000389809
-0.680685
0.680685
0.22867
0.665914
-0.0141395
0.441342
0.465692
0.0413538
-0.0464767
0.549469
-0.0105789
-0.657698
0.570645
0.191374
0.00503191
0.0144183
-0.646716
0.15084
0.845167
0.0155012
-0.716095
0.700594
0.759919
-0.822876
0.0629564
-0.779366
-0.0386054
0.0523606
-0.0137552
0.0848021
-0.121109
-0.106371
0.22748
-0.0089243
0.000821736
0.742161
-0.72666
0.944214
0.0996397
-0.367579
-0.607096
0.974674
-0.000246108
0.000246108
0.144023
0.435553
0.573211
-1.00876
-0.188705
-0.561138
0.749843
-0.0166934
0.196802
0.385215
-0.234231
1.12524
-0.689684
0.834292
0.940473
-0.367262
0.190214
0.767278
0.595503
0.257563
0.645501
-0.653182
0.319315
0.0169343
-0.000612066
-0.0163222
0.863848
0.162457
-1.02631
-0.569609
0.544022
0.545226
-0.569609
-0.595503
0.544022
-0.0127583
1.07954
-0.135327
-0.539268
0.457374
0.0818947
0.514892
0.697113
-1.21201
0.436754
0.688483
0.756463
0.463154
-1.21962
0.371353
0.56912
0.457374
-0.528584
-0.567348
-0.644114
-0.383324
-0.113919
-0.0048829
0.0048829
0.532619
0.589947
-0.973272
0.702295
-0.373159
-1.0041
0.396216
-0.696981
0.465124
-0.0211445
-0.891451
0.912596
0.452864
-0.0828291
0.946677
-1.15375
-0.993497
0.127013
0.866484
0.489382
-0.198885
-0.290498
0.783201
-0.84237
1.08727
-0.913344
-0.173926
-0.143404
-0.731177
-0.160627
0.799397
-0.63877
-1.10546
0.962052
-0.449193
0.64254
-0.193347
-0.80854
0.0628215
0.745718
0.00438488
-0.00463099
0.424966
0.0664755
-0.97959
0.913115
-0.782862
0.672241
0.99259
0.209617
-1.20221
-0.000906732
0.000811851
0.379684
-0.359034
0.0408066
0.908111
-0.929256
-0.7089
-0.92942
0.198244
-0.0991109
-0.967004
0.0536599
0.471753
-0.0401186
0.268208
0.221174
-0.569954
0.632776
0.484256
-0.97428
-0.895839
0.183702
0.136607
0.505419
-0.642027
-0.0544087
-0.572293
0.580155
0.179764
0.0645346
0.882142
1.08907
0.980341
-0.926681
0.0470037
-0.0470037
-0.0884854
-0.304462
0.105577
0.332555
-0.017957
0.294951
0.827733
-0.010259
0.00133469
0.657917
0.342083
0.797213
-0.599799
-0.768648
-0.479569
-0.487584
0.487584
-0.206036
-0.110321
0.70611
-0.933017
0.226907
-0.494262
-0.545902
0.342569
-1.03721
-0.941216
0.76729
-0.519293
0.717536
0.688986
0.161966
-0.850952
-0.672916
-0.173041
0.829483
-0.656442
0.113483
-0.00800361
0.00369756
0.00430606
-0.137705
-0.166757
1.04868
0.757958
-0.418677
-0.339282
0.467461
0.743312
-0.514642
0.0108598
-0.285752
0.0636976
0.789025
-0.852723
-0.348223
-0.0999535
0.138996
-1.03888
0.0125726
-0.771051
0.0601849
0.742714
-0.802899
-0.839551
0.0684998
0.680419
-0.780373
0.238231
-0.35934
-0.53071
-0.142206
0.370011
0.731883
-0.0133829
0.00450115
-0.00450115
-0.00208153
0.0507992
-0.0338649
-0.0168873
0.00662833
-0.570829
0.321641
0.821899
-0.797693
-0.0242057
-0.673538
0.733723
0.76382
-0.0834011
-0.67988
-0.159671
-1.13838
0.0205535
0.0264502
-0.507131
-0.840507
-0.89408
0.495112
-0.107928
0.0844433
0.0234847
-0.322729
-0.184403
0.442392
0.712217
-0.0457111
0.00284032
1.18108
0.526912
0.201912
-0.728824
-0.41957
0.0968415
-0.010067
0.00206339
0.675445
-0.927472
0.00566498
-0.00566498
-0.740317
0.725385
0.0149313
-0.151362
-0.110879
-0.699365
0.166351
0.591338
-0.0552988
-0.872405
-0.22582
0.0471679
0.178652
0.712721
-0.736927
0.354749
0.262135
-0.616884
-0.165061
-0.690445
-0.112454
-0.213405
-0.059469
0.467381
-0.514329
0.202087
0.727016
-0.929103
0.496064
-0.100079
-0.00784895
0.287485
-0.346954
0.598258
-0.0958628
-0.502396
-0.284224
0.303994
-0.01977
0.61898
0.0833149
0.0733753
-0.310037
0.167492
0.142546
-0.232017
0.121404
-0.28499
-0.0554677
-0.040947
0.0964147
0.846865
-0.204401
0.0530388
0.55175
0.270497
-0.689174
0.40929
-0.40929
-0.202776
-0.390572
-0.213929
-0.390572
-0.707095
-0.850154
0.18108
-0.0988239
0.732482
0.0466559
0.125619
0.606265
0.109503
0.119583
0.00879918
-0.128382
-0.051656
0.685479
-0.985252
0.378156
-0.0593916
0.0912692
-0.0318776
-0.739843
-0.174086
-0.622436
0.824348
-0.529312
-0.0743729
-0.272581
-0.333654
-0.081388
0.081388
0.0475717
0.00478891
0.140136
0.205848
-0.744599
0.122163
-0.0600037
0.471027
0.528973
0.745616
0.0350854
-0.0085253
-0.0265601
-0.295688
-0.576717
-0.598604
0.112675
-0.117893
0.00521783
-0.137619
-0.415904
-0.0720774
0.663415
-0.573249
-0.166594
-0.123501
0.0463857
0.227326
-0.464826
-0.197237
-0.191044
-0.0168656
-0.483961
0.437631
0.0463307
-0.159833
0.293491
-0.86454
-0.539786
0.611759
-0.865097
0.700036
0.442154
-0.0290866
0.053747
-0.0246604
-0.00320338
-0.636867
-0.00133402
0.638201
-0.893296
0.643004
-0.73149
-0.217962
0.00810606
-0.00810606
-0.299178
0.407305
-0.027622
0.0263531
0.00873231
0.600667
0.630608
-0.499575
0.0107501
0.00611384
-0.00161269
0.00471704
-0.00471704
-0.495076
0.578391
0.0134568
-0.0134568
-0.775417
-0.00984537
0.0142303
-0.550758
0.672921
0.646884
-0.631952
0.0696324
-0.0696324
-0.0440149
-0.00246178
0.00575835
-1.02296
0.53088
-0.471592
-0.00463099
0.597361
0.0152918
-0.612653
-0.708084
0.134835
-0.317168
-0.0143188
0.331487
-0.0307061
-0.015005
-0.606463
-0.0304036
0.0264502
0.00567564
-1.0658e-05
-0.00354059
0.00354059
-0.233481
0.329895
-0.463979
0.136405
0.660808
-0.122559
-0.000803596
0.000803596
0.50841
-0.243651
0.00835216
0.0183442
8.60471e-05
0.52712
-0.770772
-0.608556
0.661595
-0.0642863
0.327896
0.765997
-0.00208153
-0.0896721
0.10409
-0.634201
0.554025
-0.371692
-0.110723
-0.026308
-0.0255896
-0.0254126
0.455113
-0.0860229
-0.416373
0.688983
0.000165865
0.00601233
-0.00601233
-0.127701
-0.0276331
-0.57348
0.620135
-0.135457
0.510523
-0.206309
0.953302
0.753978
0.00567563
-0.842422
0.735425
0.0902938
-0.0574931
-0.0328007
0.501762
0.0970112
-0.0118755
0.0654544
-0.0535789
0.00833494
-0.00833494
-0.748678
0.0226287
-0.045211
0.0635551
-0.08691
0.08691
0.00611384
-0.00288512
0.717751
0.127415
-0.318648
-0.0972557
-0.518408
-0.0332075
-0.0667515
0.0667515
-0.0705751
0.0813166
-0.0813166
0.0260998
-0.0260998
-0.354001
-0.0768511
0.242106
0.0691495
0.0480837
-0.742512
-0.0651441
0.161949
0.0175394
-0.24573
0.0808834
-0.0808834
-0.464874
-0.0494546
0.232677
-0.0126116
0.00213505
-0.645538
0.658296
-0.0304219
-0.0401532
0.0758646
-0.0783264
-0.0116842
-0.156737
0.168421
-0.151706
-0.207634
-0.0816565
0.0816565
0.0556465
-0.0556465
-0.0300782
-0.0944019
0.12448
-0.0187613
-0.18717
-0.0150561
0.0134434
-0.176143
0.506038
-0.0257415
0.496778
0.00626884
-0.00096765
-0.0507638
0.0507638
-0.732824
0.319619
-0.129405
-0.209632
-0.0237459
-0.0160674
0.0182025
0.200254
0.0272256
0.000561106
-0.000475059
0.0828528
0.029822
0.0549351
0.107013
-0.00244039
0.00528071
0.00034735
0.00418793
0.00646856
0.00668224
-0.0131508
0.000101513
0.0064347
0.0285533
-0.0285533
0.049387
-0.0416381
0.0416381
-0.191543
0.00322028
0.025548
-0.0750614
0.0177649
0.0766779
-0.0766779
0.246585
-0.237776
0.0860702
-0.0676048
-0.170172
-0.016827
0.016827
0.405321
0.252013
-0.518268
-0.0811178
-0.0367748
0.541725
0.0571033
-0.0624465
-0.437445
0.0982812
-0.154649
0.171093
-0.016444
-0.0468559
0.0468559
0.864279
-0.593827
-0.0113224
0.0114239
-0.005522
-0.284407
-0.000433242
0.0052535
-0.0463177
-0.625365
0.567863
-0.677383
0.014905
0.192395
0.0159877
0.024664
-0.160171
-0.335421
0.260359
-0.0571714
0.0270933
0.169425
0.134569
0.261744
0.265886
-0.249899
0.0064579
-0.114982
-0.22395
0.0688977
-0.0139626
0.161145
-0.136481
-0.0688719
0.151725
-0.415249
0.121184
-0.103419
0.0582887
-0.474662
0.176346
0.175785
-0.244657
0.00699581
-0.17694
0.176507
0.00420552
0.147519
-0.0281813
0.0506121
0.457798
0.0117263
0.0203773
-0.0086995
0.0379655
-0.240394
-0.202243
0.590524
0.171245
0.0614321
0.0794578
-0.0626682
0.0272103
-0.060011
-0.0302838
0.167505
-0.1526
-0.00503532
0.00212106
-0.105753
-0.0294211
0.000245391
0.251939
0.0047081
-0.0511161
-0.313856
-0.0117847
0.216592
0.140126
0.179493
0.0577267
0.0987386
0.0628587
0.537808
-0.0128034
0.102111
0.0442463
0.0649561
-0.109202
-0.266255
-0.197853
0.0276812
-0.222723
0.286175
)
;

boundaryField
{
    FrontBack
    {
        type            empty;
    }
    Top
    {
        type            calculated;
        value           uniform 0;
    }
    In
    {
        type            calculated;
        value           uniform -1;
    }
    Bottom
    {
        type            calculated;
        value           uniform 0;
    }
    Out
    {
        type            calculated;
        value           nonuniform List<scalar> 10(1.19322 1.04348 1.21146 1.05984 1.16027 0.952444 1.12257 1.04016 0.612066 0.604501);
    }
    circle
    {
        type            calculated;
        value           uniform 0;
    }
}


// ************************************************************************* //
