/*--------------------------------*- C++ -*----------------------------------*\
| =========                 |                                                 |
| \\      /  F ield         | OpenFOAM: The Open Source CFD Toolbox           |
|  \\    /   O peration     | Version:  2412                                  |
|   \\  /    A nd           | Website:  www.openfoam.com                      |
|    \\/     M anipulation  |                                                 |
\*---------------------------------------------------------------------------*/
FoamFile
{
    version     2.0;
    format      ascii;
    arch        "LSB;label=32;scalar=64";
    class       volVectorField;
    location    "30";
    object      U;
}
// * * * * * * * * * * * * * * * * * * * * * * * * * * * * * * * * * * * * * //

dimensions      [0 1 -1 0 0 0 0];

internalField   nonuniform List<vector> 
808
(
(0.896647 -0.0102253 0)
(1.01566 -0.0359684 0)
(1.23065 -0.0479959 0)
(1.06705 0.00946947 -2.6437e-21)
(1.46689 -0.280189 0)
(0.958394 -0.0290569 0)
(1.131 -0.0375637 -3.57285e-21)
(1.12191 -0.0319093 0)
(1.33646 -0.220201 2.1364e-20)
(1.22255 -0.0907268 -2.4081e-21)
(1.29342 -0.0440983 3.97121e-21)
(1.3681 -0.245424 0)
(0.988129 -0.032068 0)
(0.742872 -0.0192212 0)
(1.02489 0.0395157 2.07238e-20)
(1.08034 -0.0200187 0)
(0.910669 0.0560294 -7.33271e-21)
(0.984216 -0.0166992 -1.10259e-22)
(1.30829 0.00568904 0)
(1.12005 -0.00256197 0)
(1.289 -0.0346912 -5.5419e-21)
(0.926938 0.126488 1.11869e-19)
(1.0739 0.00985996 -1.34322e-20)
(1.17558 -0.0483083 0)
(0.958412 0.191894 0)
(1.33904 0.0319557 -3.35707e-20)
(1.27085 -0.172894 4.47809e-21)
(0.980389 -0.0370948 -5.48231e-21)
(1.08369 -0.0243105 0)
(1.05706 0.0351717 -2.68387e-22)
(0.999775 -0.0320746 6.04519e-24)
(1.12401 -0.0206235 0)
(1.05308 0.0529298 0)
(1.09079 -0.0418305 4.57551e-21)
(1.28844 -0.083478 5.48961e-21)
(0.743755 -0.10616 1.1302e-19)
(0.870931 -0.0251222 -7.5188e-21)
(1.04264 0.051092 8.43731e-22)
(1.1844 0.0475479 -2.92133e-21)
(1.09717 0.0404977 0)
(1.25135 -0.081887 -9.65032e-21)
(1.26727 -0.134464 0)
(1.00564 -0.00788245 -7.81766e-21)
(1.14826 -0.0376381 6.57617e-21)
(1.23821 -0.145617 0)
(1.01131 0.01741 -1.97878e-20)
(1.01043 0.0400588 2.01794e-21)
(1.24517 -0.243777 -6.64572e-22)
(1.17387 0.0551994 -5.47696e-21)
(1.38813 -0.173241 -3.08617e-20)
(1.13073 -0.0242686 6.41639e-21)
(1.14624 -0.0712407 0)
(1.11771 -0.00281094 7.00529e-21)
(1.18374 -0.0413876 0)
(1.33146 0.225617 4.41115e-21)
(1.07312 0.0491094 -2.11148e-21)
(1.26615 -0.0415983 0)
(1.25293 -0.130912 9.05922e-22)
(1.22662 -0.0979374 2.58496e-21)
(1.15113 0.0346227 -3.83718e-22)
(-0.15847 -0.0373202 0)
(1.2106 -0.20852 -3.67958e-21)
(1.19665 -0.104145 0)
(1.3975 -0.104118 -2.19365e-20)
(1.16568 -0.0589396 -6.72144e-21)
(1.03872 -0.0283825 -8.00536e-21)
(1.31094 -0.104241 2.13772e-20)
(0.652585 0.0151863 0)
(1.18519 -0.0545522 0)
(1.43422 -0.342502 0)
(0.89842 0.0264927 -2.06725e-22)
(1.24389 -0.132957 -3.91321e-20)
(1.00587 0.0362582 0)
(1.05965 -0.0500194 -4.02252e-21)
(1.11682 -0.328263 -5.93969e-20)
(1.14142 -0.0323478 -1.03878e-20)
(1.15314 0.0175665 1.09454e-22)
(1.33025 0.50239 2.51764e-20)
(1.1039 -0.0371567 0)
(1.01572 0.288562 -1.85022e-19)
(1.36003 0.00162102 1.75105e-20)
(0.758183 0.0157156 0)
(0.853025 0.0335371 -1.01743e-20)
(0.968907 -0.10722 4.4402e-21)
(1.14288 -0.0343197 8.01064e-21)
(1.1963 0.00158148 1.00939e-21)
(1.28542 -0.227193 0)
(1.35421 0.289255 0)
(1.09215 -0.00276896 -1.57837e-20)
(1.44324 0.0723045 3.65491e-20)
(1.08056 -0.0227009 1.47724e-20)
(1.3071 -0.123071 -1.16547e-21)
(0.964994 0.0258089 1.73031e-20)
(1.0038 -0.0252094 0)
(1.11159 0.0117924 1.53444e-21)
(1.21823 -0.0687271 -4.7945e-20)
(0.757977 0.0196461 -1.72241e-21)
(1.35142 -0.076175 0)
(1.30887 -0.0983598 0)
(1.39426 -0.0781844 -3.59189e-20)
(1.11437 -0.0324008 -3.74799e-21)
(1.12966 0.00322632 -1.11812e-22)
(0.949842 0.0226424 1.2458e-20)
(1.19014 -0.0139607 -1.28683e-22)
(1.31642 -0.0106708 -1.42527e-20)
(1.00143 0.00377535 1.32436e-20)
(1.46779 -0.112063 0)
(0.844775 0.176305 0)
(1.09919 0.0333447 4.85384e-21)
(1.1956 -0.215646 -8.73354e-21)
(1.28155 -0.0236942 8.86575e-21)
(1.04795 0.0476415 -1.23412e-19)
(1.16185 0.0404643 -2.02089e-21)
(1.16452 0.173265 5.36004e-21)
(0.796615 0.0237699 0)
(0.918021 -0.0439701 7.72861e-20)
(1.14906 0.0194856 -6.40403e-21)
(1.42564 -0.249676 -1.61071e-20)
(1.14138 -0.0542602 -6.64859e-21)
(0.931472 0.0143143 2.4857e-21)
(-0.282057 -0.0241584 0)
(0.853928 -0.0186354 1.95428e-21)
(0.800236 0.0241098 0)
(1.06271 0.000217483 -1.02608e-22)
(1.01346 0.0289958 0)
(1.3197 0.321074 7.03763e-21)
(1.03364 -0.0528007 -3.40846e-20)
(1.30363 0.210506 1.14898e-21)
(1.14517 -0.068356 0)
(1.09229 -0.0230789 0)
(0.582104 0.0411573 0)
(1.13995 -0.039758 -3.33502e-21)
(1.24333 -0.056151 5.20573e-21)
(1.06977 0.112309 -3.35548e-20)
(0.84471 -0.0269316 0)
(1.10624 0.0215923 -1.47221e-21)
(0.945981 -0.100029 4.33147e-21)
(1.11646 -0.0383841 -3.26928e-21)
(0.996381 0.0349845 3.79848e-21)
(1.13248 0.0030455 9.37355e-23)
(0.0203374 0.117911 0)
(1.09387 -0.025954 -1.64007e-20)
(1.06182 -0.109441 8.83765e-22)
(0.714 0.0247275 -3.25135e-21)
(1.26888 0.171659 3.15035e-21)
(0.956296 0.112586 5.98319e-21)
(1.0455 0.0176464 1.81715e-20)
(0.990268 0.0263594 0)
(1.12025 -0.210805 -5.27215e-21)
(0.995167 0.121133 0)
(0.943446 0.0296672 6.81304e-21)
(0.969297 0.287196 1.48009e-19)
(0.974583 0.0361986 0)
(0.819187 0.107663 0)
(-0.0845128 0.136928 -6.91199e-20)
(1.35211 0.131474 -1.27873e-20)
(0.691436 -0.0225052 0)
(1.49238 -0.0083382 0)
(1.07552 -0.157113 0)
(1.3682 0.076666 1.50897e-20)
(-0.0429416 -0.0427111 0)
(-0.0450134 0.144306 3.26838e-20)
(0.99448 -0.0193432 7.38854e-20)
(1.01019 0.0394867 1.18256e-21)
(0.856668 -0.00120918 0)
(1.03898 -0.0483165 9.75584e-21)
(0.891776 0.0217631 0)
(0.718574 0.00553668 -7.98613e-20)
(1.02641 0.0482986 9.35723e-21)
(1.15223 -0.0491388 2.17139e-21)
(1.09498 0.00872602 7.33521e-21)
(1.01535 0.0714693 -1.19445e-20)
(0.636082 0.0917832 -5.95676e-21)
(1.13169 -0.344218 6.91059e-22)
(0.919246 -0.0217348 0)
(1.06809 0.000339983 -1.49688e-20)
(0.871987 0.00933292 -1.08605e-20)
(1.36014 -0.162085 1.76953e-21)
(0.688501 0.0206211 0)
(1.05415 -0.134647 0)
(1.12403 -0.0646784 2.39236e-21)
(1.39948 0.217501 1.01608e-20)
(1.11705 0.0146123 5.42437e-21)
(1.03615 0.0164032 2.02956e-20)
(0.841509 0.0514303 -9.42946e-20)
(0.812558 0.00420874 1.96664e-20)
(1.13158 -0.0171887 4.63087e-21)
(1.35866 -0.0841143 -3.65797e-21)
(1.12123 -0.058066 -4.74589e-21)
(1.30105 -0.0598414 3.13441e-21)
(-0.087902 0.152218 5.04065e-20)
(1.26776 -0.0560412 0)
(0.622448 -0.0191107 0)
(1.05906 -0.0290671 -7.42306e-21)
(1.10142 0.00936141 7.81473e-21)
(0.101519 0.128986 0)
(0.878627 -0.0233766 4.20024e-22)
(1.11337 -0.0632325 -2.74705e-21)
(0.967223 0.0144772 3.97773e-22)
(1.07925 0.0359541 -7.3968e-21)
(1.00419 0.0211493 2.67631e-21)
(1.04081 -0.0550177 2.42325e-21)
(1.06375 0.0357419 0)
(0.358367 -0.0243141 0)
(1.04976 -0.0636098 0)
(1.16249 0.110922 -2.82001e-20)
(-0.0531116 -0.0223647 4.51209e-20)
(1.07649 0.0213531 -7.22155e-24)
(1.19692 0.0686083 0)
(0.751687 0.0224631 -6.91126e-21)
(1.17733 0.0119493 1.50162e-23)
(0.00273428 -0.0389505 -1.49024e-19)
(0.711999 0.0369542 -3.34774e-20)
(0.640652 -0.0207976 0)
(0.965862 0.00275051 0)
(0.935505 0.0254178 7.9934e-21)
(1.02311 -0.0972328 5.70668e-21)
(1.28605 0.400558 -1.01065e-21)
(1.1283 -0.0819092 2.40523e-22)
(1.15498 -0.121869 -4.78863e-21)
(0.98774 0.0303543 0)
(1.36948 0.427507 -3.69758e-20)
(0.662968 -0.0127565 0)
(0.799485 -0.0230462 -3.92317e-21)
(1.07071 -0.0300077 2.27877e-22)
(0.601641 0.013878 0)
(1.10067 -0.00636716 0)
(0.00134179 0.0927433 -3.22818e-20)
(1.15781 -0.175826 -2.99753e-21)
(0.730877 -0.0174786 3.29803e-21)
(0.990181 -0.00369363 0)
(0.568289 -0.0144846 0)
(0.760432 -0.0191645 -4.01963e-21)
(0.54748 -0.0222132 -9.32166e-22)
(1.34568 0.000553322 3.2706e-22)
(1.32316 0.128147 3.17535e-22)
(0.700731 0.0189334 -1.28176e-21)
(1.15604 -0.0502771 1.99116e-22)
(1.20665 -0.147509 -2.26656e-22)
(0.547107 0.0162309 3.39293e-21)
(1.26128 -0.100639 -3.08637e-22)
(1.19453 -0.113434 0)
(0.89883 -0.13679 0)
(0.496885 0.0182531 0)
(1.04478 -0.0317981 0)
(1.20857 -0.0126054 -2.3443e-21)
(1.06096 -0.136824 0)
(1.16283 -0.0648827 0)
(0.9507 -0.127516 0)
(1.01457 -0.0228272 0)
(-0.0248185 -0.0333922 4.49732e-20)
(1.22118 -0.0616477 1.26576e-21)
(0.930751 -0.0915734 0)
(1.32749 -0.0391874 1.02857e-20)
(1.15486 -0.0110544 1.4487e-21)
(1.1178 0.054854 7.04286e-22)
(1.11631 -0.0154665 5.40789e-21)
(1.12717 -0.071909 0)
(0.583514 -0.0138841 8.10397e-21)
(1.05301 0.0430727 1.16172e-20)
(1.21755 -0.10966 0)
(1.27364 0.00120617 2.35537e-22)
(1.16266 0.042728 2.20191e-21)
(0.750874 0.262717 7.11844e-21)
(1.16778 0.0285924 2.55006e-21)
(1.19157 0.0936511 -6.28971e-21)
(1.06928 0.16179 0)
(1.11146 0.0630196 -2.12053e-20)
(1.14419 0.121428 -2.2744e-21)
(0.602465 -0.260739 3.57541e-21)
(0.932212 0.0522663 0)
(-0.00785035 -0.020967 0)
(0.973562 0.11503 -1.77348e-20)
(1.17894 -0.0148111 0)
(1.23444 -0.0860623 1.30907e-20)
(1.18951 0.0754761 4.03927e-22)
(1.20437 0.0448946 6.04684e-21)
(1.11101 0.0765406 -1.9984e-21)
(1.31901 -0.0324132 6.72272e-20)
(1.01381 -0.318137 5.99619e-20)
(1.09179 -0.0315599 -4.71944e-22)
(0.984588 -0.01982 0)
(0.96798 0.190492 0)
(0.90729 0.00243806 -3.09619e-20)
(1.27382 -0.22243 -5.06845e-20)
(1.14318 0.0600373 0)
(0.532562 -0.0836346 1.5776e-20)
(0.472933 0.323628 0)
(0.658686 0.0320573 7.26566e-21)
(0.689588 -0.130409 -1.89793e-20)
(0.827697 0.0238142 -4.98764e-21)
(1.10649 -0.0281228 0)
(1.31584 0.167076 -4.71193e-22)
(1.19898 0.160295 -2.44817e-22)
(0.641491 -0.174638 -7.66885e-21)
(1.12234 0.0497462 -4.74557e-21)
(0.750095 -0.165049 0)
(1.09295 0.0683244 0)
(1.01035 -0.0740621 1.34107e-20)
(0.739917 -0.105918 -7.33961e-21)
(1.27674 0.0708041 3.64276e-21)
(1.12299 0.00755499 -4.70735e-21)
(1.06989 0.1295 -1.50448e-22)
(1.13546 0.00570289 0)
(0.419402 -0.138095 1.33972e-20)
(1.34578 0.0648219 -2.18239e-20)
(0.812362 -0.185282 -4.22107e-21)
(0.28551 0.098227 -7.5267e-21)
(1.4011 -0.137085 2.03165e-20)
(0.999544 -0.0487745 8.75563e-20)
(1.1551 0.00725271 -1.36963e-20)
(1.08989 -0.0207542 -4.34608e-22)
(-0.0780476 -0.00674897 -7.72395e-21)
(1.00042 -0.00730907 0)
(1.03364 -0.0847057 -1.65574e-20)
(0.845716 -0.0350225 8.30939e-21)
(1.11422 -0.0524352 4.77803e-21)
(0.763405 -0.210348 1.62747e-21)
(0.510463 -0.0213622 2.39743e-22)
(1.40772 -0.377339 -1.5535e-20)
(1.14777 0.0132064 0)
(1.03904 0.0150855 -1.80205e-21)
(1.14918 0.0249247 -2.46759e-21)
(1.18203 0.118623 0)
(0.662399 0.195412 -7.97605e-21)
(1.13075 0.0212454 3.53755e-21)
(0.694567 -0.225991 9.77197e-21)
(1.13284 -0.0394906 -1.17602e-21)
(0.809581 0.0906449 5.41202e-21)
(-0.0404832 0.0572874 0)
(0.644125 0.0995036 4.56496e-20)
(1.19017 0.0242047 0)
(1.08117 0.259005 2.67891e-20)
(1.00559 0.293935 0)
(1.12544 -0.0160647 2.60907e-21)
(1.01571 0.0266902 0)
(0.961011 0.106055 0)
(1.37207 -0.116388 1.59022e-20)
(0.794082 -0.0800725 0)
(1.22244 -0.108978 -1.10391e-21)
(1.14173 -0.0325653 3.10432e-22)
(1.06922 0.0211205 2.9653e-21)
(1.2567 -0.123079 -9.50772e-21)
(1.2501 0.11381 -5.47044e-21)
(1.30435 -0.167297 2.54026e-21)
(1.15146 -0.00555312 0)
(1.15231 -0.019808 0)
(1.09102 0.0128519 2.69145e-21)
(1.20873 -0.042014 0)
(1.42721 0.219177 -2.6223e-20)
(0.846756 -0.151775 -4.50461e-21)
(1.02711 0.014601 2.14728e-20)
(1.28306 -0.0182175 -2.09663e-22)
(-0.0130263 0.0339436 0)
(-0.0307847 -0.0397493 0)
(-0.0210904 0.150967 -3.5543e-20)
(-0.084074 -0.0167223 0)
(0.723428 -0.0887741 1.0857e-21)
(1.16796 0.0328371 -2.22233e-21)
(1.16356 0.00809311 -5.63245e-21)
(1.18119 -0.0427767 -3.27628e-21)
(1.17323 -0.0513795 0)
(0.686321 -0.0239916 -2.41681e-21)
(1.10956 0.0267219 0)
(1.12468 -0.000395217 1.94343e-21)
(0.511818 -0.10827 0)
(0.827854 -0.0106754 1.87958e-22)
(1.08498 0.0599274 0)
(1.17727 0.0390379 0)
(0.501814 -0.0220037 1.99186e-20)
(0.564208 0.17657 -9.40961e-22)
(0.730087 0.0343766 5.20713e-21)
(1.01124 0.0180898 -1.01631e-20)
(0.179714 -0.0240444 0)
(1.27115 -0.169679 -2.22575e-22)
(1.26535 0.089408 -5.46156e-21)
(1.22323 -0.193616 1.10854e-22)
(0.643378 0.173136 3.53115e-21)
(-0.0589494 0.0347301 -9.38811e-20)
(1.12784 0.0974346 0)
(-0.0325216 0.0410243 0)
(1.18712 0.12168 1.24699e-21)
(0.359913 0.345031 -3.79948e-21)
(1.17785 0.0648426 -5.72019e-21)
(1.11027 -0.0339914 0)
(1.20615 -0.0209517 4.54174e-21)
(1.15676 -0.206473 5.03432e-21)
(0.561824 -0.0332111 -9.4486e-21)
(1.13148 -0.029785 -1.85962e-21)
(1.15285 -0.0232724 -3.79776e-22)
(0.00642615 -0.239225 8.69877e-21)
(1.23581 0.0192327 -1.68749e-20)
(1.15109 0.0336041 0)
(1.12065 0.087418 0)
(1.15101 -0.039386 3.40525e-22)
(1.21432 0.0810847 4.93581e-21)
(0.516226 -0.253532 -1.68571e-20)
(1.18769 -0.118295 -1.85515e-20)
(1.13198 0.0623309 3.11407e-21)
(0.528288 0.00072035 1.26919e-20)
(0.0837338 -0.0108187 -4.13265e-20)
(0.192609 -0.424757 1.77985e-20)
(1.17741 0.187678 -6.67891e-21)
(1.22819 -0.487481 4.5207e-21)
(1.3958 0.0138343 -9.66092e-21)
(1.1662 -0.0410742 -4.03548e-22)
(0.932787 -0.227034 9.5994e-20)
(-0.310207 -0.290734 0)
(1.23896 -0.0749082 3.96205e-22)
(0.158122 -0.08257 -2.02231e-20)
(1.1676 0.129802 -1.07904e-21)
(1.1347 -0.103135 6.77838e-21)
(1.09198 0.0335616 0)
(0.394782 0.142913 0)
(1.16972 -0.0558417 0)
(1.37928 0.236049 -1.2295e-20)
(1.26291 -0.0371004 -1.74889e-20)
(1.13111 -0.0346466 1.95117e-21)
(0.463707 0.0159194 0)
(0.617616 0.0106345 0)
(0.61062 -0.00424971 5.00442e-22)
(0.428757 -0.0126965 0)
(1.20009 0.101931 0)
(1.01947 -0.0142583 2.68282e-20)
(0.0894752 0.192804 0)
(0.923006 0.0438928 0)
(1.17179 -0.0130352 0)
(1.17811 0.180267 -6.52566e-21)
(1.28805 0.025728 8.96578e-21)
(0.961582 -0.0298225 7.04519e-21)
(1.29245 -0.395376 -1.06056e-19)
(0.325966 -0.0522669 -7.32707e-21)
(1.14769 0.0111363 7.58785e-21)
(1.19726 0.0721197 0)
(-0.234788 -0.429641 0)
(-0.25293 0.14708 0)
(1.14266 -0.0363325 -3.41786e-22)
(1.3127 -0.284398 -2.00541e-20)
(1.38869 0.0886994 0)
(1.07851 0.0264912 -8.61217e-21)
(0.581852 -0.201024 0)
(1.49133 -0.158897 6.47666e-20)
(0.41614 0.527569 1.11948e-19)
(0.29811 -0.0261822 0)
(1.10163 -0.272993 1.13839e-19)
(0.0406518 -0.23946 0)
(-0.15507 -0.268664 -1.16555e-20)
(1.4142 0.0735745 0)
(-0.169467 0.0762426 2.78514e-21)
(0.98378 -0.050766 0)
(1.19263 -0.086529 -4.15154e-21)
(-0.15943 0.0926617 -7.52812e-21)
(1.11768 -0.0331127 1.42824e-21)
(1.20298 0.0133491 -1.2758e-23)
(0.569003 -0.503221 -9.38012e-20)
(1.08781 0.014761 -2.18865e-21)
(1.18809 -0.127499 5.68361e-21)
(1.18583 0.251142 -2.03328e-20)
(1.13323 -0.106852 9.15592e-21)
(1.14748 -0.0266353 -7.10257e-24)
(0.0648957 -0.157595 -7.89861e-20)
(0.0996875 0.162284 -7.48499e-21)
(1.19473 0.112593 4.05173e-21)
(1.05876 -0.0499731 0)
(0.470288 0.206542 -7.91857e-21)
(1.39675 -0.434569 7.85427e-20)
(0.937494 -0.0530176 -5.77671e-20)
(1.46307 0.152168 8.10871e-20)
(1.09216 -0.0360972 3.92861e-21)
(1.20237 0.037529 1.35143e-20)
(1.0607 -0.00879391 0)
(1.1831 -0.0342485 0)
(1.18317 -0.0400087 -3.13628e-21)
(1.0882 -0.0211083 -4.49992e-21)
(1.03702 -0.0954225 -9.21275e-21)
(1.08763 0.0570474 -6.30849e-21)
(1.39741 -0.0659104 -3.1879e-20)
(0.433364 0.0371723 0)
(1.16275 0.0278438 1.32945e-20)
(1.35553 0.0130159 0)
(1.10295 0.0683587 -2.28569e-21)
(1.144 0.0168281 0)
(1.04205 -0.00975723 1.45e-20)
(1.23608 0.0264792 1.48904e-20)
(1.02233 0.149291 0)
(0.061309 -0.0270925 1.5656e-19)
(0.881874 -0.20555 -7.52888e-20)
(1.16094 -0.0675023 -1.78359e-20)
(-0.13254 0.0818067 4.01044e-20)
(1.20319 0.030033 2.32703e-22)
(0.654859 0.198407 4.54453e-21)
(-0.099289 0.115782 -4.17942e-20)
(-0.0264747 0.0720975 -2.67429e-20)
(1.01858 -0.0287814 0)
(-0.0305952 -0.0349367 0)
(1.19655 -0.0719825 0)
(0.11161 -0.0937505 0)
(1.11001 -0.0271965 0)
(0.152745 0.0359847 0)
(1.13167 0.0486004 0)
(1.2142 0.0210669 0)
(1.37126 0.138869 9.76037e-23)
(0.576828 -0.284556 -2.06696e-20)
(-0.101156 0.211038 0)
(1.13354 -0.0806811 6.01049e-20)
(1.20618 -0.0357636 4.0747e-21)
(1.1965 -0.0677467 0)
(-0.0350499 -0.0411691 0)
(1.15921 0.000716638 2.49812e-21)
(1.16173 -0.0197549 -1.42889e-21)
(1.1752 0.394351 0)
(0.259406 -0.0284068 6.00373e-20)
(1.12194 0.0545339 1.19798e-21)
(0.241852 -0.0505359 -5.27258e-20)
(-0.0616132 0.045649 -3.10839e-20)
(-0.0385153 0.0501515 8.06783e-20)
(0.415357 -0.229807 4.28468e-20)
(0.984551 0.0983712 -4.27577e-21)
(1.14666 0.0717268 -9.98452e-22)
(1.0236 -0.00810393 0)
(1.06954 -0.0679802 -2.3153e-20)
(1.27587 0.0271901 -9.63648e-21)
(-0.0100357 0.00709314 9.64694e-20)
(0.976259 -0.0705774 -6.08686e-20)
(0.682387 0.259219 1.18165e-20)
(1.10692 0.0332494 -2.15459e-21)
(0.0838897 -0.0288759 3.39089e-20)
(0.256742 -0.0353121 -4.80705e-20)
(0.426435 -0.0233996 -5.4449e-20)
(1.27126 0.2044 -6.14746e-21)
(-0.0517601 -0.0346906 0)
(1.03469 0.249813 1.42279e-21)
(1.01643 0.0278931 3.22884e-20)
(1.08645 0.00271801 -3.11296e-20)
(1.22307 -0.036535 0)
(1.50509 -0.218089 6.84498e-20)
(1.14156 0.0559955 -1.98894e-21)
(-0.0140192 -0.0162509 -3.2473e-20)
(0.303709 0.111133 0)
(0.89991 0.0285834 -6.97098e-22)
(1.14161 0.018555 5.58954e-22)
(0.931767 -0.291068 1.53595e-20)
(1.15843 -0.000101253 -6.16032e-22)
(1.11941 0.0464171 0)
(1.14619 -0.163571 -1.47228e-20)
(-0.121569 0.0319076 -6.33333e-20)
(1.2971 -0.0436244 1.35152e-20)
(1.10438 0.173206 -8.79404e-21)
(1.07759 0.0530098 7.2149e-21)
(-0.0414446 -0.047661 1.52153e-20)
(-0.0234132 0.0458508 -6.30521e-20)
(0.521813 0.0536059 0)
(0.706656 -0.0527725 0)
(1.15531 0.0978977 -1.6272e-20)
(1.05224 0.0678451 1.25992e-20)
(1.10622 0.00152895 0)
(0.404871 0.0788328 3.22648e-20)
(0.724452 0.0971645 -1.09567e-20)
(1.1012 0.10992 0)
(1.07711 0.0325816 0)
(1.31523 0.0265265 0)
(1.27293 0.0305486 0)
(1.1177 -0.0478688 4.01308e-21)
(-0.0429585 0.0443111 3.39497e-20)
(1.28578 0.0830224 1.38161e-21)
(1.39483 -0.173872 -7.62609e-20)
(1.20911 -0.0574391 -6.56699e-21)
(0.119908 0.0798092 0)
(1.12514 0.11437 0)
(0.618374 -0.0137288 -3.65216e-22)
(0.533789 0.0105354 -5.77492e-20)
(0.0674374 0.0378473 4.70947e-20)
(0.939825 0.0188245 1.64199e-21)
(0.74665 -0.271311 0)
(0.68668 -0.0875125 0)
(1.20904 -0.0728042 0)
(0.545048 0.520415 2.28572e-20)
(-0.0174287 0.0468123 -2.98325e-20)
(1.01087 -0.0221812 -6.00077e-21)
(-0.0209419 -0.00514727 6.16477e-20)
(1.10517 -0.0603563 2.67705e-21)
(1.18054 0.317784 3.87799e-20)
(1.10945 -0.0878125 9.56417e-21)
(0.473631 -0.084666 1.02967e-19)
(1.05566 0.16121 4.09629e-21)
(1.0974 0.0577906 0)
(0.561424 0.273598 0)
(0.863545 0.169237 3.37239e-21)
(-0.234908 0.170715 0)
(0.615982 0.0298732 2.42717e-21)
(0.601508 -0.414377 -2.87403e-21)
(0.236437 0.0501539 -1.11355e-19)
(1.12345 -0.221692 3.5302e-20)
(1.04348 0.37225 1.01638e-20)
(0.980673 0.0227104 0)
(1.28328 -0.0944729 -2.91698e-22)
(0.640784 0.0145203 0)
(0.990997 -0.0174785 -6.18715e-22)
(0.452673 -0.0122852 0)
(0.713974 0.140873 0)
(0.997376 -0.0237391 -4.00902e-21)
(1.44728 0.172931 -1.48936e-20)
(1.07916 -0.051434 4.50272e-21)
(0.519023 -0.486995 0)
(1.1311 -0.152728 3.09329e-21)
(0.808971 0.389362 7.06567e-20)
(-0.0440586 0.0192488 1.13514e-21)
(1.20901 -0.0445635 1.02098e-20)
(1.216 0.0217271 -1.13831e-20)
(1.12838 -0.108565 7.08318e-22)
(0.798624 0.0139336 -4.3629e-21)
(0.0573275 0.0197837 3.63156e-20)
(-0.0193557 0.0386597 -5.42006e-20)
(-0.220854 0.160515 0)
(-0.147058 0.2653 0)
(1.18033 -0.608638 3.0799e-20)
(1.14068 -0.0258478 6.93057e-24)
(0.887176 -0.462122 -4.07213e-20)
(1.09524 0.247826 -4.99351e-21)
(1.37742 0.200699 3.37484e-20)
(0.608104 0.425041 0)
(0.249148 0.424661 -1.13794e-19)
(0.6007 0.495376 0)
(0.118862 0.126449 0)
(1.11569 -0.470296 0)
(-0.0482087 0.10849 -2.13667e-22)
(1.19694 -0.0286991 0)
(0.921996 0.0214511 -3.5007e-20)
(0.602113 0.704849 2.07954e-20)
(1.37714 0.151013 1.70661e-20)
(-0.0414995 -0.0399643 -1.08012e-19)
(0.824484 0.169879 -4.67574e-20)
(0.452307 0.145585 -1.34513e-20)
(1.20862 0.0832701 0)
(1.3704 0.360071 3.46311e-20)
(1.23196 0.574919 7.42738e-21)
(0.15077 -0.0139262 -2.12891e-20)
(1.01031 0.146428 3.12155e-20)
(0.9434 -0.0282334 8.15475e-22)
(0.914174 0.0190767 -2.62784e-22)
(0.00656797 -0.0217294 0)
(0.640896 -0.639846 -3.1629e-20)
(0.615121 0.214583 0)
(0.0380229 -0.0238398 0)
(-0.0483398 0.0683276 0)
(-0.0289583 -0.0208966 -4.06687e-20)
(1.23538 -0.0179649 -1.1756e-20)
(-0.0268228 0.0809729 0)
(-0.0343126 0.0803575 0)
(1.45739 0.119174 -7.78555e-20)
(-0.0351724 -0.0535194 4.90477e-20)
(0.116273 0.243242 -1.00823e-19)
(0.380905 0.0198227 0)
(0.167785 -0.26761 8.28904e-20)
(1.09179 -0.234897 0)
(0.990991 -0.277337 0)
(-0.0103579 -0.0316147 1.01491e-19)
(1.14836 0.0298946 -8.65886e-23)
(1.13024 0.349958 2.83572e-20)
(0.257189 0.0294399 4.56744e-20)
(0.399868 -0.509835 -4.04681e-20)
(1.32352 0.0743386 0)
(1.22591 0.203469 2.15743e-20)
(1.22591 0.215028 -2.65013e-20)
(0.103265 0.0999391 -2.35357e-20)
(-0.0630765 0.0993024 0)
(1.06799 -0.0575486 -1.95147e-20)
(1.0976 -0.217156 -1.73702e-20)
(0.579495 -0.390862 0)
(1.09508 -0.14572 -2.73516e-20)
(-0.0107454 0.243091 0)
(0.605803 0.0599735 0)
(1.40284 -0.0353549 2.27518e-20)
(0.978627 0.0236461 3.24354e-22)
(1.08757 0.756315 -1.55925e-20)
(0.222679 -0.370577 1.36539e-19)
(1.08354 0.0396327 -1.15097e-21)
(1.2104 0.0701473 6.12977e-23)
(-0.0492961 0.115115 2.97565e-20)
(0.794809 0.742661 2.72969e-20)
(1.33942 -0.359993 -1.35876e-20)
(-0.215335 -0.0525956 4.45589e-20)
(1.17643 0.0403869 0)
(0.371738 0.0321983 -1.02044e-20)
(0.893841 -0.629932 2.59237e-21)
(0.906804 0.648217 -2.07472e-20)
(0.56162 -0.028336 -6.29192e-20)
(1.13905 -0.0119792 -3.57058e-21)
(1.0744 -0.0845452 7.85612e-21)
(1.17209 0.0634468 -1.60274e-22)
(1.10808 0.120392 4.13784e-21)
(1.13025 -0.127471 0)
(0.911103 0.114514 1.38511e-20)
(0.891155 0.462772 0)
(1.36779 0.149872 6.69433e-21)
(1.17186 0.10963 -7.56238e-23)
(0.753142 0.265989 0)
(0.517961 0.111225 1.06218e-19)
(0.901701 0.723707 -6.50823e-22)
(1.08227 0.294434 -2.17779e-20)
(1.04232 -0.0108156 1.34073e-20)
(0.419549 0.50746 0)
(1.28756 -0.464364 0)
(0.851999 -0.1215 7.14411e-21)
(1.27141 0.509795 0)
(-0.0283557 0.0599044 -4.07359e-20)
(1.27562 -0.409101 -3.55653e-21)
(1.17436 0.518683 0)
(0.454312 0.233379 1.69702e-19)
(1.12851 0.320506 -1.18425e-19)
(0.80759 -0.626938 -2.75806e-20)
(1.17964 0.0589748 -1.3453e-21)
(0.917827 0.154676 7.94921e-20)
(1.09161 0.170657 5.29325e-20)
(1.07938 0.713314 2.23544e-22)
(0.897433 -0.427473 6.77475e-20)
(1.44992 0.176843 4.05742e-20)
(1.12787 0.00371153 -7.13879e-22)
(0.0145679 -0.0344906 9.30971e-20)
(1.07504 -0.693479 2.16217e-20)
(0.863686 -0.708783 5.76948e-20)
(0.248589 -0.314171 0)
(0.971119 -0.143676 7.54342e-20)
(0.365388 0.324856 -4.40417e-19)
(-0.142357 0.175274 1.86515e-20)
(0.233207 0.0575033 2.13102e-20)
(0.687331 -0.054317 -7.39724e-20)
(1.08791 0.539422 0)
(0.991866 0.225631 8.16636e-20)
(1.087 0.0286867 3.52507e-21)
(0.918832 0.45339 -9.1096e-20)
(0.774985 -0.716203 -9.39419e-21)
(0.930824 0.0290782 -4.97612e-20)
(0.984884 0.500175 0)
(1.2858 0.167178 -1.631e-20)
(1.37235 -0.50658 1.24033e-20)
(1.2202 -0.333028 9.13705e-21)
(-0.165228 0.131088 3.98192e-20)
(0.194543 0.0233796 -1.83057e-20)
(0.971096 -0.114046 -5.90688e-20)
(0.358394 0.540005 0)
(0.92056 0.0233009 3.96495e-20)
(1.16419 0.64374 7.97362e-20)
(-0.121791 0.0375515 1.35152e-19)
(-0.0569083 0.12851 -2.49597e-20)
(-0.0936724 0.0335158 3.98066e-20)
(1.09752 0.0201505 -4.72198e-21)
(1.12836 -0.456169 0)
(1.05787 -0.723161 -4.71247e-20)
(0.703176 0.361548 0)
(-0.00994081 0.0532817 -9.63043e-20)
(1.09542 0.035216 3.9147e-21)
(-0.0352662 5.4328e-05 -2.79868e-20)
(1.04914 0.0557422 -1.24237e-20)
(0.0964208 0.0329058 5.28143e-20)
(0.845164 0.131406 0)
(1.3416 -0.0660201 3.11623e-20)
(0.0541896 0.0774413 -2.4195e-20)
(-0.18983 0.194664 -4.7299e-20)
(-0.2721 0.219356 0)
(0.094922 -0.00755038 0)
(1.30355 -0.0437128 -8.05925e-21)
(0.391384 -0.00653851 1.52726e-19)
(1.25803 -0.716964 -1.70906e-20)
(1.01033 -0.197169 4.1533e-20)
(1.07579 0.253844 -3.07754e-20)
(0.363233 -0.542873 1.43648e-19)
(1.56325 0.284845 -3.38377e-20)
(0.0707215 -0.0269463 3.60197e-20)
(0.210541 0.323348 1.96311e-19)
(0.109728 -0.0113024 -1.35097e-19)
(0.937105 -0.483208 -4.46553e-20)
(1.46291 0.394166 3.42828e-20)
(0.560108 -0.664669 5.125e-20)
(1.10518 -0.0830251 -7.80957e-21)
(0.165859 0.126913 5.14775e-20)
(1.18561 0.296514 -4.66241e-20)
(0.668321 0.653551 -4.01809e-20)
(1.33053 -0.615903 0)
(1.42571 0.526743 3.33309e-20)
(1.04568 -0.519386 -1.22074e-20)
(1.39817 0.614644 -9.96424e-20)
(1.19664 0.0193061 0)
(-0.0533597 0.100028 0)
(1.26151 0.739432 0)
(1.2879 0.0524193 -9.63519e-22)
(0.736986 -0.291374 -2.10676e-19)
(0.477416 -0.0694307 0)
(-0.0496246 0.126712 -2.52062e-20)
(1.02087 -0.241938 1.03024e-19)
(-0.292345 0.00717206 0)
(0.322466 0.0418755 1.23685e-20)
(1.16013 0.0318197 0)
(1.42243 0.281619 0)
(1.20489 0.0549143 1.44065e-21)
(0.359643 -0.276589 0)
(1.01402 0.152326 3.82609e-20)
(1.31436 0.291016 0)
(-0.0668007 0.141676 -1.13697e-22)
(0.808802 -0.385412 0)
(1.52827 0.342864 -5.10737e-20)
(1.24683 0.37622 8.82163e-22)
(0.849163 0.659871 -9.75888e-21)
(1.01307 0.158678 -9.00928e-20)
(0.966285 -0.198573 -4.99027e-20)
(1.46243 0.299345 3.00858e-20)
(1.02606 0.12509 0)
(0.564827 -0.0594842 0)
)
;

boundaryField
{
    FrontBack
    {
        type            empty;
    }
    Top
    {
        type            noSlip;
    }
    In
    {
        type            fixedValue;
        value           uniform (1 0 0);
    }
    Bottom
    {
        type            noSlip;
    }
    Out
    {
        type            zeroGradient;
    }
    circle
    {
        type            noSlip;
    }
}


// ************************************************************************* //
