/*--------------------------------*- C++ -*----------------------------------*\
| =========                 |                                                 |
| \\      /  F ield         | OpenFOAM: The Open Source CFD Toolbox           |
|  \\    /   O peration     | Version:  2412                                  |
|   \\  /    A nd           | Website:  www.openfoam.com                      |
|    \\/     M anipulation  |                                                 |
\*---------------------------------------------------------------------------*/
FoamFile
{
    version     2.0;
    format      ascii;
    arch        "LSB;label=32;scalar=64";
    class       surfaceScalarField;
    location    "1341.5";
    object      phi;
}
// * * * * * * * * * * * * * * * * * * * * * * * * * * * * * * * * * * * * * //

dimensions      [0 3 -1 0 0 0 0];

oriented        oriented;

internalField   nonuniform List<scalar> 
1171
(
-0.9279360156855995
0.9279360156031312
0.7874189463028336
-1.099109293557967
0.3116903471251889
-0.1915430712337793
-0.7648344426009444
0.9563775142647694
0.07206397878859241
-0.1167644580069903
-0.2121870283125606
0.3289514870370159
-0.7874189556313014
0.06947694915224487
0.7179420064942643
0.8116867438218034
-0.17781513570453
-0.6338716079559935
0.8743675517307882
-1.044067211284174
0.1696996596122984
-0.2853296321937308
-0.097294575556304
0.3826242082007413
-0.03603459203343028
0.5488438002479984
-0.5128092083208026
-0.5029806012664009
0.8244858797618296
-0.3215052790728498
-0.4020940870436331
1.046043274905253
-0.1716757203753141
0.3934295097021828
0.04808328702929785
-0.4415127960937712
1.046089582586632
-4.630692562342556e-05
0.4434566976458439
-0.05002720335592761
1.056765017332686
-0.01067543537978861
0.5784100078113049
-0.7699530792336043
-0.7243910819081866
0.5568939725900243
0.1674971093213467
0.2194426408113477
-0.7224232420616846
0.5505931160552268
-0.9228717022796707
0.3722785854624394
-1.094171328408136
0.6864470207833319
0.4077243078812463
-0.595511219274754
0.5594766287710876
0.01810610610043978
-0.2568756950886739
0.2387695868020482
-0.02373670084785066
-0.521273728393295
0.5450104319555671
0.4003702820512698
-0.497664855196396
-0.9188674609494594
0.9414688632815204
-0.02260140243891329
1.067505413669253
-0.01074039636654946
0.9349371114700464
-1.116723657561393
0.1817865461158578
1.067008590844249
0.0004968225362000601
-0.6644593070010137
-0.05993176682415953
1.262345605741126
-0.8642353291719312
-0.3981102765158136
0.1481411304830337
-0.1092324594889443
-0.3264405967931869
0.4356730565305802
-0.2856769985660321
0.1911363401528461
0.09454065924926951
-0.5835835424151201
-0.5155257459910283
1.014011441107657
-0.07907433049592326
0.009934294540641075
0.8254560837271384
-0.8353903783286656
0.5718719258798142
0.6904736764572699
0.4396113487375246
-0.03023423715615271
0.4306045210668023
-0.8078199521844717
-0.1025173022748841
0.9103372544537711
0.5022730598406242
0.2536908387761304
-0.7559638987624852
0.006229275600704931
0.5268928331213194
-0.5331221078076616
-0.4898884237916863
-0.6042829073032138
-0.4228106994819186
-0.6939129601976693
-0.02702649550357816
0.2700997076670993
-0.2430732115961483
-0.9247032273255665
-0.005074105562515503
0.9297773328390256
0.3086483428184664
0.0739758691173209
0.7620881218254247
0.049598615369988
-0.5331569692938523
-0.06235424558223399
0.04615856914876705
-0.8539785267597604
0.0747856286247614
0.8632958030052544
-0.9380814317249127
-0.3470308614542739
-0.04154143680554295
0.3885722974059159
-0.6821270173879119
-0.2425762142727687
-0.6327542139824383
0.7075398436970725
0.6118050589452015
0.2126808208193526
-0.5430434485320258
0.945817022339179
-0.7792037293389392
-0.166613293136904
0.01790187670677802
-0.01751897148325201
-0.0003829109487010242
-0.4032002935122715
-0.09446456346837682
-0.240885461629377
0.8526905222141897
0.04651915993835971
0.3356618905741197
-0.3821810502805648
-0.460372819610829
0.9626458842908495
0.6802812596102588
-0.7827985676993978
0.3206065571185227
-0.01780148605273467
-0.3028050746771073
0.9307233572849899
-0.9307233572893443
-0.7818780942544746
0.1104537984896746
-0.3226408276465449
-0.74998749456005
0.7599217868644969
-0.0898748612236271
-0.1433170266798441
0.2331918876971106
0.8650008274998797
-0.03954474627184257
1.054189900394509
-0.8004990606673472
0.1861615613788284
-0.3156044269524853
0.1294428660334077
0.8592301380157549
-0.09714201933472147
-0.6117380688458141
-0.03901799388271655
0.6507560626815069
0.1237039365489526
-0.2310511508000671
0.1073472128268078
0.8056954207069379
-0.9835105645760659
-0.4353268594549755
0.3296285409484394
0.1056983188001323
0.5316024214058014
-0.5553391260050408
1.021971406035391
-0.4561949789036391
-0.5657764272383815
0.5991607108452061
-0.7193961147930709
0.0668573652558211
0.652538750177632
0.103266247379854
0.5700764983112606
0.05526694806025344
-0.625343446419096
0.1940358211545548
-0.08358201636365492
-0.4930446909897614
0.1460138213301675
0.05027521994742908
-0.886692004206817
0.8364167842928725
-0.4731904399281359
-0.7134323263236135
0.04897302243907698
0.4371778154072817
-0.006573297091012044
0.2998259877639071
-0.8552273267800398
0.5554013385413531
0.4157244436091566
0.5842755564679963
0.5604556840784785
-0.5142971164436708
-0.3671257040460653
0.03574078552971658
0.3313849186619366
0.6813622230214949
0.2493611315685069
-0.5655359361771719
0.5717652111095963
0.1107372286106096
0.8751723796880357
0.01016348449283419
-0.6219015514931918
-0.7492345079977896
0.7995097270901553
0.5310585129809866
0.0701037135205093
0.3023743326233603
-0.3724780460278652
-0.1675315102292502
0.4421188254243018
0.08477402149332222
0.8765261371124344
-0.8009238334533634
-0.07560230382614183
0.6353099505932669
0.310507068104578
-0.4302267815872843
0.5745194849671481
-0.5044157746864909
0.4172207578061446
0.1333723594785872
-0.04681706470586705
-0.5935400577026632
-0.1373291758151282
0.730869233615687
-0.1497761061882346
-0.780947254062399
-0.6109821486274923
0.3607187374236525
0.2502634121401608
0.6221005042879721
-0.6119370171911613
0.2390766207806513
1.01122171338494
0.04296819274832804
-0.7492345130021814
0.2330724480742555
-0.2151705693435348
0.6802812572435525
0.8018786748137776
-0.8018786749001801
0.8377189866759549
-0.8332604055608345
-0.004458581210147592
-0.4453870295259979
0.8611114769035839
-0.1474315424859264
-0.3456131547006638
0.7347022375543349
-0.6684644419404467
-0.06623779551541359
-0.7326426243164229
0.1391025595775208
0.1387244391608101
-0.6718814055673482
0.7827985652037089
-0.9503300753406485
-0.3675424348671622
0.291909804456054
0.07563262610970466
0.1459480611461257
-1.009762755152757
0.8638146939822507
0.4813098911852078
-0.04169854238532965
-0.3081721396154719
0.5864854238202882
-0.2783132842538691
-0.7384415319266698
0.8843895976682804
-0.1571032307156609
0.7324783954248094
-0.8438558307424241
0.1113774346816666
0.9763605731156683
-0.5408905806707442
-0.4354699925364796
0.7550616030846289
-0.06500757215004579
-0.03189589329672946
0.186348742947911
-0.1544528480511257
-0.7757865682301536
-0.8447689257936651
0.07993448220482817
-0.7499874938059856
0.5137395617309609
-0.5552810071528771
0.09427830306262203
0.7199912320603952
-0.8142695351981571
0.7536930967423183
0.1742429105907764
0.5028948632213529
0.4971051367966713
-0.0496040807681612
-0.6099933551284036
0.6595974366858434
0.884389077027797
-0.007862940249866796
-0.7550616030859288
0.7995097229593252
0.1911236018388961
-0.4479992972364917
0.01887737730744077
0.002930378805869975
-0.02180776001408153
0.5886073443378927
-0.438161235865965
-0.1504461084326933
0.7179420135809517
0.01188830631648772
-0.1122905291116766
0.4370901372407425
0.1515172040008434
-0.01563766017871833
-0.005446794811649931
0.02108445594242956
-0.03182807906203586
-6.783663284092153e-05
0.2437695542123456
-0.2615710463438384
-0.9589819120109903
0.001458967764321429
-0.1594721890333325
-0.1237728714565939
0.09438694870555102
0.7217604235057651
0.7290482346398136
-0.1447726761933826
0.6683880930342196
-0.574109794787523
-0.2117156649028159
0.3978772149502025
0.6954733244301914
0.02246868914242137
0.2416871532011723
-1.074947561219678
-0.9503300779881212
0.3020750426926178
0.759921785991442
-0.2087425952168784
0.06542556215232276
-0.7232193937397093
0.9107799941388337
-0.1875606005697162
0.4157609193897321
-0.02718862613410552
0.7714092091712059
0.2806038781527493
0.3728398574286945
0.07061685333647799
-0.6586906295011237
0.658690629538728
0.214597386446131
0.6957398633682716
-0.05542711680433211
0.3910890155515641
0.38024593921179
-0.01591723278797479
0.03479459270585495
0.4491488243139369
0.03216107014492415
-0.738441528965296
0.5340994144318648
0.2006028217852603
0.3046942668520903
-0.1183455378884101
-0.6954733313279736
0.1802525085453194
0.7305274909005293
-0.01013584806554535
-0.813728840006185
0.8238646881360735
0.6962991641521197
-0.7920991481500864
0.09579998408150067
-0.7536930951274867
-0.1494979275412176
0.2108512543047647
-0.06135332552011707
0.07712829360569222
-0.1798684045034016
-0.1116798066973059
0.2915482119271507
-0.01007573722140246
-0.005561912533188759
0.7063482471774694
-0.7164840966826143
0.8851404516703724
0.07123706248599361
-0.3104732457308198
-0.5212141464816474
0.8316873927399089
0.102526281705631
-0.1025262819245029
0.3276505749438823
0.479286555061507
0.6085628663814349
-1.087849421821222
-0.194145362359011
-0.5855905704640498
0.779735932834279
0.01207670051223427
0.2211151819922662
0.3770949075141578
-0.2533909649792558
1.013442022507421
-0.534155468481492
0.665129927731809
0.9930864070522507
-0.3845235422234166
0.2296633639762597
0.8843896021095505
0.712713881016516
0.213706195101189
0.7277626683112445
-0.780947256090805
0.3413093776990357
-0.2808209885064797
0.2512030271859716
0.0296179553148898
0.851565075626568
-0.01489231248052454
-0.8366727631985555
-0.702038446058838
0.7025352682562775
0.5546129711950437
-0.7020384453208561
-0.7127138810530756
0.7025352680553537
-0.03393351511575317
0.9038951391020155
-0.01875468443566925
-0.6813622188877452
0.6122946774942147
0.06906754136681616
0.5388782452869355
0.5381237539981413
-1.077001999225585
0.4910035822303441
0.5224384403539267
0.5456921990376833
0.4593795691450731
-1.005071768258397
0.4977451469354458
0.4953412592803956
0.6122946750011894
-0.5256662390061859
-0.4659321310899596
-0.5557693182532195
-0.5179661321663812
-0.1238646041547687
-0.01252248151886986
0.01252248266077285
0.5104284416043734
0.5236430661043057
-1.041609198466663
0.574663011274101
-0.2722886841047552
-0.8841137902007654
0.3432232088231942
-0.6327181148950034
0.3901418980498206
0.0004413970759169421
-0.8301699721151662
0.829728574872177
0.4208760976163835
-0.0208939696104942
0.8724590482646305
-0.9432274602289631
-0.8353808251237176
0.05726794794190206
0.7781128770708314
0.5513185713042033
-0.436209646218537
-0.1151089246593876
0.6499631791510266
-0.7290375113925904
0.8833333703061066
-0.83020547046106
-0.0531278997624636
-0.01104265028076108
-0.7898811834854355
-0.1104608445426112
0.716131157685079
-0.6056703131302887
-0.9388513071699343
0.9278086561703447
-0.7365407330409358
0.6897991489845123
0.04674158401338618
-0.8026794842945694
0.03128520474127065
0.7713942796497271
0.06166864790315912
0.04085763316142843
0.4331983469167634
0.0598940908597687
-0.8498343915932589
0.7899403005074535
-0.6432060786084133
0.5936020024045082
0.8908204150051794
0.07134436068882342
-0.962164776028172
0.05543958540005369
-0.04879543674383297
0.3801803438342738
-0.3813212309029681
0.06571679283257262
0.8414220541978543
-0.8409806568474695
-0.7314424213674819
-0.8077824699461125
0.01790128491040398
-0.1678745308115358
-0.8494045133399849
0.01919904259816588
0.6251632958551339
0.04322479868840946
0.01953994407396337
0.5317786214832687
-0.8110807183965537
0.8423659252715061
0.5657764248714739
-0.8510639391642093
-0.8675069504619671
0.03638818808474383
-0.03829121402775394
0.8358241661153982
-0.7975329521045549
-0.01967593840951459
-0.7697336328905818
0.5443251086825823
0.1519740541000737
-0.02474345096626659
0.8972025002405205
0.9850766007762993
0.8605747893410999
-0.8413757472353979
0.147354238034752
-0.1473542411277398
-0.1182489847312884
-0.4731482332079545
0.03693858092960796
0.2714438186169573
0.0306312243311245
0.3847281637334848
0.8775265634481919
0.003805093057180586
-0.01388082366761766
0.6586158293544458
0.3413841706764404
0.7834987357701336
-0.5835835450227406
-0.7780303596720727
-0.812425258079348
-0.6799338648784748
0.679933864842441
-0.1679165837597643
-0.1547242320963529
0.6015149470147978
-0.8116470432079874
0.2101320961888621
-0.4938021362032329
-0.5689205632336508
0.2781791244069595
-0.9720920839195701
-0.9000179037318043
0.846890003130443
-0.8198745868568833
0.8377758714018232
0.648551126654573
0.1345627601139519
-0.7831138867535045
-0.7656836740934968
-0.1460566119532744
0.7250110950325938
-0.5789544829709478
0.02249133976832316
-0.01454025549165369
0.01750837222066311
-0.002968115171754961
-0.3539703840316376
-0.119177850689679
0.8796940727157488
0.737271936135844
-0.2391812073718053
-0.498090728252975
0.6221629946294428
0.6854020728451693
-0.4708046899721887
-0.0006789896279678926
-0.2849980154826587
0.02063040272584494
0.744265081518257
-0.7648954842934345
-0.3235409570807635
-0.07144086131667621
0.07557832439104617
-0.9633602723744216
0.1266875118617689
-0.6770842818556017
0.05324131169414165
0.6409384105428344
-0.6941797220667024
-0.7569292513483429
0.07984496942638607
0.5891740280925859
-0.6606148893756145
0.1559544081513013
-0.3358228113223196
-0.7720980339457825
0.006414359970574365
0.3712230554087794
0.6009777539439149
-0.02645826821448872
0.02395156293081156
-0.02395156610588725
-0.01796926709884849
-0.05302064395401044
-0.2278003406158145
0.01893005597432386
-0.0151250030495428
-0.7288732326688363
0.2794102588899522
0.6786118517368894
-0.6905370187647698
0.01192516717308517
-0.5982643412450849
0.6515056454453114
0.6538134327253191
-0.06463940314691319
-0.6315607775108344
-0.1253684760360614
-1.049571454243943
0.01123737057335523
0.1361168564976727
-0.7082428244597316
-0.7420216324206196
-0.7636651438074067
0.36555486337884
-0.4102936487832861
0.4706612240240852
-0.06036757551780128
-0.6783790809151335
-0.02986374335854204
0.4998655333544478
0.7306798036522819
-0.2335301996575159
0.1097573315729384
0.9569459086932761
0.4457639583152799
0.1333192503159392
-0.5790832086048145
-0.6782962987185588
-8.278024181162163e-05
-0.04451465610296555
0.02997437984483
0.6376545521064334
-0.7749837337831368
-0.002915906718071277
0.002915905066973283
-0.6000130427402349
0.648958445775299
-0.04894540264292874
-0.658756361558679
-0.1137019663804367
-0.6718202104252338
0.04960435296525587
0.6099930875085063
-0.1374212025012164
-0.8178768325917708
-0.5576826768757279
0.5702419320593269
-0.01255925202243585
0.6336501286566868
-0.6217249653412542
0.3222110459779917
0.2139209329788655
-0.5361319790118694
-0.104367078270782
-0.6030402500420001
-0.09113947752300341
-0.1542490880231289
-0.508078317694086
0.4043190078540414
-0.4987835689091095
0.1260252888202678
0.6785969825688876
-0.8046222715602414
0.5991607108320568
-0.3749013125523328
-0.03539233149469902
0.0610406501196343
-0.5691189659089926
0.5516856086369281
-0.04029432751817793
-0.511391281534609
-0.3123254219652163
0.3049374098205265
0.007388014572959671
0.45131091636843
0.123352100144156
0.05077317206581113
-0.3158595869220907
0.1567978644393801
0.1590617228952904
0.2529330023379068
-0.01986057151145498
-0.2975319241454703
-0.3139736601220742
0.366529656426667
-0.05255598923839619
0.79181744143345
-0.6295602726936036
-0.02919608842996489
0.4995448683047828
0.2833594622607993
-0.5225406691868701
0.5774518367577791
-0.5774518367574663
-0.2897869622629823
-0.5865166672075811
-0.2955136281062653
-0.5865166673146024
-0.5966099160727292
-0.8384892916056463
0.170024851461253
-0.592621698389637
0.8212330540378757
-0.003595403072219761
0.1196970555293606
0.4812806957275489
0.09669771212747866
0.1852711936553475
-0.0361097545941397
-0.1491614392898796
-0.02237975734113845
0.592266545724796
-0.9439389727867956
0.4227248263019669
-0.0006401522754650779
-0.0001563153152841446
0.0007964667066250406
-0.6435938931376758
-0.131994375405606
-0.4653377524713166
0.5986569977233546
-0.5037036266594597
-0.3146073644844208
-0.2545116209891472
-0.2721738575557584
-0.1119100543123398
0.1119100563474231
0.1532420701827101
0.05760918793923314
0.1965085694348348
0.4508006545829003
-0.5710079674240749
0.1056702124716709
0.2505628952555283
0.4661461402417395
0.5338538603804733
0.644375177650105
0.0801207228624639
0.002974485376580276
-0.08309521261927642
-0.2769118173714795
-0.5409650150281599
-0.5454528395078015
0.1142485829922178
-0.1261895289834345
0.01194094666212774
-0.1060009158058829
-0.3859074840910908
-0.04611082689198476
0.6561039194201126
-0.4991568486481881
-0.1444370445175044
-0.3321263404457606
0.2887770503957504
0.1251989130091407
-0.6039735391675455
-0.2040263337816548
-0.2619938075422457
0.0004227697188760734
-0.4212692160064445
0.3216732472728832
0.09959596851379182
-0.08877312039747011
0.291639447973812
-0.8959223545885864
-0.4578463296022635
0.6337241665400597
-0.772983931986734
0.6686168537833167
0.3422935819848353
-0.126477818877095
0.2255972274709273
-0.09911940935053962
0.02978068627202886
-0.5861868862954283
0.02912865403598784
0.5570582320444948
-0.900704651659163
0.5469960806049295
-0.6652450655827824
-0.0970489701361438
0.1089282452409778
-0.1089282477335734
-0.3165385823080244
0.3625475563372029
0.01763278278788679
0.02172524103877857
0.05839548078039537
0.5046002403088988
0.6651245954016543
-0.7407269002073419
0.02465562162366031
0.02172645507577721
0.002225114896064185
-0.006355112650336153
0.006355114267839077
-0.4121138657603713
0.5354659636753334
0.01532335879987612
-0.01532335872606732
-0.7924375697006033
-0.05981472320762336
0.121483365582736
-0.4507353772543345
0.5564055869812282
0.4492831645931864
-0.4982285638428977
0.1498079792774349
-0.1498079822985872
0.04391350546843389
-0.009118913215165503
-0.04087862782771715
-0.9772136593864911
0.5417436667109209
-0.47248142589981
0.04085762600363091
0.5147080050177073
0.03073754119163939
-0.5454455463617432
-0.6159716530381731
0.1168147978691239
-0.3297156301595441
0.01353111816624379
0.3161845102208551
-0.1536648290562951
-0.07986538385681798
-0.5407856591420475
-0.04540123629060999
0.1361168712845602
-0.04161366791285599
0.03869774854458357
0.08196284388571989
-0.08196284235064005
-0.5355312216210552
0.482975226121506
-0.414480369892835
0.1613190569085556
0.6221796788914332
-0.09780251495770405
-0.006443193060062933
0.006443194571057544
0.5330034925542312
-0.07219492411119642
0.006401963408563135
0.02718862117033082
0.03450252825336367
0.6890706227473782
-0.7612655467097108
-0.6635048490343906
0.6343087566384856
-0.1099338604218473
0.3130524862610645
0.7459132604073434
-0.01796926517786547
-0.2663459798382226
0.1480004379117714
-0.7446613018819287
0.4841427718557033
-0.4223861479849993
-0.1012636540848408
0.003539444658059045
-0.01470677311945199
0.02190455212989799
0.4124070101112156
-0.1216913440076844
-0.3896999441077239
0.629072106735138
0.0188775963591503
0.009653936029888264
-0.009653937289737497
-0.3572685266572209
-0.08473058419874845
-0.5605940581274445
0.5569986550382862
-0.2381576240113006
0.4647940814009434
-0.1506565603536545
0.7290665681994277
0.6721115114218607
-0.04161366336311675
-0.6153646016460887
0.5598209825967801
0.28501029109652
-0.2823700219795367
-0.00264027212548907
0.5455356278946643
0.09341719849178348
-0.03874053337705922
0.197134423756377
-0.1583938901797163
0.1207033805372882
-0.120703377717212
-0.8587075249125776
0.002453729090297049
-0.1129265556810605
0.1401151756844943
-0.1319313434391587
0.1319313460878952
0.02172644960691801
-0.0244124535241906
0.6712809953682347
0.0592464963972637
-0.3231139373944745
-0.06279354739388519
-0.4712785801614588
-0.04711604137561166
-0.1517362933854002
0.1517362966926442
-0.03918169023481489
0.1432651242111937
-0.1432651273586024
0.1368978682215057
-0.136897865306086
-0.3157389047630322
-0.114487876864944
0.2265447861144101
0.1030837492586588
0.03484283816247795
-0.8211798673580035
-0.1972359263990183
0.1702776026634527
0.02084599809564334
-0.2653148099060858
0.1258066542867384
-0.1258066570686734
-0.4141202776938172
-0.08466328932744495
0.2364517810276751
0.002317804591747867
0.04034917475224448
-0.5438000939032998
0.5777336090766
-0.02368695819984959
-0.01549473526354768
-0.02699669412897789
0.0178777831572133
0.006542868291485399
-0.1842541016854236
0.1777112329731551
-0.1075645568149103
-0.2282582595758318
-0.1447958992971924
0.1447959024962245
0.07283185956489761
-0.07283185779245976
-0.01936154572958245
-0.108689613469907
0.1280511578143071
0.2387498480711122
-0.1828825623236786
-0.02168750482937699
0.02391263168975902
-0.134293354196242
0.6172685828508382
-0.03907819696955839
0.4221122364018526
-0.04102532893448091
0.06210978152857723
-0.1535734837752913
0.1535734872144212
-0.6361164224440328
0.3088422821636221
-0.07917892099728678
-0.2346823857974031
0.003631246687866923
-0.1227909462785446
0.1631401216775865
0.1939163916355139
0.09763181976349397
0.09463256530606574
-0.06013003611131072
0.07267776658650289
0.04157081806221203
0.06390578291678378
0.1063718200467319
-0.09721342303913953
0.2069707649161577
0.0125698657278595
-0.112338382633312
-0.1027184516150045
0.0975698044171865
0.005148644188153698
0.01207250437338145
-0.02214775377436775
0.03772248400481112
-0.03772248369542362
0.07434347820533382
-0.05488430420486397
0.054884304708457
-0.2245233696485801
-0.05022861656311339
0.01161266979682076
-0.1031708421629785
0.01619447576003582
0.1083960651315635
-0.1083960668237477
0.2935123596110836
-0.2713787043318282
0.1638141446728214
-0.05035736120492725
-0.2210213422900796
-0.01738183316569644
0.01738183222163282
0.3672891064811299
0.2852496368833318
-0.5274545742866696
-0.0939748773779198
-0.03221465338555661
0.5286081595536435
0.2117531673493359
-0.1687141684627998
-0.3822225433494677
0.07657175220448174
-0.1477323320232023
0.1873359345422962
-0.0396036015086124
-0.06682524347775164
0.06682524215638892
0.8224850125950158
-0.5605380984585863
-0.002037039913599761
0.01410954147830266
-0.02002127552336746
-0.2867186076119982
-0.01745847200412641
-0.01286456087819946
-0.1318103661585783
-0.57206835006706
0.555941876123926
-0.5687294579695259
-0.00694038354214138
0.1004284334106352
-0.001837199019731587
0.01667561887741077
-0.1677535979218295
-0.3366163263207912
0.2334454836640394
-0.05447093128090565
0.03510937426732759
0.1319145986172219
0.1730228061741548
0.3376121241618834
0.2766722555318923
-0.278509455976219
-0.06402070972800566
-0.1548040021330819
-0.2211512748231281
0.07481159714344818
-0.01090581660522346
0.2141689467002543
-0.197493328557746
-0.08623562521775069
0.1589133943630886
-0.3548085209961226
0.2087512708138296
-0.192556794621229
0.08966845591547409
-0.4793683969083106
0.1744713781741079
0.1699875428852334
-0.2562231688961604
0.07248481374654003
-0.194324564722937
0.1768660932423952
0.01741059438412479
0.1415027938329186
-0.03956095443229884
0.06627517623200542
0.4667283168346769
0.02034066350807008
-0.07670758668334635
0.05688306288815751
0.1254084033217479
-0.2607548775838226
-0.2309180093436368
0.5596983605007906
0.1576711308407578
0.07878064596376221
0.07572071341264529
-0.03100352991043745
-0.002226718943776265
-0.0004135383682985099
-0.03270520472297727
0.1711622395189565
-0.1781026238387574
-0.05480303763152572
0.02187558043185063
-0.1467076979974868
-0.05282176903017304
0.1521677070039417
0.2770880620371898
-0.03992896077947401
0.01565105962510062
-0.2554468927929313
-0.1300939984123405
0.2357043292778206
0.1792297649202363
0.1296125123304308
0.02161214929321947
0.08897295361626985
0.05198920574901325
0.4526110344835427
0.01771851637274503
0.09716145431309327
0.04361102598956172
0.07177561846306348
-0.1153866420319464
-0.2422049429252996
-0.2008419062998295
-0.02017943412406014
-0.2022803373062982
0.2756263280716301
)
;

boundaryField
{
    FrontBack
    {
        type            empty;
    }
    Top
    {
        type            calculated;
        value           uniform 0;
    }
    In
    {
        type            calculated;
        value           uniform -1;
    }
    Bottom
    {
        type            calculated;
        value           uniform 0;
    }
    Out
    {
        type            calculated;
        value           nonuniform List<scalar> 10(1.036695781882148 1.064544484913021 1.021701449328948 1.020183587846502 0.9975033244439909 1.013307391460447 1.034071506987969 1.062722699343283 0.8672387982542451 0.882030295384662);
    }
    circle
    {
        type            calculated;
        value           uniform 0;
    }
}


// ************************************************************************* //
