/*--------------------------------*- C++ -*----------------------------------*\
| =========                 |                                                 |
| \\      /  F ield         | OpenFOAM: The Open Source CFD Toolbox           |
|  \\    /   O peration     | Version:  2412                                  |
|   \\  /    A nd           | Website:  www.openfoam.com                      |
|    \\/     M anipulation  |                                                 |
\*---------------------------------------------------------------------------*/
FoamFile
{
    version     2.0;
    format      ascii;
    arch        "LSB;label=32;scalar=64";
    class       volVectorField;
    location    "2000";
    object      fieldAverage2:UMean_movingAverageWindow;
}
// * * * * * * * * * * * * * * * * * * * * * * * * * * * * * * * * * * * * * //

dimensions      [0 1 -1 0 0 0 0];

internalField   nonuniform List<vector> 
808
(
(0.7562648516969172 -0.01750656437121576 0)
(1.03156331676468 -0.01262419078397796 0)
(1.111086396040848 -0.006089695329165475 -1.72491937435073e-20)
(1.085122055651401 0.01259581919874241 0)
(1.363620740598838 0.01366288168777775 -3.842399976709659e-19)
(1.038754373533897 -0.009395678205607605 -7.301461561048235e-20)
(1.014306970626907 -0.0210823436567017 -2.420999373406604e-20)
(1.079213919283051 -0.005366382343202278 9.06011916975018e-21)
(1.254507893869369 -0.02094545095093972 6.28743892664572e-20)
(1.085240032803436 0.00996542280349824 0)
(1.008604085321251 -0.008444199305536882 0)
(1.305944603189719 -0.05401435158848746 -3.490246994304642e-19)
(1.086339770281006 -0.002023111908064759 2.044285217587995e-20)
(0.6752097819602391 0.006358352662563315 0)
(1.276748201269437 -0.1161410752974991 0)
(1.08160564329227 -0.0003914444195271772 -3.865795193823045e-20)
(1.224645172705741 -0.1443933707774669 -9.478063067585596e-20)
(1.074048001533849 -0.0002384867184015679 3.206218987225174e-20)
(0.9898724620745309 0.003526125953350405 0)
(1.026464700544488 0.00970560427137805 0)
(1.032755766490545 -0.01176109947482703 0)
(0.9875498503403788 0.04487994115626241 0)
(1.05110430688879 -0.005967373919443625 5.734979409874197e-20)
(1.053715024200232 0.009111747006302202 0)
(0.9330220905393325 0.1978006632170836 4.58122618371707e-19)
(1.163299572815709 -0.0852039165713375 0)
(1.185932440025656 -0.01928447644314123 1.554740417000935e-19)
(1.077330813992373 0.009609649641072311 5.223717194038159e-20)
(1.083626096732157 0.002235731248473275 5.109201977775358e-21)
(1.071745455657646 0.0308908872732611 0)
(1.075267041852459 0.002818292455802852 -1.18094869978901e-20)
(1.033148899366449 0.006830791708930929 -1.901411906133987e-19)
(1.060038944860469 0.01459270047798337 -2.354805955553677e-20)
(1.088874291943126 0.00564962767553801 -2.937644577474828e-20)
(1.121381972754816 0.03865608058238459 0)
(0.7549914459569189 -0.1229871653993098 -4.544411765292768e-19)
(0.9548205587371733 -0.005850388926115903 0)
(1.068765232887955 0.02221784691158715 0)
(1.068799524590219 0.007265168943520021 0)
(1.073764018722236 0.00882629156388727 -2.823629654627617e-20)
(1.092986416660059 0.02433570185505238 1.091270953878503e-19)
(1.151031562794553 0.00306183490570122 2.138699154602633e-19)
(1.095947857496129 -0.002250210302473981 0)
(1.015286365244213 -0.009199770111969428 0)
(1.131889786290999 -0.09285180099246523 -1.623391339997523e-19)
(1.044085112627529 -0.0116326924083462 -8.260549102610069e-20)
(1.058110642236646 0.02663122313160539 -2.69960272945149e-20)
(1.231082913813793 -0.1125241428180055 -5.575211234612309e-20)
(1.067509276252689 0.01203072783384283 -4.118216891153321e-20)
(1.258276560418669 0.01626579746324158 0)
(0.9967072695059427 -0.0192739373401916 2.203724129058481e-21)
(1.044743097361625 -0.002009395211458633 0)
(1.087554645761323 -0.00207431160114968 0)
(0.9993497228687367 0.007429519628025716 -1.85881915687972e-20)
(1.250743050278998 0.03352543336681083 -2.371283973065077e-19)
(1.063444120847927 0.01806497973998114 5.940851119223806e-20)
(0.9916333921777121 0.01091174174582272 0)
(1.017500623353345 -0.006314996746460367 2.473880249532169e-20)
(1.107624952725395 -0.0007018716701702822 -1.169704379305725e-19)
(1.061087499652597 0.031135681466412 0)
(-0.08984559571944782 0.004279795522768234 7.582038091065166e-20)
(1.154870155762998 -0.05211475365830014 -1.869614068387246e-19)
(1.006174897438682 -0.005724689015115155 -2.716860968414137e-20)
(1.187659523161238 0.06855447458450964 -1.218012293017653e-19)
(0.9974346730534809 -0.009439441663932159 3.091147754378687e-20)
(1.084297051762434 -0.005462453519842703 0)
(1.249368743183117 0.0954997798297153 0)
(0.696086434064673 0.003174667781726177 -7.432323024578414e-20)
(0.9884959844133295 -0.0140064537250304 -3.220632370408184e-20)
(1.459766919034692 -0.01940108424972903 4.425412076569613e-19)
(1.060491713062466 0.007612066088047736 -6.59035647836483e-20)
(1.367966296971842 0.09441044588751606 2.85968363677468e-19)
(1.054828305890039 0.006852237756523333 -1.959293873343053e-22)
(1.081029838427995 -0.01389642875560308 -2.77119209965569e-22)
(1.16459767322304 -0.2362285070815935 0)
(1.021863594168372 -0.0150220033948874 0)
(1.017043096588666 0.01799840484175211 -3.031892983768953e-20)
(1.386448092121898 0.3484893895707247 4.203286150594595e-19)
(1.097374645967333 -0.04249332719749264 9.548530931009003e-20)
(1.045849304299179 0.2097711427634597 2.45303840183731e-19)
(1.124009341185194 -0.06033790594278984 1.170806704088951e-19)
(0.9219385110250945 0.005152313264390506 0)
(0.9753291568986822 0.01851206871275361 0)
(1.004054526653676 -0.04871238448133158 2.996856419447131e-21)
(1.009824438145034 -0.01348093345033727 7.788183480477127e-21)
(1.030105715782748 0.02685192368603905 1.365921754285442e-20)
(1.528898065417742 0.03443856231197938 3.231041770798387e-19)
(1.289429065310132 0.07064227758244977 5.592894979281763e-19)
(1.072358337663382 0.003120882418315108 -8.943980525034528e-20)
(1.195675079577687 -0.09356711887402197 0)
(1.033782686805306 0.001900463537865254 1.307144999896497e-19)
(1.16536878340296 0.02161412037840875 -3.161543482581089e-19)
(1.001469942963561 0.0324414973170887 0)
(0.9996265324090123 0.002021512392987521 0)
(1.044388573329879 3.936879722930459e-05 7.933846181284485e-20)
(1.216747878971314 0.1099136445428051 4.120526913765827e-19)
(1.011116311976624 0.006983738178183792 0)
(1.091231997999349 -0.06797775351365003 -1.061047279105853e-19)
(1.151328449944287 0.03718119760765024 0)
(1.216096217413053 0.0938680098281018 -1.932065049108923e-19)
(1.108256237269174 -0.02887410898887126 -7.792620885773828e-20)
(1.027312153628404 0.01190024308360701 0)
(1.08504443177856 -0.004592573320131394 0)
(1.019053996769359 0.02638030502030522 7.924187499978084e-20)
(1.072420323596592 0.0564692567363819 -9.60722256420493e-21)
(1.1037883095718 -0.004150150076568188 6.384320496242259e-20)
(1.109337995451182 -0.09214014313866108 1.494358026935916e-19)
(0.9640765835669931 0.004137877506072533 0)
(1.065950832371097 0.03119155462628223 3.731023001270258e-20)
(1.168770975989361 -0.0767325315752323 2.284965665934151e-19)
(1.051569716658986 0.04709076518272676 -2.869164923837169e-20)
(1.022790805905443 0.06766215667797296 3.676692547753225e-20)
(1.090178353263108 0.02603953255619957 0)
(1.017945073357916 0.01555608949656912 0)
(1.028995610687287 0.009372388543311551 7.84877453673555e-20)
(0.948577906418491 -0.03298774665191458 0)
(1.052762904924895 -0.005488162632349094 -7.544741951053112e-21)
(1.342214648794664 0.05693373591059264 -1.554873413794892e-19)
(1.079790678313945 -0.01312585705335457 2.661192301542401e-20)
(0.7439785165361676 -0.001723938791937551 0)
(0.5931934945738067 0.1942453660845665 -1.100771670783236e-19)
(0.7061854654436788 -0.002495344702511602 0)
(0.6987631350529293 0.01462633461387701 0)
(1.077672591537269 0.003660284710832496 -6.563031175499481e-22)
(0.9906521639772142 0.01449997569933224 0)
(1.278879501836707 0.1222440617426851 2.529902971514006e-19)
(1.012281194900848 -0.02784247232953466 -7.553703586793598e-21)
(1.0456286057998 0.01787003786686326 1.58058296541967e-21)
(1.058682107943995 -0.01190612478587577 0)
(1.126613970055925 -0.009117642526999587 -5.088764612394851e-20)
(1.272154832671757 0.1333366107886929 -2.285267237484342e-19)
(1.089270099486714 -0.01100942895104628 -8.626492161930394e-20)
(1.070551978364914 0.02668394779922626 -1.081768404418499e-19)
(1.040894731049149 0.04677729263219663 7.270460932055322e-20)
(1.022622466246374 -0.003721258555091179 -3.477021214008388e-20)
(1.060858351593021 0.02361665975782527 5.811292843095908e-21)
(1.135845202040007 0.003081009759237272 1.036239895981923e-20)
(1.039044258068941 -0.01499409516205524 -4.805647249433672e-22)
(1.087363558527375 0.03471699681902699 0)
(1.028134239566737 0.01373085874879569 0)
(0.7735770321135664 -0.0741675562926974 -1.811291273993852e-19)
(1.030249961993507 -0.001693317060342949 -6.661894774103144e-20)
(1.13016700067678 -0.003622158826256564 -1.246072533545264e-20)
(0.7034277424272114 0.00656712631338873 7.186814248298615e-20)
(1.174886773490333 0.01962423620502465 -1.95590472679324e-19)
(1.137197702033484 0.006754661626595973 5.033250548494787e-21)
(1.128989436808701 -0.01002664664766127 3.40155634882019e-20)
(1.000934538518675 -0.002948090836107594 -7.009487203568156e-20)
(1.103110149172636 -0.06102564571264044 0)
(0.9891749105306374 0.005305951648992198 0)
(1.057817375659465 0.007036213091116992 0)
(1.0056355928421 0.1884289595006593 -2.400000432570391e-19)
(0.7791841858677548 0.01243018551224057 0)
(0.8569788227728022 0.1013566197370595 -8.289155315133983e-20)
(0.08533320065686348 0.03449721063024551 -2.97342727074444e-19)
(1.171788245186856 -0.03071398395212362 -2.274508044122825e-20)
(0.671289917276751 -0.007315770492408175 2.450481723527393e-20)
(1.166688387614611 -0.1000089673419431 6.894212608587745e-20)
(1.124475808505869 -0.00171920784641118 -5.72421635478092e-21)
(1.153987649053122 -0.04864557149394479 2.210250683139906e-20)
(0.09135992708731146 -0.214879339413614 0)
(0.2375299146059723 0.06986406646598213 0)
(1.261738892595356 0.1078754146757354 1.884777392113339e-19)
(1.021086830813013 0.01980722723744036 0)
(0.7377977171084296 -0.006247535408534344 0)
(1.075171152209107 -0.01147280391891814 2.740851273722765e-20)
(0.974773611175537 0.002853357592086167 0)
(1.298083669557002 0.1234807303170749 -1.524493926386858e-19)
(1.057385511352065 0.01099741848956073 0)
(0.9933762266482029 -0.006951417734449191 0)
(1.065074727547724 0.008329824875004296 0)
(1.006213228701597 0.02087619900516043 2.077050665568096e-20)
(0.9375598646168737 0.01387128736778688 1.216489605066414e-20)
(1.176841579666762 -0.1999033077865229 0)
(1.00514834251733 -0.005184934999511494 8.014555700692202e-20)
(1.059157801450027 0.006383722419150358 0)
(0.7746325177343637 -0.003285422783904213 0)
(1.218321801801757 0.02738303259799444 1.636454324411554e-20)
(0.7049706150518004 0.001365828333166593 0)
(1.434852653707099 0.08513605107742675 -5.164559226913125e-20)
(0.9952019920335333 -0.005647087378207078 1.693211985327506e-20)
(1.273416975730188 -0.002841020534649235 -2.984623351497579e-19)
(1.059568903727796 0.009034811298516262 1.345827396729926e-19)
(1.000911268500834 -0.01354189931404002 0)
(1.210447287235971 -0.1414940268142467 2.053554518653905e-19)
(0.7331828737920445 0.0137853705885582 0)
(1.098466911405993 -0.004940968133720526 0)
(1.15537104664503 0.06852465236008562 1.925124127146905e-20)
(1.006652663986362 -0.006399417443706805 -3.047027055581829e-20)
(1.122206314132669 0.05270606543748487 -1.735325397684952e-19)
(0.1116342104553752 -0.09252109397515837 0)
(1.072804761831033 0.03926036061920112 0)
(0.6617580538249864 -0.002890140857824551 -5.315117710673879e-22)
(1.012137077699181 -0.01947342873147948 9.244920214115587e-20)
(1.061341896810177 0.00085823803270067 0)
(1.076296463511635 -0.13382680148265 3.746131962186189e-19)
(1.00278160256805 -0.00615348443764809 -3.324833484600754e-21)
(1.003311621173285 -0.004551629915612793 8.487968295745713e-22)
(1.093964648652183 -0.009249066462365216 0)
(1.020712566319521 0.0204452619899542 -6.553685728964853e-20)
(1.106579870153414 -0.001571407216345694 6.438882514993626e-22)
(1.074617170822858 -0.01102487949415768 6.658979648219683e-20)
(1.085688428579835 0.02219201571154428 0)
(1.32836339491392 0.157609008426579 0)
(1.00204907695465 0.0003959928531839444 4.408810684905711e-20)
(1.318699764055698 -0.1302710135554626 1.590070919209301e-19)
(0.01996953480151145 -0.1743179086704014 -2.363457181771263e-19)
(1.071144477077946 -0.005364878182144076 0)
(1.112141601149378 -0.00542071083558034 1.165578036184508e-20)
(0.7267350844782858 0.01779614371277986 0)
(1.059236485588872 0.01102208590526212 0)
(0.8639544943970583 0.1624926237285784 4.626837660699792e-19)
(1.281949223821977 0.1293325097779089 1.924633665014447e-19)
(0.6542918353483683 -0.003098206998559849 -6.503700281511012e-20)
(1.039693394466644 0.004907196578245776 -5.487670354850267e-21)
(1.054754618400032 -0.0002215278413102455 6.483097246910209e-20)
(1.363798367429158 0.1185016882286994 6.621717768780085e-19)
(1.335293277772371 0.251849632554367 0)
(1.059063313728395 0.007151116960106841 0)
(1.00030118226317 -0.004666261966448626 1.419008245292293e-20)
(0.9928169929152292 -0.003488007498759443 4.004078899484929e-21)
(1.383163253526106 0.1993674152194668 4.300355965707501e-19)
(0.6818522640809668 0.0004679517293292435 9.959207580125236e-20)
(1.005661287902707 -0.00220409006240431 -6.019514361741546e-20)
(1.098221127868476 0.0131245203072203 2.5609360002563e-20)
(0.6694560670846893 0.004956540752366187 0)
(1.066088236493591 -0.01201923071205379 0)
(1.017059178575173 0.1475295012857933 -1.412783720159172e-19)
(1.09122789132757 -0.003084004916107009 -2.563410033042954e-20)
(0.981993694398986 9.525301170638622e-05 3.305036173469425e-20)
(0.9912116805241045 0.006015267026904138 0)
(0.6381590616419661 -0.001076174122979571 0)
(0.976703986054104 -0.001213376797901392 0)
(0.6420910686955407 -0.001431527246055137 2.635219863857884e-21)
(1.088829784035171 -0.05521417163664559 1.208326902708543e-19)
(1.11107920801255 -0.004832603068589413 1.147689637573616e-21)
(0.9579322571691219 -0.0008589259361263695 3.881955200941166e-20)
(1.017081264485883 0.01013389434533049 1.74034717372916e-20)
(1.066632685147388 0.004438299983529365 -2.517785713135286e-21)
(0.6347423676024888 0.008875511161088069 -3.617376513670862e-20)
(1.005924513879042 0.009239148324351298 -7.074228036120988e-22)
(1.037537371957619 0.0067449643986133 5.420882872773073e-21)
(0.9856771507848975 -0.007595436841879011 0)
(0.6099552672528111 -0.0004528753821712736 0)
(1.068916406873779 0.02248854237111748 0)
(1.016594010034249 -0.01682098278537075 1.031035896824115e-20)
(1.023589067649562 -0.008942074464983752 0)
(0.9926113620624376 0.01339208617780614 -9.910302478001833e-21)
(1.009073862935145 0.001918245524891 0)
(1.133443925089973 0.003409927178462084 -1.173202809337857e-20)
(0.03376732179163455 -0.1429877959722859 -3.808241480664342e-20)
(1.034625839219432 -0.01853564847937613 -5.788183057574931e-22)
(1.041707828562203 0.005826308942850199 0)
(1.082318160044367 0.070135676368243 8.451316718486273e-20)
(0.9671335129368632 -0.001861766109192298 3.108062000403413e-20)
(1.020125802165366 0.01668032429693771 -2.266583428502633e-20)
(1.003963532157819 -0.002864489755382626 2.424154111009858e-20)
(1.038947387179569 -0.008091394835511738 0)
(0.6408974022706605 -0.004075456330043578 0)
(1.025893048178218 0.02452457477774077 -7.769293259894937e-20)
(1.088072708001323 -0.004473648937540736 5.045379034810893e-20)
(1.014216452846334 0.007635780953503197 0)
(0.9798403447273671 -0.0008580366105220245 -1.949124431975544e-21)
(0.8565882190788368 0.00860743576787875 -9.742074520527416e-21)
(1.0140010203405 0.002607518310928097 -9.578593279564244e-21)
(1.022214974795965 0.004449036980164064 1.883697434567572e-20)
(0.9840976012312335 0.003297312253550555 0)
(1.006320719744731 0.01183166619649962 3.275796148209809e-20)
(1.111144952904433 0.0001954135921462032 0)
(0.9316792148583197 0.01042344557043497 -3.102178527448235e-20)
(0.9541466146238978 -0.001202549318071309 0)
(0.9046692637826634 0.2037347131179352 4.989076765252847e-20)
(1.011000848560634 0.06718183380182399 0)
(0.9914848280408054 0.005002523427676766 -2.272133217757013e-20)
(1.059121739655424 -0.05049668227401162 -2.851640540953197e-20)
(0.9936167124155539 0.0007093096838919598 3.256535728062498e-20)
(1.007851488578428 0.007060571364837408 0)
(0.9794759924455545 0.0008765029027195252 -3.017656746632984e-20)
(1.176135622490486 0.1039435791251573 -3.420209299621321e-19)
(1.069227839673989 -0.2648592978505095 0)
(0.9937308240290049 0.0003455590879179277 -2.272868363253333e-20)
(0.9732482058495986 0.001355967228948072 4.833470781722829e-21)
(0.9618405492689484 0.0007316828592155873 1.001034290441686e-21)
(0.7459573069837375 -0.001049485517969174 0)
(1.122959234485216 -0.07267233013730583 0)
(1.00279708559405 0.001192959673148521 -2.271649812952009e-20)
(0.9098591398846674 0.01215572320802297 -1.033131213735567e-20)
(0.8433304531998368 -0.0003155546521079356 2.860759842667741e-21)
(1.013614256877294 -0.00883851560510893 0)
(0.960495398026285 0.01409116473585769 1.435010381847547e-20)
(1.005567211008848 -0.0002150755572503513 -2.254822085681425e-20)
(1.0252049653245 -0.003363827315350638 -2.505936337454771e-20)
(1.11494843169279 -0.002257517780690003 -4.922176720096303e-21)
(1.118142348233549 -0.002894297516453018 0)
(1.011160834557512 -0.004696026613320445 0)
(1.020962638359251 -0.001858397873118305 0)
(0.9425240218109556 0.002769644120151881 -1.968367580414426e-20)
(1.017854433138532 0.01351738694022091 5.553413770845202e-20)
(1.087730794462675 -0.006101589575033681 -2.334800766117582e-20)
(1.039817558736426 -0.00738201093121245 0)
(1.108589967482716 -0.002408709645137175 1.847317214253578e-21)
(0.9940957509517421 0.001584069448419383 -2.243475976135552e-20)
(0.982255747975495 0.0003983954599672153 0)
(1.010131564432718 0.002902098258315751 4.679211482540419e-20)
(1.365080023833674 -0.3143854859835314 -1.124061057463868e-18)
(1.121204075801469 -0.04361918469418798 -1.102550109169294e-19)
(0.9682839910858024 0.008093206013088432 4.413536921082904e-20)
(0.7645462912604831 0.003181004106889688 -3.413900495271545e-20)
(1.224066889457071 0.05120676099845795 0)
(1.219764780608328 -0.1265335044262244 -1.478105431365195e-19)
(1.083692709470633 -0.004243920672062073 0)
(1.008279762608471 0.0005235810433786256 2.297631696520043e-20)
(-0.1971563983287792 -0.1285853999309933 0)
(0.9939675750315523 -0.004660972080701441 0)
(1.012365263051375 -0.02306708528951515 4.111952882830947e-20)
(0.7064358878494992 -0.01944680110014305 0)
(1.096787741961 -0.01482544186754442 2.257203827012814e-21)
(1.040361778167603 -0.001604098284659177 1.663876679240768e-20)
(0.6332318072967875 0.004123653961154505 0)
(1.44796389342229 -0.1239109835155643 0)
(0.9858965358711449 0.001709878748027243 -1.068475810531354e-20)
(1.069736983823058 -0.01509584673277578 0)
(1.037777639769509 0.0004576337962243467 2.059150642356648e-20)
(1.082151749509955 0.002133434148182215 0)
(1.012290887998949 -0.003116440167563719 -1.14257886414716e-21)
(1.005858886431496 0.003233943766506548 0)
(1.007941902432598 0.001951502087599937 -1.130781705546552e-21)
(1.00447654333179 -0.02057458259781185 0)
(1.036452753697693 -0.006712341084126478 1.742013659574117e-20)
(-0.1817011725298272 0.03352957561619734 2.763286633863507e-19)
(0.7987654991528762 0.023351540645161 5.725329174505235e-20)
(1.005243105867447 0.001941883438018799 0)
(1.124425492426654 0.009965187263232731 -1.16903871961563e-20)
(1.114076045330815 0.005377596004742953 8.940141678695725e-21)
(1.054451135767393 -0.01275878754160308 -1.316897799382181e-19)
(0.9987750396955478 0.01038721689051286 9.141909213544256e-23)
(1.081505303556994 -0.003337252204952329 0)
(1.188833618264361 0.05216932949991287 0)
(0.8351967018582156 -0.07574047066705147 4.600920943438504e-19)
(1.089514435633895 -0.0001203732664475241 0)
(1.033923719232352 0.007628829970453077 -7.630000935376364e-21)
(1.042457554381714 0.005287697098157092 5.730041256905608e-21)
(1.055012767815217 -0.05884644506030798 -7.60325766916689e-21)
(1.139249833649078 -0.001418365733859453 1.708303804060306e-19)
(1.08454648717741 -0.0006232624064488198 0)
(0.9941642469065269 0.001799301868324595 0)
(0.9974381059122093 -0.02678780163252945 -2.432961171491813e-21)
(0.9902182264616137 0.003564603068818473 0)
(1.031268941314582 -0.03712316965727017 6.487295580359804e-20)
(1.290689756799845 -0.09611148226246272 0)
(1.040457586584211 0.002519526906559837 -4.620405917925976e-21)
(0.9861825350349671 0.01696525386323289 -8.927154765566373e-20)
(1.032927585909851 0.04271190444598193 -2.344700729551825e-21)
(-0.07373453244408995 0.1730209316957174 -1.726303463356697e-19)
(-0.07110059224965465 -0.2936849325298596 -1.301197736882711e-19)
(0.8915612814642975 0.1276800586361841 0)
(0.2811906802350501 -0.03469692474890172 -3.152213171248912e-19)
(1.005928357373259 -0.0005362411378147742 -1.066791137584672e-20)
(1.063888322247062 0.002726642871349858 -2.07419720586455e-20)
(0.9915450516788564 -0.02106881480150664 3.102734684742679e-20)
(1.025291233774001 -0.03147878369005828 2.686630443496965e-21)
(1.010190293435642 -0.03116286566362064 -6.674299462845468e-20)
(0.9888695718857923 0.004846940131322155 -3.485475441721129e-20)
(0.9933487994275607 0.005197478703804732 0)
(1.024746898074324 -0.002338379403722079 -3.468138137826596e-21)
(1.934251120227894 -0.1564166676780521 1.069907914090913e-18)
(1.044507833550796 -0.004415652229132658 0)
(0.9962937339833706 0.00834683626811859 1.504928750583778e-20)
(1.003623010018522 -0.0004885660027042542 3.999345710525871e-20)
(1.163961112445694 0.1579766542245697 0)
(1.002688980110834 -0.01294300797708948 7.452794962618473e-21)
(0.9519782754359362 0.003210634036146967 0)
(1.037840007989435 0.04174374699819131 0)
(1.306605832106723 0.1535901180499656 2.285787582229345e-19)
(1.07878162762819 0.0006824842321133845 2.330176725744381e-20)
(1.016274095204711 0.02995468995485251 4.490051715418154e-20)
(1.081987473502678 0.002918473355583556 -2.24427693344206e-20)
(1.053785486666866 -0.01893410537081279 -8.046559603607218e-21)
(-0.3878764959550198 -0.04981601154118624 0)
(0.9997921033069028 0.01300565378106895 0)
(0.1187165783569036 0.05337310130564635 -9.386615271858642e-20)
(1.006501404932493 0.02021908498020125 -4.02565686631044e-20)
(1.005216681671651 -0.02648713415713323 0)
(1.001391005415657 0.005341344265733898 -4.885406223762039e-21)
(1.082037387988907 -0.04246573349395703 0)
(0.9938678329208399 -0.01800876976714753 -8.100621818036826e-21)
(1.10188335512006 -0.055363480358072 0)
(1.44456571122821 0.1713619766089129 0)
(1.054908790583185 -0.01209054653325886 0)
(0.9910188555437878 -0.02499616526539493 -4.168647439523074e-20)
(0.998072529711869 -0.03298247811892633 -3.518026630650668e-21)
(1.014973288072515 -0.0214109603091245 -2.093440217331074e-20)
(0.9965960215126271 0.01672086688345778 -5.459743589983206e-20)
(0.9961053883954047 0.009959174011531367 -1.466660413039422e-20)
(0.9952823412305718 -0.02831682930742042 0)
(1.001975370356101 0.02373753669811515 1.89176651777634e-20)
(1.05091554137207 -0.02926387797585898 0)
(1.111212895176341 -0.03611292355959367 2.559145432873548e-19)
(0.9955160749213892 0.01656613535748398 4.504437720688618e-20)
(0.6150344784131258 -0.008694107896865798 0)
(1.149924356832742 0.1630052807545972 2.391331540807117e-23)
(0.8355858259757634 -0.08083356737777087 0)
(1.138122567681049 0.07276338411346873 -2.767590375328019e-19)
(1.315977292036586 -0.3892596028424585 1.286555886946891e-19)
(1.069168887358054 0.0656384742934447 -1.238572926281727e-20)
(1.011779752407019 -0.031430320808498 0)
(0.9557677125962641 -0.2157733967109183 0)
(0.5411790956519708 0.1740372698137075 0)
(1.016271666972995 0.01170322252679619 1.166035197989236e-21)
(0.7017200675258437 -0.02141652927117201 0)
(0.9992932556893964 0.01639214940230248 3.466175139020358e-20)
(1.02743877402878 -0.002658184541022764 -2.715545753857183e-20)
(1.078973504764855 -0.008048488760858181 2.665704758731591e-21)
(1.053875398519802 -0.02798742942142578 2.663540167970793e-20)
(1.042720810443213 0.01171591614352871 0)
(1.060334787302632 0.02047696389936758 -8.626950758054714e-21)
(1.050040502296714 0.03636704136945074 -1.783833673013475e-20)
(0.9837730850336915 -0.02262302932967581 0)
(0.6248875292214335 0.00510253598525246 9.168810586436727e-20)
(0.8941535929451891 -0.005939494492622795 -8.844350009455012e-20)
(0.9093712024528846 0.005240947650844462 1.451815327823927e-20)
(0.6296308835218479 -0.006442162511297914 1.409397031768166e-20)
(0.9809917524476854 0.0004662463899843218 2.465998636639608e-20)
(1.004415578904103 -0.01749356417795544 -3.396976554992282e-20)
(0.9842068699572403 -0.03521958592711007 -2.872604622780907e-20)
(1.085626272533519 0.001633524645958804 0)
(1.019685662468772 0.005272531481346905 1.028011787677448e-20)
(1.132432668493427 0.04853827902823819 1.336133058504148e-19)
(1.031049176796354 0.04173776463510717 0)
(1.022656469401956 0.002577716469334787 0)
(1.584098978034018 -0.1681275807757739 4.378954379550593e-19)
(1.058553057002038 -0.04340033317934537 0)
(1.019249606128373 0.01057079558155499 -3.672155022433718e-20)
(1.082220056727924 0.006285686539881052 0)
(0.4912640311802859 -0.0008491522955338148 0)
(0.007664528850154811 0.01650056942425297 0)
(0.9913432725063748 -0.02384638214030806 1.245916985665319e-20)
(1.301677428706938 -0.09652285054523196 3.696285608979385e-19)
(1.031434835091204 0.03542674935945377 0)
(1.022412395446432 0.003574974412182217 -2.193226321673882e-20)
(0.9371465666742692 -0.1605082466283301 -4.751402855605085e-21)
(1.256951674544481 0.07560963047038788 0)
(0.597311089852979 0.7290637791154637 0)
(1.31009291706572 0.1425293310428364 1.05207479797753e-19)
(1.677008241737606 -0.02629758378486038 0)
(1.056809443339745 0.1276066662015438 0)
(0.7191348966357122 -0.01196839769204652 4.131438563074813e-21)
(1.046477212741704 0.0452451163916269 0)
(0.757736073109995 0.1219461507037728 1.374266173637968e-19)
(0.9967952358174244 -0.01638388026929119 3.579125992068025e-19)
(1.039100719367247 -0.04054082645192262 2.757108795366872e-20)
(-0.3786557147578403 -0.04423062178916012 0)
(1.072297462826811 -0.01629510122499481 0)
(1.084039865198891 -0.007494487594888565 0)
(0.6488218494867515 -0.5044878537716515 -2.477124963542715e-19)
(0.9896268458728162 -0.0005982428202248079 0)
(1.092408083498888 -0.02168818484567233 6.127728024332099e-22)
(1.187583916263765 0.1208240926277792 -2.02972353723714e-19)
(1.098857943956798 -0.04720078338141882 0)
(1.006086012323715 -0.02087844497039618 0)
(0.7723442776090401 -0.1853922019073143 -1.624131303825389e-19)
(0.8817901795926293 -0.1368793623842962 1.465984436164625e-19)
(1.033464352882023 0.01400554031729728 -2.08966237094566e-20)
(1.023126462278457 -0.008990606745009301 -4.385634492445536e-20)
(0.8767303885956748 0.005974507136821249 2.711551400311134e-22)
(1.505435164425373 -0.1947393340740148 0)
(1.308805743917609 0.1126478559501933 2.972273598567608e-20)
(1.241235029113686 -0.07582508503565004 -3.294330514152376e-21)
(1.095746744363057 -0.01863788433126525 -3.995813236680043e-20)
(1.035363575588393 -0.01639989431514492 2.971749413997314e-20)
(1.092826005089736 -0.03908826137150867 9.432875333721005e-20)
(1.032011639427436 0.02064445521974732 0)
(1.050550165474373 -0.03650474644117309 0)
(1.115926910122259 -0.008963491327434368 0)
(1.099093936906683 -0.04136734477854212 0)
(0.9982868260696544 0.01095671535893397 0)
(1.152138140296249 0.08148593607041402 9.48327194875735e-20)
(1.339687671706077 -0.1570837887954865 0)
(1.038272690122648 -0.02752894403033128 -2.565728144933872e-22)
(1.047722485081934 0.05306111596935804 0)
(1.010203957201464 0.01423751807702103 -3.834643650739475e-20)
(1.033704122802775 -0.007449291921487871 9.297719430829934e-21)
(1.088945271713128 0.01344207069283745 -3.199827999342326e-20)
(1.084744322215435 -0.02817265343316223 0)
(1.071186432064503 0.003576842130143647 0)
(1.103435778695997 0.09299323923605357 -1.404557376235257e-18)
(0.9353559735134844 -0.1497814125938067 -7.089584682824689e-20)
(1.174625740483759 0.1175154383425956 1.149244610824477e-19)
(-0.4624448691222023 -0.02535340569830764 -2.907553556401224e-19)
(1.017927106616641 0.02937510630309935 -8.647220897523324e-20)
(1.006424053594641 0.0030393590110879 0)
(-0.2467926915152851 -0.005291012679216683 3.569455906882256e-19)
(-0.03294059278922336 0.2997195383079764 7.449370155892846e-21)
(0.9952087754210753 -0.006271584659231366 9.234645777709646e-20)
(0.1836011930652116 -0.04506151341936882 1.292773974184455e-19)
(1.085199637745648 0.0889044290346402 1.409973096237112e-20)
(0.09361278402042959 -0.1105801430986066 -5.45473343558511e-20)
(1.108413482303627 0.003036707301520986 0)
(1.09727465103834 0.2509733899820987 0)
(1.021067235984996 0.02150557540983659 -1.692715349659034e-20)
(1.062491092517511 0.05379498026526112 0)
(1.025640997569783 0.02344531330697799 -8.337593626072947e-21)
(1.263076852907735 -0.5490067992742304 8.020717257203459e-19)
(-0.1099976797131947 -0.2411822583472879 2.106573696054209e-19)
(1.300857410069554 0.1127042718015146 -6.185692156415547e-19)
(1.122697906981519 -0.001398558608040471 0)
(1.123727285678449 0.1064474327018315 0)
(0.5221541557481475 0.07700360562752104 2.42345528115089e-19)
(1.023522203906966 -0.02025715399178945 9.525841249867479e-20)
(1.006364543457688 -0.02320168943366195 0)
(1.211168964810583 0.270438741510969 -9.700440158086571e-20)
(1.259582886866542 0.1275627757974951 -1.518892372330879e-19)
(1.026540297654901 0.003218320195017016 1.576716903215476e-20)
(1.298456296441465 -0.08514820750139381 -4.970081889877953e-19)
(0.3051598616428272 -0.02182274411008725 2.890666941110855e-19)
(0.8317457434968221 -0.1490134040045284 6.87101653152674e-19)
(1.040910247029785 0.05552162744352073 1.098676237494495e-19)
(1.038262013767092 0.003440253303729685 1.611428767306409e-21)