/*--------------------------------*- C++ -*----------------------------------*\
| =========                 |                                                 |
| \\      /  F ield         | OpenFOAM: The Open Source CFD Toolbox           |
|  \\    /   O peration     | Version:  2412                                  |
|   \\  /    A nd           | Website:  www.openfoam.com                      |
|    \\/     M anipulation  |                                                 |
\*---------------------------------------------------------------------------*/
FoamFile
{
    version     2.0;
    format      ascii;
    arch        "LSB;label=32;scalar=64";
    class       volScalarField;
    location    "2000";
    object      pMean;
}
// * * * * * * * * * * * * * * * * * * * * * * * * * * * * * * * * * * * * * //

dimensions      [0 2 -2 0 0 0 0];

internalField   nonuniform List<scalar> 
808
(
-0.03433466618389622
0.04437765758246232
-0.01148421105625908
0.03662209532778178
-0.299059527399469
-0.05522129502448497
-0.01514650478527195
-0.02399359942935691
-0.1967878004638595
-0.08390663417923978
-0.0100666339329574
-0.2539239671987908
-0.03063761140185792
-0.01357588106900732
-0.1225474549881001
-0.01412542424042342
-0.1399925778427003
-0.0136642461677571
-0.01268459609755583
-0.05565185017566596
-0.007013841109914549
0.1173180243144999
-0.06233955355084962
-0.07170009131787899
0.1752086243084604
-0.09997764688991843
-0.1524230308497432
-0.02039895039009419
-0.01750667954401926
-0.02578896463436759
-0.02028622923365747
-0.05845407316587652
-0.02285278476744607
-0.01689540140729217
-0.09944919686771991
0.344609244488976
-0.03934274150196619
-0.01661031247494217
-0.02283370289656986
-0.02653190542899558
-0.0902541839933403
-0.1266009737646107
-0.05193613826150734
-0.02106178408925462
-0.05482587468931383
-0.04140524309155068
-0.0121178509768382
-0.1843727258861924
-0.02698298911901967
-0.2040206527777439
-0.01669406641345537
-0.06725015035667647
-0.06079791394560899
-0.01479129052703319
-0.1935013699514896
-0.02829261203581942
-0.01071959619357397
-0.01462849845022486
-0.1003279995461564
-0.03974117101942523
-0.1043910161373164
-0.1259927564410746
-0.01401107000724508
-0.1285018961112508
-0.01727264095041238
-0.05173053440843368
-0.1639631123970237
-0.03552323419747621
-0.01513789817556697
-0.440486428860645
-0.02650977708202071
-0.3020840468159456
-0.02162861807055573
-0.02076417675539681
-0.06468073183593089
-0.01780114068916989
-0.04251451727279308
-0.3636338098805827
-0.036051068615683
0.04002678653914796
-0.09156226096129258
-0.01700353469778663
0.05705200561178705
0.0449969759436455
-0.01708376098626964
-0.05218839710328738
-0.5420190126071489
-0.2264409800252596
-0.05214174658428215
-0.1127769361004844
-0.05657150770503568
-0.1325276471272946
0.03926406647262821
-0.02544900449699171
-0.06188260534625399
-0.1189573331211176
-0.03834893012891201
-0.05211300384330062
-0.1160561198235304
-0.1385742396776455
-0.05265874491377522
-0.0473209750614843
-0.05437303966272215
-0.04477337267280961
-0.05730993794541624
-0.07460846634521885
-0.04068130463987546
-0.01097075018443633
-0.04024357681220082
-0.1239758186866972
-0.05034616281611933
0.08207129158287443
-0.04236085616240413
-0.007952312740495335
-0.02768238020809288
0.180639260720234
-0.03878572451961331
-0.2686432535523535
-0.0205568875287626
-0.05353070512683639
-0.03467182875150929
-0.04884101666598486
0.01350617320011242
-0.0486430878696175
-0.03562116082218645
-0.2176790248562368
-0.04116562105773772
-0.00469847486881013
-0.07585746172832043
-0.06888101935245149
-0.147324209850471
-0.02108192473082114
-0.0751516049936251
-0.04298955338941512
-0.02291420965723749
-0.01560456647775189
-0.006225054934885043
-0.007441277314750854
-0.05236484377346236
-0.04972856345176425
-0.2138599360305168
-0.05651518156556184
-0.008351632692397078
-0.02223464902614761
-0.1474362844368076
-0.002406138899667849
-0.07625549781190516
-0.02204715694813626
-0.0006214671945444451
-0.01056071546768534
-0.03328557750252176
0.094073950026171
-0.03866349044101059
0.2519765846208329
-0.2640606788206026
-0.1325094393086243
-0.03763814179113319
-0.09100250974035827
-0.009201517994826526
-0.1135873659735536
-0.1760719679125248
-0.2161826386926901
-0.1791762423050648
0.05636311485920435
-0.06305501441663951
-0.02046970816325626
-0.06685958478722645
-0.1699422461168774
-0.02338857292256426
-0.01857310142118856
-0.05193539722046078
-0.01969744932312157
-0.006881644356101544
-0.1077306412510138
-0.02322446570755632
-0.04511685229734042
-0.0701628756969237
-0.1610728277202675
-0.03333659517885511
-0.3891355179949731
-0.01786630616677264
-0.2257041774178786
-0.04425295160282965
0.03209623611656429
-0.10587006763321
-0.01563317908789571
-0.0426287190569365
-0.1046570078599036
-0.01777392507696316
-0.0957016622103978
-0.2052925771625619
-0.0717878706671293
-0.02395976997569947
-0.04815351055565149
-0.04271699390001027
-0.2030466723650411
-0.02216439935405932
-0.01916592409745451
-0.0113083957975753
-0.05631275091705119
-0.05063392060249951
-0.02252450129293621
-0.020723668466024
-0.2397397895982521
0.127299132345962
-0.204714322127764
-0.1966646039916405
-0.0117537754510982
-0.01140506528102989
-0.06698382826582451
-0.01001764925083578
-0.5020673807891474
-0.1237234860040105
-0.01932848002380157
-0.0007347214165721015
-0.0239357549636067
-0.2811464573711038
-0.2776736681738874
-0.007288753867422264
-0.01756813456744202
-0.00173775622398312
-0.3485284189447029
-0.02843518364862756
-0.02927464474081846
-0.01259047780514594
-0.01959110484404848
0.04952876050443236
-0.1162617343749229
-0.01410899450040903
-0.0208528964007539
-0.04449294105869463
-0.01830446657373076
-0.01627610102332738
-0.02346702561281518
-0.0675826628624821
-0.01138916980739941
-0.01898959145559206
-0.008745566295908135
-0.001022364748427491
-0.02943719522399813
-0.00185418394171295
-0.002105871982694348
-0.005845792724755414
-0.02555955389287054
-0.008030275164763401
0.001560865452990488
-0.004183508227567715
0.001272283271646447
0.002430101007075207
-0.008794359209873051
-0.1359225238333835
-0.002969032015757829
-0.0008434180917073456
-0.04787965657391118
-0.02146629308853523
-0.02419663268326411
-0.0142138653583141
-0.00616394950950845
-0.02100614139776547
-0.03908791249048711
-0.0145590169994693
-0.01276594049097594
-0.01162347998419409
0.007197968885669729
-0.009955293836962406
-0.01246638025736234
-0.01140958415279489
-0.01042290743108451
-0.0101925795686137
-0.01152355303657011
-0.01381998849291025
-0.3004082916842525
0.05968056132719182
-0.01547606172918759
-0.01568589144656764
-0.01272877418209102
-0.0121897135107209
-0.008527977786981479
-0.09805948643519743
0.01144971249080155
-0.01398819586909773
-0.01416475457563027
-0.01066041783599897
-0.05183773237705223
-0.009238680947119762
-0.01376443818986614
-0.009796820245989589
-0.001295540027017805
-0.0107858589112857
-0.01133341687710369
-0.02453543624288944
-0.01578561480347307
-0.01212380881328186
-0.01344415300053714
-0.008574315503728256
-0.01270480211966201
-0.01133283381375311
-0.05882744662005909
-0.01328616320599621
-0.01173746259141627
-0.008958049462063272
-0.01514186255006181
-0.01391322854311272
-0.01567781974097896
-1.370771395638632
-0.09967169858850405
-0.012629884264936
0.02456796058080276
-0.1628755455526832
-0.09275134438013391
-0.01189029762463911
-0.01413503845113493
-0.2429620464641342
-0.02923892028881877
-0.01878181518290303
-0.01171706183588553
-0.02009702513201137
-0.01063623283539206
-0.03076271511487726
-0.4109527364979643
-0.01222357058130865
-0.01408777069468615
-0.004637974155537098
-0.01088591687114941
-0.009941400409719307
-0.0140765028523951
-0.007925756507096772
-0.0267804652370121
-0.01160785482891975
-0.1681024334480676
0.01888319630522561
-0.007504816895701088
0.003684371580260813
0.01272181423186003
-0.04828812004383212
0.02847060500614547
-0.01304317943824049
-0.1337093579206659
0.2825467957139662
-0.007697010542796164
-0.01345461545264131
-0.00815819023857838
-0.03303418755571205
-0.1244655131521049
-0.01283578928992314
-0.01212970365537377
-0.01719538106286264
-0.01355774319161611
-0.04137438565861904
-0.2177826776125788
-0.01016832888593897
-0.04270620569628768
-0.03904883210683616
-0.1736928550112397
-0.1577964165533167
-0.1451345316139845
-0.2398362867076739
-0.004927632058675915
-0.02095405046697767
-0.01480897953277495
-0.01331197168172335
-0.03336856744287583
-0.02447636563837556
-0.01420631179009441
-0.01494347284008786
-1.074065162880056
-0.004611339821819087
-0.01344635661944292
-0.01822811063459507
-0.0211605572449962
0.002838203877001657
-0.01440152251709388
-0.02630508642262492
-0.1567786835592244
-0.01359395004310174
-0.02158788172036164
-0.01423044555519564
0.0003023960927095763
-0.1784085489080839
-0.01288979250245708
-0.149702178943644
-0.01574941117336935
0.005919452736094639
-0.0142886283444668
-0.02374344085772851
-0.01597065745962082
0.006044268532612249
-0.2714972401649988
-0.02617272548777803
-0.01642743663224341
-0.009335498047767432
-0.01022316980480706
-0.02984454586243395
-0.01403303478635546
-0.02077248288331463
-0.02089041936694804
0.01149194251650707
-0.09891922907894675
-0.02158536495686055
0.009412264389550678
-0.05521112560017453
0.1716536128512324
-0.1050933165295284
-0.3181026642798674
-0.03019209659643312
-0.0256882362784307
0.1504853828616956
0.086686868059837
-0.003616494526393083
0.05141501534533853
-0.01535063471626365
-0.01387912647515073
0.002493548107352403
0.009489575312048705
-0.06568721680940366
-0.00518102699245312
-0.05662416382522079
-0.02272285429531573
-0.01570314191051151
-0.03653210434638918
-0.0329392946991648
-0.006661740942356789
-0.01482370519002932
-0.03769338860670408
0.03414026237731252
-0.03875364932528552
-0.01378873498575102
-0.1183462771321565
-0.03141448456440662
-0.039371428892498
-0.6719821216892694
0.01703231206688246
-0.01066018222869771
-0.005614602055381235
0.1728151395956175
-0.09350620312852469
-0.03550935904692355
-0.2439457435490379
-0.01591997025378718
-0.01630248520299271
0.07234863852188171
-0.1819569754131726
-0.2306873697095636
-0.1912681947327323
-0.6803288762657406
0.006743399295502544
-0.01823100425685982
-0.01607946264957398
-0.08780869144031415
0.1183362315950459
-0.02138419410844201
-0.2394806245293872
-0.03571464971067573
-0.006731029864430682
0.2789435824070998
-0.01103384462233643
-0.09199108103596544
-0.1514684361476642
-0.004195715560558676
-0.04112955809373181
-0.04860317213579594
-0.2002934733286173
-0.008266520020297175
-0.04072970060372531
-0.003077149423884707
-0.5465978886087173
-0.1958336033930133
-0.1776872669017305
-0.02319261694069974
-0.008084358873657516
-0.06127161373849082
-0.05713682689015723
-0.01496137314856035
-0.06880173855881414
0.004230596238495405
-0.0179342006640116
-0.09455645128275594
-0.2730285734265792
-0.008569428636503494
-0.02557180291095553
-0.02164921220409968
-0.07554242737411324
-0.08977993895335522
-0.08900785696126227
-0.0115921428633485
-0.9160097551459682
0.1616676247802548
-0.08088874931267322
-0.2526873821510831
-0.04183147073115714
-0.009756733043572911
-0.2510824606881163
-0.1921265949731994
-0.03175524855496523
-0.1209405320061898
-0.01869435638835484
0.5630395578607095
-0.02462698298670001
-0.2206198995688673
-0.02550322126036164
-0.00478563134118191
-0.01142352946735503
-1.247834031066732
-0.181699681243603
-0.2294555062426224
0.005280537874192258
-0.0385250075152969
-0.2433392599787253
-0.0664488809974173
-0.05168333195454745
-0.1446789723012474
-0.1848570801688333
-0.06913816590038331
-1.220618405342845
-0.1521197347532716
-0.5324167318141128
0.07929820884329455
-0.006405505661933267
-0.02140829935125066
-0.04388815297628391
-0.03906800204889653
-0.02818780753191022
-0.1300916158397275
0.08089884812633878
-0.003266790220053016
-0.009851061603722356
-0.5702185785835238
-0.8552490551907136
-0.1795499108800048
-0.007954418680083675
-0.1302421295342582
0.0007347719996955931
-0.0004535240455715096
-0.002376181191905894
-0.06089456374515729
-0.2354719352541069
-0.01334232207832375
-0.1171732581911604
-0.156421678987769
-0.01316148082153335
-0.03503373203900531
0.02616923904505754
-0.05821105718377317
-0.07115654356509356
-0.4969553937796077
-0.2280403420504971
-0.08006629062289561
-0.074426556000803
-0.01958441404217492
-0.1173455080676793
-0.159498392284758
-0.07862445516129095
0.02495326001980631
-0.08614194083644859
-0.04950569824596359
-0.0149086616839678
-0.1110053796219294
-0.2776091602032704
-0.05846970470562268
-0.0182225759708991
0.0006332308695175488
-0.01011523511789953
-0.01080206019662026
-0.2281658131534887
-0.01464387599212041
-0.2187921326994938
-0.01054219285676664
-0.07025826234116314
-0.004003764817170921
-0.02324234631322213
-0.3863732461911107
-0.9208211188594342
-0.01128198817052462
-1.043383678441912
-0.6064816611511606
-0.01060347648985698
-0.6596038017069598
-0.1830440936797481
-0.005454082890519468
-0.1266679090484263
-0.016958463454832
-0.1240679439456652
-0.06582513679877927
-0.07864087932279271
-0.005326933006057326
-0.00282869644587588
-1.342988163420223
-0.01133243089301442
-0.1843988783927509
0.0008064679413225809
-1.007885428986454
-1.242884963686141
-0.07955923115147914
0.01759484867121208
0.1645058191235355
-0.004734025824021764
-0.02300315284915409
-0.004271758800023135
-0.2451486197848943
0.3657457616970221
-0.04169141038984471
-0.2128732673377147
-0.01507772788731469
-0.6525716582198205
-0.07328185327495181
0.1895551751337496
-0.2950399983660054
-0.05041883741582544
-0.06972018461400127
-0.0158431938320513
-0.02156399533231067
-0.586183277238626
-0.1496112815304395
-0.0908095370274115
-0.1226823260102397
-0.5523707687517885
-0.04489672973181005
-0.9039435941119341
-0.0001833666921703723
-0.2415894649818223
-1.052927564842467
0.1662351964543851
0.2903749314960237
-0.1773924575255308
-0.1904249813378588
-0.2122119910446941
-0.06689995694067481
0.02390759622948468
0.04646041092854438
0.004099217304567977
-0.1598588217873759
0.02584177277442475
-1.363146120557812
-0.08640133991220728
-0.4771019893471016
-0.3332184506370613
-0.2126299488616289
-0.1788995875639487
-0.0169463891188734
-0.01541793266511499
-0.09975115972005572
0.1729897490958777
0.3848247289864165
-0.2093159167771619
-0.1478795444832334
-0.2278944705061827
-0.06318661557178787
-0.156770481316366
-0.1684083582569738
-0.1269334523827753
-0.116795997710969
0.4649557165219906
-0.2770656526728591
0.4322970477815282
-0.5935397970271873
0.07220177800594062
-0.1953654759765958
-0.06719376280364145
-0.0764115144147194
-0.8877841231789303
-0.2180406364673667
-0.191966132389202
-0.3515422526019291
-0.4628644102261063
0.5700509801525193
-0.2113128509183995
0.00174371784309459
-0.06867223458459679
0.3447938578903326
-0.03590460669847655
-0.1258874426516772
-0.1809312765821789
-0.06401658140063066
-0.0164373310691155
-0.1975563355759266
0.1956207711908756
-0.01274030936238564
-0.09774882461604394
-0.1734264312375396
-0.3177055670603403
-0.3100718225609619
-0.07409885567877032
-0.009954538020420525
-0.07934696098671598
-0.6515103981528489
-0.6730634423525559
-0.3309529074232213
-0.05860472263465021
-0.05043814069838624
-0.0248756215728018
-0.06915779641835006
-0.05606747811196354
-0.3643060847842077
-0.9614554847602965
-0.009572762137390584
-0.08439214724290632
-1.143226087563106
-1.038954742993784
-0.1074572268914633
-0.0404826386273731
-0.06867394840773758
0.3892617872682532
-0.3411833728820393
-0.05062686912754273
-0.6028952143030374
-0.1300745565269169
-0.2501788220596263
-0.2127813094746854
0.4735892045378519
-0.6333771605454698
0.07540644816010424
-0.02890427579625966
-0.5649662273047904
-0.0533086686048908
-0.3643026892851814
0.1087329899599569
-0.1922496059317923
-0.06081045269991653
-0.131593459335199
-0.3592180648793938
-0.08559148348385198
0.5150736881157395
0.08642956618175317
0.4699957858065804
-0.1127716230086764
-0.2041187806374309
-0.514870634726735
-0.1332200305322254
0.02525680010710687
-0.05477473063869678
0.1008087012462208
-0.304612556002894
0.2363642087869902
0.006308463424949683
-0.002930337957307564
-0.5099082054950881
-0.1831339499643986
-0.09096071103578726
0.581361095043718
0.1392165458250182
0.3441792222926176
0.2253955499202002
-0.5649442350434163
-0.2028958304622387
-0.2220088218318542
-0.2292957112763204
-0.06148796161417965
-0.6901352456395432
-0.1912363201394754
0.3050025580526668
-0.1991696373474876
-0.01126102768021462
-0.1658057820097339
-0.01090362503575723
-0.1644084827412736
-0.4419363326092804
-0.07643450948739096
-0.2036880034716208
-0.07372236889200996
-0.0985359424994238
-0.1384698752565962
-0.07274069418473601
-0.4468832015945237
-0.4119926422087725
-0.02465034099266191
-0.07638095088690824
0.3287386886508986
-0.2500232175497876
-0.177497945224751
0.5245646714622423
-0.2001904696215481
0.01990709859228783
-0.453049942613366
0.04901197260355109
-0.06052743428848931
-0.1486714229550806
-0.588435879653656
0.1596214537352608
-0.5771008465489164
-0.5383660582760129
-0.1033131882543847
-0.5108295598143423
-0.0366128148989568
-0.1479102596037448
-0.4130675702260596
-0.01616509057554867
0.2876252482599752
0.4897473027063207
-0.1634932662768186
-0.006549300540219219
-0.07973566913232173
0.5251306755729529
-0.03265999552634324
-0.4429968283849783
-0.03216133523492608
0.4613126872676973
-0.01637759131983306
-0.5476764100834787
-0.2440410252649206
0.1772970453068237
-0.3133033600266515
-0.1809467682407706
0.04921981404543738
0.03220394728161555
0.05569265554346881
-0.3022501843284854
-0.1589399809260922
0.412791362094366
)
;

boundaryField
{
    FrontBack
    {
        type            empty;
    }
    Top
    {
        type            calculated;
        value           nonuniform List<scalar> 
15
(
-0.01357588106900732
-0.04884101666598486
-0.03763814179113319
-0.06305501441663951
-0.0701628756969237
-0.01563317908789571
-0.02395976997569947
-0.01932848002380157
-0.02843518364862756
-0.01830446657373076
-0.02346702561281518
-0.02100614139776547
-0.01171706183588553
-0.03076271511487726
-0.006661740942356789
)
;
    }
    In
    {
        type            calculated;
        value           nonuniform List<scalar> 10(0.03662209532778178 -0.02544900449699171 -0.02204715694813626 0.03209623611656429 0.127299132345962 0.04952876050443236 -0.04449294105869463 -0.02923892028881877 0.02847060500614547 0.1183362315950459);
    }
    Bottom
    {
        type            calculated;
        value           nonuniform List<scalar> 
15
(
-0.03433466618389622
-0.03552323419747621
-0.05353070512683639
0.01350617320011242
-0.02223464902614761
-0.03866349044101059
-0.03333659517885511
-0.06698382826582451
-0.01959110484404848
-0.02943719522399813
-0.02555955389287054
-0.05183773237705223
0.009412264389550678
-0.01570314191051151
0.0008064679413225809
)
;
    }
    Out
    {
        type            calculated;
        value           uniform 0;
    }
    circle
    {
        type            calculated;
        value           nonuniform List<scalar> 
32
(
-0.5020673807891474
-0.1359225238333835
-1.370771395638632
-0.1736928550112397
-0.149702178943644
-0.2306873697095636
-0.9160097551459682
-0.1209405320061898
0.5630395578607095
-1.247834031066732
-0.2433392599787253
-1.220618405342845
-0.5324167318141128
-0.1300916158397275
-0.1171732581911604
-0.159498392284758
-0.2281658131534887
-0.9208211188594342
-0.6596038017069598
-0.1830440936797481
-1.342988163420223
-1.007885428986454
-1.242884963686141
-0.6525716582198205
-1.052927564842467
0.1662351964543851
-1.363146120557812
0.4649557165219906
0.4322970477815282
-0.2180406364673667
0.5700509801525193
0.1956207711908756
)
;
    }
}


// ************************************************************************* //
