/*--------------------------------*- C++ -*----------------------------------*\
| =========                 |                                                 |
| \\      /  F ield         | OpenFOAM: The Open Source CFD Toolbox           |
|  \\    /   O peration     | Version:  2412                                  |
|   \\  /    A nd           | Website:  www.openfoam.com                      |
|    \\/     M anipulation  |                                                 |
\*---------------------------------------------------------------------------*/
FoamFile
{
    version     2.0;
    format      ascii;
    arch        "LSB;label=32;scalar=64";
    class       volScalarField;
    location    "2000";
    object      pPrime2Mean;
}
// * * * * * * * * * * * * * * * * * * * * * * * * * * * * * * * * * * * * * //

dimensions      [0 4 -4 0 0 0 0];

internalField   nonuniform List<scalar> 
808
(
1.440627873950436e-06
2.804763039542489e-07
1.019696990398067e-07
1.480280384141787e-06
1.29574976054786e-05
2.107412314026995e-07
2.305092744544384e-07
2.02531312583484e-08
6.509155463921279e-06
1.830287377925684e-06
2.573414065141377e-07
8.649170304270148e-06
9.616246610523287e-09
2.419111881887034e-07
2.796943607509192e-06
1.594507520474592e-08
3.64845943699732e-06
1.082564633720978e-08
6.141860694856838e-08
1.033044726914123e-06
7.101642771229023e-07
5.772356564039821e-07
1.291398186716291e-06
1.733367849042315e-06
1.00326715143928e-06
2.584899773065003e-07
4.741533922901497e-06
6.866678078031561e-09
1.616341802339761e-08
3.588712272435592e-08
1.17770080221161e-08
1.207292886751775e-06
1.078151250688466e-08
4.386695733982031e-09
1.80760770847159e-06
2.31538532999287e-07
3.708182167376072e-07
3.392255134247995e-08
1.327377980357919e-07
3.246899707323551e-09
1.708371207227721e-06
3.532490213030426e-06
7.946717249782999e-07
1.14905085589164e-07
2.462247028259777e-07
1.346097763255333e-06
4.1004121177678e-08
6.134552909931035e-06
2.320520686335511e-07
6.960242691290974e-06
2.246064529482471e-07
1.755140112167514e-06
9.961376194024887e-07
9.354073072072528e-08
5.717687093460821e-06
2.963985910426573e-07
2.840237505132199e-08
3.184016800859412e-07
2.565453568416712e-06
5.407199288550747e-07
3.68569155502433e-05
4.047343092745265e-06
2.190645093288199e-07
2.854644941756301e-06
7.714124820526339e-08
7.707586597992429e-07
7.909517333780369e-06
2.923878045951213e-08
5.734620028271858e-08
1.869807702606363e-05
1.47738083191391e-07
1.985999568911156e-05
1.008812339744125e-07
1.148093850698775e-07
4.315445282890816e-06
1.319781293272109e-07
6.292165702823614e-07
1.210656148437073e-05
2.228508183554651e-07
2.437213224415436e-06
8.190954195116951e-07
5.670849691392921e-08
4.467755237947887e-08
1.390383148149911e-06
1.716645949390678e-07
7.356062174381992e-07
2.824457010591752e-05
7.532301967427824e-06
9.820892923916892e-07
9.985805884075299e-07
1.271968231841229e-06
3.616109309993037e-06
1.256128052547776e-06
1.535289083417677e-06
1.053439217225949e-06
4.167137913577493e-06
1.983008773658555e-08
6.221793159844058e-08
2.844236809093278e-06
3.70519195259239e-06
1.997121700440634e-07
7.197451397131065e-07
9.624624205104883e-07
6.242949922193042e-07
2.48565941579626e-07
1.111372045484518e-06
5.059707499732811e-07
7.025901265568816e-08
4.444145840056327e-07
4.433797368277176e-06
5.160214417445318e-07
9.714849187169444e-07
3.813524702914878e-07
6.032003780204176e-08
2.60574230959848e-08
1.678112322919811e-07
7.069199459721048e-07
1.405300836779255e-05
4.84313063692514e-08
1.082390572219871e-06
3.587072863426416e-05
6.108177126205525e-07
5.142340158517157e-07
1.274101847857298e-06
1.491409654610313e-06
7.163858289728486e-06
1.792865422789881e-06
1.171515656406287e-07
2.119014342993018e-06
1.053470134534593e-06
1.267739646580029e-05
3.087064495238502e-08
1.218200147078477e-06
2.006342146249193e-06
2.880368970626431e-08
6.150225646518411e-07
3.135869580325068e-08
2.028624170803992e-08
3.913674965242905e-07
9.310856590089879e-07
1.750692681962152e-05
1.541726794248351e-06
3.129320608065802e-08
1.876612883400762e-07
3.949479236889375e-06
7.370338728226222e-08
1.417202240058986e-06
1.70598242405927e-06
2.101253872828334e-07
1.352080417416958e-07
2.44607543303365e-07
1.323717518028622e-06
7.997931300513308e-07
3.524778577207455e-07
1.332933596873143e-05
2.791073671720018e-06
1.587655263242914e-07
3.066057599476757e-08
2.344451832968003e-08
1.987980010387247e-06
5.281578570104709e-05
8.161750057800177e-06
1.276652706536791e-05
6.042320522536837e-07
8.945805587256411e-07
2.53967728677763e-08
7.230830465698376e-07
1.417905857248672e-05
1.768260320255018e-07
2.361222484128112e-08
1.171623208609182e-06
1.610065110867903e-06
4.696025980086406e-07
4.636518450675323e-06
1.306702054289016e-07
1.444123663774284e-06
1.128334643087092e-06
4.921346090279444e-06
1.052066867662533e-07
2.809079502535949e-05
6.226625701860351e-09
6.197845857383588e-06
8.881607182239896e-07
1.418476104529274e-06
6.204169613246296e-07
1.259889560031684e-06
6.489527629694423e-07
1.198452932843139e-06
1.030689012024473e-08
1.355809291449586e-06
2.837925134405173e-06
9.367524896686588e-07
4.639212474594201e-08
1.769062808186592e-06
7.789194588910756e-07
1.893150600819349e-06
6.729957882666872e-08
3.063100422894156e-08
1.193241679008322e-08
1.699338932975841e-06
1.234072242918376e-06
1.895823975453861e-08
1.39011579005136e-08
3.482670534118992e-05
3.197260476997532e-07
1.011146490624559e-05
6.776259638757026e-05
1.315547483340777e-09
2.629554055053117e-08
3.225560246079492e-07
1.647674525074623e-07
8.731149896618051e-05
7.043291523813749e-06
9.424201852047511e-08
3.86582358391359e-07
8.359117234112059e-08
2.055270202480641e-05
9.083451665503617e-06
3.944741310975931e-08
8.235513205201092e-08
2.151998594624458e-07
1.088373956849298e-05
2.768465398670771e-08
1.869852065382056e-08
8.804964722283239e-09
2.757016299401215e-08
1.300835948651966e-06
4.106698776250479e-05
6.317776381716445e-08
1.514575231404596e-08
1.406614128137904e-06
1.228789680603063e-08
1.984404903349361e-08
1.10752492243427e-08
3.389898613785289e-07
1.242279731118517e-07
9.011382849503143e-09
3.464759530740988e-08
5.778481233500605e-08
1.377087817486678e-08
4.990074166470083e-08
2.161212169207013e-08
5.300192362961192e-08
3.321911136249488e-09
1.222266854964066e-08
9.29924211530285e-09
5.618739952557898e-09
1.46530459709243e-08
1.735574312540842e-08
3.962168692694511e-08
2.613390159524748e-05
4.379982929172198e-09
2.436110875521337e-07
2.056376010813911e-07
6.225093699356978e-08
3.092790730623886e-07
2.062109668324276e-08
1.239038726223637e-08
1.854318606650529e-08
1.777631311331235e-06
2.027728970672115e-07
1.224052619141114e-08
7.928054943166481e-08
1.304829315283492e-06
6.530700836299347e-08
2.591244452091683e-07
1.461743767851688e-08
8.482758562300462e-08
3.139623340035226e-08
1.859158240856342e-07
5.50303343713524e-08
6.305016632264515e-05
1.138383409687166e-06
7.781429704520446e-08
5.494564525832207e-07
7.672840522868879e-08
8.112127064223841e-08
4.803080205125474e-08
1.247058102402457e-06
3.404515084145105e-06
7.503213025111181e-08
1.960897372679598e-07
1.55134939587581e-08
1.331301471232341e-06
6.118299276486837e-07
3.149088000214679e-08
2.221370132651258e-07
6.422104545699659e-07
5.840261313100808e-07
4.374863541288141e-07
8.648414463784462e-08
1.284897016770592e-07
5.707750237127717e-08
1.450338999871531e-08
8.200764392919441e-07
1.96394720538125e-07
1.084210576529567e-07
1.542947605685536e-06
8.188685221232847e-08
1.490880244426219e-07
5.467400381416925e-08
4.767045210318593e-08
3.738907716923203e-08
2.790030019137694e-09
5.72393455890996e-05
1.240302689308956e-06
3.281462604045726e-07
2.486995160393113e-06
5.189056249500779e-06
6.99405185331306e-07
1.60738882037611e-07
6.563985680788521e-09
9.953475299172287e-05
1.603839082675931e-06
1.800612553446107e-06
3.990263975856088e-07
1.330590832973166e-07
1.961276108996944e-07
6.062438329774641e-09
1.515323932521628e-05
2.356427727002054e-08
8.651401459401674e-09
4.325198481819695e-08
1.244072451146797e-07
3.394569325465259e-07
4.914288905807441e-08
1.544511370557631e-06
2.869427996633755e-07
5.931257500199475e-08
3.019980127649466e-05
1.987730645544182e-06
4.14463084677985e-08
3.224332758965837e-07
4.591267920305323e-07
6.398482936924299e-07
1.300563077701413e-06
6.342822785713477e-08
3.170569640057602e-06
2.094078355718842e-07
1.454782442156656e-07
5.786967474885824e-08
4.994070062232356e-08
8.680387289928919e-08
2.872979275274704e-06
1.821750515107955e-07
4.189513211837973e-08
1.09488253229712e-07
6.372980674055565e-09
1.208294445049878e-07
9.475668584488228e-06
9.633686219873291e-07
1.501603080816295e-06
4.92195239456053e-07
4.025163873182247e-05
3.280982333681362e-05
5.692890877728382e-05
0.0001963058814128879
2.953032874335443e-06
8.046547985866371e-08
2.829005534061473e-07
2.872169710712831e-07
1.952316514368911e-07
1.184449934519324e-08
5.416410905811279e-08
6.982120705711047e-09
5.141012353582219e-05
1.446936321690831e-06
5.979164371448342e-08
4.013624353390362e-08
6.746341389047802e-06
4.182347873176078e-06
1.675436720202997e-07
1.543587827775071e-06
5.132152883763341e-05
4.416238979083843e-09
2.772050818606437e-07
1.193120014435375e-07
2.098424481814859e-06
4.367409785072107e-07
1.480987116334032e-07
3.824220850939461e-05
8.525305150573108e-08
8.369106591224475e-06
7.185402306299541e-08
2.81332547651396e-07
1.060288480007996e-07
9.297014477465168e-07
3.15252218855977e-05
3.110915794109562e-07
1.527534111999719e-07
2.727141371267457e-05
4.805354006797054e-07
3.650752437517682e-07
8.96918550221846e-08
1.230904430291903e-07
1.694760610849804e-07
5.849633327457824e-06
3.146452499864713e-06
2.124483750491971e-07
4.04350494996326e-08
1.215065496549574e-05
0.0001113152764012255
3.428859667142792e-06
1.030249040272213e-05
3.502773707054867e-07
6.71483225996158e-08
1.543696896918328e-06
4.072176128092509e-05
6.443306073469079e-08
2.948538260652642e-06
8.702002318218289e-08
3.367197179758412e-07
5.482565157948475e-08
3.863907505971006e-06
1.373548790218823e-06
3.267398802677399e-07
7.061685180567712e-07
2.202606224308576e-07
2.290869904636884e-09
3.794758544678131e-08
7.121784587863118e-08
2.244480529754213e-08
4.643101707803234e-08
1.713460923901235e-06
7.536249228284105e-06
1.5707744470796e-08
3.974923991313054e-08
3.120801595679276e-06
2.486410344052468e-07
5.158626088584521e-07
2.664843518995763e-05
6.106720402160261e-06
1.158540400468479e-07
6.841572223189403e-08
0.000109770700853596
5.651330929729199e-05
2.229583413338333e-07
7.914659638251498e-06
3.751215906068819e-07
6.951977304649149e-08
7.012145047807349e-05
7.410827409584653e-06
1.596027214895851e-05
3.072215955671198e-05
3.234614149411064e-05
1.20753499040234e-05
3.633590388582922e-07
4.40311629151726e-07
4.888828918797952e-05
2.982584498857632e-07
1.692257873686783e-07
6.700096276251316e-05
4.103899116369991e-07
6.236376003775762e-08
3.545373347013658e-06
4.448499679790541e-08
2.534860121729265e-06
4.983948372505598e-06
2.8693661608396e-07
3.832890997494155e-07
8.065422128971343e-06
2.074466394347274e-05
2.342760566025293e-07
1.566199363989013e-06
2.615550082406967e-07
1.85104326384522e-05
1.375506904636309e-05
3.396484617501638e-06
1.700467218727561e-07
9.107641370002605e-07
1.30788782581057e-06
9.342606821227672e-07
6.547049573047954e-07
1.219986545047264e-06
7.237519014281807e-07
1.427564824370352e-07
8.259654892938534e-07
2.50427349986343e-05
9.110680277229323e-07
4.277932428753579e-07
1.497999186611098e-07
1.342784274431519e-06
1.467195017840206e-06
1.181863721021192e-06
1.055072227318604e-07
9.169144330745116e-05
8.388633956565861e-07
2.304806418663465e-06
1.513112956075258e-05
4.488928981413905e-07
3.076973134803637e-07
1.025836277986081e-05
4.752226294695017e-05
1.679692565730983e-06
3.022022909664711e-05
4.901924324318772e-07
3.460457638770897e-07
4.23813762841555e-07
4.725723218481498e-05
3.433150163122773e-07
5.343819187433538e-07
2.02418866500901e-07
4.188446414410407e-05
3.86196384095927e-06
1.455742062145271e-05
5.610984730405435e-08
1.351356846098373e-06
5.890751470067485e-05
8.67096080995472e-07
4.323539595486002e-07
5.995977776646066e-06
3.52259343772976e-05
1.405221819012273e-06
7.412153709118741e-05
4.967317056829568e-05
0.0001114926422323137
7.856288681724888e-07
2.322800222270659e-07
2.519095178271495e-07
1.332157614302625e-06
1.989417786596535e-06
2.948428577358294e-07
2.612678889526987e-06
9.166420814167922e-07
7.935112336255157e-07
4.477537945159194e-08
7.48491674969487e-05
6.350881977101874e-05
3.014220513708477e-05
8.83318065137594e-08
3.740892848840688e-05
6.440180345105716e-08
7.771929026756027e-08
2.033319657583427e-07
5.97500821078803e-07
1.024464589463592e-05
9.538625713237641e-09
3.249440056439686e-05
2.081223434927809e-06
7.776605686498923e-09
5.717487238901704e-07
1.15845851925495e-05
6.77180122015536e-07
1.650507275181672e-06
3.037143096426553e-05
0.000198995934733541
7.605363913842575e-07
2.823223516119563e-06
9.637203707963098e-08
2.715549150537205e-05
3.011451801753287e-05
9.662550858347344e-06
2.746385487168096e-06
2.386173742013019e-06
1.646611491019391e-06
8.897306755229189e-09
1.30101917884453e-05
2.088407147352034e-05
2.248999275270436e-06
7.293656411526492e-08
8.353926011866192e-07
1.150362100971983e-08
8.771455770672045e-08
7.341319470735574e-05
2.447973137575986e-07
1.06982819922663e-05
4.419174567566755e-08
1.525107350438745e-05
1.089787496535046e-07
4.047975826607965e-09
5.432419027615043e-05
0.0001133373661047488
5.034852774065887e-09
3.752325595085537e-05
4.261509795205898e-05
1.95774273750672e-08
2.434104231591183e-05
3.104398872173786e-05
1.794281020165197e-07
1.152749075963508e-05
3.719089226736578e-08
4.559835234613577e-06
2.010511331782677e-06
7.242287481423401e-06
4.811538552609875e-08
2.391973479855067e-07
4.942383386041804e-05
3.350226123274456e-08
1.890308131979879e-05
6.471196864230921e-08
3.16805675391052e-05
9.142036088083394e-05
3.437205889979776e-06
3.780041729295903e-06
3.951135239821379e-08
5.12523557562631e-08
4.67777160398624e-09
5.643083312303698e-09
4.110546332259518e-05
1.365375627560006e-07
5.455916986250083e-07
4.932383699120246e-06
2.703641616814099e-08
2.36311588004412e-05
2.691084289171974e-06
2.245415179895349e-06
7.868922715344173e-05
3.411685365176977e-07
7.906423138701393e-07
4.63112506768901e-09
3.147383839430294e-08
9.114354816525116e-05
1.780369677517255e-05
1.64286163389215e-05
1.909396391923564e-05
1.780806879159158e-05
4.49877796372504e-07
2.80584725887989e-05
3.611332352299978e-07
1.199024753770206e-05
3.496538123681781e-05
8.87119761064023e-06
2.936349149357254e-06
2.669259964276083e-05
7.362956709153212e-06
2.162970688682903e-05
1.251048564784862e-06
1.596039409995425e-06
9.54752563063271e-06
4.690259160188377e-07
3.344435701184076e-05
3.52454180550495e-07
6.632238806392188e-05
1.370116185664925e-06
1.625529662757641e-05
1.139285999947337e-05
5.226431803324882e-05
6.851234179067189e-06
4.830878753178235e-09
9.051910204033176e-09
3.255075802541946e-05
4.681013783029708e-06
6.065088370144078e-07
7.555480119246505e-05
4.352238205881584e-05
8.769504189027472e-05
4.725954185508946e-07
2.878765867108182e-05
2.046031096038237e-05
1.664606385457651e-06
2.873272508128674e-05
3.310588492899669e-06
4.571291533864152e-05
3.106428493049318e-06
3.301809802164213e-05
2.239055036455662e-06
5.056514308128535e-05
1.046968066005169e-06
4.434449152305835e-06
8.171557183578315e-05
1.485572325229251e-05
4.191067517714253e-06
2.078495178281514e-05
2.525354878354924e-05
2.407935362214175e-07
2.378349374908273e-05
1.999592457545458e-06
3.579021687830433e-06
2.062313245010383e-06
2.26094835701989e-06
2.379610409930163e-05
3.838982503577559e-06
2.705928488075035e-07
1.273429159483978e-08
9.802499247084373e-06
7.600473111685213e-06
2.128744923634825e-08
2.045230887766369e-06
1.67092438364512e-05
1.523739653945533e-05
1.063158240141582e-05
5.936225439355514e-05
7.63733653303696e-08
7.722085332516164e-06
2.115806835867318e-05
2.277244032566905e-05
3.991379439111098e-05
7.679150578598221e-07
1.980847762149927e-06
2.679351987926225e-07
2.125886855908546e-06
2.718854284437539e-06
2.637555194337504e-05
3.227443678233133e-05
4.709831301753737e-07
1.930603852662999e-06
4.607888428376228e-05
5.977107802057624e-05
8.861215733520222e-06
3.178676577092043e-06
1.559179694149253e-06
2.323496704675909e-06
1.070360037398743e-05
1.265598988189637e-06
2.436206290223897e-05
3.864873583779571e-05
8.630477035878603e-06
8.00227291729988e-06
4.175966176467316e-07
3.452090071742742e-05
5.402212830602805e-06
3.339362995710086e-07
4.744770014258881e-05
2.831921750788991e-06
1.385580632529138e-05
3.752845115100392e-06
4.600414728946067e-06
9.280545578567966e-07
2.871028102885767e-05
1.28578556556902e-05
8.322080022788586e-06
1.102400755570443e-06
1.10021571466442e-06
1.172758828882348e-06
8.112242569501514e-05
1.56522774477294e-05
4.361591873841553e-05
7.314224884601844e-06
2.236741649456228e-06
1.405895281270456e-06
3.863431635988887e-06
1.472345254603658e-05
3.330510275206811e-08
4.652967763732733e-06
1.109788653530986e-07
1.62757834141769e-05
6.257000367042298e-06
5.650919943410958e-05
5.315821849372071e-08
6.039274539071382e-07
4.531762590548327e-06
1.238502952138898e-07
1.969786218625202e-05
7.237321805363822e-05
7.055894165296228e-06
4.765458244636311e-05
1.295484402987889e-06
2.465885283758906e-05
9.307939129635234e-06
1.457731438100907e-06
6.290758315435907e-05
2.962347459687016e-08
2.845024734753065e-05
1.810411415091785e-06
3.45556903942959e-05
4.408779237954907e-05
2.238666959126709e-07
2.466556248634233e-05
5.368227253760467e-06
7.317452980293987e-05
3.388723513137598e-05
4.512669189993268e-07
5.027065982793344e-05
1.354140073375754e-05
3.10391704067632e-06
3.497846327926886e-06
4.49419743070445e-06
1.028879696177154e-05
3.517417423207214e-05
1.197806207497987e-06
3.910037721532172e-05
4.194228597779711e-06
1.712058659397719e-05
8.728154181941034e-06
2.244880858716033e-06
4.431203575086876e-05
3.596666160821105e-05
5.256866464173338e-06
1.881017440319432e-05
2.294478751768692e-05
6.750829740760286e-06
1.89810781461297e-05
4.57613737698398e-07
4.440926934417763e-05
1.463024706319094e-05
2.067616334600671e-08
1.43988329603939e-06
9.22748631115855e-08
1.80619138061798e-05
2.409474560381799e-06
4.851319807599574e-05
4.622055393976865e-08
4.625517306918511e-07
2.080073612442668e-05
3.04243195226343e-07
8.927715557938143e-07
2.18153998011631e-06
2.463324305246317e-05
1.062837321572085e-05
2.152119515437534e-06
1.237877681907473e-05
6.436054448638595e-06
5.850616732902547e-06
1.8186313813515e-06
1.833682815416751e-06
1.296739723880003e-05
2.463275650784608e-06
1.422013656826593e-08
)
;

boundaryField
{
    FrontBack
    {
        type            empty;
    }
    Top
    {
        type            calculated;
        value           nonuniform List<scalar> 
15
(
2.419111881887034e-07
6.108177126205525e-07
1.587655263242914e-07
8.945805587256411e-07
1.128334643087092e-06
1.259889560031684e-06
4.639212474594201e-08
9.424201852047511e-08
2.768465398670771e-08
1.228789680603063e-08
1.10752492243427e-08
1.854318606650529e-08
3.990263975856088e-07
6.062438329774641e-09
2.244480529754213e-08
)
;
    }
    In
    {
        type            calculated;
        value           nonuniform List<scalar> 10(1.480280384141787e-06 1.535289083417677e-06 1.70598242405927e-06 1.418476104529274e-06 3.197260476997532e-07 1.300835948651966e-06 1.406614128137904e-06 1.603839082675931e-06 1.300563077701413e-06 2.982584498857632e-07);
    }
    Bottom
    {
        type            calculated;
        value           nonuniform List<scalar> 
15
(
1.440627873950436e-06
2.923878045951213e-08
1.082390572219871e-06
5.142340158517157e-07
1.876612883400762e-07
7.997931300513308e-07
1.052066867662533e-07
3.225560246079492e-07
2.757016299401215e-08
1.377087817486678e-08
3.321911136249488e-09
1.331301471232341e-06
4.04350494996326e-08
2.290869904636884e-09
6.471196864230921e-08
)
;
    }
    Out
    {
        type            calculated;
        value           uniform 0;
    }
    circle
    {
        type            calculated;
        value           nonuniform List<scalar> 
32
(
8.731149896618051e-05
2.613390159524748e-05
5.72393455890996e-05
4.025163873182247e-05
3.824220850939461e-05
1.596027214895851e-05
9.169144330745116e-05
3.022022909664711e-05
3.460457638770897e-07
4.188446414410407e-05
5.890751470067485e-05
7.412153709118741e-05
0.0001114926422323137
2.612678889526987e-06
3.249440056439686e-05
3.011451801753287e-05
7.341319470735574e-05
0.0001133373661047488
2.434104231591183e-05
3.104398872173786e-05
4.942383386041804e-05
3.16805675391052e-05
9.142036088083394e-05
2.36311588004412e-05
3.496538123681781e-05
8.87119761064023e-06
6.632238806392188e-05
3.310588492899669e-06
3.106428493049318e-06
1.485572325229251e-05
2.407935362214175e-07
7.600473111685213e-06
)
;
    }
}


// ************************************************************************* //
