/*--------------------------------*- C++ -*----------------------------------*\
| =========                 |                                                 |
| \\      /  F ield         | OpenFOAM: The Open Source CFD Toolbox           |
|  \\    /   O peration     | Version:  2412                                  |
|   \\  /    A nd           | Website:  www.openfoam.com                      |
|    \\/     M anipulation  |                                                 |
\*---------------------------------------------------------------------------*/
FoamFile
{
    version     2.0;
    format      ascii;
    arch        "LSB;label=32;scalar=64";
    class       volVectorField;
    location    "2000";
    object      UMean;
}
// * * * * * * * * * * * * * * * * * * * * * * * * * * * * * * * * * * * * * //

dimensions      [0 1 -1 0 0 0 0];

internalField   nonuniform List<vector> 
808
(
(0.7562618465106546 -0.01751104962616309 0)
(1.031385816602634 -0.01255863166492788 0)
(1.113723569997313 -0.003079119704618345 -1.765421182237574e-20)
(1.085124465461195 0.01258992638530093 0)
(1.362702404097033 0.01464395445294296 -3.865364630987415e-19)
(1.038695083814887 -0.009375860694515434 -7.234219618702457e-20)
(1.014013168608894 -0.02069279524402726 -2.376761928997107e-20)
(1.078872607141766 -0.005054830840757714 8.996731896187179e-21)
(1.25350573315477 -0.02040418326637472 6.31390142942167e-20)
(1.084845473069679 0.009622736847896574 0)
(1.010683262013651 -0.01005478891541763 0)
(1.305038086095294 -0.05326553325408172 -3.512542481391916e-19)
(1.086168652750074 -0.001774924668291831 2.03750729721401e-20)
(0.6751205474566453 0.006387927827660716 0)
(1.280534416965229 -0.1182326422247527 0)
(1.081653049862012 -0.0001125000097286038 -3.839099643774091e-20)
(1.228823692685992 -0.148354720515931 -9.758284394360476e-20)
(1.074169797855078 -0.0001396103756148078 3.182813550680898e-20)
(0.9909425620994704 0.005135040643092148 0)
(1.026626663254958 0.009402628457945237 0)
(1.036820143534043 -0.01291202175720625 0)
(0.9875229057586277 0.04488582737955663 0)
(1.051087089264334 -0.006068699529698734 5.659767405279071e-20)
(1.05358585306525 0.008761955784043717 0)
(0.933193171603918 0.1983892455136331 4.588545158511629e-19)
(1.164117493851702 -0.08777583203848294 0)
(1.185232044656347 -0.0190015856850026 1.565440690803896e-19)
(1.077319222455942 0.009571264550160668 5.214666784780498e-20)
(1.083899466299178 0.002104353919895483 5.086545238005604e-21)
(1.07189714674032 0.03092676715795618 0)
(1.075452628933391 0.002692283879179527 -1.178064441354441e-20)
(1.033203972652626 0.006551966726808711 -1.920864053114267e-19)
(1.059925035391831 0.01468169358715672 -2.376624536142248e-20)
(1.088910222296461 0.005459428720682496 -2.932687160375182e-20)
(1.120545661041784 0.03790604759695408 0)
(0.7550260794488525 -0.1221200350530363 -4.542769555564199e-19)
(0.9545924783695553 -0.005805987230528449 0)
(1.068864170365133 0.02234518510039209 0)
(1.068818247441154 0.007280701266312467 0)
(1.073661595627394 0.008784271606796545 -2.82736707501873e-20)
(1.092583148923157 0.02365411452744352 1.098048044965424e-19)
(1.150310744618647 0.003032460955502358 2.15220133391446e-19)
(1.09578952164335 -0.002368077442794318 0)
(1.015556325924504 -0.009197825225730779 0)
(1.1306868584441 -0.0957853077477032 -1.643734236311605e-19)
(1.044079101478366 -0.01169363969571872 -8.144619033788972e-20)
(1.05826456733728 0.02665298907806458 -2.764968080210007e-20)
(1.230460336594864 -0.1120014478739491 -5.597987154359324e-20)
(1.067629372828047 0.01215267096044175 -4.172253919997626e-20)
(1.256897623961284 0.01682737777679712 0)
(0.9967802683356706 -0.01864411777712295 2.138100391929349e-21)
(1.044639551314244 -0.00219422704949196 0)
(1.087466303865191 -0.002221725798371275 0)
(0.998470661376242 0.007316653842338133 -1.874878304542118e-20)
(1.251546195390952 0.03373851541946728 -2.353524983350165e-19)
(1.063642660762811 0.01824801861294258 6.018819687283691e-20)
(0.9901628599599154 0.009930839198841688 0)
(1.017562005695246 -0.008769559347880544 2.456224238551209e-20)
(1.107167308150385 -0.0008529635277827501 -1.179102813519627e-19)
(1.061423372423665 0.03115554593784055 0)
(-0.07687156366049276 -0.008583327138633336 7.363350601589281e-20)
(1.15443681982654 -0.051861361247062 -1.885163992087723e-19)
(1.004430173229245 -0.00721676672961739 -2.698650685395761e-20)
(1.185600385288651 0.06734306653176363 -1.218040694558023e-19)
(0.997702697111271 -0.009990426752606901 3.042817946427986e-20)
(1.084070293919708 -0.005505687846497062 0)
(1.246087331759299 0.0955155979922068 0)
(0.6960630917485588 0.00317270687386414 -7.465661641561874e-20)
(0.9892165442882509 -0.01466999892409216 -3.169912951187417e-20)
(1.459085188737441 -0.01831342783881992 4.45170041812195e-19)
(1.060569975145821 0.007583492856302889 -6.678904688383435e-20)
(1.366740021499304 0.09614295761147636 2.885746845583156e-19)
(1.054793241853565 0.006812097383411932 -1.899752712747471e-22)
(1.081097770751888 -0.01399983806660163 -3.898893860529156e-22)
(1.164073561225762 -0.2356933318018228 0)
(1.022191531490177 -0.01471009019168322 0)
(1.017472964683703 0.01779743157899652 -3.072314820401988e-20)
(1.387239505289803 0.3492605504716962 4.190521794663703e-19)
(1.097195429373773 -0.04224791579502363 9.436009051234442e-20)
(1.046020200195585 0.2101761871213609 2.477388478773298e-19)
(1.124282084360663 -0.06180204898263641 1.164335055102014e-19)
(0.9220377334572812 0.005163181122509555 0)
(0.9754261022922566 0.01854796829104047 0)
(1.004057830231207 -0.04872679997359199 2.905814198582432e-21)
(1.010373525569479 -0.01334578659632862 7.604544926393357e-21)
(1.030508909481222 0.02628325391623933 1.379276249139423e-20)
(1.528203050496821 0.03568234362033331 3.249341200108737e-19)
(1.29018701732949 0.07107531746316531 5.551864219403518e-19)
(1.072506688048076 0.003002908782828049 -9.049413424205212e-20)
(1.197346389812837 -0.09567563219174005 0)
(1.033825737053702 0.001707518264155744 1.320531509656071e-19)
(1.164362504655802 0.02152816933107954 -3.181749949253667e-19)
(1.001477152067632 0.03241702666587792 0)
(0.9996280281899556 0.002006690257411036 0)
(1.04432965244249 -0.0001517154653833632 7.844377437983342e-20)
(1.213125144885123 0.1066792057481076 4.072344482187071e-19)
(1.011145295783368 0.006944224056605278 0)
(1.090045327012365 -0.06987617200212128 -1.059644245063182e-19)
(1.150244708296203 0.03666563240196027 0)
(1.212643345586324 0.0931020850262661 -1.917204848168591e-19)
(1.10816278053771 -0.02871584350621809 -7.714875738192426e-20)
(1.027610835222072 0.0117291035590066 0)
(1.085242993987617 -0.004635877768039284 0)
(1.019551753016072 0.02597697366085969 8.008276473866417e-20)
(1.0734652417006 0.0549168523113233 -9.387020168482271e-21)
(1.103732153909773 -0.004259336329719171 6.32214222489441e-20)
(1.107837186028758 -0.09470504819182236 1.521892103026621e-19)
(0.9618323796528867 0.0006356723089713294 0)
(1.066258512055414 0.03129129802283698 3.782199743286602e-20)
(1.168331063595285 -0.07633044947439756 2.303881510657614e-19)
(1.052583682195875 0.04592452126919245 -2.887895488828247e-20)
(1.022769672617559 0.06766489836064273 3.699257246214256e-20)
(1.090445350293282 0.02614034693590507 0)
(1.014899509360037 0.01589663355232404 0)
(1.028996338194694 0.00939016700350144 7.883981708597606e-20)
(0.9486338748346509 -0.0329028652833926 0)
(1.053038995796139 -0.005570389660094169 -7.678796578445837e-21)
(1.341021355743214 0.05824445048798749 -1.569572041816383e-19)
(1.079834633651856 -0.01323191686167866 2.618703016798054e-20)
(0.7440731868636432 -0.001756974763909497 0)
(0.5609159689558 0.1729844938906676 -9.711274520552159e-20)
(0.7060117392266207 -0.002511376615533935 0)
(0.6989522748293361 0.01465080949325865 0)
(1.077732026093964 0.003568041392313788 -6.640843956722331e-22)
(0.9906426659701089 0.01448116482376106 0)
(1.279540154612173 0.1226457510085772 2.512089075428891e-19)
(1.012284136021113 -0.02788632410893751 -7.663494530153145e-21)
(1.042377462499418 0.01937776384850753 1.505218906348361e-21)
(1.058533816890904 -0.01202022380229284 0)
(1.126508056067103 -0.00918560833904805 -5.039221423174738e-20)
(1.26376354950967 0.1320316007819898 -2.226446237355848e-19)
(1.089068874259209 -0.01104818666018447 -8.54937269171891e-20)
(1.070412378265289 0.02593923031829369 -1.088469495026392e-19)
(1.040909001186485 0.04675513302037061 7.132229962772273e-20)
(1.02246233984615 -0.003647074462096502 -3.460258980409516e-20)
(1.061133223936642 0.02360468526023381 5.9145613400451e-21)
(1.134452615025671 -0.0009098811337400081 1.057928628107648e-20)
(1.040047104099411 -0.01414874324861911 -4.744048386064995e-22)
(1.087579662514723 0.03477820940596046 0)
(1.028387784963909 0.01349650996572127 0)
(0.7783373840739262 -0.06914385979194489 -1.82899913168622e-19)
(1.030228887690777 -0.001869845178077219 -6.74804153673459e-20)
(1.133534723294262 -0.001939683819166083 -1.283098627060991e-20)
(0.7034808008434211 0.00656246872663006 7.283384330870446e-20)
(1.175447218429893 0.01967441432685856 -1.939340045185825e-19)
(1.131629646132179 0.001556348860530106 5.428547234670236e-21)
(1.129008650469487 -0.01005766115391962 3.426495592436111e-20)
(1.00093746019938 -0.002960968214359174 -7.194006205416773e-20)
(1.098505101271027 -0.06279797624594524 0)
(0.9873381261410069 0.001982927275252848 0)
(1.057915076998034 0.007055048442355314 0)
(1.005741804090648 0.1887485397311408 -2.421383543243091e-19)
(0.7793512437784937 0.01242205669279307 0)
(0.8569533502879575 0.1019164522116319 -8.334731432360813e-20)
(0.08929974530449032 0.03661553898979547 -3.020282754071972e-19)
(1.172651030034824 -0.03100899192817493 -2.255987836141405e-20)
(0.6712833678543146 -0.007333975362402435 2.443213048940188e-20)
(1.166589326705761 -0.1032856846157211 6.949834979245831e-20)
(1.125809574996715 -0.002720195559392002 -5.953180777203103e-21)
(1.15483831194081 -0.04937427735769971 2.192265129529792e-20)
(0.09019589318805815 -0.2063938561344371 0)
(0.2527121563178761 0.07547986210842256 0)
(1.256953832250697 0.1087956937548674 1.89288416054539e-19)
(1.021349644361075 0.01983530380903668 0)
(0.7377000695516736 -0.006292422143562314 0)
(1.07510385987373 -0.01167668244050904 2.7164955529383e-20)
(0.9750044448903782 0.002834632002772086 0)
(1.291942265408177 0.125210904795702 -1.512653225388543e-19)
(1.057412883981699 0.01111341565791096 0)
(0.9930809472663917 -0.007616907473581794 0)
(1.065164661053356 0.008180326868338837 0)
(1.006209516469267 0.02086202707448377 1.973422379089645e-20)
(0.9304459033825713 0.009914470906263753 1.184472535374954e-20)
(1.176368254667123 -0.1994544823762923 0)
(1.005094320996863 -0.005204935333910293 7.902479061170983e-20)
(1.059180329756221 0.00628746857163512 0)
(0.7746097656589789 -0.003315485738235568 0)
(1.216844499150314 0.02762694992177848 1.646275664611612e-20)
(0.7050334818728005 0.001343703747146688 0)
(1.433995829922086 0.08702691466693807 -5.224479290783247e-20)
(0.9943536471205131 -0.006092255180261936 1.682638288468656e-20)
(1.27453329730583 -0.002528274011530645 -2.963020208397521e-19)
(1.059775648577129 0.008893234167055153 1.361696113703124e-19)
(1.000904566831208 -0.01357296802726947 0)
(1.213944883941572 -0.148083871787634 2.042685244203213e-19)
(0.7331804878834168 0.01378880079405918 0)
(1.098251864861488 -0.005038646625188564 0)
(1.153851852137936 0.06684650555406996 1.961042857669862e-20)
(1.006681115763366 -0.006872241725534951 -3.033614515971051e-20)
(1.121392601174937 0.05132669932939719 -1.738627542736159e-19)
(0.1271234843471825 -0.08837472781819895 0)
(1.072926334492571 0.038070050438743 0)
(0.6616407260200371 -0.002898579674795835 -5.929669591603146e-22)
(1.0121129467281 -0.01955665838964755 9.392142580758884e-20)
(1.061569594249927 0.0007694091808277999 0)
(1.081355811813548 -0.1329380878233328 3.757589699135118e-19)
(1.002657144542306 -0.006172152929520089 -3.390228607603999e-21)
(1.002551690827204 -0.004601920374348368 1.005945012338394e-21)
(1.093979538625533 -0.009301193228889781 0)
(1.020732424581213 0.0203656664867133 -6.452894938695301e-20)
(1.106678903318543 -0.001623693322314499 6.515210779751757e-22)
(1.074182439776293 -0.01098334910471367 6.597357280408212e-20)
(1.085710340386997 0.02226321464795178 0)
(1.327945875868406 0.1609901786378467 0)
(1.002045966455502 0.0003438940276156583 4.411477583357871e-20)
(1.321270504028006 -0.1291223619459326 1.571765624584215e-19)
(0.02859136501063091 -0.1649173907879812 -2.433404164780908e-19)
(1.071166644751099 -0.005514691981142705 0)
(1.114597393867572 -0.001700364435408021 1.197022775334527e-20)
(0.7268527321984773 0.01783561809443352 0)
(1.060431598796228 0.00679948638421537 0)
(0.8663671249825771 0.1642851393074889 4.692314345091945e-19)
(1.276580495819861 0.1258766760268308 1.875433910306916e-19)
(0.6542329119350607 -0.003106416533342059 -6.405823119727833e-20)
(1.041120607915965 1.22494667679374e-05 -4.848937219209107e-21)
(1.05484004898305 -0.0002481744287139349 6.547853414550988e-20)
(1.361836166731599 0.121249178532189 6.686998629502856e-19)
(1.335977043765846 0.2524275276588191 0)
(1.058701055422904 0.005211098159825928 0)
(0.9979248147098249 -0.005821368336129134 1.453250645000161e-20)
(0.9939174809889546 -0.006958620899653456 3.407658601924938e-21)
(1.383895633711081 0.1999231022557602 4.283359283745868e-19)
(0.6817622315010694 0.0005627519201350258 9.898604435227671e-20)
(1.005661403275948 -0.002103618164169924 -5.992248884909575e-20)
(1.09808753970981 0.0131320504894466 2.551103366865686e-20)
(0.6694664533291171 0.004979706107495498 0)
(1.066086179310113 -0.01202287186052222 0)
(1.00276859541829 0.1385335026654137 -1.307757794084206e-19)
(1.086984420231948 -0.001688766804016082 -2.510545509423731e-20)
(0.9820786613095597 5.823121470621345e-05 3.295240718234854e-20)
(0.9912110240043652 0.00601381641741727 0)
(0.6382565009826217 -0.001101767595592471 0)
(0.9768359871288149 -0.001218772589218538 0)
(0.6421180254574372 -0.001442073463351151 2.679501938234413e-21)
(1.088684727876059 -0.05649369499691086 1.206117984797738e-19)
(1.111215102233504 -0.003010099825141731 1.193097238626907e-21)
(0.9580753255180566 -0.0009181681558842718 3.898031268245746e-20)
(1.01636434003728 0.01045879351026044 1.702388015350843e-20)
(1.065363224665749 0.00580351691900838 -2.350215216366302e-21)
(0.6347975816507042 0.008846561871416806 -3.632358780663779e-20)
(1.003710715681332 0.0105593350401443 -7.640998398486824e-22)
(1.036357616354752 0.009631746393022519 5.20063100905198e-21)
(0.9870827685346217 -0.008001824061661614 0)
(0.6100896249569977 -0.0004836704579226715 0)
(1.068792921034935 0.02268754563060123 0)
(1.016223050462665 -0.01622442995252048 1.046227149759095e-20)
(1.022806388876669 -0.005950921364880787 0)
(0.9921996135616137 0.01430694635278282 -9.609607488992912e-21)
(1.010749394509375 0.003869867975684116 0)
(1.130759665365375 -0.001357034806993005 -1.207511224537551e-20)
(0.03494677759063205 -0.1408006450994312 -4.178672482099042e-20)
(1.035323809655336 -0.01711106686850515 -6.774555164616681e-22)
(1.043419989140589 0.006797177631861986 0)
(1.08437146601137 0.06748126938743143 8.423757503782197e-20)
(0.9684498112998029 -0.001633786553848269 3.111481422624672e-20)
(1.020376619829305 0.01692059680734182 -2.307946056323353e-20)
(1.004247398775143 -0.0005099941760410438 2.447519209494678e-20)
(1.039791563688724 -0.006407441166025942 0)
(0.6409472073142313 -0.004033168171254254 0)
(1.025909950769813 0.02450947579093886 -7.60825586510959e-20)
(1.08344169821674 -0.0001848075672122769 4.940877449919581e-20)
(1.014223563270104 0.004993857550737088 0)
(0.9803551625032948 -0.001799785272524312 -1.931225080899011e-21)
(0.8652387532199728 0.01673801271979251 -1.186801857858384e-20)
(1.01396276068601 0.002811244197823698 -9.876282200961206e-21)
(1.024833840557443 0.002380719146005761 1.827759551624495e-20)
(0.981459698057939 0.001755161890513294 0)
(1.0051278935486 0.01025518876851883 3.364048359958293e-20)
(1.108585824512791 -0.002333247596490534 0)
(0.9299410225781219 0.005350004094750111 -3.270756150854414e-20)
(0.9572591181577752 0.003811439070407762 0)
(0.9086231540572445 0.2068956178315219 5.079359188793257e-20)
(1.01098407647278 0.06718837860453469 0)
(0.9917475224420567 0.004351247046083073 -2.290813303910025e-20)
(1.056128125358887 -0.05154586332963638 -2.810041925460238e-20)
(0.9924809740405999 -0.0002858748890670682 3.337669553898965e-20)
(1.009396605858773 0.004580403968591947 0)
(0.979271125232403 -2.233797312567258e-05 -3.104401484817432e-20)
(1.173726340568914 0.0999487523406874 -3.368934968510164e-19)
(1.068850074728405 -0.2642748877204291 0)
(0.9939695555538569 0.001236918499659444 -2.233623985634311e-20)
(0.9779015406261358 0.005321529043841043 4.903270054301032e-21)
(0.9610237117982849 0.001605459735211771 1.028916383166882e-21)
(0.7459758754635222 -0.001072136891260537 0)
(1.118532837003505 -0.07561496479251044 0)
(1.00538849700662 0.001662776021330552 -2.206099993006822e-20)
(0.903732649371353 0.005254846514049285 -1.031390313352516e-20)
(0.8482700583712294 0.008861185691285431 4.187056620084003e-21)
(1.01236184617765 -0.001628747989957704 0)
(0.9556013374325621 0.008470205703666661 1.505471009398641e-20)
(1.005679301948458 -0.0002269722020125025 -2.277559157533039e-20)
(1.023435081187851 -0.0005466039102549306 -2.53105674922056e-20)
(1.11305627959372 -0.003644038876978284 -4.916113167288702e-21)
(1.116828357319411 -0.002482379412902336 0)
(1.012051902857425 -0.002670009243275949 0)
(1.022500261123616 0.0001993747015323959 0)
(0.9462272568359773 0.004980009937196801 -2.077602754959814e-20)
(1.017868197321975 0.01339303727453922 5.477133487163215e-20)
(1.083638342938212 0.0006589308179408673 -2.283494237090048e-20)
(1.038747173992773 -0.001133898347334715 0)
(1.107277800243188 -0.004581827900725691 1.830676284278162e-21)
(0.9951815700483903 0.001793883381556654 -2.225068437436126e-20)
(0.9831212291078191 0.002997314325298119 0)
(1.010950297115694 0.0026069283718905 4.678528912111594e-20)
(1.364883153969393 -0.3141126331492695 -1.126375367924245e-18)
(1.121751575953462 -0.04451766728250316 -1.096466393580938e-19)
(0.9704946790275424 0.00754533855211987 4.65570003982143e-20)
(0.7739544818579576 0.01318074987362423 -3.357569273887866e-20)
(1.222160289243893 0.05124751098481898 0)
(1.219457342731834 -0.1323538475629579 -1.472314138402542e-19)
(1.081947853547145 0.0009645807857006398 0)
(1.008800592885164 0.001131383978400085 2.257911933637535e-20)
(-0.1816326660661334 -0.1054076483704563 0)
(0.9939689586282324 -0.004661814086935358 0)
(1.012386325137132 -0.0231051139024912 4.240383081436538e-20)
(0.7062669530058435 -0.01943539997507986 0)
(1.09679236918202 -0.0149108705034595 2.240774259734932e-21)
(1.041422637897324 -0.003699741550821385 1.615260070978325e-20)
(0.6332772697743906 0.004171834622970225 0)
(1.447330368580092 -0.1231586118026934 0)
(0.9863257622971481 0.001752301892383305 -1.076903222290965e-20)
(1.069713035770413 -0.01508682413467992 0)
(1.037931903038232 0.0004815165113557929 2.106570586390974e-20)
(1.084326000596024 0.001322642654179012 0)
(1.0105801293373 -0.000478176357189025 -1.146352539509446e-21)
(1.006003180076399 0.00313496020701154 0)
(1.011272271259335 -0.00561017549069326 -3.380911743097319e-22)
(1.003801597138181 -0.02046166382655426 0)
(1.035068458289756 -0.0009603573284627926 1.776045689380674e-20)
(-0.1957694130666098 0.04034763749643853 2.725188191934588e-19)
(0.8100728814396868 0.03027010551670135 5.603545652751888e-20)
(1.005368342703807 0.00209359509245918 0)
(1.127013284265787 0.01756480098342885 -1.219936496716459e-20)
(1.115464416464017 0.0118974835003386 8.993936852989131e-21)
(1.054199679693965 -0.01294368890007649 -1.30184917930126e-19)
(0.9987788533361968 0.01037596694973924 4.655195161621357e-22)
(1.081266507118094 0.0004594198475554717 0)
(1.187064983773789 0.05178614579951481 0)
(0.8352360087884338 -0.07523378215298376 4.598899161004381e-19)
(1.095551985138299 -0.007069927802293416 0)
(1.033128750083345 0.007741758404255541 -7.55411940607555e-21)
(1.042596862274099 0.005279856925702229 5.897528843976003e-21)
(1.05319342986924 -0.06010952607693731 -7.543566964870651e-21)
(1.139760001061639 -0.0016158625061619 1.693839716868871e-19)
(1.081769195973879 -0.0027678226818415 0)
(0.9946750644842516 0.001602562596983888 0)
(0.997096421900818 -0.0253452379509621 -2.345384882738496e-21)
(0.9908232877035597 0.003096530624368594 0)
(1.030177030971713 -0.03765034399070408 6.435386379340948e-20)
(1.292647803649882 -0.09555365138240789 0)
(1.04408112148041 -0.006615959743449367 -2.624216400386419e-21)
(0.9861703014825212 0.0169142967554163 -8.777091490638192e-20)
(1.034133332729385 0.04197979338524974 -2.373957159184479e-21)
(-0.08393898481913117 0.1717865435386612 -1.684946078459025e-19)
(-0.0669046981856674 -0.2916184090990004 -1.349445322226746e-19)
(0.8772143572316592 0.1259959613169588 0)
(0.285622363414414 -0.01973675858872655 -3.109338401613296e-19)
(1.009485655889101 -0.009078494633395795 -1.285353883190207e-20)
(1.063914162856164 0.002672273187160401 -2.092309231356098e-20)
(0.9923685844002125 -0.02011711837141869 2.987794556163965e-20)
(1.024122093108021 -0.02924340910706776 2.590272136008609e-21)
(1.00923988677508 -0.03131638333447542 -6.617556926009877e-20)
(0.988906964911851 0.004896512074541635 -3.480250592154159e-20)
(0.9933742425803872 0.004743626772788654 0)
(1.024784133191214 -0.002146342863410202 -3.533405264566482e-21)
(1.934437433954739 -0.1558431796044651 1.072105390846652e-18)
(1.048152521085305 -0.00964991547671798 0)
(0.9959912488162922 0.007900283726782144 1.521339931296005e-20)
(1.003192941549518 -0.0003448577170777226 4.039735016748162e-20)
(1.168930291023443 0.1458129595571979 0)
(1.002838346757578 -0.0113653272934445 3.515049874353767e-21)
(0.951292624459426 0.0002226714817311925 0)
(1.03784285591585 0.04174125857510953 0)
(1.30168445447383 0.1578075848647199 2.263372440417209e-19)
(1.081335689208336 -0.005332703828995917 2.297421455484019e-20)
(1.017349523667396 0.03100212081880081 4.59533831444903e-20)
(1.082560766907098 -0.003356047989700799 -2.214889351484254e-20)
(1.052672429123217 -0.01369027776477499 -3.626648990876719e-21)
(-0.3861075276306461 -0.04389620065213394 0)
(0.9989068150420487 0.01350441729040685 0)
(0.1166060526499481 0.05634464347114541 -8.98836579036165e-20)
(1.006323950859937 0.02156882096503905 -4.088240024291027e-20)
(0.9998360514318997 -0.01460938100557433 0)
(1.000850133851238 0.005588365288441783 -4.973978043360432e-21)
(1.081772625644802 -0.04229300290591107 0)
(0.9948784242110498 -0.01791970281423261 -7.908889548718004e-21)
(1.09583164043506 -0.05296077041138546 0)
(1.443029155779654 0.1744755921248941 0)
(1.054512349812487 -0.01194018032057313 0)
(0.9910611630811736 -0.0237383052969148 -4.015263413548691e-20)
(0.9904187355684948 -0.03430615980540475 -2.85837730370165e-21)
(1.017099834118594 -0.01934308023221104 -1.921913084370458e-20)
(0.997072301694968 0.01691757692519063 -5.54386210040353e-20)
(0.9955588773295051 0.009988809788943972 -1.482651299532942e-20)
(0.9945041240146288 -0.02746128466393162 0)
(1.002419701165131 0.02470385930435202 1.926467664998853e-20)
(1.046147219956575 -0.03366778118359499 0)
(1.110921766022512 -0.0360095663290978 2.582744800106773e-19)
(0.9954319005125691 0.01695782196371896 4.579922815123199e-20)
(0.6150762380229672 -0.008682241723659109 0)
(1.145255109599791 0.1478234726959583 -2.386664938801162e-21)
(0.8417207274839187 -0.09240450491914719 0)
(1.138477700006774 0.07292400456845934 -2.73828987665264e-19)
(1.315315965612672 -0.3885123139984817 1.28919508513651e-19)
(1.072633062497542 0.06383443205152059 -1.288592440270363e-20)
(1.010603047386608 -0.03080098041416462 0)
(0.9555211216426391 -0.2152261508976494 0)
(0.5243139346680625 0.1594356537423468 0)
(1.014176494415579 0.01144924324962497 1.162864392816209e-21)
(0.7004027647576234 -0.02101580593275092 0)
(0.9987979549244796 0.01727690737533929 3.519755905325104e-20)
(1.024244334507992 -0.002592600474840879 -2.730494470238298e-20)
(1.07906595483947 -0.008056780466244286 2.727188238843901e-21)
(1.046667794658085 -0.01714569704106644 2.971726891005269e-20)
(1.042674573472155 0.01132942840929262 0)
(1.059126731209059 0.02524283906878825 -9.411789412046087e-21)
(1.050535467956535 0.03536669860271972 -1.801306326807352e-20)
(0.9832032001574353 -0.02223578682019419 0)
(0.6250304829727782 0.00510850121281725 9.178211461257152e-20)
(0.8943244737939021 -0.005939305801638907 -8.853378411018645e-20)
(0.9095736131911848 0.005313091535973737 1.447348802750616e-20)
(0.6297677012854577 -0.006396474125424282 1.407618650919008e-20)
(0.9795857760447122 0.0004690013596596937 2.550622391830805e-20)
(1.004434722832702 -0.01753858076456414 -3.460243861344519e-20)
(0.9751817133752179 -0.02478718627846805 -3.19961246255798e-20)
(1.085571634427801 0.001524688863573362 0)
(1.019401312853333 0.004868081337433538 1.048675195135588e-20)
(1.132746565242022 0.04858123922198213 1.322897651100985e-19)
(1.032654704442437 0.04160579594413732 0)
(1.022385325737631 0.002585010825136834 0)
(1.583390976188413 -0.167393539468521 4.390730688563458e-19)
(1.049213274918655 -0.03742240477061652 0)
(1.019565673885828 0.008554858110169726 -3.706384490455241e-20)
(1.085497418611343 0.001008221832159041 0)
(0.4861664570306853 -0.01629215288628656 0)
(-0.01571878885198278 0.01438614586130645 0)
(0.9906573043173218 -0.02392932182282455 1.232127862392828e-20)
(1.300923169715963 -0.09587386894956489 3.718579338171597e-19)
(1.033379508548072 0.03713847614695007 0)
(1.022431219445116 0.003440600504449167 -2.221009120271215e-20)
(0.9468463616575404 -0.1628116057431393 -1.487215214699927e-21)
(1.254642224802815 0.07615094775092331 0)
(0.5979032077195205 0.7303605763964051 0)
(1.309679948905515 0.1465259717906564 1.080753030629825e-19)
(1.676537025753184 -0.02548614910155554 0)
(1.060635417224029 0.1200724790682121 0)
(0.7198980259733415 -0.01052985226555468 3.353400717676867e-21)
(1.049623675294219 0.04643601704082578 0)
(0.7367312345347349 0.1123904008136321 1.274347206185146e-19)
(0.9967936105232811 -0.01640623056366117 3.576539049253342e-19)
(1.036179773164166 -0.04043475971768655 2.71755812509157e-20)
(-0.3763601732405478 -0.02859921867807464 0)
(1.071936626511124 -0.01630357888619158 0)
(1.090104145448581 -0.01023353333673595 0)
(0.6482899037075799 -0.5030068867998519 -2.48305579128875e-19)
(0.9908578486394969 -0.0008193358028055844 0)
(1.092109020669747 -0.02171249087805353 5.327484500452786e-22)
(1.18807191454815 0.1211190946745659 -2.015605959220776e-19)
(1.094029299758065 -0.04340380166388668 0)
(1.005578569477439 -0.02107666536885219 0)
(0.7941390603583233 -0.1871819535665908 -1.680442462017039e-19)
(0.8903794250112348 -0.1354748499537372 1.508788739504269e-19)
(1.030657507677917 0.01242699380219759 -2.163973244492062e-20)
(1.023120398108862 -0.009100022314797524 -4.45901099756401e-20)
(0.8740106777224184 0.006591117688648718 -3.778357434792825e-23)
(1.504790493627358 -0.1938833680503043 0)
(1.305056649928076 0.115734187236542 3.079568997264651e-20)
(1.243319431335029 -0.07642658661873698 -3.153193831175748e-21)
(1.095798884539471 -0.01861978691484956 -3.919592869742863e-20)
(1.039435870940266 -0.01496465706922369 2.736981643239617e-20)
(1.092820293602146 -0.03912226386125077 9.300482584376379e-20)
(1.032199986752359 0.02012793589868951 0)
(1.047798682711143 -0.03480401627725179 0)
(1.115904983185266 -0.008993331386122442 0)
(1.093966454545055 -0.03367241492275368 0)
(0.998078344780211 0.01097693011989032 0)
(1.150985475784302 0.07852401549441337 9.458730440720638e-20)
(1.341499121692154 -0.1542342660103539 0)
(1.038958748083242 -0.02430466854966841 -2.206324665470635e-22)
(1.050700567064455 0.05266401813967533 0)
(1.010096059772841 0.01444360573408601 -3.899048828993313e-20)
(1.033710901459658 -0.007771976174468168 9.206998659208203e-21)
(1.088959104741935 0.01339306899887351 -3.223288987472993e-20)
(1.084840813078645 -0.02888311494653737 0)
(1.073612904286973 0.000277208779192047 0)
(1.104858460599702 0.09370516694740003 -1.413318676835247e-18)
(0.9352780236623885 -0.1493734975392005 -7.083806172292046e-20)
(1.173878290368805 0.1111472621891308 1.125400967825073e-19)
(-0.4693931172006915 -0.009006133730610636 -2.917070901544265e-19)
(1.018696644425028 0.02912478180738957 -8.738894539030354e-20)
(1.005831469259234 -0.0006654064329062316 0)
(-0.2693656626300207 0.01643764738579317 3.563430551757554e-19)
(-0.04364532299935908 0.3129184456930414 7.647031883290104e-21)
(0.9952184348498417 -0.006290862527644128 9.430268050875706e-20)
(0.1870005166357979 -0.04215850261443022 1.361572379407029e-19)
(1.091123388554676 0.08604121210868987 1.4659788170951e-20)
(0.09375849280275851 -0.1093397702176465 -5.453950058633128e-20)
(1.10813800743187 0.003065051651836212 0)
(1.09925705014723 0.2541803781155973 0)
(1.021425301140276 0.0217256166551309 -1.711105878907762e-20)
(1.068389921575708 0.05586065960913625 0)
(1.025570718297542 0.02531447318939227 -8.990933728039e-21)
(1.262516210077028 -0.5485856141394205 8.026761979079308e-19)
(-0.1015275943053325 -0.2190273975231161 2.147226784860707e-19)
(1.298199725974742 0.1146702484890792 -6.239266113220653e-19)
(1.122940302102511 -0.00148161055320313 0)
(1.128094174051516 0.1013480527014235 0)
(0.524760676566184 0.07975449127244953 2.486920296729608e-19)
(1.023365010460114 -0.02068790506977096 9.433481564672266e-20)
(1.005942456076371 -0.02357604893841454 0)
(1.211681800462863 0.2709520845317095 -9.656670856038091e-20)
(1.257367794752024 0.1327464885975136 -1.553658028601665e-19)
(1.026569203569212 0.003006539697380537 1.558240044132277e-20)
(1.298918221909945 -0.08483481573645871 -4.990037498827842e-19)
(0.3010673566646665 -0.01869526009129074 2.757125366652777e-19)
(0.8301257436991752 -0.1476653526056242 6.78255158590281e-19)
(1.049026404550933 0.05966090189321233 1.074864480944609e-19)
(1.039825228186699 -0.002286332991963812 1.579600673372736e-21)
(1.001114064554794 0.01964522632671183 2.928983977329165e-20)