/*--------------------------------*- C++ -*----------------------------------*\
| =========                 |                                                 |
| \\      /  F ield         | OpenFOAM: The Open Source CFD Toolbox           |
|  \\    /   O peration     | Version:  2412                                  |
|   \\  /    A nd           | Website:  www.openfoam.com                      |
|    \\/     M anipulation  |                                                 |
\*---------------------------------------------------------------------------*/
FoamFile
{
    version     2.0;
    format      ascii;
    arch        "LSB;label=32;scalar=64";
    class       volSymmTensorField;
    location    "2000";
    object      UPrime2Mean;
}
// * * * * * * * * * * * * * * * * * * * * * * * * * * * * * * * * * * * * * //

dimensions      [0 2 -2 0 0 0 0];

internalField   nonuniform List<symmTensor> 
808
(
(1.04087627406102e-10 -8.537313044010286e-11 0 9.839429347246326e-11 0 0)
(1.733227561473427e-08 -5.499921108820249e-09 0 2.407065721900638e-09 0 0)
(4.839250290045172e-06 3.497372917636316e-06 -5.839666254769449e-25 6.003445105131287e-06 -3.733711771616403e-25 1.231560882020482e-43)
(2.210898131238537e-11 -6.706905170128508e-11 0 2.042728938474528e-10 0 0)
(2.547651902329306e-06 1.347970482061533e-06 -4.12461185993192e-24 2.02850753608857e-06 -5.6084257174766e-24 1.56123345217497e-41)
(2.888204564399643e-09 -8.600783470841256e-10 -1.743504210977362e-26 1.925375633910322e-09 2.499624727481763e-26 4.432924323304445e-43)
(1.545739078956387e-07 -1.522642759099746e-08 -1.690310695113857e-25 9.460472227129776e-08 4.008202500451323e-26 2.057552011946403e-43)
(1.451185425160872e-07 -1.08482644547124e-07 5.800785068062663e-27 1.328233929954432e-07 -3.255754173302212e-27 2.82632086509382e-45)
(9.741313291566911e-07 4.269090800035347e-07 1.472354538277931e-25 1.196805302942135e-06 4.982254465758035e-25 2.088484260457688e-43)
(1.172636077129141e-07 -4.183528125312197e-08 0 3.713788837383892e-07 0 0)
(5.237975279959173e-06 5.68312021945877e-07 0 3.017147536849005e-06 0 0)
(1.504568632793024e-06 5.8207300601687e-07 -2.964340256605295e-24 1.067870648989964e-06 -4.265893103453357e-24 1.741167196892164e-41)
(3.495283729115783e-08 -2.352426629144075e-08 1.06241899514469e-26 1.556460226281513e-07 6.005166569905686e-27 6.186082829329826e-45)
(4.731761815701674e-09 -1.445756039192281e-09 0 5.354385514068534e-10 0 0)
(1.549750958673712e-05 5.065917238727957e-06 0 1.237455213237704e-05 0 0)
(1.520380119579556e-07 -1.79999336267139e-07 6.793317351601384e-27 2.853750684307185e-07 2.235612713730406e-26 9.783625212820174e-44)
(1.246763453188748e-05 -4.036521535272231e-06 -6.543030712054986e-24 1.361484767768706e-05 4.759786593998096e-24 4.010811623359819e-42)
(3.654501279370947e-08 -1.008226227318713e-08 8.131551560962584e-27 3.380987011464329e-07 1.516952192569774e-26 7.140190870012182e-44)
(2.771508119336907e-06 5.676567771386795e-07 0 1.35974473484773e-06 0 0)
(6.391356088819578e-08 -2.89724646895112e-08 0 4.73694872022356e-08 0 0)
(9.441866305914814e-06 -5.815857835791277e-07 0 4.94612204109216e-06 0 0)
(2.832344914160956e-09 1.963815266653457e-08 0 1.576914983474932e-07 0 0)
(1.499910640134772e-09 3.907532570950056e-09 -3.096520564607497e-26 1.196423216789623e-08 -4.620325419717355e-26 1.335887643445455e-42)
(3.434582040995338e-08 -2.55286133586663e-08 0 1.508531916992467e-07 0 0)
(2.329999176930997e-07 5.236468860747578e-07 -7.732342874715606e-25 1.199919766534108e-06 -1.591631447827506e-24 3.502982054156456e-42)
(5.87725294276531e-06 2.525379252923954e-06 0 5.497944881036401e-06 0 0)
(4.647217350939314e-07 2.654353331785209e-07 5.11802823567734e-25 6.622844734864488e-07 1.678017516271087e-24 4.342809126917009e-42)
(1.88504183595839e-07 2.458881167687749e-07 -2.42914291952851e-26 6.181360306362451e-07 1.528760284244955e-26 4.206004555979372e-44)
(2.499463762628551e-07 -3.18279677503832e-07 -6.709498677639277e-27 4.766790756413154e-07 7.585690434011635e-28 1.359598793260959e-45)
(3.291379058190103e-08 2.831901595168329e-08 0 5.36519708069531e-08 0 0)
(4.947365894736322e-08 7.420436794712548e-08 5.532404516997498e-27 5.116378257874651e-07 3.701862644245316e-29 2.826573593643216e-45)
(3.331758091640324e-08 -2.671201900211057e-08 5.481152438967219e-25 5.06595185741741e-08 -7.709084911726537e-26 1.368693246387695e-41)
(2.272593313534799e-07 1.998422166377828e-07 2.90565305534308e-26 2.995673252999026e-07 -1.596376510066453e-26 3.5044082187039e-44)
(2.18118760608732e-07 -3.488946932819759e-07 5.946842968299226e-28 6.368179138952076e-07 5.745391826847847e-27 7.333665698400571e-45)
(6.958324305639252e-07 -2.683777041989632e-07 0 1.269279393264523e-06 0 0)
(1.704155061510448e-08 -1.642366699861064e-07 8.356243557931574e-26 2.320965272696943e-06 -7.837415309394148e-25 4.257755511636436e-43)
(2.695690826115538e-08 -5.34868070927591e-09 0 2.669727311922397e-09 0 0)
(1.230628328130479e-07 9.376034698291291e-08 0 9.551597338563166e-08 0 0)
(5.117768875351203e-09 -2.906538317318241e-10 0 3.125924867856868e-09 0 0)
(3.54275923486469e-07 3.614005164541412e-07 -1.801839611259246e-26 4.777989810061684e-07 -4.209728826403831e-26 9.885921981502074e-45)
(2.807916017477652e-07 -1.321051867828049e-07 -8.17524391979355e-25 5.975035447954545e-07 6.786691908845945e-25 2.571215321653473e-42)
(2.886483256858696e-07 1.433745944472327e-07 -3.859801610159723e-26 7.171777018408013e-07 2.468744265187643e-24 9.661558109405111e-42)
(2.803126952777291e-08 9.633856057952167e-09 0 7.041744861888968e-09 0 0)
(8.822768493566002e-08 3.022395863444549e-08 0 2.924568393036266e-08 0 0)
(6.772053115611243e-06 5.964615830689191e-07 1.382507018031055e-24 4.443548254295937e-06 2.709309898434256e-24 1.924141310342676e-42)
(2.875144566871768e-10 1.262170283219954e-09 2.262150583598265e-26 6.225162721705578e-09 7.02585683416583e-26 3.258983356891259e-42)
(5.21296374955682e-08 2.486011218411077e-08 -1.908746988210848e-26 2.010945802076187e-08 1.03091909631599e-26 4.371653987412018e-43)
(9.895637398393831e-07 9.566057421195318e-08 -1.349572688333802e-25 2.24544973967053e-07 -1.288859643133196e-25 8.144587998440564e-44)
(1.445427466606475e-08 8.769002369721224e-09 -6.756742285055865e-26 8.975008561237481e-09 -5.640517616099538e-26 6.08106855748792e-43)
(1.218950211212544e-06 3.898761475502888e-07 0 2.486547036074102e-06 0 0)
(1.67634489289803e-07 6.787767733301697e-09 9.748306326371346e-27 2.024683914145578e-07 -2.118775130065184e-26 3.02998438242014e-45)
(7.263709633775761e-09 1.353648256853524e-10 0 7.530825491859751e-08 0 0)
(1.563976792517963e-08 1.082393261738618e-08 0 1.246601283536194e-08 0 0)
(9.833728149555299e-07 -6.086759631925703e-07 1.462890537218752e-25 9.82327675440084e-07 -1.192395833996631e-25 8.952408637477639e-44)
(7.500593648401832e-07 -5.168073851716248e-07 -1.046471207066782e-24 8.818118875015581e-07 2.700155602489101e-24 8.945430323080909e-42)
(2.813144517332944e-08 1.690597157752438e-08 1.367923618826803e-25 1.720198509807744e-08 5.953134117505019e-26 1.265705758956427e-42)
(2.356361969546583e-06 -4.901816198638054e-07 0 2.093431481547698e-06 0 0)
(5.685332194360626e-06 -3.890291514156013e-07 -1.807725461726442e-24 3.006364778912796e-06 2.832515406014744e-25 5.884337502170524e-43)
(1.060885046477722e-07 3.532639498266509e-08 2.172805823198548e-25 4.175482536086256e-07 -1.089745351361685e-24 3.823583819057119e-42)
(6.265467322741358e-08 9.325608847643441e-09 0 1.459132766771631e-08 0 0)
(9.04987672289909e-05 -9.16723152842643e-05 -1.453026187785487e-23 0.0001917301732041972 -7.823959214610583e-24 8.337313137405159e-42)
(3.605269907058783e-07 1.586528341965265e-07 -1.136476553011481e-24 2.070797602707689e-07 -1.402993172218562e-24 9.586334559602894e-42)
(3.770417434711959e-06 7.56107157072472e-07 1.106341686858329e-24 1.266481276694893e-06 -4.255462790541725e-25 7.06387407029809e-43)
(3.431090851213625e-06 -1.090626601960021e-06 1.638806625508722e-24 5.072165298746975e-06 -2.949567859139799e-24 2.041004831957107e-42)
(2.6505207773031e-07 5.928689105622054e-08 -2.209292159623746e-25 2.474636981017524e-07 2.122332577256919e-26 2.166170389022364e-43)
(3.476435117555354e-08 3.331017948450532e-09 0 1.287561156780267e-09 0 0)
(5.526948414935617e-06 -1.193867808377269e-06 0 1.08572022084405e-05 0 0)
(2.3709761243218e-07 -1.119618452238152e-07 -8.319938707783196e-26 6.454078532295165e-08 5.524722552394826e-26 1.522696572520866e-43)
(4.749387675362371e-07 1.075016872985335e-07 3.246748564554251e-25 9.234784425773902e-07 1.33709524746956e-25 2.348834065586364e-43)
(3.80351371997989e-06 1.619761462422209e-06 6.810237509701664e-24 1.719818653013504e-06 5.803760321629802e-24 2.038828433037659e-41)
(1.295291074399074e-08 -1.590054560240972e-09 1.894881625715893e-26 4.732909013029042e-10 1.106277056786383e-26 1.271748000831903e-42)
(3.234615237657223e-06 2.29827826311868e-06 3.223976409589124e-24 6.137368750505634e-06 8.993881636455121e-24 1.319279198512024e-41)
(1.030343432795178e-08 -3.230711682553067e-09 -1.621940405887188e-28 3.625182860335103e-09 -5.250971451865297e-29 1.682177573685929e-47)
(1.860141907172874e-08 4.211912402185547e-09 -1.173928638384053e-26 1.369105150057044e-08 -3.966111243669193e-28 1.112663032155469e-44)
(1.189915177279843e-06 -6.024713196106646e-07 0 3.472446322427825e-07 0 0)
(1.298632548163425e-07 2.21157259866489e-09 0 8.39263758376993e-08 0 0)
(1.418497841410016e-07 -1.341468350291031e-08 3.138893541537419e-26 4.466329883901941e-08 1.224092966196096e-25 3.764035317439334e-43)
(3.311256300042587e-06 6.194144236970622e-07 5.361189276522812e-24 3.333233642294209e-07 1.104317525311528e-25 1.235274343758018e-41)
(3.214453858646493e-08 -2.187795950653326e-08 1.923003118641512e-25 3.047507680258889e-08 -1.318822273837857e-25 1.33065646886633e-42)
(4.057353844011402e-07 4.935520947768612e-07 -3.183236143814009e-24 6.210159635353096e-07 -3.478276324872202e-24 3.252714056280458e-41)
(1.804289081697164e-06 5.225443569095711e-07 -1.612312889981278e-24 1.309143677619834e-06 -1.474912987250406e-25 1.536655939611692e-42)
(1.266627747131821e-08 2.28119065998067e-09 0 2.136316741709027e-09 0 0)
(1.156327766871357e-08 9.406644733978009e-10 0 9.201572976767942e-09 0 0)
(3.950191507229306e-09 -1.381221735596849e-08 -1.254951868445239e-26 4.84495315000201e-08 4.386248687631774e-26 4.339493828589286e-44)
(1.635579847114599e-07 2.993068753953665e-08 -4.728685399142816e-26 1.005997929639959e-07 -4.221664649965748e-26 2.599559006559578e-44)
(2.942109555981176e-07 -6.811575195900255e-08 -6.089252690784961e-26 1.7818135287877e-07 -5.938835633175002e-26 4.597139033170947e-44)
(4.808031049741146e-06 2.310650271737658e-06 4.817784964159173e-24 2.443311480730941e-06 4.465085963562845e-24 8.297132709885476e-42)
(1.461616048414882e-06 -7.069459220104823e-07 4.906877726303465e-24 7.460805910089463e-07 -5.726887822046567e-24 4.441485559056026e-41)
(2.418412048399432e-08 -1.02849251459175e-08 1.114030389049683e-25 7.364338006272432e-09 4.493559114324803e-26 3.384931291624526e-42)
(5.714993672079061e-06 2.965040870606117e-06 0 7.42089373935266e-06 0 0)
(1.300256680103473e-08 -1.385272753885031e-08 -2.242259127983544e-25 2.650889993745358e-08 6.925342208177152e-26 6.460003735226763e-42)
(5.11471385911122e-07 4.973562273136167e-08 1.02406155144227e-24 1.270594269944824e-06 -4.872059857491824e-24 2.167825882315653e-41)
(1.413683836659629e-09 3.641243646879122e-09 0 1.037305623601686e-08 0 0)
(2.221334227670013e-12 -3.209042146595786e-11 0 5.16427565264701e-10 0 0)
(1.726163101345435e-08 1.637518909797806e-08 -1.098525002956886e-25 2.567658198123198e-08 -8.884353185921651e-27 1.601267085464719e-42)
(1.407141520481936e-05 -2.739486948233338e-06 -3.640872621607869e-24 1.532014908946916e-05 2.218941300673341e-23 3.230635412458968e-41)
(1.37593074556186e-06 -5.65350542524809e-07 0 2.678877986364415e-07 0 0)
(3.385610147565998e-06 4.303165300340028e-07 1.079668218056565e-24 1.941000235324876e-06 -3.928838510805057e-25 5.014431683369245e-43)
(7.373702173296692e-07 -1.853028285050962e-07 0 1.650004747565581e-06 0 0)
(7.1874193536825e-06 -2.043773306259489e-06 1.672120291182647e-25 1.055937405953188e-05 -8.728999050863708e-24 7.584132210906783e-42)
(1.274889149804892e-08 -1.374414638349863e-08 -8.121456664343982e-26 1.821549232164463e-08 1.022475707651224e-25 6.319488752670709e-43)
(8.841433429829237e-08 -1.321732626645422e-08 0 2.027563649677103e-08 0 0)
(2.993825876096423e-08 -3.431554690576377e-09 0 1.153989955239657e-09 0 0)
(2.61796030187611e-07 -3.093273156368204e-08 -2.385158986700285e-25 1.249953586448995e-07 -4.099528407425105e-25 1.81378086230872e-42)
(2.260069005055598e-06 -1.631913930585926e-07 1.708913552605884e-25 1.479602130408444e-06 -1.448515109040257e-25 2.53252836327438e-44)
(6.295514332066432e-09 6.682038334974993e-09 -3.754817858055107e-26 8.741808286683017e-09 -8.14676120407995e-27 8.356456795922706e-43)
(8.772475551088732e-06 -8.170417135633379e-07 -2.060491392776216e-24 4.095876418955605e-06 -3.262444685347795e-24 3.626210799713064e-42)
(8.764260862270667e-06 4.249194411974915e-06 0 9.005724838206103e-06 0 0)
(5.098552047222427e-08 1.702409650750081e-08 5.868014026137106e-26 1.550541661103459e-08 -4.07853965534234e-26 5.486980160943167e-43)
(5.206106594712878e-07 1.01919600301037e-07 1.860630550450874e-24 1.699364946617168e-07 1.43201190936397e-24 1.43071679619737e-41)
(1.13316745009584e-06 -2.057557591875203e-07 1.236610730087252e-25 9.483583407747694e-07 2.486234425371108e-25 9.481177252261598e-44)
(4.419402199751232e-08 7.774211772948458e-08 -9.079475704597521e-26 1.376399555805957e-07 -1.557352570311017e-25 2.048198728884384e-43)
(3.859099062530902e-08 1.266477432648738e-08 0 7.706300750851859e-09 0 0)
(4.757282261458329e-06 -6.216746627693559e-07 0 2.608118688727493e-06 0 0)
(2.822777265265586e-07 -1.754133008551734e-07 1.043042505933152e-25 1.256432067886558e-07 -7.701975077490072e-26 1.696971719833267e-43)
(5.198114383375696e-09 -3.536243506005454e-08 0 3.984427893017305e-07 0 0)
(5.256328328151483e-08 -3.178128143467573e-09 4.215578388183982e-27 1.031942115132812e-08 2.111803010942857e-26 4.754270438107535e-44)
(2.604527359784115e-06 1.596537998471703e-06 -1.746977038777136e-24 3.92326569990855e-06 -4.378015168842142e-24 4.888424437760627e-42)
(2.17899078780448e-08 7.632403042912017e-10 -3.795603482321158e-26 9.413044621921825e-09 2.110841146047648e-26 1.289754098946328e-43)
(9.686542901121697e-09 -1.981200091353066e-09 0 5.938584793905781e-10 0 0)
(0.0005176672480293187 0.0003377665137947183 -2.07661633526648e-22 0.000221128477418845 -1.322961797766941e-22 1.320241753997338e-40)
(1.978719166295662e-08 8.059833052700971e-11 0 5.615145067378702e-10 0 0)
(1.991958181735143e-08 2.475773933086067e-09 0 3.736954786955939e-10 0 0)
(5.931464652775276e-09 -5.434835807088811e-09 6.535194750295958e-28 6.012324339529609e-09 -2.022460463341901e-28 2.247502751213723e-46)
(5.218037113507989e-11 1.302428997984606e-11 0 1.181232175983572e-09 0 0)
(1.473315049071999e-06 -3.175610823746844e-07 2.724386150080736e-24 2.455431772664662e-07 -1.559678032799621e-24 1.04103206130478e-41)
(2.887185823752247e-09 2.655872292922634e-09 -1.150593473241497e-26 3.991930817045901e-09 -8.790583162080206e-27 5.172108791750727e-44)
(7.167164744581456e-06 1.788561467333527e-08 3.805240842736844e-25 4.825923735493772e-06 2.206874751953336e-25 3.328379314224414e-44)
(1.394772652929532e-08 2.114464468967736e-08 0 7.722292973122696e-08 0 0)
(1.202631727537096e-08 5.65958577398995e-09 2.484978504270444e-26 2.973442819330548e-09 -4.524715151630913e-28 5.307750680751787e-43)
(3.620463153630737e-05 -6.339113287345821e-07 -2.190804848003222e-23 4.768126344121756e-05 -2.161691798439179e-23 2.347010804095227e-41)
(4.670668540818212e-08 -2.400154237164331e-08 -3.848314307117341e-26 4.023873744549557e-08 -6.436891405392483e-26 3.756768246364395e-43)
(2.904139693171714e-07 -1.436872741691908e-07 8.49036732559622e-25 4.166381369745138e-07 -3.00415902347286e-25 2.5492351507298e-42)
(2.261281029092288e-08 3.708989448902855e-09 3.15068996103033e-25 1.181904176524723e-09 6.86821426203789e-26 5.678077222664815e-42)
(4.464363700940055e-08 2.055503672653003e-08 -2.619221201961016e-26 3.29392041646857e-08 -1.334508183152224e-26 3.245665746221104e-44)
(4.444887280463661e-08 3.071036629859192e-09 3.272854923154913e-27 6.33585305433778e-09 -1.230062092813791e-26 2.82174294712209e-44)
(1.24688081326596e-05 1.025711900963944e-05 -4.821401162074988e-25 1.321583856089239e-05 -5.875346940914011e-25 3.304348137114759e-44)
(4.677163150113017e-06 1.898626068029194e-06 2.118425270667892e-27 2.077905575982895e-06 5.001416612581691e-27 2.972210850956632e-47)
(2.731524384458339e-08 6.224222491579834e-09 0 1.979196768931921e-09 0 0)
(7.601009888169585e-08 -2.590744229043207e-08 0 2.907145775694377e-08 0 0)
(9.114092390072326e-05 -5.660001097197026e-05 -9.753728171522707e-24 7.314599757344414e-05 -1.29915326664503e-25 2.061907588318735e-42)
(4.11621958740227e-09 -7.077029055878661e-09 1.03542853990769e-25 3.645895116393079e-08 -1.468963091297347e-25 2.873103136645482e-42)
(9.156024940448759e-06 7.650654891163539e-06 -4.430365919702538e-25 1.036746108244249e-05 -9.146922336477311e-26 7.362228742401921e-44)
(4.985465928974975e-09 -7.985444250291351e-10 -8.617780832426545e-27 2.049119117726703e-10 1.129236656707749e-26 1.51205858026688e-42)
(2.987483502803201e-07 -2.655696873590796e-07 -4.050159486823753e-25 5.60705459354922e-07 1.777869056869e-24 6.798842701786237e-42)
(1.609333679808422e-05 1.306510003163384e-05 -9.729324684561205e-25 1.769482916056455e-05 -1.165895230210236e-24 7.935460962271804e-44)
(1.070227240163035e-09 -1.14897223159327e-09 -1.122594919706651e-26 1.298341477596254e-09 9.173718552643335e-27 2.466174631445953e-43)
(8.64908145103982e-12 1.983884324180396e-11 -1.041586551886038e-26 4.411138700709564e-10 -5.825464611807435e-26 1.558338612750646e-41)
(1.158821575653057e-05 -2.573934644867215e-07 0 1.978743843012668e-05 0 0)
(5.565091910075814e-06 3.497147722702435e-06 0 5.783694108341124e-06 0 0)
(1.051718978573035e-08 4.209557303430644e-10 0 6.626519660071837e-10 0 0)
(1.478160318590938e-07 2.968761142196907e-07 1.625956618528608e-24 6.024809202434533e-07 3.076982142484012e-24 2.369062764946549e-41)
(1.802021210028926e-08 -1.838927309039118e-10 0 1.507144332024615e-10 0 0)
(6.394218265981522e-09 8.402794809958536e-08 8.529719191555914e-26 1.542738088278206e-06 1.067755227607813e-24 1.146233616153616e-42)
(0.0001285772111800851 -2.449999132522231e-05 -9.371827524776067e-26 1.459870120084391e-05 -1.132125491648088e-23 1.383932722812145e-41)
(3.975195297378775e-07 6.261873921470373e-08 1.21820291505658e-25 1.382841737394055e-06 2.636037000416684e-25 8.133455174668784e-44)
(1.9114131943887e-09 8.274445538469788e-10 -1.727183991971449e-27 7.248962722062615e-10 -7.208768584620596e-28 5.863946078953988e-45)
(9.77292061010715e-06 2.385821535208499e-06 -7.496448046955194e-25 5.710659086286332e-06 -9.743956135148819e-25 1.915906048627742e-43)
(6.174906597156138e-06 5.071603736938636e-06 -1.863848467844702e-25 8.41257964741795e-06 -1.568636308404481e-26 2.662953912140519e-44)
(8.005164706670342e-07 4.352361887630107e-07 -2.39870575145178e-25 1.501356870998571e-06 -2.061841537850042e-25 7.676272654578623e-44)
(0.0001676496973891748 -0.0001398887114051756 0 0.0001462942176289408 0 0)
(0.0001251694389343833 3.041529047567715e-05 0 0.0001045124788649531 0 0)
(1.220980031635399e-05 -5.029513894805326e-06 -4.60045443424251e-24 1.548910965136138e-05 1.462189266823187e-23 1.381571771768101e-41)
(3.874965948114095e-08 4.770779965523886e-09 0 1.350229244438759e-09 0 0)
(1.160808649203204e-08 2.067513024499312e-09 0 1.030814623980206e-09 0 0)
(5.486591514447525e-08 -2.007159100904377e-08 -1.87363562962677e-26 3.571774642534536e-08 3.828532710387223e-26 4.45341806589782e-44)
(3.339647502986764e-08 2.167649072390421e-10 0 1.587923868460802e-09 0 0)
(1.915031937893552e-05 -4.327428821421231e-06 -4.68921727397064e-24 3.128378436155835e-05 -2.788269806249636e-23 2.879987876275484e-41)
(6.892052706319873e-09 3.730532481885374e-09 0 1.282744406503364e-08 0 0)
(3.226821793100854e-07 1.424359292899122e-07 0 2.322857751061079e-07 0 0)
(1.469774080220532e-08 -1.135015554806773e-08 0 1.329361664145897e-08 0 0)
(1.355359380283971e-09 1.471540427705476e-09 6.013642074458262e-26 1.68729005718465e-09 6.89303296816721e-26 3.059244295887419e-42)
(3.307792536288989e-05 2.332311006584924e-05 -6.064053960509783e-25 2.233587778672907e-05 -2.401669218061551e-24 7.123813593314361e-43)
(9.316868163633529e-07 -3.740882977554261e-07 0 1.893907674507811e-07 0 0)
(8.076150859182007e-09 1.363138264591501e-09 -3.266068540962689e-26 7.341712740136994e-10 6.312482056112753e-27 1.193345395674493e-42)
(1.752431089130368e-09 -3.876962499302361e-09 0 9.811854494681967e-09 0 0)
(2.719940273010479e-09 1.18603492044872e-09 0 7.487997742037188e-10 0 0)
(1.116630422792753e-06 6.815033329332643e-09 -4.877028447307072e-26 2.347176368761267e-06 3.504888010075885e-25 5.468660220152091e-44)
(7.952902614238866e-09 -6.72260918482305e-10 0 3.730329023529169e-10 0 0)
(4.180037139978054e-06 3.044530249921018e-06 -1.359644719541732e-24 5.743761599489965e-06 -2.23383314887423e-24 8.811767291071522e-43)
(4.654677738802349e-07 6.94851464370233e-08 6.833245677342567e-26 3.754551731800741e-07 -6.45937086890514e-26 3.497803141206069e-44)
(9.964571503484621e-07 -6.981156698620747e-07 -6.497987278893887e-25 2.118279040766277e-06 4.767063390660367e-24 1.185971643025258e-41)
(4.026543609647604e-08 -1.22312110682754e-08 -1.759891546836277e-25 1.119089551072667e-08 -1.72104968337213e-25 7.669522703419447e-42)
(2.833688839132265e-11 6.114004615087598e-11 0 7.920046779053089e-10 0 0)
(1.100641369844446e-05 -6.559919755233512e-06 -2.433647148126602e-24 2.601253202895101e-05 2.87306823720101e-24 7.448187666628183e-43)
(1.166745589031848e-10 1.092431353710843e-11 0 8.07441399440674e-12 0 0)
(4.099229622411826e-08 3.933558922163127e-09 0 7.58225087633301e-09 0 0)
(3.724543488292653e-06 -1.298913548386516e-06 -1.116844221538812e-24 4.007478519202877e-06 5.51133822295216e-25 3.423535493646101e-43)
(1.267534659454839e-07 -1.845043637663246e-08 3.413596460493306e-26 1.155422828695706e-07 -3.217232342446823e-26 2.090029732266148e-44)
(1.568058065393174e-06 -4.90417473797411e-07 2.394453579934235e-24 1.859967952437275e-06 -1.664721588972653e-24 4.182533288533023e-42)
(0.0004988516179991569 -3.039184156664911e-05 0 1.759260073382063e-05 0 0)
(6.59738162989143e-07 -2.081160119585257e-07 0 7.430873489354742e-07 0 0)
(1.458750165106437e-08 1.907923269026113e-09 -3.107301451931149e-28 1.852256118424058e-09 1.195317160930068e-27 5.329388630898218e-45)
(1.380660918925969e-09 4.242047237784652e-09 6.624143041766589e-26 1.601687408511786e-08 2.390406931279484e-25 8.549314164902068e-42)
(3.738929010843606e-08 -6.620752649572591e-09 0 6.031020213227418e-09 0 0)
(2.102395882253028e-05 -1.444907261091699e-05 1.079734857582276e-23 3.538462507669121e-05 -1.531361636934234e-23 8.031009215845443e-42)
(1.96986127409815e-08 1.256439630288597e-09 -1.832711838544655e-27 4.187155409295627e-09 2.029967092959866e-27 5.357861760352721e-45)
(3.599964999434491e-07 -1.865749749141443e-09 -6.290266344817444e-26 2.945568638081148e-07 9.418975795028129e-26 4.711444182107792e-44)
(1.981747668189371e-07 -1.607169015632043e-07 0 8.790632943053738e-07 0 0)
(2.821302302891127e-09 -8.101532344290119e-09 -5.974409846002823e-26 2.606838853493661e-08 1.71077457700903e-25 2.479991479912955e-42)
(1.094502755094595e-08 -4.026947130354036e-09 -6.614336318998685e-28 1.719467972504696e-09 3.941587066331527e-29 2.16300451505166e-46)
(1.156910582889026e-07 -4.608387269358638e-08 1.090345235908284e-25 9.710409802517184e-08 3.216246005364954e-26 2.227970463816701e-43)
(6.393848783758926e-08 1.047101928323968e-07 0 2.314429430811445e-07 0 0)
(7.912934209874933e-06 8.226872449668132e-06 0 1.602951910929448e-05 0 0)
(1.266884375183963e-09 6.081645714480811e-09 -1.071856672081814e-27 2.989902771916098e-08 -5.555003823954202e-27 2.121583207128254e-45)
(3.393562424403029e-06 1.325280791858452e-06 -2.297071029369188e-24 1.412570101266483e-05 -9.149876573520494e-24 6.562979785515845e-42)
(0.0002944073967842376 -0.0002537978839551539 -1.612507866140118e-22 0.0003814283198018131 1.149727889018799e-22 9.194864802288083e-41)
(9.988522926551724e-07 9.207732968039353e-07 0 9.353535417720065e-07 0 0)
(6.667283616534903e-06 5.104044149269226e-06 5.316175213378085e-25 7.23501819452927e-06 6.208056685137636e-25 5.760184322920082e-44)
(9.038952031303893e-09 2.199080813281018e-09 0 8.718093096396484e-10 0 0)
(6.569900762087855e-06 -5.3382538712397e-06 0 1.051932769427323e-05 0 0)
(1.562362172446985e-05 8.645580648919404e-06 2.806396972309641e-23 4.915433228787347e-06 1.618003434241846e-23 5.363725802078099e-41)
(3.456339362917227e-05 -1.534395882449302e-05 2.766341279705484e-24 3.650554880037238e-05 2.091501176030488e-23 1.678335963025346e-41)
(8.015793973026319e-09 6.004100367926202e-10 2.278258641559651e-26 1.095068576290915e-10 -2.671134503667021e-27 8.88791573463506e-43)
(2.390055179768424e-06 -3.85584120072577e-06 -3.121382044357242e-25 1.53301399622511e-05 1.236116723976366e-24 2.970438475733065e-42)
(1.431628793291395e-08 -4.8175399455265e-10 -1.836648157081875e-26 1.098359407115315e-09 -2.319022765429234e-26 6.17026836198638e-43)
(3.660755261813975e-06 9.347228797085272e-07 5.218305167675971e-24 1.20469985046643e-05 3.531491293746395e-23 1.052739363173954e-40)
(2.421654800688344e-06 1.842690279252324e-07 0 1.69384208312251e-07 0 0)
(3.45934830625616e-06 -4.138374647296578e-06 0 1.30520312290643e-05 0 0)
(3.837189621602732e-06 5.210144334829095e-07 1.180346913257366e-25 1.505616604269318e-06 -7.037243495074828e-25 3.686203788058843e-43)
(4.28648839490009e-06 -6.608997727090143e-07 -2.965429751306424e-25 1.222502123733608e-05 -2.347344161270007e-24 2.246626768914306e-42)
(2.629213221139182e-06 -2.301588751807415e-07 4.604379381872671e-24 2.371702896367123e-07 -1.446181544029901e-24 1.309711758899302e-41)
(2.829355350009166e-08 1.597104435670498e-08 6.781852293049859e-26 2.179654566944996e-08 7.258951131187776e-27 3.571653305840841e-43)
(2.282865649849697e-07 1.510503198241461e-07 -6.508347362102838e-26 1.083733746375082e-07 -2.693307724640745e-26 7.962762143898398e-44)
(1.181373399106178e-07 -2.731468903630074e-07 -1.857290815291761e-26 7.755476031166386e-07 8.01987398507212e-26 1.712982795624806e-44)
(7.191517842342066e-08 -2.753666164707902e-08 0 1.217758506368499e-08 0 0)
(1.217803635711334e-11 2.876512222860228e-11 0 6.882065460588928e-11 0 0)
(0.0001093670535778912 8.902596822962794e-05 -5.596853948622817e-23 0.0001081569026550287 -8.343624358208734e-24 6.778991587696592e-41)
(1.360270484873638e-05 -1.383158250560187e-05 -1.802792157973591e-25 2.758774122898717e-05 -1.767429692155802e-24 3.042504667739052e-43)
(3.15665229155826e-06 9.300290441756199e-07 9.310000793876172e-26 3.150634220766749e-07 4.964024807717008e-26 2.783299456528906e-44)
(3.187450303698824e-13 -5.466986238711335e-12 0 3.292463194172045e-10 0 0)
(1.000030761089121e-06 2.808508926377797e-07 0 8.664012842434384e-08 0 0)
(1.071846597588966e-06 4.669642205280388e-07 0 2.177895863197829e-07 0 0)
(2.528743289209601e-06 5.044782778235082e-07 7.436926108498519e-27 1.225311482387739e-07 -3.50759813111273e-28 1.137105936867901e-45)
(1.718195260069777e-06 1.599612613756296e-07 -1.038379597511381e-24 7.881636647105207e-07 7.613304990784667e-26 6.775915845975519e-43)
(4.673754080641856e-06 2.646869772268776e-06 3.097518638097679e-26 4.090383030853201e-06 6.916651131581896e-26 1.359394708829799e-45)
(4.247903913401352e-06 -1.015733750248647e-06 1.043720067768184e-25 3.033391566447125e-07 -4.836059528158114e-26 2.869069995150331e-44)
(1.010377634225179e-06 -6.734193643675307e-07 1.50332071450242e-25 8.03379188564905e-07 1.487052861336094e-27 1.029927025403087e-43)
(5.294689572554745e-06 -4.44380612839388e-06 -2.273497159729544e-25 1.214521027152642e-05 3.776154429708956e-25 2.08448998319266e-44)
(1.105380655952448e-06 -3.212775995450889e-07 -3.205180292854277e-26 1.133570967437261e-07 2.115412449912951e-26 2.493801357565873e-44)
(3.995104548071282e-06 -1.722253844121946e-06 2.915775430910076e-26 3.313648578369668e-06 1.435269499544858e-25 1.657005020325669e-44)
(4.724555309421063e-06 -1.953189584041892e-06 2.405420306643442e-25 5.286044834402592e-06 -3.709032129997208e-25 3.273720384572565e-44)
(6.089913628382071e-06 -8.305745601653453e-07 0 1.116167885051906e-05 0 0)
(3.004421282259973e-06 -4.681473171869828e-07 0 9.413000977806182e-08 0 0)
(2.841880815118714e-07 -4.954788445157843e-07 0 9.988437308399616e-07 0 0)
(3.107601379781499e-06 1.48081032106534e-06 -1.959409085393231e-25 1.264831634035569e-06 -3.979651780401061e-26 2.832736353251257e-44)
(1.971434182568288e-06 -2.246653324892468e-06 0 9.037510604739949e-06 0 0)
(1.648958867339623e-06 -8.289802371514582e-07 -1.52533047380088e-26 1.03653751402848e-06 1.156450011123352e-25 6.069366239465273e-44)
(3.074887135579019e-06 1.362018322527067e-06 0 4.989966789089614e-06 0 0)
(8.355083161548649e-06 6.845656144359663e-06 -3.222081724174743e-25 1.153169224918881e-05 6.079316050775326e-25 2.065433215827052e-43)
(1.135394626031595e-05 -4.102268302896145e-06 -9.548123946400577e-25 5.155308018575666e-06 -4.876922170646147e-24 7.525142181091805e-42)
(5.629959612285518e-06 1.799496643854759e-06 1.431835663434195e-25 1.849705167997619e-06 -2.666991065052179e-26 1.15634929178325e-44)
(5.544964525316942e-06 3.919309986178017e-06 0 3.812003051584996e-06 0 0)
(5.995329305230612e-06 -7.578609785563462e-07 -5.787038141171306e-25 4.549535091875716e-06 2.42494617997917e-25 7.65916491996317e-44)
(1.258818878691059e-06 2.280949667123489e-07 7.350977320809513e-26 1.58816290719254e-06 2.878045934422405e-25 7.734848413687704e-44)
(5.228100352638876e-08 2.218362033651333e-08 -1.024520323765704e-25 3.266577359973231e-08 -2.126469017590094e-26 2.880328488046338e-43)