/*--------------------------------*- C++ -*----------------------------------*\
| =========                 |                                                 |
| \\      /  F ield         | OpenFOAM: The Open Source CFD Toolbox           |
|  \\    /   O peration     | Version:  2412                                  |
|   \\  /    A nd           | Website:  www.openfoam.com                      |
|    \\/     M anipulation  |                                                 |
\*---------------------------------------------------------------------------*/
FoamFile
{
    version     2.0;
    format      ascii;
    arch        "LSB;label=32;scalar=64";
    class       volVectorField;
    location    "0.5";
    object      cellDisplacement;
}
// * * * * * * * * * * * * * * * * * * * * * * * * * * * * * * * * * * * * * //

dimensions      [0 1 0 0 0 0 0];

internalField   nonuniform List<vector> 
256
(
(0.00186613 -0.00232932 0)
(0.00360363 -0.00421574 0)
(0.00540659 -0.00560785 0)
(0.00739024 -0.00646236 0)
(0.00949922 -0.00665552 0)
(0.0115981 -0.00611031 0)
(0.0135735 -0.00484528 0)
(0.0150929 -0.00290901 0)
(0.00825025 -0.0100474 0)
(0.0132685 -0.0148802 0)
(0.0185221 -0.0181987 0)
(0.0241367 -0.0198615 0)
(0.0300284 -0.0197061 0)
(0.0359132 -0.0176009 0)
(0.0411931 -0.0135435 0)
(0.0451156 -0.00780507 0)
(0.0170104 -0.0203655 0)
(0.0249478 -0.0271121 0)
(0.0332735 -0.0314033 0)
(0.0421923 -0.0331406 0)
(0.0514251 -0.0320401 0)
(0.0603733 -0.0279466 0)
(0.0682397 -0.0209941 0)
(0.0738917 -0.0116655 0)
(0.0279481 -0.0329115 0)
(0.038506 -0.0406336 0)
(0.0496343 -0.0450868 0)
(0.0613951 -0.046144 0)
(0.0734072 -0.0435544 0)
(0.0849287 -0.0372013 0)
(0.0947487 -0.0272993 0)
(0.101573 -0.0145881 0)
(0.0409431 -0.0473654 0)
(0.0538054 -0.0551373 0)
(0.0673569 -0.0589507 0)
(0.0816228 -0.0587483 0)
(0.0959898 -0.0542363 0)
(0.109414 -0.045358 0)
(0.120623 -0.0325038 0)
(0.128161 -0.0166255 0)
(0.0557968 -0.0633146 0)
(0.0707046 -0.070321 0)
(0.0864306 -0.0728349 0)
(0.102741 -0.070796 0)
(0.118911 -0.0639788 0)
(0.133814 -0.0524199 0)
(0.145916 -0.036635 0)
(0.15379 -0.0177848 0)
(0.0724165 -0.0803946 0)
(0.089112 -0.0858753 0)
(0.106627 -0.0864555 0)
(0.124647 -0.0821381 0)
(0.142228 -0.07272 0)
(0.158027 -0.0583435 0)
(0.170581 -0.0396886 0)
(0.178468 -0.0180554 0)
(0.0906717 -0.0981808 0)
(0.10891 -0.101478 0)
(0.127981 -0.0996069 0)
(0.147264 -0.0925938 0)
(0.165734 -0.0803288 0)
(0.182068 -0.0630615 0)
(0.194691 -0.0416069 0)
(0.202343 -0.0173767 0)
(0.11054 -0.116279 0)
(0.130115 -0.116801 0)
(0.15034 -0.111992 0)
(0.170526 -0.101949 0)
(0.189533 -0.0866417 0)
(0.205899 -0.0664551 0)
(0.218274 -0.0423069 0)
(0.225413 -0.0156641 0)
(0.132038 -0.134261 0)
(0.152667 -0.131441 0)
(0.173791 -0.123289 0)
(0.194457 -0.109922 0)
(0.213495 -0.0914529 0)
(0.229579 -0.0683466 0)
(0.241333 -0.0416243 0)
(0.24768 -0.0127745 0)
(0.155256 -0.1516 0)
(0.176734 -0.144957 0)
(0.198341 -0.133068 0)
(0.219069 -0.116164 0)
(0.237742 -0.0944176 0)
(0.253039 -0.0684626 0)
(0.263774 -0.0393489 0)
(0.269111 -0.00850152 0)
(0.180375 -0.167567 0)
(0.202414 -0.156679 0)
(0.224133 -0.140705 0)
(0.244425 -0.1201 0)
(0.262128 -0.0950789 0)
(0.276148 -0.0664226 0)
(0.285519 -0.0351312 0)
(0.28964 -0.00255164 0)
(0.207686 -0.181235 0)
(0.229926 -0.165602 0)
(0.251179 -0.145355 0)
(0.270353 -0.120888 0)
(0.28651 -0.0927571 0)
(0.298761 -0.0616171 0)
(0.306427 -0.0285105 0)
(0.309096 0.00551696 0)
(0.237508 -0.191199 0)
(0.259336 -0.170441 0)
(0.279349 -0.145679 0)
(0.296641 -0.117541 0)
(0.310534 -0.0864898 0)
(0.320453 -0.0533229 0)
(0.32599 -0.0188081 0)
(0.32695 0.0161187 0)
(0.269685 -0.194958 0)
(0.290067 -0.168754 0)
(0.307674 -0.139764 0)
(0.322071 -0.108465 0)
(0.332923 -0.0753105 0)
(0.339974 -0.0408423 0)
(0.343055 -0.00566513 0)
(0.342102 0.0296157 0)
(0.300828 -0.187707 0)
(0.317778 -0.157317 0)
(0.331667 -0.125412 0)
(0.342363 -0.0922991 0)
(0.349761 -0.0582973 0)
(0.353791 -0.023734 0)
(0.354414 0.0110579 0)
(0.351623 0.0457433 0)
(-0.000543551 -0.0158442 0)
(0.00188151 -0.0156677 0)
(0.00389646 -0.0144257 0)
(0.00513651 -0.0123437 0)
(0.0054801 -0.00987682 0)
(0.00494915 -0.00728077 0)
(0.00368884 -0.00472429 0)
(0.00192596 -0.00228997 0)
(-0.001066 -0.0469821 0)
(0.00569751 -0.0462923 0)
(0.0113638 -0.0429737 0)
(0.0151178 -0.0376424 0)
(0.0165442 -0.0310857 0)
(0.0156666 -0.0240424 0)
(0.012793 -0.017008 0)
(0.0083022 -0.0100974 0)
(-0.00103687 -0.0763958 0)
(0.00951199 -0.0752207 0)
(0.0184193 -0.0702687 0)
(0.0245312 -0.0623406 0)
(0.0273124 -0.0526181 0)
(0.0267234 -0.0420636 0)
(0.0230802 -0.0313474 0)
(0.0168777 -0.0207478 0)
(-0.000455685 -0.104379 0)
(0.0133986 -0.102604 0)
(0.0251768 -0.0962972 0)
(0.0335831 -0.0864726 0)
(0.0379185 -0.0743401 0)
(0.0381005 -0.0610587 0)
(0.0344498 -0.0474767 0)
(0.0273952 -0.0338557 0)
(0.000647866 -0.13101 0)
(0.0174621 -0.128678 0)
(0.031857 -0.121321 0)
(0.0424287 -0.109991 0)
(0.048467 -0.0960711 0)
(0.0498197 -0.0807659 0)
(0.0467375 -0.0649705 0)
(0.0396867 -0.0490766 0)
(0.00234461 -0.156531 0)
(0.0217836 -0.15355 0)
(0.0385473 -0.145307 0)
(0.0512551 -0.132927 0)
(0.059105 -0.117715 0)
(0.0619238 -0.100937 0)
(0.0599521 -0.0835786 0)
(0.0535648 -0.0659855 0)
(0.0046487 -0.180894 0)
(0.0264784 -0.177355 0)
(0.045465 -0.16844 0)
(0.0602053 -0.155244 0)
(0.0699567 -0.139141 0)
(0.0745084 -0.121379 0)
(0.0740172 -0.102915 0)
(0.0689335 -0.0841972 0)
(0.0076936 -0.204283 0)
(0.031666 -0.200161 0)
(0.0526918 -0.190671 0)
(0.0694607 -0.176943 0)
(0.0811863 -0.160259 0)
(0.0876467 -0.141847 0)
(0.0890172 -0.122727 0)
(0.0857096 -0.103297 0)
(0.0115276 -0.226697 0)
(0.0374916 -0.222031 0)
(0.0604683 -0.212102 0)
(0.0791839 -0.197981 0)
(0.0929415 -0.180937 0)
(0.101512 -0.162192 0)
(0.105004 -0.142692 0)
(0.103904 -0.122893 0)
(0.0163761 -0.248229 0)
(0.0441306 -0.242987 0)
(0.0689062 -0.232664 0)
(0.0895742 -0.218296 0)
(0.105433 -0.201089 0)
(0.116253 -0.18217 0)
(0.122134 -0.162523 0)
(0.123562 -0.142563 0)
(0.0223735 -0.268809 0)
(0.0517779 -0.262986 0)
(0.0782865 -0.252339 0)
(0.100853 -0.237819 0)
(0.118873 -0.220519 0)
(0.132092 -0.201555 0)
(0.140571 -0.181836 0)
(0.14482 -0.161797 0)
(0.0298727 -0.288405 0)
(0.0607304 -0.281983 0)
(0.0888481 -0.271007 0)
(0.113304 -0.256361 0)
(0.133539 -0.239031 0)
(0.149291 -0.220004 0)
(0.16057 -0.200168 0)
(0.167902 -0.179981 0)
(0.0391551 -0.306768 0)
(0.0712778 -0.299675 0)
(0.100861 -0.288359 0)
(0.127169 -0.273586 0)
(0.149688 -0.256203 0)
(0.16813 -0.23705 0)
(0.182484 -0.21692 0)
(0.19316 -0.196306 0)
(0.0506192 -0.323374 0)
(0.0836558 -0.315503 0)
(0.114543 -0.303789 0)
(0.142669 -0.288808 0)
(0.167549 -0.27124 0)
(0.188908 -0.251764 0)
(0.206613 -0.23109 0)
(0.220955 -0.209592 0)
(0.0644004 -0.337203 0)
(0.0980301 -0.328512 0)
(0.130001 -0.316302 0)
(0.159815 -0.300966 0)
(0.187098 -0.28292 0)
(0.211516 -0.262698 0)
(0.232896 -0.240788 0)
(0.251302 -0.217556 0)
(0.0799882 -0.345447 0)
(0.113463 -0.335943 0)
(0.145844 -0.323204 0)
(0.176822 -0.307352 0)
(0.206096 -0.288541 0)
(0.233386 -0.266951 0)
(0.258428 -0.242789 0)
(0.280981 -0.21629 0)
)
;

boundaryField
{
    walls
    {
        type            cellMotion;
        value           uniform (0 0 0);
    }
    cylinder
    {
        type            cellMotion;
        value           nonuniform List<vector> 
16
(
(0.300828 -0.187707 0)
(0.317778 -0.157317 0)
(0.331667 -0.125412 0)
(0.342363 -0.0922991 0)
(0.349761 -0.0582973 0)
(0.353791 -0.023734 0)
(0.354414 0.0110579 0)
(0.351623 0.0457433 0)
(0.0799882 -0.345447 0)
(0.113463 -0.335943 0)
(0.145844 -0.323204 0)
(0.176822 -0.307352 0)
(0.206096 -0.288541 0)
(0.233386 -0.266951 0)
(0.258428 -0.242789 0)
(0.280981 -0.21629 0)
)
;
    }
    outlet
    {
        type            cellMotion;
        value           nonuniform List<vector> 0();
    }
    inlet
    {
        type            cellMotion;
        value           uniform (0 0 0);
    }
    frontAndBack
    {
        type            empty;
    }
    procBoundary0to1
    {
        type            processor;
        value           nonuniform List<vector> 
16
(
(0.0158299 -0.000541539 0)
(0.0468922 -0.00106255 0)
(0.0762943 -0.00101838 0)
(0.104227 -0.000433868 0)
(0.130874 0.000692955 0)
(0.156364 0.00239388 0)
(0.180758 0.0047261 0)
(0.204134 0.0077683 0)
(0.226595 0.0116377 0)
(0.248115 0.0164599 0)
(0.268737 0.0224787 0)
(0.288334 0.0299218 0)
(0.306721 0.0391804 0)
(0.323324 0.0505791 0)
(0.337183 0.0643651 0)
(0.345447 0.0799882 0)
)
;
    }
    procBoundary0to2
    {
        type            processor;
        value           nonuniform List<vector> 
16
(
(-0.00290782 -0.0151027 0)
(-0.00780442 -0.045146 0)
(-0.0116692 -0.0739402 0)
(-0.0145994 -0.101632 0)
(-0.0166452 -0.128232 0)
(-0.017815 -0.153857 0)
(-0.0181 -0.178532 0)
(-0.0174408 -0.202386 0)
(-0.0157387 -0.225448 0)
(-0.0128689 -0.24769 0)
(-0.00859081 -0.269115 0)
(-0.00264271 -0.289629 0)
(0.00547913 -0.309103 0)
(0.016116 -0.326957 0)
(0.0296312 -0.342116 0)
(0.0457433 -0.351623 0)
)
;
    }
}


// ************************************************************************* //
