/*--------------------------------*- C++ -*----------------------------------*\
| =========                 |                                                 |
| \\      /  F ield         | OpenFOAM: The Open Source CFD Toolbox           |
|  \\    /   O peration     | Version:  2412                                  |
|   \\  /    A nd           | Website:  www.openfoam.com                      |
|    \\/     M anipulation  |                                                 |
\*---------------------------------------------------------------------------*/
FoamFile
{
    version     2.0;
    format      ascii;
    arch        "LSB;label=32;scalar=64";
    class       surfaceScalarField;
    location    "0.5";
    object      meshPhi;
}
// * * * * * * * * * * * * * * * * * * * * * * * * * * * * * * * * * * * * * //

dimensions      [0 3 -1 0 0 0 0];

internalField   nonuniform List<scalar> 
480
(
0.0016572
-0.00509712
-0.00150866
0.00203299
-0.00627027
0.00241448
-0.00761363
0.00264251
-0.00849299
0.00264465
-0.00853727
0.00264465
-0.00785423
0.0027586
-0.00669525
-0.00504046
0.00534254
-0.0107785
-0.00493565
0.00638673
-0.012861
0.00734717
-0.0149512
0.00795375
-0.0160505
0.0080307
-0.0158719
0.00804346
-0.0145125
0.00831419
-0.0122162
-0.00905206
0.00969106
-0.0166483
-0.00914405
0.0112272
-0.0192799
0.0124955
-0.0217187
0.0133134
-0.0227191
0.0135013
-0.0221007
0.0135395
-0.0199743
0.0138383
-0.016596
-0.0121331
0.0145925
-0.022258
-0.0140136
0.0164772
-0.0252229
0.0178606
-0.0277054
0.018735
-0.0282956
0.0189971
-0.0270834
0.0190364
-0.0242221
0.0192728
-0.0199173
-0.0143936
0.0200326
-0.027521
-0.019554
0.0221138
-0.0304777
0.0234785
-0.0327555
0.0242898
-0.0328833
0.0245326
-0.0310324
0.0244989
-0.0274026
0.024646
-0.0222984
-0.0159862
0.0260251
-0.0320557
-0.0257769
0.0281329
-0.0348278
0.0293685
-0.0367187
0.0299951
-0.036263
0.0300949
-0.0337572
0.0298941
-0.0294758
0.0298888
-0.0237328
-0.0168627
0.0325673
-0.0356978
-0.0326917
0.0345025
-0.0380355
0.0355137
-0.0394071
0.0358519
-0.0384421
0.0356802
-0.0353912
0.0352147
-0.0305643
0.034915
-0.0243293
-0.0170533
0.039756
-0.0383658
-0.0404487
0.0412879
-0.040112
0.0419234
-0.0408583
0.0418355
-0.0393431
0.0412777
-0.0358032
0.0405077
-0.0306405
0.0399045
-0.0241776
-0.0166952
0.0477296
-0.0398744
-0.0491534
0.048564
-0.0409542
0.0485981
-0.0409941
0.0479374
-0.0389681
0.0469193
-0.0350469
0.0458315
-0.0296859
0.0450153
-0.0231992
-0.0158031
0.0564027
-0.0398047
-0.0586889
0.056261
-0.0402245
0.0555196
-0.0396378
0.0541658
-0.0372489
0.0526239
-0.0331225
0.0511914
-0.0277414
0.0501366
-0.0214591
-0.0144072
0.0655468
-0.0380144
-0.0687294
0.0641912
-0.0378326
0.0624817
-0.0365337
0.0604089
-0.0338774
0.0583034
-0.0298445
0.0564808
-0.0247552
0.0551346
-0.018985
-0.0126416
0.0751379
-0.0342965
-0.0792875
0.0723724
-0.0335945
0.0694998
-0.03166
0.0666167
-0.0288179
0.0638722
-0.0250929
0.0616076
-0.0206428
0.0599962
-0.01578
-0.0105035
0.0851573
-0.0282134
-0.0903363
0.0809518
-0.0273109
0.0767323
-0.0251203
0.0728038
-0.0223374
0.069321
-0.0190786
0.0665928
-0.0154813
0.0647455
-0.0117149
-0.00763678
0.0952203
-0.0197618
-0.101534
0.0895441
-0.0188181
0.0839463
-0.0167939
0.0788718
-0.0145082
0.0745809
-0.0120264
0.0713495
-0.00943936
0.069257
-0.00677508
-0.00397388
0.10438
-0.00886199
-0.112102
0.0970013
-0.0080194
0.0900945
-0.00679416
0.0840037
-0.00551722
0.07902
-0.00419882
0.0753534
-0.00286014
0.0730752
-0.00149954
-0.000117195
0.104031
-0.113474
0.0953121
0.0876703
0.0812992
0.0763559
0.0729412
0.0710931
0.00390996
-0.00223764
0.00417023
0.000900787
0.00399382
0.00344211
0.00355918
0.00488379
0.00304694
0.00534376
0.00247006
0.00505836
0.00183394
0.00415513
0.003129
0.0113757
-0.00414617
0.0119631
0.00131643
0.0115778
0.0058358
0.0105342
0.00858422
0.00921654
0.00968569
0.00766385
0.00945605
0.00586649
0.00804906
0.0063104
0.0180502
-0.00561217
0.0187935
0.00145887
0.0184219
0.00740973
0.0171689
0.0112431
0.0154181
0.0129866
0.0132331
0.0129935
0.010528
0.0114163
0.00930598
0.0239103
-0.00662282
0.0248444
0.00155917
0.0246146
0.00846015
0.0234066
0.0130651
0.0215061
0.0153596
0.0189784
0.0156642
0.0156716
0.0141546
0.0119558
0.0292961
-0.00719078
0.0303528
0.00166458
0.0303117
0.0091038
0.029293
0.0142054
0.0274499
0.0169199
0.0248295
0.0175687
0.021264
0.0163634
0.0143664
0.0344987
-0.00737536
0.0354878
0.00175029
0.0356358
0.00944142
0.0348846
0.0148032
0.0332643
0.0178351
0.0307969
0.0188598
0.0272912
0.0180653
0.0164137
0.0394584
-0.00708928
0.0403501
0.00190254
0.0406906
0.00952693
0.0402628
0.0149821
0.0390058
0.0182471
0.0368749
0.0196224
0.0337381
0.0193204
0.018204
0.0441433
-0.00653469
0.0450133
0.00207779
0.0455742
0.00943343
0.0455276
0.0148317
0.0447421
0.0182725
0.0431683
0.0200304
0.0407649
0.0202757
0.0197114
0.0486279
-0.00575289
0.0495472
0.0023179
0.0503919
0.00920735
0.050776
0.0144062
0.0506018
0.0179604
0.0498618
0.0200864
0.0485006
0.0208313
0.0208231
0.0529486
-0.00485485
0.0539079
0.00243975
0.0550735
0.00862611
0.0559777
0.0134868
0.0565995
0.0171485
0.0569449
0.0195712
0.0568467
0.0207107
0.0211747
0.0571191
-0.00389205
0.0580511
0.00245714
0.0594719
0.00789949
0.0609913
0.0123838
0.0626035
0.0159558
0.0642432
0.0183667
0.0655845
0.0196164
0.0203983
0.0612753
-0.00259291
0.0622857
0.00268724
0.0639471
0.00731389
0.0661197
0.0112824
0.0687623
0.0143836
0.0717249
0.0164412
0.0746855
0.0177225
0.0187561
0.0655226
-0.00100871
0.0668071
0.0030831
0.0689159
0.00669953
0.0718543
0.00977981
0.0755102
0.0121449
0.0797542
0.0138442
0.0843047
0.0151439
0.0162952
0.0697359
0.000450093
0.0714078
0.00316964
0.0741705
0.0055982
0.0780009
0.00767097
0.0827906
0.00929917
0.088368
0.0105676
0.0943426
0.0116619
0.0127375
0.0734003
0.00170027
0.0754924
0.00300338
0.0789345
0.0041948
0.0836434
0.00524852
0.0895237
0.00614884
0.0963576
0.00688794
0.103787
0.00755734
0.00822779
0.0722135
0.0749417
0.0790154
0.08429
0.0906013
0.0977234
0.105402
)
;

boundaryField
{
    walls
    {
        type            calculated;
        value           uniform 0;
    }
    cylinder
    {
        type            calculated;
        value           nonuniform List<scalar> 
16
(
1.90047e-11
-3.75398e-11
-2.42425e-11
3.34647e-11
-1.1882e-11
6.53197e-12
1.96897e-11
-1.60353e-11
1.60363e-11
-1.96897e-11
-6.53098e-12
1.18837e-11
-3.34639e-11
2.42432e-11
3.75408e-11
-1.90042e-11
)
;
    }
    outlet
    {
        type            calculated;
        value           nonuniform List<scalar> 0();
    }
    inlet
    {
        type            calculated;
        value           uniform 0;
    }
    frontAndBack
    {
        type            empty;
    }
    procBoundary0to1
    {
        type            processor;
        value           nonuniform List<scalar> 
16
(
0.00295826
0.00883301
0.0144575
0.0197222
0.0248689
0.0300273
0.0349958
0.0398405
0.0447362
0.0495979
0.0543559
0.0590536
0.0637416
0.0682941
0.0722183
0.0708151
)
;
    }
    procBoundary0to2
    {
        type            processor;
        value           nonuniform List<scalar> 
16
(
-0.00346705
-0.0103052
-0.016733
-0.0226012
-0.0281501
-0.0335196
-0.0385302
-0.0432718
-0.0479432
-0.0524808
-0.0568113
-0.0610169
-0.06519
-0.0692226
-0.0726758
-0.0709266
)
;
    }
}


// ************************************************************************* //
