/*--------------------------------*- C++ -*----------------------------------*\
| =========                 |                                                 |
| \\      /  F ield         | OpenFOAM: The Open Source CFD Toolbox           |
|  \\    /   O peration     | Version:  2412                                  |
|   \\  /    A nd           | Website:  www.openfoam.com                      |
|    \\/     M anipulation  |                                                 |
\*---------------------------------------------------------------------------*/
FoamFile
{
    version     2.0;
    format      ascii;
    arch        "LSB;label=32;scalar=64";
    class       pointVectorField;
    location    "0.5";
    object      pointDisplacement;
}
// * * * * * * * * * * * * * * * * * * * * * * * * * * * * * * * * * * * * * //

dimensions      [0 1 0 0 0 0 0];

internalField   nonuniform List<vector> 
578
(
(0 0 0)
(0 0 0)
(0 0 0)
(0 0 0)
(0 0 0)
(0 0 0)
(0 0 0)
(0 0 0)
(0 0 0)
(0.00495898 -0.00603635 0)
(0.00672686 -0.00785282 0)
(0.0101852 -0.0107238 0)
(0.0138541 -0.0125416 0)
(0.0177593 -0.0131882 0)
(0.0217624 -0.0125401 0)
(0.0255823 -0.0105491 0)
(0.0287684 -0.00729763 0)
(0.0307692 -0.00309424 0)
(0.0124472 -0.015118 0)
(0.0158568 -0.0180996 0)
(0.0224952 -0.0229067 0)
(0.0295267 -0.0256654 0)
(0.0369463 -0.0262065 0)
(0.044443 -0.0243458 0)
(0.0514463 -0.0200435 0)
(0.0571362 -0.0135206 0)
(0.0605834 -0.00539926 0)
(0.0221182 -0.0267451 0)
(0.0270962 -0.0302644 0)
(0.036588 -0.0360743 0)
(0.0466251 -0.0389629 0)
(0.0571108 -0.0387411 0)
(0.0675453 -0.0352073 0)
(0.0770923 -0.0283802 0)
(0.0846406 -0.0186518 0)
(0.0890299 -0.00693445 0)
(0.0337839 -0.0405604 0)
(0.0402984 -0.0440292 0)
(0.0523286 -0.0499733 0)
(0.0650077 -0.0522543 0)
(0.0781136 -0.0506928 0)
(0.0909512 -0.0451082 0)
(0.102451 -0.0356076 0)
(0.111304 -0.0227655 0)
(0.11624 -0.00774327 0)
(0.047276 -0.0561886 0)
(0.0553136 -0.059058 0)
(0.0695812 -0.0643358 0)
(0.0845478 -0.0653564 0)
(0.0998304 -0.0619619 0)
(0.114551 -0.054017 0)
(0.127466 -0.041743 0)
(0.13715 -0.025895 0)
(0.142327 -0.00783248 0)
(0.0624489 -0.0732307 0)
(0.0720115 -0.0750044 0)
(0.0882296 -0.078899 0)
(0.105125 -0.0780805 0)
(0.122149 -0.0724292 0)
(0.138267 -0.061882 0)
(0.15211 -0.0467823 0)
(0.162216 -0.0280453 0)
(0.167372 -0.0071791 0)
(0.0792021 -0.0912886 0)
(0.0902841 -0.0915128 0)
(0.108171 -0.0933819 0)
(0.126647 -0.0902226 0)
(0.144989 -0.0819643 0)
(0.162038 -0.0686269 0)
(0.176368 -0.0506823 0)
(0.186547 -0.0291831 0)
(0.191451 -0.00573125 0)
(0.097478 -0.109954 0)
(0.110068 -0.108216 0)
(0.129354 -0.107497 0)
(0.149048 -0.101558 0)
(0.168287 -0.0903949 0)
(0.185834 -0.0741319 0)
(0.200259 -0.0533613 0)
(0.210205 -0.029237 0)
(0.214644 -0.00340372 0)
(0.117289 -0.128817 0)
(0.131352 -0.124727 0)
(0.151748 -0.120906 0)
(0.172301 -0.111808 0)
(0.192028 -0.0975046 0)
(0.209653 -0.0782305 0)
(0.223797 -0.0546834 0)
(0.233198 -0.0280881 0)
(0.236971 -7.88279e-05 0)
(0.138707 -0.147405 0)
(0.154187 -0.140594 0)
(0.175406 -0.133211 0)
(0.19644 -0.120627 0)
(0.216218 -0.102998 0)
(0.233491 -0.0806721 0)
(0.246956 -0.0544421 0)
(0.255496 -0.0255555 0)
(0.258429 0.00442318 0)
(0.16189 -0.165121 0)
(0.178711 -0.155226 0)
(0.200431 -0.143871 0)
(0.22152 -0.127521 0)
(0.24087 -0.106444 0)
(0.257292 -0.0810928 0)
(0.269644 -0.0523342 0)
(0.27703 -0.0213742 0)
(0.278971 0.0103454 0)
(0.1871 -0.181195 0)
(0.205119 -0.167792 0)
(0.226942 -0.152098 0)
(0.247553 -0.131767 0)
(0.265884 -0.107203 0)
(0.280914 -0.0789609 0)
(0.291736 -0.047909 0)
(0.297688 -0.0151575 0)
(0.298461 0.0180268 0)
(0.214672 -0.194544 0)
(0.233637 -0.177133 0)
(0.25498 -0.156774 0)
(0.274413 -0.132362 0)
(0.29104 -0.104409 0)
(0.304091 -0.0735319 0)
(0.312928 -0.0405485 0)
(0.317131 -0.00640574 0)
(0.316534 0.0278603 0)
(0.244746 -0.203324 0)
(0.264179 -0.181339 0)
(0.284144 -0.15615 0)
(0.301469 -0.127845 0)
(0.315573 -0.0969293 0)
(0.325995 -0.0639675 0)
(0.332386 -0.0296369 0)
(0.334536 0.00533438 0)
(0.332398 0.0401839 0)
(0.275668 -0.204142 0)
(0.294651 -0.177153 0)
(0.311852 -0.147771 0)
(0.325989 -0.116441 0)
(0.336814 -0.083549 0)
(0.344137 -0.0495053 0)
(0.347824 -0.0147604 0)
(0.347809 0.020217 0)
(0.344095 0.0549503 0)
(0.291606 -0.202486 0)
(0.310049 -0.172929 0)
(0.325506 -0.141706 0)
(0.337828 -0.109118 0)
(0.346897 -0.0754799 0)
(0.352625 -0.0411146 0)
(0.354957 -0.00635332 0)
(0.353871 0.0284692 0)
(0.349376 0.0630174 0)
(0 0 0)
(0 0 0)
(0 0 0)
(0 0 0)
(0 0 0)
(0 0 0)
(0 0 0)
(0 0 0)
(0 0 0)
(0.00495898 -0.00603635 0)
(0.00672686 -0.00785282 0)
(0.0101852 -0.0107238 0)
(0.0138541 -0.0125416 0)
(0.0177593 -0.0131882 0)
(0.0217624 -0.0125401 0)
(0.0255823 -0.0105491 0)
(0.0287684 -0.00729763 0)
(0.0307692 -0.00309424 0)
(0.0124472 -0.015118 0)
(0.0158568 -0.0180996 0)
(0.0224952 -0.0229067 0)
(0.0295267 -0.0256654 0)
(0.0369463 -0.0262065 0)
(0.044443 -0.0243458 0)
(0.0514463 -0.0200435 0)
(0.0571362 -0.0135206 0)
(0.0605834 -0.00539926 0)
(0.0221182 -0.0267451 0)
(0.0270962 -0.0302644 0)
(0.036588 -0.0360743 0)
(0.0466251 -0.0389629 0)
(0.0571108 -0.0387411 0)
(0.0675453 -0.0352073 0)
(0.0770923 -0.0283802 0)
(0.0846406 -0.0186518 0)
(0.0890299 -0.00693445 0)
(0.0337839 -0.0405604 0)
(0.0402984 -0.0440292 0)
(0.0523286 -0.0499733 0)
(0.0650077 -0.0522543 0)
(0.0781136 -0.0506928 0)
(0.0909512 -0.0451082 0)
(0.102451 -0.0356076 0)
(0.111304 -0.0227655 0)
(0.11624 -0.00774327 0)
(0.047276 -0.0561886 0)
(0.0553136 -0.059058 0)
(0.0695812 -0.0643358 0)
(0.0845478 -0.0653564 0)
(0.0998304 -0.0619619 0)
(0.114551 -0.054017 0)
(0.127466 -0.041743 0)
(0.13715 -0.025895 0)
(0.142327 -0.00783248 0)
(0.0624489 -0.0732307 0)
(0.0720115 -0.0750044 0)
(0.0882296 -0.078899 0)
(0.105125 -0.0780805 0)
(0.122149 -0.0724292 0)
(0.138267 -0.061882 0)
(0.15211 -0.0467823 0)
(0.162216 -0.0280453 0)
(0.167372 -0.0071791 0)
(0.0792021 -0.0912886 0)
(0.0902841 -0.0915128 0)
(0.108171 -0.0933819 0)
(0.126647 -0.0902226 0)
(0.144989 -0.0819643 0)
(0.162038 -0.0686269 0)
(0.176368 -0.0506823 0)
(0.186547 -0.0291831 0)
(0.191451 -0.00573125 0)
(0.097478 -0.109954 0)
(0.110068 -0.108216 0)
(0.129354 -0.107497 0)
(0.149048 -0.101558 0)
(0.168287 -0.0903949 0)
(0.185834 -0.0741319 0)
(0.200259 -0.0533613 0)
(0.210205 -0.029237 0)
(0.214644 -0.00340372 0)
(0.117289 -0.128817 0)
(0.131352 -0.124727 0)
(0.151748 -0.120906 0)
(0.172301 -0.111808 0)
(0.192028 -0.0975046 0)
(0.209653 -0.0782305 0)
(0.223797 -0.0546834 0)
(0.233198 -0.0280881 0)
(0.236971 -7.88279e-05 0)
(0.138707 -0.147405 0)
(0.154187 -0.140594 0)
(0.175406 -0.133211 0)
(0.19644 -0.120627 0)
(0.216218 -0.102998 0)
(0.233491 -0.0806721 0)
(0.246956 -0.0544421 0)
(0.255496 -0.0255555 0)
(0.258429 0.00442318 0)
(0.16189 -0.165121 0)
(0.178711 -0.155226 0)
(0.200431 -0.143871 0)
(0.22152 -0.127521 0)
(0.24087 -0.106444 0)
(0.257292 -0.0810928 0)
(0.269644 -0.0523342 0)
(0.27703 -0.0213742 0)
(0.278971 0.0103454 0)
(0.1871 -0.181195 0)
(0.205119 -0.167792 0)
(0.226942 -0.152098 0)
(0.247553 -0.131767 0)
(0.265884 -0.107203 0)
(0.280914 -0.0789609 0)
(0.291736 -0.047909 0)
(0.297688 -0.0151575 0)
(0.298461 0.0180268 0)
(0.214672 -0.194544 0)
(0.233637 -0.177133 0)
(0.25498 -0.156774 0)
(0.274413 -0.132362 0)
(0.29104 -0.104409 0)
(0.304091 -0.0735319 0)
(0.312928 -0.0405485 0)
(0.317131 -0.00640574 0)
(0.316534 0.0278603 0)
(0.244746 -0.203324 0)
(0.264179 -0.181339 0)
(0.284144 -0.15615 0)
(0.301469 -0.127845 0)
(0.315573 -0.0969293 0)
(0.325995 -0.0639675 0)
(0.332386 -0.0296369 0)
(0.334536 0.00533438 0)
(0.332398 0.0401839 0)
(0.275668 -0.204142 0)
(0.294651 -0.177153 0)
(0.311852 -0.147771 0)
(0.325989 -0.116441 0)
(0.336814 -0.083549 0)
(0.344137 -0.0495053 0)
(0.347824 -0.0147604 0)
(0.347809 0.020217 0)
(0.344095 0.0549503 0)
(0.291606 -0.202486 0)
(0.310049 -0.172929 0)
(0.325506 -0.141706 0)
(0.337828 -0.109118 0)
(0.346897 -0.0754799 0)
(0.352625 -0.0411146 0)
(0.354957 -0.00635332 0)
(0.353871 0.0284692 0)
(0.349376 0.0630174 0)
(0 0 0)
(0 0 0)
(0 0 0)
(0 0 0)
(0 0 0)
(0 0 0)
(0 0 0)
(0 0 0)
(-0.00309513 -0.0308052 0)
(0.00148899 -0.0312414 0)
(0.00571888 -0.0298866 0)
(0.00889733 -0.0268876 0)
(0.0105919 -0.0227666 0)
(0.0106786 -0.018086 0)
(0.009283 -0.0132631 0)
(0.00667087 -0.00851389 0)
(-0.0054055 -0.060651 0)
(0.00327479 -0.0612633 0)
(0.0112561 -0.0587309 0)
(0.0173738 -0.0533452 0)
(0.0208967 -0.0459535 0)
(0.0215822 -0.0374746 0)
(0.0195817 -0.0286263 0)
(0.0152715 -0.0198017 0)
(-0.00694831 -0.0891199 0)
(0.00535443 -0.0896865 0)
(0.0166341 -0.086135 0)
(0.0254413 -0.0788809 0)
(0.0308547 -0.0689754 0)
(0.0325346 -0.0575472 0)
(0.0306093 -0.0455068 0)
(0.0254696 -0.0333724 0)
(-0.00776781 -0.116344 0)
(0.0077649 -0.1167 0)
(0.0219808 -0.112258 0)
(0.0332734 -0.103554 0)
(0.0406158 -0.0917509 0)
(0.043597 -0.0780889 0)
(0.0423001 -0.063594 0)
(0.0370937 -0.0488718 0)
(-0.00786869 -0.142437 0)
(0.0105628 -0.142472 0)
(0.0274195 -0.137243 0)
(0.0410326 -0.127417 0)
(0.0503286 -0.114207 0)
(0.0548483 -0.0989033 0)
(0.0546325 -0.0825931 0)
(0.0500154 -0.0659369 0)
(-0.00722959 -0.16748 0)
(0.0138183 -0.167109 0)
(0.0330754 -0.161189 0)
(0.0488775 -0.150507 0)
(0.0601435 -0.136286 0)
(0.0663914 -0.119824 0)
(0.067624 -0.102234 0)
(0.0641483 -0.0842077 0)
(-0.00579663 -0.191548 0)
(0.0176271 -0.190697 0)
(0.0390819 -0.18418 0)
(0.0569639 -0.172849 0)
(0.0702135 -0.157924 0)
(0.0783406 -0.140686 0)
(0.0813197 -0.122249 0)
(0.0794495 -0.103324 0)
(-0.0034847 -0.214726 0)
(0.0221007 -0.213314 0)
(0.0455856 -0.206262 0)
(0.0654582 -0.194447 0)
(0.0807026 -0.179055 0)
(0.0908357 -0.161337 0)
(0.095815 -0.142395 0)
(0.0959361 -0.122941 0)
(-0.000169771 -0.237036 0)
(0.0273878 -0.235004 0)
(0.0527548 -0.227464 0)
(0.0745389 -0.215281 0)
(0.0917908 -0.199599 0)
(0.104047 -0.181623 0)
(0.111243 -0.162423 0)
(0.113674 -0.142704 0)
(0.00432994 -0.258479 0)
(0.033671 -0.255768 0)
(0.0607803 -0.24776 0)
(0.0844095 -0.235297 0)
(0.103689 -0.219451 0)
(0.118172 -0.201357 0)
(0.127776 -0.182047 0)
(0.13279 -0.162213 0)
(0.0102616 -0.279005 0)
(0.0411952 -0.275559 0)
(0.0699151 -0.267092 0)
(0.095326 -0.254396 0)
(0.116646 -0.23845 0)
(0.133455 -0.220298 0)
(0.145641 -0.200914 0)
(0.153478 -0.180974 0)
(0.017976 -0.29849 0)
(0.0502658 -0.294219 0)
(0.0804331 -0.285267 0)
(0.107547 -0.27234 0)
(0.130926 -0.25631 0)
(0.150164 -0.23809 0)
(0.165124 -0.218556 0)
(0.176034 -0.198369 0)
(0.0278539 -0.316561 0)
(0.0611843 -0.311339 0)
(0.0925877 -0.30184 0)
(0.121311 -0.288645 0)
(0.146767 -0.272471 0)
(0.168567 -0.254079 0)
(0.186532 -0.234223 0)
(0.2008 -0.213498 0)
(0.040206 -0.332421 0)
(0.0741851 -0.326154 0)
(0.106561 -0.316033 0)
(0.136757 -0.302473 0)
(0.164279 -0.285993 0)
(0.188762 -0.267168 0)
(0.209976 -0.2466 0)
(0.227931 -0.224776 0)
(0.0549631 -0.344103 0)
(0.0889861 -0.33678 0)
(0.121845 -0.325994 0)
(0.153126 -0.311961 0)
(0.18246 -0.294952 0)
(0.209524 -0.275287 0)
(0.234056 -0.25332 0)
(0.255902 -0.229374 0)
(0.0630174 -0.349376 0)
(0.0969589 -0.341517 0)
(0.129966 -0.330369 0)
(0.161722 -0.316039 0)
(0.191921 -0.298666 0)
(0.220271 -0.278416 0)
(0.2465 -0.255485 0)
(0.270355 -0.230094 0)
(0 0 0)
(0 0 0)
(0 0 0)
(0 0 0)
(0 0 0)
(0 0 0)
(0 0 0)
(0 0 0)
(-0.00309513 -0.0308052 0)
(0.00148899 -0.0312414 0)
(0.00571888 -0.0298866 0)
(0.00889733 -0.0268876 0)
(0.0105919 -0.0227666 0)
(0.0106786 -0.018086 0)
(0.009283 -0.0132631 0)
(0.00667087 -0.00851389 0)
(-0.0054055 -0.060651 0)
(0.00327479 -0.0612633 0)
(0.0112561 -0.0587309 0)
(0.0173738 -0.0533452 0)
(0.0208967 -0.0459535 0)
(0.0215822 -0.0374746 0)
(0.0195817 -0.0286263 0)
(0.0152715 -0.0198017 0)
(-0.00694831 -0.0891199 0)
(0.00535443 -0.0896865 0)
(0.0166341 -0.086135 0)
(0.0254413 -0.0788809 0)
(0.0308547 -0.0689754 0)
(0.0325346 -0.0575472 0)
(0.0306093 -0.0455068 0)
(0.0254696 -0.0333724 0)
(-0.00776781 -0.116344 0)
(0.0077649 -0.1167 0)
(0.0219808 -0.112258 0)
(0.0332734 -0.103554 0)
(0.0406158 -0.0917509 0)
(0.043597 -0.0780889 0)
(0.0423001 -0.063594 0)
(0.0370937 -0.0488718 0)
(-0.00786869 -0.142437 0)
(0.0105628 -0.142472 0)
(0.0274195 -0.137243 0)
(0.0410326 -0.127417 0)
(0.0503286 -0.114207 0)
(0.0548483 -0.0989033 0)
(0.0546325 -0.0825931 0)
(0.0500154 -0.0659369 0)
(-0.00722959 -0.16748 0)
(0.0138183 -0.167109 0)
(0.0330754 -0.161189 0)
(0.0488775 -0.150507 0)
(0.0601435 -0.136286 0)
(0.0663914 -0.119824 0)
(0.067624 -0.102234 0)
(0.0641483 -0.0842077 0)
(-0.00579663 -0.191548 0)
(0.0176271 -0.190697 0)
(0.0390819 -0.18418 0)
(0.0569639 -0.172849 0)
(0.0702135 -0.157924 0)
(0.0783406 -0.140686 0)
(0.0813197 -0.122249 0)
(0.0794495 -0.103324 0)
(-0.0034847 -0.214726 0)
(0.0221007 -0.213314 0)
(0.0455856 -0.206262 0)
(0.0654582 -0.194447 0)
(0.0807026 -0.179055 0)
(0.0908357 -0.161337 0)
(0.095815 -0.142395 0)
(0.0959361 -0.122941 0)
(-0.000169771 -0.237036 0)
(0.0273878 -0.235004 0)
(0.0527548 -0.227464 0)
(0.0745389 -0.215281 0)
(0.0917908 -0.199599 0)
(0.104047 -0.181623 0)
(0.111243 -0.162423 0)
(0.113674 -0.142704 0)
(0.00432994 -0.258479 0)
(0.033671 -0.255768 0)
(0.0607803 -0.24776 0)
(0.0844095 -0.235297 0)
(0.103689 -0.219451 0)
(0.118172 -0.201357 0)
(0.127776 -0.182047 0)
(0.13279 -0.162213 0)
(0.0102616 -0.279005 0)
(0.0411952 -0.275559 0)
(0.0699151 -0.267092 0)
(0.095326 -0.254396 0)
(0.116646 -0.23845 0)
(0.133455 -0.220298 0)
(0.145641 -0.200914 0)
(0.153478 -0.180974 0)
(0.017976 -0.29849 0)
(0.0502658 -0.294219 0)
(0.0804331 -0.285267 0)
(0.107547 -0.27234 0)
(0.130926 -0.25631 0)
(0.150164 -0.23809 0)
(0.165124 -0.218556 0)
(0.176034 -0.198369 0)
(0.0278539 -0.316561 0)
(0.0611843 -0.311339 0)
(0.0925877 -0.30184 0)
(0.121311 -0.288645 0)
(0.146767 -0.272471 0)
(0.168567 -0.254079 0)
(0.186532 -0.234223 0)
(0.2008 -0.213498 0)
(0.040206 -0.332421 0)
(0.0741851 -0.326154 0)
(0.106561 -0.316033 0)
(0.136757 -0.302473 0)
(0.164279 -0.285993 0)
(0.188762 -0.267168 0)
(0.209976 -0.2466 0)
(0.227931 -0.224776 0)
(0.0549631 -0.344103 0)
(0.0889861 -0.33678 0)
(0.121845 -0.325994 0)
(0.153126 -0.311961 0)
(0.18246 -0.294952 0)
(0.209524 -0.275287 0)
(0.234056 -0.25332 0)
(0.255902 -0.229374 0)
(0.0630174 -0.349376 0)
(0.0969589 -0.341517 0)
(0.129966 -0.330369 0)
(0.161722 -0.316039 0)
(0.191921 -0.298666 0)
(0.220271 -0.278416 0)
(0.2465 -0.255485 0)
(0.270355 -0.230094 0)
)
;

boundaryField
{
    walls
    {
        type            fixedValue;
        value           uniform (0 0 0);
    }
    cylinder
    {
        type            solidBodyMotionDisplacement;
        value           nonuniform List<vector> 
34
(
(0.291606 -0.202486 0)
(0.291606 -0.202486 0)
(0.310049 -0.172929 0)
(0.310049 -0.172929 0)
(0.325506 -0.141706 0)
(0.325506 -0.141706 0)
(0.337828 -0.109118 0)
(0.337828 -0.109118 0)
(0.346897 -0.0754799 0)
(0.346897 -0.0754799 0)
(0.352625 -0.0411146 0)
(0.352625 -0.0411146 0)
(0.354957 -0.00635332 0)
(0.354957 -0.00635332 0)
(0.353871 0.0284692 0)
(0.353871 0.0284692 0)
(0.349376 0.0630174 0)
(0.349376 0.0630174 0)
(0.0630174 -0.349376 0)
(0.0630174 -0.349376 0)
(0.0969589 -0.341517 0)
(0.0969589 -0.341517 0)
(0.129966 -0.330369 0)
(0.129966 -0.330369 0)
(0.161722 -0.316039 0)
(0.161722 -0.316039 0)
(0.191921 -0.298666 0)
(0.191921 -0.298666 0)
(0.220271 -0.278416 0)
(0.220271 -0.278416 0)
(0.2465 -0.255485 0)
(0.2465 -0.255485 0)
(0.270355 -0.230094 0)
(0.270355 -0.230094 0)
)
;
        solidBodyMotionFunction oscillatingRotatingMotion;
        oscillatingRotatingMotionCoeffs
        {
            origin          ( 0 0 0 );
            axis            ( 0 0 1 );
            omega           1.5;
            amplitude       ( 0 0 30 );
        }
    }
    outlet
    {
        type            fixedValue;
        value           nonuniform List<vector> 0();
    }
    inlet
    {
        type            fixedValue;
        value           uniform (0 0 0);
    }
    frontAndBack
    {
        type            empty;
    }
    procBoundary0to1
    {
        type            processor;
    }
    procBoundary0to2
    {
        type            processor;
    }
}


// ************************************************************************* //
