/*--------------------------------*- C++ -*----------------------------------*\
| =========                 |                                                 |
| \\      /  F ield         | OpenFOAM: The Open Source CFD Toolbox           |
|  \\    /   O peration     | Version:  2412                                  |
|   \\  /    A nd           | Website:  www.openfoam.com                      |
|    \\/     M anipulation  |                                                 |
\*---------------------------------------------------------------------------*/
FoamFile
{
    version     2.0;
    format      ascii;
    arch        "LSB;label=32;scalar=64";
    class       volScalarField;
    location    "1858.5";
    object      yPlus;
}
// * * * * * * * * * * * * * * * * * * * * * * * * * * * * * * * * * * * * * //

dimensions      [0 0 0 0 0 0 0];

internalField   uniform 0;

boundaryField
{
    FrontBack
    {
        type            empty;
    }
    Top
    {
        type            calculated;
        value           nonuniform List<scalar> 
15
(
142.2865757995387
133.5882829242955
138.069037017805
144.4117535356879
159.7715454010044
131.368441018246
140.1383100673502
135.3624143966971
153.4500613573568
135.7342826444152
136.0965795659135
136.7689198098298
125.2643041118896
132.9117945220593
123.9521430343038
)
;
    }
    In
    {
        type            calculated;
        value           uniform 0;
    }
    Bottom
    {
        type            calculated;
        value           nonuniform List<scalar> 
15
(
155.5661834317092
158.1181736248689
141.0821401694045
142.0436221218046
141.176613480355
148.4245202919927
142.6977025010495
143.1498145085299
143.4224368848403
134.055553565637
125.7253548068612
141.5526943698703
122.4059195587077
123.4878240160542
124.1300808275648
)
;
    }
    Out
    {
        type            calculated;
        value           uniform 0;
    }
    circle
    {
        type            calculated;
        value           nonuniform List<scalar> 
32
(
56.21026005281526
22.23664779522444
65.31043091042613
23.85865262378939
19.38985420674605
56.14417792688015
56.73642565126906
23.90837904788158
22.37751938262319
65.54467429012787
39.99798102808249
63.01527407396053
50.42718105443464
15.19208458362794
23.51340523487335
18.03599793551412
39.07295693573575
59.65977656034749
60.98633732259104
24.223923105622
65.7142986078612
63.83516276877625
62.98143618060753
59.94447942785398
64.08496209560438
45.91167053231311
66.36786831411962
32.00654943015892
38.04991180181419
55.78072082383587
20.94119033651906
43.18714681108092
)
;
    }
}


// ************************************************************************* //
