/*--------------------------------*- C++ -*----------------------------------*\
| =========                 |                                                 |
| \\      /  F ield         | OpenFOAM: The Open Source CFD Toolbox           |
|  \\    /   O peration     | Version:  2412                                  |
|   \\  /    A nd           | Website:  www.openfoam.com                      |
|    \\/     M anipulation  |                                                 |
\*---------------------------------------------------------------------------*/
FoamFile
{
    version     2.0;
    format      ascii;
    arch        "LSB;label=32;scalar=64";
    class       surfaceScalarField;
    location    "78.5";
    object      phi;
}
// * * * * * * * * * * * * * * * * * * * * * * * * * * * * * * * * * * * * * //

dimensions      [0 3 -1 0 0 0 0];

oriented        oriented;

internalField   nonuniform List<scalar> 
1171
(
-0.9279372574583922
0.9279372574973284
0.7873183615189117
-1.098831899025646
0.3115135370872338
-0.1942970033664272
-0.7659052398987827
0.9602022434865861
0.07206274602655645
-0.116936695386742
-0.2118549029813183
0.3287915998824057
-0.7873183723772783
0.06938724797070206
0.717931124385658
0.8112380315891768
-0.1774924693781942
-0.633745561996246
0.8743979570343151
-1.043655242301133
0.1692572852033778
-0.2849160755534622
-0.09743595436386818
0.3823520293529494
-0.03586550595669676
0.5485027564975697
-0.512637250437974
-0.5037372233542544
0.8263293494416429
-0.3225921263786344
-0.4018527770367901
1.045912604828801
-0.1715146493452364
0.395405473443016
0.04767093569385372
-0.4430764064707357
1.04632952873911
-0.0004169251410749136
0.4449562438858896
-0.0495507688913109
1.056978538134114
-0.01064900917048701
0.5775234749927267
-0.7718204836603124
-0.7244722081744078
0.5571605374937388
0.1673116708408402
0.2218592353666719
-0.7255964524220532
0.5505470559359699
-0.922817103324588
0.3722700486916224
-1.094163570420873
0.6863736020181656
0.40778996827668
-0.5953828785207474
0.5595173627684022
0.01828512264022433
-0.2570718248142639
0.2387867032346181
-0.02455677257119973
-0.5217272742879386
0.5462840485478671
0.4000589444210121
-0.497494904609519
-0.9187538526750954
0.9413922391838029
-0.02263838659199065
1.067572500043131
-0.01059396141859124
0.9351398107249564
-1.116907777712166
0.1817679671524161
1.067179720849755
0.0003927807178425554
-0.6643740845923577
-0.06009812741426944
1.26222559674555
-0.8643359207253836
-0.3978896759916793
0.1484258702713939
-0.1088762736781781
-0.3262369591925963
0.435113232324713
-0.2857617815378057
0.1909485381582643
0.09481324280784258
-0.5834230415306316
-0.5154088532377905
1.014054909948968
-0.07891509817310267
0.009948621489756993
0.8254347796648248
-0.8353834012671334
0.5718773870135562
0.6903482075500961
0.4396264772112032
-0.03021935864381441
0.4302783039767862
-0.8076654711914208
-0.1025785725976864
0.9102440439634808
0.5026161412489093
0.2536976765400227
-0.7563138178349226
0.004412481285372731
0.5281209818154921
-0.5325334618304437
-0.4898509403550392
-0.6043126325316027
-0.422892330066512
-0.6940154473257594
-0.02721017921585255
0.2700790291782605
-0.2428688514703594
-0.9248088883348417
-0.005143955510604393
0.9299528437297936
0.3081788326266399
0.0741731930556007
0.7624012642850155
0.04883677068510187
-0.5331336108015673
-0.06224926852265095
0.04631894391590228
-0.8539844184610695
0.07547457142964846
0.8624291797741956
-0.9379037512852056
-0.3473359044869097
-0.04145383806236842
0.388789741875424
-0.6823421509816625
-0.2424667443170783
-0.6314495033784085
0.7069240753978809
0.6093863188969881
0.2169430365032149
-0.5428566188230793
0.9461293609949328
-0.7794130458764357
-0.1667163152420272
0.02242034510302963
-0.01740721196099007
-0.005013131827579368
-0.4029535866756289
-0.0945413174618948
-0.2414998188330189
0.85088614056762
0.04620440439018234
0.3352731115560542
-0.381477516790348
-0.460226275622778
0.9628424216295598
0.6801099042000857
-0.7826884786106816
0.3195354872458208
-0.01726928806038336
-0.3022662009439079
0.9306918420312794
-0.9306918420657476
-0.7828183932644468
0.1106860687903245
-0.3225409764687189
-0.7500475159869473
0.7599961329682942
-0.09019820949699556
-0.1429205436454401
0.2331187517954632
0.8650024933601227
-0.03956772033519212
1.05426190914759
-0.8005642260827021
0.1859467193580446
-0.3154282516042013
0.1294815328201857
0.859423018111741
-0.09702175240474882
-0.6118392948089253
-0.03924989173475445
0.6510891864852379
0.1238647631873984
-0.2312059976055641
0.1073412359797831
0.8056844549249845
-0.9831769211515347
-0.4354875365013515
0.3296831583614836
0.1058043793640939
0.5313408281228735
-0.5558976014779783
1.022097224786929
-0.4562455241434593
-0.5658517007170407
0.5992048935375784
-0.7193634039682352
0.06681161739981044
0.6525517861410655
0.1031092057846007
0.5704961178835268
0.05487959755099282
-0.6253757151534571
0.1940886611321731
-0.08340258492620405
-0.4932882990547687
0.1459523939922281
0.05034841918589856
-0.886850844321034
0.8365024252530373
-0.4740563510834747
-0.7134949177840922
0.04912083259876626
0.4367610894507298
-0.006482789148339374
0.2998459258738037
-0.8552377962442332
0.5553918705662459
0.4157126611002958
0.5842873390700591
0.5605271233696147
-0.5142081771088527
-0.3657398833930761
0.03468488887387745
0.3310549903987647
0.681383569141682
0.2493082730829958
-0.565946986374909
0.5703594694781577
0.1105241239405861
0.8750717108507321
0.01023036783620076
-0.6220696654663421
-0.7493336024785175
0.7996820223226361
0.5312462190461654
0.0710392762449467
0.3018207355111515
-0.3728600113307866
-0.1676108205734951
0.4415005628793663
0.08662040387328289
0.8763482005579782
-0.7976660788337405
-0.07868212165062224
0.6354409975740104
0.3106883612652823
-0.4301637653532819
0.5753967007494865
-0.5043574254483854
0.4172024114358773
0.1333446435928894
-0.04690115845964263
-0.5907395399770726
-0.1376848241025767
0.7284243641379636
-0.1497189843819876
-0.7809728603958035
-0.6110203025002144
0.3607750117719817
0.2502452890018323
0.6222725188086222
-0.6120421514397748
0.2385933935862431
1.011367541867575
0.04289436835223868
-0.7493335994802064
0.2252027480167571
-0.2027824025640983
0.680109899048073
0.8020926364577496
-0.8020926366064225
0.8377300079332737
-0.8333413764403985
-0.004388631401764434
-0.4453880896271229
0.8611007477172353
-0.1476093449674545
-0.3456789577491826
0.7347057049591373
-0.6684543365473054
-0.06625136849479622
-0.7312831891712235
0.1405436498519338
0.1386741529188461
-0.6718077629683531
0.7826884660783331
-0.950299286728412
-0.3655296393720764
0.2902960282165599
0.07523360693376664
0.1459545421060382
-1.009536149337066
0.8635816072826177
0.4809816589755523
-0.04135518189476056
-0.3081929041229915
0.5864921012543313
-0.2782991968763967
-0.7383112349764358
0.8842657753183372
-0.1571405297165143
0.7343411300507129
-0.8406729600039944
0.1063318297023368
0.977518035117909
-0.5419223917515802
-0.4355956435416504
0.7551914807574496
-0.06490913086004635
-0.03367713669669846
0.1877836501192554
-0.1541065135770723
-0.7757441838524531
-0.8462771852000162
0.08037193967144043
-0.7500475181786193
0.5139976456015231
-0.5554514891082146
0.09007199453059905
0.7197413556926066
-0.8098133500287854
0.7537222233554292
0.1742150464784591
0.5028763585394103
0.4971236414259051
-0.05089280788727635
-0.6064885628863861
0.6573813720693871
0.8818719284598664
-0.005523724613428555
-0.7551914807307881
0.7996820233969882
0.1909962054940982
-0.4480680277528461
0.02061158494590946
0.001567580139624637
-0.02217915902863551
0.5890996206222028
-0.4384807170543547
-0.1506189026411228
0.717931131265748
0.01375059269982064
-0.1119360531048036
0.4372027969583833
0.1518968235415308
-0.01401781593886851
-0.00571873721923963
0.01973655286593641
-0.03338981089073167
-0.0002873300210947251
0.2431479114144486
-0.2604171947200008
-0.9592331669484785
0.00183138935683336
-0.1595511435570728
-0.1223817370375048
0.09456943114826677
0.7213426092885912
0.7290495313806634
-0.1447621951051627
0.6619228637981222
-0.5718508702261694
-0.2117855553912997
0.3977322728344254
0.6954168664675835
0.02251426475194701
0.2416057295000446
-1.074947103911101
-0.950299292657089
0.3016960397595957
0.7599961288176402
-0.2086155291943666
0.06569498367250079
-0.7231739995266943
0.9098504922207733
-0.1866764927625675
0.4161844951899221
-0.02739476119044531
0.7715932965140816
0.2806365949274468
0.3718136072270439
0.07314263155471608
-0.6586889097941867
0.6586889097659014
0.2146874506819045
0.6955565905388573
-0.05486841984023649
0.3901415418737915
0.3802448148109798
-0.0147592269892261
0.03537079524972594
0.4494778347953316
0.03150381994552732
-0.7383112355517303
0.5341384498975579
0.2005672558829008
0.3062547148305665
-0.1184710734261159
-0.6954168677580348
0.1800736377517949
0.7297768553283563
-0.01019527634295437
-0.8137071749594624
0.8239024513063398
0.6962706878925445
-0.792106407042665
0.09583571929621638
-0.7537222275422184
-0.1498829673283933
0.2109732286679193
-0.0610902624099147
0.07718289793842749
-0.179890272237662
-0.112284049991036
0.2921743245270416
-0.008284473049189512
-0.005733352592978667
0.7065324731138811
-0.7167277577037506
0.8845523799734661
0.07564985944144523
-0.3142569941595663
-0.5180139917750549
0.8322709858818779
0.1029976463938728
-0.1029976417159081
0.3249809174532645
0.4764861308185994
0.6134555262587352
-1.089941657126283
-0.194144429182305
-0.5856619810670616
0.7798064102848691
0.01271797680531214
0.2204007783514965
0.3773085478898589
-0.2534437761402377
1.012763959159699
-0.5362778249460065
0.6642096492811667
0.9942921898766002
-0.3808366599731859
0.2296992008223779
0.8842657739059686
0.7127511240398833
0.2136691473903029
0.7277230936525112
-0.7809728606456801
0.3413111064791675
-0.2767950589727264
0.2449472996767811
0.0318477546405217
0.8486709257218747
-0.01370686106662541
-0.8349640642355678
-0.702102115708415
0.7024948976765667
0.554611911893412
-0.7021021157379873
-0.7127511240691889
0.7024948974788905
-0.03460614842763612
0.9044158236747047
-0.0198634469250129
-0.6813835583263698
0.6123564915139313
0.0690270667894491
0.5388587461905696
0.5372395827183984
-1.076098328860805
0.4921985637594486
0.520565396603063
0.5431159327167953
0.4598013076933666
-1.002917240346567
0.4986610664808744
0.4956311249167391
0.6123564840984981
-0.525573079831623
-0.465215255384001
-0.5562303522994265
-0.5196302191865865
-0.1209316081861113
-0.0122426351932195
0.01224263375243775
0.5123027774447594
0.5230100364759577
-1.042640255543134
0.5755392604509298
-0.2737185255958081
-0.8853206927804729
0.343398300425854
-0.6329372666144296
0.3904705201696321
0.001947841959249782
-0.8306307452462862
0.8286829030965468
0.4208566139016887
-0.01757354141685885
0.8662444672384448
-0.9457064932830209
-0.8348858521832033
0.05551714726720651
0.779368704679916
0.5592064878679276
-0.4376479370044312
-0.1215585505631022
0.649966795662664
-0.7288818940980666
0.8842943812912066
-0.8324843503136653
-0.05181003136129309
-0.009137466330042997
-0.7885286091551068
-0.109727170296306
0.7149731827749665
-0.6052460124730297
-0.9363446774668905
0.9272072109557067
-0.7313797074391939
0.6915105536218134
0.0398691536756931
-0.8083180639492077
0.03731063803394502
0.7710074258021669
0.06163441602579876
0.04136322764211988
0.4331905619678988
0.06141210537575527
-0.850889982165421
0.7894778768902194
-0.6423803596938898
0.5914875492871984
0.8907118682855021
0.06999367354569766
-0.9607055418924279
0.05582601213182744
-0.04751187215775326
0.3785668574100328
-0.3812298300071696
0.0658015788357606
0.8422355010089394
-0.8402876589971353
-0.7326682112032321
-0.8090722347429751
0.02054362527885082
-0.164988007886241
-0.8521497089884497
0.01966536236206323
0.6250478763522261
0.03687498598849701
0.02854210433760514
0.530664381711616
-0.8068718745514698
0.8441825084286129
0.5658517005194146
-0.8482042869617065
-0.866351006569221
0.03806481210537796
-0.03921428273540495
0.837815863642732
-0.7986015809787639
-0.02346680459057855
-0.7718824951759923
0.5443525565720763
0.1519181239524478
-0.03094398704221629
0.8971884540917482
0.982724356015624
0.8614839397058944
-0.8418185769577925
0.1473619850531638
-0.1473619834602477
-0.1186948107770566
-0.4815632111437844
0.0439152734909638
0.2709533834823563
0.03074265580916089
0.3855641963553612
0.8737216480169634
0.003003220824878943
-0.01128770354931394
0.6586162194698177
0.3413837805116918
0.7835129461176209
-0.5834230395022636
-0.7780499620100548
-0.81230844495459
-0.6798565132554233
0.6798565132301083
-0.1677295920630626
-0.1548113846922168
0.6016140147041824
-0.8121357602260437
0.2105217454713059
-0.4937004163591144
-0.5690051858427364
0.278236307397246
-0.9722517546825451
-0.9016171847352815
0.8498071582496831
-0.8162869736108254
0.8368305975024685
0.6486908706561246
0.1344309519311661
-0.7831218225453422
-0.7724392894230704
-0.1458950577433351
0.7244027968559781
-0.5785077390010159
0.02789553437439806
-0.0152692605954256
0.01858178398020113
-0.003312524699940732
-0.3551766917519135
-0.1263865271851825
0.8798503194036775
0.7411719583190565
-0.2434560226820929
-0.4977159344574318
0.6196133962122844
0.6852449319776044
-0.4705574811227992
-0.0007847543686906704
-0.2849770292419023
0.02583330905746935
0.7446755731110593
-0.7705088825646226
-0.3235608864942944
-0.07202088813376895
0.07551692799611416
-0.9602122236294354
0.125248158436044
-0.6777048125426267
0.05192048260172885
0.6412854295641035
-0.6932059120975713
-0.7568980254945182
0.0791932129203458
0.5883397467512669
-0.6603606350014072
0.1563937234232567
-0.336283997925916
-0.7710328989109713
-0.001406390381138515
0.3712498037368354
0.6015591857407872
-0.02616248827352191
0.0240648675652233
-0.02406486698465733
-0.01796137592474892
-0.05160898273214536
-0.2251860738674565
0.02056326660241203
-0.01756002157042669
-0.7341579117620701
0.2793405123864485
0.6797091838287679
-0.6901222071654054
0.01041302312810228
-0.5977322250896683
0.6496527120545363
0.6530960757141649
-0.0647563332209026
-0.6317540882169107
-0.1251439325375118
-1.049930770198984
0.01114474725093582
0.1362172344778806
-0.708324602979887
-0.7414812500803269
-0.7632473692048432
0.3653576916383913
-0.4130066086851965
0.4691381809888888
-0.05613157397263573
-0.6759890447020183
-0.03233555836325803
0.5010352694073161
0.7306789601339141
-0.2330404036605736
0.1106586665957244
0.9616186125696851
0.4457936743844023
0.1342542560034352
-0.5800479302615885
-0.6784118921101924
0.002422845493902951
-0.044447070383527
0.02917781642812074
0.6370581750221067
-0.7747429995907849
-0.00245890298526315
0.002458902509441823
-0.6006073838410884
0.6482470346150386
-0.04763965042546335
-0.6498697851296834
-0.1132805801329764
-0.6716633740041636
0.0506710716745489
0.6067103028562271
-0.1371649968591335
-0.8175584336913441
-0.5556303765174433
0.5666990311875604
-0.01106865331055713
0.6342135903968168
-0.6238005620082511
0.3222489143697327
0.2141878715654692
-0.5364367859585591
-0.1044230777895224
-0.6025486777146913
-0.09065723346619192
-0.1548137133067709
-0.5049593055186335
0.404182463190632
-0.498723778435622
0.1264959771567597
0.6783466147885344
-0.8048425921145277
0.5992048935402977
-0.3713250167018423
-0.04168159028642791
0.0733204604808618
-0.5782797581419568
0.551867923527514
-0.0404158694616431
-0.5114520539502106
-0.3121974067053007
0.3047477435345174
0.007449662469332031
0.453351589864895
0.1221876691783094
0.05054739526848957
-0.3157582264976365
0.1566535561853597
0.1591046701370978
0.2397717909748798
-0.01456904069626879
-0.2959931641636988
-0.3130922432377715
0.366245349915474
-0.05315310761134789
0.7894578075575439
-0.6281680662153507
-0.02170171820164814
0.4994192358243112
0.2809563854287396
-0.5244124145229528
0.5774908463597455
-0.5774908463628231
-0.2897628926326106
-0.5864693475251262
-0.2955371806785415
-0.5864693474675905
-0.5953478562073959
-0.8385074352810028
0.1700531011523516
-0.5842528082805518
0.8211856545864887
-0.003583563969021535
0.1195331371606344
0.4820260474999969
0.09668685903602653
0.185295908364076
-0.03622278952697282
-0.1490731213965638
-0.01755376563381067
0.5940415800387675
-0.9458631991350418
0.4278492101480215
-0.0004832986119284995
0.001643412153245707
-0.001160116941823511
-0.6432640746038556
-0.1317737460846419
-0.4662186569584515
0.6004729120722314
-0.5037813105597404
-0.3205266543653016
-0.2577531259594912
-0.2715235401312128
-0.1120560896616837
0.1120560898145413
0.1526783486203491
0.05829487375139222
0.1964406519763322
0.4545691523534099
-0.5728847221898169
0.1066660687340084
0.2444639882194679
0.4661625888564475
0.5338374100437929
0.6420349514850894
0.08284513908609673
-0.001174196912275382
-0.08167094884762292
-0.2768345950860854
-0.5407238383771581
-0.5486496426123523
0.1140634221765161
-0.1260434908135657
0.01198006804466863
-0.1059519904550814
-0.3860948280461791
-0.044302728710101
0.6510130066995616
-0.4987429902967101
-0.144521084399704
-0.337933865329518
0.2914954985004518
0.1231783588275766
-0.6041864297008602
-0.203952377073234
-0.2616438169791285
0.001226608285375166
-0.4219592975296361
0.3221595293740645
0.09979976734552115
-0.09138285604531719
0.2916103998618103
-0.8959230310437292
-0.4580640497943125
0.6334592406400203
-0.7729160390982124
0.6684929612605157
0.3426296685767218
-0.1261021396183274
0.2257136481062658
-0.09961150727516936
0.02585215027901369
-0.5862479447222516
0.029317110881449
0.5569308342987339
-0.9007320566631249
0.5468093597768878
-0.6655041707383318
-0.09605603795779115
0.1091483813867174
-0.1091483770277642
-0.3165429821849446
0.3640705024473256
0.01449636428406451
0.02711035873040315
0.05573478003145847
0.5050837297399248
0.6620924414534759
-0.7407745608344158
0.02867795981093705
0.02354255139915093
0.0005223268060128975
-0.006817277690492039
0.006817277225073206
-0.4157386721805782
0.5379263402507203
0.01518851143655738
-0.01518851165514609
-0.7922434462834828
-0.06026077962987492
0.1218951981267157
-0.4537363160107098
0.5604023839178885
0.4503268030041324
-0.4979664581576166
0.1497588241312843
-0.1497588233393509
0.03848609276151566
-0.003115295655325904
-0.04124304531039266
-0.9772006319247902
0.5416049867387605
-0.4718702393139396
0.04136322957968679
0.5144413535138159
0.03102477856763045
-0.5454661316525734
-0.6158756609743274
0.1171326680667791
-0.3297911335884341
0.01344733037766324
0.3163438038692981
-0.1539049560212682
-0.07913544369803445
-0.5407480492763276
-0.04549990461009752
0.136217234294884
-0.04112493785330718
0.03866604155484316
0.08163898048012928
-0.08163898633640941
-0.5387591571668192
0.4856060612355176
-0.4143720790158815
0.1613362671929311
0.6221766788435216
-0.09802188417605015
-0.005483112799155541
0.005483113983949068
0.5329742070004106
-0.07352205015214801
0.006150734523451213
0.02706885298913119
0.03454594816106521
0.6866349907779744
-0.7601570406104374
-0.659311385787769
0.6376096617946175
-0.1077997727699866
0.3127665866086087
0.746174218063173
-0.01796137812332521
-0.2671657168508123
0.1486946364106312
-0.7446801223514036
0.4843728676954646
-0.4227411136202757
-0.1014343211387744
0.00360450115442651
-0.01452687202945747
0.0193890503587004
0.411748631844385
-0.1216785869428108
-0.3897734664259346
0.6289252382381711
0.01905990959143623
0.0105214702419397
-0.0105214705940541
-0.3568286655508382
-0.08419001505739965
-0.560649212293273
0.5570656487073363
-0.2383862004315662
0.4648135032731658
-0.150968417406633
0.728491889419154
0.6732347978640567
-0.04112493806639165
-0.6152113061056804
0.5612987444722842
0.2884903726852052
-0.2864758987887752
-0.002014475796665454
0.5462267995581739
0.09338716665137553
-0.03888229771076191
0.1970893729306468
-0.1582070761730066
0.1205212764240114
-0.1205212805074258
-0.858768079998543
0.002396844997187715
-0.1130380686662869
0.1401069236070298
-0.1320471491882865
0.1320471491407121
0.02354254322499991
-0.02344447950539009
0.6710303750021451
0.05874647935373531
-0.3231948079869771
-0.06290002129677318
-0.4712405095908513
-0.04944349169116821
-0.1517936464302887
0.151793645841992
-0.04318487062563572
0.1431798914705162
-0.1431798912701804
0.1368325591806085
-0.1368325615635792
-0.3155874375789267
-0.114576327929947
0.2266718229596045
0.1030113351842784
0.03486563600585559
-0.821110260771188
-0.1974257736212657
0.1703742516388965
0.02062195731532099
-0.2655655936418328
0.1256971071110831
-0.1256971069512527
-0.4140389775604604
-0.08468480285160679
0.2366313170208557
0.002155388269854203
0.04051404244666332
-0.5432279760762037
0.5778341244859772
-0.02423304262280269
-0.01895183362178651
-0.02861145069744829
0.02549615525175515
0.006578947419027971
-0.1841815768927724
0.1776026291470714
-0.107958577760128
-0.2283254225864814
-0.1448835471182174
0.1448835468507591
0.07299529447607934
-0.07299529441184156
-0.01949401813954027
-0.1087025739406702
0.1281965927016171
0.2419447146459162
-0.1827158759164423
-0.02536542946138182
0.02588776662047843
-0.1384964022515187
0.6241024669309223
-0.03906078447572962
0.4219059692450974
-0.04197795777991247
0.06171450832905144
-0.1535848400513018
0.1535848388340111
-0.6361870737600223
0.3090220043534428
-0.07932280423828987
-0.2347854220800632
0.003579425784966248
-0.1223647871210895
0.1628788279186065
0.194582014359946
0.09759231094115289
0.09535089032430057
-0.06080494129700084
0.07251184842830578
0.04155157699100579
0.06382706208333409
0.1065471839902515
-0.09574675418153419
0.2064054130041746
0.0129803601759293
-0.1133067909679884
-0.1019333713200413
0.09796626676451392
0.003967104992667439
0.01302108000606566
-0.02291804004247689
0.03788481071181022
-0.03788481067312244
0.07472458373363533
-0.05472904743924011
0.05472904711147189
-0.224576275305978
-0.05159228257307476
0.01146468517343357
-0.1031193086026525
0.01631127953123459
0.1082606986303872
-0.1082606984288422
0.2943817774159787
-0.2716201942932219
0.1636616186437135
-0.05060294180319185
-0.2210172540094995
-0.01760062477933465
0.01760062490585005
0.3672790301038013
0.2852727582525322
-0.5273729911299062
-0.09399963440315273
-0.03204385380999807
0.5286153024063419
0.2133332817630345
-0.1695734064186096
-0.3815182881333478
0.07650553225036465
-0.1478882164200334
0.18744931073163
-0.03956109433217455
-0.06670911854603565
0.0667091185136079
0.8226797502988153
-0.5606701446555968
-0.00342126155106711
0.01644233834461544
-0.01999106841686639
-0.2865851320386742
-0.01748278503756382
-0.01283638952927008
-0.1317307929083511
-0.5719918042535443
0.555925309111821
-0.5691857923585564
-0.006910105685826735
0.1025064481854467
-0.001791189137697357
0.01675227428406847
-0.167879285000727
-0.3366885078746816
0.2335691992391705
-0.0546045038076246
0.03511048687324689
0.131721713573147
0.1730260295939598
0.3361207046286775
0.2768323025179401
-0.2786234914100884
-0.06326732458664441
-0.1548634223401282
-0.2213380882945418
0.0748886973738131
-0.01106163581545394
0.2142617809732198
-0.1975095061212485
-0.08626897097284784
0.1587808180329948
-0.3549979236594636
0.2088100170281498
-0.1924987370763106
0.08962561448115298
-0.4793990860266082
0.1746129256087309
0.1697845987440997
-0.2560535693117096
0.07243284969846578
-0.1942147054827164
0.1767319198555511
0.01743641233259578
0.1413444050590359
-0.03954054856639024
0.06629769663102708
0.4666765096585616
0.02028419097313949
-0.07584199543783392
0.05614024404907852
0.1255800560000241
-0.2608991798829745
-0.2308841336911176
0.5597080907606512
0.1578878441119466
0.07874347275596262
0.07579797763436494
-0.03092634859586576
-0.008187717134607456
0.006173231166094733
-0.03278913748992932
0.1712822546056799
-0.1781923597891545
-0.05645294158652985
0.02246648759123825
-0.1466762774267977
-0.05287030085184421
0.1499524747408731
0.2770926614149276
-0.03888861893961999
0.01730843741256474
-0.2557201745773422
-0.1307277227915238
0.2355861772114141
0.1792313010928996
0.1297907001885003
0.02176304545422741
0.08913581101317661
0.05206392035943342
0.4530198092955102
0.01694746184435189
0.09694890212111021
0.04385077870690671
0.07158440938794181
-0.1154351892079686
-0.2421002341481784
-0.2009943400777538
-0.02002291242776473
-0.2023064278414582
0.2757430917643595
)
;

boundaryField
{
    FrontBack
    {
        type            empty;
    }
    Top
    {
        type            calculated;
        value           uniform 0;
    }
    In
    {
        type            calculated;
        value           uniform -1;
    }
    Bottom
    {
        type            calculated;
        value           uniform 0;
    }
    Out
    {
        type            calculated;
        value           nonuniform List<scalar> 10(1.035314495818561 1.064431826059474 1.021445607684466 1.019226462043735 0.9970408908602587 1.015261343867789 1.035312813335079 1.062705602155705 0.8672537343125241 0.8820065282234801);
    }
    circle
    {
        type            calculated;
        value           uniform 0;
    }
}


// ************************************************************************* //
