/*--------------------------------*- C++ -*----------------------------------*\
| =========                 |                                                 |
| \\      /  F ield         | OpenFOAM: The Open Source CFD Toolbox           |
|  \\    /   O peration     | Version:  2412                                  |
|   \\  /    A nd           | Website:  www.openfoam.com                      |
|    \\/     M anipulation  |                                                 |
\*---------------------------------------------------------------------------*/
FoamFile
{
    version     2.0;
    format      ascii;
    arch        "LSB;label=32;scalar=64";
    class       volVectorField;
    location    "938.5";
    object      U;
}
// * * * * * * * * * * * * * * * * * * * * * * * * * * * * * * * * * * * * * //

dimensions      [0 1 -1 0 0 0 0];

internalField   nonuniform List<vector> 
808
(
(0.7562565353090679 -0.01751349935648314 0)
(1.031211737423994 -0.0124971116308213 0)
(1.116539840548251 -0.0004507945659615858 -1.811805151494586e-20)
(1.08512586797107 0.01258718607324957 0)
(1.362153367844958 0.01592907053240925 -3.897893964197231e-19)
(1.038642653917144 -0.009346250473381924 -7.149674209828392e-20)
(1.013650683803883 -0.02033483144195005 -2.320160236944112e-20)
(1.078530918909963 -0.004803618574557664 8.922503858145482e-21)
(1.252687835986774 -0.01961753583420204 6.35103860437197e-20)
(1.084412930838086 0.009411247961244741 0)
(1.01321688068298 -0.01130985565060279 0)
(1.304402967764563 -0.05230771114926375 -3.545312219294478e-19)
(1.085965495288522 -0.001559124065978365 2.02823790772021e-20)
(0.6750341608305581 0.006419577464136414 0)
(1.285031171268524 -0.1195659221793664 0)
(1.08168621989196 0.0001522881465967585 -3.802153163936295e-20)
(1.233512770023019 -0.1517312683162442 -1.004066670577135e-19)
(1.074257229425374 -4.815201735730282e-05 3.150696242675273e-20)
(0.9924187801178757 0.006659244176080153 0)
(1.026737785335854 0.009103295199582515 0)
(1.041168305608164 -0.01361552117854516 0)
(0.9874826676567873 0.04478706700161033 0)
(1.051079345392386 -0.006147014990573556 5.554794139061674e-20)
(1.053424458954845 0.008484248267982821 0)
(0.9332391679109702 0.1987099249931478 4.600757603590816e-19)
(1.165419539884802 -0.08994171853657128 0)
(1.1846571917219 -0.01852802988816714 1.581444609996241e-19)
(1.077303072199509 0.009426105426410609 5.199079530387866e-20)
(1.084225336253665 0.001951238707141576 5.052337212932393e-21)
(1.072069602410844 0.03096908145843557 0)
(1.075641879990139 0.002507299766952243 -1.17338956470826e-20)
(1.033220285006559 0.006298062240088539 -1.950274712195119e-19)
(1.059845822238804 0.01483272713866439 -2.401262187942015e-20)
(1.089033443623273 0.005182414402896727 -2.925807275630292e-20)
(1.119585347312852 0.03739034455653033 0)
(0.755091010840084 -0.1216207796277808 -4.539469951235628e-19)
(0.9543744016343589 -0.005771868421299946 0)
(1.069004124849921 0.02249035577623406 0)
(1.068844749109455 0.007308198277227807 0)
(1.073607745212302 0.00882630451664615 -2.833880865653229e-20)
(1.092083880385301 0.02312047759975804 1.109277219206914e-19)
(1.149636095348802 0.00320613130378377 2.173850892682877e-19)
(1.09566717869659 -0.002481875470612072 0)
(1.015888145198288 -0.009154563434466849 0)
(1.130171718432959 -0.09872180555839766 -1.660303340286052e-19)
(1.044077175651158 -0.01173687023298375 -7.982101210167761e-20)
(1.058435214802473 0.02667437332702545 -2.843027739163512e-20)
(1.230071538629795 -0.1114150265246802 -5.627096589660045e-20)
(1.067768604811512 0.01228180816358808 -4.247528682899258e-20)
(1.255660241775401 0.01775586486962928 0)
(0.9967684345061102 -0.01800817879027348 2.059339252319597e-21)
(1.044531861914319 -0.002322314334853959 0)
(1.087407743768308 -0.00235467470371573 0)
(0.9977822657285691 0.006994171308030387 -1.883657640191519e-20)
(1.252171106488385 0.03419043051736545 -2.32844278432625e-19)
(1.063862186843751 0.01842643656418102 6.127424088114962e-20)
(0.9890555996202922 0.008655558428533352 0)
(1.018229880158023 -0.01118020315341118 2.416730622851423e-20)
(1.106719229903424 -0.000853217193132221 -1.193653955636167e-19)
(1.0617470048053 0.03114409855367203 0)
(-0.06475327197596489 -0.0172384288113124 7.066945147228778e-20)
(1.154139425214266 -0.05151232185416662 -1.908617008539063e-19)
(1.003101087046229 -0.008772932920412672 -2.656447227592176e-20)
(1.1832694080878 0.06663095793481606 -1.222204546478032e-19)
(0.9980983672120056 -0.01046057719025035 2.983668793137029e-20)
(1.083873110417437 -0.005551924127668353 0)
(1.242744199602882 0.09631157272515831 0)
(0.6960161984575119 0.00319415440959163 -7.502833103240262e-20)
(0.9900610418348115 -0.01511705760702657 -3.108004613663685e-20)
(1.458887116867084 -0.01696368043015269 4.488907130329983e-19)
(1.060645416253025 0.007554771539921096 -6.796345214224145e-20)
(1.36591002895134 0.0984031927269233 2.920155142223707e-19)
(1.054752801270121 0.006782480090970549 -1.835019122955989e-22)
(1.081203768911368 -0.0140841103519254 -5.221835698871105e-22)
(1.163817922946625 -0.2352825178102078 0)
(1.022461956610094 -0.01435763908300258 0)
(1.017852750507076 0.01755732380111617 -3.129446801843324e-20)
(1.387572432602854 0.3499785395109709 4.168639546168496e-19)
(1.096995756838132 -0.04200492798399994 9.292255648068064e-20)
(1.046026437040355 0.2103868620663619 2.516502115522808e-19)
(1.1248816945357 -0.06304913687379082 1.154456086595767e-19)
(0.9221425286428721 0.005168290942286303 0)
(0.9755320737108693 0.01858492470604464 0)
(1.004077326874495 -0.04880053987152858 2.760637139405904e-21)
(1.010922047810764 -0.01313395231895924 7.382305983362412e-21)
(1.030804340803432 0.02568806960351494 1.398596343345929e-20)
(1.528060476325132 0.03724889318806854 3.274423451956145e-19)
(1.290656826339912 0.07171428371719311 5.49461911284261e-19)
(1.072628680486046 0.002886958100798759 -9.204342664211112e-20)
(1.199464675290714 -0.09725635640959467 0)
(1.033845570544317 0.001534937118176722 1.340759923275278e-19)
(1.163368344962282 0.02171530836429312 -3.214121381289984e-19)
(1.00147459062585 0.03236609947714237 0)
(0.9996292846549047 0.001997141245447994 0)
(1.044304107903256 -0.000315350232829759 7.721854566534129e-20)
(1.208852529677851 0.1041958076768847 4.036150665804898e-19)
(1.011086406018726 0.00695395706310218 0)
(1.089338053227307 -0.07179500608511685 -1.05600821800887e-19)
(1.149080584405247 0.03644267180712418 0)
(1.208925106640703 0.09307713846744346 -1.908903400511634e-19)
(1.108056036245418 -0.02854176082490673 -7.615717621909693e-20)
(1.027861742946799 0.01153949808814858 0)
(1.085418830088742 -0.00468260441017145 0)
(1.019963028861888 0.02552428189021045 8.130830055531776e-20)
(1.074194925314182 0.05325137582615249 -9.179240793606728e-21)
(1.10369458604481 -0.004352693626348773 6.236240195104667e-20)
(1.107192696363216 -0.0973822587567113 1.545611449425586e-19)
(0.9592414838184842 -0.002411799490718186 0)
(1.066563214684198 0.0313638513761533 3.853719276625296e-20)
(1.168061808697385 -0.0758619739218216 2.33245653103933e-19)
(1.053407569255367 0.04464237760548277 -2.916260411193624e-20)
(1.022693533259212 0.06757064091355926 3.733373263993065e-20)
(1.090716518986388 0.02622682190844 0)
(1.011887207635471 0.01663427115937376 0)
(1.028975489081328 0.009439291485318446 7.923238141498682e-20)
(0.9487050757433876 -0.03298446559155574 0)
(1.053288649660117 -0.005673797598966653 -7.871925995828322e-21)
(1.340169888195924 0.05998531638083057 -1.589438444624567e-19)
(1.079919233867201 -0.01333673646263972 2.567803140461504e-20)
(0.7441509077519844 -0.001788873084909394 0)
(0.5293766401096532 0.1525815767152012 -8.351329255228741e-20)
(0.7058599189510293 -0.0025319479872563 0)
(0.6991356414927559 0.01467270605885184 0)
(1.077776918282303 0.003485918115612626 -6.758666493388692e-22)
(0.9906325332089947 0.014470762985154 0)
(1.27990332996548 0.1231493532843402 2.486236635846625e-19)
(1.012301665202379 -0.02791950593124434 -7.832887385006518e-21)
(1.039503690025697 0.02133633292976039 1.469828365842516e-21)
(1.058403704841196 -0.01207173516981231 0)
(1.126424768907154 -0.009245384732717566 -4.970768902539945e-20)
(1.255208375192252 0.1322662415698114 -2.175122153059775e-19)
(1.08891777763036 -0.01113206414398293 -8.458756590597814e-20)
(1.070152080456125 0.02528748235466679 -1.099600848505684e-19)
(1.040883726102701 0.04672640992745402 6.93331472669909e-20)
(1.022302245320904 -0.003603953752407083 -3.4383084022878e-20)
(1.061392774808973 0.02357208959936673 6.063340048627857e-21)
(1.132245600554079 -0.005428102234116665 1.08171571898506e-20)
(1.041281007549086 -0.01351745800328702 -4.695831532838154e-22)
(1.087802107303513 0.03483641238384586 0)
(1.028593077024706 0.01325539167754215 0)
(0.7812602918502464 -0.06232621178293884 -1.845867402917898e-19)
(1.030196640876813 -0.002012326509743555 -6.879161526175324e-20)
(1.136489936191544 -0.001121808748925126 -1.320704211390999e-20)
(0.7035321057762386 0.006560391308551558 7.41145810677864e-20)
(1.175902623146575 0.01991785537224856 -1.916336448998403e-19)
(1.126035797901836 -0.003099397933760045 5.767738088283634e-21)
(1.129021295929156 -0.01008200326548002 3.46461649841538e-20)
(1.00094091786637 -0.002969833342806958 -7.482111062627117e-20)
(1.094367850916379 -0.06573245675799692 0)
(0.9849858416109294 -0.001348882335725131 0)
(1.058020312910339 0.00707833189487543 0)
(1.005748400484498 0.1888728264464459 -2.455343221189194e-19)
(0.7795052178026364 0.0124109421747461 0)
(0.8569059039030722 0.1021651294896082 -8.408254947250593e-20)
(0.09089787332815356 0.04166660101211759 -3.074477986323083e-19)
(1.173539824612136 -0.03100353926446426 -2.230275820589499e-20)
(0.6712909230953882 -0.007345405562981253 2.434236342306975e-20)
(1.167195777823907 -0.1062985468720057 6.985782817633399e-20)
(1.126645894776635 -0.00447176164651718 -6.165565346084326e-21)
(1.155837461995441 -0.04979931479479777 2.167291715944651e-20)
(0.09216670214824124 -0.200389018897187 0)
(0.2681405253467087 0.08343749076373647 0)
(1.251942242808733 0.1107292593605679 1.910326454000068e-19)
(1.021604069195969 0.01985535380876458 0)
(0.7376257844153824 -0.006336653067630998 0)
(1.075103343472559 -0.011909254384829 2.686457631303142e-20)
(0.9752188864766517 0.002806096450100277 0)
(1.2858268404697 0.1282404128783055 -1.513508265637275e-19)
(1.057457299035173 0.01124566240804505 0)
(0.9929422371725745 -0.008248673504153141 0)
(1.06523104477187 0.008041533779797985 0)
(1.006196160209343 0.02083766769056597 1.825277228019613e-20)
(0.9238526296708992 0.006991781992924795 1.136862192419961e-20)
(1.1761316362552 -0.1990898200713359 0)
(1.005067150201805 -0.0052236608220728 7.761617180823976e-20)
(1.059195132336745 0.006208442423695967 0)
(0.7746002040553298 -0.003340782493631751 0)
(1.215409212818029 0.02822924921533432 1.66221782912506e-20)
(0.7050892997555721 0.001318976836553568 0)
(1.43364474781647 0.08941915123439723 -5.306851945008819e-20)
(0.9936044732675797 -0.00667289363023829 1.673976639666919e-20)
(1.275481655417835 -0.00184885144084162 -2.933058672515188e-19)
(1.059950772479283 0.008744644012226804 1.385014777135012e-19)
(1.000898429707586 -0.01360932061599923 0)
(1.217927283205613 -0.1539011991446249 2.032969376343645e-19)
(0.7331809128583532 0.01379256667250479 0)
(1.098076483602081 -0.005146169671295569 0)
(1.151972753059525 0.06555702654986642 2.007391153701523e-20)
(1.006813493863618 -0.007341340847062299 -3.014299258839843e-20)
(1.120329749163657 0.05017750491240873 -1.748089122470343e-19)
(0.1388545175146731 -0.08398947712284467 0)
(1.072858853716095 0.03692768288816261 0)
(0.6615380798601896 -0.002914159360300332 -6.704107713958072e-22)
(1.012098764229653 -0.01961410964110791 9.616563378751347e-20)
(1.061773643116663 0.0006693033511460556 0)
(1.085704681327334 -0.1306482187155438 3.763402147815221e-19)
(1.002560929687291 -0.006202446570116296 -3.47181318953061e-21)
(1.00183235249757 -0.004802132228694367 1.109948142461097e-21)
(1.093978165019897 -0.00927264812230155 0)
(1.020738963827892 0.02032649629341969 -6.312241393115795e-20)
(1.106760130520324 -0.001671689604881148 6.6307907352609e-22)
(1.073782813203076 -0.01102415388789078 6.526809922868817e-20)
(1.085776740317017 0.02237818568655123 0)
(1.328268431046136 0.1652057352956239 0)
(1.002033400474016 0.0002469655983425713 4.414984914526614e-20)
(1.323849276851691 -0.1270497244825284 1.547740402811195e-19)
(0.04104876919932046 -0.1605318543568384 -2.52616988052201e-19)
(1.071321650972056 -0.00557668907351285 0)
(1.117548226795262 0.002048476656342154 1.231201159903164e-20)
(0.7269754140891826 0.01787617739272576 0)
(1.062208210599786 0.002322954523380241 0)
(0.8696793464024102 0.1665347363314272 4.772567398800656e-19)
(1.270250920190907 0.1235535619835223 1.83265251673951e-19)
(0.6541989346231079 -0.003114384477685496 -6.282853668791192e-20)
(1.042456010508313 -0.005287978846392065 -4.576645540778264e-21)
(1.054920376540146 -0.0002820504807760525 6.631624115980125e-20)
(1.360191592817467 0.124740381438693 6.77622348531737e-19)
(1.336268820242401 0.253003253404868 0)
(1.058749134441325 0.002424399259036312 0)
(0.9958537782166615 -0.007196041632769649 1.498857467802591e-20)
(0.9946348036984414 -0.01104501782307615 3.124402454213673e-21)
(1.384220599287221 0.2005480107368542 4.257187579760663e-19)
(0.6816590162541457 0.0006426753435732058 9.820963972731866e-20)
(1.00561832635179 -0.002025403627105293 -5.956711114350352e-20)
(1.098005087285539 0.01302757379405609 2.53879862746716e-20)
(0.6694698087093954 0.0050124143699528 0)
(1.066084978143714 -0.01202440253005611 0)
(0.9895934404464293 0.1311690888819921 -1.204072849145763e-19)
(1.083412669291904 -0.001619035895703488 -2.44938159620228e-20)
(0.9820410238435524 -3.645283240157073e-05 3.280516713510447e-20)
(0.9912102821628755 0.006017093435093089 0)
(0.638293813878542 -0.001148218659878091 0)
(0.9768946758775932 -0.001252180380776302 0)
(0.6420312786478832 -0.001494327750637054 2.726012170873742e-21)
(1.08889476237604 -0.05768562517102679 1.201354033751246e-19)
(1.111924751259757 -0.0008310225775274471 1.243178061405231e-21)
(0.9580395037397359 -0.0009246845843605392 3.915759842517826e-20)
(1.015682656480409 0.01063251948554102 1.662374927148661e-20)
(1.064504326196902 0.006272911356354528 -2.211652112370549e-21)
(0.6347697375789102 0.008849192185799127 -3.648878136337643e-20)
(1.001621160815921 0.0114464336884992 -8.550059737522764e-22)
(1.035282887423798 0.01220738304411874 5.009377147652659e-21)
(0.9881907044432086 -0.009281586377146264 0)
(0.6100727178754439 -0.0004873788403730624 0)
(1.068703560253515 0.02276364688565095 0)
(1.016209571526738 -0.01549090654822772 1.060632063363527e-20)
(1.022057519880692 -0.003586147234692309 0)
(0.9917662590827521 0.01511270550496499 -9.314654900065561e-21)
(1.012289754485913 0.005396160981352428 0)
(1.127660135931595 -0.006114755317777109 -1.234375904426564e-20)
(0.03652047954959071 -0.1388534325136202 -4.561509709156128e-20)
(1.036461739553356 -0.01573347668389712 -7.648914218817591e-22)
(1.044899005547761 0.007353340870586545 0)
(1.085925043338044 0.06462595817098712 8.40917597413634e-20)
(0.9698249415610063 -0.001461422173174966 3.118522083717135e-20)
(1.020663810172252 0.01714327564285793 -2.363809580995657e-20)
(1.004079347998725 0.001851517175051809 2.476090400074704e-20)
(1.04096915496141 -0.004678459151347913 0)
(0.640959723196723 -0.004002377218037974 0)
(1.025905346278538 0.02450047721187017 -7.376834222500788e-20)
(1.078919776297414 0.00326932045911432 4.816291605029625e-20)
(1.014879095166941 0.002168650581722326 0)
(0.9807125808935584 -0.002856446355073017 -1.918121407083067e-21)
(0.8747683646467411 0.02527482487010436 -1.369423206600981e-20)
(1.013981852370348 0.002990407403614231 -1.021540075805603e-20)
(1.027647009210509 0.0008337344871881384 1.773210157723086e-20)
(0.978968228925548 0.0007479812091285066 0)
(1.00352078597436 0.00886256900431668 3.477531149370297e-20)
(1.106234817555067 -0.004582498703375115 0)
(0.9271044043250285 -0.0004831545817498276 -3.418948696200182e-20)
(0.9604660831882522 0.008804742501535547 0)
(0.9138735615656972 0.2107406329644712 5.188223738206403e-20)
(1.010921242093256 0.06711276881503898 0)
(0.9923120428085608 0.003647143288277248 -2.306394900961706e-20)
(1.053413801844211 -0.05306449287923197 -2.77169364803479e-20)
(0.9912608364207178 -0.001116887375202764 3.425540681953342e-20)
(1.011452947541394 0.002218681252138751 0)
(0.9788770042794571 -0.0008471667092022394 -3.197845852406766e-20)
(1.170547125261803 0.09653604566838458 -3.325686378314393e-19)
(1.068693621201875 -0.2638895674716991 0)
(0.9940845725163755 0.002117748030285596 -2.193385595761332e-20)
(0.9823807060530091 0.008888375902114082 5.002803160881692e-21)
(0.9604355588080707 0.003206802743125068 1.050951851489646e-21)
(0.7459845676904659 -0.001092248655243943 0)
(1.1150434852274 -0.07965672925115634 0)
(1.007871374614075 0.00257074212130999 -2.142192630096485e-20)
(0.8975428998511941 -0.0007999670401229177 -1.020360116628335e-20)
(0.8541352923699574 0.01865502808774224 5.31430325474688e-21)
(1.011186474271574 0.00532998580970093 0)
(0.9498342704805492 0.002697064637317635 1.561146830852235e-20)
(1.005788719727758 -0.0002457841745790489 -2.30683552405838e-20)
(1.021287767304532 0.002014130744334849 -2.561501034367329e-20)
(1.111565646541529 -0.004627967237092672 -4.915881938147698e-21)
(1.116137852124217 -0.001520851533226675 0)
(1.013159617512322 -0.002140079752630066 0)
(1.023637957620961 0.002698626772060137 0)
(0.9490704566694831 0.006152306677738308 -2.186003148246843e-20)
(1.01788007129921 0.01331067088676872 5.37089190734931e-20)
(1.079291401245948 0.007000293227164388 -2.221525496040247e-20)
(1.037806413260811 0.004193266926071829 0)
(1.106083049100122 -0.006803756485625028 1.818564495077733e-21)
(0.9963302528082367 0.002117387450926558 -2.203896986755307e-20)
(0.9844758240614656 0.006051196849987569 0)
(1.01194542554807 0.002367637232200252 4.671891693172482e-20)
(1.365239265271502 -0.3139422303904807 -1.13012152796841e-18)
(1.122480448615316 -0.04519180392220347 -1.087175699176352e-19)
(0.9715251201399766 0.006030483936855385 4.888319237366669e-20)
(0.7828059306498197 0.02211825147565976 -3.230266624544224e-20)
(1.220224586654277 0.05178233662309436 0)
(1.220104604787189 -0.1376664233685719 -1.467217145765977e-19)
(1.079689455924819 0.006553151972984195 0)
(1.00927520599511 0.001756767542486753 2.217227449907429e-20)
(-0.1634380843134685 -0.08675111576656382 0)
(0.99397001059398 -0.004660021462056388 0)
(1.012419149015457 -0.02315682536152566 4.442024365096155e-20)
(0.7061052710804133 -0.01942815773456278 0)
(1.096802055521157 -0.01497503219123549 2.196397813395379e-21)
(1.042774352189577 -0.00726682277086526 1.600979436236274e-20)
(0.6331070090502986 0.004172978637778479 0)
(1.447162074890983 -0.1222924720393891 0)
(0.9868522885936362 0.001696141333272185 -1.086898956133315e-20)
(1.069703301088029 -0.01494053153573095 0)
(1.038100821181325 0.0004865679416001106 2.162326855610256e-20)
(1.086177747442469 0.001485625450084083 0)
(1.00851943980576 0.003152272506502349 -1.102615256069512e-21)
(1.006131556500918 0.003005816967646839 0)
(1.014542502086142 -0.01400499836248989 5.363637662053513e-22)
(1.003138031299228 -0.02042626100918964 0)
(1.033469312902539 0.005433509875898665 1.792007628857832e-20)
(-0.2063311671546111 0.04584231554712658 2.675387183872065e-19)
(0.8197968936583535 0.03580818897311444 5.372705078784665e-20)
(1.00558677803684 0.002190368281188212 0)
(1.130619432944312 0.02538629706435043 -1.260838832344478e-20)
(1.118058611290131 0.01934568103275872 8.893039776596738e-21)
(1.054007599314658 -0.01313426874150461 -1.281426398657991e-19)
(0.9987838188423641 0.01035963683765531 9.992793352444067e-22)
(1.080355430075999 0.005230156633549891 0)
(1.185164650532934 0.05183847587534585 0)
(0.8353151638627709 -0.0750157142065762 4.595002799647993e-19)
(1.101954215833897 -0.01327815761494346 0)
(1.032412922954067 0.007688790678681537 -7.450598578584529e-21)
(1.042728914834409 0.005247719431286971 6.107890876100719e-21)
(1.051809244577205 -0.061562713840417 -7.47025920746418e-21)
(1.140251408810033 -0.001621071029728167 1.673682480200736e-19)
(1.079903797491041 -0.005839042604398958 0)
(0.9951989491928227 0.001343387749572974 0)
(0.9965461979358982 -0.02394353517127444 -2.241558393671607e-21)
(0.9913553841311057 0.002578678840226993 0)
(1.029268704382254 -0.03836027930608973 6.360356430147451e-20)
(1.294510936071845 -0.09434251597804603 0)
(1.047694116309586 -0.01580753242508208 -6.109564058771678e-22)
(0.9861560984380487 0.01688331173306764 -8.566602974877828e-20)
(1.03520241985552 0.04107826252379326 -2.414448323290248e-21)
(-0.09142006400904731 0.1659700239746451 -1.634868639800885e-19)
(-0.06268242424859251 -0.2911511292819042 -1.403339768428657e-19)
(0.8650874375889116 0.1261263071690583 0)
(0.2926816536010609 -0.005520183378520185 -3.107146581190355e-19)
(1.012480210149106 -0.01649871891825849 -1.550941008098906e-20)
(1.063930270618191 0.002616597904882067 -2.115721588798371e-20)
(0.993088111246049 -0.01891726418717026 2.857236175899627e-20)
(1.022403807714092 -0.02725889680224627 2.476120847873571e-21)
(1.008369503670669 -0.03166585318909373 -6.534967712946987e-20)
(0.9887061842272498 0.004864124830890476 -3.470430804919432e-20)
(0.9933129715134954 0.004314970831640666 0)
(1.025009385054907 -0.001859848392843652 -3.593703235051724e-21)
(1.935524909804314 -0.1552175711130487 1.075678556950946e-18)
(1.05101560329338 -0.01342131903826013 0)
(0.9955755405932237 0.007546670534628127 1.546273043013724e-20)
(1.00280612504071 -0.0001565763774744917 4.085259530440027e-20)
(1.172363948741029 0.1330367550323865 0)
(1.001760682286012 -0.007827018449584904 4.792258550488898e-22)
(0.949804187560555 -0.003094926874977273 0)
(1.037844520103036 0.04174379163146525 0)
(1.298119589475154 0.1633305018386728 2.259249042853471e-19)
(1.084738158089987 -0.01126066751157961 2.254003684418393e-20)
(1.018573908832613 0.03188523965665823 4.724590044772943e-20)
(1.084105826910208 -0.01025853194060144 -2.174954238461402e-20)
(1.050322277570897 -0.006736597931200858 -1.863648619946448e-22)
(-0.3841089542497824 -0.03946561373737238 0)
(0.9980667998596229 0.01416266435668557 0)
(0.1123135706898116 0.05967270000606816 -8.536725438322907e-20)
(1.006323578136104 0.02293902713846607 -4.174521687017143e-20)
(0.993527109383774 -0.002058029083866816 0)
(1.000434310021411 0.005864822475491596 -5.073370534646151e-21)
(1.081504034875041 -0.04213882172005767 0)
(0.9959199613354619 -0.01759405394376401 -7.676970003149288e-21)
(1.090169217733754 -0.05193069645649827 0)
(1.441920278455724 0.1783954347185362 0)
(1.054126038093687 -0.01182995283442839 0)
(0.9909558591934912 -0.0224441389076156 -3.840474426916265e-20)
(0.9839446143376168 -0.03907174166460588 -2.205396865797916e-21)
(1.018853977609978 -0.01698023860991943 -1.712653554794547e-20)
(0.9975705332898137 0.01705554072388779 -5.660792587434105e-20)
(0.9950056195642537 0.01013616575351291 -1.506947306130243e-20)
(0.9936387471978224 -0.02677487307598781 0)
(1.00301444215248 0.02558170032276421 1.971912238520763e-20)
(1.043050465693579 -0.0399357542020652 0)
(1.11071525294327 -0.03582298997436411 2.618776223413684e-19)
(0.9954186407407729 0.01736769874796383 4.678941474553184e-20)
(0.6151190670840583 -0.008667816854493032 0)
(1.138550572234767 0.1328852068220873 -4.820733333113785e-21)
(0.8508757335020103 -0.1046960773790459 0)
(1.138696576183614 0.07315568733093575 -2.696866984766798e-19)
(1.315058295607255 -0.3879212611453393 1.294804850026187e-19)
(1.075741426588392 0.06155541686027217 -1.339248395072083e-20)
(1.009391505097597 -0.03043493438486194 0)
(0.9554234465862311 -0.2149470306250542 0)
(0.5041649881026939 0.1435117084100984 0)
(1.012476816341802 0.01066382933537489 1.176681933123274e-21)
(0.6965630186128801 -0.02289849634748183 0)
(0.9984402272875332 0.01824910642764963 3.593717826245118e-20)
(1.021248395812989 -0.003042692070947123 -2.755248748777863e-20)
(1.079159531820874 -0.008073717260148505 2.805567981463822e-21)
(1.038907642356658 -0.006178904606438226 3.345141067152576e-20)
(1.042577865058688 0.01099497736911439 0)
(1.059086832707189 0.0301437507006316 -1.024312129668731e-20)
(1.050859373859448 0.03435287096236246 -1.826603659221433e-20)
(0.9825831517798703 -0.02192619075120467 0)
(0.6249408990614851 0.005132100360322533 9.184544640841503e-20)
(0.8941702323527148 -0.005875704753002416 -8.859581951429547e-20)
(0.9093652557683244 0.005329835133013043 1.441708862761171e-20)
(0.6295634908755241 -0.006380012095055655 1.405330196183004e-20)
(0.9781926868854673 0.0006667022524059728 2.639571564271598e-20)
(1.004457868080856 -0.01757250795907109 -3.557711352633117e-20)
(0.9667770235599046 -0.01600739802797151 -3.595334372092484e-20)
(1.085497088614263 0.001484447537494679 0)
(1.019342973840458 0.004349416051542078 1.063632955028759e-20)
(1.13296082071919 0.0487201787764092 1.304334311552417e-19)
(1.034209000235471 0.04122225051460229 0)
(1.022134650598827 0.002583609874973919 0)
(1.583276296090284 -0.1666044416470303 4.409745240528783e-19)
(1.040833728648342 -0.0335185150901776 0)
(1.019362467306884 0.006419428475818949 -3.765623510927264e-20)
(1.088898333217061 -0.003948276642623932 0)
(0.4797894108729018 -0.03370695552804904 0)
(-0.03622861673784217 0.01465167157747432 0)
(0.9900264510430005 -0.02410756768380969 1.213018325558163e-20)
(1.300458626500676 -0.09510986668649823 3.752172038186175e-19)
(1.035606222082895 0.03852237118489388 0)
(1.022424266225193 0.003297980684126096 -2.256822311153041e-20)
(0.9589166021529447 -0.1647316831453559 2.553117800774453e-21)
(1.252445041343188 0.07724937089812128 0)
(0.5982594759275582 0.7312651864522275 0)
(1.31020406634864 0.1513208396842364 1.115869858468388e-19)
(1.676745916069865 -0.0245205213612481 0)
(1.062312015837881 0.1106485065179033 0)
(0.7178763980249614 -0.01239531816259269 2.585940304321306e-21)
(1.052981022590769 0.04707549423901675 0)
(0.7184273192700219 0.1037275071553993 1.174980837510965e-19)
(0.9967854907248616 -0.01645898719297516 3.571946061035675e-19)
(1.033241862221124 -0.04078689907725155 2.681280079070464e-20)
(-0.375834002718836 -0.009601187294918566 0)
(1.071609611598855 -0.016343911429472 0)
(1.096174466587679 -0.01185450847660607 0)
(0.647969942395482 -0.5020042334327067 -2.484167113669053e-19)
(0.9920379740263342 -0.001129861003312721 0)
(1.091855936239479 -0.02165057005752608 4.297303341392137e-22)
(1.188336224526177 0.1214664243004124 -1.99495537659038e-19)
(1.088939331110972 -0.04063583999925752 0)
(1.005159687572944 -0.02132660428477419 0)
(0.8148196592069372 -0.1866511957665488 -1.73116466100877e-19)
(0.8978658642155272 -0.1329235100517735 1.555520326164974e-19)
(1.027600968089889 0.01121435097228572 -2.255703800694181e-20)
(1.023114263127482 -0.009186821335604832 -4.57119092584073e-20)
(0.8722261148201607 0.008715429493802324 -3.073869497407532e-22)
(1.504664553769383 -0.1929627727322755 0)
(1.301431706251463 0.1198631143671728 3.186981599292735e-20)
(1.245564856513224 -0.07643787807025655 -3.003443095686872e-21)
(1.095839062110539 -0.01856419235481832 -3.826103389579818e-20)
(1.043175088359066 -0.01294017113017259 2.451550085751888e-20)
(1.09281829883818 -0.03914415149754614 9.114893963444633e-20)
(1.032302304082657 0.01962165827985902 0)
(1.044646403308822 -0.03367117653744128 0)
(1.115892717082962 -0.009013625362062804 0)
(1.088120001289538 -0.02664522751001623 0)
(0.9978761619641335 0.01104469507946264 0)
(1.149277699722001 0.07587987953840841 9.464870052526342e-20)
(1.342660137679483 -0.1502602070525096 0)
(1.038904899558026 -0.02099512945754698 -1.782287994379397e-22)
(1.053599516270436 0.05179106045983617 0)
(1.010026547396507 0.01468177481418217 -3.983507417533399e-20)
(1.033761634339072 -0.008029622961135975 9.082312779605105e-21)
(1.088967552084793 0.0133559073942743 -3.259149678727821e-20)
(1.085064705598316 -0.02945818655459289 0)
(1.075743004789643 -0.002057431206967077 0)
(1.107059072216245 0.09462074333034411 -1.424880947612989e-18)
(0.935281248385165 -0.1492201681964367 -7.072363667292926e-20)
(1.172039046306417 0.10490359698921 1.102188671582233e-19)
(-0.4799400443565645 0.009360117860332142 -2.924943245087465e-19)
(1.019396450313608 0.02877038669360167 -8.87263600548787e-20)
(1.004600673526765 -0.003562885837642342 0)
(-0.2945846055819338 0.04050642931947241 3.558685952294539e-19)
(-0.05372386274310284 0.3196172154013179 7.442678353417785e-21)
(0.9952293624843819 -0.006305365932408311 9.733229117107146e-20)
(0.1908372908222841 -0.03917339724110026 1.4379832981163e-19)
(1.096358498514111 0.08232426540951311 1.522820336839485e-20)
(0.09398453658408684 -0.1085618851262692 -5.472483628061189e-20)
(1.107884837836514 0.003077219033042603 0)
(1.102280329278851 0.2581685079620475 0)
(1.021806097342089 0.02190756851619137 -1.737079028152818e-20)
(1.074575322689224 0.05696027951675894 0)
(1.025794239104565 0.02715643377172251 -9.732155109505128e-21)
(1.262413355960493 -0.5483680089631856 8.042146979698938e-19)
(-0.09603834159359535 -0.1961737860780394 2.201696509715953e-19)
(1.295689070806632 0.1173078089321162 -6.317351878016305e-19)
(1.123268879512235 -0.001946544920432791 0)
(1.13143239851111 0.09552926175998537 0)
(0.5281767280184081 0.08299505528020763 2.561267704852906e-19)
(1.023298229212726 -0.02108059183953529 9.305473676342215e-20)
(1.005633913789607 -0.02398349265977342 0)
(1.211883055898306 0.2713606537364482 -9.577151257782811e-20)
(1.256382295427796 0.1389396098235971 -1.598812087546054e-19)
(1.026614531554227 0.002851829787245237 1.53262952269219e-20)
(1.300035780610253 -0.0844971822002971 -5.017988918643242e-19)
(0.2952899400337366 -0.01458031915011898 2.605272581947087e-19)
(0.8274519445169987 -0.1457538761908952 6.668139672446838e-19)
(1.056008561477767 0.06139618727378929 1.046476852150364e-19)
(1.041152376266757 -0.007752800419421304 1.600834709455427e-21)
(1.001398998327295 0.02008976163244585 2.998782872578933e-20)