/*--------------------------------*- C++ -*----------------------------------*\
| =========                 |                                                 |
| \\      /  F ield         | OpenFOAM: The Open Source CFD Toolbox           |
|  \\    /   O peration     | Version:  2412                                  |
|   \\  /    A nd           | Website:  www.openfoam.com                      |
|    \\/     M anipulation  |                                                 |
\*---------------------------------------------------------------------------*/
FoamFile
{
    version     2.0;
    format      ascii;
    arch        "LSB;label=32;scalar=64";
    class       volScalarField;
    location    "1932.5";
    object      p;
}
// * * * * * * * * * * * * * * * * * * * * * * * * * * * * * * * * * * * * * //

dimensions      [0 2 -2 0 0 0 0];

internalField   nonuniform List<scalar> 
808
(
-0.03265086795546426
0.043658752929722
-0.01115410913452688
0.03832897407297958
-0.2939801759085664
-0.05581996680137206
-0.01578200310428058
-0.02406545363171829
-0.1931882245967119
-0.08200793884323941
-0.01056003954843917
-0.2497776597637887
-0.03068729456039196
-0.01423442199807478
-0.1239465733248674
-0.01421398717588254
-0.140412034739346
-0.01375832932663151
-0.0129542310697256
-0.05422645103839693
-0.008126228976869663
0.116268640894306
-0.06393824071309633
-0.06985073564499075
0.1738331566437566
-0.1007489639143727
-0.1493540977027096
-0.02049824906618218
-0.01765043396043541
-0.02557611285923543
-0.02041000320842758
-0.05691230573807823
-0.02276361946114147
-0.01696727272179002
-0.09758433611207575
0.345236763372371
-0.04018109304569877
-0.01643961381473951
-0.02234259261422852
-0.02648901610677458
-0.0884344485518921
-0.1239657569305191
-0.05318622463068978
-0.02147154442951944
-0.05500398875852231
-0.04303673554071539
-0.01187572736068458
-0.1808951342676569
-0.02632362889489888
-0.2003048984273232
-0.0172957098072641
-0.06538881346391358
-0.06220084903849327
-0.01493085077499508
-0.1968670942730849
-0.02754351363591562
-0.01084866530935123
-0.01511493252899112
-0.09807641079218243
-0.03871714117177145
-0.1118936998783667
-0.123158367878524
-0.01462430036448451
-0.1263863173397893
-0.01757001311412686
-0.05296099611514014
-0.1602339316266669
-0.03536577216863526
-0.01542974318560329
-0.4343889456209133
-0.02599197017121936
-0.2957795113932244
-0.02120464731981146
-0.02114344255419329
-0.06180775479672967
-0.0182864198058759
-0.04140578422729696
-0.3683619449080002
-0.03667721409605406
0.03787511702265865
-0.09283541061865032
-0.01669750338505685
0.05731372660379494
0.04664246257774263
-0.01763624011418281
-0.05098775701469403
-0.5345114484406815
-0.2302952920837869
-0.05075158529632808
-0.1142396288699868
-0.05498928705351599
-0.1298738045256552
0.03769682195205802
-0.02718872546665511
-0.06332698172776081
-0.1177961530277387
-0.03818875839548083
-0.05233335098496342
-0.1137079858253771
-0.1365303703784775
-0.05324706382582594
-0.04613278001393141
-0.05299912914060542
-0.04366936147832781
-0.0566186375934956
-0.07609072678071657
-0.0400558613956959
-0.01072498395998528
-0.03931836428841445
-0.1210128104850332
-0.04934503434207753
0.08070320904627153
-0.04150596814595846
-0.007854157317255687
-0.0275198825457815
0.1811918795899762
-0.03760980921569058
-0.2633433374276018
-0.0208063597263167
-0.05207320537563485
-0.04213554613376885
-0.04993132898566767
0.01450390728849768
-0.04706053151362673
-0.03733758120916478
-0.221424751029752
-0.03928587809273282
-0.004339117904778107
-0.07381075962794777
-0.07032332035564212
-0.1463960192263425
-0.02121191251319449
-0.07361193958527501
-0.0449766877676732
-0.02308378030597647
-0.01451035093174929
-0.006080162429684949
-0.007494777016784902
-0.0514977057130301
-0.04837553432385111
-0.2185856927453088
-0.05477188370335798
-0.008119109717013816
-0.02164495179477898
-0.1502372588166614
-0.002481663231780333
-0.07458640254743507
-0.02021731579395278
-8.744915983991096e-05
-0.01075413283180351
-0.03260761428451671
0.09247911560261048
-0.037413290819205
0.2511678806405146
-0.2632025703494399
-0.1348769961326588
-0.03815520245418185
-0.09096978047140689
-0.009242132882868072
-0.1155956016637964
-0.1662175340449445
-0.2181779610829853
-0.1747187492208759
0.0574448043555859
-0.06438250446469999
-0.02064710425633584
-0.06567116990593529
-0.1668642230887953
-0.02281852890478031
-0.0185966116722601
-0.0504167807976147
-0.02147734011849333
-0.00784135426040612
-0.1047303481301825
-0.02368406582771338
-0.04343126339743994
-0.07165578109135691
-0.1579738090003406
-0.0329048282596609
-0.3816471965209746
-0.01793125870917622
-0.2292104571224408
-0.04293212689164757
0.0337636841785198
-0.106779514038206
-0.01721119191311884
-0.04375636415714123
-0.1033258933661013
-0.0178434326744906
-0.09416032191772862
-0.2049280905978619
-0.07044638145859761
-0.02420114432621167
-0.04628546824387016
-0.04148168189421036
-0.202285610966013
-0.02247891696241357
-0.0193778225632591
-0.01123085584176226
-0.05814696863688853
-0.04907679906512474
-0.02261969575214331
-0.0206033120263089
-0.2315319807431796
0.1265273467964075
-0.2091691156922798
-0.1851955512690037
-0.01172945306648275
-0.0111898050606065
-0.06619974730730113
-0.01057392197016053
-0.4891182109700125
-0.1240596872239311
-0.01970851437447034
-8.524397488174953e-05
-0.02355371730045088
-0.2747396850878589
-0.2818454826523543
-0.007460921638993343
-0.01741814028668247
-0.001316978222967721
-0.3530999796081485
-0.02859548086407921
-0.02938147748458571
-0.01266950364463698
-0.01939735187351989
0.04792533171616854
-0.1223421836968083
-0.01442413266445676
-0.02096806827820764
-0.04616001549037008
-0.01840820254099387
-0.01640491247473615
-0.02356753154760621
-0.06840773986439985
-0.01090927299354871
-0.01890216912231208
-0.008955856610537882
-0.001172480526902645
-0.02931158443428842
-0.002151609885667533
-0.001923002271552369
-0.005610361962379275
-0.02549871635793433
-0.008057274589077431
0.001546566731069078
-0.00421467642560147
0.001404525228089565
0.002369003507969938
-0.009071018274133135
-0.1297144372024541
-0.00289816932038622
-0.0004657495010709072
-0.04734121391695403
-0.02146241224051961
-0.02343331836764699
-0.01406093125438918
-0.006254682075077527
-0.02112978294161218
-0.04095974279905372
-0.01509214839495886
-0.01275232197404102
-0.01128054407079117
0.007752495202303146
-0.009661037163763866
-0.01286320327141718
-0.01154143639566243
-0.01008022171721606
-0.01034243520307708
-0.01164381205108753
-0.01351374312629983
-0.2896533653016385
0.05819424159294956
-0.01558485277031796
-0.01471995115710725
-0.0124035259615597
-0.01199424838874115
-0.008313751256490051
-0.09795817743453024
0.01398042607354903
-0.01419515703009769
-0.01354525723750142
-0.01049159802902506
-0.05022010903481126
-0.008807260411654872
-0.01364432518723394
-0.01040817268170344
-0.001795766166834968
-0.01187210073614849
-0.01177435803275173
-0.02414712325697553
-0.01530003191794314
-0.01233689369040535
-0.01357766146243582
-0.009106152584335211
-0.01246528218107396
-0.01109708986576009
-0.06057614128184143
-0.01368778532654929
-0.01207112155939921
-0.009256453695611377
-0.01542473523396871
-0.01381630612588469
-0.01562648503041335
-1.360525157044763
-0.1012603247482939
-0.01218086779583626
0.02610586186609428
-0.1597332963170761
-0.09275278662175825
-0.01245851778649067
-0.01422323631618288
-0.2302133201375818
-0.0274635021305039
-0.01690230068658439
-0.01258859246965809
-0.02054148438774753
-0.01018797623995731
-0.03083353287384554
-0.4054880261050047
-0.01216160667647824
-0.01408488671067426
-0.004371271265824498
-0.01122198942071806
-0.01028361870349495
-0.01379012003911016
-0.006586977089080134
-0.02749188488970405
-0.0119370055845727
-0.1759172155681079
0.02089352217222872
-0.007239991671179251
0.004349834719959771
0.01219657387967251
-0.04940719026684771
0.0268738534041805
-0.01323524833869498
-0.1313363596460915
0.2831659170421496
-0.008128199510579462
-0.01375848440057058
-0.007868476559411712
-0.03293912430378557
-0.1268597160164184
-0.01264333880064507
-0.01186635224175715
-0.01748014160374719
-0.01350090126495958
-0.04185430115205237
-0.2220991391834756
-0.008828452716616622
-0.04442905652412616
-0.03808730123090984
-0.1825900476356793
-0.1499981243903825
-0.148220715595963
-0.2226042721819504
-0.002689584982241027
-0.02057916048188605
-0.01526665209973975
-0.01395109738767239
-0.03398498698554994
-0.02456094625591452
-0.01391127805132018
-0.01484894873610636
-1.064106303977137
-0.003823788110063396
-0.01317516441262672
-0.01797715596403066
-0.02308666827641062
0.003308970197232188
-0.01474985757881832
-0.02456300245656281
-0.1483900225342615
-0.01357454704875983
-0.02095330058990736
-0.01461504162677236
-0.001124174782802519
-0.1780625049506205
-0.01237835860915007
-0.1575524965808761
-0.01538461751617727
0.002569638789841961
-0.01397950449383156
-0.02446553583732911
-0.01627114739194079
0.007120519270267653
-0.2636336530953877
-0.02693106923807998
-0.01686007175881047
-0.01431396626053336
-0.01113051400390162
-0.02901092527028256
-0.01364820015817104
-0.02121057177362689
-0.02034525700335823
0.01077844932621169
-0.0964225039191484
-0.02096132087362564
0.00965549240529557
-0.060394846024306
0.18640644788549
-0.1076966834172416
-0.3137791775412221
-0.02981562697978426
-0.02603234967358565
0.1521657292404225
0.08745908620987301
-0.003957877722962279
0.05355619083209302
-0.01497289916810916
-0.01308728719156115
0.002794781089398783
0.006643314474860682
-0.06404137607478552
-0.004657289517060223
-0.05544534967652902
-0.02328244321208708
-0.0156932716077464
-0.03651498106227602
-0.03293114999289976
-0.006697034002053848
-0.01463954231081899
-0.0358568679541218
0.03068675483750359
-0.0386151292139142
-0.01404556740246242
-0.120834957014702
-0.03077862680825947
-0.04037082412548541
-0.6648040978725726
0.01512282071940273
-0.01031738703975634
-0.005914056417392298
0.1846248324604857
-0.1048963794747654
-0.03614992510277598
-0.2399942730795688
-0.01515485138360424
-0.01595809827530763
0.08410036886646902
-0.1782160057556461
-0.2350389407933218
-0.1835079203696057
-0.6723467352279562
0.007935670269538543
-0.01762223946457401
-0.01551358074880663
-0.095941039824809
0.1190885200635296
-0.02168267175557427
-0.2322903400056363
-0.03659860924532254
-0.007004522586272861
0.2811328223931699
-0.01076769237327552
-0.08975397210037936
-0.1545956675520052
-0.003853981862466812
-0.04198829955541239
-0.04990765440347595
-0.1941970761095993
-0.007633697628506374
-0.03897355083107867
-0.003665674055381369
-0.5406346507384201
-0.1908038080256666
-0.1802765329552084
-0.02371887408620257
-0.009356844102475016
-0.06287941123220543
-0.05577994576713353
-0.01510328466612939
-0.07035437175722772
0.005365970189366874
-0.01743327636042331
-0.0938492457699637
-0.2800336680631275
-0.009552034574612105
-0.02475233522588257
-0.0211335392002319
-0.07717742807461576
-0.08808138329559986
-0.09055039319867005
-0.01157631551977736
-0.9024948709204667
0.1629065967119533
-0.08211652385300511
-0.248038638804514
-0.04090084415372375
-0.009085417883054467
-0.2511565618198033
-0.2016686832904961
-0.02993731590449834
-0.114315490718447
-0.01856788151327526
0.5635148536175419
-0.02552822259088762
-0.2112957277338809
-0.02469476825861892
-0.004067434314995931
-0.01087747649091029
-1.239456918042331
-0.179169822274911
-0.2241399531053876
0.005174270367540108
-0.04019225895872564
-0.2332716562169496
-0.06776556421277843
-0.05260779234194399
-0.1480579413397005
-0.1768691529900026
-0.07080862330132273
-1.208568638784355
-0.1612400600766628
-0.547232624026125
0.08038672633252808
-0.005794895554521101
-0.02072316760569369
-0.04551081800159539
-0.03708919901749502
-0.02746069974814071
-0.1278404766174279
0.08222638515847366
-0.00368350322884579
-0.01000250539184928
-0.5580901453380827
-0.84399846973708
-0.1717602819424256
-0.007687430997069216
-0.1226904910209014
0.0003633644670135466
-0.0001888500182137667
-0.002930404165276773
-0.0618960054057254
-0.2309693530205115
-0.01325466223478932
-0.1099121132332754
-0.1580434072727841
-0.01307375492990422
-0.03398017788086906
0.03105263495865302
-0.05936928948068416
-0.072966704873976
-0.4891615826388713
-0.2128953240668403
-0.07891045361811533
-0.076784998454827
-0.01917680318444697
-0.1114202912112044
-0.1664187007308181
-0.08254417762854306
0.02581907425425984
-0.08831755743817551
-0.05131007618224252
-0.01491759230951735
-0.1142871752991506
-0.284020080014003
-0.06057754454298046
-0.01786887156584024
0.000595801374673211
-0.01019722079597023
-0.01041432749273227
-0.2398225871304454
-0.01416680949902436
-0.214210595674013
-0.01067861498866304
-0.07564752059431011
-0.004198437213447027
-0.02328829452524518
-0.3967196758021573
-0.9357205265684531
-0.01123372781993393
-1.035131565551299
-0.5972555371059229
-0.01048667974774929
-0.6652600708607052
-0.1906422040994088
-0.005168411723378293
-0.1217512018698834
-0.0168863792948729
-0.1270517930295035
-0.0638327568079728
-0.08158086121468075
-0.005489790571627174
-0.00275936501667326
-1.351905715669455
-0.01155983045609737
-0.1830284705882803
0.001136533196617119
-1.001006933873404
-1.256015993960088
-0.07695654489475112
0.01493325512173813
0.1647458483360249
-0.004732504551394021
-0.02296153970378359
-0.004322711948673202
-0.2362827600936803
0.3652603524446166
-0.04272108014368289
-0.2159998833542546
-0.01525265704735689
-0.6469681772074726
-0.0709762392301659
0.1875825427519683
-0.3073265978247503
-0.05123542893193871
-0.07097938614804937
-0.0158135517435977
-0.02135637686900914
-0.5995969072610781
-0.1555101049735984
-0.09611703895463874
-0.1167850584440343
-0.5467241604249147
-0.04582692311678156
-0.8971218109362464
-0.0001339630626963214
-0.2464540136253582
-1.060076144554419
0.1631368726865787
0.2882769334104665
-0.1719895983905058
-0.1867575504141071
-0.2185102294927579
-0.06533479610329286
0.02523050061452714
0.04301992692050691
0.004334467132795402
-0.1529837510652731
0.0265911702649814
-1.373979771026172
-0.08805630354055585
-0.4826758788381064
-0.3377158512412124
-0.2226249707803226
-0.1825219344214585
-0.01697255319781519
-0.01536383173462056
-0.09259583952220773
0.1755943776919878
0.3838280804493788
-0.1999526785813832
-0.1558092472542439
-0.2158634783421297
-0.06416987512363696
-0.1635114336253578
-0.17448296044658
-0.1287885463393345
-0.1108028489640267
0.4629737584768387
-0.2865190945104958
0.434168718865474
-0.585427627263252
0.07426144736597783
-0.1855545975388258
-0.06863675791594222
-0.07932090861561354
-0.9003871186776216
-0.2137727922828247
-0.1946987852381117
-0.357948159087016
-0.4699170141795098
0.5693884031400496
-0.2179648314088733
0.003724551900095151
-0.06603545670654477
0.3464661156107156
-0.03379434917474184
-0.1219854490778088
-0.1835933662262913
-0.06443054621699607
-0.01633265611463272
-0.201604160882228
0.1986051338161381
-0.01268008564961844
-0.09976824141960723
-0.1788329057665003
-0.3222650436881363
-0.3054982672593565
-0.08415359900687426
-0.009601585784815044
-0.08220342012504989
-0.6458849026760781
-0.6788783561062036
-0.3221145488048728
-0.05983638165674819
-0.04846322349426523
-0.02417694458843613
-0.07120927007407851
-0.05374805950996627
-0.3715180346537202
-0.9686824180383061
-0.008846483324538884
-0.086351587888394
-1.152182725242457
-1.049529328146655
-0.1112177388547678
-0.04296736826140019
-0.06692306745768499
0.3874443882050663
-0.3366893692234988
-0.05083148073638254
-0.6096340122626045
-0.1379357799002539
-0.2460754453592197
-0.2165804001650652
0.4727815704531763
-0.6415282762168922
0.07830096339055766
-0.0281116793233618
-0.5746188289227746
-0.05566488113823525
-0.3691165231970078
0.1112306962089122
-0.1952767745976907
-0.06216635010256918
-0.1248264157883055
-0.3545640179143287
-0.08199111146945574
0.5161794691090712
0.08787722809286913
0.4686943758929648
-0.1188173331316274
-0.2096232164072355
-0.5055482881254625
-0.1367881790912406
0.02317230292454362
-0.05644348705925339
0.09822801432591584
-0.3001456527864373
0.2365592071839947
0.003418269265377863
-0.002515750101117909
-0.5043949893639309
-0.1796374023296674
-0.0994998899551373
0.5812832712436061
0.1402828657531737
0.341856034383633
0.2249333370305151
-0.5708237952240609
-0.1987118202914444
-0.2229391601671935
-0.221992165004511
-0.06309047631665131
-0.6833260315647037
-0.1873036971922812
0.3034354702846995
-0.1935001844492631
-0.01137887608386429
-0.1583797755048218
-0.01278938370063923
-0.1724101913080646
-0.4512626478664942
-0.07602335862612049
-0.2102828887037554
-0.07611780132306718
-0.1073522567839874
-0.1307865433298091
-0.07191959080434233
-0.4369299088930294
-0.4070968748231431
-0.02245373588011576
-0.07899384985022945
0.331042980470904
-0.2545325450611964
-0.1693159939464486
0.5232858289804495
-0.1916438381474392
0.02263133006786109
-0.4588130781073828
0.05233351632304222
-0.05842151976104954
-0.147412500619958
-0.5968051106632184
0.1568392517779416
-0.5712161354142699
-0.5449886837745747
-0.0998880767728836
-0.516729858711569
-0.03567493501051643
-0.1562322533923457
-0.4181050449051448
-0.01597958715720334
0.2891162273773172
0.4900693222363156
-0.1693585280879595
-0.004388119455333787
-0.08716386732871095
0.5248866239782318
-0.03171665719417048
-0.4493874114616518
-0.0314130433545401
0.4623671670500891
-0.01844493154900794
-0.5545949668804985
-0.2422937519378513
0.1792051134936083
-0.3182352555606122
-0.1844737710013853
0.04616739457181063
0.03031816702145512
0.05757133241873357
-0.3073072583994697
-0.160795160070914
0.4128472071627729
)
;

boundaryField
{
    FrontBack
    {
        type            empty;
    }
    Top
    {
        type            zeroGradient;
    }
    In
    {
        type            zeroGradient;
    }
    Bottom
    {
        type            zeroGradient;
    }
    Out
    {
        type            fixedValue;
        value           uniform 0;
    }
    circle
    {
        type            zeroGradient;
    }
}


// ************************************************************************* //
