/*--------------------------------*- C++ -*----------------------------------*\
| =========                 |                                                 |
| \\      /  F ield         | OpenFOAM: The Open Source CFD Toolbox           |
|  \\    /   O peration     | Version:  2412                                  |
|   \\  /    A nd           | Website:  www.openfoam.com                      |
|    \\/     M anipulation  |                                                 |
\*---------------------------------------------------------------------------*/
FoamFile
{
    version     2.0;
    format      ascii;
    arch        "LSB;label=32;scalar=64";
    class       surfaceScalarField;
    location    "37.3";
    object      phi;
}
// * * * * * * * * * * * * * * * * * * * * * * * * * * * * * * * * * * * * * //

dimensions      [0 3 -1 0 0 0 0];

oriented        oriented;

internalField   nonuniform List<scalar> 
1171
(
-0.945191
0.945191
0.765231
-1.07094
0.30571
-0.0641546
-0.755559
0.819714
0.0548091
-0.0767038
-0.277585
0.354289
-0.765231
0.0791386
0.686092
0.903464
-0.205879
-0.697585
0.833854
-1.06779
0.233932
-0.351733
-0.049008
0.400741
-0.0121038
0.602036
-0.589932
-0.668833
0.970476
-0.301643
-0.428437
1.01496
-0.181108
0.216147
0.10594
-0.322087
0.965112
0.0498501
0.278377
-0.0622293
0.995266
-0.0301533
0.762329
-0.826484
-0.776855
0.603887
0.172968
0.112416
-0.781249
0.552218
-0.911541
0.359323
-1.07915
0.669398
0.409748
-0.6429
0.630796
0.0279623
-0.247593
0.219631
0.0415125
-0.646028
0.604515
0.460883
-0.509891
-0.853932
0.904472
-0.05054
0.997883
-0.00261705
0.912628
-1.07904
0.166409
1.00636
-0.00847651
-0.693924
-0.0829308
1.3016
-0.877557
-0.424039
0.152427
-0.0898429
-0.394852
0.484695
-0.274869
0.189533
0.0853356
-0.596927
-0.474014
1.00242
-0.0897902
-0.0322076
0.88887
-0.856662
0.514748
0.786848
0.512193
0.00966981
0.451213
-0.787664
-0.110277
0.897941
0.570241
0.259923
-0.830164
0.0370769
0.638147
-0.675224
-0.50815
-0.570996
-0.3843
-0.694737
0.0176823
0.253882
-0.271565
-0.958318
-0.0356651
0.993983
0.367454
0.0332868
0.823307
0.0801576
-0.595309
-0.0475908
0.0377209
-0.825385
0.0576148
0.989785
-1.0474
-0.404006
0.0296694
0.374336
-0.714373
-0.243945
-0.789832
0.847447
0.789085
0.181391
-0.580262
0.996845
-0.813365
-0.183479
-0.197981
0.128416
0.0695642
-0.455732
-0.0541592
-0.300788
1.08987
0.0201297
0.406359
-0.426488
-0.555147
1.12539
0.708347
-0.818624
0.387303
-0.0501886
-0.337115
0.790043
-0.790043
-0.85679
0.0483305
-0.325916
-0.697584
0.665377
-0.0445114
-0.15111
0.195621
0.885842
0.00302751
1.06271
-0.802784
0.224305
-0.323708
0.0994034
0.924057
-0.10075
-0.664021
-0.0581389
0.72216
0.148579
-0.229846
0.0812677
0.787713
-0.993593
-0.43617
0.308208
0.127962
0.686841
-0.645329
0.883073
-0.403901
-0.479172
0.498773
-0.694812
0.0352838
0.659528
0.0938931
0.654127
0.0433257
-0.697453
0.146783
-0.0984526
-0.507991
0.103986
0.0360374
-0.897965
0.861928
-0.540088
-0.75191
0.0579859
0.494635
-0.0434221
0.277233
-0.83433
0.557097
0.423919
0.576081
0.599658
-0.561937
-0.407433
0.0278175
0.379616
0.550182
0.239861
-0.690271
0.727348
0.0997826
0.866852
0.00763731
-0.671658
-0.761539
0.797576
0.595989
0.111649
0.320283
-0.431931
-0.155987
0.585364
0.0527834
0.850625
-0.950849
0.100223
0.661618
0.335227
-0.438049
0.680582
-0.568933
0.408208
0.144011
-0.0527558
-0.695208
-0.265295
0.960503
-0.124861
-0.665182
-0.615458
0.362436
0.253022
0.658045
-0.650407
0.309778
1.04567
0.0170347
-0.761539
-0.125331
-0.0726499
0.708347
0.786005
-0.786005
0.83998
-0.824216
-0.0157631
-0.454393
0.878312
-0.192379
-0.315612
0.762951
-0.673541
-0.0894096
-0.978944
0.283735
0.116687
-0.711996
0.818624
-0.974611
-0.243555
0.1968
0.0467549
0.108021
-1.01927
0.911246
0.535573
-0.0233802
-0.289937
0.594478
-0.304541
-0.666445
0.774465
-0.155321
0.603346
-0.846922
0.243577
1.06518
-0.673164
-0.39202
0.73325
-0.0677708
-0.00350333
0.00269797
0.000805357
-0.799501
-0.725872
-0.0296868
-0.697584
0.574499
-0.54483
0.310262
0.586803
-0.897065
0.777302
0.167889
0.491714
0.508286
-0.154349
-0.703713
0.858062
1.02366
-0.173033
-0.73325
0.797576
0.183531
-0.431124
-0.0204228
0.00643808
0.0139847
0.67515
-0.431416
-0.243734
0.686092
-0.0707092
-0.122526
0.56749
0.10766
-0.0210208
0.00125094
0.0197698
0.00468144
-0.00818477
0.183584
-0.233772
-0.941326
0.0264063
-0.14375
-0.0599708
0.137321
0.824599
0.741752
-0.16567
0.644132
-0.33387
-0.166546
0.390851
0.64941
0.0366824
0.233227
-1.05744
-0.974611
0.324032
0.665377
-0.17322
0.0221095
-0.851005
1.05342
-0.202416
0.480745
-0.106409
0.794157
0.305188
0.32482
-0.0464433
-0.680346
0.680346
0.233262
0.66468
-0.0374767
0.443835
0.447219
0.0213544
-0.0417772
0.525608
0.0099652
-0.666445
0.566274
0.196677
-0.00929126
0.0119892
-0.64941
0.156541
0.896881
0.0313941
-0.729914
0.69852
0.758963
-0.821976
0.0630131
-0.777302
-0.0462258
0.0633103
-0.0170845
0.0884588
-0.117378
-0.10166
0.219037
-0.00897034
-0.0120504
0.762445
-0.731051
0.97664
-0.156927
-0.194638
-0.670347
0.864985
0.000113281
-0.000113281
0.224617
0.572484
0.298088
-0.870573
-0.186205
-0.554815
0.741019
-0.0160738
0.211695
0.379729
-0.231151
1.02908
-0.456596
0.887458
0.915826
-0.617738
0.18735
0.774465
0.593357
0.249965
0.654507
-0.665182
0.319654
-0.0208337
0.0715165
-0.0506828
0.924333
0.13766
-1.06199
-0.563204
0.554727
0.545607
-0.563204
-0.593357
0.554727
-0.00343023
0.942187
0.0344533
-0.550182
0.461171
0.0890109
0.5548
0.68495
-1.23975
0.532209
0.496871
0.699651
0.556186
-1.25584
0.555951
0.359875
0.461171
-0.538536
-0.515042
-0.628018
-0.558269
-0.260119
-0.0095156
0.0095156
0.550142
0.507616
-1.06589
0.648884
-0.328601
-1.02077
0.347608
-0.69968
0.455735
-0.102058
-0.85935
0.961408
0.451815
-0.195769
1.1201
-0.98447
-1.07516
0.230593
0.84457
0.447525
-0.318293
-0.129231
0.746269
-0.836059
0.977523
-0.9077
-0.0698235
-0.142456
-0.808393
-0.232432
0.85802
-0.625589
-1.13688
0.994424
-0.581886
0.527727
0.0541598
-0.545491
-0.239837
0.785328
0.00542746
-0.00531418
0.421244
0.00694702
-0.90192
0.894973
-0.838346
0.683997
1.08186
0.18837
-1.27023
0.00669852
-0.0374743
0.41709
-0.363654
0.0399454
0.887082
-0.98914
-0.702417
-0.779005
-0.0293875
-0.118349
-0.875305
-0.0323948
0.33831
0.305822
0.072055
0.37547
-0.770982
0.531145
0.479172
-1.05512
-0.94851
-0.00632271
0.204378
0.573539
-0.777917
0.0861033
-0.49804
0.578857
0.180106
0.197443
0.922659
1.22502
0.904537
-0.936932
0.050062
-0.050062
-0.0778385
-0.100138
-0.218156
0.326706
-0.00267363
0.254111
1.00876
0.00694851
-0.0159189
0.656458
0.343542
0.796902
-0.596927
-0.766102
-0.640257
-0.504187
0.504187
-0.209672
-0.116244
0.678607
-0.877841
0.199234
-0.482035
-0.537177
0.308672
-1.00341
-0.864301
0.794477
-0.675607
0.646219
0.66629
0.174676
-0.840966
-0.586097
-0.188792
0.839961
-0.651169
-0.144462
0.00846681
0.00232467
-0.0107915
-0.254628
0.15449
0.987279
0.67234
-0.258424
-0.413916
0.543109
0.750007
-0.516746
0.0157656
-0.290634
-0.198429
0.848918
-0.650489
-0.337118
-0.110997
0.143083
-1.08798
0.0259883
-0.703165
0.106904
0.7035
-0.810405
-0.855041
0.151875
0.681724
-0.792722
0.234299
-0.351677
-0.64377
0.0576734
0.370162
0.687847
-0.00726525
-0.00442173
0.00442173
-0.00826466
0.0523467
-0.0731804
-0.0152795
0.022228
-0.337948
0.331027
0.762897
-0.783658
0.0207615
-0.620647
0.727552
0.782997
-0.101273
-0.658761
-0.196279
-1.11005
0.0211073
0.0289546
-0.536376
-0.891193
-0.908423
0.484384
-0.0539818
0.0956381
-0.0416563
-0.230083
-0.306293
0.40592
0.711267
-0.0677516
0.00778079
1.03031
0.556896
0.131213
-0.688109
-0.311624
0.0815411
-0.0051019
0.0135687
0.711335
-0.97663
0.00376103
-0.00376103
-0.743014
0.783905
-0.0408905
-0.239569
-0.162154
-0.687883
0.25909
0.598972
-0.0622996
-0.876674
-0.508702
0.169904
0.338798
0.671681
-0.650919
0.364453
0.245688
-0.610142
-0.179858
-0.66803
-0.142375
-0.186118
-0.249612
0.463575
-0.517734
0.192725
0.745727
-0.938452
0.498773
-0.208628
0.154647
0.165504
-0.415115
0.592262
-0.0936155
-0.498647
-0.291074
0.310782
-0.0197088
0.566584
0.0823003
0.114967
-0.315482
0.172693
0.142789
-0.0908658
-0.0344649
-0.408389
-0.0746381
-0.0841696
0.158808
0.913446
-0.122148
-0.117422
0.547866
0.353501
-0.611925
0.415012
-0.415012
-0.207502
-0.399744
-0.220415
-0.399744
-0.785848
-0.851829
0.178288
-0.340303
0.754609
0.0474324
0.093854
0.593993
0.111421
0.12615
0.00694562
-0.133095
-0.170399
0.597901
-0.912204
0.241857
-0.153513
0.110215
0.0432983
-0.752442
-0.174555
-0.613418
0.744631
-0.509938
-0.16292
-0.252195
-0.339788
-0.0794314
0.0794314
0.0594352
0.00387502
0.147257
0.0611732
-0.660438
0.0470193
-0.0819968
0.473001
0.526999
0.798964
0.0272785
0.00434087
-0.0316194
-0.302086
-0.574588
-0.538074
0.117701
-0.122241
0.00453981
-0.176202
-0.409227
-0.178317
0.777289
-0.577023
-0.175419
-0.0345038
0.0120631
0.334914
-0.640163
-0.202726
-0.214971
-0.0188011
-0.47131
0.432428
0.0388822
-0.109568
0.294265
-0.865261
-0.524485
0.606889
-0.883048
0.70319
0.406361
-0.0299456
0.0514269
-0.0214813
0.0766326
-0.634489
-0.00534514
0.639834
-0.889554
0.650428
-0.728267
-0.117727
0.0093569
-0.0093569
-0.299716
0.382396
0.0346941
0.00625775
0.0210207
0.588723
0.628716
-0.528492
0.0126958
-0.00069095
-0.00373078
0.00630001
-0.00630001
-0.443752
0.526052
0.0165586
-0.0165586
-0.7761
-0.0110193
0.0164468
-0.509419
0.556439
0.625442
-0.666333
0.0730559
-0.0730559
-0.0368401
-0.00493709
-0.00327604
-1.05198
0.659965
-0.485408
-0.00531418
0.601278
0.0112734
-0.612552
-0.711473
0.13445
-0.31301
-0.0130928
0.326103
-0.0406341
-0.0271175
-0.606572
-0.0279167
0.0289546
0.00521695
-0.00145591
-0.00318576
0.00318576
-0.0778059
0.236614
-0.482717
0.137903
0.658999
-0.0941156
0.0067464
-0.0067464
0.508284
-0.264694
0.00924362
0.0195977
0.000985832
0.562151
-0.826844
-0.683522
0.5661
-0.103012
0.343064
0.793547
-0.00826466
-0.078982
0.0909712
-0.640903
0.538681
-0.370545
-0.110195
-0.0277153
-0.0264365
-0.0109387
0.457184
-0.0866799
-0.411967
0.706218
0.00321559
0.00163129
-0.00163129
-0.173934
-0.0166327
-0.570811
0.618244
-0.131605
0.507798
-0.15122
0.913549
0.749776
0.00521695
-0.751395
0.62725
0.098154
0.00167248
-0.0998264
0.456533
0.104443
-0.0114664
0.0640137
-0.0525473
0.00828067
-0.00828067
-0.744679
0.0229939
-0.0488045
0.0684022
-0.0852237
0.0852237
-0.00069095
-0.00151826
0.755208
0.141673
-0.314275
-0.0949522
-0.51532
0.0636502
-0.065592
0.065592
-0.0684594
0.0846834
-0.0846834
0.0255746
-0.0255746
-0.357039
-0.0810103
0.237491
0.0707171
0.0461584
-0.75895
-0.0733189
0.159524
0.0240071
-0.237011
0.0840611
-0.0840611
-0.463464
-0.05427
0.228134
-0.00850376
0.00203119
-0.658271
0.661702
-0.0450825
-0.0233769
0.094937
-0.0998741
-0.0116275
-0.16193
0.173557
-0.148852
-0.202825
-0.0802409
0.0802409
0.0536996
-0.0536996
-0.0271428
-0.0937965
0.120939
-0.0501662
-0.19167
-0.00190435
-0.00182643
-0.0228123
0.259426
-0.0257318
0.533626
0.00939155
0.0103783
-0.0497799
0.0497799
-0.733612
0.315188
-0.127838
-0.206836
-0.0230104
-0.0166491
0.0186803
0.192234
0.0268037
0.000348136
0.000637696
0.0870484
0.030653
0.0572238
0.1023
-0.0223191
0.0300999
-0.00212974
-9.10708e-05
0.00425691
-5.39523e-05
-0.00420296
-0.00232224
0.0126071
0.0268812
-0.0268812
0.0473646
-0.0447004
0.0447004
-0.190961
0.0102872
0.0272824
-0.0755193
0.017294
0.0798932
-0.0798932
0.231116
-0.233093
0.0842408
-0.0661586
-0.166934
-0.0142132
0.0142132
0.406572
0.252956
-0.523585
-0.0812174
-0.0410237
0.544475
0.0447708
-0.0521783
-0.431613
0.113706
-0.151281
0.168338
-0.0170574
-0.0492402
0.0492402
0.907253
-0.590529
-0.0039735
0.00165126
-0.00579224
-0.290798
-0.000622239
0.00498272
-0.0512094
-0.626941
0.56959
-0.668835
0.014649
0.0782986
0.0158121
0.0242052
-0.157073
-0.330676
0.255157
-0.0539613
0.0268185
0.171512
0.139271
0.317761
0.262039
-0.246227
0.002801
-0.119287
-0.219929
0.0666293
-0.00940544
0.158406
-0.134201
-0.0694898
0.156538
-0.423147
0.118706
-0.101412
0.0591182
-0.471085
0.173321
0.181615
-0.251105
0.0129553
-0.182261
0.181638
0.00416794
0.15237
-0.0281418
0.0466939
0.461591
0.012668
0.00726423
-0.000751404
0.0419658
-0.236986
-0.202714
0.589854
0.166269
0.0618655
0.0718014
-0.0634556
0.0130361
-0.112862
-0.0307718
0.164959
-0.15031
-0.00367442
-0.00579993
-0.110102
-0.0298905
0.0264255
0.252555
-0.0252524
-0.086838
-0.309234
-0.0168303
0.221561
0.137679
0.177509
0.056994
0.0952075
0.0714611
0.517262
-0.0063327
0.108316
0.0401772
0.0691655
-0.109343
-0.270629
-0.194673
0.027739
-0.21853
0.281495
)
;

boundaryField
{
    FrontBack
    {
        type            empty;
    }
    Top
    {
        type            calculated;
        value           uniform 0;
    }
    In
    {
        type            calculated;
        value           uniform -1;
    }
    Bottom
    {
        type            calculated;
        value           uniform 0;
    }
    Out
    {
        type            calculated;
        value           nonuniform List<scalar> 10(1.23186 1.09334 1.14306 1.05282 1.24114 0.918144 1.05776 1.01921 0.622514 0.620159);
    }
    circle
    {
        type            calculated;
        value           uniform 0;
    }
}


// ************************************************************************* //
