/*--------------------------------*- C++ -*----------------------------------*\
| =========                 |                                                 |
| \\      /  F ield         | OpenFOAM: The Open Source CFD Toolbox           |
|  \\    /   O peration     | Version:  2412                                  |
|   \\  /    A nd           | Website:  www.openfoam.com                      |
|    \\/     M anipulation  |                                                 |
\*---------------------------------------------------------------------------*/
FoamFile
{
    version     2.0;
    format      ascii;
    arch        "LSB;label=32;scalar=64";
    class       volScalarField;
    location    "1216";
    object      yPlus;
}
// * * * * * * * * * * * * * * * * * * * * * * * * * * * * * * * * * * * * * //

dimensions      [0 0 0 0 0 0 0];

internalField   uniform 0;

boundaryField
{
    FrontBack
    {
        type            empty;
    }
    Top
    {
        type            calculated;
        value           nonuniform List<scalar> 
15
(
142.2715068384618
133.5588904989315
138.0674097351547
144.3935784409962
159.7663465251461
131.367867073448
140.1154377285766
135.3503300014178
153.4326827993647
135.743853217388
136.0881244046793
136.7762254041485
125.2389423100698
132.9008940032073
123.9477248532246
)
;
    }
    In
    {
        type            calculated;
        value           uniform 0;
    }
    Bottom
    {
        type            calculated;
        value           nonuniform List<scalar> 
15
(
155.5658772714886
158.1114172407682
141.0993506719926
142.0776346448616
141.1868021064755
148.4533463581892
142.7103979538435
143.1699615075865
143.4234198472591
134.0602523839148
125.7367851738648
141.5567712094755
122.4129647803937
123.4916885455571
124.1439297912727
)
;
    }
    Out
    {
        type            calculated;
        value           uniform 0;
    }
    circle
    {
        type            calculated;
        value           nonuniform List<scalar> 
32
(
56.32826676679737
21.92965247192069
65.28789335423572
24.46658990137983
19.41267014780051
56.22659695293625
56.78175622633536
24.1807316213692
22.23760375787996
65.50562481303004
40.16013640016686
63.01847183839132
50.36251495386531
14.24357964445535
23.40193885240602
19.38022450463534
38.94090922786363
59.64251318699922
61.05082979662089
25.81512301951123
65.75616567235463
63.78373607797744
62.9927524837845
59.88073736176742
64.13683939480852
46.02139724103474
66.39861342244329
32.16508063233042
37.93249111981287
55.7022685915386
21.26516958635917
43.09923912147397
)
;
    }
}


// ************************************************************************* //
