/*--------------------------------*- C++ -*----------------------------------*\
| =========                 |                                                 |
| \\      /  F ield         | OpenFOAM: The Open Source CFD Toolbox           |
|  \\    /   O peration     | Version:  2412                                  |
|   \\  /    A nd           | Website:  www.openfoam.com                      |
|    \\/     M anipulation  |                                                 |
\*---------------------------------------------------------------------------*/
FoamFile
{
    version     2.0;
    format      ascii;
    arch        "LSB;label=32;scalar=64";
    class       surfaceScalarField;
    location    "1871.5";
    object      phi;
}
// * * * * * * * * * * * * * * * * * * * * * * * * * * * * * * * * * * * * * //

dimensions      [0 3 -1 0 0 0 0];

oriented        oriented;

internalField   nonuniform List<scalar> 
1171
(
-0.927896451747489
0.9278964517477305
0.7873234962643114
-1.099022806588993
0.3116993103284816
-0.191721441406018
-0.7674933308860944
0.9592147722881249
0.07210355922578367
-0.1177921839532631
-0.2121697478947437
0.3299619318341473
-0.7873235025632931
0.06929770204366444
0.7180258005196409
0.8107824336314227
-0.1777296878626086
-0.633052745771374
0.8739513074752047
-1.043821415964697
0.1698701084895331
-0.2850270419827167
-0.09836081516885287
0.3833878571523169
-0.0364931817564061
0.548664242573352
-0.5121710608169404
-0.5090333375647582
0.8292581930900437
-0.3202248555197902
-0.4028192305191316
1.045542371129542
-0.1715910713610703
0.3935844296939099
0.05070475482749103
-0.4442891845403087
1.046118879950965
-0.0005765103839597153
0.4458901154735022
-0.0523056783469481
1.056563563452127
-0.01044468776074523
0.5802511839218936
-0.7719726287663756
-0.7240486949109444
0.5567236287312038
0.1673250661785883
0.2145322234727516
-0.7235655611550512
0.5496834241347713
-0.9224224207917834
0.3727389966531324
-1.094228556136295
0.6866088225203572
0.4076197336153947
-0.5954975261931431
0.5590043513349572
0.01711395532156316
-0.2556246556980714
0.2385107003830907
-0.02288969407232528
-0.5250005912575743
0.5478902853008916
0.4000453430363861
-0.4984061604706032
-0.9188976265458026
0.9416845915137977
-0.02278696496693255
1.067888238608432
-0.01132467736746881
0.9350351241735166
-1.116833607532937
0.1817984833579859
1.067424777783169
0.0004634586618040993
-0.6642896426972476
-0.05975904239378641
1.26205282568734
-0.8644489528380476
-0.397603872849748
0.1485271481158404
-0.1098930757850502
-0.3251604053899558
0.4350534811769342
-0.2855202717633832
0.1920120091330056
0.09350826262889264
-0.5835721135137037
-0.5154506882471036
1.014143076535218
-0.07910794936197456
0.009871217771496936
0.8254955546329988
-0.8353667724031753
0.571682674854517
0.6903701461225642
0.4387711734291183
-0.03115974880354591
0.4312050908314334
-0.8080132086098719
-0.1025941841769746
0.9106073927856105
0.5023391206632173
0.2541357683845035
-0.7564748890466009
0.005172321056904686
0.5311522228791949
-0.5363245439513235
-0.4900143317024544
-0.604214230167803
-0.422811808666511
-0.6940217990331015
-0.02749049091341783
0.2708740591945422
-0.2433835682750094
-0.9248899756027759
-0.005176352019150993
0.9300663276230713
0.3080911152911569
0.07529674075855013
0.7616968647096237
0.04908557116326037
-0.5328972334267351
-0.06260028785442706
0.0460892735209848
-0.8541024897902865
0.07720516063212143
0.8623057172113879
-0.9395108778424093
-0.3470583305941821
-0.04056541292755047
0.3876237435313996
-0.6822385694550284
-0.2426514062691559
-0.6337294518868417
0.7109346113260135
0.6130315919752983
0.2162266016889668
-0.5433307958229378
0.9458840964247142
-0.7790343549803693
-0.1668497414426429
0.01289666535613286
-0.004977124694694549
-0.007919540652856851
-0.4033513549969036
-0.09505480322327353
-0.2417373391859914
0.8547689343538217
0.04862522123468533
0.3334197593820292
-0.3820449806127659
-0.4616748049251771
0.9640139247843699
0.6803633281130602
-0.7829575195536355
0.318163581991621
-0.01457438111693699
-0.3035892008382353
0.9306944759059227
-0.9306944759056894
-0.7818996625060933
0.1115055863809645
-0.3236753386241781
-0.7499629083301718
0.7598341274809878
-0.09124864821582374
-0.1429602695766375
0.2342089178023798
0.8648632826592214
-0.03936772772126133
1.054631364044852
-0.8004955969354502
0.186712600921306
-0.3163971540822144
0.1296845531543711
0.8584118372299232
-0.09671497346158631
-0.6113564899524698
-0.03934037977475209
0.6506968697278883
0.1234867525555063
-0.230390024832525
0.106903272275758
0.8055250551437421
-0.9832547422895044
-0.4341483576925581
0.3290346623811294
0.1051136953015005
0.5335569817406025
-0.5564466795113692
1.022013678394964
-0.4562564040255826
-0.5657572743681843
0.5992018814976764
-0.7192647207653915
0.06643332600830923
0.6528313947556853
0.1019369500983685
0.5697720156933833
0.05493560240823128
-0.624707618103158
0.1950130838150241
-0.08350750421318344
-0.4921060105159354
0.1450476802462156
0.05029980242059662
-0.8864852097552043
0.8361854073337036
-0.4742958480974924
-0.7131807753674042
0.04889113616941259
0.4367575873142565
-0.005552493293901955
0.3001168013371868
-0.8553075392118159
0.555190737876454
0.4157589530395837
0.5842410469588406
0.5606174716076683
-0.5145282003166856
-0.3667887979692154
0.03960967020131672
0.3271791277974427
0.6812595101338117
0.2494349617764491
-0.5677637040015884
0.5729360335510315
0.1115971815344336
0.8748227624563506
0.01027855697220449
-0.6216350400843214
-0.7490960010185552
0.7993958088843469
0.5304316462584662
0.07094498290038243
0.3003223645572757
-0.3712673474610432
-0.1674936752769629
0.4451559962710955
0.08599620410469941
0.8737248195647511
-0.8033672754644321
-0.07035754409958982
0.6354637885396205
0.3104203112103995
-0.4308418429404837
0.5742489049096615
-0.5033039221108377
0.4170343976159395
0.1326490292949822
-0.04677477792485128
-0.5903333980240539
-0.1395499708980255
0.7298833689206953
-0.1496941170548786
-0.7810003636424591
-0.6110570134952813
0.3601528204587421
0.2509041930425439
0.6220228627955495
-0.6117443028948693
0.2387132879150251
1.011724358593588
0.0429070080850181
-0.7490960018549183
0.2239349936763974
-0.2110383323447491
0.680363323675384
0.801914039287549
-0.8019140392859594
0.8375940554060931
-0.8330966294460234
-0.004497425960083421
-0.4453345910752657
0.8610935448966185
-0.1474083071345094
-0.3446976970629823
0.7347727727895418
-0.6685770509059638
-0.06619572188373768
-0.7359908902374733
0.1456574987668288
0.1391550930843333
-0.6720523229821852
0.7829575151383998
-0.950451190415302
-0.3669490010049582
0.2860841384324209
0.08086486262356755
0.1456972249416858
-1.010012103780989
0.8643148788389703
0.4806339511925581
-0.04186277776294333
-0.3080673159325878
0.5862228716457353
-0.2781555557144922
-0.738545008188529
0.8842422302667373
-0.1570114839744101
0.7324666836099513
-0.8370190068084004
0.1045523232039869
0.9774880657704486
-0.5395415516300244
-0.4379465141386729
0.755139258251503
-0.0649113968426467
-0.03557943409043084
0.1852980954853626
-0.1497186614047919
-0.7757810600298438
-0.8393947222154304
0.07190138951046944
-0.7499629070222837
0.513936926164785
-0.5545023357541431
0.0984517760725738
0.715977056035212
-0.8144288321080055
0.7535934212093576
0.1743030287570145
0.5029266462676495
0.4970733537324147
-0.05505454237082907
-0.6098972769279311
0.6649518192830519
0.8791525466668105
-0.005427728512569069
-0.7551392582516845
0.7993958121175613
0.1916461951505862
-0.4472708478742748
0.01281856867244828
0.003152537679759434
-0.01597110637194693
0.5892229392449202
-0.4374562612922487
-0.1517666779588749
0.7180258042165069
0.01156574501074834
-0.1069280389932596
0.4387526500630066
0.1504702896053537
-0.01511108555828275
-0.007738916046722314
0.02285000160956117
-0.03201788065542851
-0.003561535525663189
0.2457987433654505
-0.2603731269289727
-0.95892552627743
0.001712251090534421
-0.1595297141600015
-0.1211502472348948
0.094699555295459
0.7222765842821812
0.7289335061986575
-0.1446924593143402
0.6706136869456089
-0.572161909138689
-0.2119631408029247
0.398675737207836
0.6956379991350443
0.02238780508181771
0.2418063033968295
-1.074902924625877
-0.95045119542963
0.3025386263369251
0.7598341266483625
-0.2093368912159792
0.06637662133827876
-0.7239888335589695
0.9101909606204668
-0.1862021270598615
0.4159047160102117
-0.02828097453946386
0.7712740159367772
0.2807352783962453
0.376546337629345
0.06934376929515529
-0.6587151915391645
0.6587151915391607
0.2148248194741413
0.6957825655205719
-0.05627594603075553
0.3896956953108305
0.3787775382378186
-0.01247685888263111
0.02529542713706963
0.4483683136784852
0.03226564438574824
-0.7385450097160051
0.5339747551037219
0.2007980226984965
0.300267343107827
-0.1149692579193182
-0.6956380022746689
0.1795065472177234
0.7306844116585953
-0.01027250885733491
-0.8135789274277441
0.8238514362845806
0.6964189986349579
-0.7919453959209659
0.09552639728454676
-0.753593422271478
-0.1511254567110633
0.2123512400517062
-0.06122578334137977
0.07757758284400314
-0.1781548702186669
-0.113361055354
0.2915159255530778
-0.00552098790162051
-0.009590087160562633
0.70647040009936
-0.7167429108110692
0.8870239527588158
0.0721908155546748
-0.3149842810695256
-0.5208821302383271
0.8358664113047577
0.1040316219078027
-0.1040316219356601
0.3256938271515389
0.4734388826725446
0.6152879104819972
-1.088726793152081
-0.194076866235208
-0.5855807822000687
0.7796576484349607
0.01363958669815008
0.2205693290345373
0.3761908213065422
-0.252704068064988
1.016018520128517
-0.5425796393153878
0.6685668020433754
0.9932592086812218
-0.3779712986775465
0.228782517088993
0.8842422290715142
0.7126511554998632
0.2139127306562887
0.7277718584406153
-0.7810003657592304
0.3412848182245115
-0.2820238842541321
0.2573292125663628
0.02469467173883056
0.8479491633494205
-0.001113801429742254
-0.8468353619214274
-0.7022064644696278
0.702669921562285
0.5546654102943767
-0.7022064655230285
-0.7126511554994758
0.7026699197899703
-0.03420672856050001
0.9096391270762679
-0.02261517538402756
-0.6812595052723567
0.6122725651441071
0.06898694012857927
0.5384914229057257
0.5377270227329775
-1.076218445639302
0.4872705759171869
0.528747943280279
0.5468273641143955
0.4573940156735548
-1.004221379787757
0.4923679405238948
0.5008912670509792
0.6122725621253764
-0.5256140662011417
-0.4662538219731946
-0.5565744130512783
-0.5140863145577605
-0.1210419495911683
-0.01266286830824922
0.01266286831147877
0.5112342402671289
0.5242886196257563
-1.038374934182972
0.5720652877285169
-0.2717429209441342
-0.8837117351185981
0.3441701813105067
-0.632987254534231
0.3903358490272764
0.001244850645804443
-0.8254846567867533
0.8242398061432463
0.420866190211785
-0.02339831535563629
0.8713474783255489
-0.9487137347241865
-0.8328932240478604
0.05461100929153644
0.7782822147585281
0.5631927127474062
-0.4397546781318237
-0.1234380346203535
0.6502771734131781
-0.7293851246659928
0.8885074941441797
-0.8278227815993952
-0.06068471254288044
-0.01404345925958193
-0.7893238176311116
-0.1108931462494654
0.7121455448149576
-0.6012523985657231
-0.9400003885355622
0.9259569302462273
-0.7260504898657297
0.6893633377167312
0.03668715215034159
-0.8064853388128672
0.03264757786766649
0.7738377609453367
0.06196627096197262
0.04206534684121982
0.4327658348395676
0.06020624568870826
-0.8511899794069591
0.790983733718968
-0.6460568236322755
0.591002282225269
0.8881698795401108
0.07312110622125084
-0.9612909857588825
0.05527665200879178
-0.04989997521148569
0.3770791101425305
-0.3819743505198931
0.06557719711260271
0.8409592153494081
-0.8397143676697525
-0.7342945211679109
-0.8165976034649001
0.02727378524315317
-0.1647412827611114
-0.8499547545850054
0.02213197040080027
0.6214981642533547
0.04911552006838718
0.02816202560477733
0.5350306824360779
-0.8135114490960036
0.8461590271045498
0.565757265577788
-0.8488829771787917
-0.866879285923034
0.04275984093677213
-0.0269702032167725
0.8350973030334624
-0.8081270998159751
-0.02571495341941437
-0.7612647246815897
0.5442951381866651
0.1521238549977818
-0.02158585291047282
0.8929333296270642
0.9805679356623481
0.862514664735721
-0.840382696078432
0.1479683162289286
-0.1479683162197473
-0.1176940521205342
-0.4690242277512997
0.02926954568689578
0.2704478124155053
0.03209081392243986
0.3881120987699624
0.8672183761511725
0.00947877007996868
-0.01499977432149223
0.6585824237053407
0.3414175762945077
0.7836619412167081
-0.5835721163576738
-0.778107789165383
-0.8092409033479913
-0.6798829515129531
0.679882951513284
-0.1681853736955591
-0.1554899701653615
0.6023790541022159
-0.8116201513090654
0.2092410972070514
-0.4940661654123304
-0.5688912847210895
0.2779877574742517
-0.97200955264643
-0.8996375578038263
0.8389528427875175
-0.8137398453986728
0.8410136317790476
0.6486082948966776
0.134172615066893
-0.7827809099639745
-0.7725537517709347
-0.1464357570280249
0.7248851801987762
-0.5784494231722362
0.03241918271388242
-0.01182407536169164
0.01606823451763132
-0.004244159158229175
-0.3532494028820305
-0.1157748231126695
0.8803668118436593
0.7468258277100897
-0.2443638516198197
-0.5024619760998447
0.6233877909131105
0.685753512683673
-0.4709286957581507
0.0001006993029853366
-0.2856209723707907
0.01333398101610932
0.751455162003781
-0.7647891430166619
-0.3234012567964754
-0.07312080932096386
0.07648065446672772
-0.966311400189121
0.1194760363166449
-0.6774475359179273
0.05359314798140757
0.6397030658667926
-0.6932962138488581
-0.756003512512785
0.07855597659542587
0.5886058161178903
-0.661726625438612
0.1574767738195683
-0.3356316475593826
-0.7711833830029465
-0.001370368769204384
0.3710792130017199
0.5998372485093206
-0.02558834250774859
0.01889761806950857
-0.01889761804977898
-0.0204018085134603
-0.04876082816465942
-0.2332630594758148
0.02835388649759797
-0.0188751038768209
-0.7220678615219829
0.2792825085587712
0.6799627158379462
-0.6887886310056973
0.008825915168226429
-0.5937530456933169
0.6473461900196349
0.6542267403693774
-0.06562092828877793
-0.630628515750198
-0.125374998217873
-1.050640579330955
0.01107634569691958
0.1368919731594498
-0.7087338777341146
-0.7415216602197328
-0.7636869323315846
0.3660830547359593
-0.4063566283809517
0.4601749382397536
-0.05381830984435408
-0.6626176711040013
-0.04611620663034059
0.5011812462393261
0.7306859954540293
-0.2359240004366482
0.1147737531730318
0.9676817674506805
0.4468351113351853
0.1325839348120584
-0.5794190461481575
-0.6766074254156348
0.01398975144741897
-0.04464534989715055
0.03282129787407022
0.6364941802880736
-0.7760441494834227
-0.001861475705605141
0.001861475716392406
-0.6009977036342283
0.6493453968822148
-0.04834769325277588
-0.6484454004283502
-0.1134097598295125
-0.6715554280061706
0.06113928477714311
0.6038125301266883
-0.1374858748081973
-0.8179911828582295
-0.5730422396767991
0.5690117610009691
0.004030478647814135
0.6283110489152088
-0.619485136064622
0.3225669385645985
0.2137318630852489
-0.5362988016493838
-0.1050274748397635
-0.6014637852009522
-0.09183243109249777
-0.1541625915459034
-0.5119029458261907
0.4041757043291022
-0.499230507776303
0.1266987418229005
0.6785690278288365
-0.8052677696495615
0.5992018814977332
-0.368549734379455
-0.03780688441763285
0.07702364207385413
-0.5889265879774357
0.5514043327261581
-0.0406023588092163
-0.5108019739151018
-0.3131953168020709
0.3057908044135049
0.00740451237784822
0.453299230230953
0.1187660534495783
0.05276295749582426
-0.3166072605313897
0.1576150157935827
0.1589922447363358
0.2330200128604751
-0.009085004072502872
-0.2932867697319003
-0.3100436398516182
0.3492189342625626
-0.03917529445003504
0.7880428410173542
-0.62586553210574
-0.02257986833068366
0.499245315689169
0.283965594272727
-0.5283294502131863
0.5774837073418335
-0.5774837073418119
-0.2897490034248894
-0.5864577961489019
-0.2955829455471781
-0.5864577963819058
-0.595207934090187
-0.8384909259856772
0.1699138776957474
-0.5965959717208218
0.8211176325516606
-0.003098007635602454
0.1174471987836698
0.482390050493839
0.09679120732191281
0.1861112525797327
-0.03648905922097547
-0.1496221933410808
-0.02758423007390325
0.5911035962365944
-0.9437910782061271
0.4229089454321914
-0.008483968787783203
0.003725943145392055
0.004758025666891206
-0.6440703549289635
-0.1319451709703979
-0.468393964289027
0.6009778969628682
-0.5034984003399703
-0.3255905350606223
-0.263336031562995
-0.2714983845709839
-0.111458196759208
0.1114581967455934
0.1531096904903188
0.05924155765580057
0.1971876038876211
0.4510899234870718
-0.5707464346461966
0.1023524701423226
0.2488452302303316
0.4665205729020995
0.533479427101348
0.6437652255333389
0.08780644488286241
-0.004203041422901547
-0.08360340335958451
-0.2771230772684145
-0.5408681055926094
-0.5502569166264981
0.1148673793094306
-0.1266958870447074
0.0118285077350042
-0.1054295244351859
-0.3853000609201166
-0.05001218352697136
0.6538247172722431
-0.4991849580262953
-0.1448853969019091
-0.3305676837507189
0.287790471229773
0.1286309759970679
-0.6182781138548518
-0.2046744261700338
-0.2630809833681489
0.002707860793344006
-0.4216148001138054
0.3238255410628128
0.09778925905789494
-0.09525451334381953
0.2917360072211532
-0.8959502361482549
-0.4573825390495662
0.6262404849706821
-0.7732685929515508
0.6682411181116457
0.3397957153553423
-0.1240886848809601
0.223683050265805
-0.09959436538862644
0.02786105241537742
-0.5862635263120645
0.02876292734234308
0.557500598967906
-0.9005998835619
0.5479289902776171
-0.6656230423952705
-0.1048382365179366
0.1098789819140712
-0.1098789819255866
-0.3165065662448632
0.3589178647473373
0.01816124061495458
0.02816131581650461
0.05964515750230297
0.5048433037811396
0.6658178499293735
-0.7361753953627811
0.03131385787449342
0.02053206581463785
-0.001634445071935091
-0.007035465575288008
0.007035465567643407
-0.4129281935562625
0.5316942483814693
0.01579294774739179
-0.01579294774643865
-0.7925737695459535
-0.06110739326360927
0.1230736595818452
-0.4562270160341649
0.5585794875391681
0.452025298737204
-0.5003729891621108
0.1503347365237697
-0.1503347365101691
0.03383422070759448
-0.00853879090301456
-0.0425116460116668
-0.9751402058614131
0.5371936891971155
-0.4667465108144917
0.04206534906420058
0.515122091754065
0.03066611911261259
-0.5457882108688036
-0.6165232224704215
0.1173382627110228
-0.3289894588141188
0.01354381234956573
0.3154456464713194
-0.1558175359410959
-0.08010646048057672
-0.5410481612774536
-0.04521537217137368
0.1368919722307422
-0.04002139008395204
0.03815992532343544
0.08053103543336766
-0.08053103540472302
-0.5265571640297055
0.4873818636682749
-0.41493191069529
0.1613100880151082
0.6223518532019378
-0.0970289998895235
-0.002829393585331061
0.002829393577870495
0.5329538967374481
-0.08324743525748736
0.005847366044804662
0.02701298735096819
0.03502986356932237
0.685797854950419
-0.7690452902103992
-0.6541015426510549
0.6315216761037703
-0.107828627017836
0.3140100305700079
0.7456467952805769
-0.02040180850143343
-0.2656614492949742
0.150692194315721
-0.7445919917520756
0.4838471340758202
-0.4280773229616403
-0.1014011434069785
0.003246969585161592
-0.01432380543845384
0.02415085392263032
0.411043183560989
-0.1215187427328864
-0.3892832390753836
0.6288733966588798
0.01969836162780902
0.009486417618261887
-0.009486417610299891
-0.3503884938639835
-0.07546723719723099
-0.5602305158760863
0.5571325082380961
-0.2374497488787126
0.4647041285860995
-0.1509816852858639
0.7312328681915155
0.6696595723530068
-0.04002139034187274
-0.6178231079408416
0.5627315333602644
0.284536694468339
-0.2796385724699442
-0.004898121977959673
0.5362671692777399
0.09342515370390292
-0.03899099476321689
0.1958525885350625
-0.1568615937668607
0.1195220120716796
-0.1195220120626378
-0.8586402887368818
0.002366417411304739
-0.1136800994848158
0.1406930868308496
-0.1314760364939526
0.1314760364780687
0.02053207790451391
-0.02323119951278495
0.6698442692474986
0.06084014046359679
-0.3225584785195075
-0.06274158238813354
-0.4712542948829343
-0.04603097835089036
-0.1511916789236776
0.1511916789071915
-0.04976917990197507
0.1437459139048518
-0.1437459138867083
0.1360486656711254
-0.1360486656735904
-0.3161964874940477
-0.1146453554451868
0.2259164522993493
0.1031182143887243
0.034788854764193
-0.8211970115911787
-0.1985932696358041
0.1698598969861035
0.02178629950623181
-0.2641380297608386
0.126259223876818
-0.126259223860761
-0.4143286690915061
-0.08490183719235492
0.2356441551548231
0.002866547516364599
0.04050963593451447
-0.5443883701543369
0.5785950987146654
-0.03745165214153422
-0.01231752770667174
-0.0251900082589649
0.01665123266225233
0.006588826435017817
-0.1848711999862581
0.1782823735556559
-0.1085878385913979
-0.2270437999206659
-0.1443128776681917
0.144312877650176
0.0724150353013366
-0.07241503531274336
-0.01893876609365787
-0.1085252487280622
0.1274640148261347
0.2354848032003687
-0.1835107712566279
-0.02706970824173508
0.02543526040846922
-0.1308549451150794
0.6182368086393227
-0.0390431614042854
0.4277245473945225
-0.04309768642977751
0.06594768866931114
-0.1529017101964654
0.1529017101830444
-0.6368601279655863
0.3080255372427724
-0.07924302013175963
-0.2340038683502285
0.003613837296677734
-0.120635381758278
0.1611450176999286
0.1958077367064164
0.0957081911492538
0.09687773953452404
-0.06184787597673149
0.07320402606908571
0.0416633516943852
0.06420119411146848
0.1056587012466494
-0.09968607643295437
0.2144598166894791
0.01134791322022237
-0.1185611967507273
-0.09971059320187961
0.09598884922790725
0.003721743987358893
0.01104567127252608
-0.02339932622622145
0.03735935958817642
-0.03735935959053457
0.07521720299563922
-0.05537880277667422
0.05537880277583458
-0.2243593461811236
-0.05261350547888094
0.01171237390817014
-0.103073001413003
0.01652664203235299
0.1088706633158498
-0.1088706633064853
0.2935969905254083
-0.2708203848222924
0.1622325436224145
-0.05101198108913106
-0.2198084046157807
-0.01684393918199903
0.01684393918701751
0.3676639409489564
0.2851674528892025
-0.5281596298491248
-0.09393273192240788
-0.03276315314948836
0.5289740264042886
0.2102947803521462
-0.1699532554104454
-0.3795715514119473
0.07652564079916097
-0.1471377890097487
0.1867053878525369
-0.03956759884876414
-0.06720731531106887
0.06720731531950096
0.8221724360799635
-0.5603794735036027
-0.005902583844614004
0.01694825515563156
-0.02001781562927051
-0.2874351349312408
-0.01748670019100421
-0.01283683843095231
-0.132216645097042
-0.5723298407296594
0.5561561343551974
-0.5690945022406103
-0.006878779705642738
0.1006049037753567
-0.001710040079025889
0.01685305755106023
-0.1671555947429108
-0.3360425387549745
0.2329695373453311
-0.05399443693483844
0.03505567442329794
0.1321429664340589
0.1736478309859448
0.3420811204061407
0.2757968583888541
-0.2775068984605449
-0.06155065082087567
-0.155292170747419
-0.220460045085015
0.07450985919586518
-0.0103086665922884
0.2134068840368993
-0.1965538264850107
-0.08627584732511984
0.1594798766945866
-0.3553626379074463
0.2078735784819914
-0.1913469364551716
0.08958893875061595
-0.4788721798526984
0.1738685525049345
0.1707956628648329
-0.2570715127177917
0.07347841106810347
-0.1949533965113952
0.1774666963208123
0.01738855822125807
0.1420913208294993
-0.03958585107020009
0.06560237200792496
0.4673515247310411
0.02051541993467041
-0.08621247234129996
0.05372979340876608
0.1263692790636869
-0.2600276285379768
-0.2309288385272251
0.5597435829383366
0.156909412362927
0.07873474118143822
0.07453185062190459
-0.03102659265377547
-0.008059610933246524
0.003161484850359719
-0.03263689325032024
0.1706036117692441
-0.177482391473334
-0.06206161841811389
0.01953268682364068
-0.1472557728277356
-0.05286208250948361
0.1523982225401936
0.2770351810471215
-0.03977583606397184
0.008591607969890894
-0.2553247733430399
-0.1327199673843067
0.2363728537759987
0.1783338138439978
0.1296917300373554
0.02205995156461567
0.08842085039584818
0.05245166600326438
0.4523916377788556
0.01506963423950863
0.09807927652620647
0.0429455634816146
0.07234900034715319
-0.1152945638366236
-0.2429921787630455
-0.2003937732016807
-0.01941463222749027
-0.2018369963169376
0.2747394064713921
)
;

boundaryField
{
    FrontBack
    {
        type            empty;
    }
    Top
    {
        type            calculated;
        value           uniform 0;
    }
    In
    {
        type            calculated;
        value           uniform -1;
    }
    Bottom
    {
        type            calculated;
        value           uniform 0;
    }
    Out
    {
        type            calculated;
        value           nonuniform List<scalar> 10(1.034097939715368 1.064105488774837 1.022828235024535 1.021115883760759 0.9951210372825152 1.014977581356395 1.035522859422471 1.06295745013433 0.8672327102645462 0.8820407416954134);
    }
    circle
    {
        type            calculated;
        value           uniform 0;
    }
}


// ************************************************************************* //
