/*--------------------------------*- C++ -*----------------------------------*\
| =========                 |                                                 |
| \\      /  F ield         | OpenFOAM: The Open Source CFD Toolbox           |
|  \\    /   O peration     | Version:  2412                                  |
|   \\  /    A nd           | Website:  www.openfoam.com                      |
|    \\/     M anipulation  |                                                 |
\*---------------------------------------------------------------------------*/
FoamFile
{
    version     2.0;
    format      ascii;
    arch        "LSB;label=32;scalar=64";
    class       volScalarField;
    location    "817.5";
    object      p;
}
// * * * * * * * * * * * * * * * * * * * * * * * * * * * * * * * * * * * * * //

dimensions      [0 2 -2 0 0 0 0];

internalField   nonuniform List<scalar> 
808
(
-0.03455109305986064
0.04432882705737336
-0.01121156218953423
0.03639998115617403
-0.2996084456007554
-0.05534090340163047
-0.01524137150947277
-0.02409345208875744
-0.1972601224242534
-0.08421042962194956
-0.01049838117361081
-0.2544588181138272
-0.03065388822490992
-0.01365252175525739
-0.1204325014726979
-0.01416837430875757
-0.1371484297075818
-0.01368240693875547
-0.01244582156176591
-0.05580349172682068
-0.007179156599957852
0.1175702500895426
-0.06217179421987096
-0.07194952497844388
0.1756288909304413
-0.1000589464185633
-0.1528267768601967
-0.02039300778263262
-0.01746387264609624
-0.02567176284121075
-0.02029434565618128
-0.05863724844607955
-0.02275664544789806
-0.01685996959905984
-0.09991203603215007
0.3444374556170229
-0.03936725347470196
-0.01644649874515044
-0.02283395770514575
-0.02649588274837891
-0.09064305617250967
-0.1270508553917769
-0.05187604430088479
-0.02119778641548593
-0.05414655890829419
-0.04121588372846213
-0.01203128516697971
-0.1849271785264167
-0.02702414625618319
-0.2045971555620552
-0.01686320391418107
-0.0674957125772627
-0.06069892773449783
-0.01437146765459357
-0.1930993411680119
-0.02831522705537995
-0.01051829321957775
-0.01399999423840732
-0.1006655054548701
-0.0397943388910063
-0.1100270642002188
-0.1263626089180664
-0.01410253021021181
-0.1296480694906133
-0.01744506862362101
-0.05166500149520473
-0.165616175433129
-0.0354712067709033
-0.01508274881499606
-0.4411896985583392
-0.02648020248264474
-0.3021923197324491
-0.02162744981232049
-0.02096081146627253
-0.06537143022893517
-0.01778387584426845
-0.04258131029538342
-0.3619902707121362
-0.03614275842515929
0.04066005545488312
-0.09115901916319642
-0.01696948851727502
0.05710120181014515
0.04471761968641286
-0.01708682666354877
-0.05230252724395082
-0.5426396175533635
-0.2258811381135138
-0.05226922767298606
-0.1124307874468875
-0.05676493197218671
-0.1330645355777655
0.03952989265001449
-0.02520193548221589
-0.06177726078113834
-0.1215571315628789
-0.03831271389066863
-0.05178998736439364
-0.1165773562367116
-0.1404166917724897
-0.0527510213419467
-0.04738076926724755
-0.05452143430221449
-0.04484612573025308
-0.05738054916709956
-0.07447739197432685
-0.04001377032527278
-0.01076355973799548
-0.04026541320526462
-0.1243888946793992
-0.05036903020578021
0.0823910037089957
-0.04237916088424804
-0.007654026262733759
-0.02761913152242877
0.1805772847622205
-0.03887106483279481
-0.2690409946399016
-0.02064054542414529
-0.05370155804272645
-0.03825067237057601
-0.04881696060091269
0.01342865209415335
-0.04884054515080511
-0.03540303324025253
-0.2169799269296703
-0.04142045086370516
-0.004462930542948818
-0.07613172429672234
-0.06875986017979031
-0.1521907678056089
-0.02122841362034591
-0.07543325876020968
-0.04265720998037382
-0.02297878436302451
-0.01567868387997941
-0.006057667429811999
-0.007614117780333562
-0.05239252030517013
-0.04984799870831197
-0.2103399638409101
-0.05673661996318105
-0.008320821969030301
-0.02222720829001924
-0.1471215246934873
-0.002046263782230687
-0.07647504323146058
-0.0223243398072413
-0.0003019341286105519
-0.01007196881131362
-0.03328291175965284
0.09447029689446106
-0.03879038313614009
0.2522200511849005
-0.2589857775801521
-0.1322666217735888
-0.03773108435594583
-0.09084119945344425
-0.008994359925878359
-0.1133702175066004
-0.1735755689299426
-0.2126319125531658
-0.1817354724115276
0.05624149483165611
-0.0629643759994952
-0.02048939917848588
-0.06696067752766716
-0.1743088573746293
-0.02338268228222979
-0.0187556672794839
-0.05210307680921191
-0.01941667354947362
-0.006880575838843016
-0.1083418370632402
-0.02332365839507037
-0.04533683675696074
-0.07003302109208978
-0.1617278279563058
-0.0333040476624892
-0.3890430575529538
-0.0178485132146359
-0.225259784024305
-0.04437265269324908
0.03184416619020055
-0.1051111368945056
-0.01547193297693571
-0.04258915620728861
-0.1054785556091743
-0.01783674597011825
-0.09634047845927293
-0.2030796778964297
-0.07207328792407723
-0.02404091528107258
-0.04839787299150948
-0.04281823271594947
-0.2011141634422825
-0.02223673277780596
-0.0192130733916764
-0.01131895590507474
-0.05611786449533939
-0.05082700600086664
-0.02263924091953209
-0.02064601625067594
-0.2384745854772414
0.1275155223306948
-0.2041251617580633
-0.1971039319509285
-0.01172314422643021
-0.01141581350265398
-0.06700066658866731
-0.009853885716507631
-0.5001341964004143
-0.1273132274998934
-0.019420955812293
-0.001351790780981111
-0.0239104705169497
-0.2812938605628531
-0.2765766844391023
-0.00748727583807289
-0.01794594122310848
-0.002230327353406597
-0.3473654206071003
-0.02849468893052814
-0.02933620190185218
-0.01264051395275272
-0.0195411897252201
0.04970514162658914
-0.1218516258572558
-0.01397179614056455
-0.02085472697603067
-0.04428819136393979
-0.01833230674595563
-0.01633198808479427
-0.02345559908006927
-0.06740833862259436
-0.01134883911024159
-0.01895029387158825
-0.008861246802308599
-0.001313384681733817
-0.02938294099327967
-0.001922010986529142
-0.002074850521615056
-0.00589604974402933
-0.02552643398409715
-0.0081097355875698
0.001658894849176725
-0.004090753774275052
0.001171051556151195
0.002341590286829045
-0.008659160932780314
-0.1323266328547095
-0.002962013729588253
-0.0002834750796607567
-0.04758900954580174
-0.02138042619413521
-0.02418886987665424
-0.01411496181626852
-0.006153894147553727
-0.02106516221824175
-0.03879802186068175
-0.01484954023764397
-0.01261882840218624
-0.01182783028620245
0.005666749750005745
-0.009785563612637927
-0.01302498998983954
-0.01130399472007033
-0.01027953363715091
-0.01004483347073959
-0.01091671228766242
-0.01374661692496346
-0.297664864101371
0.05999185069074373
-0.0150882079924657
-0.01614052770228354
-0.01256734339765782
-0.01253909052639683
-0.008344020680506565
-0.09955782623466382
0.01076088918112272
-0.01428524721995693
-0.01421203946728815
-0.01071816608755925
-0.05204434242453268
-0.008272579608329051
-0.01397749599974799
-0.009414048215401248
-0.002341664252722617
-0.01062056589284549
-0.01044210567808443
-0.02450755257524925
-0.01591118679279731
-0.01234992944766508
-0.0133508753415896
-0.009697647817805187
-0.01329166420700907
-0.01094884066578054
-0.05864914882092965
-0.01310890153415496
-0.01212608805939144
-0.009006544100753324
-0.01524845302326187
-0.01416074663449126
-0.01571749792419115
-1.374268023157659
-0.09946040472760233
-0.01199412393289452
0.02278852442626939
-0.1637323342930721
-0.09394704977691613
-0.01175569308553491
-0.01419722640436086
-0.2486717160992235
-0.02948948233516127
-0.01907273824420015
-0.01173368444634535
-0.0202471548517167
-0.01110692739527326
-0.030740756298417
-0.4118251726176437
-0.01203260696330117
-0.01408187127915731
-0.004598593212007405
-0.01049357360264078
-0.00916738021690105
-0.01405895059087312
-0.009115797610362211
-0.02691359331753915
-0.01152599321472179
-0.1650419796820455
0.0186776710468894
-0.007546890090727103
0.003311948412956238
0.01198713313324696
-0.04827226184073313
0.02871946372167473
-0.01273452983217309
-0.1346102513455674
0.282457961776291
-0.007916798626145791
-0.01329508826391932
-0.008137900089331811
-0.03340410467143209
-0.1241872780943481
-0.01341138963560776
-0.01212986447909666
-0.01748277480935555
-0.01357304804070964
-0.04136913776098781
-0.2171705499275272
-0.01018983329521028
-0.0425002933303266
-0.0389579015332656
-0.1736359728109692
-0.1558295320814646
-0.1547474233676399
-0.2493822019537735
-0.004247452873167967
-0.02093461372147614
-0.01531617204878906
-0.0136057144779491
-0.03333023166618764
-0.02443482798475924
-0.01416917382932649
-0.01499600613734598
-1.076355458983087
-0.003163880849693732
-0.01362704286430547
-0.0181421292937843
-0.01792200344266667
0.005662685356236522
-0.01397119805073557
-0.02654382046491038
-0.1625877121599285
-0.01356304622218356
-0.02130572362230858
-0.01445334021490838
0.002065282018146489
-0.1777100723987627
-0.01298163615136085
-0.1528493612606541
-0.01567699902664143
0.008789805968893106
-0.0141059211542962
-0.02378461347183087
-0.01623652595692072
0.006979409758259378
-0.270655110055445
-0.02624231875798855
-0.01666752665210307
-0.01379623839504891
-0.01037196555722008
-0.02985338146681904
-0.01397529525485061
-0.02089582869940203
-0.02084132505271808
0.008445774880766208
-0.09925187850611308
-0.02157144853535686
0.009477116155363311
-0.05449350562048431
0.1695852824700931
-0.1047323327750464
-0.3196279758249942
-0.02950421643705988
-0.02568564820995003
0.1499758665017801
0.09570502009642134
-0.003546689209149686
0.05219470832636489
-0.01545502423423093
-0.01372233701543532
0.002526621646207583
0.009906637700670047
-0.06589214572195744
-0.004670369909647673
-0.05665598810568717
-0.0229730733107492
-0.01568056359227163
-0.03650637781154184
-0.03293228911002262
-0.006679095376332014
-0.01460470709637779
-0.03794692898275102
0.03266478532475995
-0.03870630752346252
-0.01365531333586827
-0.1180600632158468
-0.03122209611346324
-0.03935705597809199
-0.6735857761803774
0.01436249940173651
-0.01099064244231143
-0.005397116204221904
0.1806309144626714
-0.09558799206036821
-0.0355826999052579
-0.2445751766265546
-0.01565796734448921
-0.01627125810999333
0.06930471728412188
-0.1831186469933673
-0.2267558616325852
-0.190308555259392
-0.6816123048137859
0.01132489638969838
-0.01901102218971413
-0.01542963913521948
-0.09104182039759402
0.1182426230116632
-0.02182431631851382
-0.2488477644610633
-0.03575209597135025
-0.006723352338233513
0.2774038537146795
-0.0109354297686142
-0.09232117428444617
-0.1509038708401658
-0.004832234124701792
-0.0411668081813677
-0.04538125407465642
-0.1986806865555251
-0.008359177904347691
-0.0409622085748689
-0.003469119420743281
-0.5480297762336179
-0.197210929608134
-0.1770522446590515
-0.02331448082169801
-0.00824055502343188
-0.06108797607954002
-0.05725732211394643
-0.01605164004013465
-0.06864726843013302
0.003831180401689116
-0.01788110376812915
-0.09561694198524889
-0.2725398684415549
-0.009374373719855701
-0.02527065275089786
-0.02160112135157048
-0.07540356817268323
-0.09000711926113063
-0.08884742522098237
-0.01114494629838241
-0.9163503859382365
0.1613243454787045
-0.08249389181647331
-0.2541037924278652
-0.04189798858059009
-0.00948889460158912
-0.2461754116589946
-0.1895124606661746
-0.03201061179687135
-0.1170345020961795
-0.01776971996176062
0.562441629548307
-0.02464008497273104
-0.2182487475697324
-0.02553681923357911
-0.004193972690224518
-0.01121947510131848
-1.251862443638484
-0.1833614188524566
-0.2303812215232702
0.005336778266592875
-0.0384268326762686
-0.2396969365043027
-0.066334437979528
-0.05163422266792474
-0.143722016568843
-0.1875173866678293
-0.06898026273032853
-1.222787776226087
-0.1553667715701458
-0.5323732881040277
0.0788150769256175
-0.006717293396289116
-0.02141845816489358
-0.04370262978050952
-0.03935764309279171
-0.02808295372241633
-0.1312568361233876
0.08065343719015537
-0.004441322008554089
-0.009754732874832623
-0.569291164946405
-0.8561117662735899
-0.1803635663664201
-0.007715543873962668
-0.1262574873184413
0.0006986349398627001
-0.0007822322118666538
-0.002587221666624078
-0.0612272030690427
-0.2361407887190235
-0.01340424134671244
-0.1139564266134846
-0.1549236264417681
-0.01314670205522351
-0.03505505200668174
0.02555631764406805
-0.05815250851331075
-0.07098308149223306
-0.4972616507933315
-0.2410908413238903
-0.0805170507889191
-0.0740502967025658
-0.01953936145056717
-0.1130736007210676
-0.1623256726727566
-0.08049041995140931
0.02688267957839097
-0.08591722927722698
-0.04928394054866517
-0.0149522542643347
-0.1144408860010647
-0.2773850178913292
-0.05818394636549491
-0.01823005577463245
0.001886819289419805
-0.01020950867716366
-0.01076782548683851
-0.2304790285193307
-0.01417139110582143
-0.2196399220178326
-0.0107788608932517
-0.06756486917219708
-0.003697690100066198
-0.02322115870363441
-0.3860486339430387
-0.9185982820534475
-0.01125681105725983
-1.046348963259451
-0.6068941348232345
-0.01072894330005104
-0.655131101564931
-0.181733347832946
-0.004970240057962769
-0.1259654219255961
-0.01720425529722943
-0.1234611433136674
-0.06609559269039328
-0.0762414607633711
-0.005578407645073856
-0.003476373367840284
-1.338089409589785
-0.01119996274132682
-0.190541758734391
0.0008328599904849699
-1.012163324396167
-1.239208202643307
-0.07995780063660525
0.01846492373406394
0.1645375935823941
-0.004961928282326241
-0.02296532333398892
-0.004350250238021276
-0.2436036217133226
0.3659240295993786
-0.04167236123883562
-0.2122990351452849
-0.01518482461071787
-0.6567635815433794
-0.07360716971669808
0.190497201864661
-0.2963948340462078
-0.05044228066482789
-0.06967350866816188
-0.01579056308617909
-0.02150417264799533
-0.5853910830813399
-0.1500393756151323
-0.0922822777326778
-0.1210146428631677
-0.5545100781496509
-0.04492851575173817
-0.9073051409892893
-0.001037464011107901
-0.2410700557583324
-1.048141400979187
0.1693556285136044
0.2917830671593201
-0.1727094429955194
-0.1916649782860473
-0.2092939295990657
-0.06714115031969385
0.02485473982774901
0.04943506711957619
0.004932712315019315
-0.1555912091407612
0.02539554111602433
-1.358722384337456
-0.08627787605261805
-0.4756335277628209
-0.3313290980564969
-0.2137612844474283
-0.1780174256528112
-0.01696307174388419
-0.01538088436738735
-0.09623710125154841
0.1713363370364247
0.3854049791161621
-0.2177476857993845
-0.1521117462942063
-0.232986921473723
-0.0631339621551215
-0.159607834258371
-0.1688454976005762
-0.1266291127562848
-0.1122675114303135
0.4668040594216089
-0.2773321421688343
0.4306417283726758
-0.5942791639081049
0.0716921769447519
-0.1945508116213454
-0.06709638494591955
-0.07560253916294388
-0.8854123696390768
-0.2215690041624429
-0.1907637994913544
-0.3510350832933666
-0.4619802837422088
0.5702566983470793
-0.2077081027969394
0.001432285485485083
-0.06919692416762978
0.3436494117468906
-0.03621586009018325
-0.1201734846420243
-0.1799066488745973
-0.06457184211243619
-0.01638070046890655
-0.1954748300256173
0.193041144172292
-0.01259284839160073
-0.09757878761582592
-0.172305551595694
-0.314259916090216
-0.3108354671872479
-0.07775800730687703
-0.009849954702672706
-0.0757551066795249
-0.6549860935941237
-0.669252078034051
-0.3300081757577767
-0.05854702525445705
-0.05072438390726632
-0.02481406047068678
-0.06891173925361535
-0.05637671249096147
-0.3639548405484669
-0.9575115790257481
-0.00905065509143896
-0.08420168027264847
-1.13930016050859
-1.035752671733166
-0.1052833916193792
-0.03992815791096529
-0.06891481443797177
0.3906019536618081
-0.3424377646613882
-0.05241130807521269
-0.6007423677159396
-0.1333236801705773
-0.2509752161194795
-0.2112749545082726
0.4741158376067524
-0.6314771248314385
0.07378447579670802
-0.02889542578948516
-0.5636211009423293
-0.05287432488779416
-0.3618487004252645
0.1075636137179999
-0.1918422897305685
-0.06072815885423435
-0.1283691588600513
-0.3613905136367414
-0.0876132094717426
0.5141234569275466
0.08612003789808811
0.4709493029851803
-0.1234078680887379
-0.2032340707684661
-0.5147855322576986
-0.1315888065985429
0.02571148015037152
-0.05459500266004048
0.1020468078743152
-0.3078425666466904
0.2363654002536113
0.007496767087875263
-0.002973815045989614
-0.5115779159206955
-0.1837928656575865
-0.09865577913166294
0.5811974711401958
0.1389968805991065
0.3463145404156815
0.2255243831602317
-0.5623944209333785
-0.2145991004356518
-0.2184276042197241
-0.2344510222014
-0.06133663031081145
-0.6921138572690881
-0.1931320157040465
0.3058360162661675
-0.2092596538991308
-0.01108382422086274
-0.1671912087385811
-0.01058754719939523
-0.1658641835815801
-0.4411721027668909
-0.0769388013293333
-0.2015117897149082
-0.07445658152108021
-0.1061242667839494
-0.1357695494865351
-0.07322514313529849
-0.4461519632813969
-0.4139273799212754
-0.02595911844487293
-0.07584623845457576
0.3267885915784127
-0.249511423432565
-0.1762075871988684
0.5255904053375878
-0.1983347330617664
0.01886519900105068
-0.4518156126701731
0.0463903412045483
-0.06081317685919843
-0.1577329078702143
-0.5868611934091814
0.161522760244644
-0.5790486090029893
-0.5366566144319742
-0.1047393964602298
-0.508732722041657
-0.0366263500636905
-0.1516140285976507
-0.4107753560365914
-0.01621224812848722
0.2868336889202712
0.4895830146107938
-0.1636628971977139
-0.006976422778039547
-0.07397959362570274
0.525316015140314
-0.03267335619620562
-0.4420129653182954
-0.03208366685539638
0.4605401798968402
-0.01600055098164123
-0.5462714685034928
-0.239786574404247
0.1764743104015847
-0.3125198290536499
-0.1801070172499098
0.05100678091588046
0.0325439588612463
0.05530245144535629
-0.3015917484059523
-0.1574927756289928
0.4128460798431778
)
;

boundaryField
{
    FrontBack
    {
        type            empty;
    }
    Top
    {
        type            zeroGradient;
    }
    In
    {
        type            zeroGradient;
    }
    Bottom
    {
        type            zeroGradient;
    }
    Out
    {
        type            fixedValue;
        value           uniform 0;
    }
    circle
    {
        type            zeroGradient;
    }
}


// ************************************************************************* //
