/*--------------------------------*- C++ -*----------------------------------*\
| =========                 |                                                 |
| \\      /  F ield         | OpenFOAM: The Open Source CFD Toolbox           |
|  \\    /   O peration     | Version:  2412                                  |
|   \\  /    A nd           | Website:  www.openfoam.com                      |
|    \\/     M anipulation  |                                                 |
\*---------------------------------------------------------------------------*/
FoamFile
{
    version     2.0;
    format      ascii;
    arch        "LSB;label=32;scalar=64";
    class       volScalarField;
    location    "46.1";
    object      p;
}
// * * * * * * * * * * * * * * * * * * * * * * * * * * * * * * * * * * * * * //

dimensions      [0 2 -2 0 0 0 0];

internalField   nonuniform List<scalar> 
808
(
0.146705
0.0378218
0.00865995
0.146722
-0.159365
0.0399747
0.0334613
0.05444
-0.0714203
0.00677285
0.0433039
-0.0842446
0.0449173
0.0351496
-0.367424
0.0428905
-0.388445
0.03777
0.0268975
0.0350715
0.0611877
0.364733
0.0683567
0.037146
0.436826
-0.117148
-0.0114546
0.0216113
0.027263
0.0241248
0.0219063
0.04662
0.0300951
0.0199378
-0.049412
0.631913
0.0335074
0.0256955
0.0473108
0.0311722
-0.021497
-0.0114575
0.0450771
0.0379252
-0.0187038
0.0830798
0.0318251
0.0546307
0.0436445
-0.108031
0.0326756
0.0518941
0.0484074
0.0273329
-0.139957
0.0408996
0.0270146
0.0480877
0.0139535
0.0393379
-0.280014
0.0452358
0.0594435
-0.140906
0.0531823
0.0552652
-0.191393
0.0384768
0.0226062
-0.208604
0.0505806
-0.233228
0.0497276
0.0418264
0.222386
0.0295814
0.0155253
-0.14292
0.03434
0.284647
-0.0765141
0.0363186
0.0502034
0.29471
0.022246
0.000915011
-0.278562
-0.168988
0.0583533
-0.194743
0.0679187
-0.0547512
0.2361
0.146975
0.044412
-0.218501
0.0405634
-0.0249644
-0.0659207
-0.181592
0.0373442
0.0270822
0.0697866
0.00287821
-0.0997862
0.058113
-0.000432225
-0.0170691
0.0414023
0.071459
-0.0456548
0.313287
0.0468428
0.0823231
0.036598
0.45761
0.0424121
-0.190137
0.0405048
0.0859652
-0.362545
0.0487274
0.0436691
0.0878397
0.102724
-0.106895
0.138365
0.0829251
0.0627508
0.0695524
-0.185482
0.0546233
-0.0171878
0.103377
0.0405858
0.0405504
-0.0483136
-0.00880985
0.0483388
0.0374784
-0.449126
0.0787469
-0.0149176
0.0481495
-0.070027
0.013336
0.12459
0.182537
0.121134
-0.00332126
0.0452222
0.319706
0.059528
0.523147
-0.37777
-0.122846
0.0410896
-0.0962771
-0.031788
-0.121597
-0.250582
-0.424719
-0.189894
0.0490549
0.0664296
0.0431379
0.0512914
-0.182851
0.0457742
0.0592385
0.069101
0.144281
0.0135611
0.161484
0.0405446
0.0994554
0.0695785
-0.0993243
0.048866
-0.259293
0.0492246
-0.203764
0.0467429
0.287509
-0.27582
0.114059
0.037537
-0.123331
0.0404104
-0.0712004
-0.39738
-0.0420657
0.0362987
0.112828
0.0454655
-0.443176
0.0345235
0.058797
0.0250522
0.0672104
0.0951784
0.0562204
0.0352099
-0.22454
0.365736
-0.398961
-0.261447
0.0257912
0.0239604
0.0470194
0.0280254
-0.307503
-0.226529
0.0359104
-0.00179637
0.0418259
-0.235961
-0.105088
0.0259199
0.0618506
-0.00709402
-0.159621
0.0514161
0.0529208
0.0131107
0.0380788
0.120994
-0.27045
0.0826027
0.0261386
0.110406
0.0331309
0.0385467
0.0212599
-0.0373126
0.0421659
0.027196
0.0155292
0.0308926
0.0300298
0.0186727
-0.0069182
0.00195616
0.0202929
-0.00297875
0.0124888
-0.0248165
-0.0121108
0.0291547
-0.0197679
-0.249858
-0.00328714
-0.0365055
-0.12114
-0.000743589
0.041177
0.0289114
0.00868288
0.0428114
0.111696
0.0513132
0.017572
0.00894591
0.0275231
0.0300583
0.0102752
-0.0135794
0.0431537
0.0466141
-0.0577778
0.0220686
-0.304472
0.255469
0.00154145
0.044824
0.0371086
0.0059467
0.0247718
-0.213546
0.307888
0.059256
0.0310408
-0.000738764
0.114261
0.0468189
0.0126228
-0.0370087
0.00310389
-0.0264053
-0.062171
0.0480468
0.0429846
0.0718251
0.0426622
0.0118193
0.0152159
-0.0165421
0.048722
0.0167456
0.0166407
0.0533153
0.0361755
0.0372927
0.0217944
-0.414181
-0.0781358
-0.0299203
0.02708
-0.121862
-0.130125
-0.00523255
0.0371357
-0.268285
0.156775
0.183063
0.0389624
0.0374513
0.0385475
0.013493
-0.151478
0.0361657
0.00561199
0.0400957
-0.0465177
-0.077361
0.0408906
0.0256011
0.0333085
-0.0465645
-0.312031
0.0301029
0.0575251
0.110028
0.130516
0.0291514
0.214181
-0.0417327
-0.115263
0.553512
-0.00151077
0.0156302
0.039919
0.017866
-0.0733546
0.101485
0.0381933
0.0338402
0.0495656
0.00429556
-0.353244
0.0543986
0.0958359
-0.0211434
-0.327236
-0.25626
-0.262383
-0.248535
0.0430428
0.0489482
0.0318679
-0.0117694
0.0245692
0.0186807
0.0485825
0.0049433
-0.408334
0.0534189
0.0714864
0.0330769
-0.433314
-0.00304879
-0.0224071
0.140489
-0.215252
0.0560686
0.0147464
0.0831578
-0.041687
-0.292535
0.068144
-0.441458
0.0447815
-0.103043
0.0313013
0.0357069
0.0254958
0.102523
-0.243992
0.0371079
0.0352592
-0.0351248
0.000690145
0.0317486
0.0631621
0.0204281
0.0344503
0.068783
0.0748869
0.051447
0.0257007
-0.394251
-0.0106557
0.0243626
0.0465057
-0.104793
0.03187
0.446088
-0.350121
0.0184204
-0.132334
0.057844
0.0463276
0.0377546
-0.148972
0.0351415
0.0804722
-0.0303587
0.0389529
7.96584e-05
-0.00590446
-0.00688202
-0.00671276
0.0363873
0.14648
-0.115538
0.0307572
0.0288351
-0.0149701
-0.034446
0.0416557
-0.292637
-0.051045
0.0344639
-0.00996118
-0.216126
-0.335767
0.0287582
-0.0275377
0.0102344
0.0479273
0.00288492
-0.158974
0.171146
-0.214218
-0.360874
-0.404512
-0.0240132
-0.0516707
-0.331023
0.360096
0.0263152
-0.294913
0.0380708
-0.020686
0.601529
0.00662341
0.0479726
0.00746273
-0.0020071
0.0240117
-0.141809
-0.446525
0.0938731
0.0946087
-0.0135544
-0.187822
-0.198858
-0.290964
0.0370841
0.00818052
0.0888928
0.0157595
0.0114269
0.0776413
-0.0140784
0.0585984
-0.157107
-0.449557
-0.0140904
-0.0561242
0.0529186
0.00741229
0.107991
-0.0414384
-0.0404905
-0.36634
0.467095
-0.272096
-0.307437
-0.00512056
-0.0512127
-0.342143
-0.346757
0.149159
-0.248024
-0.187198
0.868845
0.0394995
-0.263905
0.0385464
-0.0345587
0.0650804
-0.366319
-0.369399
-0.209466
-0.0129599
-0.309446
-0.267054
0.00520025
0.0117094
0.0523531
-0.192863
0.0255376
-0.403415
-0.460933
-0.530768
-0.16993
-0.0477984
0.0449761
0.101025
0.155103
-0.00308583
-0.290681
0.322813
0.0489001
0.0269806
-0.341465
-0.399894
-0.21838
0.0728095
-0.25726
0.106677
-0.0802822
-0.0586574
-0.26047
-0.150181
0.0320802
-0.265643
-0.445773
0.02178
0.0269219
0.105487
0.0145923
0.0276326
-0.288267
-0.264927
-0.0701752
0.0706017
0.0501875
-0.249296
-0.410515
-0.314356
-0.255551
0.0223075
0.0875788
0.0156735
-0.275021
-0.436813
0.0797698
0.0516486
-0.151102
0.0420525
0.0220714
-0.471135
0.040342
-0.180174
-0.00225016
-0.247626
-0.0328757
0.00518589
-0.510113
-0.602425
0.00716985
-0.380796
-0.363479
0.0310156
-0.146598
-0.369827
-0.0365043
-0.275662
0.0623151
0.0418288
0.09327
-0.111947
0.0752292
-0.0312506
-0.563718
-0.0301751
-0.326886
0.0426123
-0.234558
-0.647871
0.137433
0.23733
0.448649
0.0220583
0.0121754
0.00193471
-0.246809
0.637902
0.0393449
-0.282909
0.0513979
-0.00330207
0.119791
0.459962
-0.515347
-0.00185
-0.0210901
0.0578334
0.0281928
-0.600581
-0.307731
-0.289627
-0.398415
-0.200509
0.0306874
-0.276357
0.132712
-0.363845
-0.405655
0.47374
0.561763
-0.481999
0.158311
-0.357047
0.0173643
-0.0219168
0.363034
0.015828
-0.245908
0.0411096
-0.635738
-0.0209524
-0.279066
-0.0831491
-0.449848
-0.397321
0.00555487
0.0164487
-0.23437
0.484665
0.662319
-0.208927
-0.428803
-0.236699
-0.0220686
-0.440624
-0.39093
-0.207137
-0.237216
0.731367
-0.472949
0.766266
-0.322121
0.356519
-0.220306
0.0125651
0.136806
-0.639611
0.273663
-0.369544
-0.426844
-0.454163
0.862833
-0.335982
0.238293
0.185681
0.665519
0.155818
-0.474649
-0.444457
-0.170632
0.0278859
0.0273927
0.558438
0.0297072
-0.0270735
-0.39588
0.05761
-0.0621699
-0.423721
0.0436606
-0.347767
-0.0902595
-0.235472
-0.274758
0.0227433
0.135928
0.037164
0.0591104
0.147019
-0.466599
-0.454258
0.027585
0.00289078
-0.580175
-0.641942
0.122523
0.162809
0.11983
0.645061
-0.0224398
-0.0801634
-0.482314
-0.429251
-0.00462715
0.0300836
0.751621
-0.57357
0.414165
0.0294558
-0.569039
0.127268
-0.146273
0.417857
-0.203985
0.0263056
-0.24489
-0.0175323
0.242401
0.828563
0.355275
0.742993
-0.261743
-0.445474
-0.324616
0.118797
0.245001
0.058957
0.346726
0.18954
0.502191
0.236151
0.0407439
-0.121992
0.0707606
-0.337569
0.882705
0.427354
0.621111
0.508833
-0.35097
-0.23945
-0.378159
-0.284484
0.0475467
-0.323322
0.152842
0.576726
-0.228482
0.0320882
-0.276537
0.166288
-0.461268
-0.503905
-0.142332
-0.435924
-0.375604
-0.296059
-0.251547
-0.100036
-0.323415
-0.0701379
0.0200842
0.115334
0.683859
-0.29913
-0.216574
0.81226
-0.22152
0.322913
-0.320639
0.430813
0.121537
-0.206462
-0.52282
0.40649
-0.20337
-0.418424
0.232227
-0.361435
0.00881184
-0.423782
-0.192171
0.0492223
0.590793
0.784535
-0.415281
0.259595
-0.293815
0.819137
0.0241169
-0.415655
0.0040944
0.778048
0.185957
-0.424492
-0.394248
0.482545
-0.288104
-0.0125186
0.310084
0.234415
0.324127
-0.335824
-0.414607
0.691254
)
;

boundaryField
{
    FrontBack
    {
        type            empty;
    }
    Top
    {
        type            zeroGradient;
    }
    In
    {
        type            zeroGradient;
    }
    Bottom
    {
        type            zeroGradient;
    }
    Out
    {
        type            fixedValue;
        value           uniform 0;
    }
    circle
    {
        type            zeroGradient;
    }
}


// ************************************************************************* //
