/*--------------------------------*- C++ -*----------------------------------*\
| =========                 |                                                 |
| \\      /  F ield         | OpenFOAM: The Open Source CFD Toolbox           |
|  \\    /   O peration     | Version:  2412                                  |
|   \\  /    A nd           | Website:  www.openfoam.com                      |
|    \\/     M anipulation  |                                                 |
\*---------------------------------------------------------------------------*/
FoamFile
{
    version     2.0;
    format      ascii;
    arch        "LSB;label=32;scalar=64";
    class       volScalarField;
    location    "73.5";
    object      p;
}
// * * * * * * * * * * * * * * * * * * * * * * * * * * * * * * * * * * * * * //

dimensions      [0 2 -2 0 0 0 0];

internalField   nonuniform List<scalar> 
808
(
-0.03278815549687032
0.04382619866813175
-0.01133367913257802
0.03819200117458326
-0.2944634398365364
-0.05564664560804227
-0.01561574356940674
-0.02400979384535165
-0.1934883826381356
-0.08214709527540245
-0.01028828589912446
-0.2501272868745186
-0.03068301384239991
-0.01406710469761827
-0.1245983655846958
-0.0141969152014159
-0.1415612909855039
-0.01374347325559182
-0.01301566923517932
-0.0543717970257037
-0.007896686753174677
0.116395937574093
-0.06369520824203756
-0.07000845444412863
0.1739329986997253
-0.1004447993443155
-0.1496091171363027
-0.02048532851652222
-0.01764961141048332
-0.02566272057202139
-0.02038948061725059
-0.05705700781582636
-0.02282176946672633
-0.01697432714839754
-0.09764832118056659
0.3452911163239759
-0.04000046489390999
-0.01654112631978215
-0.02241667550292395
-0.02651050859703655
-0.08852751688973762
-0.1241384604587837
-0.05296047977468953
-0.02133905553630252
-0.05532518225321124
-0.0427974759598555
-0.01195075379355933
-0.181129361556145
-0.02640586405068303
-0.2005745213773559
-0.01710250468029656
-0.06554565214843484
-0.06196336245375667
-0.01510794041352133
-0.1964163307524078
-0.02765033255020772
-0.01092187322929497
-0.01535471132997414
-0.09824703172897294
-0.03885204967915286
-0.1092131697060416
-0.1233907846222962
-0.01449511627412496
-0.1261594511896214
-0.01744595094161777
-0.05274247950943087
-0.1600094982478218
-0.03541174227644043
-0.01540534742868838
-0.4349531463274267
-0.0260846527341606
-0.2966585756411518
-0.02126794151084892
-0.02098397770720774
-0.06187293718516806
-0.01820290307366895
-0.0415492648567154
-0.3682934716579934
-0.03651120012777102
0.03800213833096883
-0.09273299860050391
-0.01675744921968889
0.05725450258556702
0.04656905878757713
-0.01753548086395541
-0.05112557104546708
-0.5353333526763103
-0.2298404829767915
-0.05089847595500126
-0.1140348004858502
-0.05513130352969562
-0.1300100241742058
0.03790049368123354
-0.02695279446362586
-0.06308347286880533
-0.116766808511534
-0.03822991172237215
-0.05242713140689022
-0.1138109548389194
-0.1359790546519663
-0.05308900916250976
-0.04628905102868718
-0.05313272564574113
-0.04381184822284674
-0.05671632662141998
-0.07585307436948024
-0.04053660943180813
-0.01087657912378183
-0.03945364280248898
-0.1212385837858405
-0.04950916298099379
0.08085027081243573
-0.04163083313432243
-0.008004263938183976
-0.02757199826993872
0.1812024656804288
-0.03775031701088122
-0.2639325399648437
-0.0207253476729365
-0.05220593576823938
-0.03920150465245265
-0.04972122011615886
0.01438838063859114
-0.04719691534494634
-0.03709409985122059
-0.2210581817761244
-0.03942991300908376
-0.004493428844012565
-0.07397776864670932
-0.07008891797908322
-0.1441987139098568
-0.02112391014730823
-0.07371807614930125
-0.0447364445659463
-0.02302852918006339
-0.01464405606172268
-0.006159870883428373
-0.007403897856432862
-0.05161884954060363
-0.04852585385365277
-0.2195245941042184
-0.05492186131036624
-0.008173523786599165
-0.02173860544051139
-0.1498420538910196
-0.00263240945316589
-0.07472080687859406
-0.0203364954115329
-0.000264904733397236
-0.01095895887148766
-0.03271392298190846
0.09262784183017696
-0.03754061389720307
0.2512601446890671
-0.2657438437037283
-0.1345119799407291
-0.03801250681399149
-0.09088054513079866
-0.009324052749585332
-0.1152732708706709
-0.1689603910421811
-0.2195595783011246
-0.174166750723001
0.05733881489325754
-0.06415641369906699
-0.02061177443874311
-0.06580387684413745
-0.1652140129626105
-0.02290936602941611
-0.01852035406835632
-0.0505611109001383
-0.02124892731913221
-0.007644941973249661
-0.1048575085331285
-0.02355166827159725
-0.04356952356749453
-0.07141517062429524
-0.1581185468371378
-0.03298445845376669
-0.3828075814187486
-0.01793617690621793
-0.2287517946561822
-0.04307511449116742
0.03366996111007883
-0.1068949429528484
-0.01696879144390987
-0.04354517912591834
-0.103134115465569
-0.01780854228164465
-0.09410076227000623
-0.2062400178401982
-0.07052754597201119
-0.02412359409366628
-0.0464362365535466
-0.04162172392028348
-0.20318030531552
-0.02239107880789497
-0.01932124541002718
-0.01123497677825165
-0.05787081938539551
-0.04921146537385837
-0.02255461513202979
-0.02065607653681352
-0.2333626031349017
0.1266254057962099
-0.2086110999461084
-0.1866373928151179
-0.01174801741750328
-0.011210174661049
-0.06631378214969966
-0.01055812248143511
-0.4920055131439646
-0.1223489965240332
-0.01959635490257952
0.0001028981113055715
-0.02362213927578835
-0.2756094113994627
-0.281602191363499
-0.007337913997350414
-0.01727832106826755
-0.001149825456877261
-0.3528213451532033
-0.02854515225570904
-0.02934153023569988
-0.01263018905822979
-0.01944832981413496
0.0481652980133775
-0.1187049844733335
-0.01443744014160485
-0.02094866538664554
-0.04592044508204867
-0.01838202325844754
-0.01636228729957255
-0.02355632960266089
-0.0683144771344195
-0.01100846114809777
-0.01893277291634864
-0.008862164083247916
-0.001005470131893934
-0.02935592560635101
-0.002063789591462681
-0.001971896185614507
-0.00563712619723153
-0.02552361710937494
-0.008017965209408243
0.001505205117436615
-0.004256117103367065
0.001430905775395951
0.002426895648413377
-0.009073769380288175
-0.1323515762522646
-0.002909730677699899
-0.0008032982028668392
-0.04760652327424121
-0.02151414943969796
-0.02355944362354953
-0.01413587246362258
-0.006248063418438079
-0.02108758213822088
-0.04072052913814612
-0.01484585366301902
-0.01282462182873929
-0.0112418993609224
0.008434280981617378
-0.009788187449078035
-0.01251312591884555
-0.0115743305514646
-0.01019538270340456
-0.01039053317694983
-0.0119020653860927
-0.01359712879774122
-0.2925811424885113
0.05836379319001311
-0.01575072427029514
-0.01465562818740579
-0.0125325670815354
-0.01185712778184527
-0.008435474327523937
-0.09725855759395979
0.01397077139639355
-0.01400274681726734
-0.01362072203688981
-0.01050332104205265
-0.05035478818007186
-0.009333982961840733
-0.01355733879722126
-0.01044698841161542
-0.001216383578748907
-0.01174030184049298
-0.01208268209365093
-0.02421725448394761
-0.01532368412273771
-0.01218983384615416
-0.01359849167218483
-0.008464080359430925
-0.01222370128501262
-0.01131301365287776
-0.06030885397019068
-0.01367819607060821
-0.01180183931978534
-0.009179601668864218
-0.01531351237370181
-0.01371075500411704
-0.01561039138188118
-1.360383273582503
-0.1010142894141715
-0.01256685587611614
0.0266593423523477
-0.1597917574176781
-0.09218821298073633
-0.01240822192225322
-0.01415937774645411
-0.229389681720791
-0.02759397175815725
-0.0170190142182787
-0.01240430522783103
-0.02038903554188377
-0.01004145013830354
-0.0308310336663275
-0.4058723591688253
-0.01225442466815979
-0.01409129685475912
-0.004427857152747705
-0.01134955823163564
-0.0105939690439782
-0.01383773628597611
-0.00623342382879893
-0.02728194742069827
-0.01191628176437956
-0.1754410948124665
0.02053025187789951
-0.007257639809102557
0.004433390656888643
0.01271422223590409
-0.04918532898130409
0.02708980966195823
-0.01335484803461143
-0.1312610975612053
0.2831796182003355
-0.007943923475185646
-0.01378182530672872
-0.007919023680266618
-0.0327405902915813
-0.1265144322839757
-0.01240934766443337
-0.01190043597009703
-0.01728008032186697
-0.01349079932774832
-0.04175894427687483
-0.2215793464223379
-0.009015023577202332
-0.04417931161453743
-0.03829728318402502
-0.1809876805052431
-0.1521522532826056
-0.1427978800946836
-0.2202553061581904
-0.003362775976194333
-0.02064341319507958
-0.01494364872481592
-0.01369908445913215
-0.03387751718313462
-0.02456536996539456
-0.01397122710982847
-0.01484184704144324
-1.06450404221038
-0.004627142701518859
-0.01312198141335316
-0.01805839295483704
-0.02439437221501421
0.001876103081362208
-0.01490674720349809
-0.02469605730074609
-0.1469054994678636
-0.01362067153613464
-0.02120475994484362
-0.01446714808923889
-0.001734046839274028
-0.1778210267014926
-0.01241980807368621
-0.1545175505907635
-0.01547855941289879
0.001817134444764175
-0.01411766240712045
-0.02430318903362641
-0.01608915316292559
0.006443236475626442
-0.2652065914178025
-0.02674422117503113
-0.01666587245888575
-0.01106000038496698
-0.01089178620476289
-0.02914183227871889
-0.01373281155082072
-0.02106110225309717
-0.02045938243355593
0.01235590457716084
-0.09662326481790087
-0.02106862480921921
0.009590753998595195
-0.06009242692903369
0.1852709708770517
-0.1073615961737853
-0.313666886045777
-0.03025610402328947
-0.02596188377391781
0.1522091588563878
0.08311197765667007
-0.003926547935831765
0.05261091646070799
-0.0149826451289976
-0.01330833921450059
0.002736971306654542
0.007022204479810675
-0.0641923448682063
-0.005006832962599039
-0.05562583911652614
-0.02304737220574433
-0.01570615122739646
-0.03652357687346724
-0.03292542478525445
-0.006687763545481821
-0.01477369132675763
-0.03599532312886816
0.03211581094418299
-0.03865945051639647
-0.01406446034604437
-0.1204826129227227
-0.03098600872577322
-0.04017489482893816
-0.665100190161336
0.0168637147394369
-0.01021240722596036
-0.005957955581993165
0.1789967833814829
-0.1005032891484704
-0.03597793993836593
-0.2402656970324878
-0.01542190308162856
-0.01602204087956261
0.08358346238608381
-0.1782139967946398
-0.2361625847605827
-0.1851292219065599
-0.6729231147480709
0.005448702847527053
-0.01771160415322785
-0.01593494431402953
-0.0934917696381465
0.1190790108742281
-0.02141440052987843
-0.2296747042059391
-0.03640073586690627
-0.006965966459987092
0.2815975247367686
-0.01086258591115688
-0.0899213337794874
-0.1542702205763504
-0.003591531798071276
-0.0417913619276829
-0.05206745118717349
-0.1958512542089856
-0.007677849563326601
-0.03911626249876361
-0.00329630032219594
-0.5408247073274092
-0.190830853684682
-0.1800398208349576
-0.02356156093348909
-0.009044409068884002
-0.06264217299254995
-0.05593397887509927
-0.01454519814869599
-0.0701138823691978
0.005365574597385469
-0.01753522733334087
-0.09345718086306846
-0.2790094355082069
-0.00897768843694974
-0.02505676876637267
-0.02123579595777223
-0.07691221960259807
-0.0882160999017134
-0.0903035544877544
-0.0117896187375703
-0.9043877665057377
0.1629417001693764
-0.08116652815225227
-0.2476640594882344
-0.04102241901637824
-0.009335172224292613
-0.2532558612735242
-0.2014949159338088
-0.03006998541435349
-0.11714058468727
-0.01907427750516482
0.5638010881820702
-0.02533924589507063
-0.213825746566445
-0.0248071638285817
-0.004503502036612655
-0.01107011657293706
-1.238764901141619
-0.1788869805377698
-0.2244599912226461
0.005177602868220272
-0.03996877164093509
-0.236513139981839
-0.06754748135701842
-0.05243810290028933
-0.1478814471038178
-0.1768025144814809
-0.07054670347354255
-1.209351240317614
-0.1580011366972913
-0.5446622778482827
0.08040318560306847
-0.005744671158948663
-0.02082917323288175
-0.04527093609890492
-0.03722438078734531
-0.02763966832055231
-0.1277021028988626
0.08219275274736282
-0.003039432463406107
-0.01002317674452731
-0.560373774250973
-0.8452873517542686
-0.172571578993765
-0.00784409574317451
-0.1256978580446466
0.0004167369848461351
-0.0001136160775159482
-0.002775418450398833
-0.06158907177919335
-0.231308001357453
-0.01323887302158321
-0.1125843203706148
-0.1583483275382872
-0.01309248118752792
-0.03413792915823245
0.0303969878901733
-0.05915747264129127
-0.07268529587375175
-0.4901781151866936
-0.2086797248660717
-0.07888748899249372
-0.07650077446580521
-0.01925959442652666
-0.1143088567428055
-0.1636589321085552
-0.0811589815626728
0.02468715635660961
-0.08799257685224185
-0.05105192484166184
-0.01489841421267725
-0.1123026763063824
-0.2829544651127686
-0.06029410200024185
-0.01791626565642059
8.56214795290422e-06
-0.01012804759147349
-0.01048770634512898
-0.2366209337452515
-0.01447443820692681
-0.2144724781428791
-0.01051986655608184
-0.07549101541011932
-0.004312709885267421
-0.02328933731664041
-0.3950479354113343
-0.9342060754900067
-0.01125624040428946
-1.034935808768973
-0.5984458769187767
-0.01043462482299924
-0.6664292486533123
-0.1901125806015216
-0.005458662474135735
-0.1228937299662386
-0.016782239476874
-0.1267716669044142
-0.06398951056795663
-0.08288651201478528
-0.005320237577925086
-0.002425095720899319
-1.352727319613876
-0.01157463723018744
-0.1806304291759352
0.001077161265305924
-0.9999592561876047
-1.25551702497389
-0.07713083640926639
0.01503198777941163
0.1647630711034949
-0.004618016088080062
-0.02298432700177847
-0.004276346698846471
-0.2383511657266371
0.3653306498613613
-0.0425213092997359
-0.2156532794525731
-0.01516869019803742
-0.6457615653714015
-0.07114783980619141
0.1875273574599984
-0.3044979882945629
-0.05104915256524309
-0.07073858841276852
-0.01584015349835467
-0.02141377764135756
-0.5976332704899497
-0.1539615064718097
-0.09409562497177204
-0.1182261197280236
-0.5465211967550121
-0.04561978071059358
-0.8965099405193997
0.0002518031530512163
-0.2457990930148645
-1.061144924542938
0.1622021499666678
0.2880168792548078
-0.1748573826299106
-0.1866801223222142
-0.2190584683423603
-0.06546161163763958
0.02451783201205301
0.04221541911701947
0.003862758872822428
-0.155986773146938
0.02663714430224706
-1.374240160288243
-0.08777378816787321
-0.4823762242893147
-0.3378079627774385
-0.2202869886821141
-0.1822439850444505
-0.01695801302734756
-0.01538757083315268
-0.09530883618773635
0.1760464418705748
0.3837880473995551
-0.1976065234105634
-0.1522107039894651
-0.2149733091247194
-0.06398082619846415
-0.1608483616304519
-0.1732524579868782
-0.128514413423736
-0.1138050427619496
0.4624829182397422
-0.2847052709466672
0.4347396943251913
-0.5862875811344281
0.07424071844957504
-0.1871850925898619
-0.06838813556602838
-0.0791519436455994
-0.8993365608431146
-0.2126756972340121
-0.1947087007381617
-0.3570258371910466
-0.4690728558359532
0.5694760870268695
-0.2182861278780189
0.003608864117699694
-0.06614974668480704
0.3468233560393366
-0.03393620547708009
-0.1249066834961687
-0.1835160431259385
-0.06413588352222103
-0.01637400482411039
-0.2018650708386891
0.1994463205620442
-0.01276253039660503
-0.0994418801672021
-0.1785646967233646
-0.3231124653228762
-0.305798392092347
-0.08101676651044752
-0.009707125283015707
-0.08266655651660314
-0.6450298938263104
-0.6796924478864745
-0.3238936675590853
-0.05961196333777787
-0.04860328972806545
-0.02432173106651018
-0.07091753420182413
-0.0539248076792515
-0.3703815298319764
-0.9693208340522262
-0.009231842689959144
-0.08604876035095323
-1.152517095970548
-1.049232077529395
-0.1115725813682628
-0.04274675742488323
-0.06705651340711383
0.3871698697208583
-0.3367363397969902
-0.0499229665559892
-0.6094733182589371
-0.1348846982940431
-0.2462855625299176
-0.2166028629280838
0.4727348811099656
-0.6410026754915736
0.07869020080849418
-0.02824650556967006
-0.5735661621123342
-0.05540845531496687
-0.3694306117975069
0.1114631108441105
-0.1948760475204213
-0.06192839171065531
-0.1273192688953065
-0.3541884980942143
-0.08152088391753368
0.5165339282187164
0.08785748572911459
0.4685216877804891
-0.1128074364096656
-0.2090561764786991
-0.5069933935273836
-0.1369103699096749
0.02337368043991114
-0.05619293652009915
0.0981317198157641
-0.2992260288788592
0.2366003730636234
0.00340004513172403
-0.002557660132553154
-0.5043994102737014
-0.1798208842199993
-0.09267314502187429
0.5814521928795137
0.140284253785745
0.3412766028846716
0.2250225825678526
-0.5710041963949285
-0.1944438721140583
-0.2247540993101936
-0.2200690064804045
-0.06283896289503853
-0.6833830296917467
-0.1869480353690244
0.3033706562489668
-0.1899487053855399
-0.0114450470557365
-0.1587143370862694
-0.01255682513765066
-0.1702363882289647
-0.4499793163311126
-0.07587397591618879
-0.2102393234509347
-0.07449816057370044
-0.1020400934535417
-0.1332098080172063
-0.07183907589804675
-0.438781535490794
-0.4068750508044093
-0.02218932542232419
-0.07874209541578564
0.3316882470171082
-0.2539371533105849
-0.1710876121293377
0.5230769643056765
-0.1937662924463749
0.02276413931508629
-0.4583651713913375
0.05314128927494233
-0.05858354151092838
-0.1431224876614741
-0.5960823721579424
0.1564520385356786
-0.5711435307524196
-0.5446292977454597
-0.09968071116196568
-0.5166845247157242
-0.03582353234510483
-0.1528960009581522
-0.4183022729961767
-0.01598384738919341
0.2893308307538233
0.4901725437848029
-0.168169082415812
-0.004472532699338255
-0.09025358616492057
0.5249139189751103
-0.03186308502542846
-0.44870650588052
-0.0315762057083088
0.462645131486967
-0.01820993168682355
-0.5540334611283035
-0.2446862402449334
0.1793653254729867
-0.3177060764629089
-0.1842144321657039
0.04588151161241689
0.03054128358072974
0.05751865526344211
-0.3066931713064479
-0.1610615243107966
0.412887713628654
)
;

boundaryField
{
    FrontBack
    {
        type            empty;
    }
    Top
    {
        type            zeroGradient;
    }
    In
    {
        type            zeroGradient;
    }
    Bottom
    {
        type            zeroGradient;
    }
    Out
    {
        type            fixedValue;
        value           uniform 0;
    }
    circle
    {
        type            zeroGradient;
    }
}


// ************************************************************************* //
