/*--------------------------------*- C++ -*----------------------------------*\
| =========                 |                                                 |
| \\      /  F ield         | OpenFOAM: The Open Source CFD Toolbox           |
|  \\    /   O peration     | Version:  2412                                  |
|   \\  /    A nd           | Website:  www.openfoam.com                      |
|    \\/     M anipulation  |                                                 |
\*---------------------------------------------------------------------------*/
FoamFile
{
    version     2.0;
    format      ascii;
    arch        "LSB;label=32;scalar=64";
    class       volVectorField;
    location    "2.2";
    object      U;
}
// * * * * * * * * * * * * * * * * * * * * * * * * * * * * * * * * * * * * * //

dimensions      [0 1 -1 0 0 0 0];

internalField   nonuniform List<vector> 
808
(
(0.849298 0.00696605 0)
(1.05127 -0.00475082 0)
(0.997074 0.00975639 0)
(1.06964 0.0252867 -2.39804e-21)
(1.43811 -0.178685 0)
(1.01404 0.00602339 0)
(1.01775 -0.00761973 -1.11924e-20)
(1.02079 -0.0134217 0)
(1.33025 -0.105189 2.64933e-20)
(1.16075 0.0601693 1.31566e-21)
(1.00627 0.00890222 9.46549e-21)
(1.34214 -0.137677 0)
(1.0187 -0.0124745 0)
(0.911064 -0.0421888 0)
(1.24889 -0.234325 1.4771e-20)
(1.02529 -0.00305293 0)
(1.10523 -0.27693 -4.20814e-21)
(0.997696 0.0254032 -1.56852e-22)
(1.08698 0.00473037 0)
(1.01373 -0.0014676 0)
(1.0255 -0.0307519 -1.32101e-20)
(0.944679 0.162992 9.92934e-20)
(0.98815 -0.0771134 -1.45991e-20)
(1.09503 0.0608454 0)
(0.96522 0.179006 0)
(1.25101 -0.206874 -1.55349e-20)
(1.23878 -0.0193478 7.24957e-21)
(1.01561 0.0316273 -2.7793e-21)
(1.01409 -0.0013236 0)
(1.07376 -0.0192237 3.47732e-22)
(1.00065 0.0350268 7.62037e-24)
(1.07456 0.07356 0)
(1.0204 0.0177345 0)
(1.01838 -0.0101948 1.71432e-21)
(1.23266 0.0658724 3.01453e-21)
(0.708713 -0.0753305 1.02015e-19)
(0.931283 -0.0200635 -1.72594e-20)
(1.02909 -0.0202436 1.25512e-21)
(1.03293 0.00244081 -7.1343e-21)
(0.963473 0.0108441 0)
(1.15095 0.0457792 -2.85491e-21)
(1.25052 0.0284334 0)
(1.03027 -0.0075393 -1.09474e-20)
(1.02872 -0.0370912 1.66281e-20)
(1.07535 -0.209305 0)
(0.999369 0.0162533 -2.03059e-20)
(0.998909 -0.0133267 2.55685e-21)
(1.175 -0.183531 1.49919e-20)
(1.02134 0.00523293 -1.52474e-20)
(1.37325 0.0151362 -3.82599e-20)
(1.01492 -0.0289309 1.94164e-20)
(1.11254 0.0363301 0)
(1.05092 0.0352401 9.89936e-21)
(1.03335 0.000574889 0)
(1.27505 0.145499 6.11913e-21)
(1.04526 0.0552593 -6.91511e-21)
(0.9937 -0.00167459 0)
(1.03229 -0.0320163 4.5471e-21)
(1.16378 0.0779883 -1.41258e-21)
(1.00336 0.03203 -3.10735e-21)
(0.474828 -0.0142088 0)
(1.168 -0.135165 -5.95558e-21)
(0.990449 -0.00240985 0)
(1.33099 0.100079 -2.01891e-20)
(0.985334 0.00900551 -1.67487e-20)
(1.10818 0.0332086 -1.18857e-20)
(1.44001 0.13169 2.38528e-20)
(0.880798 -0.0176613 0)
(1.0287 -0.0307776 0)
(1.48716 -0.281456 0)
(1.03346 0.0024889 -4.04375e-22)
(1.39463 -0.0175098 -5.18899e-20)
(1.01695 -0.0257566 0)
(1.0683 -0.00654113 -5.59189e-21)
(1.11523 -0.317183 -4.37466e-20)
(1.02465 -0.00541637 -2.72491e-20)
(1.05526 0.0263225 -1.05564e-21)
(1.36929 0.453628 2.80505e-20)
(1.03312 0.00357903 0)
(1.06326 0.254634 -1.53541e-19)
(1.20768 -0.0727652 5.53647e-21)
(0.861723 0.0047022 0)
(1.03601 -0.00662528 -6.61566e-21)
(0.969052 -0.121249 3.52288e-21)
(1.00846 0.000507351 2.04307e-20)
(1.07249 0.0140547 -9.65673e-22)
(1.40326 -0.165136 0)
(1.3547 0.198175 0)
(1.10382 0.0302305 -3.14827e-20)
(1.32743 -0.168469 1.26709e-20)
(1.03849 0.00400238 1.24951e-20)
(1.28553 0.0560051 -1.3346e-21)
(0.908127 0.0647704 1.37578e-20)
(0.996329 -0.0521398 0)
(1.04921 -0.00396673 2.01693e-21)
(1.33656 0.245598 -4.17124e-20)
(1.06243 -0.0109501 -3.64793e-21)
(1.11075 -0.0908547 0)
(1.28842 0.0542137 0)
(1.35802 0.173819 -4.20282e-20)
(1.01395 -0.0259628 -9.15761e-21)
(1.06224 0.0212033 -2.6726e-22)
(0.972876 0.030611 1.85051e-20)
(1.05884 0.0365792 1.241e-21)
(1.10705 0.0703321 2.09142e-21)
(1.08061 0.036911 1.47377e-20)
(1.07594 -0.19821 0)
(1.01198 -0.00346699 0)
(1.01548 0.0107718 1.7786e-20)
(1.14101 -0.182189 -4.38352e-21)
(1.08705 0.0587733 -4.89281e-21)
(1.04545 -0.00164071 -1.08775e-19)
(0.994028 0.0266905 -8.16993e-21)
(1.02597 0.0181299 6.01755e-21)
(1.03802 -0.0219538 0)
(0.908443 -0.0725111 6.94492e-20)
(1.05828 -0.0705594 -1.62469e-20)
(1.4865 -0.126813 -2.05132e-20)
(0.996984 0.0232332 -1.00711e-20)
(0.93508 -0.023203 -2.10983e-21)
(0.601696 0.122687 0)
(0.874138 -0.0560967 -1.28375e-21)
(0.905742 0.0452383 0)
(1.12697 -0.112546 -8.59379e-23)
(1.00412 0.03018 0)
(1.30037 0.255353 1.29526e-20)
(1.1033 -0.172464 -3.20765e-20)
(0.997046 0.0121049 2.04021e-21)
(1.12765 -0.0111871 0)
(1.09723 -0.0610667 0)
(1.14845 0.273883 0)
(1.01536 0.0285904 -5.13946e-21)
(1.13064 0.0223073 5.20006e-22)
(1.11063 0.131696 -2.50913e-20)
(1.016 -0.0277454 0)
(1.05859 -0.0291514 -3.97337e-21)
(1.02139 0.00946763 2.36867e-21)
(1.05737 -0.0221564 -4.36485e-22)
(1.0395 0.0322786 9.95838e-21)
(1.07656 0.00201006 2.24024e-22)
(0.146772 0.109083 0)
(1.12173 -0.0135809 -1.3559e-20)
(1.01412 -0.0145198 1.77535e-21)
(0.839794 -0.0187245 -7.44258e-21)
(1.22533 0.0562179 -1.93704e-21)
(1.01725 0.0164091 3.37613e-21)
(1.02485 0.051369 2.19943e-20)
(1.0195 0.01708 0)
(1.02651 -0.105818 1.36056e-20)
(1.02921 0.0147969 0)
(1.01533 0.0468169 1.61972e-20)
(1.00855 0.260721 1.23875e-19)
(0.955541 0.0341932 0)
(0.797468 0.116691 0)
(-0.188125 -0.049139 -1.02379e-19)
(1.28088 -0.000176151 -1.23082e-20)
(0.88074 0.00878524 0)
(1.24862 -0.182277 0)
(0.993181 0.00881685 0)
(1.25221 -0.0416412 9.36599e-21)
(-0.113097 -0.26556 0)
(-0.0402034 0.209864 5.40907e-20)
(1.41002 0.175795 1.0631e-19)
(1.04404 -0.0304102 3.30582e-21)
(0.858382 0.0314079 0)
(1.05131 -0.0202878 1.47188e-20)
(0.937162 -0.0549679 0)
(1.13973 0.167292 -1.1473e-19)
(1.03547 0.0257802 2.47435e-20)
(1.00473 -0.0216259 4.92155e-21)
(1.05208 -0.0355072 1.38219e-20)
(1.08001 0.117503 -1.11737e-20)
(1.00005 0.0138914 -3.36061e-21)
(1.09163 -0.351184 1.96249e-22)
(1.00243 -0.0185953 0)
(1.10175 0.0516319 -1.26885e-20)
(0.87846 0.0365592 -1.21644e-20)
(1.35875 0.00976952 2.0261e-21)
(0.866625 0.0398216 0)
(1.22539 -0.0743218 0)
(1.00906 0.0129898 4.6047e-21)
(1.40236 0.107714 1.0923e-20)
(1.0415 0.090121 1.35163e-20)
(1.05676 0.0236928 1.4971e-20)
(1.12386 -0.347969 -2.33514e-20)
(0.85319 0.0010885 1.96591e-20)
(1.08833 0.0304748 1.3679e-20)
(1.26818 0.13454 -2.25519e-21)
(1.03401 -0.0015688 -7.23674e-21)
(1.22098 0.0803236 1.93259e-21)
(-0.121771 -0.125099 7.41536e-20)
(1.1224 0.0271722 0)
(0.870335 0.0242864 0)
(1.07385 -0.118039 -7.54773e-21)
(1.13287 -0.0162833 1.80899e-20)
(0.509273 -0.062666 0)
(0.995642 -0.0287661 7.9251e-22)
(1.01213 -0.021219 -4.16793e-21)
(1.00149 -0.00467813 1.29969e-22)
(1.11991 0.0538068 -6.08446e-21)
(1.00878 -0.00461957 3.35298e-21)
(1.02288 0.00413749 3.67655e-21)
(1.0635 -0.0398731 0)
(0.609477 0.00516817 0)
(1.02275 -0.0821849 0)
(1.34337 -0.0089847 -4.15213e-20)
(-0.137528 -0.230863 6.08646e-20)
(0.993912 -0.010486 -1.79591e-23)
(1.03826 0.0114703 0)
(0.871957 0.00143977 -1.76148e-20)
(1.065 -0.0206714 -4.23939e-22)
(0.0156793 -0.0463845 -1.99615e-19)
(1.14148 0.352957 -3.53982e-20)
(0.871937 0.0205901 0)
(1.03359 0.0124135 0)
(1.01595 0.0179473 1.17855e-20)
(1.24042 -0.0121079 7.74464e-21)
(1.31871 0.358069 9.85838e-21)
(1.01576 -0.00507304 -3.5095e-23)
(0.997081 1.76932e-05 -4.04241e-21)
(1.04757 0.020579 0)
(1.41327 0.377203 -6.06682e-20)
(0.881815 0.0233009 0)
(1.01548 -0.00666243 -5.02814e-21)
(1.00871 0.00965701 -1.00391e-21)
(0.84104 -0.0209207 0)
(1.08361 -0.023355 0)
(0.602838 0.382092 -1.52492e-20)
(1.03229 0.00550105 -7.17697e-21)
(1.03037 -0.0423361 4.77841e-21)
(1.00571 -0.00952525 0)
(0.837482 0.0353663 0)
(1.0056 -0.0161858 -5.79132e-21)
(0.818165 0.0231078 -1.13754e-21)
(1.13885 -0.0907313 -4.03935e-23)
(1.02891 0.00979469 -2.97001e-21)
(1.06708 0.0103785 -2.92691e-21)
(1.02138 0.0159399 -8.40015e-23)
(1.0214 -0.00361542 3.30681e-23)
(0.808177 -0.0502079 6.71144e-21)
(1.03841 -0.0192623 -1.69499e-22)
(1.021 0.00164861 0)
(0.996101 -0.00200551 0)
(0.827997 0.0541994 0)
(1.02088 0.000690416 0)
(1.01091 -0.00927185 -7.51039e-22)
(1.00767 -0.000608853 0)
(1.00636 -0.00442883 0)
(1.01884 -0.00953754 0)
(1.00213 -0.00128606 0)
(-0.0484965 -0.129564 6.19071e-20)
(0.98308 0.00591046 1.6183e-21)
(1.03038 -0.00327 0)
(1.07004 0.11868 -9.06635e-21)
(1.04448 -0.0292183 3.30979e-22)
(1.04267 0.0205477 8.30806e-21)
(0.985393 0.00796994 5.28539e-21)
(1.01262 0.00818277 0)
(0.844507 0.0261013 1.1013e-20)
(1.07194 0.0408177 1.08668e-20)
(0.98112 0.0215111 0)
(1.02199 0.0205635 1.08617e-22)
(1.03052 -0.00208131 2.32222e-21)
(0.98522 0.00791259 -1.10968e-20)
(1.01041 -0.0220595 6.06446e-21)
(1.05192 -0.00764035 -4.62473e-21)
(1.03421 -0.0315528 0)
(1.02216 0.0135745 -2.06321e-20)
(1.03436 0.0239072 -1.50533e-21)
(1.02825 -0.00313907 5.86958e-21)
(0.983627 -0.00211331 0)
(-0.00487919 -0.0301318 0)
(1.04047 0.145731 -1.63537e-20)
(1.01229 -0.02061 0)
(1.03717 -0.068875 -2.06748e-20)
(0.995335 0.0311929 1.07631e-21)
(0.971045 -0.0125166 4.44527e-21)
(1.06112 -0.00161234 -2.05884e-21)
(1.24508 0.284838 5.15272e-20)
(1.02032 -0.291451 4.41667e-20)
(1.00575 0.0291032 -6.52532e-22)
(1.02774 -0.0184044 0)
(0.984846 0.0172759 0)
(0.773754 -0.0505018 -3.46928e-20)
(1.04351 -0.157196 1.70289e-20)
(0.967254 0.0159104 0)
(1.01631 -0.00858413 9.6954e-21)
(0.990214 -0.00627205 0)
(0.983205 -0.0264522 4.8026e-21)
(1.0026 0.0201918 -1.13802e-20)
(0.95866 -0.0342857 -7.75823e-21)
(1.01705 -0.0112322 0)
(0.971439 -0.060747 -1.25538e-21)
(1.04335 0.00151364 3.02061e-21)
(0.992407 -0.0125536 -6.94114e-21)
(1.01726 0.00616909 -4.78288e-21)
(1.01169 0.0264589 0)
(1.09189 0.0574491 0)
(1.04637 -0.0204978 6.41983e-21)
(1.05386 0.0208074 -4.85139e-21)
(1.00887 0.0138466 2.25704e-21)
(1.01544 -0.0275179 -4.01736e-21)
(1.05511 0.000353989 5.92011e-22)
(1.06763 0.000702252 0)
(0.459215 -0.144378 1.74112e-20)
(1.22149 -0.0576244 -6.78074e-21)
(1.01166 -0.0018596 -7.23342e-21)
(0.969439 -0.00167439 1.1733e-20)
(1.37158 0.0819648 2.13423e-20)
(1.04968 -0.379695 2.40613e-20)
(0.982061 0.0176218 -6.69018e-21)
(1.05725 -0.0100503 -9.65195e-22)
(-0.187954 -0.193518 -1.09317e-20)
(1.0203 -0.0317075 0)
(1.07965 -0.0881575 -1.2678e-20)
(0.899603 -0.0238527 1.9075e-20)
(1.0096 -0.00726435 6.64202e-21)
(1.03137 -0.011515 5.25014e-23)
(0.847273 -0.0569892 1.97057e-21)
(1.40545 -0.335934 -1.91691e-20)
(1.04158 0.0318247 0)
(1.01825 0.00274374 1.02082e-21)
(1.06502 0.00602105 -2.68727e-21)
(1.013 -0.0203429 0)
(1.00321 -0.00424457 -8.67852e-21)
(1.02374 0.0224007 5.30836e-21)
(1.00883 0.00356458 1.45598e-20)
(1.02232 -0.0146405 -2.22299e-20)
(1.03459 0.0239216 4.81805e-21)
(-0.158623 0.00798746 0)
(0.960257 0.00928842 -2.31991e-20)
(0.985674 0.0075228 0)
(0.997244 0.0263669 -1.32178e-20)
(1.00135 0.0235189 0)
(1.02391 -0.00706687 1.08477e-20)
(1.05185 -0.0269075 0)
(1.02358 -0.0166564 0)
(1.33188 0.071656 1.24314e-20)
(0.766922 -0.0471843 0)
(1.00933 0.00740786 1.81214e-20)
(1.01583 -0.00204775 4.50416e-22)
(1.03911 -0.00253341 3.22952e-21)
(1.02663 -0.0935534 1.10608e-20)
(1.20711 0.0459323 -6.10253e-21)
(1.02764 -0.0148276 1.13852e-20)
(0.95713 -0.0514958 0)
(1.02069 -0.0506153 0)
(1.05055 0.0520085 2.38223e-21)
(1.07427 -0.0315637 0)
(1.56589 0.040062 -3.19556e-20)
(1.01439 0.00476513 8.16129e-22)
(1.00208 0.000277211 2.15333e-20)
(1.0646 0.060621 2.54275e-22)
(-0.0516885 0.0662534 0)
(-0.0698841 -0.212829 0)
(0.535424 0.332637 -3.99854e-20)
(-0.145157 -0.152947 0)
(1.00575 0.0163178 -8.91894e-21)
(1.05609 0.0216138 -3.03866e-21)
(1.0293 -0.020603 -1.00628e-20)
(0.992309 -0.031299 4.99153e-22)
(1.07526 -0.0260931 0)
(1.04912 -0.013959 -3.67946e-21)
(0.988729 0.00195639 0)
(1.05366 0.00650032 -2.07765e-21)
(0.577836 -0.105017 0)
(1.00671 -0.00469739 -3.57493e-22)
(1.02315 0.0221156 0)
(0.99423 0.0287627 0)
(0.924175 0.250287 -1.02177e-20)
(1.00728 0.00265249 -1.71478e-21)
(1.01301 -0.0270219 1.81605e-21)
(0.975788 0.0765002 -6.93308e-21)
(0.650882 0.0823882 0)
(1.0086 -0.00355108 -2.06395e-20)
(1.03729 0.0590249 1.17954e-20)
(1.03738 -0.0116909 1.64987e-21)
(1.00342 -0.0247506 7.59731e-21)
(-0.233709 -0.0895021 -1.23699e-19)
(1.03448 -0.00176585 0)
(-0.0402349 0.0804955 0)
(1.02616 0.0314597 1.66004e-20)
(0.980106 0.00416295 -8.17527e-21)
(0.955823 0.00335152 -1.25784e-20)
(1.00501 -0.0086247 0)
(0.98829 -0.0115309 7.56896e-21)
(0.976109 -0.0825396 -1.2984e-20)
(0.817916 0.0212247 -1.28315e-20)
(1.04576 -0.0253591 -9.46463e-21)
(1.02613 -0.012341 -9.20012e-22)
(0.930957 -0.0355734 -2.75065e-21)
(1.01192 -0.0220113 -2.09102e-20)
(1.04995 0.0154682 0)
(1.005 0.0288231 0)
(1.06059 -0.0135751 -6.84798e-21)
(1.03016 0.024924 -1.06621e-20)
(0.930877 -0.053162 3.6818e-20)
(1.16082 0.00656468 -1.4973e-20)
(1.02329 0.0346876 1.65063e-20)
(0.822524 0.0514293 9.48936e-21)
(0.944955 0.328569 1.77563e-20)
(0.864515 -0.109347 -2.02971e-20)
(1.1519 0.0701901 -7.3344e-21)
(1.23682 -0.495806 1.04019e-20)
(1.03899 0.10335 4.66738e-21)
(1.03788 -0.0531708 8.11568e-21)
(0.940304 -0.170131 8.47625e-20)
(0.734236 0.10492 0)
(0.991672 -0.00363669 2.1761e-22)
(0.898485 0.0167862 1.89638e-20)
(0.995481 0.0234852 -1.43636e-20)
(1.00374 0.0237349 6.94219e-21)
(1.03281 -0.00254141 0)
(0.981602 -0.0233909 0)
(1.10288 0.0112542 0)
(1.02085 0.0373896 8.01138e-21)
(1.0862 0.0567472 9.16181e-21)
(1.05966 -0.028396 1.27345e-20)
(0.858505 0.0110491 0)
(0.942479 0.00797137 0)
(0.952098 -0.00746159 -8.26333e-22)
(0.855799 -0.00143896 0)
(0.998228 -0.0299679 0)
(1.0424 -0.0230675 2.51135e-20)
(0.975103 0.00204094 0)
(1.02524 0.0327162 0)
(1.02899 0.00902402 0)
(1.17348 0.099124 3.53552e-21)
(1.04502 0.0534674 -9.63003e-21)
(0.99998 -0.00718689 1.47137e-20)
(1.36645 -0.385438 -1.40376e-19)
(0.944008 -0.0426162 -1.57152e-20)
(1.0009 0.0193021 6.88138e-21)
(1.04078 -0.0270524 0)
(0.805616 0.00907222 0)
(0.215409 0.236926 0)
(1.0702 -0.0246346 1.58562e-20)
(1.28313 -0.233564 -3.72306e-20)
(0.996629 0.0593492 0)
(1.00112 -0.01418 -1.34968e-20)
(0.826132 -0.15 0)
(1.44717 0.0371338 8.03489e-20)
(0.423992 0.525131 9.92165e-20)
(0.533501 -0.0222646 0)
(1.1808 -0.258584 1.50728e-19)
(0.878243 0.176321 0)
(0.918564 -0.0122626 -4.57078e-22)
(1.00546 0.0629567 0)
(0.501047 0.320617 1.59742e-20)
(0.989624 -0.0542618 0)
(0.986786 -0.0483563 1.00688e-20)
(-0.399078 -0.117735 -1.07794e-20)
(1.02824 -0.029033 6.64865e-21)
(0.988155 -0.00654024 -8.39752e-21)
(0.582269 -0.524089 -8.42419e-20)
(1.02936 0.0274481 -5.76045e-22)
(1.18168 0.00410282 3.85558e-21)
(1.11803 0.16699 -1.27275e-20)
(1.02115 -0.0351204 1.22354e-20)
(1.02637 -0.0167296 3.73257e-21)
(0.622096 -0.184245 1.81138e-20)
(0.353376 -0.0523561 -1.07196e-20)
(0.994558 0.0226956 4.02135e-21)
(1.07715 -0.0976382 0)
(0.99564 -0.00668255 -5.79042e-21)
(1.4425 -0.414269 1.07886e-19)
(1.23117 0.0523926 -8.06603e-20)
(1.45246 -0.0631828 7.03044e-20)
(1.04647 0.000448232 9.59918e-21)
(1.00181 0.000437642 1.75312e-20)
(1.07905 0.0188806 0)
(1.09973 0.0120404 0)
(1.02664 -0.0481777 -9.63474e-21)
(1.08427 -0.0182156 -2.64968e-21)
(0.974272 -0.0531652 -1.2831e-20)
(1.02807 -0.00342321 -1.14005e-20)
(1.23693 0.161936 -1.22512e-20)
(0.767302 -0.00691842 0)
(1.01144 -0.0499999 1.6845e-20)
(1.00801 0.0827955 0)
(1.07718 0.0184866 -9.05042e-21)
(1.14263 -0.0412189 0)
(1.0787 0.0121552 1.22909e-20)
(1.15071 -0.044321 1.43725e-21)
(1.02502 0.0397997 0)
(0.0910818 -0.0247409 2.06019e-19)
(0.888591 -0.184523 -6.64657e-20)
(1.17203 0.279134 -9.49784e-21)
(-0.381399 -0.0580261 5.55037e-20)
(1.07426 0.0116396 -2.82121e-22)
(0.996547 0.00749546 -1.89769e-21)
(-0.253734 0.0158444 -5.77809e-20)
(-0.0861031 0.169029 -3.6959e-20)
(1.02726 0.0404595 0)
(-0.0415767 -0.0759765 0)
(1.02342 0.14792 0)
(0.113016 -0.126308 0)
(1.10876 -0.00872706 0)
(0.232446 0.0403037 0)
(1.01546 0.0017494 0)
(0.990562 0.0898005 0)
(0.995213 0.0354306 -4.47324e-21)
(0.615441 -0.30355 -2.78601e-20)
(-0.299785 -0.146159 0)
(1.38086 0.0695408 8.40021e-20)
(1.01423 0.0337066 5.44006e-22)
(1.0273 0.180693 0)
(-0.0476793 -0.0614521 0)
(1.1106 -0.0166415 -7.56034e-21)
(1.06718 -0.00503132 3.7068e-21)
(1.19027 0.372588 0)
(0.629947 -0.0246061 8.66448e-20)
(1.09031 -0.00265756 1.52609e-21)
(0.289604 -0.0495852 -6.86623e-20)
(-0.0669693 0.0671428 -4.83635e-20)
(-0.0124853 0.0551432 1.22273e-19)
(0.922917 0.0621927 -1.84507e-20)
(0.985433 -0.0122463 1.78583e-21)
(1.05472 -0.0105963 -2.25208e-20)
(0.98956 0.0021459 0)
(1.11155 -0.105165 -1.57222e-20)
(1.04806 0.0509847 1.03502e-20)
(-0.042671 -0.0335062 1.19205e-19)
(1.04571 -0.0508506 -5.16821e-20)
(0.998257 0.00477057 1.03908e-20)
(1.01705 -0.00712167 -1.37629e-21)
(0.123298 -0.0335017 4.56978e-20)
(0.315474 -0.0307628 -6.36042e-20)
(0.820395 0.0655342 -7.89332e-20)
(0.998186 0.0364347 1.33501e-20)
(-0.0710265 -0.0632862 0)
(0.999602 -0.00237693 6.13791e-21)
(1.00933 -0.00110846 2.05136e-20)
(1.01389 -0.0328803 -1.97802e-20)
(1.09634 0.238328 0)
(1.45781 -0.0647638 8.89697e-20)
(1.05516 0.0319382 -1.94637e-21)
(-0.0490275 -0.108436 -4.0851e-20)
(0.863302 -0.139371 0)
(1.01808 -0.00709564 1.55347e-22)
(1.02727 0.0461209 4.5257e-21)
(0.98537 -0.203272 -9.64728e-21)
(1.06237 -0.0203918 2.54227e-21)
(1.12447 0.0883037 0)
(1.27363 -0.104308 -1.9795e-20)
(-0.15725 -0.0225463 -9.52835e-20)
(1.18267 0.0842139 4.17176e-21)
(1.09675 0.0750378 -8.90259e-21)
(1.03279 0.00721628 1.30385e-20)
(-0.0617064 -0.151547 2.09592e-20)
(-0.0485499 0.12545 -9.7513e-20)
(1.04063 0.389075 0)
(0.930657 0.125906 0)
(1.13254 0.0346555 -1.52188e-20)
(1.10888 0.0663359 1.1029e-20)
(0.998292 0.00160772 0)
(1.09678 0.396488 3.40866e-20)
(1.06698 -0.00670418 -1.71814e-20)
(1.14537 0.051356 0)
(1.00925 0.0271234 0)
(0.995031 0.107351 0)
(0.979552 0.0213716 0)
(1.00908 -0.0209839 2.69998e-21)
(-0.0467902 0.0643439 5.28403e-20)
(0.979701 -0.0106355 5.82561e-21)
(1.47795 0.0125615 -9.74725e-20)
(1.0379 0.0104465 -5.02086e-21)
(0.442751 -0.274576 0)
(1.00208 -0.0103726 0)
(0.971719 0.0333632 -2.1242e-21)
(0.742442 -0.00337058 -8.60483e-20)
(0.143978 0.0300182 6.8269e-20)
(1.02468 -0.0261086 1.09563e-21)
(0.804816 -0.279169 0)
(0.777406 -0.0773898 0)
(0.955578 -0.0312529 0)
(0.569785 0.53646 3.65405e-20)
(-0.0544565 0.131733 -4.24707e-20)
(0.98599 0.00244589 -2.0928e-21)
(-0.0884317 -0.140072 8.01777e-20)
(1.01031 -0.0025512 3.6166e-21)
(1.11543 0.254172 2.42701e-20)
(1.14461 -0.0265851 9.72517e-21)
(0.667227 -0.278787 -2.43927e-20)
(1.00593 0.00830901 3.56616e-21)
(1.00455 -0.0130431 0)
(0.640339 0.302277 0)
(1.00752 -0.0164457 4.99877e-21)
(-0.352784 0.028509 0)
(0.898896 0.0498845 4.25127e-21)
(0.637303 -0.444011 -4.45703e-21)
(0.33809 0.0529263 -1.50454e-19)
(1.0667 -0.228292 2.2613e-20)
(1.09944 0.352698 8.44292e-21)
(0.928006 0.0238071 0)
(1.00293 0.0226811 3.62263e-22)
(0.962772 -0.00953141 0)
(1.01062 0.0114202 1.02399e-21)
(0.616818 0.00432444 0)
(0.70985 0.140379 0)
(1.01333 -0.0390691 -1.23366e-20)
(1.46865 0.0303278 -1.22683e-20)
(1.03189 0.00702691 3.19196e-21)
(0.548596 -0.520251 0)
(1.08575 -0.126139 1.57828e-21)
(0.831367 0.372853 6.367e-20)
(-0.0110026 0.0192303 1.73623e-21)
(1.10364 -0.0542914 -4.05548e-21)
(1.13065 -0.045492 -1.46512e-22)
(0.99091 -0.00481701 1.14542e-21)
(0.969689 0.0202245 -6.52428e-21)
(0.123222 0.0191617 5.59417e-20)
(-0.0909208 0.0208043 -6.68051e-20)
(-0.150295 0.118092 0)
(0.0135746 -0.126101 0)
(1.22915 -0.634117 4.10321e-20)
(1.01445 -0.0328666 -3.64203e-21)
(0.940656 -0.485245 -5.83001e-20)
(1.00477 0.0110291 -1.37522e-20)
(1.47312 0.0977664 4.46046e-20)
(0.657223 0.454161 0)
(0.247865 0.40733 -1.08569e-19)
(0.608739 0.460112 0)
(0.416704 -0.23894 0)
(1.11936 -0.466773 0)
(-0.155392 0.177178 -2.20804e-21)
(1.10362 0.0223465 0)
(0.975149 0.0426194 1.57601e-20)
(0.618263 0.691516 2.09481e-20)
(1.00293 0.0455777 -1.25476e-20)
(-0.0404471 -0.254934 -1.53581e-19)
(0.963788 0.0311332 2.22338e-20)
(0.556443 0.164203 -1.78854e-20)
(1.15753 -0.0353826 0)
(1.43245 0.301956 5.34751e-20)
(1.27436 0.548323 1.99452e-20)
(0.322293 -0.0531358 -3.29408e-20)
(1.31166 -0.0641376 4.59262e-20)
(1.02846 -0.0340868 1.94992e-21)
(1.01379 0.0274647 -7.12735e-22)
(0.0228279 -0.0650642 0)
(0.665781 -0.665149 -2.63091e-20)
(0.613116 0.201246 0)
(0.452125 0.0252877 0)
(-0.0640341 0.162755 0)
(0.0560816 -0.14572 -6.13954e-20)
(1.13501 -0.0341615 4.58661e-21)
(0.0304833 0.164141 0)
(-0.0731178 0.217289 0)
(1.36876 -0.0731593 -6.21826e-20)
(-0.0352061 -0.198151 6.82458e-20)
(0.113948 0.219199 -9.68828e-20)
(0.599584 0.00433398 0)
(0.171546 -0.296591 7.56832e-20)
(1.19335 -0.217093 0)
(1.01631 -0.241045 0)
(0.122682 -0.161136 1.4958e-19)
(1.09726 -0.0279046 -2.38339e-22)
(1.16139 0.329567 2.05381e-20)
(0.378204 0.0252066 6.43025e-20)
(0.418995 -0.541837 -2.71479e-20)
(1.49313 -0.123869 0)
(1.44344 0.0903119 3.07196e-20)
(1.36545 0.148698 -3.76792e-20)
(0.101525 0.0667766 -2.23112e-20)
(-0.22509 0.0733268 0)
(1.00317 -0.0580034 -1.84998e-20)
(1.03361 -0.26858 -1.10091e-20)
(0.588674 -0.400586 0)
(1.06535 -0.224037 -2.03224e-20)
(0.250085 -0.248594 0)
(0.927931 -0.0262932 0)
(1.11079 0.145909 -2.74115e-21)
(0.953763 0.0286517 4.3883e-22)
(1.11905 0.727483 -7.17227e-21)
(0.231599 -0.398144 1.17871e-19)
(0.999035 -0.00636259 -2.03299e-22)
(1.12413 0.000977926 -1.58132e-21)
(-0.0977242 0.25133 4.6452e-20)
(0.834814 0.751608 1.94394e-20)
(1.32967 -0.317699 -1.71584e-20)
(0.642435 0.304967 -7.53581e-21)
(0.998026 -0.00878238 0)
(0.627517 -0.339647 -3.78753e-21)
(0.944337 -0.664988 4.01997e-21)
(0.976463 0.673194 -3.31778e-20)
(0.738116 0.00980918 -8.58079e-20)
(1.01068 0.0150899 -1.5832e-20)
(1.14337 -0.122424 7.78178e-21)
(1.01809 0.0289793 9.96295e-21)
(1.10927 0.0598485 3.80548e-21)
(1.07236 -0.164858 0)
(1.12146 0.0504864 2.17267e-20)
(0.993745 0.489138 0)
(0.993702 0.0430329 -6.98968e-21)
(1.12107 0.0125964 1.95054e-21)
(0.88338 0.283957 0)
(0.659426 0.117817 1.43443e-19)
(0.930943 0.705164 -1.36642e-21)
(1.00055 0.259411 -1.57684e-20)
(1.06705 -0.000714421 9.98021e-21)
(0.420535 0.469131 0)
(1.30099 -0.455309 0)
(1.01158 -0.345461 -8.44417e-22)
(1.35396 0.49638 0)
(0.033378 0.0747533 -6.24119e-20)
(1.25694 -0.40933 -2.34226e-20)
(1.20751 0.481801 0)
(0.453629 0.20468 1.60484e-19)
(1.25459 0.316542 -1.61948e-19)
(0.833221 -0.639869 -2.0991e-20)
(1.05886 0.0190466 6.14999e-21)
(1.08965 0.146995 1.15924e-19)
(1.03017 0.120245 3.85253e-20)
(1.1307 0.704232 -3.78076e-21)
(0.92022 -0.40347 5.54546e-20)
(1.36887 0.0433215 4.09053e-20)
(1.04672 -0.0163796 -2.00209e-21)
(0.0385415 -0.141972 1.25144e-19)
(1.12001 -0.722431 4.70325e-20)
(0.901392 -0.734996 3.95705e-20)
(0.255986 -0.364429 0)
(1.01079 -0.145227 6.28511e-20)
(0.362078 0.284189 -4.17291e-19)
(0.0415239 0.147242 1.62897e-20)
(0.580584 0.0119685 3.52827e-20)
(0.821748 -0.032347 -9.9463e-20)
(1.12829 0.513573 0)
(0.923524 0.190342 6.60275e-20)
(1.05921 0.0799365 4.66979e-21)
(0.942752 0.428514 -8.20807e-20)
(0.819117 -0.754905 -5.48595e-21)
(0.881497 0.0345433 -4.44088e-20)
(1.01314 0.471822 0)
(0.990283 0.052592 1.06381e-20)
(1.3914 -0.506479 1.80149e-20)
(1.16034 -0.335271 1.47204e-20)
(0.191435 -0.160755 7.1735e-21)
(0.193647 -0.0297034 -1.71978e-20)
(0.951677 -0.096734 -5.36208e-20)
(0.356848 0.507746 0)
(0.902662 0.032017 3.53867e-20)
(1.23792 0.642087 1.06327e-19)
(0.0309142 0.079193 1.96678e-19)
(-0.131814 0.219632 -4.08808e-20)
(-0.320737 -0.123899 5.35019e-20)
(1.06005 0.0294331 -6.19373e-21)
(1.18864 -0.472274 0)
(1.09688 -0.746966 -2.55058e-20)
(0.712357 0.342586 0)
(0.320427 0.0970403 -1.44238e-19)
(1.03169 -0.0160794 2.31295e-21)
(-0.140752 -0.16837 -3.79236e-20)
(1.10619 0.101352 -1.11363e-20)
(0.206563 0.0390448 8.11014e-20)
(1.07459 0.108035 0)
(1.16266 0.164565 1.19763e-20)
(0.305851 0.0582526 -4.00294e-20)
(-0.149203 -0.0775175 -8.51875e-21)
(-0.173159 0.0415414 0)
(0.150556 -0.0300591 0)
(1.15347 0.0838199 -4.86883e-21)
(0.497792 0.00247194 2.06617e-19)
(1.30899 -0.744787 -4.52736e-20)
(1.00376 -0.29239 -8.83177e-21)
(0.958464 0.191654 -2.22748e-20)
(0.379532 -0.584889 1.2894e-19)
(1.60266 0.147732 -4.54107e-20)
(0.241906 -0.113695 4.97541e-20)
(0.208248 0.274554 1.86764e-19)
(0.272051 -0.0711317 -1.83225e-19)
(0.948111 -0.469245 -3.86529e-20)
(1.54575 0.333408 4.69519e-20)
(0.591557 -0.702589 4.26325e-20)
(1.13162 -0.0803177 -6.98073e-21)
(0.769139 0.278044 7.72356e-20)
(1.36453 0.267416 -7.05573e-20)
(0.679641 0.625463 -3.76964e-20)
(1.38902 -0.633795 0)
(1.54389 0.497786 4.51488e-20)
(1.06413 -0.512449 -1.32561e-20)
(1.47595 0.592701 -1.37613e-19)
(1.06941 0.0394011 0)
(-0.0576686 0.224765 0)
(1.31137 0.720006 0)
(1.00753 0.00096703 -6.08958e-21)
(0.732974 -0.274428 -1.90169e-19)
(0.466783 -0.0770014 0)
(-0.050792 0.261734 -3.93064e-20)
(1.00286 -0.274096 8.30187e-20)
(0.19085 0.0387803 0)
(0.318945 0.010984 1.16182e-20)
(1.05596 0.0424987 0)
(1.56131 0.191174 0)
(1.06758 0.0498376 -6.58466e-21)
(0.361302 -0.307017 0)
(0.986215 0.150789 2.93322e-20)
(1.43182 0.23548 0)
(-0.150316 0.13096 -3.5587e-21)
(0.815087 -0.353835 0)
(1.55982 0.245053 -6.88371e-20)
(1.27661 0.342313 -8.60426e-21)
(0.867024 0.621622 -8.93816e-21)
(0.857415 0.139272 -7.47517e-20)
(1.02038 -0.183219 -4.10759e-20)
(1.52517 0.210465 3.98701e-20)
(1.25826 -0.16466 0)
(0.550737 -0.0549102 0)
)
;

boundaryField
{
    FrontBack
    {
        type            empty;
    }
    Top
    {
        type            noSlip;
    }
    In
    {
        type            fixedValue;
        value           uniform (1 0 0);
    }
    Bottom
    {
        type            noSlip;
    }
    Out
    {
        type            zeroGradient;
    }
    circle
    {
        type            noSlip;
    }
}


// ************************************************************************* //
