/*--------------------------------*- C++ -*----------------------------------*\
| =========                 |                                                 |
| \\      /  F ield         | OpenFOAM: The Open Source CFD Toolbox           |
|  \\    /   O peration     | Version:  2412                                  |
|   \\  /    A nd           | Website:  www.openfoam.com                      |
|    \\/     M anipulation  |                                                 |
\*---------------------------------------------------------------------------*/
FoamFile
{
    version     2.0;
    format      ascii;
    arch        "LSB;label=32;scalar=64";
    class       volVectorField;
    location    "148.5";
    object      U;
}
// * * * * * * * * * * * * * * * * * * * * * * * * * * * * * * * * * * * * * //

dimensions      [0 1 -1 0 0 0 0];

internalField   nonuniform List<vector> 
808
(
(0.7562473748081514 -0.01749741566804442 0)
(1.031364577157138 -0.01258294003348009 0)
(1.114082218313957 -0.004880223556021184 -1.791649595256623e-20)
(1.085118040375413 0.01260987041191304 0)
(1.364800660465967 0.016351150605291 -3.915153981257413e-19)
(1.038694302913793 -0.009320214710278536 -7.170378744368773e-20)
(1.013564172042566 -0.02089640829064043 -2.33137439869413e-20)
(1.07874552655123 -0.00526620874464307 8.987650832473194e-21)
(1.254515551917424 -0.01898258054086857 6.37140482629066e-20)
(1.084584507711486 0.0104216537780253 0)
(1.013037382553651 -0.008139403798279963 0)
(1.306552332092798 -0.05204647334322671 -3.56607692618565e-19)
(1.085991569032007 -0.001814871775302766 2.033956826687521e-20)
(0.6751059739448065 0.006399962807040188 0)
(1.284460628641618 -0.113613721357455 0)
(1.081398978457682 5.411104334478398e-05 -3.821146867264172e-20)
(1.2312874728907 -0.1448084794552456 -9.802533243182423e-20)
(1.0739384630774 5.367822122394534e-05 3.169096604518905e-20)
(0.9929075925699816 0.004777573064023498 0)
(1.026306552659973 0.009430806985332663 0)
(1.037919168339211 -0.009908718162616655 0)
(0.987454241392097 0.04432661457978048 0)
(1.051140416035393 -0.00594761657845687 5.520355286292626e-20)
(1.053367116169659 0.009192705103277783 0)
(0.9325261983448223 0.1969361069442225 4.612872101659827e-19)
(1.167491587643053 -0.08557863805015826 0)
(1.185920867700952 -0.01790394261307891 1.592389592977866e-19)
(1.077437829816388 0.009406011761343256 5.191882423117859e-20)
(1.083937502937314 0.00228061820367006 5.051484765879923e-21)
(1.071933521813862 0.03090112052455603 0)
(1.075523800389002 0.002691280490828964 -1.172531015121639e-20)
(1.032952911693372 0.006705303239788822 -1.968613639377588e-19)
(1.059868404868174 0.01486022741889562 -2.39052075813644e-20)
(1.08914448947269 0.005372757035304203 -2.928593443276832e-20)
(1.119744766230738 0.03933552523175707 0)
(0.7552066821079823 -0.1241247765625513 -4.533802157594974e-19)
(0.9546157326333984 -0.005865585289017185 0)
(1.068922255331488 0.0223727677661343 0)
(1.068830260731254 0.007353894103743441 0)
(1.073624943531267 0.00900078174164156 -2.837896553943284e-20)
(1.091968620758341 0.0245267965436714 1.119411087198307e-19)
(1.150566972547394 0.004227136547270283 2.193518857307167e-19)
(1.095972511822627 -0.002361056363354397 0)
(1.015832200252905 -0.0089653737572793 0)
(1.13421040397278 -0.09631796997215554 -1.642566582068472e-19)
(1.04410290376871 -0.01159709378895105 -7.926033250216291e-20)
(1.058262414325535 0.02662855072177392 -2.826310800410521e-20)
(1.231746408350074 -0.1116127693303899 -5.629991898366933e-20)
(1.067711777962584 0.01219579009190498 -4.266695073512475e-20)
(1.257677121289376 0.01895958309120331 0)
(0.9962172278555165 -0.01860621087475357 2.095278392964003e-21)
(1.044591728764306 -0.001850240157860102 0)
(1.087623913206933 -0.002160257639680115 0)
(0.9990143013084095 0.006570374573591086 -1.835569355084891e-20)
(1.2505901813271 0.03504328499319237 -2.316392804935073e-19)
(1.063735303652017 0.01822414935957246 6.155059548391034e-20)
(0.9916410015341368 0.008680970674862043 0)
(1.020928048110449 -0.008891366665551941 2.348987823833085e-20)
(1.107189682448885 5.116852499927049e-05 -1.20470081550869e-19)
(1.061328921465044 0.03098407055842809 0)
(-0.07979287180906708 0.006589640227717151 7.046240342061006e-20)
(1.155184252523188 -0.05128485407439255 -1.925383436909902e-19)
(1.006593222906585 -0.007699660945364506 -2.58096634171923e-20)
(1.184089374829663 0.07033460205303139 -1.238385297923299e-19)
(0.9983369898260674 -0.009535316226662186 2.995943592401652e-20)
(1.08421288232853 -0.005529244702441696 0)
(1.245701780221594 0.1001855466072673 0)
(0.6960525229600661 0.003204812845969354 -7.49075678902304e-20)
(0.9897815312410975 -0.01345621645345836 -3.121474469239116e-20)
(1.461782229610001 -0.01687302874322344 4.508581996997312e-19)
(1.060512984472066 0.007584144604608993 -6.80852511124534e-20)
(1.369016786516919 0.09910194095940841 2.928539662667303e-19)
(1.054725261996822 0.006882330604554702 -1.884776196708639e-22)
(1.081257728276577 -0.01387881490866564 -4.846480606449581e-22)
(1.165544673078699 -0.2363521087626072 0)
(1.021808835925543 -0.01445892761783147 0)
(1.0171565687218 0.01758716392267178 -3.147518689764529e-20)
(1.38475687384673 0.3489751290880507 4.143474543240034e-19)
(1.097035860203898 -0.04226090945033354 9.321012941147612e-20)
(1.045129295221302 0.2091253797086847 2.551815510814413e-19)
(1.126161801926128 -0.06100898769295347 1.148694849565538e-19)
(0.9220241981618691 0.005126896541687651 0)
(0.9754397060093941 0.01853018980979581 0)
(1.004146694168883 -0.04903386753310699 2.629244939796815e-21)
(1.010319555027273 -0.01292680029698633 7.466790990112465e-21)
(1.029849856672416 0.0261420717938703 1.40593689945e-20)
(1.531248251525843 0.03743805241473473 3.28475644399926e-19)
(1.28862278954142 0.0722013660284519 5.469937981086705e-19)
(1.072341210107719 0.003020978890484769 -9.282904033392378e-20)
(1.200280651028246 -0.09235248895170511 0)
(1.033671280097366 0.001833636579442029 1.353325231243837e-19)
(1.164415774844467 0.02311853142185353 -3.243655681184243e-19)
(1.001424071309562 0.03227815984473589 0)
(0.9996265013676268 0.002036096464670691 0)
(1.044509027342871 -2.292707319716869e-05 7.695947425508611e-20)
(1.209412708664647 0.1113094677374287 4.140072906552412e-19)
(1.011058252525439 0.006988565744891008 0)
(1.092413111894891 -0.0703868877347741 -1.049878469811204e-19)
(1.149752260360234 0.03842518291711829 0)
(1.211281921131445 0.09767315963911286 -1.954509670484927e-19)
(1.108047009217416 -0.02861722899728684 -7.635966830277906e-20)
(1.027311153436838 0.01163737904642718 0)
(1.085097909126854 -0.004651172909335497 0)
(1.019019526131262 0.02570188234655121 8.175619705451589e-20)
(1.071581959450615 0.05424406684109953 -9.461985126551793e-21)
(1.10383234759576 -0.004180763032927231 6.213362749189798e-20)
(1.111784685871078 -0.09593929546799466 1.520767041097512e-19)
(0.9616359921013854 0.003086909164241504 0)
(1.066214621871395 0.03114145324665111 3.871803027811142e-20)
(1.169268792797218 -0.07593276431445289 2.353052456499855e-19)
(1.051446819469037 0.04523823583263438 -2.926285474483294e-20)
(1.022474948588635 0.06714321708289801 3.756752769008789e-20)
(1.090444833925644 0.02606461323413114 0)
(1.014979926894276 0.01812053801249948 0)
(1.029005253781297 0.00942937950134499 7.910483987561506e-20)
(0.9487161385252976 -0.03379015673888184 0)
(1.052868514946074 -0.005683077766019118 -7.951192669157045e-21)
(1.343013177947752 0.06065181361548548 -1.596424285567941e-19)
(1.080031760906661 -0.01319482444521706 2.592507903928732e-20)
(0.7439683409623162 -0.001748767293961303 0)
(0.5606933886458202 0.1733383874510654 -8.701021615003252e-20)
(0.7061148971420056 -0.002539459261011723 0)
(0.6989041337652233 0.01463858424049997 0)
(1.077638730412561 0.00362822477438032 -6.83478991415732e-22)
(0.9906398126752575 0.0145277352406166 0)
(1.277928534041159 0.1232028386930455 2.471403412077371e-19)
(1.012359097345009 -0.02780908042446547 -7.961206309470621e-21)
(1.04440470421157 0.02201707188846137 1.736398977222382e-21)
(1.05861113228298 -0.01164333411183314 0)
(1.126626155165598 -0.009146780340166657 -4.952520905233003e-20)
(1.262756753271447 0.1418095464769506 -2.266186735129645e-19)
(1.08929371303972 -0.01124204521968045 -8.527005685275534e-20)
(1.06967204129095 0.02648104584490722 -1.109759991559301e-19)
(1.040697499112727 0.04672391215518897 6.83627815107207e-20)
(1.022491877954092 -0.003754873323752453 -3.44977651904183e-20)
(1.061024627693535 0.02349314880010668 6.124422472742197e-21)
(1.129820013116175 -0.00394387571298508 1.070297489889484e-20)
(1.040028064025917 -0.01554278465646979 -4.788165361253822e-22)
(1.087584967021187 0.03476309203597061 0)
(1.028088192882096 0.01346840342763584 0)
(0.7653258754714699 -0.05820002430285 -1.820023427710352e-19)
(1.030144529279771 -0.001662809385719413 -6.968091506503866e-20)
(1.131043750648808 -0.006199836498217843 -1.292260020530356e-20)
(0.7034477411803269 0.006579095910662882 7.424710944741133e-20)
(1.174894149262137 0.02073321404055683 -1.907651013816095e-19)
(1.13084076912511 0.00455831767038691 5.290827626282796e-21)
(1.128965399251065 -0.01001613171091296 3.491098766976877e-20)
(1.000940206219894 -0.002932790631311132 -7.713341020477449e-20)
(1.100212334546792 -0.06867124792361799 0)
(0.9855210068106084 0.001878001150863296 0)
(1.057921164830343 0.007082175515042612 0)
(1.00520468715264 0.187688710127403 -2.484625590749529e-19)
(0.7792627955158566 0.01240760263998828 0)
(0.8568451997686303 0.1002329244668776 -8.473859457909215e-20)
(0.07333859041609399 0.03950708218274208 -3.029627066845969e-19)
(1.172850972236911 -0.02935434899843471 -2.221750035514032e-20)
(0.6713343542284217 -0.007300584065720385 2.43567724784783e-20)
(1.171061878657088 -0.1021786217929731 6.923490992110298e-20)
(1.122800425305861 -0.006615894489433227 -5.88882199879823e-21)
(1.155753598645303 -0.04776925856608876 2.159000094053081e-20)
(0.1084605487118172 -0.2214674135024324 0)
(0.2497104372466474 0.08869364241977613 0)
(1.25620211999142 0.1142002080862795 1.944969606077016e-19)
(1.02127858145005 0.01979082254680474 0)
(0.7378216820269041 -0.006293066683817431 0)
(1.07541324006851 -0.0118140900963867 2.703912992927911e-20)
(0.9748920114578348 0.002782514367009992 0)
(1.292481420374396 0.132861900976621 -1.588845182176546e-19)
(1.05747862536631 0.01121324492047642 0)
(0.9937978461703004 -0.007453599232860309 0)
(1.06501644298931 0.008245171073965833 0)
(1.006157813963095 0.02080879001279075 1.757553361972647e-20)
(0.9340258995785412 0.01541343343863185 1.068580472732977e-20)
(1.177666778041276 -0.1998912125016641 0)
(1.005204446339585 -0.005190295301247906 7.799971928815632e-20)
(1.059125000823361 0.006391195446361738 0)
(0.7746815749440945 -0.003290011084930567 0)
(1.217078723708633 0.02977139426052648 1.677457310968252e-20)
(0.7049678189599307 0.001331651315849574 0)
(1.436787801590087 0.08972954893449746 -5.340021956747752e-20)
(0.9947052785195022 -0.006807040433775165 1.705963673392475e-20)
(1.273626232319815 -0.000500141631422305 -2.92092655513427e-19)
(1.059577982664253 0.008863660682120413 1.396843506331729e-19)
(1.000908462061769 -0.01359494714182018 0)
(1.216991049411994 -0.144915064779507 2.037779846427199e-19)
(0.7331958163881271 0.01379067963029357 0)
(1.098449519901316 -0.005107158771924533 0)
(1.151637584834658 0.06918587038771509 2.035679590180618e-20)
(1.007106218770903 -0.006857000200855237 -3.024076035722581e-20)
(1.119847921673475 0.05271642981714823 -1.767243739768813e-19)
(0.09877957225189292 -0.08370889637427233 0)
(1.071782931768609 0.03833835506224924 0)
(0.6617188633677933 -0.002928363887706438 -6.745936445601768e-22)
(1.012157440519351 -0.01939701762119551 9.772355234577688e-20)
(1.06141716819162 0.0007127880883315578 0)
(1.077129679678866 -0.1245255686033726 3.719088462956438e-19)
(1.002792847720524 -0.00621454826842937 -3.468863568109144e-21)
(1.002601819417648 -0.005353405446944905 7.394430925401039e-22)
(1.093919056062377 -0.009336021396896092 0)
(1.020662176147965 0.02058344200818588 -6.262139004960735e-20)
(1.106566329004299 -0.001597064039243976 6.705479170933149e-22)
(1.074297868217539 -0.01136493496319664 6.585893289842532e-20)
(1.085823039722939 0.02234184395194572 0)
(1.331892174189908 0.1653080252071731 0)
(1.001996098401189 0.0001086328131099492 4.414826577861552e-20)
(1.321074589970745 -0.1239611326561132 1.541560923242172e-19)
(0.0509598582133618 -0.1909541556741247 -2.544221504085675e-19)
(1.071315949845232 -0.005510335423290157 0)
(1.116836238855452 -0.001353286750401794 1.208434738620239e-20)
(0.7268603113750658 0.01784414911271148 0)
(1.062692192522522 0.00548396380532933 0)
(0.8712726788826627 0.1667564325037367 4.76873338193743e-19)
(1.270351684665208 0.1338749887661601 1.909828980147537e-19)
(0.6543429258846036 -0.003100523525986523 -6.319494569132905e-20)
(1.041460549753229 -0.002298382720154502 -7.199820923983669e-21)
(1.054772176407483 -0.0002828541240236388 6.635117981712157e-20)
(1.36376767939464 0.1251349730680374 6.813717616733586e-19)
(1.333856503473482 0.2524199719868148 0)
(1.060410471740154 0.0006207449180530337 0)
(0.9993917725146899 -0.007050971985061806 1.529992333332901e-20)
(0.9933642758718622 -0.01029281423408482 5.437589187187422e-21)
(1.381691666398921 0.2003033289869625 4.236318955253086e-19)
(0.6817209431333627 0.0005287024259899422 9.859435846378784e-20)
(1.005569733516717 -0.002105065803984669 -5.976721215306159e-20)
(1.098168838675443 0.0130243588029165 2.545968868340022e-20)
(0.6694740349178043 0.004999315611974663 0)
(1.066090820893427 -0.01201151822265098 0)
(1.007496093149739 0.1506722607379133 -1.246226212439788e-19)
(1.090147033359019 -0.008990677597095502 -2.451955968999069e-20)
(0.9821249972233226 1.779094667823262e-05 3.280987922879412e-20)
(0.9912105959200165 0.006039625545346785 0)
(0.6382909586323692 -0.001092220433573652 0)
(0.9768093157444946 -0.001174056446820137 0)
(0.6421373835545273 -0.001491561553865567 2.681116193106917e-21)
(1.090537028447681 -0.05638169131223096 1.194870332958105e-19)
(1.113534303127025 -0.0009638453219255297 1.216123997618012e-21)
(0.9579271694376255 -0.0009069578450051008 3.908723990835472e-20)
(1.015993831630714 0.01010710057586471 1.692463945275978e-20)
(1.066687052502928 0.001061979314061822 -2.466421852524282e-21)
(0.6347004963142042 0.008869082260478589 -3.642319779593904e-20)
(1.003396606003109 0.008553539925070946 -9.142662844688107e-22)
(1.035658326307276 0.008270081555143543 5.273068135654578e-21)
(0.9872764807297703 -0.01267781889262685 0)
(0.6099874911458365 -0.0004906452525639029 0)
(1.068646393170626 0.02263641283806509 0)
(1.016976931177184 -0.01591145086983204 1.048020362306222e-20)
(1.023454347783242 -0.009040569870117773 0)
(0.9912922569268701 0.01414348400763548 -9.656092761337395e-21)
(1.010912653390904 0.001436877600240576 0)
(1.12796180986403 -0.001584686806919705 -1.150497833218099e-20)
(0.03976260242877803 -0.1431807929158902 -4.118483642986913e-20)
(1.036239303348593 -0.0175756888585464 -6.646745639264949e-22)
(1.0417333281012 0.004402383647789778 0)
(1.081515100140946 0.06613080109985088 8.443620050760682e-20)
(0.9685169662121351 -0.002398141431773447 3.111868844664051e-20)
(1.020542992664107 0.01682638830394094 -2.370528207036525e-20)
(1.00146814580171 -0.0003998842242529091 2.493530473521333e-20)
(1.040260638997677 -0.006342723625303366 0)
(0.6408857004291252 -0.004010414949918424 0)
(1.025795018689754 0.02454470444526256 -7.265641945415401e-20)
(1.083345894648727 -0.004428877633192284 4.820485285361033e-20)
(1.017067978225552 0.004240613147256935 0)
(0.9790722710288871 -0.002769602748263202 -1.948286629650596e-21)
(0.8706242090669807 0.01816843134310807 -1.036706089962379e-20)
(1.014033447143295 0.002668042425601275 -1.008802785400422e-20)
(1.025337137472371 0.005431803714306706 1.838776842709468e-20)
(0.9832535758981001 0.004745675790048524 0)
(1.002576203384214 0.011208112165824 3.504460817049708e-20)
(1.108618013373879 -0.0008144108626932612 0)
(0.9249396422334804 0.001222443995819177 -3.189392408520721e-20)
(0.9591876751556959 0.003937698222601361 0)
(0.9156974327122567 0.2105754311814757 5.17456696768501e-20)
(1.010735447402205 0.06674960740520641 0)
(0.992963204089451 0.004344925417630575 -2.274962699464004e-20)
(1.057354325176171 -0.05406783775935971 -2.887804804857223e-20)
(0.9915597783715723 0.0004204313856035807 3.378388294946932e-20)
(1.011658299129606 0.005475801726764653 0)
(0.9779154451660511 0.0001172303523156635 -3.14611747759355e-20)
(1.169095812647738 0.1033241251164229 -3.411800914738341e-19)
(1.070055930111084 -0.2653486830037918 0)
(0.9930097025617339 0.001233098551372482 -2.228789617115745e-20)
(0.9780524859030899 0.003294704752216547 5.043388904013656e-21)
(0.9638484490028181 0.005713487759391359 1.003490323764797e-21)
(0.7459142676823913 -0.001056408030859096 0)
(1.12253463012941 -0.08154485528640039 0)
(1.004471161396926 0.004175968437332095 -2.219318706952904e-20)
(0.9039565014794708 0.009343002217623072 -9.651715998357327e-21)
(0.8540171176293639 0.01327247815717728 3.287607132837516e-21)
(1.013970796670616 -0.002782395698711603 0)
(0.9511568056882459 0.00739500239321355 1.435196594978337e-20)
(1.005617944657491 -0.000262546756453075 -2.307774415489232e-20)
(1.020910228116195 -0.00178570609091603 -2.577976143696498e-20)
(1.113999445346821 -0.001435003745449417 -4.938639197860918e-21)
(1.119468098805403 0.0007333363735954521 0)
(1.014380402011814 -0.01076445561405267 0)
(1.019935610786643 0.002579211009177168 0)
(0.9431006961658057 -0.0005524276446893597 -2.08574750763255e-20)
(1.017860720591228 0.01361565238399014 5.335959443334638e-20)
(1.081888796824968 -0.001310394109833929 -2.226926945870014e-20)
(1.040234079495895 -0.005959674720869709 0)
(1.106350151855071 -0.005075740120573925 1.846940433364537e-21)
(0.9952137874367826 0.002676880079601325 -2.216459408187063e-20)
(0.9867062360011574 0.005744362907581295 0)
(1.011558112740653 0.003235816279152888 4.653830808444755e-20)
(1.367905843534061 -0.3146712856721284 -1.133954941198559e-18)
(1.122796343100546 -0.04334159330749977 -1.081748370488012e-19)
(0.9650712530498631 0.002564868893936111 4.642758093622685e-20)
(0.7722387812662082 0.006667001047496077 -3.085780211221726e-20)
(1.221991502937162 0.05411273918272359 0)
(1.225596597338454 -0.1310671980995663 -1.462343206516683e-19)
(1.078503401498456 0.003122029980134993 0)
(1.008287615881756 0.001442256884643381 2.253019644161714e-20)
(-0.1704960870759195 -0.133556324549942 0)
(0.9939663995284606 -0.00464627796000507 0)
(1.012449596649519 -0.02316248659209739 4.608989259415747e-20)
(0.7062821903341414 -0.01945753922953153 0)
(1.096788350370435 -0.01480593760369697 2.111627769863665e-21)
(1.043728192814162 -0.01184287745333534 1.819816366861156e-20)
(0.6331624437067009 0.004130857984999563 0)
(1.449905884661684 -0.1225100413845943 0)
(0.9866761494744765 0.001270174104283774 -1.083607730930734e-20)
(1.069821069064553 -0.01501923779802618 0)
(1.037921719782676 0.0003831212183511397 2.146858497582228e-20)
(1.081764766651524 0.006620300835220852 0)
(1.010200536804112 0.004958627099246082 -1.043949440284289e-21)
(1.005831371379942 0.002981996659981402 0)
(1.012055265005327 -0.01057028777127181 1.686641292978623e-22)
(1.003820011342685 -0.02088502100785584 0)
(1.034933695107312 0.002596609567605554 1.696193258316867e-20)
(-0.1823337368745899 0.02903237124859563 2.639705864388991e-19)
(0.8040417446894521 0.02263775675552367 5.211038087924901e-20)
(1.005715873496797 0.001831705752626345 0)
(1.132051821490038 0.01799159151448956 -1.144060044062786e-20)
(1.122494487235106 0.01601240716841226 8.287527097786815e-21)
(1.054497565791085 -0.01299901706063351 -1.278639572340326e-19)
(0.9987847672318799 0.01035018179887983 1.239675279722655e-21)
(1.077331047449942 0.005683642507896386 0)
(1.186378654698607 0.05431747655128218 0)
(0.835462398638033 -0.07680106609905915 4.587919386701921e-19)
(1.097399692294744 -0.002534310923360841 0)
(1.033098243188292 0.007334650346737286 -7.400643789052885e-21)
(1.042498648074298 0.005154883624471176 6.104637133986607e-21)
(1.055362854650304 -0.06123199595824221 -7.534609142921223e-21)
(1.139689186543887 -0.000588451885417912 1.665814407581031e-19)
(1.086255889306851 -0.008345061291559302 0)
(0.9945985382615585 0.001285585975030733 0)
(0.9959685006649136 -0.02568956555599453 -2.306500350192925e-21)
(0.9903262135855271 0.002872301966065191 0)
(1.030980734105909 -0.0386921288385982 6.366269099233309e-20)
(1.292054379522651 -0.09187984662684712 0)
(1.044585883816904 -0.00757206650893547 -2.74059352461176e-21)
(0.986160462427575 0.01702347042924292 -8.488563993164031e-20)
(1.033337697739708 0.04101161332981142 -2.421526034120366e-21)
(-0.08414294311148209 0.146573064111077 -1.65038820765853e-19)
(-0.0674860164917999 -0.3043953427816382 -1.368591227752006e-19)
(0.8920556290290554 0.1423900418215815 0)
(0.2944725863747022 -0.02689626096114473 -3.325826051617324e-19)
(1.006827148652235 -0.003235688958858389 -1.545469328766252e-20)
(1.063821841818212 0.002672458797065759 -2.117143120484e-20)
(0.9916000578816674 -0.01870201445307757 2.950160552244779e-20)
(1.021282927701259 -0.03079082241281255 2.548129715065932e-21)
(1.009513019486272 -0.03239142871957292 -6.5358999507558e-20)
(0.9888225600985222 0.004805004656324222 -3.466492933173338e-20)
(0.9928579623682742 0.004924785383273449 0)
(1.025340747387446 -0.002236151047938725 -3.537040689514575e-21)
(1.939377046842935 -0.1555568852507428 1.079392326152356e-18)
(1.04438134351577 -0.001234038073398746 0)
(0.9952868864547533 0.008468357806171539 1.556541253439088e-20)
(1.003102290406471 -0.000190975469521392 4.065086039083453e-20)
(1.161148709731427 0.1396490782859317 0)
(0.9971667866418938 -6.79105052247703e-05 6.395808288038145e-21)
(0.9487064418344963 -0.001562654699627097 0)
(1.03783539416796 0.04177392407809906 0)
(1.310037967132756 0.1658294885789793 2.371942735390297e-19)
(1.085883060288504 -0.005004248757922051 2.276370017271361e-20)
(1.018106064352722 0.03013473503997499 4.683520312322783e-20)
(1.087969731901246 -0.007403615265822478 -2.196968237821099e-20)
(1.046255100916545 -0.004822952106624486 -6.804880898725026e-21)
(-0.384291527944366 -0.05056748927284643 0)
(0.9990489684722828 0.01441397977510896 0)
(0.1068858903988517 0.05641959237987831 -8.718001274160568e-20)
(1.007197224009892 0.02172189284929464 -4.173245771387165e-20)
(0.9951765640600502 -0.01097817826555402 0)
(1.001258696058539 0.005716458895962706 -5.027979970373361e-21)
(1.081714818446845 -0.0424062681740793 0)
(0.9948921666891494 -0.01657410790823115 -7.765341656127694e-21)
(1.096966568948706 -0.05999517681427787 0)
(1.445365221449881 0.1786799241843022 0)
(1.05453181764891 -0.01217673899205139 0)
(0.990173180793348 -0.02358449577026344 -3.961905618315929e-20)
(0.9971600667366237 -0.04828148484626005 -2.737979767345104e-21)
(1.014758668566967 -0.01804871228017089 -1.732631271318903e-20)
(0.9971535830319531 0.01659161471150656 -5.685914457028085e-20)
(0.9954242301432008 0.0106661642801198 -1.516956684925319e-20)
(0.994028073155949 -0.02839274003782188 0)
(1.003152738009667 0.0242497141379382 1.968667200905053e-20)
(1.056636811517248 -0.04380723329214846 0)
(1.111379969516095 -0.03550749563578293 2.645248529496423e-19)
(0.9957662698488352 0.01706909416540023 4.681535727692038e-20)
(0.6150827726854334 -0.008676156764736922 0)
(1.134903160184976 0.1458843503880462 -4.744980689953667e-21)
(0.8598014546241229 -0.09704160130215086 0)
(1.137746329942565 0.07331335004437768 -2.678350205199751e-19)
(1.317528903248155 -0.3893553380545232 1.304818272807936e-19)
(1.070680130891737 0.06105596948249044 -1.278539986535419e-20)
(1.010309902157446 -0.03216601055002748 0)
(0.9563239888304272 -0.216663185858484 0)
(0.5057050519615136 0.1473003245829388 0)
(1.015377329570201 0.008814396672469558 1.316288394320048e-21)
(0.6858827721206097 -0.03090249845328916 0)
(0.9994719122282423 0.01778140254568 3.592838538170968e-20)
(1.024865742848919 -0.005423017836195017 -2.804768086484141e-20)
(1.079024653062519 -0.00810813434081625 2.805593575466596e-21)
(1.043011648888136 -0.01813157877455574 3.267872900504787e-20)
(1.042348427349151 0.01164098265474561 0)
(1.065173092792383 0.02610056776820752 -9.404850208502459e-21)
(1.049496829133205 0.03529302800635369 -1.836345056105731e-20)
(0.9828826157307854 -0.02270298499569883 0)
(0.6249337641887535 0.005105111672562269 9.176099161159911e-20)
(0.8941549660604304 -0.005883268361567932 -8.851421743528086e-20)
(0.9093799059989172 0.005320081830109877 1.446600814372087e-20)
(0.6295601811582348 -0.00640574599925571 1.404605077135133e-20)
(0.9793657410130538 0.001445744996122273 2.568838638027936e-20)
(1.004451018825045 -0.01745896832051166 -3.630314037673506e-20)
(0.9768780865072697 -0.03353110570509227 -3.515288508389323e-20)
(1.0855252956421 0.001623731271375291 0)
(1.020221413899209 0.004608069628972035 1.015773272801159e-20)
(1.132217672776791 0.04909617275005917 1.29660150635791e-19)
(1.032341408786239 0.04018120344186215 0)
(1.02246773762037 0.002533197998236917 0)
(1.586632963525841 -0.1670842372471444 4.428725477634632e-19)
(1.052956852325241 -0.04646411742195448 0)
(1.016495270684537 0.007954845606376063 -3.838856339310217e-20)
(1.085360974033095 0.002782840344115319 0)
(0.4821211086964666 -0.0273557260176065 0)
(0.0002391176284780592 0.02665770186611929 0)
(0.9908973652196621 -0.02444598631702867 1.214518625095637e-20)
(1.302524299662827 -0.09521052223644161 3.776621874791244e-19)
(1.034900518405753 0.03537629867523899 0)
(1.022218430119559 0.0034113020517607 -2.257339178154502e-20)
(0.9607251246834244 -0.1610674567254521 1.424388990895598e-21)
(1.255197491499157 0.07948128917685551 0)
(0.5966391627914546 0.7282692166459894 0)
(1.314659921916639 0.1507398259002577 1.113021671899058e-19)
(1.680261031082001 -0.0246376514039169 0)
(1.049526864020668 0.1086301285416156 0)
(0.7073473866741289 -0.02374758423855075 3.219969047210273e-21)
(1.05074016834285 0.04351677672450281 0)
(0.7465242384406704 0.1229922485480003 1.21163868460008e-19)
(0.9967599119943902 -0.01656483466273664 3.565651899449773e-19)
(1.035899902391037 -0.04269779660777596 2.793679541475174e-20)
(-0.3825696212624151 -0.006371527674664862 0)
(1.072086548951023 -0.0164906815038993 0)
(1.089630993953081 -0.003642963531144225 0)
(0.6494481722050237 -0.505592895444445 -2.457327581053965e-19)
(0.9901454680518026 -0.001675425607321987 0)
(1.092343574981237 -0.02119844168790355 3.927810575599104e-22)
(1.186863063969902 0.1214108393129166 -1.982553089331232e-19)
(1.091516385655694 -0.04841468401384676 0)
(1.006014552549361 -0.02137408228972119 0)
(0.7921038536084271 -0.177096395619836 -1.639358863359135e-19)
(0.88313607665543 -0.1261271397146267 1.54239922872389e-19)
(1.029000223614092 0.01433788847292235 -2.263832474944469e-20)
(1.023106440218086 -0.008961180147332682 -4.651988820449495e-20)
(0.880654248451417 0.01556495280435915 1.328285402969642e-22)
(1.507646386263567 -0.1935215773884817 0)
(1.306260743256143 0.1212180529982159 3.07520285470302e-20)
(1.244332100531511 -0.07291883791208773 -3.170703057870415e-21)
(1.095694069514495 -0.0184139228757406 -3.857340979114134e-20)
(1.03708200009872 -0.01135885110582701 2.458755310697921e-20)
(1.092841163216182 -0.03905707233587818 9.050892888030799e-20)
(1.031666313128604 0.0201976890662088 0)
(1.045636118564208 -0.037627395877616 0)
(1.115956867196842 -0.008942311124341875 0)
(1.090059464109354 -0.03676968342606195 0)
(0.9980632818577888 0.01124655391931111 0)
(1.147573337223786 0.0804916164307482 9.593966403221529e-20)
(1.337569975132111 -0.1483922717879687 0)
(1.0349431817128 -0.02447731118347852 -2.04221948937737e-22)
(1.050173641051007 0.05008715256909082 0)
(1.010264826465697 0.01462624092532004 -3.985644297491865e-20)
(1.033949363228616 -0.007454697473339435 9.049526860756837e-21)
(1.088920805541935 0.01346966570568807 -3.284061306348787e-20)
(1.085560728459609 -0.02821902124908487 0)
(1.071635154743086 0.005585169238682084 0)
(1.109111840320553 0.09481482210563676 -1.427992628413041e-18)
(0.935709868406354 -0.1507302576574396 -7.052453985736709e-20)
(1.167124385612703 0.112262582924095 1.126892432475599e-19)
(-0.4836058882784583 0.003570749049742062 -2.906640738964177e-19)
(1.018262900810873 0.0285552189151339 -8.922160034769221e-20)
(1.004126974816619 0.003662344559917063 0)
(-0.2834921545660673 0.0177492009410843 3.552376804358521e-19)
(-0.04468316413573183 0.2883960062313613 7.961882046650948e-21)
(0.9952214051864207 -0.006251866429772533 9.965392429056201e-20)
(0.1891270532554397 -0.04194744126459024 1.39562642014484e-19)
(1.087911470636187 0.08093690502843755 1.455179335669162e-20)
(0.09417660171796965 -0.1118057026798322 -5.554435012151351e-20)
(1.108231547177296 0.002967053777351328 0)
(1.104958683345473 0.2583968409333712 0)
(1.021516130227083 0.02151774377762254 -1.746296574568532e-20)
(1.070338123684628 0.05070070292727408 0)
(1.027150427377065 0.02518166864317666 -9.292954419914461e-21)
(1.265011657501791 -0.5496947331401565 8.076319367924687e-19)
(-0.1183051353792637 -0.2137886464916483 2.208195815458927e-19)
(1.299453013855703 0.1185022526412383 -6.371223684735689e-19)
(1.121386685501416 -0.00375800822835841 0)
(1.122073036664719 0.09696689012589653 0)
(0.5291239747786675 0.08236680096814056 2.542042529916124e-19)
(1.02383781220601 -0.02054158446897319 9.279582037111497e-20)
(1.006498036942156 -0.02379173009832104 0)
(1.209997958825034 0.2703917752530717 -9.473659013674821e-20)
(1.264637885420709 0.137899829237196 -1.608703315398813e-19)
(1.026658939913947 0.00329697849008211 1.525001543999105e-20)
(1.302504760940696 -0.08470399111175247 -5.032158446074189e-19)
(0.2924841534089887 -0.01417277299170286 2.669152228390318e-19)
(0.8245624221699011 -0.1447220887990689 6.653630491933085e-19)
(1.043020565769677 0.04857105252169897 1.060422156900582e-19)
(1.039255119203741 -0.0008656052614250914 1.895027897555015e-21)
(1.001481843076848 0.01952534589712199 3.008511810527104e-20)