/*--------------------------------*- C++ -*----------------------------------*\
| =========                 |                                                 |
| \\      /  F ield         | OpenFOAM: The Open Source CFD Toolbox           |
|  \\    /   O peration     | Version:  2412                                  |
|   \\  /    A nd           | Website:  www.openfoam.com                      |
|    \\/     M anipulation  |                                                 |
\*---------------------------------------------------------------------------*/
FoamFile
{
    version     2.0;
    format      ascii;
    arch        "LSB;label=32;scalar=64";
    class       volVectorField;
    location    "1.8";
    object      U;
}
// * * * * * * * * * * * * * * * * * * * * * * * * * * * * * * * * * * * * * //

dimensions      [0 1 -1 0 0 0 0];

internalField   nonuniform List<vector> 
808
(
(0.851632 -0.00123166 0)
(1.05712 -0.0200385 0)
(0.989089 0.0230691 0)
(1.05389 0.0439369 -2.65302e-21)
(1.46079 -0.138285 0)
(1.01569 0.0206005 0)
(0.99644 -0.00896658 -1.62471e-20)
(1.01973 -0.0207453 0)
(1.3623 -0.0881224 2.38657e-20)
(1.15544 0.0021549 5.19173e-21)
(1.00607 0.0107073 1.28832e-20)
(1.37549 -0.0834254 0)
(1.01992 -0.00607027 0)
(0.925858 -0.0395017 0)
(1.19523 -0.299602 8.59993e-21)
(1.01632 0.0148394 0)
(1.09721 -0.351004 -2.16687e-21)
(0.984855 0.0273991 -2.21379e-22)
(1.09923 0.0197909 0)
(1.02568 -0.047986 0)
(1.02314 -0.0368756 -1.798e-20)
(0.960076 0.151073 1.00209e-19)
(1.02254 -0.0350782 -1.98323e-20)
(1.10106 -0.00244971 0)
(0.999965 0.163009 0)
(1.20732 -0.194577 -6.89444e-21)
(1.28123 -0.0104999 5.82487e-21)
(1.0124 0.0447371 -5.13073e-21)
(1.01241 0.00928719 0)
(1.08652 -0.0208834 6.60906e-22)
(0.995733 0.0388625 1.15029e-23)
(1.06004 0.0251983 0)
(0.975692 0.037338 0)
(1.01833 -0.00992671 3.84094e-21)
(1.19082 0.0631079 -1.86241e-21)
(0.737037 -0.0963307 1.01467e-19)
(0.936658 -0.0155952 -3.0177e-20)
(1.01512 -0.0214832 2.03333e-21)
(1.02547 -0.0133734 -1.1225e-20)
(0.979575 0.00848896 0)
(1.12217 0.00315798 6.14405e-21)
(1.27881 -0.0248091 0)
(1.05055 -0.0124522 -1.347e-20)
(1.02435 -0.047935 2.39406e-20)
(1.01755 -0.205647 0)
(0.967089 -0.0225567 -2.56582e-20)
(1.01303 -0.0237099 3.62104e-21)
(1.22598 -0.119903 1.19735e-20)
(1.01121 -0.0161632 -2.4432e-20)
(1.38434 0.00608917 -3.4464e-20)
(1.02418 -0.0292132 2.7732e-20)
(1.0856 0.0506222 0)
(1.02972 -0.000301436 1.17847e-20)
(1.02247 -0.0103361 0)
(1.28584 0.155133 5.32355e-21)
(1.04894 0.0448876 -1.00807e-20)
(0.982896 -0.00950385 0)
(1.02452 -0.0358172 6.58632e-21)
(1.15121 0.0344812 -5.57414e-21)
(0.987067 0.0254188 -4.57691e-21)
(0.61983 -0.0117019 0)
(1.21444 -0.0678585 -4.78531e-21)
(0.970143 0.0125505 0)
(1.28002 0.133091 -1.40117e-20)
(0.965393 0.0207036 -2.40595e-20)
(1.13048 -0.00289437 -1.53397e-20)
(1.37751 0.204003 1.53805e-20)
(0.90168 -0.0132964 0)
(1.03596 -0.0181757 0)
(1.51072 -0.218083 0)
(1.04408 0.0269934 -6.67819e-22)
(1.44071 0.0101073 -5.21266e-20)
(1.02497 -0.00847552 0)
(1.0638 0.00425641 -8.48921e-21)
(1.0905 -0.329447 -4.64373e-20)
(1.01895 0.00194171 -3.65602e-20)
(1.05396 0.0544419 -1.74537e-21)
(1.3677 0.452338 2.89697e-20)
(1.0386 -0.00521838 0)
(1.05621 0.269721 -1.58201e-19)
(1.16398 -0.0817803 -3.86404e-22)
(0.87382 -0.00448716 0)
(1.04999 0.0136889 -9.53615e-21)
(0.907837 -0.13398 3.78818e-21)
(1.00658 -0.012469 2.68097e-20)
(1.04392 0.0194198 -1.82925e-21)
(1.46738 -0.122524 0)
(1.36127 0.196014 0)
(1.09739 0.0553157 -3.97673e-20)
(1.25752 -0.212166 3.95009e-21)
(1.01862 0.0287592 2.22998e-20)
(1.29488 -0.00180213 -1.0346e-21)
(0.926454 0.10923 1.56216e-20)
(1.01207 -0.0324876 0)
(1.02881 -0.00643749 3.0647e-21)
(1.25248 0.268752 -2.05545e-20)
(1.05588 -0.0188329 -4.62112e-21)
(1.06446 -0.0925075 0)
(1.27795 0.0266558 0)
(1.29408 0.267301 -3.05052e-20)
(1.01453 -0.0294978 -1.33108e-20)
(1.03207 0.0362387 -4.89359e-22)
(0.975715 0.0464342 1.83787e-20)
(1.06705 0.0333835 2.05188e-21)
(1.07063 0.0825943 8.50432e-21)
(1.07864 0.0735716 1.9729e-20)
(1.06849 -0.14448 0)
(1.00719 0.021929 0)
(1.03359 -0.00245609 2.26085e-20)
(1.18616 -0.105685 -5.68034e-21)
(1.07431 0.0460653 -1.02808e-20)
(1.05683 0.0011207 -1.09125e-19)
(0.999415 0.0379363 -9.18724e-21)
(1.02365 0.0279217 8.14764e-21)
(1.0423 -0.0159606 0)
(0.909212 -0.0284928 6.9317e-20)
(0.993565 -0.0375379 -2.32482e-20)
(1.50635 -0.0772663 -1.88075e-20)
(0.985688 0.0238209 -1.4537e-20)
(0.949892 -0.0140586 8.93272e-22)
(0.721506 0.0843519 0)
(0.875179 -0.0532673 -1.75248e-21)
(0.91829 0.0577157 0)
(1.09364 -0.127662 -1.18288e-22)
(0.981164 0.0358108 0)
(1.3176 0.263645 1.22725e-20)
(1.0847 -0.193539 -3.79813e-20)
(1.00834 0.00969217 2.50751e-21)
(1.0804 -0.00441158 0)
(1.0927 -0.0459023 0)
(1.18976 0.372951 0)
(1.00188 0.0360757 -7.46844e-21)
(1.1113 0.0183817 -4.51319e-21)
(1.10437 0.098731 -3.11953e-20)
(1.0133 -0.0377596 0)
(1.02843 0.0431381 -5.82866e-21)
(1.01529 0.0100299 3.44309e-21)
(1.03866 -0.014735 -3.17413e-22)
(1.02493 0.00774317 1.66828e-20)
(1.09396 0.0272802 4.10188e-22)
(0.202468 0.041962 0)
(1.04228 0.0322595 -2.49803e-20)
(1.00873 -0.0157184 2.53552e-21)
(0.862293 -0.0336304 -1.24929e-20)
(1.23504 0.061815 -1.62774e-21)
(1.01358 0.0102349 4.5783e-21)
(1.01198 -0.00483324 2.60476e-20)
(1.03339 0.0141991 0)
(1.00152 -0.0726816 1.7442e-20)
(1.02793 -0.00378899 0)
(1.00638 0.0361841 2.79047e-20)
(1.03093 0.27719 1.2633e-19)
(0.969919 -0.0190246 0)
(0.84498 0.0972038 0)
(-0.158468 -0.0734183 -8.99476e-20)
(1.27591 -0.0257156 -9.30787e-21)
(0.898302 0.000488865 0)
(1.14385 -0.185642 0)
(0.983349 -0.00192775 0)
(1.23526 -0.0441367 5.52914e-21)
(-0.124429 -0.272472 0)
(-0.0122947 0.158706 5.1296e-20)
(1.41701 0.258098 9.05551e-20)
(1.06777 0.031923 4.72259e-21)
(0.890658 0.0584126 0)
(1.06184 -0.0185725 2.13332e-20)
(0.968974 -0.055033 0)
(1.17844 0.291393 -9.77178e-20)
(1.04413 0.0250311 3.94445e-20)
(1.02144 -0.0344103 6.79787e-21)
(1.05673 0.0333801 1.62011e-20)
(1.07892 0.128515 -1.29725e-20)
(1.00153 0.0143365 -4.55727e-21)
(1.08431 -0.322558 3.58976e-22)
(1.00231 -0.0102538 0)
(1.12404 0.0132163 -1.21921e-20)
(0.876742 0.0274568 -1.80547e-20)
(1.35706 0.00457269 1.5707e-21)
(0.866584 0.0135791 0)
(1.32335 -0.0418861 0)
(1.001 -0.00351946 7.44939e-21)
(1.39196 0.0877032 8.78298e-21)
(1.04754 -0.0108892 1.67737e-20)
(1.0836 0.0187189 1.72113e-20)
(1.10266 -0.376862 -3.32666e-21)
(0.868479 0.00441099 2.65276e-20)
(1.08008 0.0174723 1.92042e-20)
(1.19275 0.158507 -4.59749e-22)
(1.03099 0.005123 -1.13308e-20)
(1.17482 0.0785066 3.93959e-22)
(-0.0130537 -0.212207 6.42224e-20)
(1.10738 0.0405068 0)
(0.893405 0.0266394 0)
(1.05749 -0.0365976 -9.64317e-21)
(1.1082 -0.0982515 2.72338e-20)
(0.590827 -0.157143 0)
(0.995176 -0.0298269 1.10266e-21)
(1.01602 -0.029021 -5.29363e-21)
(1.00341 0.0183446 5.48414e-23)
(1.08413 0.0544543 -7.14881e-21)
(1.05426 0.00492403 5.39666e-21)
(1.0231 -0.014394 4.66954e-21)
(1.05966 -0.0214377 0)
(0.728198 0.041266 0)
(1.00049 -0.065723 0)
(1.34105 -0.0561252 -3.95777e-20)
(-0.150343 -0.214159 5.80047e-20)
(0.976017 -0.0105835 -2.81465e-23)
(1.04771 0.0161956 0)
(0.878973 0.0117998 -3.0221e-20)
(1.05581 -0.00848723 -1.10399e-21)
(0.0364325 -0.0443298 -2.08973e-19)
(1.14382 0.402067 -1.55412e-20)
(0.894886 0.0181752 0)
(1.05542 0.0243742 0)
(1.02075 0.0164961 1.60774e-20)
(1.33554 0.0330625 7.95337e-21)
(1.32583 0.353826 7.80616e-21)
(1.01504 -0.0045105 -1.66526e-23)
(1.00091 0.0128815 -4.75458e-21)
(1.03665 0.0124161 0)
(1.4207 0.366993 -5.87963e-20)
(0.898108 0.0323283 0)
(1.01741 -0.00793096 -6.43298e-21)
(1.01414 -0.0168101 4.97348e-22)
(0.868296 -0.0337027 0)
(1.07365 -0.0411715 0)
(0.66188 0.407237 4.37218e-21)
(1.01914 0.01618 -9.76673e-21)
(1.02675 -0.0442274 6.79728e-21)
(0.992138 -0.00591842 0)
(0.865791 0.0278325 0)
(1.00754 -0.0160311 -7.72877e-21)
(0.840634 0.0339199 -9.51929e-22)
(1.10606 -0.105658 -1.37455e-22)
(1.03033 0.00169504 -4.18838e-21)
(1.07208 0.0317532 -4.31888e-21)
(1.02047 0.023705 5.25487e-23)
(1.02039 -0.0042843 1.56907e-23)
(0.834914 -0.0475869 9.41616e-21)
(1.04383 -0.0198961 -1.96428e-22)
(1.01878 0.00261639 0)
(0.983289 -0.0106333 0)
(0.82592 0.0361226 0)
(1.015 0.00166367 0)
(1.00488 -0.00516879 1.91415e-22)
(1.0015 -0.0023261 0)
(1.00304 -0.00109141 0)
(1.0186 -0.0073924 0)
(1.00134 -0.00663178 0)
(-0.0586352 -0.148887 6.16265e-20)
(0.963187 0.0163639 1.26508e-21)
(1.04279 -0.00621504 0)
(1.03305 0.116397 -1.33681e-20)
(1.04245 -0.0453381 3.97654e-22)
(1.06107 0.0259087 1.25473e-20)
(0.981637 0.0105262 7.56405e-21)
(1.01114 0.00440752 0)
(0.868751 0.0269799 1.44168e-20)
(1.0567 0.00245902 1.26167e-20)
(0.981584 0.0107172 0)
(1.0398 0.0255868 7.04684e-22)
(1.01002 0.0110876 5.13987e-21)
(0.990509 0.00527167 -1.36448e-20)
(0.990404 -0.00689885 8.77749e-21)
(1.05253 -0.0174372 -8.07713e-21)
(1.04496 -0.0354596 0)
(1.02258 0.011706 -2.75743e-20)
(1.04409 0.0473188 -3.23641e-21)
(1.02769 -0.0124625 8.71873e-21)
(0.991261 0.00617193 0)
(0.0099998 -0.0364558 0)
(0.936439 0.126083 -1.61879e-20)
(0.993757 -0.0252896 0)
(1.02731 -0.0463455 -3.05845e-20)
(1.00955 0.0491222 1.52869e-21)
(0.952931 0.00987106 7.76369e-21)
(1.066 -0.00782295 -4.54335e-21)
(1.17095 0.264572 2.14703e-20)
(0.959291 -0.338667 4.6855e-20)
(1.01126 0.0212557 -1.6464e-21)
(1.01533 -0.0233845 0)
(0.966588 0.010724 0)
(0.771927 -0.0801404 -4.30971e-20)
(1.01253 -0.0933258 2.37983e-20)
(0.967472 0.00928242 0)
(1.01039 -0.0108897 1.40957e-20)
(0.992547 -0.00895486 0)
(0.974403 -0.0269524 6.98806e-21)
(0.998475 0.0175187 -1.65445e-20)
(0.985454 -0.0372047 -9.9812e-21)
(1.007 -0.00691813 0)
(0.961909 -0.051553 -1.78304e-21)
(1.02683 -0.0209741 4.18384e-21)
(0.995301 -0.000192072 -9.16318e-21)
(1.0133 0.000650694 -6.88167e-21)
(1.01892 0.020139 0)
(1.07297 0.0880004 0)
(1.04472 -0.0153374 8.86273e-21)
(1.04668 0.0159601 -7.05906e-21)
(0.996019 -0.00797867 4.52063e-21)
(1.00925 -0.0232167 -6.24344e-21)
(1.0465 0.00524292 8.49914e-22)
(1.06402 0.00280061 0)
(0.481238 -0.142074 1.80698e-20)
(1.19881 -0.0510989 1.41711e-21)
(1.00662 0.0076522 -1.06494e-20)
(0.973677 -0.0057286 1.44271e-20)
(1.34638 0.0773069 1.60126e-20)
(1.02919 -0.372842 4.75674e-21)
(0.971232 0.0188073 -9.2191e-21)
(1.05689 -0.0302026 -9.7619e-22)
(-0.173386 -0.129411 -1.02245e-20)
(1.02096 -0.0113296 0)
(1.08174 -0.138812 -1.45658e-20)
(0.902977 -0.0299074 3.33515e-20)
(1.00904 -0.00875327 1.00834e-20)
(1.02531 -0.0109044 7.17688e-23)
(0.850728 -0.0305664 1.33162e-21)
(1.42623 -0.277505 -2.03325e-20)
(1.05546 0.0535763 0)
(1.01145 0.00196307 1.41301e-21)
(1.04348 0.0181644 -4.4307e-21)
(1.00176 -0.00111342 0)
(0.983353 -0.0247661 -1.27194e-20)
(1.03235 0.0321894 7.41138e-21)
(1.01404 0.00426206 1.9879e-20)
(1.01268 -0.0113166 -3.55131e-20)
(1.04713 0.0355376 7.02519e-21)
(-0.16595 -0.0013645 0)
(0.975605 0.0151075 -2.77938e-20)
(0.955292 -0.0162732 0)
(1.00222 0.0255605 -1.62867e-20)
(0.997696 0.0162837 0)
(1.01908 -0.0300111 2.12538e-20)
(1.04802 -0.0079573 0)
(1.0347 -0.0262502 0)
(1.30726 0.103901 7.62098e-21)
(0.791085 -0.0342128 0)
(1.0174 0.00973909 2.47998e-20)
(1.00764 0.00914 4.00804e-22)
(1.04547 -0.0174244 5.32484e-21)
(0.997971 -0.0821209 1.62576e-20)
(1.2234 0.0356282 -3.63737e-21)
(1.02471 -0.00672874 1.59754e-20)
(0.951626 -0.0607749 0)
(1.00154 -0.0533958 0)
(1.04213 0.0327192 3.6246e-21)
(1.06149 -0.0292651 0)
(1.55206 -0.0127183 -2.83199e-20)
(1.01186 -0.00352247 1.31353e-21)
(1.02261 0.0128417 2.72682e-20)
(1.04192 0.0662606 4.57365e-22)
(-0.0551552 0.0601367 0)
(-0.0794954 -0.236065 0)
(0.626405 0.412713 -2.02847e-20)
(-0.107269 -0.0726541 0)
(1.00495 0.0180246 -1.27619e-20)
(1.04583 0.0499687 -4.1669e-21)
(1.00793 -0.0290194 -1.46064e-20)
(0.975838 -0.0278674 9.262e-22)
(1.05857 -0.0410797 0)
(1.0554 -0.037145 -5.96472e-21)
(0.997501 0.00882401 0)
(1.06365 0.00532923 -3.36592e-21)
(0.629057 -0.0998871 0)
(1.0022 0.000543742 -4.90798e-22)
(1.02038 0.0125966 0)
(1.01885 0.0277701 0)
(0.915707 0.181048 -1.90023e-20)
(1.00336 0.010755 -2.35241e-21)
(1.00273 -0.0348995 2.00237e-21)
(0.969909 0.0800286 -8.04572e-21)
(0.79858 0.213849 0)
(1.00966 -0.00489939 -2.93237e-20)
(1.0235 0.0501111 1.69903e-20)
(1.0374 -0.0176878 2.37615e-21)
(1.01127 -0.0255627 9.79075e-21)
(-0.230829 -0.0841456 -1.14213e-19)
(1.0376 8.1054e-05 0)
(-0.0519175 0.0976175 0)
(1.00981 0.030348 2.38687e-20)
(0.988011 0.00632955 -1.05355e-20)
(0.951846 0.0277705 -1.87452e-20)
(0.99738 -0.00730394 0)
(0.990487 -0.0101282 1.13511e-20)
(0.973974 -0.0642846 -1.66455e-20)
(0.941437 0.063108 -1.31808e-20)
(1.03657 -0.0158508 -1.48796e-20)
(1.02712 0.00499758 -1.30774e-21)
(0.935466 -0.031787 -2.85923e-21)
(1.00685 -0.00193124 -2.70473e-20)
(1.02957 -0.0048279 0)
(0.997135 0.037685 0)
(1.05341 -0.0150347 -1.0489e-20)
(1.02935 0.0120599 -1.53581e-20)
(0.937327 -0.0363168 4.08185e-20)
(1.17433 0.0503618 -1.89491e-20)
(1.02416 0.0592715 2.51368e-20)
(0.839607 0.0613111 1.3593e-20)
(0.910417 0.26222 3.4769e-20)
(0.903451 -0.0793611 -2.14033e-20)
(1.15709 0.100095 -6.94635e-21)
(1.22135 -0.480201 1.10482e-20)
(1.02061 0.0889811 8.19191e-21)
(1.02687 -0.0534196 1.24308e-20)
(0.902137 -0.197058 8.45476e-20)
(0.811681 0.064884 0)
(1.00002 -0.0254529 2.52184e-22)
(0.921099 0.015115 2.20087e-20)
(0.99481 0.00663834 -2.06524e-20)
(1.00122 0.0255934 9.40737e-21)
(1.00454 -0.0161548 0)
(0.976382 -0.0293525 0)
(1.11895 -0.0246154 0)
(1.02374 0.0234412 1.07329e-20)
(1.08285 0.0599999 1.95391e-20)
(1.06086 -0.0274766 2.00872e-20)
(0.878988 0.0212801 0)
(0.958401 0.0140397 0)
(0.966783 -0.0136748 -1.74641e-21)
(0.873348 -0.0124898 0)
(1.00894 -0.0196725 0)
(1.0869 -0.104606 2.96382e-20)
(0.983793 0.0139518 0)
(1.00025 0.0369328 0)
(1.0384 0.0143642 0)
(1.19122 0.135975 -1.29847e-21)
(1.04175 0.0566035 -1.48459e-20)
(1.01464 0.0126128 1.88526e-20)
(1.38962 -0.345981 -1.44481e-19)
(0.954204 -0.0238034 -1.88157e-20)
(0.991854 0.00589298 9.3367e-21)
(1.03536 -0.0588881 0)
(0.86986 0.00402139 0)
(0.37808 0.207484 0)
(1.07389 -0.0215351 2.55775e-20)
(1.32984 -0.173496 -3.56049e-20)
(0.982285 0.0486808 0)
(1.00297 -0.0172619 -1.92392e-20)
(0.861422 -0.106103 0)
(1.40723 0.0719718 6.68725e-20)
(0.436932 0.543479 1.07557e-19)
(0.65318 0.0290863 0)
(1.21788 -0.231059 1.55099e-19)
(0.890016 0.118424 0)
(0.934066 -0.0109903 4.14134e-22)
(1.00985 0.0563295 0)
(0.601474 0.308535 1.00686e-20)
(0.993465 -0.042479 0)
(0.980724 -0.0481098 1.49881e-20)
(-0.335551 -0.0821279 -8.53303e-21)
(1.02565 -0.0256499 1.04324e-20)
(0.983108 0.00706199 -1.12929e-20)
(0.595466 -0.572018 -8.1373e-20)
(1.031 0.0141889 -7.41328e-22)
(1.15204 0.0214272 5.82882e-21)
(1.14452 0.17804 -1.64071e-20)
(1.01312 -0.0345978 1.52328e-20)
(1.03769 -0.0215851 6.10567e-21)
(0.737811 -0.127389 2.51555e-20)
(0.455777 -0.155752 -8.69322e-21)
(0.996155 0.0210061 5.19418e-21)
(1.06109 -0.0527537 0)
(0.994811 -0.00795498 -7.42718e-21)
(1.44879 -0.356556 1.10134e-19)
(1.30576 0.131055 -7.88716e-20)
(1.40641 -0.12066 5.262e-20)
(1.04119 0.00414435 1.39526e-20)
(1.00679 -0.0128398 2.23216e-20)
(1.10064 0.00418683 0)
(1.10121 0.0148833 0)
(1.03401 -0.0449293 -1.36749e-20)
(1.07247 -0.00812265 -1.25753e-21)
(0.965721 -0.058483 -1.60357e-20)
(0.999594 0.000205263 -1.70526e-20)
(1.16393 0.143974 6.17983e-22)
(0.835177 -0.0373097 0)
(1.02356 -0.0487327 2.29213e-20)
(0.99184 0.0696503 0)
(1.07811 -0.0044587 -1.38371e-20)
(1.13651 0.000657507 0)
(1.10802 0.00464837 1.18094e-20)
(1.13362 -0.0128945 -7.39372e-21)
(1.0288 0.0285041 0)
(0.12323 -0.0197116 2.14021e-19)
(0.891203 -0.159257 -6.63073e-20)
(1.08409 0.22496 -1.28221e-21)
(-0.363371 -0.00262639 4.78271e-20)
(1.07583 0.0129237 -5.07443e-22)
(0.98422 0.0136505 -4.45881e-21)
(-0.239603 0.0411599 -4.9809e-20)
(-0.0976555 0.166844 -3.41176e-20)
(1.03432 0.024751 0)
(-0.051172 -0.0926757 0)
(1.01861 0.116014 0)
(0.116484 -0.153244 0)
(1.08864 0.00897342 0)
(0.300408 0.048399 0)
(1.02924 0.00727796 0)
(1.00148 0.0662283 0)
(0.988312 0.0302627 -6.88252e-21)
(0.612442 -0.292255 -2.91541e-20)
(-0.188754 -0.153537 0)
(1.41482 0.104334 8.20953e-20)
(1.01251 0.0375921 3.95603e-22)
(0.993457 0.152973 0)
(-0.0513783 -0.0704324 0)
(1.10261 -0.000238405 -1.5144e-20)
(1.06632 0.00135693 6.5333e-21)
(1.20152 0.368947 0)
(0.752886 0.0855059 8.67028e-20)
(1.08882 -0.0651815 2.35771e-21)
(0.330302 -0.0482758 -7.1113e-20)
(-0.0785507 0.0800448 -4.91171e-20)
(-0.00400165 0.0582544 1.2563e-19)
(0.93854 0.0300165 -2.11488e-20)
(0.98579 -0.00124861 4.1959e-21)
(1.04761 -0.0114105 -3.33893e-20)
(1.0016 0.0209291 0)
(1.13167 -0.119486 -1.66318e-20)
(1.04318 0.0580161 1.59561e-20)
(-0.0455097 -0.0470822 1.09998e-19)
(1.0519 -0.056431 -5.3127e-20)
(0.999597 0.00711127 1.35022e-20)
(1.01649 0.00743873 -2.58624e-21)
(0.165464 -0.0263121 4.79238e-20)
(0.367855 -0.0255865 -6.61813e-20)
(0.966666 0.155673 -7.91367e-20)
(0.983876 0.0251385 1.97279e-20)
(-0.0749088 -0.0771648 0)
(1.00063 -0.000220918 7.86665e-21)
(0.993545 0.00269686 2.74301e-20)
(1.02855 -0.00844443 -2.64496e-20)
(1.05489 0.189576 0)
(1.45943 -0.0487079 8.43206e-20)
(1.06086 0.0179634 -3.6808e-21)
(-0.0549714 -0.12574 -3.85734e-20)
(0.970876 -0.242114 0)
(1.03909 -0.0107801 -9.6578e-23)
(1.02746 0.0381533 6.66596e-21)
(0.943662 -0.1493 -1.29881e-20)
(1.04557 -0.0139442 6.07063e-21)
(1.10734 0.0207405 0)
(1.34124 -0.072936 -2.04392e-20)
(-0.0996084 0.0820514 -7.50413e-20)
(1.13945 0.0734103 -4.07232e-21)
(1.11444 0.0684853 -9.95184e-21)
(1.02574 0.0218527 1.9503e-20)
(-0.0732013 -0.173505 2.10256e-20)
(-0.0584896 0.138362 -9.46474e-20)
(1.00769 0.328967 0)
(0.935384 0.0881612 0)
(1.09134 0.0304383 -2.62496e-20)
(1.13533 0.081064 1.4299e-20)
(1.00895 0.0139468 0)
(1.07725 0.387083 1.49631e-20)
(1.1406 -0.0612488 -1.7391e-20)
(1.11174 0.0198613 0)
(0.994207 0.00929951 0)
(0.971228 0.0840989 0)
(0.946149 0.00936386 0)
(1.016 -0.0231007 4.07454e-21)
(-0.0562439 0.076383 5.36682e-20)
(0.972517 -0.0357417 8.22239e-21)
(1.46061 0.0457008 -8.73765e-20)
(1.01552 0.0152942 -7.60823e-21)
(0.569021 -0.276527 0)
(0.996507 -0.0188615 0)
(0.997519 0.0556473 -1.72329e-21)
(0.78112 -0.0106293 -8.86125e-20)
(0.159934 0.0273906 7.00967e-20)
(1.01029 -0.0437377 1.46835e-21)
(0.832098 -0.268252 0)
(0.840904 -0.0674166 0)
(0.967547 -0.0426952 0)
(0.581066 0.553815 3.61852e-20)
(-0.0612615 0.137278 -3.97517e-20)
(0.995227 0.000880981 -2.30747e-21)
(-0.0954891 -0.161973 7.68483e-20)
(1.01737 0.0176794 5.5153e-21)
(1.1583 0.259217 3.12883e-20)
(1.09319 0.0199847 1.24248e-20)
(0.741503 -0.233688 -3.34215e-20)
(1.01332 0.0171974 4.69535e-21)
(0.998144 -0.000925814 0)
(0.647712 0.306002 0)
(1.00057 -0.0109251 7.37142e-21)
(-0.26224 -0.0244099 0)
(0.909101 0.0593539 5.67649e-21)
(0.620205 -0.430262 -4.83323e-21)
(0.353019 0.0508869 -1.54305e-19)
(1.10132 -0.149606 2.77462e-20)
(1.08965 0.355749 9.0785e-21)
(0.926551 0.0178582 0)
(0.976624 0.0305391 4.51852e-22)
(0.986468 -0.0269884 0)
(0.992212 0.0275647 2.16449e-21)
(0.715667 0.0180208 0)
(0.74035 0.115497 0)
(1.02424 -0.0498771 -1.75313e-20)
(1.44161 -0.0185057 -7.97632e-21)
(1.02598 0.0198185 5.45737e-21)
(0.535412 -0.516643 0)
(1.10684 -0.0176578 2.50803e-21)
(0.843337 0.36692 6.64952e-20)
(-0.00260129 0.030577 1.78473e-21)
(1.08102 -0.0475073 -9.07838e-21)
(1.13452 -0.031837 7.12377e-21)
(0.998384 -0.0210176 1.53822e-21)
(0.968063 -0.00724654 -9.42851e-21)
(0.140212 0.0202753 5.78122e-20)
(-0.0988753 0.0057079 -6.1307e-20)
(0.00619059 0.193741 0)
(0.151106 -0.194547 0)
(1.21688 -0.612402 4.30885e-20)
(1.01821 -0.0359139 -5.95759e-21)
(0.939319 -0.465703 -6.15493e-20)
(1.00406 0.00715434 -1.7788e-20)
(1.46598 0.0652469 4.21565e-20)
(0.665856 0.464247 0)
(0.255621 0.418429 -1.16312e-19)
(0.629334 0.452342 0)
(0.487303 -0.324076 0)
(1.09633 -0.473088 0)
(-0.169531 0.176254 -2.4962e-21)
(1.1081 0.0232214 0)
(0.976855 0.0395571 1.74974e-20)
(0.634796 0.711662 2.17595e-20)
(0.999667 0.0283005 -1.67361e-20)
(-0.0325624 -0.241619 -1.54966e-19)
(0.966521 0.0237737 2.70672e-20)
(0.567162 0.163862 -1.83131e-20)
(1.16315 -0.0535691 0)
(1.43735 0.292012 5.24968e-20)
(1.27172 0.551025 1.83946e-20)
(0.381051 -0.0608021 -3.36732e-20)
(1.3437 -0.145831 4.3782e-20)
(1.03416 -0.0282968 1.09799e-21)
(1.02027 0.0113068 -6.26054e-22)
(0.0545608 -0.0566831 0)
(0.670374 -0.710412 -2.37483e-20)
(0.647436 0.174314 0)
(0.562828 0.164662 0)
(-0.0775209 0.181752 0)
(0.113531 -0.046391 -6.02844e-20)
(1.1269 -0.0371585 1.0311e-20)
(0.0493153 0.152299 0)
(-0.084915 0.228683 0)
(1.32489 -0.125088 -4.44283e-20)
(-0.0294792 -0.200532 6.91004e-20)
(0.118311 0.216745 -1.03076e-19)
(0.663321 -0.0103481 0)
(0.180857 -0.326527 7.48149e-20)
(1.25279 -0.191668 0)
(0.954646 -0.274975 0)
(0.179897 -0.0957611 1.48616e-19)
(1.07739 0.0107264 -5.27928e-22)
(1.16465 0.320869 2.34868e-20)
(0.401833 0.0213358 6.60371e-20)
(0.419097 -0.556369 -2.08328e-20)
(1.44859 -0.176381 0)
(1.4705 0.0480376 3.07377e-20)
(1.37994 0.126672 -3.76887e-20)
(0.104247 0.0468705 -2.3315e-20)
(-0.247387 0.0749899 0)
(1.00083 -0.0790886 -2.18698e-20)
(1.0174 -0.211992 -1.39331e-20)
(0.598293 -0.444096 0)
(1.08558 -0.201301 -2.04327e-20)
(0.389404 -0.30971 0)
(0.982284 -0.0960739 0)
(1.07418 0.139873 -1.14166e-20)
(0.940493 0.014645 7.08933e-22)
(1.12301 0.741987 -8.808e-21)
(0.237906 -0.420247 1.0991e-19)
(0.988005 -0.0364369 4.39957e-23)
(1.14809 -0.00208784 -4.073e-21)
(-0.106506 0.251049 4.48507e-20)
(0.849418 0.77442 2.16318e-20)
(1.36017 -0.252877 -1.79304e-20)
(0.733539 0.244397 -2.61471e-20)
(1.00541 -0.0115469 0)
(0.666979 -0.366744 -9.65777e-22)
(0.92767 -0.648687 4.35919e-21)
(0.988134 0.687111 -3.28519e-20)
(0.836395 0.0307554 -8.94676e-20)
(1.0026 0.017051 -3.049e-20)
(1.15298 -0.085296 7.9351e-21)
(1.00947 0.0255817 1.42276e-20)
(1.06837 0.0690544 9.03336e-21)
(1.0911 -0.0580113 0)
(1.15107 0.0211081 2.199e-20)
(1.00482 0.493867 0)
(0.98798 0.0324743 -1.0185e-20)
(1.1004 -0.01154 5.02395e-21)
(0.897597 0.282631 0)
(0.679562 0.114048 1.47105e-19)
(0.94009 0.718755 -1.41924e-21)
(1.02914 0.257372 -1.80333e-20)
(1.10171 -0.00621675 1.13989e-20)
(0.438371 0.465825 0)
(1.29257 -0.422611 0)
(0.983793 -0.292988 -1.64387e-21)
(1.36175 0.498744 0)
(0.0662855 0.0615151 -6.25603e-20)
(1.2738 -0.354547 -1.93857e-20)
(1.19891 0.479542 0)
(0.480393 0.179704 1.6858e-19)
(1.26818 0.313412 -1.64981e-19)
(0.819126 -0.68868 -1.78625e-20)
(1.03032 0.0141947 9.685e-21)
(1.11118 0.139704 1.18807e-19)
(1.03591 0.0609146 4.75038e-20)
(1.13627 0.716825 -3.28596e-21)
(0.893536 -0.455978 5.29585e-20)
(1.34721 0.030011 3.222e-20)
(1.01205 0.0260475 -4.44619e-21)
(0.0627114 -0.138975 1.3005e-19)
(1.09687 -0.727439 5.22588e-20)
(0.883401 -0.765617 3.17984e-20)
(0.267439 -0.407379 0)
(0.973532 -0.144831 6.54358e-20)
(0.382772 0.263502 -4.39029e-19)
(0.161549 0.233826 2.63397e-21)
(0.693118 -0.0481672 3.53789e-20)
(0.908625 -0.0196346 -1.03468e-19)
(1.11501 0.514008 0)
(0.929399 0.19951 7.07416e-20)
(1.04736 0.093461 6.97221e-21)
(0.933831 0.425083 -8.56987e-20)
(0.804505 -0.758654 -3.65485e-21)
(0.870633 0.0788108 -4.53865e-20)
(0.999248 0.469874 0)
(0.996821 0.0553299 1.36789e-20)
(1.38813 -0.45522 1.84904e-20)
(1.19085 -0.273376 1.39642e-20)
(0.38101 -0.15554 -6.99791e-21)
(0.20048 -0.065598 -1.78048e-20)
(0.947497 -0.0562045 -5.35217e-20)
(0.370262 0.516272 0)
(0.901697 0.0198529 3.61687e-20)
(1.24553 0.651294 1.06515e-19)
(0.154755 0.220782 1.50253e-19)
(-0.136951 0.209387 -3.8995e-20)
(-0.302734 -0.095097 4.89229e-20)
(1.01976 -0.0315005 -9.33146e-21)
(1.19888 -0.443878 0)
(1.06964 -0.760786 -1.87547e-20)
(0.741906 0.32345 0)
(0.441338 0.230425 -1.09671e-19)
(1.03274 -0.0151412 3.94611e-21)
(-0.144533 -0.181205 -3.72334e-20)
(1.14035 0.0572788 -9.24568e-21)
(0.258362 0.0315854 8.18252e-20)
(1.11435 0.0889985 0)
(1.09119 0.145194 -6.04119e-22)
(0.395724 0.0107681 -4.01215e-20)
(0.0727396 -0.0735243 8.31417e-21)
(0.0492649 0.0625951 0)
(0.206401 -0.0174334 0)
(1.11062 0.0803955 7.23033e-22)
(0.572677 0.010654 2.1488e-19)
(1.2813 -0.724453 -5.03197e-20)
(1.00021 -0.218095 -1.29091e-20)
(1.00028 0.189137 -2.8281e-20)
(0.387548 -0.626728 1.24454e-19)
(1.57693 0.123035 -4.31674e-20)
(0.343018 -0.0272378 5.17253e-20)
(0.221492 0.257481 1.97115e-19)
(0.363246 -0.0309703 -1.90495e-19)
(0.907163 -0.511722 -3.72338e-20)
(1.55475 0.317986 4.66308e-20)
(0.590805 -0.728481 3.84985e-20)
(1.09883 0.00634508 -7.0765e-21)
(0.830955 0.382059 5.78714e-20)
(1.38583 0.252799 -7.27009e-20)
(0.700115 0.630504 -4.03662e-20)
(1.37682 -0.595745 0)
(1.55286 0.492071 4.58833e-20)
(1.02707 -0.542169 -1.44359e-20)
(1.48151 0.595733 -1.37092e-19)
(1.06204 0.0615595 0)
(-0.0652272 0.227866 0)
(1.31562 0.732003 0)
(1.00337 -0.0262201 -8.23916e-21)
(0.759345 -0.303561 -1.89152e-19)
(0.481269 -0.110692 0)
(-0.0609972 0.244665 -3.79536e-20)
(0.945504 -0.300617 8.67118e-20)
(0.42093 0.0171337 0)
(0.328511 -0.0202484 1.20259e-20)
(1.06397 0.00824545 0)
(1.57522 0.164667 0)
(1.05506 0.0295149 -1.03694e-20)
(0.3754 -0.343614 0)
(0.989473 0.0622834 3.3364e-20)
(1.44691 0.218583 0)
(-0.13401 0.112361 -3.45793e-21)
(0.801268 -0.406098 0)
(1.55333 0.235693 -6.78769e-20)
(1.28798 0.331288 -6.81312e-21)
(0.874158 0.630419 -9.46428e-21)
(0.800375 0.104767 -7.98503e-20)
(0.973564 -0.208098 -4.24146e-20)
(1.52447 0.19186 3.90392e-20)
(1.24796 -0.257391 0)
(0.56371 -0.0759458 0)
)
;

boundaryField
{
    FrontBack
    {
        type            empty;
    }
    Top
    {
        type            noSlip;
    }
    In
    {
        type            fixedValue;
        value           uniform (1 0 0);
    }
    Bottom
    {
        type            noSlip;
    }
    Out
    {
        type            zeroGradient;
    }
    circle
    {
        type            noSlip;
    }
}


// ************************************************************************* //
