/*--------------------------------*- C++ -*----------------------------------*\
| =========                 |                                                 |
| \\      /  F ield         | OpenFOAM: The Open Source CFD Toolbox           |
|  \\    /   O peration     | Version:  2412                                  |
|   \\  /    A nd           | Website:  www.openfoam.com                      |
|    \\/     M anipulation  |                                                 |
\*---------------------------------------------------------------------------*/
FoamFile
{
    version     2.0;
    format      ascii;
    arch        "LSB;label=32;scalar=64";
    class       volScalarField;
    location    "1928";
    object      yPlus;
}
// * * * * * * * * * * * * * * * * * * * * * * * * * * * * * * * * * * * * * //

dimensions      [0 0 0 0 0 0 0];

internalField   uniform 0;

boundaryField
{
    FrontBack
    {
        type            empty;
    }
    Top
    {
        type            calculated;
        value           nonuniform List<scalar> 
15
(
142.286083053376
133.5684634349003
138.060979287531
144.3908935060844
159.7598402848897
131.3663402023683
140.1210162172038
135.3428388405248
153.4526252919465
135.7245988490712
136.0810092126168
136.7775859419611
125.2577004751534
132.9105656956742
123.9569515369965
)
;
    }
    In
    {
        type            calculated;
        value           uniform 0;
    }
    Bottom
    {
        type            calculated;
        value           nonuniform List<scalar> 
15
(
155.5682179219839
158.1170489579431
141.099973185422
142.057609464036
141.1843348893105
148.4424722517253
142.7110985959399
143.1530337548457
143.4211513157666
134.0664163076824
125.7324156449655
141.561883049947
122.4068071461173
123.4856857565388
124.1367816852989
)
;
    }
    Out
    {
        type            calculated;
        value           uniform 0;
    }
    circle
    {
        type            calculated;
        value           nonuniform List<scalar> 
32
(
55.98395645868506
21.81005232259942
65.20009715325077
26.26103836180791
20.38364925308217
56.26680426514418
56.5812129914563
23.77740460816182
22.10427377136077
65.440860159843
39.76650182257045
62.8880213375787
50.67852510349677
17.80824756807609
22.57988523582019
18.41046549816983
39.37976770033141
59.85330983757781
61.094930313467
25.78230209566155
65.82169663456992
63.73104636665735
63.12605795969943
59.83404453924376
64.18911079580614
46.05779540019015
66.48800029887393
32.19910783246507
37.86657750354679
55.6543751774331
21.32552988837651
43.05289816645788
)
;
    }
}


// ************************************************************************* //
