/*--------------------------------*- C++ -*----------------------------------*\
| =========                 |                                                 |
| \\      /  F ield         | OpenFOAM: The Open Source CFD Toolbox           |
|  \\    /   O peration     | Version:  2412                                  |
|   \\  /    A nd           | Website:  www.openfoam.com                      |
|    \\/     M anipulation  |                                                 |
\*---------------------------------------------------------------------------*/
FoamFile
{
    version     2.0;
    format      ascii;
    arch        "LSB;label=32;scalar=64";
    class       volScalarField;
    location    "536";
    object      p;
}
// * * * * * * * * * * * * * * * * * * * * * * * * * * * * * * * * * * * * * //

dimensions      [0 2 -2 0 0 0 0];

internalField   nonuniform List<scalar> 
808
(
-0.03380133845475972
0.04392099924842439
-0.01107361814205266
0.03715851015455958
-0.2973117775639572
-0.05568024118958655
-0.0156065830264138
-0.02414526810046417
-0.1956539699429694
-0.08336642032123968
-0.01075630638729547
-0.2525922981971084
-0.03069862659436866
-0.01402681458390748
-0.1214531758452505
-0.01422206652581997
-0.1378178645691669
-0.01374647998254849
-0.01258661183381132
-0.05515280527070539
-0.007756149123295253
0.1169279576207982
-0.06303967915147414
-0.0711203856230888
0.1748145700296189
-0.1004028787814207
-0.1514603487808691
-0.02044947037916313
-0.01755253536711791
-0.02557259858526394
-0.02036485661020884
-0.05793961842611513
-0.02271822539203071
-0.01690627100137702
-0.0990832067334981
0.3446272229743155
-0.03983633134996665
-0.01637335112370789
-0.02258139375581002
-0.02647513297611824
-0.08982494763649551
-0.1258736972929477
-0.05255840904539195
-0.02143765227362468
-0.05429321445247622
-0.04210340153598411
-0.01191383084954764
-0.1833603877394155
-0.02669050062792238
-0.2029346381958226
-0.01720451036397706
-0.06666476205521882
-0.06146092714009575
-0.01448295353101651
-0.1948545768823283
-0.02794228626083172
-0.01060424386183838
-0.01434178724371695
-0.09966603397066234
-0.03930688779913734
-0.1110726902898817
-0.1251046787006785
-0.01442692355885271
-0.1286598424818615
-0.01762300916796155
-0.05233842062649247
-0.1638743673473442
-0.03539733737102821
-0.01530050485403876
-0.4383975140039731
-0.02621956392601494
-0.299384614039776
-0.02140606635648485
-0.02117752590694695
-0.06407415250703907
-0.01808404344218043
-0.04206278177101774
-0.3645214066994962
-0.03650102936160448
0.0394573046650458
-0.09187553283093979
-0.01681401378160951
0.05723270031396716
0.04541099984049626
-0.01741661877423094
-0.05174788123588287
-0.5391944015229253
-0.2278889350834103
-0.05163801289621423
-0.1132115214089461
-0.05605174592328016
-0.1318754391828624
0.03864806541463172
-0.0261547194138029
-0.06255980120144765
-0.120893468325324
-0.03823621266040935
-0.05196554242571241
-0.1155281819064289
-0.1394239972752568
-0.05308902046178803
-0.04683279457092566
-0.05389410193649741
-0.04432885168828622
-0.05705804311921982
-0.07528332968634138
-0.0396947949643507
-0.01066197109969496
-0.0398203613558743
-0.123070309315537
-0.04989773049245732
0.08159268833603917
-0.04196559269295929
-0.007588730438664339
-0.02754252008124045
0.1807245825877492
-0.03832447942788697
-0.2666663629339374
-0.02079871412573196
-0.05304067823664111
-0.0416406277547946
-0.04941687856212029
0.01390220878043255
-0.04812849907278031
-0.03633847409545805
-0.2189487362433887
-0.0405901128367532
-0.004266437653577966
-0.07522287892390567
-0.06954526235556845
-0.151570128479358
-0.02131324948183483
-0.07473397465190618
-0.04374058404054334
-0.0230901741248485
-0.01516348892736094
-0.00598802203906906
-0.007624458020420016
-0.05197584020063003
-0.04922735369101412
-0.2132498328795086
-0.05595581997698219
-0.008202335336244634
-0.02193241066487158
-0.1485913754585673
-0.002105054953633117
-0.07572940764141387
-0.02152323515821769
-0.0001215336278450074
-0.01020716961247212
-0.03294760987604643
0.09355477423176611
-0.03821230749510829
0.2516908095692552
-0.2595794132306182
-0.133510762228262
-0.03802987475907903
-0.09078796972876219
-0.009024323023446549
-0.1144307795330178
-0.1693531506719282
-0.214309603958775
-0.1795943908088453
0.05675264492532547
-0.06368923459619517
-0.02061325826580665
-0.06640768341802045
-0.172691290197948
-0.02309089306840045
-0.01878729182268719
-0.05141732566552046
-0.0203946446228447
-0.007353914407816037
-0.1069906809282915
-0.02359110461297972
-0.04458345713547659
-0.07084538298308392
-0.1603386445261273
-0.03308547848893567
-0.3856920677615713
-0.01791360816261165
-0.2270876003262145
-0.04376806592109611
0.03254981283066508
-0.105830556816576
-0.0163303986551217
-0.04320799507565878
-0.1048828197744758
-0.0179023642486409
-0.09564062023420244
-0.2034025077084913
-0.07145563146458686
-0.02419059911287286
-0.04756930466334833
-0.04224761095626498
-0.2011485176148504
-0.02242738069429171
-0.01934006567053983
-0.01128132162249096
-0.0571069232558513
-0.05012551062806926
-0.02270550731780317
-0.02059028011224084
-0.2349332518824625
0.127008361859159
-0.2064635198305931
-0.1918686116331259
-0.01171265331767205
-0.01131387160097584
-0.06661839026324615
-0.01013866106521078
-0.4943809629783332
-0.1274080903471414
-0.01964613779858696
-0.0009823979997453491
-0.02371416627550221
-0.2784484770619667
-0.278789470031037
-0.007553275039892057
-0.01787169967230982
-0.001982739271568877
-0.3497757626233186
-0.02859809060606128
-0.02940925816686001
-0.01268098863594208
-0.0194462649340915
0.0488324982481079
-0.1250643550453056
-0.01416500927086564
-0.0209264188348758
-0.04519666016158427
-0.0183989032442353
-0.01641305792602049
-0.02351848681185866
-0.06788278831145299
-0.0111179675895285
-0.01891078815113299
-0.008954686288606914
-0.001362496130724906
-0.0293254194952166
-0.002063199320665795
-0.001989176728876004
-0.005773378832719351
-0.02549893299573772
-0.008114618931487304
0.001642002817417749
-0.004115668833234725
0.001242051384041769
0.002317845137208644
-0.008773719746704755
-0.1300060090451687
-0.00293044990667112
-0.0001521102470012561
-0.04734373247791131
-0.02138154960894277
-0.02380570954654938
-0.01406489923326896
-0.006195745478765267
-0.02114523038307067
-0.03981941802561092
-0.01510547679041061
-0.01262970502689685
-0.01164419916432319
0.006187675625168827
-0.009652968321454847
-0.01317603404608182
-0.01137631109180842
-0.01009698211289973
-0.01013042844134652
-0.01102562296729805
-0.01360627877661643
-0.2930505324463582
0.05914110193604729
-0.01518780607521657
-0.01569959882567614
-0.01242396941738421
-0.01241987811739637
-0.008257422957780943
-0.09947106634236068
0.01189780882891293
-0.01438446857075443
-0.01391771147260041
-0.01063097749377019
-0.05131932591822568
-0.008104030298649072
-0.01391440883836652
-0.00974182446553226
-0.002405482305248575
-0.01116832403266521
-0.01073283837637175
-0.02430956258791383
-0.01568146931473509
-0.01243072442795299
-0.01341920255232994
-0.009860268722032403
-0.01313882562395002
-0.01087884724272886
-0.05959235098840016
-0.01333262425358331
-0.01226405032867981
-0.009145269218740525
-0.01538406827515942
-0.01409194716748216
-0.0157027974413917
-1.369230800851437
-0.100314529336551
-0.01182774140372283
0.02386484507653206
-0.1623084850088772
-0.09363821211761791
-0.012053020946394
-0.01425495099376998
-0.2422484279606867
-0.02870313491405574
-0.01825371029258859
-0.01222060974945434
-0.02050365714516166
-0.01085954417716271
-0.0307844981318869
-0.4093068172688368
-0.012009092605498
-0.01407890542900985
-0.004463413507112495
-0.01069786907530743
-0.009401110811453246
-0.01390842168626432
-0.008363119319159944
-0.02731338343503575
-0.01169224281607069
-0.1694068748623194
0.01997674803536731
-0.007404786944694137
0.003766903832663739
0.01186229902993734
-0.04888335342669994
0.02782698962759824
-0.01285668486337153
-0.133524326127233
0.2826375878179586
-0.008166947247320658
-0.01346062783516602
-0.007987555138108936
-0.03337738032804442
-0.1254519751023289
-0.01328341339525224
-0.01198923623266972
-0.01767992277141429
-0.0135235552691137
-0.04165390389148466
-0.2194279349253167
-0.009554789700063532
-0.04343643292782232
-0.03849577715093963
-0.1781615530652237
-0.1525299765104743
-0.1556870729101579
-0.2407048550292586
-0.003237129889594988
-0.02073962076774629
-0.01555980550150032
-0.0139578851331874
-0.03368821045779221
-0.024490084552163
-0.01400574861634765
-0.01494444655569966
-1.07157562970795
-0.002914396511952152
-0.01345439293503026
-0.01802513527869
-0.01908547295768886
0.005676918678834109
-0.01417120496749941
-0.02576995073387513
-0.1582492878660198
-0.01360091968829504
-0.02096775481239837
-0.01462222367781625
0.001369576225550406
-0.1779602068612534
-0.01268247020095109
-0.1565122300986231
-0.01545696813281183
0.006978174037811404
-0.01396832699839361
-0.02419470804666646
-0.01642591506526177
0.007228919173087692
-0.2672233324538575
-0.02666989410022529
-0.01692933786997329
-0.01656124267551024
-0.01088638646152172
-0.02943978885679251
-0.01376416413070832
-0.02116668670298272
-0.02053877314200864
0.008132699378432301
-0.09814523176981733
-0.02124211213984947
0.009597478870940684
-0.05663770708911461
0.1769869730802768
-0.1061156939360517
-0.317572009656387
-0.02933137271107729
-0.02591180287499112
0.1506953596524687
0.09552481585784788
-0.003724410080016574
0.05353200122763389
-0.01522090233549671
-0.01337362322480794
0.002681030370426265
0.008379850243768673
-0.06515125300278651
-0.004378520652690421
-0.05611896346611684
-0.02329381396939831
-0.01567695464990682
-0.03650440317799274
-0.03293598753003411
-0.006694266470340988
-0.01453376416529856
-0.03713418675495196
0.03094527900248048
-0.03864069765744701
-0.01379964284305189
-0.1193771411006831
-0.03089965473174674
-0.03991046823587864
-0.6701861726466027
0.01339308293186339
-0.01076869995104038
-0.005569737331979536
0.1861404263222954
-0.1003129894171328
-0.03594760950019967
-0.2427861472213136
-0.01523727405242443
-0.01609168852617396
0.07524750671272674
-0.1814097701168928
-0.2293187508694781
-0.1869566559752639
-0.6778684448120464
0.01154932616823414
-0.01794483402250985
-0.01513428650007637
-0.0958136158671255
0.118489592118197
-0.02200597610055629
-0.243954723473367
-0.03624321281577467
-0.006955961207055372
0.2784596554998132
-0.01081534777284222
-0.09132849440191751
-0.1525614869171333
-0.004755988097493113
-0.04164171993131691
-0.04585212706091676
-0.1960652635802628
-0.008001257361545866
-0.04017890405227783
-0.003716013029303953
-0.5452189594821645
-0.1949408813201825
-0.1784600257684697
-0.02361853644044441
-0.008942048316951624
-0.06196332906306494
-0.05664006156084123
-0.01612432356418738
-0.06949216633162204
0.004310649786053554
-0.01761977820486339
-0.09529174804756098
-0.2761111544521966
-0.009854846173687155
-0.02485051803421721
-0.02133296293281539
-0.07628092178374576
-0.08924986412708627
-0.08967789615844657
-0.01118847332399214
-0.9100858530458403
0.1618200264237514
-0.083017199642379
-0.2520063855953109
-0.04144769219141933
-0.009191443756791061
-0.2471327236829507
-0.194400567956401
-0.03120942274119005
-0.1145418844694576
-0.0176841855090763
0.5625979733227885
-0.0251419368434095
-0.2142763431660229
-0.02513557336174265
-0.003765586186381459
-0.01090673785908603
-1.24765306418762
-0.1821993908563304
-0.2279847634490163
0.005274322406189872
-0.03924600678457184
-0.2355159217057536
-0.06704802405540906
-0.05214921366305839
-0.1455414527931523
-0.1836931466458879
-0.06987963464931859
-1.217031702131104
-0.1595520204271041
-0.5395732150198467
0.07975252949019584
-0.006397653712744296
-0.02106197544947269
-0.0445863887431666
-0.03849156086078668
-0.02770507835058605
-0.1304547622007989
0.08118973185298335
-0.004446142597348533
-0.00983475312741079
-0.5638187703674722
-0.850867822936719
-0.1767939090051897
-0.007534206092137047
-0.1233236226758324
0.0006302121656769874
-0.000667861275728819
-0.002864399052873246
-0.06173473542872228
-0.2341154291573692
-0.01335313412929094
-0.1109372622055571
-0.1560274923962007
-0.01310510695988926
-0.03455556086588617
0.02798716336425089
-0.05878508046414752
-0.07195414915852517
-0.493720051431728
-0.2330550217413389
-0.07998461596987336
-0.07531765712591885
-0.01932521934891393
-0.1109750260696802
-0.165653348993187
-0.08208432307582517
0.02737153131456012
-0.08707488293702406
-0.05026260153896821
-0.01494964002862076
-0.1159418659722138
-0.280622676209984
-0.05931946535942299
-0.01803762304380973
0.001918969280447946
-0.01023380413096951
-0.01056352754982186
-0.2359444867542391
-0.0139866533017101
-0.2175747535229032
-0.01081412177340427
-0.07050989325929249
-0.003968581026042107
-0.02325098839312462
-0.39115382366766
-0.926055100487335
-0.01123404381310744
-1.042305182089026
-0.6026556844894151
-0.01065081952324085
-0.6583692765383741
-0.1858132580207773
-0.004872635494732762
-0.1240494754088559
-0.01717130777033217
-0.125055395893297
-0.06521380672062835
-0.0772824142768657
-0.005605070728471826
-0.00365520091181424
-1.342933851833444
-0.01133181623141278
-0.1892403785191097
0.001001417388740019
-1.008633927197141
-1.245959686259155
-0.07880557023943731
0.01699472507921402
0.1645280294272045
-0.004947225010797356
-0.02294883576035229
-0.00436971929992293
-0.2397594585583352
0.3655526877259131
-0.04224071625865688
-0.2139610630765548
-0.01528516550889932
-0.6538408783352438
-0.07258883520308693
0.1893485318760467
-0.302255445064295
-0.05089316456159242
-0.07034806123146745
-0.01580344632755064
-0.02140224713399505
-0.592000058603297
-0.1531809929697337
-0.09503126867221488
-0.1188787148181479
-0.5517727148503386
-0.04544167226451087
-0.9038938787068632
-0.0008406230143835116
-0.243574754450893
-1.052125083794845
0.16746645740547
0.2905281880532898
-0.1706650748095427
-0.1899436197945943
-0.2123509854316283
-0.06642772339945605
0.02564324689400198
0.04739537278735317
0.005158549912310891
-0.1530843695793895
0.02597303004788845
-1.364442540104307
-0.08716394323253261
-0.4785545768946877
-0.3337727206156411
-0.2185750339442176
-0.1799947908955522
-0.01697985783878926
-0.01535896706890059
-0.0934452234109758
0.1725993111569052
0.3847522909174311
-0.2126252921945914
-0.155691408472833
-0.2270993171932432
-0.06366437059238179
-0.1627861483639577
-0.1721032000174071
-0.1276185732202675
-0.1101877896824686
0.4655610729068077
-0.2819606705844648
0.431559163998216
-0.5905312767115616
0.07259257550504886
-0.1903084545978916
-0.06787419400003711
-0.0771831497562165
-0.8917867882558573
-0.2193402929883227
-0.1923300863565861
-0.3542803824287295
-0.4655661930826436
0.5697968006335314
-0.2113139210049816
0.002288474250405337
-0.06801954555074653
0.3444236095962313
-0.03529366084574807
-0.1189987021885859
-0.1814551446662371
-0.06474174702310119
-0.01633430754403111
-0.1977222621438826
0.1945727498987334
-0.0125734283119886
-0.09864995425238188
-0.1753491142491206
-0.3168779600313916
-0.3087414330823279
-0.08234496083447115
-0.009680585305800375
-0.0777390929761223
-0.6521245442786993
-0.6725058129132339
-0.326107896432699
-0.05921671260645038
-0.0498552887833421
-0.02445134600225439
-0.07001275644336521
-0.05535874166132292
-0.3675794903303946
-0.9614553509589194
-0.008657107218036243
-0.08524740644948034
-1.144072951538815
-1.041234140962517
-0.1074019448991572
-0.04127968625767289
-0.06813709641514699
0.3894867176622549
-0.3403298745268133
-0.05173562443059574
-0.604285642952612
-0.1369479023555948
-0.2490950286996817
-0.2133482208197142
0.4735579608370374
-0.6356747351132671
0.07518168187738219
-0.02849250009068457
-0.5684871525321503
-0.05414919580404405
-0.3644971751632247
0.1087307091069482
-0.1934324021327813
-0.06146314945793328
-0.1257530809080446
-0.3591146424978051
-0.08584603774205336
0.5146115851731595
0.0867157535559293
0.4701164373216596
-0.1251528922157529
-0.2061349206159042
-0.5105549342757902
-0.1335640656659322
0.02456029445537255
-0.05549798535516945
0.1005796948349001
-0.3055491256594275
0.2363359489393426
0.005886253634203826
-0.002666289964650993
-0.5089520654158826
-0.1822071033922794
-0.09957101331859716
0.5810498769303059
0.1394021244593922
0.3448847479734938
0.2251714286368464
-0.5655625066590173
-0.2114137438430868
-0.2193337596507737
-0.2306729295536215
-0.06220258168520719
-0.6888484756819341
-0.1912214925501837
0.3048869097605685
-0.2057210345789243
-0.01115318277305115
-0.1638826771736878
-0.01162406600394833
-0.169723736224014
-0.4458292953468659
-0.07676002851628641
-0.2051419554840812
-0.07706694369369931
-0.1098813126200883
-0.1326255904962254
-0.07283264043644924
-0.4416941145187386
-0.4115620120020918
-0.0245807554353338
-0.07725561336397826
0.3279382374423214
-0.2518359532713171
-0.1727272036672333
0.5247603653955617
-0.1947197311750986
0.0201263639363475
-0.4548066021200536
0.04808485789038808
-0.05988474161705853
-0.1564938959385543
-0.591134183287127
0.1598965043058767
-0.5762196469095328
-0.5401029348784959
-0.1031128827554912
-0.5118688218923135
-0.03616772211665929
-0.1554136509777373
-0.4135158431165609
-0.01611540585795876
0.2874890901871722
0.489624970307442
-0.1667784945785263
-0.006030146019563567
-0.07969974775745917
0.5250565318388887
-0.03221620875227139
-0.4452866857905877
-0.03170771504254106
0.4609870412622256
-0.01713214337625736
-0.5498348936865342
-0.2396984601479122
0.177329909394398
-0.315069263795519
-0.1819855502844431
0.04926284430737709
0.031500036688922
0.05610972796100937
-0.3041917044824511
-0.1586741348253926
0.4127420612602478
)
;

boundaryField
{
    FrontBack
    {
        type            empty;
    }
    Top
    {
        type            zeroGradient;
    }
    In
    {
        type            zeroGradient;
    }
    Bottom
    {
        type            zeroGradient;
    }
    Out
    {
        type            fixedValue;
        value           uniform 0;
    }
    circle
    {
        type            zeroGradient;
    }
}


// ************************************************************************* //
