/*--------------------------------*- C++ -*----------------------------------*\
| =========                 |                                                 |
| \\      /  F ield         | OpenFOAM: The Open Source CFD Toolbox           |
|  \\    /   O peration     | Version:  2412                                  |
|   \\  /    A nd           | Website:  www.openfoam.com                      |
|    \\/     M anipulation  |                                                 |
\*---------------------------------------------------------------------------*/
FoamFile
{
    version     2.0;
    format      ascii;
    arch        "LSB;label=32;scalar=64";
    class       volVectorField;
    location    "1652.5";
    object      U;
}
// * * * * * * * * * * * * * * * * * * * * * * * * * * * * * * * * * * * * * //

dimensions      [0 1 -1 0 0 0 0];

internalField   nonuniform List<vector> 
808
(
(0.7562524141140217 -0.0175088252080143 0)
(1.031222669279611 -0.01251119357714906 0)
(1.116344180092195 -0.001353250114671884 -1.813473336940816e-20)
(1.085123628302053 0.01259401359844295 0)
(1.362932980814052 0.01637724061461409 -3.910883123217805e-19)
(1.038648799205284 -0.009329901633202404 -7.146726089925276e-20)
(1.01353460312686 -0.02043852509123211 -2.318037941432265e-20)
(1.078522382096413 -0.004902207812113472 8.938755977443855e-21)
(1.253120317928063 -0.01921487323664735 6.367045482985578e-20)
(1.084371305301157 0.00970454741372697 0)
(1.013765776650427 -0.01053671038220168 0)
(1.304989850994002 -0.05199173205426281 -3.559211529337821e-19)
(1.085926606036555 -0.001593040814104929 2.029772136221643e-20)
(0.6750386147069615 0.006420626838078129 0)
(1.285937221081687 -0.1178714610296771 0)
(1.081592369550361 0.0001839757476594926 -3.804948120371409e-20)
(1.233940703485875 -0.1501989940296926 -1.003320895376845e-19)
(1.074171270823688 1.33712513077701e-05 3.153730480297489e-20)
(0.9929250925800031 0.006375067413914581 0)
(1.026619315394383 0.009145154204588711 0)
(1.04109724296914 -0.01253374577147023 0)
(0.9874634854674329 0.04460422360117219 0)
(1.051097664479328 -0.0060980847995629 5.522038994245806e-20)
(1.053368777398468 0.008659183926465449 0)
(0.9330032772035222 0.1981744306533422 4.608112828698068e-19)
(1.166420952002393 -0.08898481326579241 0)
(1.184954637956543 -0.01820400358934953 1.588407019920543e-19)
(1.07735025882734 0.009395083150425575 5.194961907939751e-20)
(1.084200787067434 0.002033494639471607 5.049058206310048e-21)
(1.072059818156747 0.03095371739102491 0)
(1.075648624435059 0.002534474739092924 -1.17258645652449e-20)
(1.03313503313086 0.006376878910373064 -1.960937047077032e-19)
(1.05982794318191 0.0148735858669773 -2.401210577839926e-20)
(1.089095493025278 0.005191910821594617 -2.926043022170317e-20)
(1.119413600748387 0.03792999013976305 0)
(0.755145087738856 -0.1223654284495144 -4.537156074520064e-19)
(0.9544046846456787 -0.00579552130993009 0)
(1.069003389456537 0.02248179108667845 0)
(1.068843263959128 0.007331278384030776 0)
(1.073592452588713 0.008889879118799163 -2.834739432650696e-20)
(1.091928869833772 0.02347185115994206 1.114361171971351e-19)
(1.149796047407247 0.003594295249780681 2.184557469306853e-19)
(1.095741290800433 -0.002467713976679299 0)
(1.015947437039598 -0.009078540278362354 0)
(1.131389947057805 -0.0986225404699361 -1.65967414662825e-19)
(1.044085142413874 -0.01170013189556429 -7.930311768414541e-20)
(1.058411691190611 0.02666248988817201 -2.844394621554853e-20)
(1.230554536881923 -0.1113457453612581 -5.634535143434919e-20)
(1.067779872343279 0.01228456593964513 -4.25968010926491e-20)
(1.256057627608215 0.01838779135760464 0)
(0.9965782899354008 -0.01805833432594432 2.064336443850741e-21)
(1.044528679418131 -0.002192528092353262 0)
(1.087466635147442 -0.00232007650251253 0)
(0.9980314213873966 0.006783303872195619 -1.869971223879579e-20)
(1.251777751999599 0.03458896003245308 -2.318493000204996e-19)
(1.063869453175472 0.01840176601085296 6.144953634378085e-20)
(0.9896703586087878 0.008372972923474473 0)
(1.019308720244714 -0.0109647107102972 2.390810604734475e-20)
(1.10677560214553 -0.0005461936200045971 -1.200033933450812e-19)
(1.061681793060727 0.03108848975786788 0)
(-0.06664565180940919 -0.01107146939530743 7.001915283926072e-20)
(1.154427995050499 -0.05135337953084152 -1.918989458083508e-19)
(1.003975649753001 -0.008766089068254945 -2.627880290617646e-20)
(1.182996183765499 0.06772203032431549 -1.227902518281401e-19)
(0.9982714094024902 -0.0102573692718717 2.984652015310502e-20)
(1.083941423726052 -0.005555117833570425 0)
(1.242949791439249 0.0978267282182398 0)
(0.6960191500899288 0.003200537163209093 -7.50271978732068e-20)
(0.9901702590287574 -0.01465751246551405 -3.109189348199462e-20)
(1.459834120081441 -0.01661451561349215 4.503735431769979e-19)
(1.060614626937975 0.007558480714607839 -6.80966592735161e-20)
(1.366782339926496 0.0991785445313056 2.930618792327206e-19)
(1.054730229937017 0.006810152141171893 -1.848670794025881e-22)
(1.081248560780065 -0.01403252402360568 -5.325696599505259e-22)
(1.164350825609126 -0.2355544762472759 0)
(1.022305670389341 -0.014307602547869 0)
(1.017707212961602 0.01751218972105674 -3.142238170839454e-20)
(1.386682855762928 0.3498034818794526 4.154808461732424e-19)
(1.09696244736039 -0.04203318216824777 9.286364907161689e-20)
(1.045719047771136 0.2100014630050282 2.538045332896985e-19)
(1.125455624239122 -0.06264931416796875 1.150786797762695e-19)
(0.9221233608823106 0.005154898977949794 0)
(0.9755221420978589 0.01857412314384931 0)
(1.004105585752776 -0.04890009930346175 2.689220678318447e-21)
(1.010848274922432 -0.01301346842770965 7.391500838516765e-21)
(1.03055264171272 0.02570354611977129 1.403505438057686e-20)
(1.529120922666983 0.03768280583423865 3.283542139326392e-19)
(1.290070714608351 0.07203278472984266 5.473002384492353e-19)
(1.072560911665593 0.002905314854659751 -9.252712309023003e-20)
(1.20024824383414 -0.09598429822962003 0)
(1.033792517345093 0.001595737892217943 1.348078013127551e-19)
(1.163491308299369 0.02223737879902023 -3.23020267848801e-19)
(1.001456579008264 0.0323231965851683 0)
(0.9996285583650242 0.002008285141472047 0)
(1.044366708891827 -0.000254963132189553 7.690428801361602e-20)
(1.208019033604 0.1060113937634134 4.060545062604643e-19)
(1.01107065148911 0.006962595850183474 0)
(1.090210778808947 -0.07176418967818482 -1.054400748070212e-19)
(1.149034533327156 0.03706489641290789 0)
(1.208847288619412 0.09464411185515706 -1.921516793873078e-19)
(1.108028873548045 -0.02852549537851626 -7.611563611989866e-20)
(1.027735188280761 0.0115286671154235 0)
(1.085352155887021 -0.004682770915953411 0)
(1.019741314608014 0.025479523930902 8.15825729034305e-20)
(1.073483972166165 0.05319732671538745 -9.229288027224689e-21)
(1.103731946477275 -0.004316469034495153 6.21200755783655e-20)
(1.108564117993652 -0.09754608339506618 1.544379247875734e-19)
(0.9594901144150888 -0.001242405179454639 0)
(1.066516613730921 0.03130694225105423 3.866358371891665e-20)
(1.168412739140947 -0.07577714550894109 2.345147661113489e-19)
(1.052940203903684 0.04454450625233938 -2.921506623947851e-20)
(1.02260013618546 0.06739986014054593 3.749717722127806e-20)
(1.090687555440716 0.02619319371187049 0)
(1.012219020953044 0.01731371304064496 0)
(1.028982030730948 0.009444217534539018 7.923118451102936e-20)
(0.9487254612289439 -0.03328407024734386 0)
(1.053205613055841 -0.005700256220607835 -7.922529119639823e-21)
(1.340944985624949 0.06062548325325882 -1.596193002466218e-19)
(1.079979696664757 -0.01331244572292434 2.57082663533386e-20)
(0.7441079671002999 -0.001782780648414069 0)
(0.5327942363186663 0.1549620371195167 -8.174860763319537e-20)
(0.705910370310198 -0.002539447311964938 0)
(0.6991000725617658 0.0146663671315808 0)
(1.077741563419891 0.003514845375950236 -6.802662325219593e-22)
(0.9906325441861664 0.014487072967274 0)
(1.279311234659373 0.1232861177878289 2.475172173628345e-19)
(1.012326147372182 -0.02789127282160182 -7.906300106408866e-21)
(1.040483861135382 0.02202626971051178 1.485220379676201e-21)
(1.058445491850452 -0.01193908642800766 0)
(1.126472992832743 -0.009226044747589191 -4.95145329034796e-20)
(1.255716143895204 0.135622558601816 -2.192336132723037e-19)
(1.089011877091956 -0.01118865889867081 -8.474891927922835e-20)
(1.069929597477421 0.02553925015827537 -1.104679208608962e-19)
(1.040813238509325 0.04671655898573981 6.856410487738034e-20)
(1.022332485889992 -0.003644366384074841 -3.440735810937083e-20)
(1.061329431274354 0.02353866158659689 6.102331018408389e-21)
(1.130896897129706 -0.005971054204001615 1.079485397546021e-20)
(1.041109602518825 -0.01406813068100991 -4.713497175851526e-22)
(1.087779857355282 0.03482600935028019 0)
(1.028471190795774 0.01327164811242836 0)
(0.776463227393533 -0.05917564489177569 -1.841303966065315e-19)
(1.0301729134278 -0.001927607130152885 -6.930816679076014e-20)
(1.135303080344362 -0.002667784799757276 -1.316490565917934e-20)
(0.7035134387754112 0.006566603601358816 7.425974854057156e-20)
(1.17566497704112 0.02025333358496717 -1.908303187187127e-19)
(1.126350084394058 -0.001595423468795747 5.671203586877267e-21)
(1.129005883669872 -0.01006568618475854 3.479766923951033e-20)
(1.000941546425622 -0.002959866160157228 -7.611049002299974e-20)
(1.095300315824334 -0.06740814920456638 0)
(0.9846396400532376 -0.001028380981038346 0)
(1.058009118921985 0.007085799414960114 0)
(1.005562203780657 0.1884935353240999 -2.473592237572821e-19)
(0.779459681077446 0.01240724117795026 0)
(0.8568735835727646 0.1015562031434678 -8.448937096810091e-20)
(0.08507035438022678 0.04215040890560561 -3.071919123300196e-19)
(1.173515266859308 -0.03044198180375714 -2.221909749172638e-20)
(0.6713084263363259 -0.007332542407288489 2.43315875168833e-20)
(1.168634334566358 -0.1056559885474839 6.977804224780042e-20)
(1.125508652298433 -0.005607184931125761 -6.101297512616222e-21)
(1.156045016619246 -0.04921212139172996 2.159162546269341e-20)
(0.09840818527244881 -0.2062510411873243 0)
(0.2653134496520219 0.08738464168445981 0)
(1.252196801171653 0.1123656779711558 1.925889121172233e-19)
(1.021553563711575 0.01983878662693186 0)
(0.7376744565887855 -0.006332315331125894 0)
(1.0752107176312 -0.0119313256869112 2.690512613024746e-20)
(0.9751589757599449 0.002791713709053877 0)
(1.286618809595668 0.1305477594662759 -1.539135055812439e-19)
(1.057472485006761 0.01126744267994681 0)
(0.9932001567070676 -0.008127210465376464 0)
(1.065174960773015 0.008078147441847761 0)
(1.006179905290399 0.02082093608655483 1.769578028490191e-20)
(0.9257750788837618 0.00915154108950253 1.09863322236791e-20)
(1.176603203487777 -0.1992807067519307 0)
(1.005109428358658 -0.005216140599365686 7.759273574047224e-20)
(1.059175842433443 0.006251517294499594 0)
(0.7746252617192454 -0.003329603168699417 0)
(1.215640476994313 0.02890018573401246 1.670437037925703e-20)
(0.7050583445999092 0.001317890822850394 0)
(1.434640045260184 0.09008914922687523 -5.335905442667007e-20)
(0.9938048095839167 -0.00685594049900301 1.687090401620055e-20)
(1.275072794184507 -0.001225346721932887 -2.922079593800581e-19)
(1.05986648738794 0.008750463072779803 1.392296961319092e-19)
(1.000900433409017 -0.01361345363445909 0)
(1.218636231181019 -0.1522661414862553 2.034347667346804e-19)
(0.733186032720469 0.013792769752577 0)
(1.098161164872112 -0.005158128612983275 0)
(1.15141012716275 0.06648383032243295 2.028880829866376e-20)
(1.006946683158366 -0.00728536075044783 -3.019213573604025e-20)
(1.119916021018156 0.0507655267282001 -1.755292503875404e-19)
(0.1279664120271431 -0.08281536201402956 0)
(1.072480231501044 0.03713786820263169 0)
(0.661577771133229 -0.002922394656032003 -6.826570841923326e-22)
(1.012116482559068 -0.01955497015244321 9.706899357915347e-20)
(1.061701427239622 0.0006612406057551871 0)
(1.083861454679027 -0.1279672118092139 3.750156186219062e-19)
(1.002619981311322 -0.006213528637951305 -3.482360205631676e-21)
(1.001926696174902 -0.005038866589878102 1.01497122956543e-21)
(1.093957287536419 -0.00929889109934787 0)
(1.020713458965001 0.02040373158963831 -6.265440191568899e-20)
(1.106714395803134 -0.001657690171719811 6.673952860371675e-22)
(1.073865787016247 -0.01114985455600427 6.540806645934479e-20)
(1.085803696801307 0.02238865082189182 0)
(1.329575156249485 0.1662282922396963 0)
(1.002017659079093 0.000176438213881718 4.416421541243482e-20)
(1.323520918720521 -0.1254903865206507 1.540011582781229e-19)
(0.04755494070455441 -0.1703825927834655 -2.555573607129764e-19)
(1.071341479358496 -0.005579790674202189 0)
(1.11798767429644 0.001767411547801011 1.229590640777117e-20)
(0.7269642200774287 0.01787518029341508 0)
(1.062768262939381 0.002353254741505885 0)
(0.871008835987413 0.1671426122917758 4.789538579448209e-19)
(1.268721986320894 0.1265601090537712 1.847423175102432e-19)
(0.6542418523458582 -0.003111389249257765 -6.282627070433481e-20)
(1.04244946218729 -0.005512124111810581 -5.417703674363376e-21)
(1.054885118793861 -0.0002898208764173166 6.638056323842302e-20)
(1.361034381559252 0.1256908470863716 6.808817099032794e-19)
(1.335508461539822 0.2529388690066155 0)
(1.059315088104024 0.001155768042233656 0)
(0.9965711428172471 -0.007468447266223613 1.523232703538144e-20)
(0.99440665155451 -0.01174756480951242 3.855525126814307e-21)
(1.383428416071503 0.2006120528825287 4.243868691869724e-19)
(0.6816581774140644 0.0006234990225582687 9.828113359883896e-20)
(1.00559706646678 -0.002031203763388518 -5.96103503734132e-20)
(1.098038802676022 0.01301335998523838 2.539127151949681e-20)
(0.6694716803420431 0.005014891712753619 0)
(1.06608663437519 -0.01202035228114073 0)
(0.9924797330646783 0.1360115046803808 -1.189833971078253e-19)
(1.084866091290294 -0.004111932569199516 -2.438049415860413e-20)
(0.9820797731226573 -3.337171214729237e-05 3.279062944645635e-20)
(0.9912102188256594 0.006025574502635573 0)
(0.6383114622089506 -0.001137125112277629 0)
(0.9768901488975074 -0.001228829676669893 0)
(0.6420641210168199 -0.001501443946128099 2.717593123604007e-21)
(1.089504105846007 -0.05752436322422735 1.199536911145611e-19)
(1.112621066709316 -0.0003596542364803948 1.244317644085445e-21)
(0.9580109611671921 -0.0009267137337314985 3.915804791427941e-20)
(1.015617137103434 0.01050402184919068 1.66380358241242e-20)
(1.065029329168781 0.004605594727814123 -2.26606677024908e-21)
(0.6347469089297594 0.008852972921949028 -3.648919370622471e-20)
(1.001716403142021 0.01067383621962397 -8.962542585939204e-22)
(1.035131041359604 0.01147089908746891 5.055613221693909e-21)
(0.9881810520836941 -0.01074267904584324 0)
(0.6100557749652634 -0.0004930026402114821 0)
(1.068656245545211 0.02275249081015613 0)
(1.016439643526746 -0.01547310451005291 1.059402606239986e-20)
(1.022371148617771 -0.004889474457424711 0)
(0.9914844953962291 0.01497942387520265 -9.365873709356073e-21)
(1.012200305595044 0.004396340067221445 0)
(1.127032029531606 -0.005688881437008137 -1.203097549980252e-20)
(0.03800004431418912 -0.1398684375460597 -4.495620425915093e-20)
(1.036616211600601 -0.01604644752855097 -7.506256845337695e-22)
(1.044151848373932 0.006468007060981099 0)
(1.084798331974588 0.06447374812427421 8.404312594213339e-20)
(0.9696929746323784 -0.001752648867389166 3.116646446968396e-20)
(1.020689121193871 0.01709049053229629 -2.369967512729126e-20)
(1.003142722622809 0.001632500453195088 2.491532000869852e-20)
(1.040970284312494 -0.004847351468686106 0)
(0.6409424774323298 -0.003995967095156379 0)
(1.025865995689987 0.02451168965548906 -7.288082831195964e-20)
(1.079365488942664 0.001450257859953692 4.793384475511157e-20)
(1.015767575600932 0.002219019471185938 0)
(0.9802239858681978 -0.003082385967844815 -1.923890763777378e-21)
(0.8755353384662214 0.02488271813752954 -1.308443026007922e-20)
(1.013996328616173 0.002920590736081812 -1.022549650782939e-20)
(1.027505086795757 0.002050835712488849 1.784087495814883e-20)
(0.9798736553217187 0.001879720556087809 0)
(1.002812906609444 0.009342735722730972 3.493241694634863e-20)
(1.106473810797072 -0.003824836345310421 0)
(0.9257373571228451 -0.001266904679150718 -3.371260519451161e-20)
(0.9608166251078862 0.008315901073164239 0)
(0.9157416590706463 0.2115946630226049 5.20831902965313e-20)
(1.010842156349522 0.06696887868689866 0)
(0.9926591592020135 0.003726459110024839 -2.300721226266281e-20)
(1.054100455003146 -0.05371188162784194 -2.821016485549698e-20)
(0.9910644264181093 -0.0007906387582769822 3.426885794411819e-20)
(1.011995690161102 0.002782184092684424 0)
(0.9784468951316203 -0.0007165549806371261 -3.199108852149908e-20)
(1.169285482797468 0.09800734020382484 -3.34225310138528e-19)
(1.069124884005773 -0.264302113352801 0)
(0.9937395632288523 0.002024478146396192 -2.199069402120852e-20)
(0.9819687696509724 0.007814353980512551 5.036403330586883e-21)
(0.9615058566602762 0.00444061430671415 1.039287257082786e-21)
(0.7459633894169986 -0.001084906974274334 0)
(1.116707679520817 -0.08127089345357083 0)
(1.007280109994673 0.003342256365147634 -2.155093494418265e-20)
(0.8982912668586919 0.001240475481358575 -9.972853789417639e-21)
(0.8555129862401639 0.01910925223532658 4.920809109668971e-21)
(1.011897647755397 0.004185514091279837 0)
(0.9489501422131779 0.002961753548287912 1.529472357141176e-20)
(1.005752115858868 -0.0002560083283747051 -2.309122293065173e-20)
(1.020650367792054 0.001310212017141744 -2.57715261675004e-20)
(1.112018436106861 -0.003768887965799108 -4.91946947097154e-21)
(1.117095299633669 -0.0005185463367217127 0)
(1.013854453968063 -0.004968420722333063 0)
(1.022626963026678 0.003247097099147389 0)
(0.9477231491374801 0.00412855185835664 -2.175099655496484e-20)
(1.017875188874254 0.01339434794364488 5.337389859972888e-20)
(1.079160560908886 0.005633735672184126 -2.21142979475184e-20)
(1.038437414804997 0.001963069385945467 0)
(1.105857311882255 -0.006738415437811598 1.824035107219365e-21)
(0.9962098263545244 0.002390360791305817 -2.205057298917736e-20)
(0.9855843969814266 0.006667232225185669 0)
(1.012040070579116 0.002612650199495066 4.667522369897487e-20)
(1.36623876367079 -0.3141526778851157 -1.132268526558653e-18)
(1.122760395930069 -0.04472651202859691 -1.083722534068904e-19)
(0.9695864308854767 0.004483484231772584 4.85313953109268e-20)
(0.7810797525387926 0.01888936160967835 -3.192237423047638e-20)
(1.220369155452785 0.05270188332004698 0)
(1.222171589317519 -0.1366893041437601 -1.465961974543518e-19)
(1.078738596836276 0.006680503456771053 0)
(1.009042667602307 0.001800097799475539 2.222973686825661e-20)
(-0.1611409109455691 -0.0987594233416928 0)
(0.9939690971148392 -0.004655056255783379 0)
(1.012437361509501 -0.02317318426241194 4.534408600272156e-20)
(0.7061269085438026 -0.01943640574117098 0)
(1.096801073575743 -0.01493148669845231 2.166853786047962e-21)
(1.043432473837733 -0.009663915570057646 1.671371745200922e-20)
(0.6331126083424455 0.004163726058803448 0)
(1.448064189254341 -0.1221627474145022 0)
(0.9869096053633013 0.001538007170376 -1.085014262940477e-20)
(1.069741102546655 -0.01494944926216991 0)
(1.038074493631931 0.0004517798622619544 2.162521993582562e-20)
(1.085083431955196 0.003288250788946943 0)
(1.00864484311999 0.004620492521144538 -1.068395985721753e-21)
(1.006054791269637 0.002967546078811529 0)
(1.014494232338447 -0.01480403840625161 6.246303518688464e-22)
(1.003212697216071 -0.02057387296746843 0)
(1.033617395465853 0.005962348556012525 1.762052285808165e-20)
(-0.2009708177851597 0.04127672611912324 2.653085330277156e-19)
(0.8164362775227465 0.03249040430958314 5.34108704726178e-20)
(1.005676645061763 0.002090527709279279 0)
(1.13200532555653 0.02471204819975229 -1.253844994663966e-20)
(1.120209492999567 0.02002733133049207 8.758980203954758e-21)
(1.05412748142135 -0.01313310703506127 -1.277032822070025e-19)
(0.9987852360509322 0.01035260685439327 1.199693607872434e-21)
(1.079096247868854 0.006505173093316247 0)
(1.185130729236994 0.0526935579628564 0)
(0.8353835975183727 -0.07558052702724373 4.592202663482438e-19)
(1.101926688901123 -0.01108821341825871 0)
(1.032469602453611 0.007566374031228854 -7.410825559367866e-21)
(1.04267728463731 0.005208637363772113 6.120878232469924e-21)
(1.052672469370474 -0.06178634441598113 -7.491547914938097e-21)
(1.140174878247958 -0.001271267519911481 1.666555167179164e-19)
(1.08161985396219 -0.00741838698492924 0)
(0.9951097684482515 0.001262503688344505 0)
(0.9962140923906778 -0.02420337122436785 -2.257793423005851e-21)
(0.9911194814646394 0.002556247455562054 0)
(1.029629435824744 -0.03863427940096857 6.35911876234678e-20)
(1.294119875760496 -0.09320887999076977 0)
(1.047499785671958 -0.01516213004071212 -8.539702898133647e-22)
(0.9861538246045904 0.01692263351550604 -8.495745934936008e-20)
(1.034825537896536 0.040845675574025 -2.420914595911102e-21)
(-0.08998842154554856 0.158196733951262 -1.627696738846076e-19)
(-0.06326260094888048 -0.2957067892278393 -1.403245586260257e-19)
(0.8715375307603213 0.1318267114670189 0)
(0.2949787840297392 -0.009246684130396574 -3.179249447705198e-19)
(1.011267464332347 -0.01373081334517207 -1.61241562765473e-20)
(1.063893524319898 0.002622772856393995 -2.117861344353756e-20)
(0.9927497580173115 -0.0185534340161219 2.874983740741265e-20)
(1.021601205017834 -0.02801581645449988 2.494267437687952e-21)
(1.008552958489811 -0.03199116407686717 -6.530888699667003e-20)
(0.9887297363060797 0.004844327488785076 -3.468187125147486e-20)
(0.9931349427915304 0.004422908822796182 0)
(1.025163460347458 -0.00193562659026293 -3.587996575469316e-21)
(1.93710437591357 -0.1551865124167133 1.077746271204262e-18)
(1.049428407395555 -0.01016834758267576 0)
(0.995372762539212 0.007780458342793445 1.548136949347988e-20)
(1.0028076262457 -0.0001261905005308867 4.085244241712141e-20)
(1.169442271201542 0.1323773121730335 0)
(0.9999364479873322 -0.004344129330869747 1.774252688347159e-21)
(0.9491246776325545 -0.003351230283295972 0)
(1.037841893308723 0.04175404276085558 0)
(1.301377347344773 0.1655267494057369 2.296220625547875e-19)
(1.085932407122405 -0.01054041860644175 2.255932955806718e-20)
(1.018700451414863 0.03150612936054172 4.720463176398483e-20)
(1.085781398223213 -0.01091879519870491 -2.177219248102972e-20)
(1.048409725935794 -0.004401966602618572 -1.62736511839764e-21)
(-0.3840958309474558 -0.04223898993558395 0)
(0.9981973127317144 0.01440860650630956 0)
(0.109393250334109 0.05928701021567462 -8.492321052322231e-20)
(1.00661644047139 0.02285375000849135 -4.167451929594397e-20)
(0.9926951161497969 -0.002150318279777476 0)
(1.00061111666345 0.005877497075187827 -5.07490220601739e-21)
(1.081512093578848 -0.04219217439452923 0)
(0.9958229345335211 -0.01716813999235865 -7.686517236555156e-21)
(1.09112596441386 -0.05430142280943616 0)
(1.442834606955223 0.1794111183871625 0)
(1.054172106603448 -0.01192077127273306 0)
(0.9906574492448004 -0.0225198854758855 -3.86329764096576e-20)
(0.986762967657292 -0.04369513276342011 -2.221018386280706e-21)
(1.017866084400828 -0.01676180543053084 -1.689107286685403e-20)
(0.9975460019174621 0.01693360550488042 -5.678938221655792e-20)
(0.9950142373699437 0.010354658275149 -1.508763853626611e-20)
(0.9935693514456435 -0.02716489088934674 0)
(1.003198884138625 0.02534114909064156 1.972882664419402e-20)
(1.046685818183055 -0.04244803063285413 0)
(1.110895260220624 -0.03567283501238089 2.634540852581807e-19)
(0.9955304360863121 0.01736553831510711 4.685442433726817e-20)
(0.6151151756024316 -0.008667374305151273 0)
(1.135847775993443 0.1337456933861061 -5.280672535108483e-21)
(0.8559460130739147 -0.1049777578869685 0)
(1.138421922497685 0.0732631854131551 -2.681209217376316e-19)
(1.31584564507088 -0.3882749957618898 1.299398919436387e-19)
(1.07475744969864 0.06086950412139276 -1.324759216727535e-20)
(1.009421171091415 -0.03094237320868025 0)
(0.9557105757496773 -0.2154743230697513 0)
(0.4999960173439965 0.1411721882767956 0)
(1.0130490804737 0.00985356208760216 1.227989761101756e-21)
(0.6924336329696409 -0.02595265883702366 0)
(0.9987015754518167 0.01832376904312867 3.587627766189343e-20)
(1.02177529029876 -0.003963004641396941 -2.783262635553335e-20)
(1.079131923732357 -0.008089559186541277 2.810559298871434e-21)
(1.038603385342932 -0.007724987959023048 3.388906294964811e-20)
(1.042479141995961 0.01113566740970803 0)
(1.061158083171905 0.02993223947539032 -1.002986031052009e-20)
(1.05047701076883 0.03443520547531567 -1.83308272814199e-20)
(0.9825364403571759 -0.02211531307773042 0)
(0.6249443572579737 0.005125900317858123 9.182822611528214e-20)
(0.8941656930924706 -0.005870312039385863 -8.857923239736936e-20)
(0.9093712922047781 0.005337736798911191 1.442290621718609e-20)
(0.6295547014772914 -0.006381528352267347 1.404773289354818e-20)
(0.9782583654986358 0.0009771601856017028 2.633499053728002e-20)
(1.004461545708633 -0.01754358637786822 -3.599099746291448e-20)
(0.9684450808200532 -0.02011131600209055 -3.642299545741217e-20)
(1.085489326779458 0.00151586852238127 0)
(1.019621251561919 0.004325219671289265 1.051069715926411e-20)
(1.132756146483319 0.04888040827133313 1.297523783943541e-19)
(1.033943899429249 0.04078409613546502 0)
(1.022188125001843 0.002566213178491608 0)
(1.584401788890844 -0.1665832989190417 4.420387039465856e-19)
(1.043195336926525 -0.0372913125046019 0)
(1.018328212217945 0.006446863049712103 -3.787408833983354e-20)
(1.08846703460607 -0.002808149761496632 0)
(0.4793439177927996 -0.03559461136304891 0)
(-0.02940371166826905 0.01846954675482963 0)
(0.9901730002461516 -0.02426398495766668 1.211996903166641e-20)
(1.301057432982923 -0.09496498171975203 3.767491379380776e-19)
(1.035894690587504 0.03778311015809865 0)
(1.022348220313705 0.003302991388691484 -2.258978334468598e-20)
(0.9622132337872233 -0.1640769118033154 3.263254472115118e-21)
(1.25285647526814 0.07827868352446454 0)
(0.5977857574067924 0.7304472256864666 0)
(1.311836733851184 0.1522674304757246 1.122798907697581e-19)
(1.678001964912319 -0.02433318362412358 0)
(1.058395337687971 0.1078536355443216 0)
(0.7137310146366971 -0.017211900877734 2.606638079638026e-21)
(1.053011228346482 0.04601819929188726 0)
(0.7233938604671466 0.1079598597125982 1.160049891686339e-19)
(0.9967747251312895 -0.01650758741021195 3.56942720439516e-19)
(1.033470266738468 -0.04150165705139911 2.729199111361147e-20)
(-0.377824867689049 -0.003864541004656556 0)
(1.071694140394904 -0.01640304213435907 0)
(1.095378572892314 -0.009413083877291393 0)
(0.64840109153433 -0.5030011456039465 -2.475478322126211e-19)
(0.9916557321957437 -0.001398780792824331 0)
(1.091964298257458 -0.02148284439713978 3.888491134795779e-22)
(1.187892741002831 0.1215282041823494 -1.985928448857689e-19)
(1.088779966413251 -0.04260268942274453 0)
(1.005349604545798 -0.02140022949629732 0)
(0.8120897525856527 -0.1834500864910561 -1.718174046329935e-19)
(0.8946823594774298 -0.1298891991846075 1.563199888192121e-19)
(1.027346626482929 0.01199740589222504 -2.266018906768966e-20)
(1.02311141770586 -0.009131293713798425 -4.618088671477504e-20)
(0.8747000085612447 0.01151666356558854 -2.182202357742005e-22)
(1.505658415391848 -0.1929376706910959 0)
(1.302237601395512 0.1212830097907856 3.175551865402274e-20)
(1.24568644515979 -0.07524571978234258 -3.023874340228618e-21)
(1.095800490380899 -0.01849927006857588 -3.826133522296331e-20)
(1.04197004998986 -0.01189924449335002 2.415399729904747e-20)
(1.092825376450532 -0.039120131117812 9.055760822126004e-20)
(1.032112946289727 0.01969865600328083 0)
(1.044259039726924 -0.0347925900939699 0)
(1.115911355275058 -0.00899437536057612 0)
(1.087553621794471 -0.02849067706162876 0)
(0.9978877462378479 0.01113193891906019 0)
(1.1482923626418 0.07681020018396682 9.502579445263486e-20)
(1.341188591562338 -0.1486665799800747 0)
(1.037518796265851 -0.02139321274184175 -1.828260700336186e-22)
(1.053120375115898 0.05101861798619951 0)
(1.010088080381178 0.01472141548133636 -3.98905627160209e-20)
(1.033835910785136 -0.007896045093330153 9.046702706562873e-21)
(1.088954473588536 0.0133850519874907 -3.273401546679289e-20)
(1.085284324121053 -0.02917449931129642 0)
(1.074827515320737 1.616612059217391e-05 0)
(1.108283370768655 0.09490309574408688 -1.42856633866219e-18)
(0.9354300382967101 -0.1497074267626438 -7.064005857306073e-20)
(1.169941082641258 0.1058834761848295 1.104014476258715e-19)
(-0.4839170511722526 0.01182130798066191 -2.922404716898423e-19)
(1.019177879867041 0.02861730009886743 -8.902847444197505e-20)
(1.004191590229023 -0.00176954586653596 0)
(-0.2968114220019092 0.03827107110655587 3.558186073775656e-19)
(-0.05233733045109847 0.3102773210905254 7.666257688439474e-21)
(0.995229655801898 -0.006291960183361638 9.864345415426031e-20)
(0.1911976961771173 -0.03942268811692114 1.440526301465066e-19)
(1.094745194726523 0.08098931708894677 1.506640858523189e-20)
(0.0941079736817801 -0.1094907015614941 -5.5046757749586e-20)
(1.107942345315702 0.003042964185336594 0)
(1.103912364634236 0.2591899810642395 0)
(1.021796603815306 0.02182070789588679 -1.743185857876683e-20)
(1.07454773576333 0.05511367772752401 0)
(1.026302824217985 0.02692562171499181 -9.64453851693262e-21)
(1.263281166962896 -0.5487724731935251 8.057158170758874e-19)
(-0.102670292134649 -0.1960545893814747 2.217755728417368e-19)
(1.2964036764829 0.1183503094871405 -6.353109828114072e-19)
(1.122649076288105 -0.002680421060240076 0)
(1.129101416005813 0.09466088828639559 0)
(0.5293103218883495 0.08354683841125438 2.571569319614803e-19)
(1.023463803592733 -0.02099066362681619 9.275514345899682e-20)
(1.005851838439728 -0.02401240814627782 0)
(1.211282269899914 0.2711231476929071 -9.522769451934046e-20)
(1.259000781599903 0.1400885067273244 -1.612524566463358e-19)
(1.026639168569637 0.00296580838453623 1.524965977211163e-20)
(1.301147049463521 -0.08448889543701353 -5.02914806681212e-19)
(0.2929302353103241 -0.01345747630907219 2.591213183096423e-19)
(0.8258151685539601 -0.1449391034217662 6.635731385360293e-19)
(1.053203789424247 0.05745070107509719 1.049602936144895e-19)
(1.040834890625945 -0.006681475234020376 1.707853488374769e-21)
(1.001492210551738 0.02000628579394434 3.00715260493113e-20)
(1.066501088677797 -0.03682580465260113 0)