/*--------------------------------*- C++ -*----------------------------------*\
| =========                 |                                                 |
| \\      /  F ield         | OpenFOAM: The Open Source CFD Toolbox           |
|  \\    /   O peration     | Version:  2412                                  |
|   \\  /    A nd           | Website:  www.openfoam.com                      |
|    \\/     M anipulation  |                                                 |
\*---------------------------------------------------------------------------*/
FoamFile
{
    version     2.0;
    format      ascii;
    arch        "LSB;label=32;scalar=64";
    class       volScalarField;
    location    "1725";
    object      p;
}
// * * * * * * * * * * * * * * * * * * * * * * * * * * * * * * * * * * * * * //

dimensions      [0 2 -2 0 0 0 0];

internalField   nonuniform List<scalar> 
808
(
-0.0352853240053444
0.0450031690295334
-0.01193536526877855
0.03566307381824439
-0.3019505970867706
-0.05462939440959647
-0.0145381459719521
-0.02381419832074418
-0.1987666637147384
-0.08492645423500948
-0.009321282092719499
-0.256215363954191
-0.03053692618639296
-0.01297362701656582
-0.1232166045630648
-0.01397569250277335
-0.1418907291176581
-0.01354511308672253
-0.01269889067966645
-0.05651052123229019
-0.00603312030990817
0.1179371210475372
-0.06128200002662135
-0.07273820720049731
0.175921341165863
-0.09930350515839567
-0.154110687602963
-0.02032231355523826
-0.01741319101446363
-0.02604499799331159
-0.02017000119088899
-0.05935617295058505
-0.02300334010973844
-0.01685705852410068
-0.1003169596961279
0.3444156230747795
-0.03865527801417206
-0.01686923949850975
-0.02321312934713154
-0.02660115817968682
-0.09115852491123448
-0.127969616236345
-0.05103316492031312
-0.02059934947016448
-0.05517732696655745
-0.04034182353599703
-0.01237110204214018
-0.1862082154457114
-0.02744924012756438
-0.2059906646859382
-0.01605029386657258
-0.06829496037774688
-0.05982105600545907
-0.01502251996402919
-0.1914144489063015
-0.02883626460851779
-0.01078689581252333
-0.01473682752015319
-0.1015433802915977
-0.04043592084181216
-0.0962188211927494
-0.1275528309161036
-0.01346495948346598
-0.1289498449959268
-0.01686341578983504
-0.0508448477484137
-0.1650773455548464
-0.0356727258699247
-0.01490767496230928
-0.4439442699251624
-0.02692800541067984
-0.3061278610942436
-0.02196180026587375
-0.02027451648509482
-0.06599746456471227
-0.01739126462600393
-0.04325122165938831
-0.3615822989701463
-0.03545450206284607
0.04110233792293589
-0.09093143897839967
-0.01726530998457339
0.05681351647695025
0.04417503114306814
-0.016618468498247
-0.05294296770700763
-0.5464869410615621
-0.2241407415658768
-0.0529928346330048
-0.1119694522062253
-0.05748717824669094
-0.1338356278585749
0.04022625990603682
-0.02435578371464348
-0.06088271532888932
-0.1175658995405691
-0.0384909299698497
-0.05217272585305096
-0.1171825648179162
-0.1383878579525848
-0.05209345406754376
-0.0481087406455084
-0.05519762753347138
-0.045505418899386
-0.05777812621668539
-0.07360190352786818
-0.0416042176563635
-0.01131340122085039
-0.04090157635567378
-0.1255829338348128
-0.05106075231036439
0.08285549388326147
-0.04297350316163006
-0.008332458110519934
-0.02784965531125519
0.1804067913917161
-0.03954473493607231
-0.2717898772087832
-0.02025014520881403
-0.05438632201486886
-0.02741290044385714
-0.04801832582186925
0.01285508546917565
-0.04955235523902628
-0.03452169291121214
-0.2155624769987488
-0.04220199498595249
-0.005227044884616964
-0.07699278450614928
-0.06789389171528373
-0.1438781515374655
-0.02082014507756093
-0.07597165572473315
-0.04179342742662833
-0.02268650809695796
-0.01632305844859205
-0.006473832838919264
-0.007286751718639245
-0.05297462345572385
-0.05056949640046751
-0.2133655522504436
-0.05750621810164938
-0.008541797524901078
-0.02268601420079748
-0.1456701581666834
-0.002690157224960737
-0.07719608542556355
-0.02302248589024829
-0.001030457445349347
-0.01081214711868176
-0.03379530370922199
0.09495413236822883
-0.03943107719231449
0.2524392947646679
-0.2686472121977947
-0.1309893587386481
-0.03712671919738737
-0.09107298608425991
-0.009357024556430145
-0.1122984624594989
-0.1844137652047589
-0.2176296295991122
-0.1799776211361153
0.05569452145435309
-0.06212253544377781
-0.02026854563891606
-0.06761193118706162
-0.1683401580195816
-0.02383266270427731
-0.01834419685188688
-0.05283195820460222
-0.01860282182438383
-0.006274373085807566
-0.109199161341381
-0.02275153143153103
-0.04606890054880219
-0.06914770857272762
-0.1625721018035072
-0.03369439051344737
-0.3941409975947037
-0.01778503893735297
-0.2235538533548082
-0.04507027680448607
0.03123168192059636
-0.1058869369276043
-0.01458429712638211
-0.04179328034975639
-0.104877803936568
-0.01761570795199509
-0.09622051882464322
-0.2070996633035974
-0.07248267335440479
-0.02366515448578582
-0.04919593783740882
-0.04349789344716729
-0.2048681202859144
-0.02182237793645408
-0.0189385010934636
-0.01134667444372922
-0.05511494421417323
-0.05153106650251274
-0.02231886517891272
-0.0208798781017445
-0.2461514770185211
0.1277557994500849
-0.2020290293828993
-0.2038027675632882
-0.0118030157674573
-0.0115601006079192
-0.06754843570385692
-0.009770732562873509
-0.5121974605198059
-0.1204726611724666
-0.01892060608255666
-0.0006797203560735455
-0.02425047657773632
-0.2852053873520198
-0.2755753620003308
-0.007018884750766862
-0.01733042011045023
-0.001610333258271741
-0.346207292772673
-0.02822062343484069
-0.02909895506928165
-0.01248227250993233
-0.01977546671215033
0.05058313092789759
-0.1075363903117791
-0.01399463717824762
-0.02073891886673393
-0.04341697450042557
-0.01817628133625739
-0.01609983103326405
-0.02337958534882159
-0.06708735443954721
-0.01175710446980517
-0.01908038122126019
-0.008511062615554262
-0.0006912065573311919
-0.02956853809229447
-0.001599561950128628
-0.002263141752002266
-0.005985644321954642
-0.02563060846222777
-0.007961854101823266
0.001501837363551762
-0.0042402130384819
0.001267617939866759
0.002557406459152962
-0.00874504171400774
-0.1427582719697974
-0.003016676525739141
-0.001535825382009204
-0.04854726235376602
-0.02157587670692916
-0.0247820380550519
-0.01437125858273777
-0.006125544899613884
-0.02082802636933896
-0.03793794259417625
-0.01395498058457401
-0.01288246296506513
-0.0116987838955235
0.007880047279800342
-0.01030450963703559
-0.01174533329113587
-0.01139845781420849
-0.01081721789568689
-0.01023109066092989
-0.01191473888632642
-0.01408593242133719
-0.3096905737352037
0.06055196323033373
-0.01569845039254227
-0.01584458093336434
-0.01307774979708963
-0.01203691680843058
-0.008820031139263542
-0.09691440465770249
0.01036426464157177
-0.01359604828502625
-0.01455103710536318
-0.01072845787147299
-0.05275874577487712
-0.01022537915532097
-0.01366619471657562
-0.009694856476986665
-0.0002501993998928145
-0.01017560482747068
-0.01173971410581488
-0.02485619336707169
-0.01598581062051322
-0.01182011288376878
-0.01343923303418139
-0.007330368999460709
-0.01239073093056569
-0.01179435882119266
-0.05767587869491468
-0.01313885270250364
-0.01119716844337506
-0.0087389557501032
-0.01485321569751346
-0.01378014282440725
-0.01567028719286423
-1.374838647536414
-0.0986666234103593
-0.01342128675505464
0.02475823903462964
-0.1642365368776094
-0.0919807738913347
-0.01159297863185401
-0.01402053386816626
-0.2466630451923115
-0.03021349456892804
-0.01977179084970709
-0.01101199710031837
-0.01959389235217974
-0.01055726015645276
-0.03071469991167494
-0.4138591115341012
-0.01244084819935927
-0.01410766645790497
-0.004873521464721135
-0.01095289386215617
-0.01030670877627121
-0.01431724998477448
-0.007876363351107774
-0.02608430717444036
-0.01143051770977475
-0.1651615268176411
0.01715988815089058
-0.00767470401057447
0.003400231157913847
0.01361840298163867
-0.04744046313577299
0.02946604328773123
-0.0131447570532723
-0.1345262258725548
0.2822908661050291
-0.007161107561919965
-0.01337088286332028
-0.008399091054337995
-0.03271377187288571
-0.1229532958182531
-0.01248588445529347
-0.01234106143377319
-0.01665007479925738
-0.01361987971710722
-0.04095161367739504
-0.2152118908917438
-0.01104953654335069
-0.04159296713415901
-0.03984214448482593
-0.1673567324344997
-0.1643479269312003
-0.1352479957156384
-0.2438235880666082
-0.007001239168958505
-0.02126308454874016
-0.01398125137741699
-0.01251220092537013
-0.03287471521949376
-0.02442549675489445
-0.01447873143127243
-0.01497203354721671
-1.078881215489687
-0.006279661743775249
-0.01354466275671298
-0.01847630738350603
-0.02256543177667747
0.0003137552724542707
-0.01452394716280497
-0.02727132629870986
-0.1575701840852915
-0.01355871982470397
-0.02235048899375763
-0.01373990143767655
-9.719088366086323e-05
-0.1792283318345411
-0.01323400705313238
-0.1417525054860303
-0.01615302364645382
0.006024823650598485
-0.01465843736107524
-0.0231207921459741
-0.0154608161003219
0.005021602192101129
-0.2773334886615124
-0.02550031986408566
-0.01583315314003265
-0.00123414630987868
-0.00937058622606487
-0.03046587853216005
-0.01439982277530386
-0.02025379819566079
-0.02139464557599435
0.0149521281601294
-0.1002916821890888
-0.02208789001750167
0.009175781449298313
-0.05248917825144175
0.1632567396133688
-0.1034963630071188
-0.3197371539053067
-0.03109932327378871
-0.02534005496088936
0.1498373540097702
0.07909395023562973
-0.003431881383115537
0.04889094684671453
-0.01560424182704449
-0.01449797670194571
0.00223325973461376
0.01128819916729623
-0.0666358232040208
-0.006088830677681322
-0.05743145603471474
-0.02203355155628795
-0.01573224004871296
-0.03653859164185919
-0.03291148316216844
-0.006637348183969193
-0.01513024198023707
-0.03870432189417963
0.03783267715274916
-0.03889490129414282
-0.01371293520219369
-0.1167707188026251
-0.03209662929830811
-0.03860335227811425
-0.6754673145520335
0.02071682581463621
-0.01067103947489774
-0.005571257024186412
0.1587193275809956
-0.08508509036980885
-0.03491151656585482
-0.2460350446751566
-0.01677535733644621
-0.01659898592808798
0.06666317210953437
-0.1834734803589768
-0.2306911680422515
-0.1971408310483631
-0.6846024425354807
0.002100862006010101
-0.0193384284925397
-0.01712987097366801
-0.07964790673761368
0.1179878753390514
-0.0207057401975014
-0.2364379489781419
-0.03498305129353058
-0.006451056705004548
0.278764380585489
-0.01130183994341635
-0.09320094412112609
-0.1496708499524493
-0.00376462477105665
-0.04041644933127644
-0.05087258426453826
-0.2053948202348427
-0.008672100663887933
-0.04171534587814416
-0.002416071608393674
-0.5494029956437354
-0.1979274804892623
-0.1763240860402678
-0.02264961784614277
-0.006987323265069307
-0.06021982726031919
-0.05797867831725572
-0.01386174048935301
-0.06776485159173838
0.003815024693779665
-0.01837019323558302
-0.09417917470047227
-0.2685048633684213
-0.00715185121387664
-0.02648976329312701
-0.02209579943474906
-0.07444096537305803
-0.09073173360361898
-0.08799175044292547
-0.01196020954750807
-0.9247419851253915
0.1611886551958994
-0.07880143840286455
-0.2545593935972116
-0.04246849894560865
-0.01044397221759898
-0.2548628530918353
-0.1869649977742231
-0.03274893580265917
-0.128331471627254
-0.01968321679986867
0.5632878276542909
-0.02390379148763409
-0.2286437717747236
-0.02608345189565715
-0.005942608845099709
-0.01206974167263686
-1.250232177479332
-0.1818197328320805
-0.232137843358544
0.005335680861001754
-0.03773091053759829
-0.2528585185140668
-0.06554767325849352
-0.05099538793863956
-0.1430153646471368
-0.1879294795199684
-0.06802550475471655
-1.226934159005849
-0.1431492156891678
-0.5221371132924323
0.07846793040755314
-0.006568855365663306
-0.02193455551652155
-0.04282757155472598
-0.04012801898625664
-0.02886011289654605
-0.1305505143314509
0.08027256969139045
-0.002104543073577049
-0.009858657491693526
-0.5790088370097657
-0.8620487687876798
-0.1840600111784931
-0.008443299320685041
-0.1383291268471823
0.0009680522943506771
-0.0002660038823934936
-0.001682905320241017
-0.0600681955048139
-0.2378732506801207
-0.01336864381484058
-0.1242982261249501
-0.1563496994018812
-0.01323326253845481
-0.03577661718150914
0.02330236002804276
-0.05737156360142435
-0.06995982530983888
-0.5018577226962928
-0.2273166658247996
-0.08049875956475117
-0.07300978839913073
-0.0199444797168706
-0.1245609461583803
-0.1524526475553275
-0.0745447891286843
0.02247828239989867
-0.08473456739127105
-0.04834904767640008
-0.01488658572269846
-0.1058882329032139
-0.2732833488175611
-0.05715462023954191
-0.01849892779006361
-0.000559242040906543
-0.009999339014338738
-0.01112427743574214
-0.2181743921822198
-0.01535001793021902
-0.2210942486661999
-0.0102911652950206
-0.06841476040301099
-0.004042737658355245
-0.02321337228192218
-0.3794098723275645
-0.9122223382000509
-0.01134447743205354
-1.046527363522929
-0.6122706968899626
-0.01060532338137839
-0.6591372322726187
-0.17865959598393
-0.006037857118971198
-0.1304680931893232
-0.01677690153362538
-0.1224014772693926
-0.06692442998919675
-0.07898251342903163
-0.005080968569003689
-0.002263203754557355
-1.340616719063857
-0.01128194122881873
-0.1801334503197146
0.0005319163967087589
-1.009084483837968
-1.236654943983551
-0.08093722561602476
0.01883441464185903
0.1644133207713628
-0.004527102109015699
-0.02305795481503361
-0.004172785711235955
-0.2522124643900093
0.3660389177733429
-0.040906331519803
-0.2110882246795646
-0.01484157930556085
-0.6529813065569572
-0.07453172884015638
0.1902684221736692
-0.2853917810841506
-0.04975088926403764
-0.06880919259541755
-0.01587031931413766
-0.02176827078244316
-0.5774729594903585
-0.1451866509516634
-0.08609566363474172
-0.1281012592858168
-0.5544125003298371
-0.04413940404058424
-0.9058195441790085
0.0003899351048062252
-0.2385641285540491
-1.051682561440595
0.1660086335707304
0.290805583734399
-0.1844803838316145
-0.1918427604677691
-0.2099049570133963
-0.06777357757392556
0.02196115039328572
0.046581769704046
0.003087425236026064
-0.1677309666597372
0.02544382909059538
-1.359084136328583
-0.08527508927202429
-0.4743311325915528
-0.3315186410106756
-0.2047681562924347
-0.177023019189142
-0.01689968495226388
-0.01547684023157055
-0.1072078969089691
0.1726174411758903
0.3851519950393733
-0.2084301827274258
-0.138985704869359
-0.231851112180096
-0.06247418706187145
-0.1498897238315055
-0.1638749012476297
-0.1258178373615425
-0.1242792520217198
0.4649594869905714
-0.2702511121978474
0.4324241313193736
-0.5983237586699794
0.07129363241637288
-0.2025264519741133
-0.06619104391362819
-0.07495390609856915
-0.8808865681530178
-0.2180688715282756
-0.1909583015847645
-0.3474450860412837
-0.4586167335655627
0.5704436423019438
-0.209487950388556
0.0007155843976073582
-0.06996898155524175
0.344655335664342
-0.03702782701651273
-0.132751863999225
-0.1797890336296073
-0.06337660734596155
-0.01655399954628219
-0.1963171183023042
0.1957170813259332
-0.01291663151148715
-0.09640831434593262
-0.1705962120704261
-0.3171858593370562
-0.3124706440615181
-0.06497118873449544
-0.01029589123336375
-0.07996050085893509
-0.6524945083340801
-0.6719691981015862
-0.3375317846495798
-0.05771350283560172
-0.05150480587966494
-0.02547766300957251
-0.06785133805841352
-0.05733244607503928
-0.3595276800917002
-0.9594953156319428
-0.01061555791890774
-0.08310709591127828
-1.140062726162503
-1.034109050883504
-0.1064877144265135
-0.03911709737220761
-0.06964401205835483
0.3895533842658541
-0.3431446314081349
-0.04958080964847437
-0.5998626164591728
-0.1220447642301362
-0.2522383444158741
-0.2112599898980975
0.4738296079697141
-0.6291722690653113
0.07481228815509147
-0.02952258681579851
-0.5592888585342886
-0.05193840517984286
-0.3628299895482447
0.1080511078367773
-0.1904021076815165
-0.05985344516398463
-0.1385613626762257
-0.3605674098212944
-0.08634904026231878
0.5151686428833887
0.0857756189218073
0.4702385587936477
-0.09979759194733051
-0.2009241068503414
-0.5211114272689717
-0.1319556864269566
0.02642648265346793
-0.05367902426432065
0.1017048096165774
-0.3050089385390364
0.2363294452096519
0.00745506542842871
-0.003337350149851996
-0.512227163794359
-0.1848982374579382
-0.08053552500149763
0.581644521073659
0.1387546356563769
0.3441932275337029
0.2257103721892716
-0.5628142772903292
-0.1953750518784656
-0.2240030425653344
-0.2299821740609055
-0.06041596017617362
-0.6930811197972034
-0.1923168036308833
0.3055199522445942
-0.1942999431452095
-0.01134063654762828
-0.1696857060197209
-0.009763366275110555
-0.1576845810743642
-0.4360244395210878
-0.07633933977674366
-0.2008445878673124
-0.07106457502094264
-0.08711388731490902
-0.1456408561715443
-0.07293769676226665
-0.4540512583596705
-0.4136904929304118
-0.02526854860279472
-0.07491261527523042
0.3288031671787036
-0.2472351869206018
-0.1838408555908286
0.5247346801815502
-0.2072566803356914
0.01897049312469204
-0.4499648550733504
0.04891353072890433
-0.06168183841137428
-0.1420717421254902
-0.5838241747145199
0.1601340626538776
-0.579451620634641
-0.5350639790829793
-0.10442086910617
-0.5083291895517533
-0.03730275928617937
-0.1391548773203579
-0.4113136714567996
-0.01627251670579394
0.2873309191594798
0.4897583646938384
-0.15933904558452
-0.007601521163460231
-0.07794450080644702
0.5252532049077427
-0.03334582725396706
-0.4392837727823378
-0.03281118939059564
0.4613030234458422
-0.01516015124636098
-0.5439300485090567
-0.2484365117471228
0.1767425538137833
-0.3104368921626351
-0.1790899961215063
0.05000823341421658
0.03332691432401582
0.05480803404957755
-0.299199141893045
-0.158738906967622
0.4128110473469092
)
;

boundaryField
{
    FrontBack
    {
        type            empty;
    }
    Top
    {
        type            zeroGradient;
    }
    In
    {
        type            zeroGradient;
    }
    Bottom
    {
        type            zeroGradient;
    }
    Out
    {
        type            fixedValue;
        value           uniform 0;
    }
    circle
    {
        type            zeroGradient;
    }
}


// ************************************************************************* //
