/*--------------------------------*- C++ -*----------------------------------*\
| =========                 |                                                 |
| \\      /  F ield         | OpenFOAM: The Open Source CFD Toolbox           |
|  \\    /   O peration     | Version:  2412                                  |
|   \\  /    A nd           | Website:  www.openfoam.com                      |
|    \\/     M anipulation  |                                                 |
\*---------------------------------------------------------------------------*/
FoamFile
{
    version     2.0;
    format      ascii;
    arch        "LSB;label=32;scalar=64";
    class       volScalarField;
    location    "23.6";
    object      p;
}
// * * * * * * * * * * * * * * * * * * * * * * * * * * * * * * * * * * * * * //

dimensions      [0 2 -2 0 0 0 0];

internalField   nonuniform List<scalar> 
808
(
0.123623
0.0148719
0.0112151
0.12368
-0.19694
0.016474
0.00804745
0.025015
-0.099788
-0.0130108
0.0204698
-0.114947
0.0215742
0.0116611
-0.294183
0.019766
-0.309798
0.0196999
0.0227089
0.0127863
0.0178392
0.385475
0.0694982
0.00357989
0.463909
-0.191246
-0.0417523
0.00644095
0.0206993
0.0150801
0.0169742
0.0237769
0.020627
0.013106
-0.0675627
0.637549
0.012096
0.0210416
0.0192552
0.0151269
-0.0391854
-0.044598
0.0324875
0.0179485
-0.207491
0.0867261
0.0201269
0.0278348
0.0126968
-0.136932
0.0111337
0.0248483
0.0415599
0.00987153
-0.0857713
0.00961526
0.0082475
0.0226693
-0.00746077
0.00661926
-0.28026
0.0182074
0.0291718
-0.149467
0.0186853
0.0430826
-0.218307
0.0187678
0.019697
-0.247004
0.0200349
-0.277762
0.0194955
0.0195605
0.20138
0.0110993
-0.00525446
-0.0676843
0.00830337
0.318565
-0.131476
0.0164917
0.0343921
0.284538
0.0162205
-0.0267968
-0.318896
-0.105305
0.0294273
-0.212007
0.0443169
-0.0836051
0.258857
0.158869
0.0376075
-0.187169
0.0149663
-0.136083
-0.0902042
-0.175533
0.0116859
0.00343226
0.0427419
-0.0211519
-0.0857331
0.055907
-0.237266
0.022919
0.00954536
0.0469375
-0.0726636
0.338141
0.0163391
0.0355333
0.0189512
0.461899
0.0150083
-0.23145
0.0171639
0.0606982
-0.224075
0.0333718
0.0137861
0.0623416
0.111927
-0.0496554
0.114833
0.0296018
0.041057
0.0651998
-0.2196
0.0207244
-0.0381507
0.126516
0.0220911
0.0107332
0.0654196
0.00910217
0.0201338
0.0121015
-0.280416
0.0531027
0.0197535
0.0178681
-0.0303916
0.100228
0.101053
0.163849
-0.0403244
0.0329858
0.0158656
0.350122
0.032546
0.544459
-0.273164
-0.104014
0.0152598
-0.237884
0.0436839
-0.126824
-0.268215
-0.277362
-0.241039
0.0198803
0.0582202
0.0192506
0.0234971
-0.246122
0.0132757
0.0225689
0.0426927
0.160217
0.0937137
0.138306
0.0181043
0.0759954
0.0683604
-0.124964
0.0223959
-0.30334
0.0234892
-0.141513
0.0187183
0.273804
-0.328877
0.115638
0.0173712
-0.128205
0.0254174
-0.0834345
-0.269825
-0.0587578
0.0187365
0.0894103
0.0189054
-0.271808
0.0172828
0.0254036
0.00317648
0.0795636
0.0703874
0.0231213
0.0213172
-0.278998
0.383375
-0.26449
-0.265791
0.00834826
0.00318933
0.0166681
0.00212077
-0.351623
-0.20412
0.0171985
-0.0056609
0.0186618
-0.284073
-0.0341861
-0.003751
0.0376304
0.0105113
-0.0838022
0.0262996
0.0263047
0.00452122
0.0225983
0.123926
-0.213309
0.0527619
0.018441
0.116769
0.0199804
0.0219321
0.0141183
-0.11268
0.00777399
0.00762431
-0.000343393
-0.00791568
0.0112975
-0.000694293
-0.00209545
0.00331649
0.00422487
-0.000779254
0.00413358
-0.00103297
-0.00204226
0.00548272
0.0801857
-0.273139
0.0047206
0.0145957
-0.104118
0.0115576
0.0038354
0.0308265
0.00213749
0.0226248
0.127493
0.0658466
0.00678586
0.00996661
0.0184568
0.0193391
0.0204284
0.0307342
0.0501799
0.0253976
0.0244297
0.000704657
-0.349761
0.280912
0.0164294
-0.0445568
0.0162247
0.0132211
0.0133894
-0.161094
0.291574
0.0318349
-0.00854105
0.0180613
0.0904584
-0.165009
0.024072
0.0619967
0.0596342
0.0329563
0.0600435
0.022875
0.0312696
0.0180229
0.0174793
0.0428777
0.0271231
-0.00210861
0.0565496
0.070003
0.0475129
0.0167135
0.0257132
0.0117889
0.0150728
-0.453779
-0.105632
0.00663813
-0.0160908
-0.144911
-0.325232
0.0572899
0.0241403
-0.267669
0.135623
0.166824
0.0164998
0.0182259
0.0559512
0.00314565
-0.186213
0.0347661
0.00180762
0.024272
0.0228902
0.0228424
0.0301293
0.0454193
-0.00161743
0.0347515
-0.262705
-0.123001
0.0221283
-0.0604485
0.00833052
0.00770883
0.235891
0.045477
-0.1314
0.558568
0.015623
0.00524245
0.0256682
-0.0652318
-0.0504699
0.0307526
0.029858
0.00323363
0.0391918
-0.0562494
-0.246477
0.0441149
0.105691
-0.057641
-0.260124
-0.268194
-0.221872
-0.264612
0.0249646
0.0243171
0.0211302
0.0121587
-0.0294582
0.00790472
0.033314
0.00579903
-0.449032
0.00129588
0.0336963
0.0163856
-0.170224
0.00258802
0.0227137
0.119038
-0.291237
0.0201864
-0.0483563
0.0264997
0.000471966
-0.261546
0.0176014
-0.293201
-0.000234134
0.027736
0.0178142
0.00992992
0.019165
-0.0452098
-0.295245
0.00490298
0.0141622
0.00710649
0.0231105
-0.00663124
0.0241497
-0.00464177
-0.0119181
-0.0547566
0.0496332
0.00450942
0.0170229
-0.178271
-0.165545
0.0644531
0.0190669
-0.11012
-0.0220797
0.438227
-0.239158
0.00136309
-0.104819
0.0102943
0.0364974
0.0231162
0.052545
0.000240232
-0.0606377
-0.0560277
-0.000437044
-0.00445105
-0.0067039
-0.0116317
-0.0114648
0.0173784
0.122702
0.0553171
0.0119061
0.0122441
0.022023
-0.0700097
0.0230087
-0.329882
0.0612481
0.0602554
-0.000784813
-0.216665
-0.258631
-0.0142589
-0.0570785
-0.0775541
0.0268838
-0.236934
-0.190658
0.229657
-0.272509
-0.400893
-0.199463
-0.136662
-0.103446
-0.208766
0.362248
-0.0255254
-0.267143
0.00713602
0.00854736
0.59164
0.0113174
0.0254446
0.0484868
0.000951611
-0.0116538
-0.341021
-0.273547
0.0545734
0.0701381
0.0798638
-0.222836
-0.256211
-0.228934
0.0133838
0.0224231
0.0918287
-0.0136979
-0.0140769
0.0777217
0.0562732
0.0215503
-0.145148
-0.2828
0.0278902
-0.0971684
0.0167356
0.00494264
0.0856775
-0.0546543
0.0100346
-0.410697
0.464311
-0.176848
-0.26292
-0.0286667
-0.00429059
-0.26741
-0.262586
0.128461
-0.286449
-0.184636
0.8762
0.0121284
-0.309836
0.00318247
-0.143302
-0.0278871
-0.402776
-0.281005
-0.258283
0.0158512
-0.184316
-0.312535
-0.0166896
-0.0261799
0.10677
-0.263473
0.0288253
-0.445694
-0.306868
-0.365838
-0.211985
-0.0187078
0.000576261
0.105548
0.13739
-0.0443699
-0.258176
0.319337
0.0851731
0.0168926
-0.385936
-0.442849
-0.283287
-0.0159069
-0.30174
0.0769681
0.0634474
0.0512677
-0.166882
-0.189773
0.00899973
-0.262783
-0.280265
0.00531899
-0.00479865
-0.246115
-0.0132845
0.0347122
-0.331073
-0.27152
-0.0717131
0.103739
0.0250767
-0.281118
-0.279163
-0.159836
-0.246043
0.039156
0.101187
0.00894803
-0.1883
-0.279621
0.104279
0.0292287
-0.206345
0.0244282
0.0425691
-0.313178
0.0125239
-0.220893
0.0477158
-0.362499
0.0130334
-0.00186017
-0.344499
-0.435274
0.00290663
-0.418438
-0.406506
0.0304372
-0.0672318
-0.267637
0.015688
-0.258178
0.0254906
0.0838683
0.0741556
-0.367463
0.0819752
0.0165299
-0.438563
0.0105996
-0.275592
0.0189254
-0.26741
-0.490558
0.115469
0.279743
0.454284
-0.000359125
0.00138367
-0.00152573
-0.293797
0.656333
0.0160615
-0.210494
0.0306366
-0.031407
0.0937907
0.493956
-0.349295
-0.0492298
-0.0449924
0.0303308
0.0152955
-0.431416
-0.256666
-0.257968
-0.31556
-0.233303
0.000604428
-0.310516
0.0331155
-0.255489
-0.302857
0.516032
0.596615
-0.304872
0.134594
-0.266372
-0.0160046
-0.18165
0.410824
-0.119693
-0.274758
-0.150192
-0.491802
-0.0255225
-0.186294
-0.013046
-0.293107
-0.262566
-0.00038066
0.00213705
-0.277108
0.470076
0.685809
-0.260875
-0.286457
-0.27712
-0.0619448
-0.285757
-0.273109
-0.188339
-0.274812
0.760901
-0.320518
0.7624
-0.363125
0.344451
-0.262922
-0.000332219
0.18302
-0.480882
0.251966
-0.27058
-0.295246
-0.322875
0.881295
-0.26379
0.224139
0.165115
0.660722
0.138031
-0.348461
-0.270225
-0.135475
0.00874731
0.0926963
0.544778
0.0122796
-0.0231762
-0.273631
0.12279
-0.0934022
-0.202868
0.0213548
-0.363918
-0.120027
-0.149234
-0.320317
0.00274611
0.115912
-0.00713553
0.0785044
0.122745
-0.313465
-0.346061
-0.0717631
0.0106689
-0.450299
-0.4949
0.181967
0.201624
0.0988275
0.676719
-0.052233
-0.350406
-0.370085
-0.280315
-0.0336632
0.0903846
0.77326
-0.433995
0.397502
-0.0121529
-0.406913
0.160418
-0.0686535
0.404002
-0.152951
0.0136208
-0.289564
-0.0457118
0.220619
0.830041
0.348416
0.768785
-0.265879
-0.279016
-0.368014
0.174535
0.277622
0.0630999
0.389744
0.1656
0.510799
0.284019
-0.0866047
-0.154733
0.0444706
-0.332096
0.895846
0.425117
0.655888
0.524752
-0.256855
-0.26604
-0.270393
-0.263007
0.0485878
-0.359782
0.128996
0.606245
-0.286787
0.013636
-0.261473
0.19305
-0.306754
-0.348199
-0.123933
-0.270598
-0.307369
-0.274371
-0.297351
-0.0886699
-0.367893
-0.099982
-0.318093
0.15395
0.675354
-0.209421
-0.275762
0.836002
-0.275534
0.306088
-0.222836
0.413593
0.101321
-0.237932
-0.379151
0.450094
-0.237331
-0.308098
0.211102
-0.2644
-0.0194756
-0.279401
-0.110273
0.0173472
0.586763
0.793588
-0.277375
0.241755
-0.296014
0.833736
-0.00984604
-0.298147
-0.0237474
0.779555
0.215329
-0.305748
-0.27013
0.472604
-0.200597
0.0450402
0.35833
0.262971
0.31118
-0.240157
-0.320403
0.701789
)
;

boundaryField
{
    FrontBack
    {
        type            empty;
    }
    Top
    {
        type            zeroGradient;
    }
    In
    {
        type            zeroGradient;
    }
    Bottom
    {
        type            zeroGradient;
    }
    Out
    {
        type            fixedValue;
        value           uniform 0;
    }
    circle
    {
        type            zeroGradient;
    }
}


// ************************************************************************* //
