/*--------------------------------*- C++ -*----------------------------------*\
| =========                 |                                                 |
| \\      /  F ield         | OpenFOAM: The Open Source CFD Toolbox           |
|  \\    /   O peration     | Version:  2412                                  |
|   \\  /    A nd           | Website:  www.openfoam.com                      |
|    \\/     M anipulation  |                                                 |
\*---------------------------------------------------------------------------*/
FoamFile
{
    version     2.0;
    format      ascii;
    arch        "LSB;label=32;scalar=64";
    class       surfaceScalarField;
    location    "23.6";
    object      phi;
}
// * * * * * * * * * * * * * * * * * * * * * * * * * * * * * * * * * * * * * //

dimensions      [0 3 -1 0 0 0 0];

oriented        oriented;

internalField   nonuniform List<scalar> 
1171
(
-0.945788
0.945788
0.779653
-1.086
0.306343
-0.270221
-0.809141
1.07936
0.0542122
-0.0656285
-0.274974
0.340603
-0.779653
0.0834956
0.696157
0.925071
-0.200682
-0.724388
0.832334
-1.03934
0.207004
-0.353951
-0.0356727
0.389624
0.00167424
0.600483
-0.602157
-0.57185
1.01914
-0.447291
-0.41958
1.00472
-0.172386
0.252056
0.0936491
-0.345706
0.985275
0.0194438
0.305761
-0.0537043
1.01597
-0.0306975
0.713655
-0.983876
-0.789632
0.616468
0.173164
0.304758
-0.876609
0.560584
-0.915425
0.35484
-1.08072
0.670666
0.410055
-0.642947
0.644621
0.0348642
-0.254492
0.219628
0.024292
-0.644818
0.620526
0.466522
-0.502195
-0.839124
0.891171
-0.0520464
1.00266
0.0133136
0.922118
-1.07619
0.15407
1.03081
-0.0281526
-0.698383
-0.0912494
1.2544
-0.861508
-0.392891
0.191687
-0.0692588
-0.413709
0.482967
-0.274266
0.183265
0.0910004
-0.603347
-0.482649
0.9781
-0.0559828
-0.0224434
0.872962
-0.850519
0.49994
0.75446
0.531224
0.0261945
0.440328
-0.788265
-0.106856
0.895121
0.604568
0.234449
-0.839017
0.014782
0.633706
-0.648488
-0.509893
-0.570827
-0.388693
-0.687495
0.0278722
0.243997
-0.271869
-0.950105
-0.0358091
0.985914
0.371689
0.0179345
0.860598
0.064473
-0.604509
-0.0384372
0.0379398
-0.826205
0.152392
0.932637
-1.08503
-0.40801
0.0276565
0.380354
-0.71855
-0.231555
-0.756859
0.909252
0.640778
0.378364
-0.575963
1.00302
-0.823999
-0.179023
-0.037903
-0.0593306
0.0972336
-0.457828
-0.0443664
-0.330654
0.971432
-0.0146083
0.435254
-0.420646
-0.507043
1.11161
0.712287
-0.819143
0.382131
-0.0694665
-0.312665
0.759883
-0.759883
-0.954334
0.0400847
-0.315059
-0.695408
0.672964
-0.0330716
-0.142743
0.175814
0.885078
-0.0121158
1.052
-0.817547
0.222423
-0.318655
0.0962325
0.988391
-0.127794
-0.678014
-0.0566153
0.734629
0.150474
-0.232749
0.082275
0.80829
-1.00897
-0.44424
0.311134
0.133105
0.672719
-0.648427
0.877913
-0.397843
-0.48007
0.48922
-0.694458
0.0370691
0.657389
0.149374
0.675134
0.0399074
-0.715041
0.134564
-0.0944789
-0.514437
0.106427
0.0376562
-0.90869
0.871034
-0.551168
-0.761946
0.0635629
0.49758
-0.057252
0.274342
-0.83244
0.558098
0.424499
0.575501
0.599556
-0.561617
-0.367523
-0.0211926
0.388716
0.533427
0.226456
-0.676495
0.691278
0.083871
0.891786
0.00677727
-0.684791
-0.76657
0.804226
0.618519
0.12717
0.339763
-0.466933
-0.155539
0.538292
0.0954142
0.785166
-0.822272
0.0371059
0.660051
0.342971
-0.429956
0.720368
-0.593198
0.409376
0.151209
-0.0584983
-0.629725
-0.230086
0.859811
-0.116592
-0.64329
-0.613135
0.364517
0.248618
0.664321
-0.657544
0.307531
1.04157
0.010425
-0.76657
-0.118071
0.0801684
0.712287
0.789715
-0.789715
0.845127
-0.831856
-0.0132709
-0.454491
0.87899
-0.194585
-0.319852
0.76269
-0.668595
-0.0940956
-0.898659
0.268934
0.106185
-0.710694
0.819143
-0.974682
-0.178917
0.157705
0.0212119
0.111273
-0.994985
0.883712
0.542718
-0.0114939
-0.289674
0.596054
-0.30638
-0.653027
0.7643
-0.159678
0.753902
-0.748639
-0.0052622
1.12744
-0.635199
-0.492239
0.731217
-0.0683228
-0.0163397
0.0150551
0.00128468
-0.800383
-0.828546
0.0194045
-0.695408
0.57783
-0.550174
0.0861223
0.643965
-0.730088
0.779841
0.165947
0.491453
0.508547
-0.0822342
-0.655196
0.73743
0.816095
-0.0309293
-0.731217
0.804226
0.179399
-0.433891
-0.0124221
-0.00713822
0.0195603
0.679829
-0.437764
-0.242065
0.696157
-0.0279625
-0.0746441
0.563702
0.116127
-0.00927982
0.00223846
0.00704135
0.00256042
-0.0189002
0.134077
-0.203543
-0.949393
0.0465862
-0.145167
-0.0448404
0.135395
0.780957
0.743061
-0.16756
0.41277
-0.326648
-0.163152
0.385575
0.642602
0.0535551
0.228256
-1.06011
-0.974682
0.314437
0.672964
-0.160156
0.017413
-0.827543
0.989635
-0.162092
0.486223
-0.105869
0.802711
0.305542
0.297544
0.00821629
-0.680846
0.680846
0.22626
0.668861
-0.0108283
0.446083
0.472139
0.0301972
-0.0426193
0.55329
-0.0105724
-0.653027
0.572127
0.190563
0.00444061
0.0106145
-0.642602
0.155626
0.83401
0.0210569
-0.712065
0.691008
0.760178
-0.822483
0.0623047
-0.779841
-0.03502
0.0479939
-0.012974
0.0845754
-0.121136
-0.105828
0.226964
-0.00784214
-0.00143767
0.75002
-0.728963
0.928355
0.151007
-0.407774
-0.558489
0.966263
-0.000813137
0.000813137
0.136513
0.425156
0.621343
-1.0465
-0.192894
-0.557825
0.750719
-0.0180494
0.193864
0.384503
-0.234028
1.11143
-0.686277
0.80934
0.954836
-0.333493
0.189918
0.7643
0.591914
0.253211
0.63796
-0.64329
0.319154
0.00541904
-0.0125401
0.00712104
0.862968
0.104705
-0.967673
-0.561217
0.533064
0.545509
-0.561217
-0.591914
0.533064
-0.00377672
1.05695
-0.128593
-0.533427
0.451592
0.0818348
0.512191
0.673657
-1.18585
0.46616
0.645273
0.713702
0.475536
-1.18924
0.403432
0.551404
0.451592
-0.522643
-0.543875
-0.658425
-0.447492
-0.104674
-0.00460335
0.00460335
0.583563
0.58275
-1.03024
0.717512
-0.377749
-1.02456
0.389366
-0.69441
0.462855
-0.00928753
-0.923677
0.932964
0.453386
-0.0478595
0.910828
-1.16463
-0.991165
0.100728
0.890438
0.407158
-0.139808
-0.267351
0.769777
-0.82576
1.06613
-0.958181
-0.107953
-0.0948203
-0.727451
-0.148823
0.816276
-0.667454
-1.0649
0.970082
-0.497977
0.633807
-0.13583
-0.833732
0.111704
0.722028
0.0038103
-0.00462344
0.425551
0.0984997
-0.991842
0.893342
-0.778374
0.69614
1.00363
0.169624
-1.17326
0.0124659
0.00595893
0.382757
-0.358987
0.0403321
0.923766
-0.933053
-0.682726
-0.883698
0.156246
-0.116904
-0.9935
0.0353188
0.503239
-0.0904692
0.200171
0.206987
-0.551127
0.662831
0.48007
-0.971536
-0.895278
0.16167
0.0295139
0.557591
-0.587105
-0.0605354
-0.653212
0.579519
0.180659
-0.00646414
0.917292
1.07081
0.978528
-0.943209
0.0460606
-0.0460606
-0.0847245
-0.273941
0.134134
0.336775
-0.0223377
0.269582
0.856757
-0.00482464
-0.0030175
0.658222
0.341778
0.796995
-0.603347
-0.763992
-0.4824
-0.481018
0.481018
-0.206496
-0.108564
0.688659
-0.951479
0.26282
-0.480961
-0.543292
0.348408
-1.0359
-0.963856
0.855903
-0.555732
0.711979
0.683027
0.175993
-0.859021
-0.618231
-0.173582
0.838845
-0.665263
0.107099
-0.00428878
0.00326173
0.00102705
-0.0770721
-0.196869
1.03707
0.726849
-0.404603
-0.322247
0.459499
0.745151
-0.518891
0.0112001
-0.285466
0.10994
0.769373
-0.879313
-0.352876
-0.0870965
0.140066
-1.02191
0.0542359
-0.775485
0.0657681
0.754844
-0.820612
-0.859583
0.0840972
0.694193
-0.781289
0.236881
-0.358017
-0.492403
-0.125828
0.369096
0.739307
-0.0189384
0.00322777
-0.00322777
-0.00236489
0.0322346
-0.0268156
-0.0160964
0.0112718
-0.582872
0.327253
0.80496
-0.819317
0.0143574
-0.694843
0.760611
0.773203
-0.0790103
-0.696837
-0.162746
-1.13939
0.0206002
0.0254604
-0.472932
-0.845659
-0.874097
0.481206
-0.141428
0.126215
0.0152132
-0.40189
-0.0710421
0.482601
0.712434
-0.040929
-0.00391138
1.14774
0.518525
0.209791
-0.728316
-0.413021
0.0111308
-0.00805737
0.0037686
0.687949
-0.918035
0.00589647
-0.00589647
-0.732587
0.722448
0.0101381
-0.21285
-0.10432
-0.70263
0.132655
0.604775
-0.0530693
-0.876211
-0.180785
0.0706605
0.110125
0.76358
-0.749223
0.35144
0.263724
-0.615164
-0.15771
-0.706156
-0.114456
-0.214062
-0.0481306
0.469778
-0.514144
0.195587
0.728945
-0.924531
0.48922
-0.106278
-0.0351496
0.200489
-0.24862
0.597795
-0.095717
-0.502078
-0.283733
0.304031
-0.0202983
0.613994
0.103518
0.0670473
-0.310255
0.168011
0.142244
-0.209785
0.0917138
-0.279986
0.00929612
-0.0330525
0.0237563
0.863576
-0.239992
0.0271425
0.553371
0.264932
-0.669535
0.401886
-0.401886
-0.197423
-0.385259
-0.211075
-0.385259
-0.69205
-0.850325
0.181731
-0.105858
0.726395
0.047621
0.139001
0.600306
0.10894
0.117811
0.00980459
-0.127616
-0.035198
0.711602
-1.01315
0.454658
-0.0324787
0.0764196
-0.0439409
-0.744273
-0.175583
-0.60892
0.818711
-0.531767
-0.0292695
-0.21935
-0.335002
-0.0811146
0.0811146
0.0449918
0.0030021
0.138412
0.217929
-0.752995
0.144074
-0.0450188
0.47144
0.52856
0.763187
0.0289438
-0.000587861
-0.0283559
-0.295152
-0.581059
-0.574555
0.112755
-0.11787
0.00511479
-0.134127
-0.415569
-0.0683443
0.67312
-0.580181
-0.164092
-0.0886001
0.0346378
0.192357
-0.39769
-0.196691
-0.184327
-0.0192162
-0.481039
0.435042
0.0459973
-0.113029
0.293836
-0.864663
-0.541878
0.637922
-0.864339
0.706629
0.452042
-0.0297121
0.0547697
-0.0250576
0.0113884
-0.636144
-0.0042257
0.64037
-0.894165
0.644212
-0.728937
-0.157244
0.00739525
-0.00739525
-0.299055
0.420112
-0.0373553
0.0178689
0.0110749
0.59958
0.591841
-0.554735
0.0107307
0.00538358
-0.00215581
0.00438566
-0.00438566
-0.504251
0.607769
0.0136486
-0.0136486
-0.777801
-0.00895773
0.012768
-0.540835
0.68491
0.633727
-0.623589
0.0688461
-0.0688461
-0.0286153
-0.014004
0.00953673
-1.03988
0.547641
-0.489038
-0.00462344
0.601084
0.0118171
-0.612901
-0.709218
0.129037
-0.316946
-0.0141194
0.331065
-0.0257756
-0.0151534
-0.607047
-0.0290971
0.0254604
0.00571856
0.000177917
-0.00336509
0.00336509
-0.284862
0.308619
-0.461676
0.135002
0.661993
-0.12801
3.39594e-05
-3.39594e-05
0.508509
-0.190702
0.00820838
0.0180651
-0.000237777
0.53773
-0.728433
-0.64931
0.676453
-0.0689257
0.325466
0.766926
-0.00236489
-0.0903761
0.100991
-0.63023
0.555606
-0.336254
-0.108134
-0.0275279
-0.0255923
-0.0166843
0.461567
-0.0853552
-0.416723
0.694513
0.000217685
0.00600437
-0.00600437
-0.143634
-0.0669335
-0.573003
0.620624
-0.13554
0.510699
-0.211307
0.924962
0.795699
0.00571856
-0.820642
0.721055
0.0598579
-0.046206
-0.0136519
0.563424
0.0957588
-0.0118973
0.0656296
-0.0537324
0.00853218
-0.00853218
-0.740714
0.0227855
-0.0439329
0.061998
-0.0866734
0.0866734
0.00538358
-0.00233093
0.726049
0.10796
-0.318532
-0.0970371
-0.520132
-0.0287422
-0.0666852
0.0666852
-0.0569712
0.0807637
-0.0807637
0.0262285
-0.0262285
-0.355086
-0.0748706
0.241826
0.0693081
0.0497059
-0.733718
-0.0620271
0.161502
0.0178972
-0.244158
0.0805392
-0.0805392
-0.466378
-0.0477659
0.231909
-0.0122811
0.00235347
-0.652253
0.656029
-0.0119711
-0.0450002
0.0570562
-0.0710602
-0.0119177
-0.156013
0.167931
-0.151048
-0.20697
-0.0814907
0.0814907
0.0553979
-0.0553979
-0.0297692
-0.0942178
0.123987
-0.0190664
-0.1875
-0.0117577
0.00960194
-0.210497
0.519116
-0.0257167
0.474412
0.0065663
0.000475053
-0.0507917
0.0507917
-0.733163
0.31885
-0.128932
-0.209178
-0.0235709
-0.0162918
0.0186453
0.198718
0.0282466
-0.0004437
0.000205923
0.0830582
0.0296967
0.0550032
0.106499
-0.00593578
0.00202439
0.000107898
0.00533599
0.00623446
0.00607518
-0.0123096
-0.000620791
0.00678399
0.028368
-0.028368
0.0493378
-0.0417066
0.0417066
-0.190976
0.00581105
0.0274691
-0.0751196
0.0176963
0.0765181
-0.0765181
0.244715
-0.23725
0.0862021
-0.0673465
-0.169903
-0.0165859
0.0165859
0.406247
0.251142
-0.518238
-0.0808426
-0.0370272
0.541249
0.0379897
-0.0621296
-0.446675
0.0961652
-0.154097
0.170631
-0.0165341
-0.0468214
0.0468214
0.863091
-0.593097
-0.0102621
0.00964132
-0.00555876
-0.284146
-0.000224586
0.0051827
-0.0446141
-0.627025
0.567898
-0.675737
0.0148055
0.195123
0.0158935
0.0245632
-0.159655
-0.335508
0.260389
-0.0567991
0.0270299
0.17044
0.133591
0.24084
0.265216
-0.249323
0.00641238
-0.113706
-0.223298
0.0685812
-0.0135781
0.160848
-0.136285
-0.0685429
0.151601
-0.412013
0.121079
-0.103383
0.0581436
-0.474866
0.175813
0.176124
-0.244667
0.00634029
-0.176536
0.176311
0.00402107
0.14758
-0.028058
0.050437
0.458072
0.0117821
0.0202636
-0.00735986
0.0364057
-0.239832
-0.202403
0.590714
0.170524
0.061385
0.0790512
-0.0631001
0.0396407
-0.0532926
-0.0302344
0.167048
-0.152242
0.00357929
-0.000660167
-0.104831
-0.0289559
0.00560368
0.251718
0.00536682
-0.0314195
-0.312839
-0.00934239
0.216456
0.139896
0.178954
0.0574653
0.0982703
0.0595574
0.540023
-0.0122017
0.102423
0.0438125
0.0650852
-0.108898
-0.267096
-0.197361
0.0274581
-0.223148
0.28538
)
;

boundaryField
{
    FrontBack
    {
        type            empty;
    }
    Top
    {
        type            calculated;
        value           uniform 0;
    }
    In
    {
        type            calculated;
        value           uniform -1;
    }
    Bottom
    {
        type            calculated;
        value           uniform 0;
    }
    Out
    {
        type            calculated;
        value           nonuniform List<scalar> 10(1.17986 1.03483 1.2023 1.0487 1.14919 0.998897 1.16631 1.02425 0.599309 0.596334);
    }
    circle
    {
        type            calculated;
        value           uniform 0;
    }
}


// ************************************************************************* //
