/*--------------------------------*- C++ -*----------------------------------*\
| =========                 |                                                 |
| \\      /  F ield         | OpenFOAM: The Open Source CFD Toolbox           |
|  \\    /   O peration     | Version:  2412                                  |
|   \\  /    A nd           | Website:  www.openfoam.com                      |
|    \\/     M anipulation  |                                                 |
\*---------------------------------------------------------------------------*/
FoamFile
{
    version     2.0;
    format      ascii;
    arch        "LSB;label=32;scalar=64";
    class       volScalarField;
    location    "126.5";
    object      yPlus;
}
// * * * * * * * * * * * * * * * * * * * * * * * * * * * * * * * * * * * * * //

dimensions      [0 0 0 0 0 0 0];

internalField   uniform 0;

boundaryField
{
    FrontBack
    {
        type            empty;
    }
    Top
    {
        type            calculated;
        value           nonuniform List<scalar> 
15
(
142.2874512677401
133.5885047954067
138.0684973211125
144.4112391465291
159.7709761180986
131.3683265093828
140.1381985745391
135.3615560467935
153.4511410353044
135.7328513259484
136.095738652958
136.7690634505322
125.2652912118172
132.912171434476
123.9526112026831
)
;
    }
    In
    {
        type            calculated;
        value           uniform 0;
    }
    Bottom
    {
        type            calculated;
        value           nonuniform List<scalar> 
15
(
155.5663821276562
158.118542757207
141.0826539465808
142.042891775412
141.1767082169148
148.4243993908908
142.6980780708353
143.1490162591866
143.4223387497123
134.0561938065407
125.7253090436831
141.5532456988898
122.4056291209523
123.4874957954179
124.1298546322887
)
;
    }
    Out
    {
        type            calculated;
        value           uniform 0;
    }
    circle
    {
        type            calculated;
        value           nonuniform List<scalar> 
32
(
56.18509179443271
22.21871900639664
65.30289818919368
24.00420531771175
19.4646694909306
56.14901921913635
56.72126818835318
23.88209810655137
22.36422963088843
65.53865467064995
39.96983186265739
63.00486037771163
50.45018075200863
15.47226877567505
23.44478704417602
17.99890503114897
39.10387235426505
59.67570525979208
60.99110677265072
24.2634294777673
65.72024986360039
63.82985623398699
62.99198092249991
59.93940581198943
64.090102277401
45.91677254641662
66.37543022769404
32.01248279116014
38.04230406360474
55.77526393211508
20.95265938160447
43.18164471666875
)
;
    }
}


// ************************************************************************* //
