/*--------------------------------*- C++ -*----------------------------------*\
| =========                 |                                                 |
| \\      /  F ield         | OpenFOAM: The Open Source CFD Toolbox           |
|  \\    /   O peration     | Version:  2412                                  |
|   \\  /    A nd           | Website:  www.openfoam.com                      |
|    \\/     M anipulation  |                                                 |
\*---------------------------------------------------------------------------*/
FoamFile
{
    version     2.0;
    format      ascii;
    arch        "LSB;label=32;scalar=64";
    class       volVectorField;
    location    "23.2";
    object      U;
}
// * * * * * * * * * * * * * * * * * * * * * * * * * * * * * * * * * * * * * //

dimensions      [0 1 -1 0 0 0 0];

internalField   nonuniform List<vector> 
808
(
(0.895525 -0.00960597 0)
(1.02262 -0.0351808 0)
(1.25846 0.0769347 0)
(1.06817 0.00911793 -2.62404e-21)
(1.46417 -0.294733 0)
(0.96237 -0.0305419 0)
(1.14853 -0.0409637 -1.79508e-21)
(1.11995 -0.026282 0)
(1.3382 -0.23187 1.95843e-20)
(1.23066 -0.100685 -2.91601e-21)
(1.24032 -0.119363 3.31338e-21)
(1.36606 -0.262732 0)
(0.9917 -0.0308706 0)
(0.748233 -0.0215579 0)
(1.0018 0.0260337 2.09729e-20)
(1.0893 -0.0229668 0)
(0.897649 0.040828 -7.03903e-21)
(0.993142 -0.0299446 -9.72101e-23)
(1.28567 0.0692881 0)
(1.12607 -0.00177953 0)
(1.28183 -0.105638 -4.62435e-21)
(0.928775 0.126406 1.1122e-19)
(1.07432 0.010867 -1.22794e-20)
(1.17976 -0.0470713 0)
(0.955527 0.190748 0)
(1.31166 0.0273322 -3.32693e-20)
(1.27201 -0.185626 2.81056e-21)
(0.965031 -0.0317996 -3.4765e-21)
(1.09322 -0.0328917 0)
(1.04946 0.0443641 -1.97436e-22)
(0.993689 -0.0422318 4.52851e-24)
(1.12865 -0.0199762 0)
(1.03743 0.048144 0)
(1.08573 -0.038165 2.93705e-21)
(1.29976 -0.0949527 6.20842e-21)
(0.741647 -0.107018 1.13579e-19)
(0.878592 -0.0253949 -5.22136e-21)
(1.03091 0.0450277 8.07262e-22)
(1.18865 0.0420481 -2.56164e-21)
(1.08012 0.0350239 0)
(1.26332 -0.085691 -1.1621e-20)
(1.27292 -0.143968 0)
(1.00638 -0.00125414 -6.81143e-21)
(1.13347 -0.0513398 5.5356e-21)
(1.19126 -0.0924719 0)
(1.01161 0.0172656 -1.87125e-20)
(1.00409 0.0414404 1.52443e-21)
(1.24531 -0.255395 -5.24926e-21)
(1.17198 0.0523562 -4.51116e-21)
(1.39155 -0.19603 -2.82916e-20)
(1.1451 -0.0445019 3.14427e-21)
(1.15001 -0.0781323 0)
(1.11954 -0.00331909 6.084e-21)
(1.14954 -0.0482743 0)
(1.32811 0.225473 5.04419e-21)
(1.06858 0.0477598 -1.60142e-21)
(1.21017 -0.0609205 0)
(1.17102 -0.132144 2.38586e-21)
(1.23293 -0.106299 3.13011e-21)
(1.14804 0.0393509 1.15338e-22)
(-0.181274 -0.130492 0)
(1.21185 -0.215862 -2.30945e-21)
(1.15553 -0.0832363 0)
(1.42009 -0.122033 -2.30474e-20)
(1.13918 -0.0624557 -6.3593e-21)
(1.0411 -0.0289784 -6.99079e-21)
(1.29921 -0.1429 2.22361e-20)
(0.640168 0.0166383 0)
(1.1652 -0.0739956 0)
(1.42123 -0.354156 0)
(0.895569 0.0266293 -1.90344e-22)
(1.2156 -0.146893 -3.52921e-20)
(1.00767 0.0392542 0)
(1.05553 -0.0493894 -2.84499e-21)
(1.11547 -0.332917 -6.13707e-20)
(1.1554 -0.0498724 -4.70517e-21)
(1.15621 0.0229527 4.02422e-22)
(1.32803 0.498783 2.53111e-20)
(1.11536 -0.0386676 0)
(1.01684 0.287719 -1.82981e-19)
(1.34705 0.00768383 1.7903e-20)
(0.750433 0.0204451 0)
(0.845625 0.0372425 -8.78981e-21)
(0.967732 -0.108044 4.5119e-21)
(1.13989 -0.0518029 3.28258e-21)
(1.20291 0.00608126 1.45262e-21)
(1.26123 -0.237181 0)
(1.35419 0.285799 0)
(1.09403 -0.00289956 -1.33638e-20)
(1.42919 0.0671253 3.58669e-20)
(1.08431 -0.023144 1.40812e-20)
(1.31293 -0.137727 -1.11743e-21)
(0.965058 0.0268713 1.69509e-20)
(1.00419 -0.0240617 0)
(1.11323 0.01536 1.3658e-21)
(1.23035 -0.109779 -5.69944e-20)
(0.749314 0.0222796 -2.02e-21)
(1.33332 -0.0612252 0)
(1.32255 -0.109205 0)
(1.39815 -0.113411 -3.56175e-20)
(1.11809 -0.0412202 -2.19794e-21)
(1.13463 0.00526428 -4.10706e-23)
(0.952291 0.024058 1.15733e-20)
(1.19709 -0.000833921 -4.73126e-22)
(1.34619 0.00556765 -2.25334e-20)
(1.00194 0.00615149 1.21429e-20)
(1.45021 -0.0598341 0)
(0.816747 0.0555688 0)
(1.09772 0.0342506 3.47522e-21)
(1.19459 -0.223171 -9.69448e-21)
(1.2947 -0.0100003 1.18011e-20)
(1.04967 0.0492115 -1.2276e-19)
(1.15912 0.0421133 -1.36371e-21)
(1.14051 0.097495 6.3782e-21)
(0.785836 0.0204847 0)
(0.916927 -0.0439495 7.77813e-20)
(1.14931 0.0240966 -4.35103e-21)
(1.41188 -0.26737 -1.45227e-20)
(1.13034 -0.0544708 -4.91205e-21)
(0.930729 0.0142834 2.59456e-21)
(-0.253991 -0.0638913 0)
(0.859353 -0.0174963 1.99772e-21)
(0.801343 0.0249666 0)
(1.06372 0.000399528 -9.8451e-23)
(1.01301 0.028615 0)
(1.31808 0.319652 7.98324e-21)
(1.03323 -0.0559691 -3.42813e-20)
(1.26231 0.145143 3.13919e-21)
(1.1485 -0.069692 0)
(1.09244 -0.0241293 0)
(0.532528 -0.0143077 0)
(1.12866 -0.0397786 -2.82651e-21)
(1.25599 -0.0617324 6.56389e-21)
(1.06909 0.113694 -3.25871e-20)
(0.843488 -0.0198598 0)
(1.10705 0.0242977 -1.01352e-21)
(1.05937 -0.076223 2.41295e-21)
(1.17013 -0.0182912 -1.90674e-21)
(0.991071 0.034813 3.08141e-21)
(1.13568 0.00349613 3.44312e-23)
(0.015762 0.0876649 0)
(1.09668 -0.0264357 -1.56976e-20)
(1.17116 0.0279966 1.63722e-22)
(0.716896 0.0246434 -2.77446e-21)
(1.26626 0.169319 2.71357e-21)
(0.955593 -0.0265391 5.91009e-21)
(1.04688 0.0162036 1.78255e-20)
(0.990131 0.0261038 0)
(1.11699 -0.0967737 -4.60073e-21)
(0.971151 0.0132856 0)
(0.938955 0.0300133 5.69919e-21)
(0.969942 0.287026 1.46477e-19)
(0.97282 0.0353664 0)
(0.818292 0.106687 0)
(-0.0982606 0.0782716 -6.94896e-20)
(1.34755 0.130675 -1.35708e-20)
(0.688149 -0.0224565 0)
(1.47465 0.00514161 0)
(1.15773 -0.0555213 0)
(1.35909 0.0767823 1.55459e-20)
(-0.0363476 -0.0544401 0)
(-0.0516355 0.113881 3.37051e-20)
(0.940806 -0.0547501 6.59163e-20)
(1.00772 0.0405665 7.97111e-22)
(0.858763 0.000612209 0)
(1.0307 -0.042892 7.57119e-21)
(0.893946 0.0228083 0)
(0.673748 -0.0301058 -7.12522e-20)
(1.023 0.0441309 7.90244e-21)
(1.12599 -0.0645577 2.09229e-21)
(1.09756 0.00870557 6.44229e-21)
(1.01528 0.0713644 -1.15732e-20)
(0.639498 -0.0663751 -5.884e-21)
(1.13163 -0.348678 7.78911e-22)
(0.917511 -0.0257097 0)
(1.06942 -0.0011837 -1.47259e-20)
(0.873296 0.0104182 -1.01567e-20)
(1.36928 -0.181785 1.69657e-21)
(0.694382 0.0237154 0)
(1.02199 -0.143682 0)
(1.10485 -0.0544813 2.03616e-21)
(1.39737 0.213508 1.08557e-20)
(1.11891 0.0175759 4.51876e-21)
(1.03694 0.0166955 2.05415e-20)
(0.774012 0.00435264 -8.20606e-20)
(0.813495 0.0035744 1.86706e-20)
(1.13591 -0.016916 3.58885e-21)
(1.38819 -0.107135 -4.22585e-21)
(1.10182 -0.0605331 -4.53507e-21)
(1.32417 -0.0667383 3.62105e-21)
(-0.105835 0.0942197 5.0943e-20)
(1.2838 -0.0513231 0)
(0.612899 -0.0217671 0)
(1.06177 -0.029457 -7.41492e-21)
(1.10334 0.0107581 5.50736e-21)
(0.0853789 0.0939333 0)
(0.875804 -0.0223431 3.04001e-22)
(1.09538 -0.0472799 -2.93179e-21)
(0.962281 0.0232509 1.03987e-21)
(1.07923 0.0370832 -7.03267e-21)
(1.00652 0.02015 2.77303e-21)
(1.03243 -0.0421532 2.5862e-21)
(1.05024 0.0344927 0)
(0.318061 -0.0335222 0)
(1.04836 -0.0623489 0)
(1.16142 0.105922 -3.01551e-20)
(-0.0422439 -0.0474595 4.23996e-20)
(1.0828 0.0230384 -1.10165e-23)
(1.20442 0.128382 0)
(0.752498 0.0205969 -5.63365e-21)
(1.18104 -0.0820736 9.84969e-22)
(-0.00504628 -0.0376342 -1.35298e-19)
(0.713721 -0.00834434 -3.67154e-20)
(0.631187 -0.0214508 0)
(0.986604 -0.0763857 0)
(0.937892 0.0350959 7.18699e-21)
(0.988466 -0.110804 5.09264e-21)
(1.28533 0.398109 4.79408e-22)
(1.13288 -0.088463 1.7097e-23)
(1.11342 -0.0876914 -5.43384e-21)
(1.00298 -0.0704888 0)
(1.36886 0.424054 -4.0298e-20)
(0.659111 -0.0163667 0)
(0.799233 -0.0232544 -3.71102e-21)
(1.05299 -0.0281093 2.62755e-22)
(0.586094 0.0170003 0)
(1.10029 -0.00607348 0)
(0.0124352 -0.0121148 -3.49885e-20)
(1.06346 -0.0861996 -1.08724e-20)
(0.718476 -0.0185887 2.42252e-21)
(0.990373 -0.00292824 0)
(0.556625 -0.0173042 0)
(0.757142 -0.0188091 -3.61517e-21)
(0.531377 -0.0218455 -7.49965e-22)
(1.32996 0.021707 3.09673e-22)
(1.28934 0.129308 -2.95479e-21)
(0.693918 0.0183323 -1.52501e-21)
(1.11673 -0.0424572 1.81645e-22)
(1.1705 -0.103208 -1.61116e-23)
(0.541866 0.0157698 4.07319e-21)
(1.20832 -0.0682308 1.37612e-23)
(1.16853 -0.0515904 0)
(0.90961 -0.132165 0)
(0.491647 0.0183393 0)
(1.03234 -0.0233097 0)
(1.20462 0.0189021 -1.5043e-21)
(1.0382 -0.0734989 0)
(1.14546 -0.0359349 0)
(1.00787 -0.0635591 0)
(1.04513 -0.091938 0)
(-0.0197806 -0.0288873 4.12187e-20)
(1.25883 -0.0135805 6.97987e-22)
(1.0377 -0.0598956 0)
(1.36738 -0.0106096 1.80878e-20)
(1.18537 -0.00218682 1.0829e-21)
(1.10976 0.0545514 6.44939e-22)
(1.15451 0.0220232 5.00885e-21)
(1.1831 -0.00600598 0)
(0.57954 -0.0168852 7.47977e-21)
(1.05257 0.0429071 1.1256e-20)
(1.17394 -0.0161373 0)
(1.23536 -0.0543277 -1.0605e-21)
(1.17075 0.000854425 2.18864e-21)
(0.616156 0.239603 -4.27695e-21)
(1.14535 0.0425355 2.95291e-21)
(1.22233 -0.000637013 -4.50557e-21)
(1.00625 0.0791569 0)
(1.14018 0.00793628 -2.19235e-20)
(1.09955 0.0404911 -4.84283e-21)
(0.674387 -0.141672 9.39899e-22)
(0.908234 0.141509 0)
(-0.0164009 -0.0202835 0)
(0.97646 0.115556 -1.76618e-20)
(1.17558 -0.029954 0)
(1.24647 -0.0547011 1.25727e-20)
(1.16032 0.041958 8.40965e-22)
(1.22508 -0.0379137 4.33166e-21)
(1.1213 0.0432584 -1.82311e-21)
(1.33324 -0.0698972 8.32803e-20)
(1.01297 -0.320061 6.19565e-20)
(1.11844 -0.0191988 -6.75441e-22)
(1.03184 0.090897 0)
(0.882539 0.137314 0)
(0.906573 0.00292883 -3.02208e-20)
(1.22072 -0.116619 -3.57076e-20)
(1.19839 0.0291083 0)
(0.52687 -0.189648 1.04358e-20)
(0.301717 0.19575 0)
(0.681555 0.125893 7.42269e-21)
(0.776315 -0.131844 -1.2116e-20)
(0.823313 0.0279028 -4.41586e-21)
(1.14468 0.0140466 0)
(1.26876 0.0905063 -9.80974e-22)
(1.1577 0.117074 2.98813e-21)
(0.653785 -0.00215036 -9.99404e-21)
(1.17756 0.0331689 -4.49654e-21)
(0.833269 0.0291296 0)
(1.09219 0.0699318 0)
(1.01128 0.0335735 1.05923e-20)
(0.763489 0.0393149 -7.49815e-21)
(1.26374 0.0168298 7.47492e-21)
(1.15101 -0.0130816 -4.1411e-21)
(1.03341 0.130449 5.57436e-22)
(1.15145 -0.0243254 0)
(0.406565 -0.136006 1.2532e-20)
(1.34001 0.0742384 -2.25012e-20)
(0.926896 -0.0362454 -1.04535e-21)
(0.10922 0.2119 4.52182e-21)
(1.41268 -0.163015 2.03374e-20)
(0.947941 -0.0671765 7.69159e-20)
(1.18692 0.0557344 -1.07921e-20)
(1.11756 -0.0167441 -7.83575e-22)
(-0.065338 -0.0444767 -7.24064e-21)
(1.00103 -0.00724173 0)
(1.03385 -0.0853233 -1.67628e-20)
(0.853071 -0.0338534 5.77042e-21)
(1.10814 -0.0591131 3.37932e-21)
(0.704121 -0.0900854 -5.17557e-22)
(0.502429 -0.0198828 -1.76089e-23)
(1.40243 -0.38741 -1.49979e-20)
(1.14905 0.0407807 0)
(1.02577 0.0235844 -1.48585e-21)
(1.14423 0.0382356 -2.07086e-21)
(1.25986 0.0349957 0)
(0.69067 0.124984 -5.97276e-21)
(1.14094 0.0305418 2.98389e-21)
(0.632823 -0.149554 2.18858e-20)
(1.14874 -0.0313256 2.51912e-21)
(0.864136 0.106114 4.20354e-21)
(-0.0381659 0.0235372 0)
(0.61351 0.238876 3.45774e-20)
(1.17489 0.0459037 0)
(1.00969 0.245735 1.53833e-20)
(0.936654 0.258756 0)
(1.12696 -0.0069191 1.12279e-21)
(1.01613 0.0264076 0)
(1.03718 0.0875003 0)
(1.39104 -0.140345 1.75507e-20)
(0.793375 -0.0806085 0)
(1.21112 -0.185967 7.22435e-21)
(1.11288 -0.0346738 1.19027e-22)
(1.06856 0.0374107 2.48854e-21)
(1.25015 -0.0784447 -8.34109e-21)
(1.24608 0.114447 -6.51772e-21)
(1.24136 -0.100789 1.61457e-20)
(1.18738 0.0265989 0)
(1.1891 -0.0350841 0)
(1.12687 0.0251841 2.02193e-21)
(1.21833 -0.021805 0)
(1.42566 0.20977 -2.75363e-20)
(0.742305 -0.153432 -1.5053e-21)
(1.02722 0.0161601 2.03349e-20)
(1.29252 0.0128443 -3.31248e-22)
(-0.0134584 0.0255944 0)
(-0.0257358 -0.0396966 0)
(0.0195949 0.0498957 -3.44118e-20)
(-0.0668734 -0.0545328 0)
(0.675011 -0.178501 -1.03433e-20)
(1.17465 0.0379664 -2.03833e-21)
(1.1887 -0.0503623 -3.71493e-21)
(1.2275 -0.0287919 -2.13662e-21)
(1.19317 -0.0289304 0)
(0.674646 -0.0177923 -1.7044e-21)
(1.1506 0.0217193 0)
(1.13498 0.0161384 1.40753e-21)
(0.492992 -0.107902 0)
(0.80882 -0.122496 -1.47404e-22)
(1.11196 0.0371312 0)
(1.1404 0.0413163 0)
(0.662702 -0.0142312 4.146e-20)
(0.631293 -0.0566829 -1.18847e-21)
(0.784131 -0.0480117 2.71903e-21)
(1.01153 0.0180437 -1.00746e-20)
(0.14475 -0.0617523 0)
(1.25145 -0.153192 -1.232e-20)
(1.24062 0.0968002 -6.85323e-21)
(1.15756 -0.142681 -1.6479e-21)
(0.76537 -0.0046923 -1.19426e-21)
(-0.0536473 -0.00180486 -8.95314e-20)
(1.12447 0.0715534 0)
(-0.0350642 0.0446628 0)
(1.16304 0.111513 2.62729e-21)
(0.427585 0.176537 1.28526e-21)
(1.13985 0.0584571 -6.64637e-21)
(1.11789 -0.0378665 0)
(1.19745 -0.0838206 3.00491e-21)
(1.14966 -0.12199 4.3932e-21)
(0.520708 -0.0459843 -8.43093e-21)
(1.1423 -0.030652 -8.5979e-22)
(1.19092 -0.0338791 -1.74431e-22)
(-0.0966918 -0.0149523 9.22364e-21)
(1.27201 -0.0437974 -3.57751e-21)
(1.1428 0.0432181 0)
(1.13181 0.0548528 0)
(1.18557 -0.0286128 1.92511e-21)
(1.17975 0.0938679 6.19369e-21)
(0.501718 -0.136878 -1.84417e-20)
(1.18961 -0.127162 -1.97091e-20)
(1.11822 0.0602283 3.78863e-21)
(0.515025 -0.000814195 1.07976e-20)
(0.158229 -0.118849 -7.61283e-20)
(-0.0568776 -0.360109 1.62727e-20)
(1.1771 0.185384 -6.71294e-21)
(1.22342 -0.491619 3.49525e-21)
(1.4317 0.0485785 -1.58691e-20)
(1.19592 -0.0333846 -2.28137e-21)
(0.932394 -0.227802 9.68791e-20)
(-0.268281 -0.181367 0)
(1.19229 -0.0701719 -1.76662e-23)
(0.234243 0.105659 -2.48108e-20)
(1.14673 0.10241 -2.27342e-21)
(1.13921 -0.0374088 7.36977e-21)
(1.09464 0.0386862 0)
(0.580313 0.102357 0)
(1.17537 -0.0588363 0)
(1.27036 0.233855 -7.08631e-21)
(1.27743 -0.0314452 -2.42523e-20)
(1.15253 -0.0371118 -2.89343e-22)
(0.4543 0.0175267 0)
(0.604669 0.0116173 0)
(0.602801 -0.0027937 5.75077e-22)
(0.42192 -0.0134916 0)
(1.15588 0.0797469 0)
(1.02047 -0.0139506 2.69871e-20)
(0.111493 0.280738 0)
(0.912374 0.0336215 0)
(1.14626 -0.0324507 0)
(1.17739 0.182613 -4.41355e-21)
(1.28659 0.0419205 1.29312e-20)
(0.966832 -0.0295727 5.86494e-21)
(1.27495 -0.399269 -9.83305e-20)
(0.418886 0.0110286 -4.98277e-21)
(1.21407 -0.00959845 7.32596e-21)
(1.26646 -0.0394428 0)
(-0.355139 -0.19044 0)
(-0.266096 0.0240135 0)
(1.15698 -0.029742 -2.65397e-21)
(1.3105 -0.293502 -1.48064e-20)
(1.36722 0.142165 0)
(1.09514 0.0318307 -7.48968e-21)
(0.354238 -0.182935 0)
(1.4943 -0.181893 6.06093e-20)
(0.415559 0.526087 1.10827e-19)
(0.260484 -0.0359548 0)
(1.08172 -0.276266 1.05541e-19)
(0.228106 -0.164563 0)
(-0.253741 -0.0638503 6.25502e-22)
(1.40233 0.105672 0)
(-0.0982241 -0.0327608 -5.74087e-22)
(0.98362 -0.0500019 0)
(1.22711 -0.0489247 -4.68924e-21)
(-0.143509 0.021097 -7.0721e-21)
(1.1236 -0.0270133 7.99976e-22)
(1.22242 -0.13795 -1.94264e-21)
(0.567168 -0.503751 -9.43106e-20)
(1.12656 -0.00721806 -1.81185e-21)
(1.19116 -0.134151 6.08798e-21)
(1.18659 0.249666 -1.85008e-20)
(1.13623 -0.0562118 4.4951e-21)
(1.15375 -0.0129726 -4.03299e-22)
(-0.0884292 -0.210865 -6.45557e-20)
(0.0824169 0.113171 -7.72636e-21)
(1.2019 0.0526385 3.14394e-21)
(1.06002 -0.0517424 0)
(0.426486 -0.0280103 -9.94562e-21)
(1.38596 -0.442378 7.1419e-20)
(0.8978 -0.0721159 -5.13141e-20)
(1.45381 0.143579 8.333e-20)
(1.09237 -0.0518349 2.30385e-21)
(1.26524 -0.0750872 2.74634e-21)
(1.0613 -0.00793595 0)
(1.18986 -0.0287992 0)
(1.24267 -0.0361819 9.02641e-22)
(1.08761 -0.0210489 -4.48952e-21)
(1.09709 -0.0398607 -4.40552e-21)
(1.08764 0.0473927 -5.9322e-21)
(1.43235 -0.0679608 -4.09635e-20)
(0.448778 0.0354647 0)
(1.24605 -0.0224029 2.84934e-21)
(1.36897 0.0770036 0)
(1.10422 0.0588243 -2.60406e-21)
(1.14333 0.0227797 0)
(1.04246 -0.00995197 1.42647e-20)
(1.23241 0.0306704 1.57014e-20)
(1.09825 0.0168638 0)
(0.0519871 -0.028591 1.43721e-19)
(0.881651 -0.206052 -7.59836e-20)
(1.2145 -0.0878419 -2.41139e-20)
(-0.119505 0.0222927 3.91012e-20)
(1.20788 0.0358698 3.67654e-22)
(0.698338 0.0424096 3.19041e-21)
(-0.0952947 0.0581795 -4.07599e-20)
(-0.0274244 0.0566307 -2.66027e-20)
(1.01763 -0.0301749 0)
(-0.0269957 -0.0291203 0)
(1.24611 -0.000268473 0)
(0.111179 -0.0944063 0)
(1.11651 -0.0257831 0)
(0.134236 0.0319021 0)
(1.12159 0.0562498 0)
(1.23338 0.132193 0)
(1.33995 0.127141 -2.2764e-21)
(0.566733 -0.281091 -1.9333e-20)
(-0.133764 0.128374 0)
(1.09655 -0.100756 5.33884e-20)
(1.24038 -0.0379112 2.37652e-21)
(1.30066 -0.0256243 0)
(-0.0354549 -0.0383397 0)
(1.15988 0.00968858 3.72454e-21)
(1.16575 -0.0101424 -1.87623e-21)
(1.17494 0.392902 0)
(0.216106 -0.0526677 5.24771e-20)
(1.12082 0.0561804 1.06479e-21)
(0.228011 -0.0506308 -4.88393e-20)
(-0.0613827 0.0505288 -3.26046e-20)
(-0.035732 0.0498421 8.41372e-20)
(0.5425 -0.0267501 4.5572e-20)
(1.06428 -0.0376323 -3.00198e-21)
(1.13506 0.0683691 -1.01663e-21)
(1.02332 -0.00804349 0)
(1.06938 -0.0719007 -2.35084e-20)
(1.26563 0.0630215 -1.38983e-20)
(-0.00929802 0.00197191 9.29415e-20)
(0.978212 -0.0708411 -6.1546e-20)
(0.574208 0.102923 1.57285e-20)
(1.0899 -0.0213969 -4.20462e-21)
(0.072611 -0.029048 3.06324e-20)
(0.240197 -0.0369823 -4.39191e-20)
(0.375902 -0.0441901 -4.75689e-20)
(1.21345 0.17618 -1.7699e-21)
(-0.050947 -0.0302195 0)
(0.933547 0.151582 7.59405e-21)
(1.14519 -0.0229355 9.25281e-21)
(1.13052 0.0119353 -8.92045e-21)
(1.26374 -0.0509861 0)
(1.50573 -0.236542 6.19172e-20)
(1.12857 0.0415948 -2.53224e-21)
(-0.0111023 -0.015996 -3.08589e-20)
(0.316917 0.0881662 0)
(0.895831 0.0288416 -1.55772e-21)
(1.14151 0.0239426 -1.68013e-22)
(0.741396 -0.167346 1.01066e-20)
(1.15991 0.00913865 -1.19731e-21)
(1.11786 0.0490144 0)
(1.11884 -0.172285 -1.34108e-20)
(-0.100754 -0.0278528 -5.86289e-20)
(1.31634 -0.0449719 1.83035e-20)
(1.10518 0.175561 -8.90153e-21)
(1.09302 0.0413641 6.78456e-21)
(-0.0369467 -0.0405192 1.3851e-20)
(-0.0268148 0.0481613 -6.46673e-20)
(0.610449 0.00718313 0)
(0.822081 0.0722993 0)
(1.1546 0.0975781 -1.45987e-20)
(1.05212 0.0687806 1.18657e-20)
(1.11651 0.0181086 0)
(0.386525 -0.0268523 3.53872e-20)
(0.737148 0.0915183 -1.16105e-20)
(1.10018 0.109001 0)
(1.09297 0.0298931 0)
(1.38709 0.10559 0)
(1.23619 0.0642275 0)
(1.20324 -0.029964 2.18544e-21)
(-0.0430324 0.0461008 3.56121e-20)
(1.21382 0.0778205 3.69946e-21)
(1.38161 -0.200186 -6.98496e-20)
(1.28443 0.00162557 -4.1628e-21)
(0.0462588 -0.0086833 0)
(1.19078 -0.0182371 0)
(0.61117 -0.0128335 -5.51441e-23)
(0.540916 0.00933237 -5.99925e-20)
(0.0717614 0.0366324 4.87189e-20)
(0.929236 0.0243377 1.65473e-21)
(0.729944 -0.26915 0)
(0.663176 -0.0891894 0)
(1.26076 0.0156244 0)
(0.544571 0.519364 2.3828e-20)
(-0.0196153 0.0429874 -2.99305e-20)
(1.04492 -0.0447998 -3.13307e-21)
(-0.0181761 -0.0147471 5.79716e-20)
(1.10386 -0.0438751 2.91477e-21)
(1.18017 0.317147 3.52858e-20)
(1.1118 -0.0936316 9.55368e-21)
(0.31022 -0.116057 8.41845e-20)
(1.00926 0.0367572 4.91684e-21)
(1.19955 -0.121122 0)
(0.56318 0.273617 0)
(0.930017 0.0658731 2.33809e-21)
(-0.204955 0.0770743 0)
(0.609256 0.0280774 2.15245e-21)
(0.594903 -0.410697 -2.6225e-21)
(0.240875 0.0497442 -1.14192e-19)
(1.12068 -0.226526 3.7564e-20)
(1.04349 0.370804 1.00162e-20)
(0.978929 0.0229806 0)
(1.25361 -0.105026 9.98119e-23)
(0.63175 0.0151888 0)
(0.978107 -0.0196185 -7.1096e-22)
(0.42196 -0.0174788 0)
(0.712018 0.139929 0)
(1.0013 -0.0211738 -3.08733e-21)
(1.44244 0.169032 -1.55881e-20)
(1.08996 -0.0295994 4.08999e-21)
(0.515057 -0.483648 0)
(1.13105 -0.15738 3.48382e-21)
(0.807294 0.387091 7.01053e-20)
(-0.0404698 0.0205859 1.18497e-21)
(1.21288 -0.0251563 1.02987e-20)
(1.21191 0.0277336 -1.19944e-20)
(1.13024 -0.0373042 8.51335e-22)
(0.788212 0.012377 -3.34398e-21)
(0.0621249 0.0189731 3.79201e-20)
(-0.0186486 0.020279 -5.23992e-20)
(-0.224733 0.0466102 0)
(-0.188344 0.170708 0)
(1.17105 -0.609328 2.89439e-20)
(1.14763 -0.0239761 3.93533e-22)
(0.874378 -0.458744 -3.76193e-20)
(1.02739 0.174974 -1.66818e-20)
(1.37625 0.197582 3.54574e-20)
(0.608343 0.42458 0)
(0.248701 0.423088 -1.13349e-19)
(0.599292 0.492555 0)
(0.076428 0.0593833 0)
(1.11255 -0.474897 0)
(-0.0498899 0.0744265 -4.28324e-22)
(1.20319 -0.0258794 0)
(0.948442 0.187337 -3.90935e-20)
(0.600791 0.702394 2.08052e-20)
(1.35814 0.213379 1.4838e-20)
(-0.0384757 -0.053062 -9.7263e-20)
(0.824625 0.24663 -2.8756e-20)
(0.455678 0.145654 -1.37567e-20)
(1.20564 0.0874024 0)
(1.36932 0.356803 3.69965e-20)
(1.23046 0.571861 8.7842e-21)
(0.159473 -0.0141908 -2.24806e-20)
(1.01941 0.134159 3.33803e-20)
(0.928472 -0.0268932 4.20118e-22)
(0.905607 0.0268257 -3.83328e-22)
(-0.00345657 -0.0231941 0)
(0.638658 -0.639506 -3.20704e-20)
(0.614085 0.212778 0)
(0.0318103 -0.075576 0)
(-0.0509557 0.0726946 0)
(-0.0228999 -0.057708 -3.64411e-20)
(1.23221 -0.00491299 -1.18395e-20)
(-0.0246291 0.0778896 0)
(-0.0379115 0.0761592 0)
(1.4449 0.113504 -8.00619e-20)
(-0.0350816 -0.0528495 4.41457e-20)
(0.116029 0.241921 -1.00609e-19)
(0.389751 0.0185459 0)
(0.166947 -0.267532 8.30878e-20)
(1.06669 -0.237795 0)
(0.990853 -0.280049 0)
(-0.0121608 -0.0537704 9.1191e-20)
(1.14835 0.0333556 -4.55914e-23)
(1.13119 0.347955 2.75471e-20)
(0.263501 0.0284647 4.70815e-20)
(0.397835 -0.507475 -4.17594e-20)
(1.31409 0.0679264 0)
(1.22964 0.197016 2.25597e-20)
(1.22786 0.211781 -2.77102e-20)
(0.103058 0.0986643 -2.35012e-20)
(-0.0630655 0.0529244 0)
(1.06844 -0.0586921 -1.99055e-20)
(1.09682 -0.221148 -1.84495e-20)
(0.57769 -0.391456 0)
(1.09501 -0.148522 -2.79539e-20)
(-0.0559285 0.144794 0)
(0.618264 0.0522848 0)
(1.44958 -0.0117409 3.50658e-20)
(0.975 0.0251025 3.76742e-22)
(1.08516 0.752903 -1.48529e-20)
(0.221802 -0.369374 1.37662e-19)
(1.0795 0.02637 -1.00862e-21)
(1.20884 0.0704147 7.87467e-22)
(-0.0534981 0.0986608 3.0565e-20)
(0.793864 0.740854 2.6616e-20)
(1.33483 -0.371872 -1.29e-20)
(-0.195661 -0.165562 5.9792e-20)
(1.1468 0.04618 0)
(0.283006 -0.0356799 -9.38183e-21)
(0.884857 -0.626425 2.36543e-21)
(0.906864 0.647134 -2.16288e-20)
(0.529387 -0.0352464 -5.67809e-20)
(1.14316 -0.00818058 -1.41866e-21)
(1.07548 -0.0867847 7.94517e-21)
(1.16273 0.0651182 -5.36597e-22)
(1.10777 0.120502 3.41632e-21)
(1.12962 -0.133138 0)
(0.916175 0.111052 1.46775e-20)
(0.892963 0.462276 0)
(1.3203 0.14828 5.69432e-21)
(1.1706 0.110882 -9.71509e-22)
(0.757013 0.265816 0)
(0.523607 0.110911 1.08923e-19)
(0.900124 0.721158 -7.3082e-22)
(1.08299 0.29429 -2.11558e-20)
(1.04378 -0.0121524 1.32953e-20)
(0.418402 0.504531 0)
(1.28203 -0.471445 0)
(0.689345 -0.124093 5.79509e-21)
(1.27163 0.507394 0)
(-0.0243199 0.0615561 -4.30594e-20)
(1.27134 -0.414876 9.75275e-22)
(1.1724 0.515734 0)
(0.453215 0.231071 1.69364e-19)
(1.13083 0.318655 -1.2187e-19)
(0.805747 -0.628128 -2.83817e-20)
(1.16957 0.0659398 -2.77947e-21)
(0.922414 0.153055 8.23838e-20)
(1.09226 0.170341 5.06872e-20)
(1.07832 0.710881 -1.16957e-22)
(0.895253 -0.428711 6.91735e-20)
(1.44213 0.174628 4.26508e-20)
(1.12834 0.00783416 -4.29025e-22)
(0.00335045 -0.0346043 8.24417e-20)
(1.06884 -0.693574 1.75312e-20)
(0.860131 -0.708327 6.0011e-20)
(0.247663 -0.315211 0)
(0.970689 -0.143624 7.63304e-20)
(0.364481 0.322106 -4.39537e-19)
(-0.13293 0.0524717 1.88359e-20)
(0.246992 0.0524707 2.28618e-20)
(0.658284 -0.0580017 -6.73012e-20)
(1.08629 0.536636 0)
(0.99434 0.226172 8.02325e-20)
(1.08735 0.0305628 3.23576e-21)
(0.916448 0.451062 -9.03869e-20)
(0.769386 -0.713257 -9.82033e-21)
(0.927788 0.0291768 -4.98045e-20)
(0.983056 0.497674 0)
(1.2365 0.224837 -1.94699e-20)
(1.36619 -0.512951 1.11626e-20)
(1.21869 -0.339512 8.24757e-21)
(-0.202867 0.017904 3.66653e-20)
(0.193857 0.0208914 -1.82892e-20)
(0.971259 -0.114106 -5.93092e-20)
(0.357282 0.537301 0)
(0.916821 0.0236415 3.96837e-20)
(1.164 0.641563 8.19785e-20)
(-0.100852 -0.0340231 1.24887e-19)
(-0.0643915 0.0946064 -2.55368e-20)
(-0.082933 -0.0126607 3.796e-20)
(1.09676 0.022506 -4.29837e-21)
(1.11416 -0.456023 0)
(1.05421 -0.724777 -5.01656e-20)
(0.701702 0.359772 0)
(-0.00412754 -0.0273334 -8.73749e-20)
(1.10508 0.0277646 4.36067e-21)
(-0.0311193 -0.0227642 -2.59216e-20)
(1.04901 0.0555793 -1.24243e-20)
(0.103826 0.034446 5.5805e-20)
(0.851829 0.128952 0)
(1.38041 -0.0758815 4.00425e-20)
(0.0569994 0.0663879 -2.59566e-20)
(-0.230897 0.0753449 -4.35371e-20)
(-0.244237 0.0985938 0)
(0.0780983 -0.00977251 0)
(1.33823 -0.0399408 -9.95509e-21)
(0.36761 -0.0101456 1.38446e-19)
(1.25086 -0.718877 -1.25021e-20)
(0.949859 -0.196339 3.00854e-20)
(1.07713 0.25439 -2.96342e-20)
(0.361726 -0.542007 1.44439e-19)
(1.55842 0.279131 -3.55241e-20)
(0.0516162 -0.0401309 3.16937e-20)
(0.20986 0.320506 1.95927e-19)
(0.0834264 -0.0208428 -1.19376e-19)
(0.935181 -0.484942 -4.52154e-20)
(1.46193 0.390373 3.59626e-20)
(0.55719 -0.662728 5.19658e-20)
(1.10612 -0.0865244 -7.77532e-21)
(0.148401 0.0408105 4.67065e-20)
(1.18897 0.293514 -4.84897e-20)
(0.666972 0.650929 -3.9956e-20)
(1.31919 -0.617946 0)
(1.42562 0.523256 3.42803e-20)
(1.04281 -0.521543 -1.19887e-20)
(1.39686 0.611388 -1.03065e-19)
(1.1952 0.0349509 0)
(-0.054998 0.0959811 0)
(1.25943 0.736255 0)
(1.22374 0.0803694 -4.10117e-21)
(0.735173 -0.291807 -2.11715e-19)
(0.475644 -0.0709025 0)
(-0.0540133 0.110522 -2.58955e-20)
(1.01884 -0.243895 1.05074e-19)
(-0.322399 -0.0547472 0)
(0.321619 0.0399829 1.23573e-20)
(1.15679 0.038317 0)
(1.42282 0.27657 0)
(1.20159 0.0618058 2.97635e-21)
(0.358295 -0.277575 0)
(1.01539 0.153513 3.73277e-20)
(1.31544 0.287831 0)
(-0.0835937 0.0992842 -6.6553e-22)
(0.807449 -0.38617 0)
(1.52485 0.338754 -5.35374e-20)
(1.2474 0.373345 -4.1845e-22)
(0.846908 0.656516 -9.6855e-21)
(1.01434 0.159879 -8.85614e-20)
(0.966603 -0.200112 -5.08906e-20)
(1.46061 0.29564 3.15148e-20)
(1.02739 0.106421 0)
(0.563756 -0.0602703 0)
)
;

boundaryField
{
    FrontBack
    {
        type            empty;
    }
    Top
    {
        type            noSlip;
    }
    In
    {
        type            fixedValue;
        value           uniform (1 0 0);
    }
    Bottom
    {
        type            noSlip;
    }
    Out
    {
        type            zeroGradient;
    }
    circle
    {
        type            noSlip;
    }
}


// ************************************************************************* //
