/*--------------------------------*- C++ -*----------------------------------*\
| =========                 |                                                 |
| \\      /  F ield         | OpenFOAM: The Open Source CFD Toolbox           |
|  \\    /   O peration     | Version:  2412                                  |
|   \\  /    A nd           | Website:  www.openfoam.com                      |
|    \\/     M anipulation  |                                                 |
\*---------------------------------------------------------------------------*/
FoamFile
{
    version     2.0;
    format      ascii;
    arch        "LSB;label=32;scalar=64";
    class       volScalarField;
    location    "1364";
    object      yPlus;
}
// * * * * * * * * * * * * * * * * * * * * * * * * * * * * * * * * * * * * * //

dimensions      [0 0 0 0 0 0 0];

internalField   uniform 0;

boundaryField
{
    FrontBack
    {
        type            empty;
    }
    Top
    {
        type            calculated;
        value           nonuniform List<scalar> 
15
(
142.2886054719502
133.575496171278
138.0622159810115
144.3962892884182
159.7621201361167
131.3666985659792
140.1264819844511
135.3470231344656
153.4548173803136
135.724094565575
136.0841352879604
136.7753000014109
125.2624986507983
132.9123172690349
123.9569823040062
)
;
    }
    In
    {
        type            calculated;
        value           uniform 0;
    }
    Bottom
    {
        type            calculated;
        value           nonuniform List<scalar> 
15
(
155.5679685763321
158.1182884266809
141.0950771528513
142.0506132612814
141.1818309248242
148.435759151168
142.7075660492896
143.149496442702
143.4212512963666
134.0644363395537
125.7298409506571
141.5600784721233
122.4056920888426
123.4853836811183
124.1338913865283
)
;
    }
    Out
    {
        type            calculated;
        value           uniform 0;
    }
    circle
    {
        type            calculated;
        value           nonuniform List<scalar> 
32
(
55.99420298282312
21.90187752511798
65.21717557236201
25.88863316563767
20.25482271179137
56.23914831147136
56.59361907774802
23.75608934666309
22.15929979219989
65.45961366406677
39.77080876959685
62.90332217551903
50.6568674870929
17.66192568259719
22.70834266373161
18.16708362570617
39.36132826286235
59.8318598177955
61.07173684168114
25.32721029502448
65.80208950925183
63.75169067588127
63.10642340724981
59.85732850942711
64.16838965899511
46.02308435906456
66.46849110084915
32.15136874825139
37.90707455010635
55.68185690533531
21.22982831299328
43.08283013455621
)
;
    }
}


// ************************************************************************* //
