/*--------------------------------*- C++ -*----------------------------------*\
| =========                 |                                                 |
| \\      /  F ield         | OpenFOAM: The Open Source CFD Toolbox           |
|  \\    /   O peration     | Version:  2412                                  |
|   \\  /    A nd           | Website:  www.openfoam.com                      |
|    \\/     M anipulation  |                                                 |
\*---------------------------------------------------------------------------*/
FoamFile
{
    version     2.0;
    format      ascii;
    arch        "LSB;label=32;scalar=64";
    class       volScalarField;
    location    "6.5";
    object      p;
}
// * * * * * * * * * * * * * * * * * * * * * * * * * * * * * * * * * * * * * //

dimensions      [0 2 -2 0 0 0 0];

internalField   nonuniform List<scalar> 
808
(
0.0983329
0.00966176
0.0342784
0.0980172
-0.260548
0.00860515
0.00953016
0.0214462
-0.15802
-0.0508971
0.0393842
-0.174818
0.0217932
0.0024334
-0.339474
0.0199686
-0.358553
0.0168474
0.0314767
-0.00265415
0.0437639
0.358885
0.0529911
-0.0178985
0.433417
-0.19988
-0.0858101
0.0128234
0.0187764
0.0144443
0.0182909
0.00201707
0.0216002
0.0130699
-0.107823
0.60086
0.00694243
0.0131351
0.0192687
0.019118
-0.0769055
-0.0840114
0.0209748
0.0291547
-0.202957
0.0721847
0.0176181
-0.0174069
0.00915007
-0.198558
0.0192861
-0.00441022
0.0300441
0.00539435
-0.110134
-0.000661452
0.00776694
0.037646
-0.0499538
-0.00695466
-0.306695
-0.0243262
0.0334215
-0.209664
0.0315312
0.0302981
-0.310877
0.0218525
0.0375979
-0.310568
0.015051
-0.347848
0.0188327
0.0254296
0.158363
0.0226463
-0.0186622
-0.0968787
0.0113076
0.290261
-0.137846
0.0187139
0.0189838
0.24873
0.0265239
-0.035836
-0.389289
-0.130179
0.0200998
-0.231631
0.0184631
-0.12882
0.239104
0.143067
0.0253592
-0.305289
0.0211443
-0.13607
-0.135535
-0.275387
0.012451
-0.0123931
0.0313603
-0.0271453
-0.105752
0.0425936
-0.235534
0.0150411
-0.00679031
0.000838915
-0.0673601
0.314933
-0.0147619
0.0471058
0.0125703
0.427364
0.0044076
-0.298101
0.0277053
0.0413317
-0.277244
0.0262874
-0.0158319
0.0371242
0.097648
-0.074314
0.0880892
0.0524244
0.00540659
0.0544741
-0.34908
0.023802
-0.0663895
0.102479
0.0225672
-0.000295234
0.047536
0.0104174
-0.0200621
2.82181e-05
-0.325671
0.0251013
0.0389935
0.012663
-0.0538609
0.0608019
0.0786943
0.134421
-0.022576
0.0118795
0.00925354
0.319982
0.0294188
0.512481
-0.319702
-0.122899
0.0124131
-0.24867
0.0419232
-0.142551
-0.338082
-0.319922
-0.338717
0.00884513
0.0449126
0.0274176
0.016138
-0.354369
0.0136468
0.0311385
0.0266761
0.135382
0.0610368
0.0947544
0.0182068
0.0467915
0.0596193
-0.184131
0.0241137
-0.376349
0.0302181
-0.166507
0.0127249
0.239415
-0.368327
0.100228
0.012324
-0.174621
0.0246183
-0.125017
-0.320896
-0.082739
0.0231174
0.0647975
0.0166224
-0.310149
0.0222623
0.0308523
0.00629638
0.0615321
0.0430655
0.0224533
0.0135663
-0.351605
0.35438
-0.29662
-0.334975
0.00613644
0.0284168
-0.00647455
0.0121774
-0.427092
-0.343508
0.0213652
0.00707934
0.0230004
-0.357949
-0.0626026
0.00714985
0.0289438
0.00351823
-0.112292
0.0254848
0.0272003
0.00822885
0.015083
0.114522
-0.355986
0.0392349
0.0200245
0.0992999
0.0227411
0.0218787
0.0168075
-0.117463
0.0229103
0.00530694
-0.00141023
0.00373197
0.0133696
0.00391462
0.00055271
0.00231799
0.00328946
0.00226858
0.000308053
0.00205992
0.00206478
0.00133852
0.0467416
-0.345562
0.00604078
0.0012584
-0.114558
0.00577069
0.00251901
0.0251712
0.000788236
0.0273495
0.103725
0.0317952
0.0123464
0.0120973
0.0781727
0.0184644
0.0174686
0.0143896
0.0433346
0.0120239
0.042066
0.0257262
-0.426641
0.256434
0.0170835
-0.0479542
0.0181436
0.0174795
0.0123087
-0.250406
0.250078
0.0243881
0.0270944
0.0181448
0.0650549
-0.146613
0.0196509
0.057388
0.0888732
0.0261755
0.0462159
0.0208503
0.0296615
0.0182498
0.0248224
0.0325401
0.0247172
0.0336273
0.0394723
0.0283471
0.0278513
0.0138043
0.0198429
0.0247978
0.0194745
-0.529542
-0.116336
0.0375954
0.0967209
-0.207691
-0.346393
0.0271202
0.0227593
-0.345447
0.106514
0.131852
0.0158768
0.0214552
0.0357646
0.00861218
-0.24622
0.0264527
0.00111583
0.0274243
0.0179488
0.020608
0.0264893
0.041906
-0.0017969
0.0234195
-0.313018
0.0775061
0.0283825
0.061806
0.0734651
0.00137738
0.209599
0.0233956
-0.189123
0.52237
0.0583774
0.000289596
0.0247337
-0.0679129
-0.0700705
0.0389417
0.0278289
0.0139796
0.0333019
-0.055584
-0.277627
0.0432143
0.0934508
-0.0406274
-0.302415
-0.339209
-0.371351
-0.346769
0.0576266
0.0261823
0.0313261
0.0237499
-0.022063
0.0120076
0.0296012
0.00258117
-0.524642
0.055534
0.0346644
0.0260135
-0.190866
0.0761221
0.00981584
0.0898607
-0.379487
0.0517208
-0.0147586
0.0474389
0.0791807
-0.314519
0.0310339
-0.330286
0.0187639
0.0968388
0.0247677
0.00958773
0.0332957
0.0167976
-0.368209
0.00333192
0.022586
0.0635195
0.0353741
-0.00112012
0.0284786
0.00204085
0.00875434
0.0262228
0.0114226
0.020866
0.00272742
-0.28814
-0.0800602
0.041251
-0.0325824
-0.0886937
-0.0135327
0.39917
-0.168105
0.00830356
0.0318526
0.0230475
0.0285447
0.0297893
0.0813345
-0.015625
0.0502375
-0.0628462
0.000531949
0.00133051
-0.0031675
-0.00349205
0.00442817
0.0230699
0.099198
0.118221
0.0161302
0.0124787
-0.000576122
-0.0404098
0.0212291
-0.397599
0.0723201
0.0435554
0.0125815
-0.0678543
-0.354575
-0.0108422
-0.111054
-0.0105805
0.0254881
-0.25455
-0.267749
0.201704
-0.343904
-0.475334
-0.0962041
0.0485329
-0.0325206
-0.337755
0.327977
-0.0218292
-0.343537
0.00572144
0.0545549
0.548868
0.010422
-0.0143238
0.0245046
-0.0109331
-0.0112401
-0.3289
-0.325855
0.0492488
0.0441566
0.0745173
-0.283461
-0.340213
-0.258183
0.0202412
0.0438501
0.0769921
-0.0291021
-0.0114428
0.0651296
0.0546724
0.0209192
-0.19296
-0.318396
0.0433882
-0.0532427
0.0233438
-0.0109227
0.0586454
-0.0629888
0.0155588
-0.4897
0.427786
-0.259341
-0.323601
-0.0283026
0.0143893
-0.321781
-0.301403
0.102619
-0.360625
-0.116456
0.840435
0.00877648
-0.381694
0.0019062
-0.0360609
0.0202717
-0.474788
-0.342585
-0.335334
0.00941753
-0.168293
-0.386642
-0.023524
-0.0270958
0.0793719
-0.346637
0.0131665
-0.523414
-0.344543
-0.405589
0.0230322
0.0133815
0.011202
0.0871155
0.103471
-0.0220459
-0.308604
0.280054
0.0781766
0.012601
-0.464037
-0.520937
-0.361318
0.0391822
-0.375102
0.0728102
0.078337
0.0581435
-0.194084
-0.25676
0.0150956
-0.326343
-0.316597
0.00698345
-0.0153112
-0.287369
-0.016662
0.0226237
-0.404899
-0.368588
-0.10877
0.0843869
0.0232682
-0.355095
-0.317395
-0.315807
-0.0833048
0.0189529
0.0863338
0.00498124
-0.354993
-0.314689
0.083526
0.0273531
-0.0818872
0.0276396
0.0364439
-0.35064
0.0210628
-0.294568
0.0362997
-0.390279
0.0592479
0.00539247
-0.384667
-0.475824
0.000886936
-0.490667
-0.484495
0.0309235
-0.0962007
-0.306144
0.00675531
-0.314883
0.0286819
0.059016
0.0412095
-0.372087
0.0570543
0.0758704
-0.47296
0.015213
-0.355052
0.0334775
-0.332444
-0.529563
0.0736164
0.252098
0.422628
0.00923325
0.00345517
0.00481774
-0.366903
0.624741
0.012614
-0.238389
0.0227709
-0.0885629
0.0591146
0.464499
-0.388964
-0.0510437
-0.0513474
0.0306608
0.00983895
-0.472211
-0.300244
-0.367157
-0.38268
-0.295481
-0.00165373
-0.377045
0.0541547
-0.28682
-0.334123
0.488182
0.567395
-0.351141
0.0869684
-0.308555
-0.0336928
0.00311166
0.382849
0.000140658
-0.347871
0.0616894
-0.528963
-0.0381773
-0.217453
-0.0420889
-0.330275
-0.295036
0.00426574
0.000528679
-0.347653
0.425216
0.655041
-0.364297
-0.324967
-0.363053
-0.0685663
-0.322414
-0.31169
-0.210788
-0.347514
0.732286
-0.357215
0.722136
-0.437763
0.305258
-0.341453
-0.0101068
0.155503
-0.519576
0.201658
-0.301595
-0.329479
-0.357625
0.84958
-0.30963
0.189067
0.122912
0.620236
0.102547
-0.423021
-0.306474
-0.163971
0.00998379
0.0635398
0.499799
0.0125426
-0.0378332
-0.312673
0.0943258
-0.148835
-0.29498
0.0239129
-0.41807
-0.179499
-0.179104
-0.395767
-0.00582312
0.0831499
0.00409445
0.0563173
0.0861754
-0.349604
-0.378395
0.00787902
-0.00531623
-0.485553
-0.532324
0.153218
0.174596
0.0722016
0.647573
-0.10587
-0.365012
-0.403003
-0.314758
-0.0861757
0.0621356
0.742605
-0.470858
0.351637
-0.00458362
-0.447231
0.138442
-0.0983593
0.360971
-0.176351
0.00419633
-0.358695
-0.101176
0.171402
0.791947
0.312723
0.739068
-0.391447
-0.312361
-0.443863
0.146097
0.250015
0.0448618
0.361392
0.113789
0.475948
0.256301
0.0152745
-0.213677
-0.00207107
-0.375737
0.862213
0.389289
0.627543
0.491467
-0.287872
-0.377898
-0.311283
-0.324247
0.0331846
-0.428099
0.0786913
0.575983
-0.396196
0.00807029
-0.320784
0.168218
-0.34278
-0.386933
-0.159472
-0.304507
-0.377416
-0.369444
-0.366759
-0.125595
-0.445662
-0.157179
-0.346517
0.12817
0.633268
-0.239186
-0.349087
0.806129
-0.34724
0.262782
-0.254237
0.36658
0.0682178
-0.37719
-0.416981
0.421657
-0.299983
-0.341069
0.164521
-0.295789
-0.0221355
-0.314936
-0.140449
0.0210934
0.546739
0.758215
-0.315506
0.205272
-0.353312
0.800451
-0.0123366
-0.331532
-0.0179686
0.741572
0.191343
-0.339878
-0.31091
0.430903
-0.229712
0.018196
0.32962
0.237485
0.275174
-0.270548
-0.359761
0.666892
)
;

boundaryField
{
    FrontBack
    {
        type            empty;
    }
    Top
    {
        type            zeroGradient;
    }
    In
    {
        type            zeroGradient;
    }
    Bottom
    {
        type            zeroGradient;
    }
    Out
    {
        type            fixedValue;
        value           uniform 0;
    }
    circle
    {
        type            zeroGradient;
    }
}


// ************************************************************************* //
