/*--------------------------------*- C++ -*----------------------------------*\
| =========                 |                                                 |
| \\      /  F ield         | OpenFOAM: The Open Source CFD Toolbox           |
|  \\    /   O peration     | Version:  2412                                  |
|   \\  /    A nd           | Website:  www.openfoam.com                      |
|    \\/     M anipulation  |                                                 |
\*---------------------------------------------------------------------------*/
FoamFile
{
    version     2.0;
    format      ascii;
    arch        "LSB;label=32;scalar=64";
    class       volScalarField;
    location    "774.5";
    object      yPlus;
}
// * * * * * * * * * * * * * * * * * * * * * * * * * * * * * * * * * * * * * //

dimensions      [0 0 0 0 0 0 0];

internalField   uniform 0;

boundaryField
{
    FrontBack
    {
        type            empty;
    }
    Top
    {
        type            calculated;
        value           nonuniform List<scalar> 
15
(
142.2723378399006
133.5519044162527
138.0635855985499
144.3852229386128
159.7612514300092
131.3669310453907
140.1088480824675
135.3418281015722
153.4350762116312
135.7384051361983
136.0812841995532
136.7794599100672
125.2378138181581
132.900961433126
123.9502319681193
)
;
    }
    In
    {
        type            calculated;
        value           uniform 0;
    }
    Bottom
    {
        type            calculated;
        value           nonuniform List<scalar> 
15
(
155.5668548569199
158.1115656865236
141.1063093038149
142.0814997297877
141.1897719166515
148.4594464100933
142.7159082405439
143.1699331910199
143.4228851684299
134.0651039426301
125.739307469147
141.5607397961945
122.4129725082672
123.4904642416789
124.1461578503345
)
;
    }
    Out
    {
        type            calculated;
        value           uniform 0;
    }
    circle
    {
        type            calculated;
        value           nonuniform List<scalar> 
32
(
56.21110827519808
21.74298391324955
65.23706544376037
25.52466577031085
19.88903207272288
56.27872174884884
56.70417223104256
24.08900833664374
22.11872903715726
65.45921557786114
40.03696848199561
62.95754436213416
50.48913075913968
15.64995271844899
22.94677329011781
19.48912995652065
39.09848492679885
59.73730876813156
61.09772724007367
26.50137926582158
65.80438529078882
63.73817429313968
63.06153450439076
59.8331293839353
64.1826553571172
46.08247437981151
66.45392154047413
32.24396293211983
37.85424767832316
55.64821327546025
21.41951075214118
43.0420848036992
)
;
    }
}


// ************************************************************************* //
