/*--------------------------------*- C++ -*----------------------------------*\
| =========                 |                                                 |
| \\      /  F ield         | OpenFOAM: The Open Source CFD Toolbox           |
|  \\    /   O peration     | Version:  2412                                  |
|   \\  /    A nd           | Website:  www.openfoam.com                      |
|    \\/     M anipulation  |                                                 |
\*---------------------------------------------------------------------------*/
FoamFile
{
    version     2.0;
    format      ascii;
    arch        "LSB;label=32;scalar=64";
    class       volVectorField;
    location    "1808.5";
    object      U;
}
// * * * * * * * * * * * * * * * * * * * * * * * * * * * * * * * * * * * * * //

dimensions      [0 1 -1 0 0 0 0];

internalField   nonuniform List<vector> 
808
(
(0.7562569172756801 -0.01749975373941157 0)
(1.031509944775787 -0.01262286848807696 0)
(1.111847459734788 -0.006494388178770227 -1.7501830218832e-20)
(1.085119218497166 0.01260533156894684 0)
(1.364657341568972 0.01487692401654901 -3.874838619118488e-19)
(1.038740729324911 -0.009356379611927014 -7.247091823771921e-20)
(1.013978117844653 -0.02111481703131486 -2.38309477591945e-20)
(1.07906309439933 -0.005417911148984528 9.040189905251833e-21)
(1.254888664713356 -0.01999586514319719 6.325640627989516e-20)
(1.085006559722951 0.01036203541138891 0)
(1.01043230162244 -0.007627948564582031 0)
(1.306641696543158 -0.05314035926132567 -3.524232035720788e-19)
(1.086203456867382 -0.001987840820784793 2.040536981612055e-20)
(0.6751808366444826 0.006372074225588673 0)
(1.279841999375327 -0.1138117161416667 0)
(1.08146319116773 -0.0002188144268797037 -3.84838662005207e-20)
(1.226915700250792 -0.1431378497027426 -9.555708314845528e-20)
(1.07393540670275 -9.232770658494584e-05 3.192220006287793e-20)
(0.9912630422919549 0.003661842838258486 0)
(1.026314121072436 0.009656607674437951 0)
(1.034279595863966 -0.01020089896956598 0)
(0.9875032334804472 0.04454779911099673 0)
(1.051130266490438 -0.00591872507755745 5.633938896819029e-20)
(1.053561752791439 0.009288183245867453 0)
(0.9326660375758439 0.1970622032370415 4.598632645773257e-19)
(1.165489982690796 -0.08442651351580321 0)
(1.186189869840416 -0.01858121550327397 1.571666130081544e-19)
(1.077406350898617 0.009518272247948684 5.208035338761799e-20)
(1.083697307708231 0.002325757249088447 5.082055173536049e-21)
(1.071794337725393 0.03088067442883902 0)
(1.075351386644064 0.002803366069427867 -1.176966052337324e-20)
(1.033016223985568 0.006861320316051603 -1.931932974702776e-19)
(1.059968820220736 0.01471110107270167 -2.368749056971396e-20)
(1.089014034817388 0.005571706612640307 -2.93410497717141e-20)
(1.120736211064171 0.03933550506434723 0)
(0.7551066492156268 -0.1239897408900396 -4.540002462823466e-19)
(0.9547825594172686 -0.005875392769722299 0)
(1.068812317581072 0.02225879387045348 0)
(1.068806447466935 0.007313372570195907 0)
(1.073705962688765 0.008936490510970672 -2.831477141488528e-20)
(1.092540753351323 0.02470182637537385 1.104330964534133e-19)
(1.151029891469926 0.003754860443809793 2.163832592779962e-19)
(1.096018728368549 -0.002272795611373713 0)
(1.015512787515778 -0.009059888409432804 0)
(1.133771869891312 -0.09383823657881145 -1.628847324308986e-19)
(1.044096591058949 -0.01159023576218472 -8.102245701679585e-20)
(1.058136571208164 0.02662034938677869 -2.754283079829226e-20)
(1.231706812605169 -0.1121877835860343 -5.597384898984912e-20)
(1.067581809385211 0.01208463989442678 -4.187478902613187e-20)
(1.25844102592415 0.01763412280653581 0)
(0.996389926904842 -0.01911205515731266 2.161785809236213e-21)
(1.044696142529304 -0.001847987170705358 0)
(1.087626341904553 -0.002071153018362152 0)
(0.9994665428025975 0.006974481867268768 -1.83872406821999e-20)
(1.250348242686049 0.03433593573938072 -2.345189486861605e-19)
(1.063540358031247 0.01809465092631843 6.040772968131575e-20)
(0.9921778304546024 0.009969333219361495 0)
(1.019512622162902 -0.006918358898164939 2.407339688015947e-20)
(1.107543498642813 -0.000205982314387777 -1.185563972931401e-19)
(1.061106897852707 0.03104102355532048 0)
(-0.08790637475155566 0.01049204894467037 7.449341227023594e-20)
(1.15521902070035 -0.05172344586729696 -1.894807733448503e-19)
(1.007095055321515 -0.006346991499310199 -2.644108992738357e-20)
(1.186330912937905 0.0700586063612768 -1.22864273075797e-19)
(0.9978781673404249 -0.009283371920696986 3.051179296659661e-20)
(1.084329226500095 -0.005486217265448726 0)
(1.248457267566754 0.09823343654379046 0)
(0.6960775276798846 0.003189668121427686 -7.456679360807752e-20)
(0.9889852999282519 -0.01342502720392791 -3.17915523640218e-20)
(1.46121022401854 -0.0183195361800758 4.462462144904565e-19)
(1.060470516666015 0.007607416893804171 -6.689984543339342e-20)
(1.369034884978093 0.09652198201803533 2.888957766810667e-19)
(1.054775303206447 0.006886645065508357 -1.931382970754696e-22)
(1.081142713552831 -0.01384631577713497 -3.606510961083971e-22)
(1.165352455118662 -0.2365041486681538 0)
(1.021705510149441 -0.01480142073385673 0)
(1.016952059856461 0.01783265173828071 -3.084008714335805e-20)
(1.385154292219847 0.3484822255302834 4.172413940652817e-19)
(1.097239795121191 -0.04244484121161951 9.452344550262131e-20)
(1.045359513054839 0.2092316555244655 2.504504988307652e-19)
(1.125181202837404 -0.06019349174838039 1.159986015285705e-19)
(0.9219468272959696 0.005132607910514922 0)
(0.9753533149946552 0.01850831001773133 0)
(1.004106637479054 -0.04890174536680519 2.829616224941267e-21)
(1.009910857062395 -0.01319690546607909 7.65846039186189e-21)
(1.029807200313411 0.02664617126403196 1.38371717606468e-20)
(1.530542881887785 0.0357402515138683 3.254794292509533e-19)
(1.288667248167796 0.07139379403877855 5.534936662514793e-19)
(1.072295483828705 0.003105477167700221 -9.097143069122899e-20)
(1.197766099402859 -0.09202774092947875 0)
(1.033703743467167 0.001932717941875849 1.328111296798868e-19)
(1.165185993343014 0.02252978757379236 -3.199231004308554e-19)
(1.001440583952469 0.03235149364916458 0)
(0.9996259124484356 0.002034718306845546 0)
(1.04447899374895 7.227244689564785e-05 7.824362872869015e-20)
(1.21378725730433 0.111946298717748 4.144736945272654e-19)
(1.011083555744837 0.006992679872618915 0)
(1.092362281946711 -0.06873957194397758 -1.05515458939019e-19)
(1.150811064773027 0.03810323469395148 0)
(1.214560572968822 0.09639832732576981 -1.9483652547756e-19)
(1.108166727264401 -0.02877896642343616 -7.726477222165835e-20)
(1.027203847242122 0.01180964273336235 0)
(1.085003935800487 -0.004611042502922863 0)
(1.018851367191791 0.02613104296153142 8.039187597605349e-20)
(1.071535916035623 0.05574173124915689 -9.589090963309064e-21)
(1.103833387617982 -0.004128024808648427 6.304609222504585e-20)
(1.111399906378534 -0.09351171425785434 1.502378301639872e-19)
(0.9635450900287602 0.004834724583437013 0)
(1.065993235940664 0.0311267565877708 3.79571109354315e-20)
(1.169231006140159 -0.07641560865569461 2.315747823185704e-19)
(1.051119883154415 0.04643266737809809 -2.894922278751585e-20)
(1.022611330723035 0.06735068518047566 3.717942264812195e-20)
(1.090235689176204 0.02601843017606621 0)
(1.01732764159903 0.01697108520433084 0)
(1.029003448895094 0.009394124331246321 7.874496094441739e-20)
(0.9486384028218166 -0.03349971229751851 0)
(1.052724609731775 -0.005571393603882663 -7.729307361960906e-21)
(1.343128700363948 0.05863080420569467 -1.572697673644067e-19)
(1.079921059311965 -0.01312558351396021 2.635620070886701e-20)
(0.7439392954728947 -0.001726224507488705 0)
(0.5859383108002041 0.190463460608299 -1.01331048932237e-19)
(0.7062062641384211 -0.00251564975288047 0)
(0.6987768323302166 0.0146242123343297 0)
(1.077632578612426 0.003675561500272121 -6.686661471520548e-22)
(0.9906478953788399 0.01452088633302677 0)
(1.278069224711283 0.1226538980794299 2.501595058249042e-19)
(1.012327035517676 -0.02780767344363804 -7.738666654893002e-21)
(1.046103575480206 0.01977951722747561 1.739411681493941e-21)
(1.058698149073448 -0.01171138253644208 0)
(1.126658883900861 -0.009109994284995824 -5.02523553172425e-20)
(1.269797979182414 0.1387999801238518 -2.292072136066698e-19)
(1.08936267246324 -0.01113155841788438 -8.595248683457691e-20)
(1.070091140165794 0.02684413813483174 -1.09477741646857e-19)
(1.040771581997702 0.04674963779273134 7.059471046255493e-20)
(1.022610600246865 -0.003767106401539586 -3.46677965738367e-20)
(1.060856624007098 0.02355009164260621 5.953484330784274e-21)
(1.132748893605776 0.0003871867992621769 1.050312642896361e-20)
(1.039200274893412 -0.01565164942678271 -4.819584170163013e-22)
(1.087413427711129 0.03472329414881126 0)
(1.028015186070214 0.01366159454119254 0)
(0.767003620962267 -0.06679855443767477 -1.8092595013015e-19)
(1.030198931522082 -0.001610808803414497 -6.800818450649066e-20)
(1.129407638176483 -0.005786312405057001 -1.261708388006323e-20)
(0.7034168196867011 0.006576218533180192 7.295445251978151e-20)
(1.174677502087546 0.02025554128990908 -1.933265632949442e-19)
(1.135507407364431 0.007454632489364723 5.047700649184735e-21)
(1.128969347962219 -0.0100095223471405 3.442277810663711e-20)
(1.000936847610086 -0.002937243844928797 -7.329832636079587e-20)
(1.103030695378499 -0.06489266716628195 0)
(0.9877374193989897 0.00451939143022788 0)
(1.057839776713863 0.007058326743969618 0)
(1.005341269295708 0.1878659196719837 -2.444004062530346e-19)
(0.7791703563741451 0.01242016249193505 0)
(0.8569101794651972 0.100476879478032 -8.386512127336608e-20)
(0.07718853144137597 0.03641292816195509 -2.988990099779204e-19)
(1.172088419977849 -0.02980319685826426 -2.249958475454404e-20)
(0.671320146903595 -0.007299566359895632 2.444260444659962e-20)
(1.169370186075817 -0.1000856189344047 6.888058396143744e-20)
(1.122954999003455 -0.004271606590221378 -5.738594427256085e-21)
(1.154708680117975 -0.04785643407037126 2.186400452169798e-20)
(0.1017862785606454 -0.222017846409882 0)
(0.2393188661534455 0.07843751021159791 0)
(1.260269930166462 0.1112697222245059 1.91405241288073e-19)
(1.021103331548062 0.01978718982425502 0)
(0.7378465866507494 -0.006257861263909175 0)
(1.075342426301213 -0.01159866583840079 2.72759080480978e-20)
(0.9747595093706186 0.0028193933525505 0)
(1.297118042956982 0.1283607925386495 -1.563793138187103e-19)
(1.057427526129478 0.01108494185916352 0)
(0.9937471556555756 -0.006997925708801204 0)
(1.065009185159363 0.008334792326058866 0)
(1.006181897387295 0.02083808955427429 1.921888389794334e-20)
(0.9382105038513987 0.01633245294129432 1.143351765772153e-20)
(1.1775059073904 -0.2000667866360944 0)
(1.005204086337539 -0.005179697769894395 7.926248353928882e-20)
(1.059131748308659 0.006423576469989037 0)
(0.7746685675057 -0.003276999672986576 0)
(1.218144938863094 0.02869182758586128 1.655360179957306e-20)
(0.7049412230164035 0.001354078184996672 0)
(1.436310123163283 0.0871391898338736 -5.238979900421371e-20)
(0.9952242846505006 -0.006173754981241361 1.704972246070762e-20)
(1.273116876244357 -0.001584257167527243 -2.954748401870925e-19)
(1.059499534110208 0.008987775840452326 1.368882705421989e-19)
(1.00091184960917 -0.01356426041879407 0)
(1.212886388138907 -0.1407559814447274 2.050437093409691e-19)
(0.7331910241789938 0.01378705715987173 0)
(1.098534043220464 -0.00500331825181773 0)
(1.153745356857904 0.0695429291734381 1.974354007568351e-20)
(1.006909623730962 -0.006493506541359015 -3.038101875258214e-20)
(1.121125144715122 0.05322616508986936 -1.751330110126471e-19)
(0.09776128494721653 -0.088966104604498 0)
(1.072161256975296 0.03916159502528355 0)
(0.6617828231306911 -0.002909073599140679 -5.951064471772581e-22)
(1.012160426250333 -0.01939947419088114 9.484084633776337e-20)
(1.061304040126933 0.0008068623836575365 0)
(1.074830799850987 -0.128728316450944 3.72495237557868e-19)
(1.002838723817914 -0.006181624320967839 -3.388012672226701e-21)
(1.00317119324196 -0.005008823070878163 7.225415935427504e-22)
(1.093931269096011 -0.009299545830692308 0)
(1.020673290052638 0.0205544919374861 -6.415648103376961e-20)
(1.106536496721267 -0.001567496298882317 6.560166738903636e-22)
(1.074592064626479 -0.01124146975212712 6.637950177750391e-20)
(1.085752961161014 0.02224751304117103 0)
(1.330623418836133 0.1609014035876165 0)
(1.002018829443693 0.0002450341738799819 4.413631258007289e-20)
(1.319124170239567 -0.1269992863719193 1.568163641845883e-19)
(0.03480850730506931 -0.1872342384944836 -2.43902672267982e-19)
(1.071214782573177 -0.005412984562460465 0)
(1.113984071387845 -0.00439651800512248 1.179840263535113e-20)
(0.7267644832868337 0.01780984901864132 0)
(1.060806677199812 0.009331240668560701 0)
(0.8673666796927293 0.1643350680145208 4.683829506225289e-19)
(1.277155792200406 0.1333093052779958 1.931005412088952e-19)
(0.6543470902373087 -0.003096265593987155 -6.42862504124397e-20)
(1.040235357143057 0.002470613834500361 -6.748590189341364e-21)
(1.054727703226795 -0.0002468930922740308 6.553303737909704e-20)
(1.364498334825317 0.1214031453292603 6.704065240859558e-19)
(1.334188863414334 0.2519647237705315 0)
(1.059986588731586 0.003999327872223324 0)
(1.000669322490944 -0.005659254933805001 1.472481630667181e-20)
(0.9927794909856965 -0.006221707254502789 5.084283453600805e-21)
(1.382020167826458 0.1997061839995266 4.268599025441835e-19)
(0.6818131106261696 0.0004706108103661966 9.921386394023101e-20)
(1.005616221330574 -0.002180472889541008 -6.003688652173548e-20)
(1.098234562017327 0.01308103938125899 2.55589887359961e-20)
(0.6694620140628357 0.004971991699970047 0)
(1.066090397632437 -0.01201354278342743 0)
(1.016786483257011 0.1527630667346823 -1.349563576871507e-19)
(1.092198623872953 -0.007171587375611496 -2.517914637862738e-20)
(0.9820694894146669 7.248817027235885e-05 3.294059761975917e-20)
(0.9912112827452544 0.006029495059944459 0)
(0.6382169879037837 -0.001071284959407877 0)
(0.9767330053511412 -0.001181236260507539 0)
(0.6421348915412819 -0.001456961697787866 2.647911158814285e-21)
(1.089888258929576 -0.05544111176623891 1.20139707272769e-19)
(1.112454263915117 -0.003220076932832439 1.171953516582097e-21)
(0.9579047544837841 -0.0008758212961662195 3.89266438091246e-20)
(1.016685704345827 0.01001294551154198 1.726153733301125e-20)
(1.067113418752835 0.001910592191946041 -2.550634948955057e-21)
(0.6347083599968998 0.008876919199185172 -3.627354875779254e-20)
(1.005222767353455 0.008340626106655778 -8.069088686958167e-22)
(1.036816194719169 0.006568135705414415 5.414149261941741e-21)
(0.9861663507589161 -0.01046609344256598 0)
(0.6099496664770128 -0.0004696597273201457 0)
(1.06879108601383 0.02252524707782587 0)
(1.016915818063044 -0.01652242650955229 1.035867515268225e-20)
(1.023826146292416 -0.01012882414936895 0)
(0.9919524363946771 0.01350928706672966 -9.872786574054463e-21)
(1.009568733721415 0.0008871385485268825 0)
(1.131154167190531 0.002253255343603621 -1.153078242706736e-20)
(0.03686886457031546 -0.1439748551386923 -3.83603628782169e-20)
(1.035263896424073 -0.01851237647997526 -5.953980516266768e-22)
(1.041055712618774 0.004605893523338861 0)
(1.081078112464406 0.06875813620746446 8.455452078718338e-20)
(0.96744707656447 -0.002286151409391787 3.108815678824954e-20)
(1.020278580690471 0.01668172669790427 -2.314991498222748e-20)
(1.00235245168424 -0.002281990263446781 2.457248368052254e-20)
(1.039355142478643 -0.007694526080567719 0)
(0.640878897823752 -0.004050181007224065 0)
(1.025827523587504 0.02453788475843848 -7.524699497593706e-20)
(1.086990619347602 -0.006086906103934923 4.95056784694783e-20)
(1.015886952033721 0.006626333447767339 0)
(0.9791694509654858 -0.001654384835827346 -1.956167887119415e-21)
(0.8617045106282978 0.01107058722582983 -9.123881791507505e-21)
(1.014023474550128 0.002565635176745179 -9.779534766972309e-21)
(1.023062100177905 0.005818533866785124 1.878383673458355e-20)
(0.984631632629934 0.004752986237799493 0)
(1.004528831157674 0.01205257009969899 3.387566981393135e-20)
(1.110565807236485 0.0005586764050706497 0)
(0.9283414243224153 0.006845484833646592 -3.091878905665343e-20)
(0.9560310614342545 -3.969859222026476e-05 0)
(0.9096969117504305 0.2065784472425193 5.061535816605153e-20)
(1.010850150729647 0.06692022000739103 0)
(0.9922513360749904 0.004871662336274824 -2.266608577726502e-20)
(1.059173463150593 -0.05223077570829607 -2.886439686353419e-20)
(0.9928028675480194 0.000907091424668583 3.300095461216721e-20)
(1.009513814061342 0.00706777393828067 0)
(0.9786108553615136 0.0007542204029188538 -3.062947279475989e-20)
(1.172904177403107 0.1050717643006551 -3.430214168623324e-19)
(1.069856370193344 -0.2653701260194701 0)
(0.993198651434783 0.0005357081470760599 -2.261335266721411e-20)
(0.9743961381271931 0.001014106241130553 4.933747970842599e-21)
(0.9634029370419193 0.003374869242210855 9.927075556641482e-22)
(0.7459267650788173 -0.001044989680683716 0)
(1.124318556083832 -0.07692996776057349 0)
(1.002803423243996 0.002789217920551501 -2.265638160155404e-20)
(0.908730624866942 0.01309256121196118 -9.941435857001374e-21)
(0.847820983241556 0.004188384937080157 2.472539815108796e-21)
(1.0143441542696 -0.007960794478133004 0)
(0.9568095579794257 0.01220069478543867 1.408078526702042e-20)
(1.005549687143939 -0.0002391305555054 -2.279135560705852e-20)
(1.023296706972128 -0.003483405600645064 -2.539924462531775e-20)
(1.115053573318075 -0.001242511811958032 -4.93632259400489e-21)
(1.119400452695376 -0.0008879483868226687 0)
(1.012793353589745 -0.009085335062213991 0)
(1.019754420443119 7.627201764658e-06 0)
(0.941522016150781 -3.667921778752412e-05 -1.998322996348687e-20)
(1.01785037349246 0.01362028682908164 5.451118539697343e-20)
(1.085780530252669 -0.005800874389354135 -2.288744444716021e-20)
(1.040498607996762 -0.008902309023191734 0)
(1.107687292929061 -0.003179188802081323 1.85412480270994e-21)
(0.9943433375860528 0.00216203870815048 -2.234292354570646e-20)
(0.9846153863381514 0.00260258937962287 0)
(1.01066049795109 0.003227174038188302 4.664179673495158e-20)
(1.366820559200809 -0.3146579127902513 -1.128874651541957e-18)
(1.121932233274574 -0.04311517971219666 -1.092368724076073e-19)
(0.9655528118713477 0.005013863537809479 4.462127064190085e-20)
(0.7655754421893878 0.00133839333248476 -3.186744471085015e-20)
(1.223562738262607 0.05289996013384263 0)
(1.223450850967411 -0.1268763780643459 -1.471696860925371e-19)
(1.081237848129553 -0.001811278760876958 0)
(1.008079678858695 0.0008485921863291063 2.285920400242432e-20)
(-0.1880708820360563 -0.1395511529776456 0)
(0.9939665280371535 -0.004653693019428104 0)
(1.01240686612293 -0.0231141950210598 4.338330994400142e-20)
(0.7064058557234411 -0.0194571056915902 0)
(1.096789023418754 -0.01477963443825486 2.171651401363192e-21)
(1.04199462062052 -0.00693946086953625 1.776004345734687e-20)
(0.6332152190770024 0.004118201752452083 0)
(1.449346302598947 -0.1233695627347615 0)
(0.9861873103647332 0.001431839220954256 -1.075565516179498e-20)
(1.069796176881446 -0.01507989230029112 0)
(1.037798207782612 0.0004029069297899705 2.096165027882625e-20)
(1.081065534266358 0.005108464247599467 0)
(1.011751322662504 0.0006976023671371556 -1.090025519855402e-21)
(1.005779718940662 0.003121416800438697 0)
(1.009150642629477 -0.002665738268015624 -6.930007173062056e-22)
(1.004332058302034 -0.02079718075213849 0)
(1.036110948249503 -0.003344294369990847 1.702996750898199e-20)
(-0.1759401427945099 0.0285614938226603 2.699886142986967e-19)
(0.797517039424297 0.02062616464152982 5.379246517801021e-20)
(1.005466687678728 0.001818060991600658 0)
(1.127861735874168 0.01200030382590031 -1.131959699896252e-20)
(1.118414709869217 0.009194485676530181 8.511968733178761e-21)
(1.05456899766259 -0.01283298251960403 -1.299553975830493e-19)
(0.9987794191074256 0.01036865401709956 6.500319327642309e-22)
(1.079100423664763 0.0005995879104491741 0)
(1.188052550871432 0.05357882005631869 0)
(0.8353387583343455 -0.07656050760362174 4.595423829761684e-19)
(1.091908184055568 0.001075970401865541 0)
(1.033718090068568 0.007429200997106478 -7.521617970716732e-21)
(1.042422546041272 0.005210943584386426 5.90157977365475e-21)
(1.055872584439086 -0.05979893432247817 -7.585331679594617e-21)
(1.139314845002019 -0.0008598076539825679 1.688325510036396e-19)
(1.086613435794296 -0.004432282020944487 0)
(0.9942216132603362 0.001569226011651398 0)
(0.9966909404295778 -0.02666152408529204 -2.386953988573469e-21)
(0.9900464066631361 0.003332271716014675 0)
(1.031497322692124 -0.037851333053926 6.435151632960993e-20)
(1.290748728933327 -0.09383421840223276 0)
(1.041560093659766 -3.01441804931757e-05 -4.264183639027868e-21)
(0.9861730406165663 0.01701595978551795 -8.718644693742899e-20)
(1.032724558261905 0.04197951683712485 -2.379103193335253e-21)
(-0.07692074534104358 0.1572457789784787 -1.697427982021507e-19)
(-0.07072576785604975 -0.3006550326582848 -1.320684283707323e-19)
(0.8972175061097265 0.1371498242409069 0)
(0.2868578508651829 -0.03623806056816938 -3.262265308561809e-19)
(1.005150145546266 0.001109478986500558 -1.265606809951071e-20)
(1.063833670905703 0.002715820740497331 -2.094000427741843e-20)
(0.9912745809251634 -0.02002344999424575 3.051667583606613e-20)
(1.023364701300205 -0.03182728134381478 2.636388604482257e-21)
(1.010134998955028 -0.03183745223112473 -6.613358048421658e-20)
(0.9888755567114053 0.004816363133373086 -3.476002145082976e-20)
(0.9930388673657939 0.005208918723337264 0)
(1.025067462773352 -0.002374177624932921 -3.486104571261195e-21)
(1.937207001420651 -0.1561250323038957 1.074531170701766e-18)
(1.043060577395754 -0.0005269457955586273 0)
(0.9957944083774225 0.008587818845344741 1.53251834074529e-20)
(1.003461296858364 -0.0003704217359426913 4.024853284386357e-20)
(1.160343111086078 0.1516789603489894 0)
(0.9993569245694399 -0.00591113216109252 8.290321004663166e-21)
(0.9503573874238239 0.001502795448114415 0)
(1.037836933088816 0.04176028137187217 0)
(1.31050647648644 0.1591919121718386 2.340429116044477e-19)
(1.082027913229572 -0.0003975902301515828 2.312104105820158e-20)
(1.016964535665628 0.02968107696994389 4.57340171842754e-20)
(1.085334145622008 -0.0008434120736603907 -2.228741841124822e-20)
(1.04968236183915 -0.01266370548030777 -8.95403056456087e-21)
(-0.3857400411342446 -0.05255758035950484 0)
(0.9996735203058291 0.01365701781297411 0)
(0.1125465477612898 0.0541569945261303 -9.138945442375898e-20)
(1.006974036527831 0.02061718971356762 -4.101260031460382e-20)
(1.00119504089193 -0.02182563718775259 0)
(1.001504187284848 0.005469537978766508 -4.939555235218374e-21)
(1.081943966378476 -0.04249350676755604 0)
(0.9940909358238942 -0.01718132459998931 -7.965372758312224e-21)
(1.101194933212576 -0.05897299980597923 0)
(1.445612122890422 0.1745268156247722 0)
(1.054829865237522 -0.01219440024335534 0)
(0.9905132991592799 -0.0246332952227128 -4.09860549627637e-20)
(1.000502799182889 -0.0423788377409467 -3.323833357001193e-21)
(1.01405937179288 -0.02021520224236103 -1.934810769546497e-20)
(0.996749329213674 0.0165762241637659 -5.564064608523652e-20)
(0.9958913888053925 0.01037096645943736 -1.49354727328228e-20)
(0.9948105823234108 -0.02866448055452082 0)
(1.002505271359861 0.02368845634989136 1.927259024362751e-20)
(1.055881374760213 -0.03623964292300657 0)
(1.111423002827745 -0.03579829429186293 2.59808674596653e-19)
(0.9956920911503178 0.0167238592326491 4.586512870039659e-20)
(0.6150449630081423 -0.008687959479839403 0)
(1.14284753034621 0.1586626882632371 -1.879444674878209e-21)
(0.8476864921807896 -0.08634376647697259 0)
(1.137764608574038 0.07302346227678339 -2.724951567222978e-19)
(1.317140457954197 -0.3895998202578793 1.295889921150319e-19)
(1.068772972026873 0.06359308263834509 -1.246864745648632e-20)
(1.011332213614124 -0.0320913141959169 0)
(0.9561863057840732 -0.2165047914318987 0)
(0.5265072456164216 0.1635609698803857 0)
(1.016500355936844 0.01008734042874487 1.259657209774826e-21)
(0.6929656170699325 -0.02713402594030876 0)
(0.9995766668436962 0.0168937815984047 3.531139275819574e-20)
(1.027111885988661 -0.004345160574236655 -2.763515858217682e-20)
(1.078963977349992 -0.008081205002838055 2.729822344488928e-21)
(1.050121756333902 -0.02616538336421241 2.934995421737525e-20)
(1.042523521298604 0.01181502370788154 0)
(1.063604559024989 0.0220629986628797 -8.872989804655348e-21)
(1.04953956694237 0.03610949674754715 -1.807209240399843e-20)
(0.9834536185491841 -0.02280749852264145 0)
(0.6249044878818594 0.005097788493448836 9.170424168221098e-20)
(0.8941493265145655 -0.005917153704821637 -8.845921546400102e-20)
(0.9093799485908621 0.005272534010912378 1.450584007086012e-20)
(0.6296015748464538 -0.006432204497263659 1.407116540140045e-20)
(0.9805434619002346 0.001044036580775589 2.496675692495804e-20)
(1.004429928058994 -0.01745816311922452 -3.5029990313007e-20)
(0.9834359172955633 -0.03814211198317104 -3.161938805234679e-20)
(1.085587576371578 0.001658099050983818 0)
(1.020098347344589 0.005044572438177459 1.012761228648414e-20)
(1.132185230049528 0.04884734728931453 1.317363463986759e-19)
(1.031218623632285 0.04087189755453504 0)
(1.022642979718886 0.002548951994148751 0)
(1.585860070602036 -0.1677903303799511 4.40287684181097e-19)
(1.059094333948651 -0.04736882272902609 0)
(1.017467737489279 0.009769744072416136 -3.767780233377383e-20)
(1.082818081628412 0.00619982228943488 0)
(0.4878548558448979 -0.01118308496328175 0)
(0.01234809659903182 0.02305561462040509 0)
(0.9913296356178959 -0.02417083849564894 1.232199723156439e-20)
(1.302458290705687 -0.09599635324271254 3.732880222361577e-19)
(1.032764899962615 0.03478100623880037 0)
(1.022282575853137 0.003529993090139894 -2.222878122590269e-20)
(0.9474359597207588 -0.1601487123168772 -1.828323433051862e-21)
(1.256803433007528 0.07767239884275509 0)
(0.596693205779511 0.7281090435391493 0)
(1.312984885698661 0.1458469519578078 1.07563018763468e-19)
(1.67910479505565 -0.02562474140441207 0)
(1.050965580147542 0.1189432450946128 0)
(0.7117386418650269 -0.02007410023375545 3.908669072944523e-21)
(1.047840537377309 0.0437957306603689 0)
(0.7591014552023866 0.1265461181213572 1.311518874170828e-19)
(0.9967750743570372 -0.01648270209981915 3.574193964048123e-19)
(1.03827553171332 -0.04189478390693679 2.79145260829097e-20)
(-0.3820977554151233 -0.02661346232820166 0)
(1.072302964154857 -0.01640743728103827 0)
(1.085088532859788 -0.004231273908360667 0)
(0.6493950759549459 -0.5057016864431079 -2.463986200015578e-19)
(0.9894503667222831 -0.001170705897804008 0)
(1.092484255699325 -0.02139331232830122 5.166808771386142e-22)
(1.186973534389784 0.1210548879226543 -2.006807397440452e-19)
(1.096226856957253 -0.0493667500618444 0)
(1.006228245543702 -0.02109877543368579 0)
(0.7759265218245784 -0.1803903274611234 -1.637458978727722e-19)
(0.8792031682892126 -0.1312085096456917 1.493610171224353e-19)
(1.031861529788956 0.01480932586207663 -2.171013607623983e-20)
(1.023119466245639 -0.008933693330949191 -4.50624985897941e-20)
(0.8801389152836717 0.01150267244174575 3.034760972464203e-22)
(1.506982738837935 -0.1943447264618169 0)
(1.30867960748753 0.116597924461346 2.991718330125818e-20)
(1.242265310079814 -0.07388072103166977 -3.274617186777126e-21)
(1.095695988176049 -0.01850660826204882 -3.940282829249401e-20)
(1.0348790784566 -0.01400247826499335 2.743029111492329e-20)
(1.09283632929286 -0.03905837581454561 9.252112967904709e-20)
(1.031741726101109 0.02057477254473331 0)
(1.048621894557055 -0.03775109507272627 0)
(1.115951602970694 -0.008940607057612671 0)
(1.095495829624695 -0.04137778649649097 0)
(0.9982253575491112 0.01112412108981727 0)
(1.149881334389249 0.08201276161401823 9.547250983858511e-20)
(1.337766236320595 -0.1530441464272494 0)
(1.03607916937026 -0.02690153103148778 -2.388402607387196e-22)
(1.048065327085027 0.05143840918464879 0)
(1.010274081339479 0.01439558194243064 -3.904599705611893e-20)
(1.033842768016609 -0.007333719165231713 9.182895041845648e-21)
(1.088927696316059 0.01347660836500983 -3.238134712834963e-20)
(1.085186115338903 -0.02793547557516188 0)
(1.070523852095292 0.006016468482163692 0)
(1.106248582880333 0.09380066530376005 -1.414752156234731e-18)
(0.9355932075136463 -0.1504984053471709 -7.072870369943298e-20)
(1.170486691411426 0.1168693878912615 1.143861978023473e-19)
(-0.471771549335208 -0.01407669208746489 -2.901032130595685e-19)
(1.017841337485815 0.02898614619054789 -8.773007983365364e-20)
(1.005350767159517 0.004807864583404257 0)
(-0.2600030283865581 -0.0001700406206160475 3.557085116678279e-19)
(-0.03642983129002379 0.2883331145461855 7.640407860731975e-21)
(0.9952138184738564 -0.006256835828690383 9.566883407529241e-20)
(0.1855179401849171 -0.04434947475280699 1.324452307447994e-19)
(1.084562356250046 0.085233932794522 1.419584885796196e-20)
(0.09388768888529364 -0.1117755296792101 -5.513246237270379e-20)
(1.108405755347918 0.002986010784961097 0)
(1.101072762849981 0.2541516029616794 0)
(1.021198342315955 0.02143408141685496 -1.717124697526158e-20)
(1.065010114845959 0.05115953881865855 0)
(1.026557065406023 0.02378994649973948 -8.724257568596284e-21)
(1.26442932007869 -0.5495725488276743 8.050272737684766e-19)
(-0.1177229088844177 -0.2344889899533803 2.150684054495764e-19)
(1.300978900394571 0.1153614293475734 -6.26729369814391e-19)
(1.121746181398653 -0.002782340740071291 0)
(1.121043496918773 0.1027666881735912 0)
(0.5252895527095467 0.07912558102248243 2.467423295846277e-19)
(1.023763894853892 -0.02026834128158541 9.412915597878988e-20)
(1.006594835291138 -0.02341300003662885 0)
(1.210285050453518 0.2702139029615506 -9.580587939791943e-20)
(1.263402102066252 0.1316455670905723 -1.55560158030628e-19)
(1.026596641140447 0.003341419905773533 1.552563710288132e-20)
(1.300669656391283 -0.08500464109624628 -4.998300048196881e-19)
(0.299255157815346 -0.01848149491335993 2.809416985579772e-19)
(0.8281341427321272 -0.1470001827428874 6.775992555049638e-19)
(1.039255797041177 0.04986482533313475 1.07828403339578e-19)
(1.038285945765765 0.003048326816046654 1.790795229839456e-21)
(1.001165520900173 0.01921381019451964 2.938393659635542e-20)