/*--------------------------------*- C++ -*----------------------------------*\
| =========                 |                                                 |
| \\      /  F ield         | OpenFOAM: The Open Source CFD Toolbox           |
|  \\    /   O peration     | Version:  2412                                  |
|   \\  /    A nd           | Website:  www.openfoam.com                      |
|    \\/     M anipulation  |                                                 |
\*---------------------------------------------------------------------------*/
FoamFile
{
    version     2.0;
    format      ascii;
    arch        "LSB;label=32;scalar=64";
    class       volVectorField;
    location    "0.1";
    object      cellDisplacement;
}
// * * * * * * * * * * * * * * * * * * * * * * * * * * * * * * * * * * * * * //

dimensions      [0 1 0 0 0 0 0];

internalField   nonuniform List<vector> 
1024
(
(0.000635217 -0.000643721 0)
(0.00111415 -0.00104421 0)
(0.00155063 -0.00127658 0)
(0.00204243 -0.0013856 0)
(0.00246172 -0.00130297 0)
(0.00285262 -0.00108302 0)
(0.00322466 -0.000727213 0)
(0.00349468 -0.000256865 0)
(0.00356426 0.000276054 0)
(0.00342287 0.000791731 0)
(0.00310104 0.0011931 0)
(0.00266545 0.00143906 0)
(0.00218735 0.00151258 0)
(0.00161934 0.00135743 0)
(0.00114476 0.00109706 0)
(0.000619228 0.000638368 0)
(0.00258283 -0.00255859 0)
(0.00389404 -0.00352306 0)
(0.00517556 -0.00405846 0)
(0.00635755 -0.00411556 0)
(0.00764844 -0.00384555 0)
(0.00877438 -0.00314504 0)
(0.00958024 -0.00204076 0)
(0.010274 -0.000696167 0)
(0.0104372 0.000800979 0)
(0.0100672 0.0022514 0)
(0.00921786 0.00341346 0)
(0.00806677 0.00418268 0)
(0.00670836 0.00445449 0)
(0.00534075 0.00429492 0)
(0.00389893 0.00362214 0)
(0.00253169 0.00257393 0)
(0.00509209 -0.00497645 0)
(0.00707601 -0.00623915 0)
(0.00897226 -0.0068266 0)
(0.0109451 -0.00683082 0)
(0.0128168 -0.00620621 0)
(0.0144487 -0.00498644 0)
(0.0158008 -0.00322916 0)
(0.0167523 -0.00107814 0)
(0.0169649 0.00128428 0)
(0.0163961 0.00356585 0)
(0.0151298 0.00543924 0)
(0.0133867 0.00672646 0)
(0.0113796 0.00733489 0)
(0.00919105 0.00718977 0)
(0.00711206 0.00645728 0)
(0.00499608 0.00503308 0)
(0.00803828 -0.0077683 0)
(0.0105712 -0.00912976 0)
(0.0131019 -0.00968847 0)
(0.0155475 -0.00941679 0)
(0.0179993 -0.00844047 0)
(0.0201345 -0.00670418 0)
(0.0217499 -0.00428341 0)
(0.0228641 -0.00139962 0)
(0.0230922 0.00173091 0)
(0.0223566 0.00474987 0)
(0.0207696 0.00727864 0)
(0.0185746 0.00909155 0)
(0.015988 0.01004 0)
(0.013317 0.0101742 0)
(0.0105813 0.00942719 0)
(0.00790382 0.007893 0)
(0.0113855 -0.0109017 0)
(0.0143711 -0.0121755 0)
(0.0173081 -0.0125 0)
(0.0203259 -0.0119756 0)
(0.0231425 -0.0105365 0)
(0.0255873 -0.00826022 0)
(0.0275504 -0.00524914 0)
(0.0287554 -0.00168371 0)
(0.0289681 0.00214757 0)
(0.0280898 0.00583931 0)
(0.0262449 0.00898429 0)
(0.0236798 0.0113127 0)
(0.0207089 0.0127108 0)
(0.0174952 0.0130865 0)
(0.0143618 0.0125857 0)
(0.0112109 0.0111149 0)
(0.0150219 -0.014262 0)
(0.0183643 -0.015306 0)
(0.021759 -0.0153668 0)
(0.0250612 -0.0144122 0)
(0.0282514 -0.0125305 0)
(0.031021 -0.00972673 0)
(0.0331035 -0.00611351 0)
(0.0343684 -0.00192317 0)
(0.0345482 0.00253953 0)
(0.0335599 0.00684446 0)
(0.0315144 0.0105624 0)
(0.0286888 0.0134172 0)
(0.0253471 0.0152346 0)
(0.0218603 0.0160531 0)
(0.0182936 0.0157987 0)
(0.0147929 0.0145624 0)
(0.018933 -0.0178416 0)
(0.0225831 -0.0185346 0)
(0.0262224 -0.0181678 0)
(0.0299057 -0.0168146 0)
(0.0333084 -0.0144152 0)
(0.0362296 -0.0110665 0)
(0.0384922 -0.00690667 0)
(0.0397906 -0.00212929 0)
(0.0399318 0.00291525 0)
(0.0388448 0.00778687 0)
(0.036649 0.012049 0)
(0.0336069 0.015409 0)
(0.0300636 0.0177387 0)
(0.0262226 0.018933 0)
(0.0224194 0.0191151 0)
(0.0186413 0.0182408 0)
(0.0230197 -0.021541 0)
(0.0268977 -0.0217809 0)
(0.0308542 -0.020984 0)
(0.0346794 -0.0191039 0)
(0.0382947 -0.0162017 0)
(0.0413965 -0.0123317 0)
(0.0436808 -0.00761477 0)
(0.0449841 -0.00229676 0)
(0.0450865 0.00328209 0)
(0.0439225 0.00867093 0)
(0.0416232 0.0134479 0)
(0.0384504 0.0173238 0)
(0.0346872 0.0201182 0)
(0.0307088 0.021851 0)
(0.0266316 0.0224468 0)
(0.0226305 0.0220193 0)
(0.0272902 -0.025363 0)
(0.0313781 -0.0250753 0)
(0.0354569 -0.0237213 0)
(0.0395174 -0.021335 0)
(0.0432295 -0.0178893 0)
(0.0463614 -0.0134793 0)
(0.0487171 -0.00825034 0)
(0.0500036 -0.00241964 0)
(0.0500591 0.00364729 0)
(0.0488394 0.00951611 0)
(0.0464722 0.0147764 0)
(0.0431987 0.019146 0)
(0.0393648 0.0224895 0)
(0.0351689 0.024685 0)
(0.0309424 0.0258319 0)
(0.026795 0.025947 0)
(0.0316825 -0.0292521 0)
(0.0359047 -0.0283445 0)
(0.0401837 -0.0264297 0)
(0.0442821 -0.0234491 0)
(0.0480721 -0.019457 0)
(0.051273 -0.0145287 0)
(0.0535737 -0.00878935 0)
(0.0548275 -0.0024906 0)
(0.0548357 0.00401924 0)
(0.0535833 0.0103209 0)
(0.0511845 0.0160409 0)
(0.0478945 0.0209114 0)
(0.0439499 0.024749 0)
(0.0396904 0.027552 0)
(0.035354 0.029241 0)
(0.0310324 0.0299652 0)
(0.0362187 -0.0332082 0)
(0.0405821 -0.0316266 0)
(0.0449029 -0.0290235 0)
(0.0490919 -0.0254534 0)
(0.0528789 -0.0208946 0)
(0.0560048 -0.0154407 0)
(0.0582835 -0.00922842 0)
(0.0594699 -0.00248998 0)
(0.0594337 0.00440312 0)
(0.0581644 0.0110991 0)
(0.0557816 0.0172427 0)
(0.0524742 0.0225919 0)
(0.0485491 0.0270019 0)
(0.0442595 0.0303619 0)
(0.0398131 0.0327333 0)
(0.0354293 0.0341054 0)
(0.0408991 -0.0371981 0)
(0.0453481 -0.0348051 0)
(0.0497528 -0.0315182 0)
(0.0538926 -0.0272824 0)
(0.0575988 -0.0221413 0)
(0.060657 -0.016192 0)
(0.0628217 -0.00952961 0)
(0.0639219 -0.00242294 0)
(0.0638412 0.00481449 0)
(0.0625819 0.0118465 0)
(0.0602237 0.0183987 0)
(0.0570089 0.0242157 0)
(0.0531272 0.0291702 0)
(0.0488433 0.0331935 0)
(0.0443892 0.0362372 0)
(0.0398556 0.0383776 0)
(0.0456794 -0.0410888 0)
(0.0502517 -0.0378708 0)
(0.0546314 -0.0337915 0)
(0.0587168 -0.028845 0)
(0.0622846 -0.0231671 0)
(0.0651647 -0.016694 0)
(0.0671758 -0.00966904 0)
(0.0681552 -0.00223945 0)
(0.0680293 0.0052453 0)
(0.0667804 0.0125895 0)
(0.0645415 0.0194774 0)
(0.0614273 0.0257563 0)
(0.0576717 0.0312702 0)
(0.0534489 0.0359574 0)
(0.0489519 0.0397602 0)
(0.0442967 0.0426994 0)
(0.0505456 -0.0447941 0)
(0.0551867 -0.0406651 0)
(0.0595777 -0.035705 0)
(0.0635017 -0.030114 0)
(0.0668638 -0.0237853 0)
(0.0695055 -0.0169156 0)
(0.0712882 -0.00954484 0)
(0.0721146 -0.00193727 0)
(0.0719225 0.00575901 0)
(0.0707405 0.0132868 0)
(0.0686188 0.0204795 0)
(0.0656892 0.0271664 0)
(0.0620838 0.0332292 0)
(0.0579415 0.0385955 0)
(0.0534127 0.043193 0)
(0.048616 0.0470133 0)
(0.0553905 -0.0480394 0)
(0.0601286 -0.0428649 0)
(0.0643846 -0.0371166 0)
(0.0680892 -0.0307756 0)
(0.0711424 -0.0239522 0)
(0.0734576 -0.0167012 0)
(0.0749621 -0.00915671 0)
(0.0756017 -0.00143623 0)
(0.0753569 0.00630976 0)
(0.0742348 0.0139453 0)
(0.0722754 0.0213387 0)
(0.0695503 0.0283634 0)
(0.0661195 0.0349443 0)
(0.0621037 0.0409654 0)
(0.0575529 0.0464022 0)
(0.0526093 0.051164 0)
(0.0598995 -0.0501654 0)
(0.0645282 -0.0440527 0)
(0.0685354 -0.0375157 0)
(0.0718825 -0.0306174 0)
(0.0745374 -0.0234242 0)
(0.0764745 -0.0160055 0)
(0.077675 -0.00843262 0)
(0.0781276 -0.000778534 0)
(0.0778277 0.00688306 0)
(0.0767782 0.0144784 0)
(0.0749894 0.0219342 0)
(0.0724784 0.0291789 0)
(0.0692694 0.0361425 0)
(0.0653932 0.042758 0)
(0.0608873 0.0489618 0)
(0.055795 0.054694 0)
(0.00061217 0.00061659 0)
(0.00105199 0.00116007 0)
(0.00129015 0.00161975 0)
(0.00142786 0.00214784 0)
(0.00137106 0.00262276 0)
(0.0011156 0.00296217 0)
(0.000740452 0.00324834 0)
(0.000251832 0.0034726 0)
(-0.000293702 0.00354454 0)
(-0.000791712 0.00338013 0)
(-0.00114192 0.00294619 0)
(-0.00134851 0.00247735 0)
(-0.00143627 0.00203405 0)
(-0.00131251 0.00152318 0)
(-0.00107617 0.0010726 0)
(-0.00063289 0.000560007 0)
(0.00252218 0.00260616 0)
(0.0034713 0.0039523 0)
(0.00410584 0.00538287 0)
(0.00425886 0.00671341 0)
(0.00395322 0.00793028 0)
(0.00322071 0.00901479 0)
(0.002106 0.00984478 0)
(0.000681816 0.0102357 0)
(-0.000846243 0.0104039 0)
(-0.00223132 0.00990713 0)
(-0.00332303 0.00895182 0)
(-0.00402466 0.00773438 0)
(-0.00425498 0.00632822 0)
(-0.00416682 0.00505567 0)
(-0.00355151 0.00369536 0)
(-0.00254159 0.0023519 0)
(0.00485759 0.0050841 0)
(0.00621723 0.00724674 0)
(0.00690919 0.00931028 0)
(0.00699292 0.0113838 0)
(0.00638174 0.013294 0)
(0.00510339 0.0148661 0)
(0.00328969 0.0160486 0)
(0.00105046 0.016774 0)
(-0.00134889 0.0169226 0)
(-0.003564 0.0162143 0)
(-0.00531089 0.0147308 0)
(-0.0064722 0.012856 0)
(-0.00707226 0.0108644 0)
(-0.00699471 0.00877272 0)
(-0.00633395 0.00676694 0)
(-0.00496235 0.00469541 0)
(0.00767746 0.008125 0)
(0.00908571 0.0107805 0)
(0.00977938 0.013506 0)
(0.00961122 0.0161033 0)
(0.00860607 0.0184956 0)
(0.0068253 0.020589 0)
(0.00435146 0.0221452 0)
(0.00135532 0.0229488 0)
(-0.00181533 0.0230588 0)
(-0.00474933 0.0221238 0)
(-0.00715149 0.0203648 0)
(-0.00884779 0.0180517 0)
(-0.00973925 0.0153973 0)
(-0.00992935 0.012787 0)
(-0.00925221 0.0101195 0)
(-0.00777421 0.0074911 0)
(0.0107605 0.0114752 0)
(0.0121617 0.0146673 0)
(0.0125993 0.0177683 0)
(0.0121396 0.0208599 0)
(0.0107172 0.0237303 0)
(0.00838305 0.0261271 0)
(0.00528549 0.0278975 0)
(0.00161205 0.0289019 0)
(-0.00225285 0.0289418 0)
(-0.00586918 0.0278809 0)
(-0.00886071 0.0258069 0)
(-0.0110401 0.0230854 0)
(-0.0123998 0.0200843 0)
(-0.0128049 0.0168917 0)
(-0.0123597 0.0137961 0)
(-0.0109406 0.0106904 0)
(0.0141641 0.0152093 0)
(0.0152768 0.018669 0)
(0.0154489 0.0222153 0)
(0.0145729 0.0256383 0)
(0.0126713 0.028799 0)
(0.0098164 0.0315261 0)
(0.00611915 0.0335387 0)
(0.00182145 0.0345462 0)
(-0.00267274 0.0345402 0)
(-0.00688408 0.0333191 0)
(-0.0104587 0.0311049 0)
(-0.0131816 0.0281522 0)
(-0.0149203 0.024707 0)
(-0.0157437 0.0212034 0)
(-0.0155261 0.0176471 0)
(-0.0143296 0.0141811 0)
(0.017703 0.0191022 0)
(0.0185159 0.0229151 0)
(0.0182375 0.0266759 0)
(0.0169222 0.0304125 0)
(0.0145315 0.0338779 0)
(0.0111207 0.0367657 0)
(0.00685759 0.0388593 0)
(0.00198498 0.0399898 0)
(-0.00307614 0.03992 0)
(-0.00785974 0.0386415 0)
(-0.0119679 0.036247 0)
(-0.0151736 0.0330456 0)
(-0.0174334 0.0294305 0)
(-0.0186055 0.0255332 0)
(-0.0187976 0.0217141 0)
(-0.0179495 0.0179521 0)
(0.0214362 0.0232439 0)
(0.0217439 0.0271944 0)
(0.0210227 0.0312599 0)
(0.0191878 0.0351962 0)
(0.0162621 0.0387965 0)
(0.0123215 0.0418611 0)
(0.00750991 0.0440819 0)
(0.00210888 0.0451779 0)
(-0.00347364 0.045076 0)
(-0.00876051 0.0436996 0)
(-0.0133902 0.0412477 0)
(-0.0171327 0.0379586 0)
(-0.0198252 0.0340608 0)
(-0.0215096 0.0300073 0)
(-0.0220932 0.0258852 0)
(-0.0216735 0.0218858 0)
(0.0252236 0.0274653 0)
(0.0250366 0.0316526 0)
(0.0237372 0.0358334 0)
(0.0213612 0.0399379 0)
(0.0178983 0.0437083 0)
(0.0134113 0.0468223 0)
(0.00808741 0.049034 0)
(0.00219095 0.0501761 0)
(-0.00385866 0.050033 0)
(-0.00963451 0.0486553 0)
(-0.014752 0.0461268 0)
(-0.0189705 0.0427041 0)
(-0.0222188 0.0387625 0)
(-0.0243439 0.0344648 0)
(-0.0254493 0.0301818 0)
(-0.0255536 0.0260155 0)
(0.0291463 0.0318736 0)
(0.0282904 0.0361516 0)
(0.0264131 0.0404966 0)
(0.0234422 0.0446931 0)
(0.0194084 0.0484792 0)
(0.014401 0.0516315 0)
(0.0085809 0.0538759 0)
(0.00223853 0.0549605 0)
(-0.00424837 0.05481 0)
(-0.0104498 0.0533843 0)
(-0.0160378 0.0508612 0)
(-0.0207853 0.0474578 0)
(-0.0245065 0.0433672 0)
(-0.0272161 0.0390038 0)
(-0.028847 0.034595 0)
(-0.0295328 0.0302477 0)
(0.033089 0.0364092 0)
(0.0315642 0.0408094 0)
(0.0289972 0.0451985 0)
(0.0253954 0.0494106 0)
(0.0208024 0.0532163 0)
(0.0152716 0.0563283 0)
(0.00899601 0.0584894 0)
(0.00223683 0.0595654 0)
(-0.00462135 0.0593838 0)
(-0.0112417 0.0580001 0)
(-0.0172736 0.055495 0)
(-0.0224879 0.0520548 0)
(-0.0267993 0.0479962 0)
(-0.0300452 0.0436104 0)
(-0.0323393 0.0390844 0)
(-0.0336532 0.0346715 0)
(0.0370809 0.0410929 0)
(0.0347562 0.0455568 0)
(0.0314529 0.0499846 0)
(0.0272135 0.0541632 0)
(0.0220223 0.0578677 0)
(0.0159929 0.0608689 0)
(0.00930876 0.0629773 0)
(0.00219686 0.0639707 0)
(-0.00501428 0.0637895 0)
(-0.0119822 0.0624078 0)
(-0.0184326 0.0599572 0)
(-0.0241569 0.0566187 0)
(-0.0289836 0.0526396 0)
(-0.0329204 0.0482358 0)
(-0.0358548 0.043741 0)
(-0.0379416 0.0391546 0)
(0.041004 0.0458729 0)
(0.0378097 0.0504296 0)
(0.0337334 0.0548319 0)
(0.0287913 0.058904 0)
(0.0230109 0.0624697 0)
(0.0165341 0.0653197 0)
(0.00947278 0.067264 0)
(0.00205971 0.0681706 0)
(-0.00540295 0.0679512 0)
(-0.0127108 0.0666295 0)
(-0.0195031 0.0643078 0)
(-0.0257072 0.0611009 0)
(-0.0311259 0.0572455 0)
(-0.0357131 0.0529668 0)
(-0.0394475 0.0484002 0)
(-0.0422914 0.0437449 0)
(0.0447353 0.0507124 0)
(0.0406086 0.0553478 0)
(0.0356996 0.0597007 0)
(0.0300266 0.0636343 0)
(0.0236962 0.066978 0)
(0.0167849 0.0695868 0)
(0.0094197 0.0713296 0)
(0.00182094 0.0721042 0)
(-0.00587421 0.0718594 0)
(-0.0133414 0.0706315 0)
(-0.0205108 0.0684415 0)
(-0.0271069 0.0654708 0)
(-0.0331388 0.0617893 0)
(-0.0384149 0.0576246 0)
(-0.0429735 0.0530425 0)
(-0.0467086 0.0482651 0)
(0.0479964 0.0554984 0)
(0.0428658 0.0601995 0)
(0.037092 0.0644493 0)
(0.0307476 0.0681424 0)
(0.0239041 0.0711842 0)
(0.0166487 0.0734861 0)
(0.00910595 0.0749733 0)
(0.00138441 0.0755917 0)
(-0.00634621 0.0753284 0)
(-0.0139754 0.0741798 0)
(-0.0213313 0.0722093 0)
(-0.0283532 0.0694439 0)
(-0.0348816 0.0660164 0)
(-0.0409082 0.0619482 0)
(-0.046281 0.057429 0)
(-0.0510428 0.0524425 0)
(0.0501654 0.0598995 0)
(0.0440527 0.0645282 0)
(0.0375157 0.0685354 0)
(0.0306174 0.0718825 0)
(0.0234242 0.0745374 0)
(0.0160055 0.0764745 0)
(0.00843262 0.077675 0)
(0.000778534 0.0781276 0)
(-0.00688306 0.0778277 0)
(-0.0144784 0.0767782 0)
(-0.0219342 0.0749894 0)
(-0.0291789 0.0724784 0)
(-0.0361425 0.0692694 0)
(-0.042758 0.0653932 0)
(-0.0489618 0.0608873 0)
(-0.054694 0.055795 0)
(-0.00060788 0.000561708 0)
(-0.00113809 0.000995339 0)
(-0.00157116 0.00122194 0)
(-0.00207138 0.00133445 0)
(-0.00249101 0.00126244 0)
(-0.00287978 0.00105236 0)
(-0.0032493 0.000704819 0)
(-0.0035166 0.000240179 0)
(-0.00358284 -0.000287506 0)
(-0.00343743 -0.000799744 0)
(-0.00311215 -0.00119989 0)
(-0.00267317 -0.00144587 0)
(-0.00219226 -0.00151954 0)
(-0.00162438 -0.00136318 0)
(-0.00114713 -0.00110159 0)
(-0.000617428 -0.00064034 0)
(-0.00257138 0.00235229 0)
(-0.00387722 0.00330231 0)
(-0.00523506 0.00388362 0)
(-0.0064382 0.00397555 0)
(-0.0077301 0.00372528 0)
(-0.00884913 0.00305264 0)
(-0.00964894 0.00197962 0)
(-0.0103357 0.000651445 0)
(-0.0104902 -0.000831319 0)
(-0.01011 -0.00227253 0)
(-0.00925146 -0.00343148 0)
(-0.00809137 -0.00420082 0)
(-0.00672724 -0.00447274 0)
(-0.00535508 -0.00431138 0)
(-0.00390957 -0.00363578 0)
(-0.00253336 -0.00258044 0)
(-0.00501195 0.00458235 0)
(-0.00711114 0.00591476 0)
(-0.00906023 0.00654724 0)
(-0.0110627 0.00659614 0)
(-0.0129376 0.00601631 0)
(-0.0145606 0.00484423 0)
(-0.0159035 0.00313022 0)
(-0.0168449 0.00100871 0)
(-0.0170452 -0.00133098 0)
(-0.0164624 -0.00359857 0)
(-0.0151826 -0.0054673 0)
(-0.0134268 -0.00675465 0)
(-0.0114102 -0.00736334 0)
(-0.00921589 -0.00721693 0)
(-0.00712988 -0.00647922 0)
(-0.00500484 -0.0050449 0)
(-0.00800172 0.00728319 0)
(-0.0105805 0.00866334 0)
(-0.0132052 0.00930352 0)
(-0.0156864 0.00910224 0)
(-0.0181424 0.0081868 0)
(-0.0202687 0.0065154 0)
(-0.021876 0.00415342 0)
(-0.0229789 0.00131029 0)
(-0.0231931 -0.00179071 0)
(-0.0224413 -0.00479244 0)
(-0.0208379 -0.00731561 0)
(-0.0186275 -0.00912909 0)
(-0.0160291 -0.010079 0)
(-0.0133497 -0.010211 0)
(-0.0106056 -0.00945933 0)
(-0.00792075 -0.0079123 0)
(-0.011294 0.0102607 0)
(-0.0144107 0.0116261 0)
(-0.0174071 0.0120246 0)
(-0.0204608 0.0115814 0)
(-0.0232905 0.010229 0)
(-0.0257311 0.00803495 0)
(-0.0276871 0.00509381 0)
(-0.0288819 0.00157916 0)
(-0.029081 -0.00221742 0)
(-0.0281861 -0.00589012 0)
(-0.0263237 -0.00902922 0)
(-0.0237417 -0.011359 0)
(-0.0207575 -0.0127588 0)
(-0.0175329 -0.0131351 0)
(-0.0143915 -0.0126277 0)
(-0.0112352 -0.0111432 0)
(-0.014967 0.0135642 0)
(-0.0183547 0.0146459 0)
(-0.0218287 0.0148075 0)
(-0.0251765 0.0139565 0)
(-0.0283855 0.012177 0)
(-0.0311586 0.00947261 0)
(-0.0332397 0.00594014 0)
(-0.0344972 0.00180767 0)
(-0.0346651 -0.00261739 0)
(-0.0336612 -0.00690248 0)
(-0.0315981 -0.010615 0)
(-0.0287553 -0.0134717 0)
(-0.0253987 -0.0152933 0)
(-0.0219015 -0.0161114 0)
(-0.0183257 -0.0158526 0)
(-0.0148219 -0.0146025 0)
(-0.0187999 0.0170204 0)
(-0.0225468 0.0178104 0)
(-0.0262409 0.0175412 0)
(-0.0299743 0.0163055 0)
(-0.0334137 0.0140292 0)
(-0.03635 0.010793 0)
(-0.0386166 0.00672434 0)
(-0.0399122 0.00200935 0)
(-0.0400447 -0.00299685 0)
(-0.0389444 -0.0078496 0)
(-0.0367322 -0.0121073 0)
(-0.0336732 -0.0154707 0)
(-0.0301161 -0.0178047 0)
(-0.0262626 -0.0190024 0)
(-0.0224526 -0.0191801 0)
(-0.0186722 -0.0182937 0)
(-0.0228808 0.0206899 0)
(-0.0267754 0.0209864 0)
(-0.0308021 0.020313 0)
(-0.0346956 0.0185651 0)
(-0.0383591 0.015799 0)
(-0.0414876 0.0120551 0)
(-0.0437853 0.00743191 0)
(-0.045091 0.0021772 0)
(-0.0451887 -0.00336466 0)
(-0.0440142 -0.00873657 0)
(-0.0417005 -0.0135104 0)
(-0.0385126 -0.0173905 0)
(-0.0347353 -0.0201917 0)
(-0.0307473 -0.0219275 0)
(-0.0266624 -0.0225223 0)
(-0.0226598 -0.0220861 0)
(-0.0270484 0.0244391 0)
(-0.0311877 0.0242623 0)
(-0.0353296 0.0230289 0)
(-0.0394694 0.0207911 0)
(-0.043248 0.0174917 0)
(-0.0464191 0.0132104 0)
(-0.0487951 0.00807899 0)
(-0.0500903 0.00230798 0)
(-0.0501456 -0.00372606 0)
(-0.0489187 -0.00958097 0)
(-0.0465398 -0.0148398 0)
(-0.0432529 -0.0192148 0)
(-0.0394082 -0.0225649 0)
(-0.0352017 -0.0247665 0)
(-0.0309698 -0.0259143 0)
(-0.02682 -0.0260261 0)
(-0.0314113 0.0283552 0)
(-0.035651 0.0275312 0)
(-0.0399944 0.025759 0)
(-0.0441838 0.0229262 0)
(-0.048046 0.019087 0)
(-0.0512947 0.0142882 0)
(-0.0536235 0.0086375 0)
(-0.0548913 0.00239205 0)
(-0.0549032 -0.00409065 0)
(-0.053647 -0.0103818 0)
(-0.0512394 -0.0161018 0)
(-0.0479393 -0.0209776 0)
(-0.0439846 -0.0248226 0)
(-0.0397183 -0.0276319 0)
(-0.0353755 -0.0293266 0)
(-0.0310518 -0.0300522 0)
(-0.035922 0.0323279 0)
(-0.040293 0.0308707 0)
(-0.0446815 0.028406 0)
(-0.0489511 0.0249886 0)
(-0.0528148 0.0205727 0)
(-0.0559939 0.0152366 0)
(-0.0583064 0.00910366 0)
(-0.0595109 0.00240884 0)
(-0.0594816 -0.00446361 0)
(-0.0582113 -0.0111526 0)
(-0.0558228 -0.0172969 0)
(-0.0525077 -0.0226509 0)
(-0.0485763 -0.0270675 0)
(-0.0442799 -0.0304358 0)
(-0.0398294 -0.0328148 0)
(-0.0354421 -0.0341953 0)
(-0.0405968 0.0364147 0)
(-0.0450679 0.0341437 0)
(-0.04951 0.0310006 0)
(-0.053729 0.0269021 0)
(-0.0575071 0.0218865 0)
(-0.0606211 0.0160347 0)
(-0.0628219 0.00943401 0)
(-0.0639427 0.00236061 0)
(-0.0638709 -0.00486208 0)
(-0.0626128 -0.0118895 0)
(-0.0602514 -0.0184423 0)
(-0.0570323 -0.0242633 0)
(-0.0531458 -0.0292239 0)
(-0.0488581 -0.033255 0)
(-0.0443999 -0.0363093 0)
(-0.0398636 -0.0384605 0)
(-0.0454437 0.0404622 0)
(-0.0500002 0.037363 0)
(-0.0544165 0.0334158 0)
(-0.0585611 0.0285802 0)
(-0.0621898 0.0229935 0)
(-0.0651187 0.016586 0)
(-0.0671624 0.0096031 0)
(-0.0681607 0.00219567 0)
(-0.0680436 -0.0052793 0)
(-0.0667973 -0.0126202 0)
(-0.0645577 -0.0195085 0)
(-0.0614413 -0.0257899 0)
(-0.0576835 -0.0313086 0)
(-0.0534582 -0.0360032 0)
(-0.0489587 -0.0398157 0)
(-0.044301 -0.0427667 0)
(-0.0504075 0.0443787 0)
(-0.0550302 0.0403663 0)
(-0.0594359 0.0354928 0)
(-0.0633942 0.0299681 0)
(-0.0667951 0.0236884 0)
(-0.0694686 0.0168544 0)
(-0.0712731 0.00950628 0)
(-0.0721124 0.00191109 0)
(-0.0719269 -0.0057794 0)
(-0.0707475 -0.0133049 0)
(-0.0686262 -0.0204974 0)
(-0.0656961 -0.0271858 0)
(-0.06209 -0.0332518 0)
(-0.0579465 -0.0386234 0)
(-0.0534163 -0.0432279 0)
(-0.0486181 -0.047057 0)
(-0.055349 0.0478795 0)
(-0.0600717 0.0427553 0)
(-0.0643294 0.0370409 0)
(-0.0680463 0.0307229 0)
(-0.0711138 0.0239165 0)
(-0.0734413 0.0166778 0)
(-0.0749544 0.00914143 0)
(-0.0755993 0.00142566 0)
(-0.0753574 -0.00631791 0)
(-0.0742364 -0.0139524 0)
(-0.0722776 -0.0213455 0)
(-0.0695526 -0.0283707 0)
(-0.0661217 -0.0349529 0)
(-0.0621056 -0.0409764 0)
(-0.0575542 -0.0464161 0)
(-0.0526101 -0.0511821 0)
(-0.0598995 0.0501654 0)
(-0.0645282 0.0440527 0)
(-0.0685354 0.0375157 0)
(-0.0718825 0.0306174 0)
(-0.0745374 0.0234242 0)
(-0.0764745 0.0160055 0)
(-0.077675 0.00843262 0)
(-0.0781276 0.000778534 0)
(-0.0778277 -0.00688306 0)
(-0.0767782 -0.0144784 0)
(-0.0749894 -0.0219342 0)
(-0.0724784 -0.0291789 0)
(-0.0692694 -0.0361425 0)
(-0.0653932 -0.042758 0)
(-0.0608873 -0.0489618 0)
(-0.055795 -0.054694 0)
(-0.000613509 -0.000616113 0)
(-0.00105805 -0.00116074 0)
(-0.00129667 -0.00162176 0)
(-0.0014344 -0.00214774 0)
(-0.001378 -0.00262057 0)
(-0.00112494 -0.00296741 0)
(-0.000753154 -0.00328824 0)
(-0.000275685 -0.00358243 0)
(0.000261671 -0.00361359 0)
(0.000744062 -0.0033482 0)
(0.00112511 -0.00301046 0)
(0.00140133 -0.00266742 0)
(0.00148491 -0.00219571 0)
(0.00138594 -0.00169296 0)
(0.00111667 -0.00118967 0)
(0.000645607 -0.000634032 0)
(-0.00252947 -0.00260697 0)
(-0.00348726 -0.00395883 0)
(-0.00412323 -0.00538861 0)
(-0.00427612 -0.00671514 0)
(-0.00397302 -0.00792952 0)
(-0.0032482 -0.00903588 0)
(-0.00214673 -0.00995587 0)
(-0.000746302 -0.010516 0)
(0.000749169 -0.0105272 0)
(0.00214836 -0.0100435 0)
(0.00329298 -0.00920144 0)
(0.00407305 -0.00808347 0)
(0.00441123 -0.00680032 0)
(0.00428283 -0.00543867 0)
(0.00365481 -0.00402477 0)
(0.00259417 -0.00259721 0)
(-0.00487236 -0.0050911 0)
(-0.00624041 -0.00725906 0)
(-0.00693328 -0.00932339 0)
(-0.00701816 -0.0113896 0)
(-0.00641243 -0.0132985 0)
(-0.00514751 -0.0149038 0)
(-0.00335433 -0.0162161 0)
(-0.00114603 -0.0170953 0)
(0.00122153 -0.0171553 0)
(0.00341764 -0.0163675 0)
(0.0052343 -0.0150654 0)
(0.00656365 -0.0134456 0)
(0.00722656 -0.0114871 0)
(0.00719094 -0.00939404 0)
(0.00646713 -0.00727685 0)
(0.00501558 -0.00507888 0)
(-0.00769973 -0.00813863 0)
(-0.00911244 -0.0108028 0)
(-0.00980719 -0.0135267 0)
(-0.00964131 -0.0161171 0)
(-0.00864539 -0.0185104 0)
(-0.00688281 -0.0206437 0)
(-0.00443179 -0.0223291 0)
(-0.00147125 -0.0232849 0)
(0.00165269 -0.0233121 0)
(0.00458484 -0.0224379 0)
(0.00706104 -0.0208369 0)
(0.00887896 -0.0186698 0)
(0.00991635 -0.0161694 0)
(0.0100978 -0.0134988 0)
(0.00939415 -0.0107661 0)
(0.00785535 -0.00802519 0)
(-0.0107875 -0.0115 0)
(-0.0121898 -0.0146996 0)
(-0.0126273 -0.0178001 0)
(-0.0121722 -0.0208845 0)
(-0.0107627 -0.023757 0)
(-0.00844894 -0.0261973 0)
(-0.00537665 -0.0280903 0)
(-0.00174213 -0.0292119 0)
(0.0020801 -0.0292665 0)
(0.00566487 -0.0282088 0)
(0.00872399 -0.0263131 0)
(0.0110753 -0.0238334 0)
(0.0125248 -0.0208884 0)
(0.0129963 -0.0177329 0)
(0.0125073 -0.0145569 0)
(0.0110103 -0.0113288 0)
(-0.0141938 -0.0152458 0)
(-0.0153029 -0.0187145 0)
(-0.0154752 -0.0222587 0)
(-0.0146061 -0.0256758 0)
(-0.0127203 -0.0288412 0)
(-0.00988629 -0.0316112 0)
(-0.00621613 -0.0337194 0)
(-0.0019573 -0.0348427 0)
(0.00247818 -0.0348457 0)
(0.00667415 -0.0337567 0)
(0.0103141 -0.0316989 0)
(0.013155 -0.028875 0)
(0.0150453 -0.0255849 0)
(0.0158989 -0.022073 0)
(0.0156756 -0.01849 0)
(0.0144323 -0.0149367 0)
(-0.0177314 -0.0191535 0)
(-0.0185386 -0.0229734 0)
(-0.0182606 -0.0267329 0)
(-0.0169547 -0.0304643 0)
(-0.0145807 -0.0339355 0)
(-0.0111919 -0.036857 0)
(-0.00695581 -0.039032 0)
(-0.00212404 -0.040247 0)
(0.00288333 -0.0402719 0)
(0.00762707 -0.0390637 0)
(0.011787 -0.0368293 0)
(0.0151488 -0.0338373 0)
(0.0175099 -0.0302901 0)
(0.018775 -0.026471 0)
(0.0189655 -0.0226267 0)
(0.0180582 -0.0187767 0)
(-0.0214611 -0.0233096 0)
(-0.0217616 -0.0272662 0)
(-0.0210421 -0.0313294 0)
(-0.0192183 -0.0352614 0)
(-0.0163103 -0.0388657 0)
(-0.0123908 -0.0419561 0)
(-0.00760231 -0.044236 0)
(-0.00224387 -0.0454185 0)
(0.00327049 -0.0453885 0)
(0.00852844 -0.0441719 0)
(0.0132146 -0.0418737 0)
(0.0170619 -0.0386924 0)
(0.0199115 -0.0349572 0)
(0.021661 -0.0309436 0)
(0.0222784 -0.0268399 0)
(0.0218426 -0.0227947 0)
(-0.0252428 -0.0275444 0)
(-0.025049 -0.0317352 0)
(-0.0237534 -0.0359126 0)
(-0.0213892 -0.0400127 0)
(-0.0179437 -0.0437831 0)
(-0.0134733 -0.0469149 0)
(-0.00817128 -0.0491726 0)
(-0.00232093 -0.0503871 0)
(0.00366574 -0.0503721 0)
(0.00939749 -0.0490874 0)
(0.0145531 -0.046698 0)
(0.0189162 -0.0434645 0)
(0.0222668 -0.0396105 0)
(0.0245088 -0.0354161 0)
(0.0256615 -0.0311734 0)
(0.0257636 -0.0269585 0)
(-0.0291591 -0.0319627 0)
(-0.0282991 -0.0362398 0)
(-0.0264264 -0.0405805 0)
(-0.0234679 -0.0447695 0)
(-0.0194485 -0.0485526 0)
(-0.0144527 -0.0517168 0)
(-0.00865364 -0.0539985 0)
(-0.00235725 -0.0551626 0)
(0.0040526 -0.0550863 0)
(0.0102235 -0.0538103 0)
(0.0158628 -0.0514353 0)
(0.0207025 -0.0481386 0)
(0.0245697 -0.0442007 0)
(0.0273663 -0.0399519 0)
(0.0290824 -0.0355736 0)
(0.029795 -0.0312361 0)
(-0.0330969 -0.0365005 0)
(-0.0315699 -0.0408972 0)
(-0.0290091 -0.0452778 0)
(-0.0254183 -0.0494801 0)
(-0.0208343 -0.0532816 0)
(-0.0153121 -0.0564007 0)
(-0.00905554 -0.0585953 0)
(-0.0023514 -0.0597268 0)
(0.00445164 -0.0596596 0)
(0.0110305 -0.0583673 0)
(0.0170957 -0.0559821 0)
(0.0224364 -0.0526997 0)
(0.0268339 -0.0487915 0)
(0.0302089 -0.0444915 0)
(0.032557 -0.0400591 0)
(0.0339423 -0.0356082 0)
(-0.037085 -0.0411787 0)
(-0.0347609 -0.0456343 0)
(-0.0314636 -0.0500509 0)
(-0.0272314 -0.0542196 0)
(-0.0220451 -0.0579173 0)
(-0.0160209 -0.0609245 0)
(-0.00936012 -0.0630592 0)
(-0.00228934 -0.0641129 0)
(0.00485564 -0.0639865 0)
(0.0118067 -0.0627152 0)
(0.0182923 -0.0603914 0)
(0.0240893 -0.0571901 0)
(0.0290436 -0.0533241 0)
(0.0330419 -0.0490639 0)
(0.0360755 -0.0445903 0)
(0.0381876 -0.0400383 0)
(-0.0410062 -0.0459422 0)
(-0.0378138 -0.0504885 0)
(-0.0337415 -0.0548802 0)
(-0.0288028 -0.058942 0)
(-0.0230244 -0.062502 0)
(-0.0165533 -0.0653569 0)
(-0.00951067 -0.0673223 0)
(-0.00213947 -0.0682593 0)
(0.00530076 -0.0681097 0)
(0.0125533 -0.0668746 0)
(0.0194043 -0.0646411 0)
(0.0256609 -0.0615546 0)
(0.0311638 -0.0578167 0)
(0.0358232 -0.0536111 0)
(0.0395891 -0.0491144 0)
(0.042493 -0.0444411 0)
(-0.0447367 -0.050757 0)
(-0.040611 -0.0553842 0)
(-0.0357039 -0.0597287 0)
(-0.0300324 -0.0636548 0)
(-0.0237027 -0.0669948 0)
(-0.0167968 -0.0696066 0)
(-0.00944652 -0.0713612 0)
(-0.00185761 -0.0721634 0)
(0.00578083 -0.0719639 0)
(0.0132716 -0.0707781 0)
(0.0204258 -0.0686775 0)
(0.0271007 -0.0657601 0)
(0.0331477 -0.0621715 0)
(0.0384884 -0.058039 0)
(0.0430376 -0.0535245 0)
(0.0468302 -0.048719 0)
(-0.0479966 -0.055517 0)
(-0.0428666 -0.0602141 0)
(-0.0370935 -0.0644598 0)
(-0.0307494 -0.0681497 0)
(-0.0239069 -0.0711901 0)
(-0.0166541 -0.0734936 0)
(-0.00911352 -0.0749862 0)
(-0.00140915 -0.0756174 0)
(0.00632047 -0.0753677 0)
(0.0139348 -0.0742505 0)
(0.0213162 -0.0722968 0)
(0.0283337 -0.0695777 0)
(0.034904 -0.0661534 0)
(0.0409095 -0.0621437 0)
(0.0463153 -0.0576111 0)
(0.0510721 -0.0526562 0)
(-0.0501654 -0.0598995 0)
(-0.0440527 -0.0645282 0)
(-0.0375157 -0.0685354 0)
(-0.0306174 -0.0718825 0)
(-0.0234242 -0.0745374 0)
(-0.0160055 -0.0764745 0)
(-0.00843262 -0.077675 0)
(-0.000778534 -0.0781276 0)
(0.00688306 -0.0778277 0)
(0.0144784 -0.0767782 0)
(0.0219342 -0.0749894 0)
(0.0291789 -0.0724784 0)
(0.0361425 -0.0692694 0)
(0.042758 -0.0653932 0)
(0.0489618 -0.0608873 0)
(0.054694 -0.055795 0)
)
;

boundaryField
{
    walls
    {
        type            cellMotion;
        value           uniform (0 0 0);
    }
    cylinder
    {
        type            cellMotion;
        value           nonuniform List<vector> 
64
(
(0.0598995 -0.0501654 0)
(0.0645282 -0.0440527 0)
(0.0685354 -0.0375157 0)
(0.0718825 -0.0306174 0)
(0.0745374 -0.0234242 0)
(0.0764745 -0.0160055 0)
(0.077675 -0.00843262 0)
(0.0781276 -0.000778534 0)
(0.0778277 0.00688306 0)
(0.0767782 0.0144784 0)
(0.0749894 0.0219342 0)
(0.0724784 0.0291789 0)
(0.0692694 0.0361425 0)
(0.0653932 0.042758 0)
(0.0608873 0.0489618 0)
(0.055795 0.054694 0)
(0.0501654 0.0598995 0)
(0.0440527 0.0645282 0)
(0.0375157 0.0685354 0)
(0.0306174 0.0718825 0)
(0.0234242 0.0745374 0)
(0.0160055 0.0764745 0)
(0.00843262 0.077675 0)
(0.000778534 0.0781276 0)
(-0.00688306 0.0778277 0)
(-0.0144784 0.0767782 0)
(-0.0219342 0.0749894 0)
(-0.0291789 0.0724784 0)
(-0.0361425 0.0692694 0)
(-0.042758 0.0653932 0)
(-0.0489618 0.0608873 0)
(-0.054694 0.055795 0)
(-0.0598995 0.0501654 0)
(-0.0645282 0.0440527 0)
(-0.0685354 0.0375157 0)
(-0.0718825 0.0306174 0)
(-0.0745374 0.0234242 0)
(-0.0764745 0.0160055 0)
(-0.077675 0.00843262 0)
(-0.0781276 0.000778534 0)
(-0.0778277 -0.00688306 0)
(-0.0767782 -0.0144784 0)
(-0.0749894 -0.0219342 0)
(-0.0724784 -0.0291789 0)
(-0.0692694 -0.0361425 0)
(-0.0653932 -0.042758 0)
(-0.0608873 -0.0489618 0)
(-0.055795 -0.054694 0)
(-0.0501654 -0.0598995 0)
(-0.0440527 -0.0645282 0)
(-0.0375157 -0.0685354 0)
(-0.0306174 -0.0718825 0)
(-0.0234242 -0.0745374 0)
(-0.0160055 -0.0764745 0)
(-0.00843262 -0.077675 0)
(-0.000778534 -0.0781276 0)
(0.00688306 -0.0778277 0)
(0.0144784 -0.0767782 0)
(0.0219342 -0.0749894 0)
(0.0291789 -0.0724784 0)
(0.0361425 -0.0692694 0)
(0.042758 -0.0653932 0)
(0.0489618 -0.0608873 0)
(0.054694 -0.055795 0)
)
;
    }
    outlet
    {
        type            cellMotion;
        value           uniform (0 0 0);
    }
    inlet
    {
        type            cellMotion;
        value           uniform (0 0 0);
    }
    frontAndBack
    {
        type            empty;
    }
}


// ************************************************************************* //
