/*--------------------------------*- C++ -*----------------------------------*\
| =========                 |                                                 |
| \\      /  F ield         | OpenFOAM: The Open Source CFD Toolbox           |
|  \\    /   O peration     | Version:  2412                                  |
|   \\  /    A nd           | Website:  www.openfoam.com                      |
|    \\/     M anipulation  |                                                 |
\*---------------------------------------------------------------------------*/
FoamFile
{
    version     2.0;
    format      ascii;
    arch        "LSB;label=32;scalar=64";
    class       surfaceScalarField;
    location    "0.1";
    object      meshPhi;
}
// * * * * * * * * * * * * * * * * * * * * * * * * * * * * * * * * * * * * * //

dimensions      [0 3 -1 0 0 0 0];

internalField   nonuniform List<scalar> 
1984
(
0.00312433
-0.00818076
-0.00325872
0.00346011
-0.00888152
0.00378308
-0.00978528
0.00408191
-0.0100886
0.00436732
-0.00968114
0.00450471
-0.00824623
0.00497412
-0.0057267
0.00560476
-0.00237289
0.00601288
0.00187413
0.00626932
0.0064559
0.00633387
0.0103158
0.00608712
0.0126786
0.00538045
0.0130469
0.00431115
0.0115147
0.0033363
0.00905643
0.00721344
0.00297949
0.00996201
-0.016423
-0.0102214
0.0108858
-0.0178447
0.0116383
-0.0191342
0.0124397
-0.0191964
0.0131288
-0.0180164
0.0134293
-0.015071
0.0145918
-0.0103721
0.0162114
-0.00431222
0.0173208
0.00313705
0.0180295
0.0110712
0.0182164
0.0177899
0.017611
0.0220894
0.0157986
0.0232055
0.0131064
0.0213271
0.0105
0.017766
0.0147075
0.00948159
0.0177451
-0.024108
-0.0179693
0.0190848
-0.026061
0.0200549
-0.0275543
0.0210525
-0.0271713
0.0218297
-0.0249381
0.0222129
-0.0205846
0.0236445
-0.0141551
0.0257201
-0.00596039
0.0272948
0.0038789
0.0283404
0.0141916
0.0286597
0.0229833
0.0279076
0.0288144
0.0255928
0.0309158
0.0221501
0.029491
0.0185175
0.0257075
0.0219897
0.0169584
0.0261691
-0.031011
-0.0263861
0.027756
-0.0332584
0.0287701
-0.0346556
0.0296991
-0.0336657
0.0303619
-0.0304379
0.0307767
-0.0248606
0.0321649
-0.0170656
0.034275
-0.00728321
0.0360865
0.00422786
0.0373641
0.0161195
0.0378362
0.0263109
0.0371175
0.033327
0.0348026
0.0364768
0.0312581
0.0359276
0.0271013
0.0325042
0.0286944
0.0252954
0.0350889
-0.0369181
-0.0354344
0.0367074
-0.0391653
0.03757
-0.040324
0.0382482
-0.0387408
0.0386516
-0.0345874
0.0389973
-0.0280184
0.0401748
-0.0192374
0.0420771
-0.00834714
0.0439491
0.00428903
0.0453777
0.0171868
0.0460166
0.0282955
0.045493
0.036193
0.0435029
0.0402917
0.0402828
0.0407024
0.0360476
0.0379545
0.0344395
0.0343357
0.0443771
-0.0416362
-0.0450184
0.0458339
-0.0437171
0.0463653
-0.0445088
0.0466062
-0.0423266
0.0466331
-0.0374531
0.0467667
-0.0301538
0.0476404
-0.0206745
0.0492397
-0.00909701
0.0510505
0.00415189
0.0525652
0.0175427
0.053383
0.0291048
0.0531794
0.0375527
0.0517315
0.0424185
0.049103
0.0437579
0.0451813
0.0418517
0.0389504
0.0438867
0.0539286
-0.0450195
-0.0550403
0.0550298
-0.0467264
0.0550637
-0.0471042
0.0547304
-0.0444726
0.0542691
-0.0390826
0.0540435
-0.0313318
0.054549
-0.0214858
0.0558265
-0.00958253
0.0574908
0.00387686
0.0590379
0.0173528
0.0600593
0.0290039
0.060287
0.0376944
0.0595318
0.0430932
0.0576919
0.0452176
0.0544051
0.0441983
0.0420533
0.0537916
0.0636797
-0.046984
-0.0654653
0.0641818
-0.0481657
0.0635665
-0.0480472
0.0625596
-0.0450604
0.0615327
-0.0394624
0.0608587
-0.0315861
0.0609476
-0.0216395
0.0618771
-0.00973117
0.0633408
0.00354832
0.0648928
0.0166927
0.0661636
0.0280359
0.0669225
0.0366571
0.0669971
0.0423469
0.0660493
0.0450921
0.0636427
0.0449131
0.0436708
0.0639964
0.0735864
-0.0474366
-0.0762993
0.0732108
-0.0479544
0.0717967
-0.0473321
0.0700556
-0.0441728
0.0684188
-0.0385827
0.067233
-0.030829
0.066878
-0.021087
0.0674389
-0.00951012
0.0686795
0.0032208
0.0702434
0.0156523
0.0718197
0.0263379
0.0732198
0.0345682
0.0741357
0.0402756
0.0741368
0.0434487
0.0729093
0.0441226
0.0438435
0.0744495
0.0837077
-0.0463659
-0.087635
0.0821642
-0.046159
0.0797911
-0.0449749
0.0772307
-0.0417227
0.0749479
-0.0364051
0.0732215
-0.0290781
0.0724043
-0.019801
0.0726
-0.00886066
0.0736348
0.00291957
0.075256
0.0142372
0.0772148
0.0239132
0.0792582
0.0314798
0.0810069
0.0370186
0.0821245
0.040544
0.0823403
0.0420221
0.0426737
0.0852487
0.0942437
-0.043555
-0.0996122
0.0911538
-0.0426194
0.0876251
-0.0409229
0.0841623
-0.0377492
0.0811677
-0.0329146
0.078883
-0.0262917
0.0776109
-0.0178087
0.077467
-0.00786186
0.0783616
0.00262163
0.0801016
0.012521
0.0824778
0.0209533
0.0851646
0.0276997
0.0878839
0.0329392
0.0903204
0.0366371
0.0922622
0.0388155
0.0402752
0.0968085
0.105019
-0.0385545
-0.111902
0.100231
-0.0371827
0.0954294
-0.0352176
0.09097
-0.0322446
0.0872004
-0.0280976
0.084337
-0.0224034
0.082615
-0.015056
0.0821861
-0.00653845
0.0830082
0.00231193
0.0849467
0.0105734
0.0877797
0.0176487
0.0912453
0.0234403
0.0950809
0.0281756
0.0990644
0.0318474
0.103015
0.03439
0.036298
0.109286
0.115746
-0.0315667
-0.123996
0.10932
-0.0300917
0.103152
-0.0280157
0.0976594
-0.0253959
0.093038
-0.0219709
0.0895172
-0.0173169
0.0873295
-0.0114659
0.086659
-0.00480524
0.0874746
0.00203238
0.0897059
0.00841578
0.0931269
0.0139437
0.0975141
0.0186407
0.102657
0.02263
0.108376
0.025903
0.114379
0.0284142
0.0303504
0.122347
0.126287
-0.0227597
-0.135908
0.118142
-0.0213501
0.110606
-0.0194712
0.103968
-0.0173174
0.0984078
-0.0146152
0.0942038
-0.0112254
0.0915911
-0.00720403
0.0907131
-0.00276688
0.0916017
0.00173473
0.0941839
0.00597504
0.0982867
0.00975335
0.103686
0.0130972
0.110239
0.0160422
0.117667
0.0185501
0.125679
0.0206039
0.0222653
0.135291
0.136096
-0.011844
-0.147189
0.126182
-0.0107792
0.117201
-0.00953157
0.109346
-0.00815123
0.102909
-0.00657621
0.0981135
-0.00480322
0.0951588
-0.00284785
0.0941596
-0.000786531
0.0951625
0.00128649
0.0980975
0.00327514
0.102842
0.00513153
0.10921
0.00684955
0.117033
0.00842959
0.126022
0.00984048
0.135889
0.0110715
0.012143
0.147056
0.142425
-0.154818
0.131071
0.120928
0.112259
0.105301
0.100239
0.0972128
0.0963007
0.0975151
0.100804
0.106057
0.113115
0.121773
0.131772
0.142811
0.154799
0.00321671
-0.00837433
0.00388428
-0.0096829
0.00456785
-0.0113356
0.00481213
-0.0121073
0.00460825
-0.01126
0.00442159
-0.0090858
0.00440336
-0.00597171
0.00475178
-0.00183092
0.0051802
0.00280628
0.00502724
0.00674735
0.00464358
0.009372
0.0041818
0.0106419
0.00371387
0.0108658
0.00314361
0.0102449
0.0023539
0.00878557
0.00731234
0.00198554
0.0099911
-0.0166893
0.0119147
-0.018839
0.0136114
-0.0213396
0.0141954
-0.0220398
0.0137306
-0.0202864
0.0132114
-0.016423
0.0130661
-0.0107687
0.0139145
-0.00333558
0.0149795
0.0048353
0.0146825
0.0119145
0.0137513
0.0168262
0.0125731
0.019467
0.0113087
0.0203063
0.0097954
0.0196606
0.00764713
0.0174756
0.0149677
0.00661862
0.0175449
-0.0246225
0.0202866
-0.0271349
0.0224236
-0.0296767
0.0231077
-0.0298988
0.022536
-0.0272453
0.0217814
-0.0220105
0.0214935
-0.0144131
0.0225042
-0.00455508
0.0237994
0.0062289
0.0235732
0.0157166
0.022476
0.0225317
0.0209906
0.0265737
0.0192875
0.0283756
0.0171334
0.0281118
0.0140268
0.0256219
0.0224393
0.0124993
0.0257681
-0.0317327
0.0287838
-0.034147
0.030899
-0.0362455
0.031513
-0.0356927
0.0308968
-0.032233
0.0300373
-0.0260197
0.029652
-0.0170368
0.0305558
-0.00544444
0.0318122
0.00716705
0.0317664
0.0183925
0.0308045
0.026751
0.0293429
0.0320884
0.0275003
0.0348556
0.0249917
0.0351646
0.0212562
0.0327315
0.0293098
0.019498
0.0344837
-0.0377674
0.0373488
-0.0398293
0.0391108
-0.041193
0.0395352
-0.0398431
0.0388575
-0.035659
0.0379468
-0.0286406
0.0374641
-0.0186868
0.0381253
-0.00600501
0.0392291
0.00776188
0.0393954
0.020142
0.0387443
0.0296023
0.0375195
0.0359998
0.0357548
0.0396947
0.0331656
0.0406357
0.0291412
0.0385097
0.0352044
0.0274475
0.0435392
-0.0424341
0.0459743
-0.0439745
0.0471991
-0.0445733
0.0472901
-0.0424075
0.0464714
-0.0375742
0.0454691
-0.0299983
0.0448666
-0.0194591
0.0452536
-0.00620814
0.046163
0.00809695
0.0465366
0.0210673
0.0462722
0.0312241
0.0454132
0.0383858
0.0439174
0.042791
0.0414781
0.0443346
0.0375199
0.0427125
0.0398598
0.0361885
0.0528099
-0.0456433
0.0546572
-0.0466177
0.0552337
-0.0464389
0.0548685
-0.0435982
0.0538043
-0.0382595
0.05261
-0.03028
0.0518396
-0.0194552
0.0519573
-0.00610342
0.0526781
0.00822181
0.0532517
0.0212827
0.0534025
0.0317002
0.0530033
0.0393123
0.0519198
0.0442542
0.0498624
0.0463306
0.0463046
0.0453243
0.0431054
0.0455845
0.0622651
-0.0472824
0.0633319
-0.0475892
0.0632124
-0.0467146
0.0622998
-0.0433412
0.0608786
-0.0376781
0.059409
-0.0295691
0.0584059
-0.0188019
0.0582519
-0.00575129
0.0588177
0.00811669
0.0595896
0.0208132
0.0601798
0.0311364
0.060308
0.0389094
0.0597921
0.0441474
0.0582931
0.0466425
0.0554178
0.0462736
0.0448671
0.0556014
0.0717978
-0.0471933
0.0719308
-0.0468901
0.0710557
-0.0454344
0.0695613
-0.0417313
0.0676986
-0.0359772
0.0658674
-0.0279989
0.0645702
-0.0176081
0.0641684
-0.00522596
0.0646401
0.0077994
0.0656174
0.0197406
0.0666636
0.0296058
0.0673889
0.0372584
0.06749
0.0425959
0.0666955
0.0453664
0.0648645
0.0456828
0.045145
0.0661657
0.0815833
-0.0455705
0.0805846
-0.0447219
0.0788329
-0.0427339
0.0766385
-0.0388146
0.0742409
-0.0331907
0.0719827
-0.0256498
0.0703728
-0.0159672
0.0697742
-0.00460928
0.070204
0.00719743
0.0714108
0.0180431
0.0729148
0.0271713
0.074204
0.0344489
0.0749893
0.0397044
0.0751689
0.0427184
0.0747072
0.0436946
0.0439734
0.0772961
0.0919461
-0.04251
0.0894816
-0.0411459
0.0865824
-0.0386671
0.083511
-0.0347325
0.0804895
-0.0294636
0.0777758
-0.0226088
0.0758751
-0.0140056
0.0751229
-0.00400884
0.075569
0.00633236
0.0769932
0.0158417
0.0788497
0.0239848
0.0807021
0.0306406
0.0824131
0.0356319
0.0838992
0.0388347
0.085167
0.0404447
0.0414034
0.0893083
0.102954
-0.0378276
0.0987095
-0.0360717
0.0944243
-0.0333514
0.0903073
-0.0296114
0.0865222
-0.0248751
0.0833509
-0.0189905
0.0811819
-0.011737
0.0802937
-0.0033702
0.0807503
0.00525806
0.0823043
0.0132422
0.0845065
0.0201475
0.0871143
0.0259407
0.0900144
0.0304823
0.0931722
0.0337246
0.0965473
0.035765
0.0371465
0.102359
0.114396
-0.0312954
0.108249
-0.0294697
0.102389
-0.0268246
0.0970372
-0.0234855
0.092404
-0.0195302
0.0887158
-0.0147902
0.0862201
-0.00906525
0.0851758
-0.00257993
0.0856375
0.00405592
0.0874045
0.0102413
0.0901681
0.0156628
0.0937536
0.0203421
0.0981477
0.0242238
0.103246
0.0272212
0.10884
0.0293693
0.0309448
0.116396
0.125751
-0.0226784
0.117675
-0.0211194
0.110157
-0.0189026
0.103516
-0.0162953
0.0979601
-0.0133371
0.0936504
-0.00990299
0.0908341
-0.00595129
0.0896889
-0.00162203
0.0902848
0.00276794
0.0924535
0.00687765
0.0959998
0.0106206
0.100828
0.0139512
0.106883
0.0168492
0.113928
0.0192692
0.12171
0.021126
0.0226323
0.131072
0.136024
-0.0118059
0.126079
-0.0107319
0.117015
-0.00937856
0.109144
-0.00788428
0.102685
-0.00624896
0.0978385
-0.00446095
0.0947898
-0.00252459
0.093661
-0.000490713
0.0944972
0.0015484
0.0972025
0.00350821
0.10165
0.00535941
0.10777
0.00707998
0.115336
0.00865565
0.124172
0.0100623
0.133945
0.011241
0.0122763
0.145026
0.142436
0.131061
0.120893
0.112213
0.105245
0.100175
0.0971248
0.0961846
0.0973518
0.10059
0.105771
0.112777
0.121371
0.131343
0.142362
0.154338
0.0023722
-0.0037919
0.0030965
-0.0057728
0.00361269
-0.00762316
0.00396261
-0.00838288
0.00426087
-0.00819646
0.00441408
-0.00691649
0.00489665
-0.00449867
0.00553389
-0.0011873
0.00593954
0.00297818
0.00618631
0.00743707
0.00624096
0.011196
0.00598904
0.0134654
0.00528349
0.0137019
0.00420997
0.0119917
0.00319705
0.00931918
0.00722275
0.00280893
0.00759805
-0.0085579
0.00967487
-0.0117948
0.0110389
-0.0147799
0.0120451
-0.0158196
0.0128006
-0.0151655
0.013154
-0.0125754
0.0143572
-0.00811711
0.0159977
-0.00219352
0.017102
0.00508085
0.0177851
0.0127934
0.0179453
0.0193263
0.0173257
0.0234469
0.0155132
0.0243242
0.0128029
0.0221293
0.0100979
0.0181691
0.0146595
0.00899863
0.0138532
-0.0139756
0.0168971
-0.0178163
0.0188808
-0.0212942
0.0203176
-0.0222963
0.021264
-0.020945
0.0217495
-0.0171742
0.0232538
-0.0111194
0.0253672
-0.00317328
0.026939
0.00639398
0.0279503
0.016409
0.0282322
0.0249461
0.0274588
0.0305254
0.0251369
0.0322987
0.021655
0.0304443
0.0178901
0.0261223
0.0218182
0.0162276
0.0209916
-0.0194686
0.0245912
-0.0234102
0.0269418
-0.026887
0.0285649
-0.0275658
0.0295406
-0.0255341
0.030124
-0.0207714
0.0316229
-0.0135045
0.033791
-0.00409005
0.035607
0.00706821
0.0368489
0.0186092
0.0372786
0.0284929
0.0365329
0.0351926
0.0341989
0.03794
0.0305946
0.0368757
0.0262934
0.0328125
0.0283291
0.0243799
0.0288405
-0.0247354
0.0326523
-0.028446
0.0350902
-0.0315853
0.0366865
-0.0317935
0.0375665
-0.0290667
0.0381619
-0.0235249
0.0394915
-0.0154116
0.0414746
-0.00498674
0.0433632
0.00723817
0.0447609
0.0197527
0.0453573
0.0305151
0.0448017
0.0380448
0.0427795
0.0416811
0.0394848
0.0415111
0.0351076
0.0380626
0.03384
0.0332911
0.0372509
-0.0293693
0.0409722
-0.0325908
0.0432617
-0.0352074
0.0446216
-0.0348762
0.0452893
-0.0315875
0.0457647
-0.0254844
0.0468344
-0.0168131
0.0485383
-0.00578627
0.0503807
0.00701956
0.0518741
0.0200159
0.0526529
0.0312093
0.0524141
0.0392495
0.0509233
0.0436064
0.0482115
0.0443242
0.044158
0.0416986
0.0381008
0.0427637
0.0461124
-0.0331794
0.049466
-0.0357668
0.0513716
-0.037705
0.0523464
-0.0368655
0.0526865
-0.0331573
0.0528991
-0.0267398
0.0536461
-0.017803
0.0550517
-0.00650014
0.0567637
0.00650897
0.0583021
0.019599
0.0592911
0.0308746
0.0594824
0.0391327
0.0586764
0.0439951
0.0567492
0.0454825
0.0533427
0.0437616
0.0409743
0.0526324
0.0553976
-0.0359233
0.0580499
-0.0377053
0.0593819
-0.0389133
0.0598371
-0.0376455
0.0597538
-0.0337628
0.0596087
-0.0272929
0.0599817
-0.0183174
0.0610609
-0.00702336
0.0625882
0.00582959
0.0641452
0.0186154
0.0653922
0.0295916
0.0661151
0.0377725
0.0661331
0.0429159
0.0650949
0.0450345
0.0625784
0.0442142
0.0424215
0.0628355
0.0649608
-0.0373065
0.0666361
-0.0382899
0.0672176
-0.0387834
0.0670718
-0.0372231
0.0665022
-0.0333496
0.065923
-0.0270301
0.0658876
-0.0182632
0.0666158
-0.00727287
0.0679341
0.00508012
0.0695167
0.0171959
0.0710786
0.0275372
0.0724439
0.0353335
0.0732972
0.0405073
0.0732057
0.0431025
0.0718781
0.0432308
0.0425125
0.0733201
0.0748944
-0.0373598
0.0752775
-0.037559
0.074913
-0.0373427
0.0740586
-0.0355637
0.0729507
-0.0318647
0.0718969
-0.0259051
0.0714292
-0.0175406
0.0718054
-0.00712331
0.0729291
0.00433984
0.0745813
0.0153915
0.0765342
0.024754
0.0785426
0.031913
0.0802257
0.0369684
0.081253
0.0400001
0.0813803
0.0410504
0.0413804
0.0841898
0.0854305
-0.0360172
0.0841521
-0.0354899
0.0826033
-0.03467
0.0808852
-0.0327472
0.07913
-0.0292639
0.0775732
-0.0237962
0.0766812
-0.0160942
0.0767315
-0.00658886
0.0777243
0.0036367
0.0795051
0.0133151
0.0818818
0.0214744
0.0845361
0.0278707
0.0871934
0.0327147
0.0895495
0.0360339
0.0914187
0.0379105
0.0391554
0.0958689
0.0967585
-0.0331147
0.0935859
-0.0320926
0.0905829
-0.0307925
0.0877634
-0.0287075
0.0851999
-0.0254966
0.0830781
-0.0206182
0.081756
-0.0138402
0.0815336
-0.00565886
0.0824614
0.00298784
0.0844479
0.0110707
0.0872885
0.0179292
0.0907296
0.0234567
0.0945155
0.0279108
0.0984374
0.0313302
0.102334
0.0336863
0.0354671
0.108518
0.109065
-0.0284536
0.103823
-0.0272063
0.09906
-0.0255333
0.0948785
-0.0233744
0.0912698
-0.0204315
0.0884077
-0.0162189
0.0865945
-0.0107031
0.086123
-0.00425908
0.0870424
0.00243595
0.0893239
0.00869222
0.092759
0.0140741
0.0971331
0.0186055
0.102246
0.0224306
0.107925
0.0255639
0.113891
0.0279773
0.0298487
0.121789
0.122023
-0.0214693
0.114553
-0.0202205
0.10785
-0.0184931
0.102028
-0.0164764
0.0971385
-0.0139321
0.0933993
-0.0107092
0.0910662
-0.00683204
0.0903423
-0.00249945
0.0913133
0.00192631
0.0939368
0.00609853
0.0980543
0.00980385
0.10345
0.0130713
0.109989
0.0159444
0.117396
0.018393
0.125386
0.020407
0.0220435
0.13495
0.134242
-0.0115552
0.124586
-0.0105635
0.115927
-0.0093353
0.108419
-0.00796936
0.102286
-0.00641728
0.097713
-0.00467597
0.0948989
-0.00275245
0.0939799
-0.000717135
0.0950264
0.00133557
0.0979833
0.00330593
0.102736
0.00514376
0.109104
0.00684322
0.116922
0.00840631
0.125901
0.00980343
0.135759
0.0110254
0.0120922
0.146902
0.142032
0.130723
0.120643
0.112046
0.105155
0.100144
0.0971513
0.0962586
0.0974836
0.100777
0.106033
0.11309
0.121748
0.131744
0.14278
0.154762
0.00309253
-0.00783559
0.00380624
-0.00944988
0.0045004
-0.0113126
0.004759
-0.0121806
0.00460884
-0.0113412
0.00458982
-0.00912482
0.00498503
-0.00612689
0.0052817
-0.00240567
0.00516069
0.00171916
0.00501882
0.00553304
0.00520436
0.00887597
0.00536757
0.0115677
0.00517864
0.0129887
0.0046346
0.0127601
0.00383108
0.0110705
0.00892735
0.00963455
-0.0158066
0.011682
-0.0184444
0.0134173
-0.0213063
0.0140478
-0.022184
0.0137233
-0.0204351
0.0136634
-0.0165003
0.0145407
-0.0110383
0.0152534
-0.00426064
0.0150661
0.00310461
0.0148432
0.00991803
0.0153335
0.0158613
0.0157186
0.0206218
0.0152179
0.0232923
0.013798
0.0232794
0.0116125
0.0207249
0.0173844
0.0169912
-0.0236127
0.0199081
-0.0266927
0.0221232
-0.0296797
0.0228857
-0.0301291
0.0224985
-0.0274546
0.0223764
-0.0220987
0.0233069
-0.0146966
0.0241771
-0.00559939
0.0241517
0.00415954
0.0241179
0.0131942
0.0248336
0.0210629
0.0253377
0.0274047
0.0246788
0.0312092
0.0227595
0.0317076
0.0196744
0.0289517
0.0251176
0.0250544
-0.0307808
0.0282769
-0.0337765
0.0305104
-0.0363425
0.0312237
-0.0360221
0.0308013
-0.0324878
0.030615
-0.0260806
0.0313805
-0.0172557
0.0322341
-0.00647219
0.0324658
0.00496413
0.0327527
0.0155497
0.0336569
0.0247635
0.0342515
0.0322186
0.0335925
0.0369446
0.0315195
0.0381201
0.0280317
0.035669
0.0319191
0.0336468
-0.0370129
0.0367344
-0.0396226
0.0386411
-0.0414248
0.0391675
-0.0402673
0.0386765
-0.0359368
0.0383921
-0.0286564
0.0389059
-0.0188195
0.0396487
-0.0069627
0.0401407
0.00551611
0.040785
0.0170776
0.0418873
0.0271675
0.0426046
0.0354298
0.0421005
0.040951
0.0401876
0.0428723
0.0367184
0.041009
0.0376751
0.0426155
-0.041964
0.0452696
-0.0439885
0.0466425
-0.0449612
0.0468224
-0.042914
0.0461707
-0.0378593
0.0457042
-0.0299717
0.0459293
-0.0195133
0.0465445
-0.00708148
0.0472592
0.00587835
0.0482419
0.0178959
0.0495627
0.0284316
0.0504823
0.0371682
0.0502905
0.0432731
0.0487845
0.0458844
0.0456857
0.0447508
0.042089
0.0518288
-0.0454813
0.0538703
-0.0468599
0.0545763
-0.046966
0.0542775
-0.0441576
0.053345
-0.0385421
0.0525858
-0.030221
0.0524995
-0.0194416
0.0530033
-0.00688861
0.0538937
0.00605299
0.0551694
0.01806
0.0567339
0.0286779
0.0579526
0.0376552
0.0582258
0.0441897
0.0573197
0.0473892
0.0548879
0.0470043
0.045099
0.0612484
-0.0474038
0.0624662
-0.0480262
0.0624411
-0.0473444
0.0615656
-0.0439277
0.0602368
-0.0379522
0.0591101
-0.0294811
0.0587021
-0.0187326
0.0590881
-0.00646659
0.0600958
0.0060249
0.0616208
0.017637
0.0634789
0.0280382
0.0651058
0.0370015
0.0659548
0.0437154
0.065803
0.0473106
0.0643116
0.04762
0.0465491
0.0707674
-0.0475433
0.0709929
-0.0474708
0.0701676
-0.0461242
0.0686781
-0.0423203
0.0668742
-0.0362336
0.0653233
-0.0278904
0.0645954
-0.0175152
0.064854
-0.00590246
0.0659259
0.00578481
0.0676733
0.0166829
0.0698909
0.0265896
0.0719931
0.0352996
0.0735134
0.0419918
0.0743149
0.0458374
0.0740175
0.0468014
0.0465168
0.0805712
-0.0460694
0.0795999
-0.0453771
0.0778489
-0.043433
0.0756291
-0.039375
0.073267
-0.0334188
0.0712669
-0.0255356
0.0702292
-0.0158976
0.0703408
-0.00528183
0.0714407
0.00531308
0.0734376
0.0152358
0.0760412
0.0244058
0.0786941
0.032633
0.081102
0.0391089
0.0830625
0.0430954
0.0841564
0.0446088
0.0449927
0.0910033
-0.0430532
0.0885043
-0.0417881
0.0855581
-0.0393111
0.0824324
-0.0352218
0.0794322
-0.0296451
0.0769741
-0.0225093
0.0756353
-0.0139884
0.0755873
-0.00465969
0.0767195
0.00465787
0.078933
0.0134046
0.0818947
0.0215805
0.0852427
0.0290449
0.0887292
0.0350694
0.092039
0.0390443
0.0947551
0.0410164
0.0420233
0.102145
-0.0383051
0.0978177
-0.0366092
0.0934457
-0.0338692
0.0892498
-0.0299842
0.0854806
-0.0249997
0.0825593
-0.0189217
0.0809072
-0.011779
0.0806513
-0.00393796
0.0817741
0.00389064
0.0841292
0.0112746
0.0874881
0.0182116
0.0916143
0.0245784
0.0962669
0.0298667
0.101082
0.0335932
0.105535
0.0358079
0.0372877
0.113777
-0.0316288
0.107526
-0.0298353
0.101562
-0.0271675
0.0961259
-0.0237223
0.091512
-0.0196067
0.0880439
-0.0147626
0.0859638
-0.00912465
0.0854557
-0.00300002
0.0865353
0.00308703
0.0890628
0.00885558
0.092865
0.0142879
0.0977892
0.0193026
0.103632
0.0235386
0.109926
0.0267217
0.116115
0.0289473
0.0306981
0.125354
-0.022847
0.11719
-0.0213018
0.109585
-0.0190726
0.102881
-0.0164123
0.0973473
-0.013379
0.0931942
-0.00990036
0.0906625
-0.00599038
0.0899263
-0.00186093
0.0909742
0.00224158
0.0937139
0.00616743
0.0980149
0.00988653
0.103775
0.0133272
0.11073
0.0163062
0.118419
0.0187314
0.126435
0.0206606
0.022282
0.13584
-0.0118504
0.125849
-0.0107804
0.11674
-0.00942452
0.10884
-0.00791688
0.102398
-0.00626342
0.0976271
-0.00446119
0.0947279
-0.00254021
0.0938005
-0.000559535
0.0948653
0.00141013
0.0978622
0.00332005
0.102691
0.00515831
0.109218
0.00688645
0.117188
0.00845321
0.126246
0.0098461
0.136091
0.0110583
0.0120978
0.142393
0.131007
0.120829
0.112143
0.105181
0.100129
0.097117
0.0962197
0.0974494
0.100752
0.106026
0.113116
0.121803
0.131813
0.142848
)
;

boundaryField
{
    walls
    {
        type            calculated;
        value           uniform 0;
    }
    cylinder
    {
        type            calculated;
        value           nonuniform List<scalar> 
64
(
2.55348e-11
-5.04334e-11
-3.25679e-11
4.49626e-11
-1.59627e-11
8.777e-12
2.6455e-11
-2.15427e-11
2.15447e-11
-2.64525e-11
-8.77395e-12
1.59661e-11
-4.49582e-11
3.25709e-11
5.04362e-11
-2.55317e-11
2.55348e-11
-5.04334e-11
-3.25679e-11
4.49626e-11
-1.59627e-11
8.777e-12
2.6455e-11
-2.15427e-11
2.15447e-11
-2.64525e-11
-8.77395e-12
1.59661e-11
-4.49582e-11
3.25709e-11
5.04362e-11
-2.55317e-11
2.55348e-11
-5.04334e-11
-3.25679e-11
4.49626e-11
-1.59627e-11
8.777e-12
2.6455e-11
-2.15427e-11
2.15447e-11
-2.64525e-11
-8.77395e-12
1.59661e-11
-4.49582e-11
3.25709e-11
5.04362e-11
-2.55317e-11
2.55348e-11
-5.04334e-11
-3.25679e-11
4.49626e-11
-1.59627e-11
8.777e-12
2.6455e-11
-2.15427e-11
2.15447e-11
-2.64525e-11
-8.77395e-12
1.59661e-11
-4.49582e-11
3.25709e-11
5.04362e-11
-2.55317e-11
)
;
    }
    outlet
    {
        type            calculated;
        value           uniform 0;
    }
    inlet
    {
        type            calculated;
        value           uniform 0;
    }
    frontAndBack
    {
        type            empty;
    }
}


// ************************************************************************* //
