/*--------------------------------*- C++ -*----------------------------------*\
| =========                 |                                                 |
| \\      /  F ield         | OpenFOAM: The Open Source CFD Toolbox           |
|  \\    /   O peration     | Version:  2412                                  |
|   \\  /    A nd           | Website:  www.openfoam.com                      |
|    \\/     M anipulation  |                                                 |
\*---------------------------------------------------------------------------*/
FoamFile
{
    version     2.0;
    format      ascii;
    arch        "LSB;label=32;scalar=64";
    class       pointVectorField;
    location    "0.1";
    object      pointDisplacement;
}
// * * * * * * * * * * * * * * * * * * * * * * * * * * * * * * * * * * * * * //

dimensions      [0 1 0 0 0 0 0];

internalField   nonuniform List<vector> 
2176
(
(0 0 0)
(0 0 0)
(0 0 0)
(0 0 0)
(0 0 0)
(0 0 0)
(0 0 0)
(0 0 0)
(0 0 0)
(0 0 0)
(0 0 0)
(0 0 0)
(0 0 0)
(0 0 0)
(0 0 0)
(0 0 0)
(0 0 0)
(0.00157537 -0.00156949 0)
(0.0020527 -0.00194071 0)
(0.00293171 -0.00247706 0)
(0.00378271 -0.0027133 0)
(0.00462946 -0.00266702 0)
(0.00543885 -0.00234924 0)
(0.00611509 -0.00175348 0)
(0.00665167 -0.00093295 0)
(0.00695199 3.05661e-05 0)
(0.00688231 0.00103211 0)
(0.00646045 0.00191657 0)
(0.005769 0.00256244 0)
(0.00491047 0.00290238 0)
(0.00396567 0.0029094 0)
(0.00299903 0.0025942 0)
(0.00204526 0.0019815 0)
(0.00153296 0.00156936 0)
(0.00377448 -0.00375643 0)
(0.00466026 -0.00432597 0)
(0.0062804 -0.00516549 0)
(0.00786379 -0.00546187 0)
(0.00944592 -0.00525458 0)
(0.0109275 -0.0045504 0)
(0.0121574 -0.00335393 0)
(0.0131098 -0.00176327 0)
(0.0136157 7.74059e-05 0)
(0.0134749 0.00197729 0)
(0.0127105 0.00367091 0)
(0.0114567 0.00494505 0)
(0.00989022 0.00567987 0)
(0.00815719 0.00582287 0)
(0.00638739 0.00539528 0)
(0.00463383 0.00442328 0)
(0.00368147 0.00377756 0)
(0.00644891 -0.00641131 0)
(0.00769546 -0.00703221 0)
(0.00993194 -0.00797527 0)
(0.0121454 -0.00819577 0)
(0.0143313 -0.00772803 0)
(0.0163552 -0.00658833 0)
(0.0180403 -0.00480389 0)
(0.0192991 -0.00249931 0)
(0.0199261 0.000134144 0)
(0.0197101 0.00283406 0)
(0.0186703 0.00526117 0)
(0.0169716 0.0071379 0)
(0.0148373 0.00830278 0)
(0.0124736 0.00869019 0)
(0.0100527 0.00831665 0)
(0.00765023 0.00720706 0)
(0.0063079 0.00648132 0)
(0.00951846 -0.00945282 0)
(0.0110941 -0.00999922 0)
(0.0138418 -0.0108789 0)
(0.0165743 -0.0108997 0)
(0.0192591 -0.0100968 0)
(0.0217217 -0.00848884 0)
(0.0237616 -0.00612663 0)
(0.0252369 -0.00315532 0)
(0.025927 0.000198671 0)
(0.0256337 0.00361801 0)
(0.024372 0.00671528 0)
(0.0223235 0.00917009 0)
(0.0197437 0.0107932 0)
(0.0168818 0.0115076 0)
(0.0139434 0.0113244 0)
(0.011018 0.0102611 0)
(0.00933538 0.00959755 0)
(0.0129083 -0.0128041 0)
(0.0147895 -0.0131675 0)
(0.0179544 -0.0138423 0)
(0.0211188 -0.0135686 0)
(0.0242004 -0.0123674 0)
(0.0270061 -0.0102664 0)
(0.0293218 -0.00733938 0)
(0.0309508 -0.00374335 0)
(0.0316664 0.000270032 0)
(0.0312978 0.00434359 0)
(0.0298585 0.00805939 0)
(0.0275381 0.0110719 0)
(0.0246118 0.0131725 0)
(0.0213588 0.0142764 0)
(0.0180074 0.0143865 0)
(0.0146698 0.0135223 0)
(0.0126788 0.0130353 0)
(0.0165582 -0.0164024 0)
(0.0187301 -0.0164927 0)
(0.0222375 -0.0168495 0)
(0.0257419 -0.0161945 0)
(0.0291374 -0.0145466 0)
(0.0322084 -0.0119371 0)
(0.0347172 -0.00845477 0)
(0.0364445 -0.00426883 0)
(0.0371655 0.000350632 0)
(0.0367269 0.00502222 0)
(0.0351478 0.00931207 0)
(0.0326206 0.0128616 0)
(0.0294327 0.0154532 0)
(0.0258789 0.016994 0)
(0.0222049 0.0174809 0)
(0.0185426 0.0169364 0)
(0.0162737 0.0167253 0)
(0.020413 -0.0201897 0)
(0.0228635 -0.0199311 0)
(0.0266444 -0.0198718 0)
(0.0304213 -0.0187717 0)
(0.0340525 -0.0166366 0)
(0.0373127 -0.0135056 0)
(0.0399553 -0.00948097 0)
(0.0417422 -0.00473724 0)
(0.0424533 0.00044294 0)
(0.0419515 0.0056643 0)
(0.0402651 0.0104897 0)
(0.0375879 0.0145592 0)
(0.0342077 0.01765 0)
(0.0304268 0.0196643 0)
(0.0265013 0.0205915 0)
(0.0225869 0.0204623 0)
(0.0200539 0.0206008 0)
(0.0244319 -0.0241192 0)
(0.0271517 -0.0234463 0)
(0.0311527 -0.0228952 0)
(0.0351323 -0.0212893 0)
(0.0389359 -0.0186348 0)
(0.042326 -0.0149768 0)
(0.0450439 -0.0104196 0)
(0.0468511 -0.0051455 0)
(0.0475378 0.000553425 0)
(0.0469814 0.00627948 0)
(0.0452191 0.0116035 0)
(0.0424413 0.0161748 0)
(0.0389311 0.0197716 0)
(0.0349881 0.022289 0)
(0.0308691 0.0237085 0)
(0.0267565 0.0240676 0)
(0.0239765 0.0246221 0)
(0.0285901 -0.028162 0)
(0.0315695 -0.0270144 0)
(0.0357363 -0.0258967 0)
(0.0398659 -0.0237367 0)
(0.0437806 -0.0205343 0)
(0.0472389 -0.0163394 0)
(0.049986 -0.0112621 0)
(0.0517847 -0.00548735 0)
(0.0524355 0.000689304 0)
(0.0518334 0.0068761 0)
(0.0500242 0.0126639 0)
(0.0471924 0.0177195 0)
(0.0436072 0.0218254 0)
(0.0395494 0.0248717 0)
(0.0352951 0.0268313 0)
(0.0310373 0.0277518 0)
(0.0280089 0.02877 0)
(0.0328715 -0.0322908 0)
(0.0361025 -0.0306127 0)
(0.0403993 -0.0288596 0)
(0.0446206 -0.026091 0)
(0.0485866 -0.0223146 0)
(0.0520621 -0.0175806 0)
(0.0547879 -0.0119966 0)
(0.0565424 -0.00574923 0)
(0.0571452 0.000860733 0)
(0.0565078 0.00746069 0)
(0.0546824 0.0136759 0)
(0.0518381 0.019197 0)
(0.0482221 0.0238146 0)
(0.0441179 0.027418 0)
(0.0397851 0.0299754 0)
(0.0354138 0.0315157 0)
(0.0321388 0.0330503 0)
(0.0372791 -0.0364835 0)
(0.0407676 -0.0342135 0)
(0.0451521 -0.0317457 0)
(0.0494157 -0.0283207 0)
(0.0533707 -0.0239433 0)
(0.0567893 -0.0186668 0)
(0.0594456 -0.0125971 0)
(0.0611276 -0.00591713 0)
(0.0616697 0.0010765 0)
(0.0610084 0.00804078 0)
(0.0591913 0.0146465 0)
(0.0563762 0.0206121 0)
(0.0527946 0.0257453 0)
(0.0487001 0.0299331 0)
(0.0443321 0.0331337 0)
(0.0398777 0.035367 0)
(0.0363339 0.0374633 0)
(0.0417878 -0.0406682 0)
(0.0455499 -0.0377433 0)
(0.0500016 -0.0344979 0)
(0.0542536 -0.0303597 0)
(0.058128 -0.0253584 0)
(0.0614304 -0.0195478 0)
(0.0639582 -0.0130201 0)
(0.0655215 -0.00596444 0)
(0.0659895 0.00134973 0)
(0.0653108 0.00862381 0)
(0.0635349 0.0155775 0)
(0.060804 0.0219615 0)
(0.0573132 0.0276028 0)
(0.0532778 0.0323982 0)
(0.0489136 0.0362883 0)
(0.0443791 0.0392708 0)
(0.0405358 0.0419837 0)
(0.0463664 -0.0447441 0)
(0.0504212 -0.0411059 0)
(0.0549171 -0.0370085 0)
(0.0591119 -0.0321132 0)
(0.0628461 -0.0264768 0)
(0.0659584 -0.0201389 0)
(0.0682866 -0.0132045 0)
(0.0696859 -0.00584654 0)
(0.0700575 0.00170734 0)
(0.0693703 0.00921991 0)
(0.0676729 0.0164575 0)
(0.0650724 0.0232189 0)
(0.0617218 0.0293546 0)
(0.0577909 0.0347625 0)
(0.0534436 0.0393766 0)
(0.0488246 0.0431673 0)
(0.0446463 0.046554 0)
(0.050946 -0.0485426 0)
(0.0553179 -0.0440905 0)
(0.0598245 -0.0390865 0)
(0.0638929 -0.0334261 0)
(0.0674033 -0.0271546 0)
(0.0702456 -0.0203364 0)
(0.0723059 -0.0130776 0)
(0.0734935 -0.00551743 0)
(0.0737505 0.00217439 0)
(0.0730653 0.00982496 0)
(0.0714694 0.0172616 0)
(0.069036 0.0243356 0)
(0.0658639 0.0309243 0)
(0.062066 0.0369321 0)
(0.057757 0.0422878 0)
(0.0530526 0.0469423 0)
(0.0484796 0.0510836 0)
(0.0552582 -0.0516608 0)
(0.059992 -0.0462778 0)
(0.064399 -0.0403844 0)
(0.0682271 -0.034003 0)
(0.0714162 -0.0271891 0)
(0.0739055 -0.0200178 0)
(0.0756441 -0.0125716 0)
(0.0765929 -0.00494939 0)
(0.0767295 0.00274523 0)
(0.0760504 0.0104039 0)
(0.0745708 0.0179231 0)
(0.0723252 0.0252022 0)
(0.0693567 0.0321552 0)
(0.0657244 0.0387002 0)
(0.0614879 0.0447694 0)
(0.0567154 0.050303 0)
(0.0516383 0.0553083 0)
(0.0574351 -0.0531081 0)
(0.062364 -0.0472227 0)
(0.0666923 -0.0408826 0)
(0.0703784 -0.0341488 0)
(0.0733867 -0.027086 0)
(0.0756882 -0.0197625 0)
(0.0772608 -0.0122486 0)
(0.0780893 -0.00461669 0)
(0.0781658 0.00305963 0)
(0.0774895 0.0107065 0)
(0.076067 0.0182502 0)
(0.0739118 0.0256182 0)
(0.0710449 0.0327395 0)
(0.0674938 0.0395455 0)
(0.0632927 0.0459706 0)
(0.058482 0.051953 0)
(0.0531081 0.0574351 0)
(0 0 0)
(0 0 0)
(0 0 0)
(0 0 0)
(0 0 0)
(0 0 0)
(0 0 0)
(0 0 0)
(0 0 0)
(0 0 0)
(0 0 0)
(0 0 0)
(0 0 0)
(0 0 0)
(0 0 0)
(0 0 0)
(0 0 0)
(0.00157537 -0.00156949 0)
(0.0020527 -0.00194071 0)
(0.00293171 -0.00247706 0)
(0.00378271 -0.0027133 0)
(0.00462946 -0.00266702 0)
(0.00543885 -0.00234924 0)
(0.00611509 -0.00175348 0)
(0.00665167 -0.00093295 0)
(0.00695199 3.05661e-05 0)
(0.00688231 0.00103211 0)
(0.00646045 0.00191657 0)
(0.005769 0.00256244 0)
(0.00491047 0.00290238 0)
(0.00396567 0.0029094 0)
(0.00299903 0.0025942 0)
(0.00204526 0.0019815 0)
(0.00153296 0.00156936 0)
(0.00377448 -0.00375643 0)
(0.00466026 -0.00432597 0)
(0.0062804 -0.00516549 0)
(0.00786379 -0.00546187 0)
(0.00944592 -0.00525458 0)
(0.0109275 -0.0045504 0)
(0.0121574 -0.00335393 0)
(0.0131098 -0.00176327 0)
(0.0136157 7.74059e-05 0)
(0.0134749 0.00197729 0)
(0.0127105 0.00367091 0)
(0.0114567 0.00494505 0)
(0.00989022 0.00567987 0)
(0.00815719 0.00582287 0)
(0.00638739 0.00539528 0)
(0.00463383 0.00442328 0)
(0.00368147 0.00377756 0)
(0.00644891 -0.00641131 0)
(0.00769546 -0.00703221 0)
(0.00993194 -0.00797527 0)
(0.0121454 -0.00819577 0)
(0.0143313 -0.00772803 0)
(0.0163552 -0.00658833 0)
(0.0180403 -0.00480389 0)
(0.0192991 -0.00249931 0)
(0.0199261 0.000134144 0)
(0.0197101 0.00283406 0)
(0.0186703 0.00526117 0)
(0.0169716 0.0071379 0)
(0.0148373 0.00830278 0)
(0.0124736 0.00869019 0)
(0.0100527 0.00831665 0)
(0.00765023 0.00720706 0)
(0.0063079 0.00648132 0)
(0.00951846 -0.00945282 0)
(0.0110941 -0.00999922 0)
(0.0138418 -0.0108789 0)
(0.0165743 -0.0108997 0)
(0.0192591 -0.0100968 0)
(0.0217217 -0.00848884 0)
(0.0237616 -0.00612663 0)
(0.0252369 -0.00315532 0)
(0.025927 0.000198671 0)
(0.0256337 0.00361801 0)
(0.024372 0.00671528 0)
(0.0223235 0.00917009 0)
(0.0197437 0.0107932 0)
(0.0168818 0.0115076 0)
(0.0139434 0.0113244 0)
(0.011018 0.0102611 0)
(0.00933538 0.00959755 0)
(0.0129083 -0.0128041 0)
(0.0147895 -0.0131675 0)
(0.0179544 -0.0138423 0)
(0.0211188 -0.0135686 0)
(0.0242004 -0.0123674 0)
(0.0270061 -0.0102664 0)
(0.0293218 -0.00733938 0)
(0.0309508 -0.00374335 0)
(0.0316664 0.000270032 0)
(0.0312978 0.00434359 0)
(0.0298585 0.00805939 0)
(0.0275381 0.0110719 0)
(0.0246118 0.0131725 0)
(0.0213588 0.0142764 0)
(0.0180074 0.0143865 0)
(0.0146698 0.0135223 0)
(0.0126788 0.0130353 0)
(0.0165582 -0.0164024 0)
(0.0187301 -0.0164927 0)
(0.0222375 -0.0168495 0)
(0.0257419 -0.0161945 0)
(0.0291374 -0.0145466 0)
(0.0322084 -0.0119371 0)
(0.0347172 -0.00845477 0)
(0.0364445 -0.00426883 0)
(0.0371655 0.000350632 0)
(0.0367269 0.00502222 0)
(0.0351478 0.00931207 0)
(0.0326206 0.0128616 0)
(0.0294327 0.0154532 0)
(0.0258789 0.016994 0)
(0.0222049 0.0174809 0)
(0.0185426 0.0169364 0)
(0.0162737 0.0167253 0)
(0.020413 -0.0201897 0)
(0.0228635 -0.0199311 0)
(0.0266444 -0.0198718 0)
(0.0304213 -0.0187717 0)
(0.0340525 -0.0166366 0)
(0.0373127 -0.0135056 0)
(0.0399553 -0.00948097 0)
(0.0417422 -0.00473724 0)
(0.0424533 0.00044294 0)
(0.0419515 0.0056643 0)
(0.0402651 0.0104897 0)
(0.0375879 0.0145592 0)
(0.0342077 0.01765 0)
(0.0304268 0.0196643 0)
(0.0265013 0.0205915 0)
(0.0225869 0.0204623 0)
(0.0200539 0.0206008 0)
(0.0244319 -0.0241192 0)
(0.0271517 -0.0234463 0)
(0.0311527 -0.0228952 0)
(0.0351323 -0.0212893 0)
(0.0389359 -0.0186348 0)
(0.042326 -0.0149768 0)
(0.0450439 -0.0104196 0)
(0.0468511 -0.0051455 0)
(0.0475378 0.000553425 0)
(0.0469814 0.00627948 0)
(0.0452191 0.0116035 0)
(0.0424413 0.0161748 0)
(0.0389311 0.0197716 0)
(0.0349881 0.022289 0)
(0.0308691 0.0237085 0)
(0.0267565 0.0240676 0)
(0.0239765 0.0246221 0)
(0.0285901 -0.028162 0)
(0.0315695 -0.0270144 0)
(0.0357363 -0.0258967 0)
(0.0398659 -0.0237367 0)
(0.0437806 -0.0205343 0)
(0.0472389 -0.0163394 0)
(0.049986 -0.0112621 0)
(0.0517847 -0.00548735 0)
(0.0524355 0.000689304 0)
(0.0518334 0.0068761 0)
(0.0500242 0.0126639 0)
(0.0471924 0.0177195 0)
(0.0436072 0.0218254 0)
(0.0395494 0.0248717 0)
(0.0352951 0.0268313 0)
(0.0310373 0.0277518 0)
(0.0280089 0.02877 0)
(0.0328715 -0.0322908 0)
(0.0361025 -0.0306127 0)
(0.0403993 -0.0288596 0)
(0.0446206 -0.026091 0)
(0.0485866 -0.0223146 0)
(0.0520621 -0.0175806 0)
(0.0547879 -0.0119966 0)
(0.0565424 -0.00574923 0)
(0.0571452 0.000860733 0)
(0.0565078 0.00746069 0)
(0.0546824 0.0136759 0)
(0.0518381 0.019197 0)
(0.0482221 0.0238146 0)
(0.0441179 0.027418 0)
(0.0397851 0.0299754 0)
(0.0354138 0.0315157 0)
(0.0321388 0.0330503 0)
(0.0372791 -0.0364835 0)
(0.0407676 -0.0342135 0)
(0.0451521 -0.0317457 0)
(0.0494157 -0.0283207 0)
(0.0533707 -0.0239433 0)
(0.0567893 -0.0186668 0)
(0.0594456 -0.0125971 0)
(0.0611276 -0.00591713 0)
(0.0616697 0.0010765 0)
(0.0610084 0.00804078 0)
(0.0591913 0.0146465 0)
(0.0563762 0.0206121 0)
(0.0527946 0.0257453 0)
(0.0487001 0.0299331 0)
(0.0443321 0.0331337 0)
(0.0398777 0.035367 0)
(0.0363339 0.0374633 0)
(0.0417878 -0.0406682 0)
(0.0455499 -0.0377433 0)
(0.0500016 -0.0344979 0)
(0.0542536 -0.0303597 0)
(0.058128 -0.0253584 0)
(0.0614304 -0.0195478 0)
(0.0639582 -0.0130201 0)
(0.0655215 -0.00596444 0)
(0.0659895 0.00134973 0)
(0.0653108 0.00862381 0)
(0.0635349 0.0155775 0)
(0.060804 0.0219615 0)
(0.0573132 0.0276028 0)
(0.0532778 0.0323982 0)
(0.0489136 0.0362883 0)
(0.0443791 0.0392708 0)
(0.0405358 0.0419837 0)
(0.0463664 -0.0447441 0)
(0.0504212 -0.0411059 0)
(0.0549171 -0.0370085 0)
(0.0591119 -0.0321132 0)
(0.0628461 -0.0264768 0)
(0.0659584 -0.0201389 0)
(0.0682866 -0.0132045 0)
(0.0696859 -0.00584654 0)
(0.0700575 0.00170734 0)
(0.0693703 0.00921991 0)
(0.0676729 0.0164575 0)
(0.0650724 0.0232189 0)
(0.0617218 0.0293546 0)
(0.0577909 0.0347625 0)
(0.0534436 0.0393766 0)
(0.0488246 0.0431673 0)
(0.0446463 0.046554 0)
(0.050946 -0.0485426 0)
(0.0553179 -0.0440905 0)
(0.0598245 -0.0390865 0)
(0.0638929 -0.0334261 0)
(0.0674033 -0.0271546 0)
(0.0702456 -0.0203364 0)
(0.0723059 -0.0130776 0)
(0.0734935 -0.00551743 0)
(0.0737505 0.00217439 0)
(0.0730653 0.00982496 0)
(0.0714694 0.0172616 0)
(0.069036 0.0243356 0)
(0.0658639 0.0309243 0)
(0.062066 0.0369321 0)
(0.057757 0.0422878 0)
(0.0530526 0.0469423 0)
(0.0484796 0.0510836 0)
(0.0552582 -0.0516608 0)
(0.059992 -0.0462778 0)
(0.064399 -0.0403844 0)
(0.0682271 -0.034003 0)
(0.0714162 -0.0271891 0)
(0.0739055 -0.0200178 0)
(0.0756441 -0.0125716 0)
(0.0765929 -0.00494939 0)
(0.0767295 0.00274523 0)
(0.0760504 0.0104039 0)
(0.0745708 0.0179231 0)
(0.0723252 0.0252022 0)
(0.0693567 0.0321552 0)
(0.0657244 0.0387002 0)
(0.0614879 0.0447694 0)
(0.0567154 0.050303 0)
(0.0516383 0.0553083 0)
(0.0574351 -0.0531081 0)
(0.062364 -0.0472227 0)
(0.0666923 -0.0408826 0)
(0.0703784 -0.0341488 0)
(0.0733867 -0.027086 0)
(0.0756882 -0.0197625 0)
(0.0772608 -0.0122486 0)
(0.0780893 -0.00461669 0)
(0.0781658 0.00305963 0)
(0.0774895 0.0107065 0)
(0.076067 0.0182502 0)
(0.0739118 0.0256182 0)
(0.0710449 0.0327395 0)
(0.0674938 0.0395455 0)
(0.0632927 0.0459706 0)
(0.058482 0.051953 0)
(0.0531081 0.0574351 0)
(0 0 0)
(0 0 0)
(0 0 0)
(0 0 0)
(0 0 0)
(0 0 0)
(0 0 0)
(0 0 0)
(0 0 0)
(0 0 0)
(0 0 0)
(0 0 0)
(0 0 0)
(0 0 0)
(0 0 0)
(0 0 0)
(0.0019132 0.00208027 0)
(0.00248053 0.00302597 0)
(0.00277457 0.00396666 0)
(0.00275779 0.00485647 0)
(0.00242028 0.00563716 0)
(0.0018002 0.00627454 0)
(0.000947869 0.00670923 0)
(-5.11497e-05 0.00692362 0)
(-0.00104278 0.00681821 0)
(-0.00187608 0.00630443 0)
(-0.00246474 0.00553338 0)
(-0.00277087 0.0046463 0)
(-0.00279726 0.00373688 0)
(-0.00252819 0.00283495 0)
(-0.0019493 0.00191647 0)
(-0.00154957 0.00142053 0)
(0.00426769 0.00472015 0)
(0.00517963 0.00647411 0)
(0.0055709 0.00819929 0)
(0.00540151 0.00983388 0)
(0.00466952 0.011282 0)
(0.00343368 0.0124506 0)
(0.0017842 0.0132336 0)
(-0.0001154 0.0135928 0)
(-0.00199932 0.0133706 0)
(-0.00361063 0.0124585 0)
(-0.00478703 0.0110742 0)
(-0.00546133 0.0094507 0)
(-0.00562639 0.00775727 0)
(-0.00526597 0.00607406 0)
(-0.00434904 0.0043765 0)
(-0.00372578 0.00345221 0)
(0.00696378 0.00781082 0)
(0.008002 0.0102125 0)
(0.0083282 0.0125795 0)
(0.00790267 0.0148238 0)
(0.00673304 0.0168165 0)
(0.00489553 0.0184188 0)
(0.00251348 0.0194868 0)
(-0.000189419 0.0199339 0)
(-0.00287073 0.0195875 0)
(-0.00519673 0.0183658 0)
(-0.0069496 0.0165073 0)
(-0.00803721 0.0142971 0)
(-0.00843921 0.0119596 0)
(-0.00813196 0.00961366 0)
(-0.00708501 0.00726998 0)
(-0.00638596 0.00596423 0)
(0.00992614 0.0112641 0)
(0.0109122 0.0141847 0)
(0.0110371 0.0170634 0)
(0.0102728 0.019802 0)
(0.00863644 0.0222415 0)
(0.00621376 0.0241962 0)
(0.00315236 0.0254801 0)
(-0.000275121 0.0259699 0)
(-0.00367281 0.0255084 0)
(-0.00665993 0.0240508 0)
(-0.00897825 0.0218334 0)
(-0.0105112 0.0191607 0)
(-0.0112228 0.0162943 0)
(-0.0110923 0.0134028 0)
(-0.0100875 0.0105276 0)
(-0.00944909 0.00888032 0)
(0.0130975 0.0150099 0)
(0.013877 0.018334 0)
(0.0136951 0.0216255 0)
(0.0125292 0.0247624 0)
(0.0103998 0.0275512 0)
(0.00740293 0.0297784 0)
(0.00371044 0.0312275 0)
(-0.000373043 0.0317389 0)
(-0.00442061 0.0311767 0)
(-0.00802001 0.0295343 0)
(-0.0108882 0.0270437 0)
(-0.012889 0.0240127 0)
(-0.0139722 0.0207273 0)
(-0.0141139 0.017389 0)
(-0.0132956 0.0140834 0)
(-0.0128285 0.0121222 0)
(0.0164213 0.0189782 0)
(0.0168757 0.0226245 0)
(0.0162998 0.0262406 0)
(0.0146778 0.0296872 0)
(0.0120373 0.032748 0)
(0.00847983 0.0351783 0)
(0.00419635 0.0367391 0)
(-0.000485725 0.0372548 0)
(-0.00512391 0.0366109 0)
(-0.00929404 0.0348339 0)
(-0.0126977 0.0321432 0)
(-0.0151807 0.0288401 0)
(-0.0166797 0.0252239 0)
(-0.0171739 0.0215302 0)
(-0.0166577 0.0178792 0)
(-0.016459 0.015629 0)
(0.0198568 0.0231197 0)
(0.0198851 0.0270164 0)
(0.0188466 0.0308918 0)
(0.0167288 0.0345765 0)
(0.0135607 0.0378307 0)
(0.00945337 0.0403973 0)
(0.00461561 0.0420325 0)
(-0.000614155 0.042546 0)
(-0.00579305 0.0418393 0)
(-0.0104957 0.0399643 0)
(-0.014418 0.0371305 0)
(-0.0173938 0.0336295 0)
(-0.0193475 0.0297642 0)
(-0.0202564 0.0257906 0)
(-0.0201351 0.0218654 0)
(-0.0202759 0.019339 0)
(0.0233662 0.0273943 0)
(0.0228901 0.0314911 0)
(0.0213306 0.0355624 0)
(0.0186796 0.0394151 0)
(0.0149746 0.0428024 0)
(0.010333 0.0454549 0)
(0.00497431 0.0471221 0)
(-0.000758347 0.0476203 0)
(-0.00643224 0.0468706 0)
(-0.011635 0.0449372 0)
(-0.0160626 0.0420145 0)
(-0.0195391 0.0383774 0)
(-0.0219774 0.0343295 0)
(-0.0233537 0.030141 0)
(-0.0236986 0.0259985 0)
(-0.0242429 0.0232131 0)
(0.0269302 0.0317917 0)
(0.0258734 0.0360392 0)
(0.0237413 0.040246 0)
(0.0205292 0.0442102 0)
(0.0162805 0.0476653 0)
(0.0111203 0.0503454 0)
(0.00527424 0.0520158 0)
(-0.000919647 0.0524989 0)
(-0.00704809 0.0517247 0)
(-0.012719 0.0497613 0)
(-0.0176373 0.0467925 0)
(-0.0216217 0.0430782 0)
(-0.0245741 0.0389056 0)
(-0.0264679 0.0345675 0)
(-0.0273511 0.0302663 0)
(-0.0283442 0.027224 0)
(0.0305273 0.0363166 0)
(0.0288198 0.04067 0)
(0.0260641 0.0449554 0)
(0.0222631 0.048955 0)
(0.017471 0.0524185 0)
(0.0118121 0.0550855 0)
(0.00551266 0.0567265 0)
(-0.00109888 0.0571834 0)
(-0.00764044 0.0563981 0)
(-0.0137509 0.0544391 0)
(-0.0191465 0.0514716 0)
(-0.0236459 0.0477242 0)
(-0.0271436 0.0435002 0)
(-0.0296152 0.0390793 0)
(-0.0310976 0.0346562 0)
(-0.032592 0.0313649 0)
(0.0341266 0.0409728 0)
(0.0316952 0.0453931 0)
(0.028266 0.0496947 0)
(0.0238588 0.0536696 0)
(0.0185219 0.0570747 0)
(0.0123916 0.0596697 0)
(0.00568401 0.061254 0)
(-0.00130079 0.0616804 0)
(-0.00821487 0.0608984 0)
(-0.0147324 0.0589685 0)
(-0.0205877 0.0560356 0)
(-0.0256073 0.0523322 0)
(-0.0296885 0.0481259 0)
(-0.0327921 0.043674 0)
(-0.0349509 0.0391689 0)
(-0.0369954 0.0356119 0)
(0.0376655 0.0457435 0)
(0.0344395 0.0502063 0)
(0.0302982 0.0544762 0)
(0.0252591 0.0583559 0)
(0.0193891 0.0616355 0)
(0.0128261 0.0641109 0)
(0.00575872 0.0655984 0)
(-0.00154051 0.065973 0)
(-0.0087774 0.0651971 0)
(-0.0156567 0.0633287 0)
(-0.0219494 0.0604999 0)
(-0.0274932 0.0569056 0)
(-0.0321861 0.0527771 0)
(-0.0359854 0.0483413 0)
(-0.038886 0.0437661 0)
(-0.0415411 0.0399198 0)
(0.0410407 0.0505959 0)
(0.0369631 0.0550828 0)
(0.0320622 0.0592726 0)
(0.02638 0.0630009 0)
(0.020005 0.0660922 0)
(0.0130514 0.068378 0)
(0.00569223 0.0697195 0)
(-0.00184952 0.0700234 0)
(-0.00933208 0.0692701 0)
(-0.0165158 0.0675052 0)
(-0.023206 0.0648335 0)
(-0.0292689 0.0614056 0)
(-0.0345977 0.0574111 0)
(-0.0391374 0.0530135 0)
(-0.0428562 0.0483686 0)
(-0.0461918 0.0441952 0)
(0.044051 0.0554446 0)
(0.0390653 0.0599293 0)
(0.0333896 0.0639862 0)
(0.0270915 0.0674886 0)
(0.0202563 0.0703119 0)
(0.0129879 0.0723464 0)
(0.00543146 0.0735016 0)
(-0.0022543 0.0737226 0)
(-0.00988402 0.0730015 0)
(-0.0172888 0.0713676 0)
(-0.0243242 0.068894 0)
(-0.0308686 0.0656834 0)
(-0.0368345 0.0618485 0)
(-0.0421432 0.0575156 0)
(-0.0467508 0.0527997 0)
(-0.0508631 0.0482311 0)
(0.0462673 0.0600366 0)
(0.0403784 0.0644329 0)
(0.0339898 0.0682565 0)
(0.02717 0.07144 0)
(0.0199927 0.0739231 0)
(0.0125458 0.075654 0)
(0.00492377 0.0765932 0)
(-0.00276727 0.0767199 0)
(-0.0104205 0.0760296 0)
(-0.0179288 0.0745405 0)
(-0.0251978 0.0722821 0)
(-0.032137 0.0693044 0)
(-0.0386703 0.0656598 0)
(-0.0447249 0.061418 0)
(-0.0502424 0.0566428 0)
(-0.0552405 0.0515672 0)
(0.0472227 0.062364 0)
(0.0408826 0.0666923 0)
(0.0341488 0.0703784 0)
(0.027086 0.0733867 0)
(0.0197625 0.0756882 0)
(0.0122486 0.0772608 0)
(0.00461669 0.0780893 0)
(-0.00305963 0.0781658 0)
(-0.0107065 0.0774895 0)
(-0.0182502 0.076067 0)
(-0.0256182 0.0739118 0)
(-0.0327395 0.0710449 0)
(-0.0395455 0.0674938 0)
(-0.0459706 0.0632927 0)
(-0.051953 0.058482 0)
(-0.0574351 0.0531081 0)
(0 0 0)
(0 0 0)
(0 0 0)
(0 0 0)
(0 0 0)
(0 0 0)
(0 0 0)
(0 0 0)
(0 0 0)
(0 0 0)
(0 0 0)
(0 0 0)
(0 0 0)
(0 0 0)
(0 0 0)
(0 0 0)
(0.0019132 0.00208027 0)
(0.00248053 0.00302597 0)
(0.00277457 0.00396666 0)
(0.00275779 0.00485647 0)
(0.00242028 0.00563716 0)
(0.0018002 0.00627454 0)
(0.000947869 0.00670923 0)
(-5.11497e-05 0.00692362 0)
(-0.00104278 0.00681821 0)
(-0.00187608 0.00630443 0)
(-0.00246474 0.00553338 0)
(-0.00277087 0.0046463 0)
(-0.00279726 0.00373688 0)
(-0.00252819 0.00283495 0)
(-0.0019493 0.00191647 0)
(-0.00154957 0.00142053 0)
(0.00426769 0.00472015 0)
(0.00517963 0.00647411 0)
(0.0055709 0.00819929 0)
(0.00540151 0.00983388 0)
(0.00466952 0.011282 0)
(0.00343368 0.0124506 0)
(0.0017842 0.0132336 0)
(-0.0001154 0.0135928 0)
(-0.00199932 0.0133706 0)
(-0.00361063 0.0124585 0)
(-0.00478703 0.0110742 0)
(-0.00546133 0.0094507 0)
(-0.00562639 0.00775727 0)
(-0.00526597 0.00607406 0)
(-0.00434904 0.0043765 0)
(-0.00372578 0.00345221 0)
(0.00696378 0.00781082 0)
(0.008002 0.0102125 0)
(0.0083282 0.0125795 0)
(0.00790267 0.0148238 0)
(0.00673304 0.0168165 0)
(0.00489553 0.0184188 0)
(0.00251348 0.0194868 0)
(-0.000189419 0.0199339 0)
(-0.00287073 0.0195875 0)
(-0.00519673 0.0183658 0)
(-0.0069496 0.0165073 0)
(-0.00803721 0.0142971 0)
(-0.00843921 0.0119596 0)
(-0.00813196 0.00961366 0)
(-0.00708501 0.00726998 0)
(-0.00638596 0.00596423 0)
(0.00992614 0.0112641 0)
(0.0109122 0.0141847 0)
(0.0110371 0.0170634 0)
(0.0102728 0.019802 0)
(0.00863644 0.0222415 0)
(0.00621376 0.0241962 0)
(0.00315236 0.0254801 0)
(-0.000275121 0.0259699 0)
(-0.00367281 0.0255084 0)
(-0.00665993 0.0240508 0)
(-0.00897825 0.0218334 0)
(-0.0105112 0.0191607 0)
(-0.0112228 0.0162943 0)
(-0.0110923 0.0134028 0)
(-0.0100875 0.0105276 0)
(-0.00944909 0.00888032 0)
(0.0130975 0.0150099 0)
(0.013877 0.018334 0)
(0.0136951 0.0216255 0)
(0.0125292 0.0247624 0)
(0.0103998 0.0275512 0)
(0.00740293 0.0297784 0)
(0.00371044 0.0312275 0)
(-0.000373043 0.0317389 0)
(-0.00442061 0.0311767 0)
(-0.00802001 0.0295343 0)
(-0.0108882 0.0270437 0)
(-0.012889 0.0240127 0)
(-0.0139722 0.0207273 0)
(-0.0141139 0.017389 0)
(-0.0132956 0.0140834 0)
(-0.0128285 0.0121222 0)
(0.0164213 0.0189782 0)
(0.0168757 0.0226245 0)
(0.0162998 0.0262406 0)
(0.0146778 0.0296872 0)
(0.0120373 0.032748 0)
(0.00847983 0.0351783 0)
(0.00419635 0.0367391 0)
(-0.000485725 0.0372548 0)
(-0.00512391 0.0366109 0)
(-0.00929404 0.0348339 0)
(-0.0126977 0.0321432 0)
(-0.0151807 0.0288401 0)
(-0.0166797 0.0252239 0)
(-0.0171739 0.0215302 0)
(-0.0166577 0.0178792 0)
(-0.016459 0.015629 0)
(0.0198568 0.0231197 0)
(0.0198851 0.0270164 0)
(0.0188466 0.0308918 0)
(0.0167288 0.0345765 0)
(0.0135607 0.0378307 0)
(0.00945337 0.0403973 0)
(0.00461561 0.0420325 0)
(-0.000614155 0.042546 0)
(-0.00579305 0.0418393 0)
(-0.0104957 0.0399643 0)
(-0.014418 0.0371305 0)
(-0.0173938 0.0336295 0)
(-0.0193475 0.0297642 0)
(-0.0202564 0.0257906 0)
(-0.0201351 0.0218654 0)
(-0.0202759 0.019339 0)
(0.0233662 0.0273943 0)
(0.0228901 0.0314911 0)
(0.0213306 0.0355624 0)
(0.0186796 0.0394151 0)
(0.0149746 0.0428024 0)
(0.010333 0.0454549 0)
(0.00497431 0.0471221 0)
(-0.000758347 0.0476203 0)
(-0.00643224 0.0468706 0)
(-0.011635 0.0449372 0)
(-0.0160626 0.0420145 0)
(-0.0195391 0.0383774 0)
(-0.0219774 0.0343295 0)
(-0.0233537 0.030141 0)
(-0.0236986 0.0259985 0)
(-0.0242429 0.0232131 0)
(0.0269302 0.0317917 0)
(0.0258734 0.0360392 0)
(0.0237413 0.040246 0)
(0.0205292 0.0442102 0)
(0.0162805 0.0476653 0)
(0.0111203 0.0503454 0)
(0.00527424 0.0520158 0)
(-0.000919647 0.0524989 0)
(-0.00704809 0.0517247 0)
(-0.012719 0.0497613 0)
(-0.0176373 0.0467925 0)
(-0.0216217 0.0430782 0)
(-0.0245741 0.0389056 0)
(-0.0264679 0.0345675 0)
(-0.0273511 0.0302663 0)
(-0.0283442 0.027224 0)
(0.0305273 0.0363166 0)
(0.0288198 0.04067 0)
(0.0260641 0.0449554 0)
(0.0222631 0.048955 0)
(0.017471 0.0524185 0)
(0.0118121 0.0550855 0)
(0.00551266 0.0567265 0)
(-0.00109888 0.0571834 0)
(-0.00764044 0.0563981 0)
(-0.0137509 0.0544391 0)
(-0.0191465 0.0514716 0)
(-0.0236459 0.0477242 0)
(-0.0271436 0.0435002 0)
(-0.0296152 0.0390793 0)
(-0.0310976 0.0346562 0)
(-0.032592 0.0313649 0)
(0.0341266 0.0409728 0)
(0.0316952 0.0453931 0)
(0.028266 0.0496947 0)
(0.0238588 0.0536696 0)
(0.0185219 0.0570747 0)
(0.0123916 0.0596697 0)
(0.00568401 0.061254 0)
(-0.00130079 0.0616804 0)
(-0.00821487 0.0608984 0)
(-0.0147324 0.0589685 0)
(-0.0205877 0.0560356 0)
(-0.0256073 0.0523322 0)
(-0.0296885 0.0481259 0)
(-0.0327921 0.043674 0)
(-0.0349509 0.0391689 0)
(-0.0369954 0.0356119 0)
(0.0376655 0.0457435 0)
(0.0344395 0.0502063 0)
(0.0302982 0.0544762 0)
(0.0252591 0.0583559 0)
(0.0193891 0.0616355 0)
(0.0128261 0.0641109 0)
(0.00575872 0.0655984 0)
(-0.00154051 0.065973 0)
(-0.0087774 0.0651971 0)
(-0.0156567 0.0633287 0)
(-0.0219494 0.0604999 0)
(-0.0274932 0.0569056 0)
(-0.0321861 0.0527771 0)
(-0.0359854 0.0483413 0)
(-0.038886 0.0437661 0)
(-0.0415411 0.0399198 0)
(0.0410407 0.0505959 0)
(0.0369631 0.0550828 0)
(0.0320622 0.0592726 0)
(0.02638 0.0630009 0)
(0.020005 0.0660922 0)
(0.0130514 0.068378 0)
(0.00569223 0.0697195 0)
(-0.00184952 0.0700234 0)
(-0.00933208 0.0692701 0)
(-0.0165158 0.0675052 0)
(-0.023206 0.0648335 0)
(-0.0292689 0.0614056 0)
(-0.0345977 0.0574111 0)
(-0.0391374 0.0530135 0)
(-0.0428562 0.0483686 0)
(-0.0461918 0.0441952 0)
(0.044051 0.0554446 0)
(0.0390653 0.0599293 0)
(0.0333896 0.0639862 0)
(0.0270915 0.0674886 0)
(0.0202563 0.0703119 0)
(0.0129879 0.0723464 0)
(0.00543146 0.0735016 0)
(-0.0022543 0.0737226 0)
(-0.00988402 0.0730015 0)
(-0.0172888 0.0713676 0)
(-0.0243242 0.068894 0)
(-0.0308686 0.0656834 0)
(-0.0368345 0.0618485 0)
(-0.0421432 0.0575156 0)
(-0.0467508 0.0527997 0)
(-0.0508631 0.0482311 0)
(0.0462673 0.0600366 0)
(0.0403784 0.0644329 0)
(0.0339898 0.0682565 0)
(0.02717 0.07144 0)
(0.0199927 0.0739231 0)
(0.0125458 0.075654 0)
(0.00492377 0.0765932 0)
(-0.00276727 0.0767199 0)
(-0.0104205 0.0760296 0)
(-0.0179288 0.0745405 0)
(-0.0251978 0.0722821 0)
(-0.032137 0.0693044 0)
(-0.0386703 0.0656598 0)
(-0.0447249 0.061418 0)
(-0.0502424 0.0566428 0)
(-0.0552405 0.0515672 0)
(0.0472227 0.062364 0)
(0.0408826 0.0666923 0)
(0.0341488 0.0703784 0)
(0.027086 0.0733867 0)
(0.0197625 0.0756882 0)
(0.0122486 0.0772608 0)
(0.00461669 0.0780893 0)
(-0.00305963 0.0781658 0)
(-0.0107065 0.0774895 0)
(-0.0182502 0.076067 0)
(-0.0256182 0.0739118 0)
(-0.0327395 0.0710449 0)
(-0.0395455 0.0674938 0)
(-0.0459706 0.0632927 0)
(-0.051953 0.058482 0)
(-0.0574351 0.0531081 0)
(0 0 0)
(0 0 0)
(0 0 0)
(0 0 0)
(0 0 0)
(0 0 0)
(0 0 0)
(0 0 0)
(0 0 0)
(0 0 0)
(0 0 0)
(0 0 0)
(0 0 0)
(0 0 0)
(0 0 0)
(0 0 0)
(-0.00204532 0.00180147 0)
(-0.00295285 0.00235165 0)
(-0.0038301 0.00260778 0)
(-0.00468466 0.00257888 0)
(-0.00549215 0.00227811 0)
(-0.00616397 0.00170169 0)
(-0.00669596 0.000896651 0)
(-0.00699083 -5.64016e-05 0)
(-0.00691458 -0.00104986 0)
(-0.006486 -0.00193007 0)
(-0.00578827 -0.00257489 0)
(-0.00492451 -0.00291494 0)
(-0.00397645 -0.00292127 0)
(-0.00300713 -0.0026043 0)
(-0.00204846 -0.00198814 0)
(-0.00153499 -0.00157151 0)
(-0.00464086 0.00403863 0)
(-0.00632213 0.00491555 0)
(-0.00795023 0.00525447 0)
(-0.00954614 0.00508314 0)
(-0.0110248 0.00441405 0)
(-0.0122469 0.00325517 0)
(-0.0131913 0.00169465 0)
(-0.0136877 -0.000125235 0)
(-0.0135356 -0.00201004 0)
(-0.0127594 -0.00369591 0)
(-0.0114944 -0.00496817 0)
(-0.00991876 -0.00570315 0)
(-0.00817935 -0.00584547 0)
(-0.0064043 -0.00541508 0)
(-0.00464357 -0.00443675 0)
(-0.00368945 -0.00378399 0)
(-0.00767806 0.00661503 0)
(-0.00999062 0.00761111 0)
(-0.0122574 0.00789214 0)
(-0.0144614 0.00747968 0)
(-0.0164827 0.00639457 0)
(-0.018159 0.00466383 0)
(-0.0194082 0.00240234 0)
(-0.0200233 -0.000200483 0)
(-0.0197932 -0.00287953 0)
(-0.0187383 -0.00529626 0)
(-0.0170251 -0.0071706 0)
(-0.0148785 -0.00833609 0)
(-0.0125059 -0.00872305 0)
(-0.0100776 -0.00834618 0)
(-0.0076672 -0.00722836 0)
(-0.00632344 -0.00649413 0)
(-0.0110737 0.00946306 0)
(-0.013905 0.0104099 0)
(-0.0166934 0.0105073 0)
(-0.0194003 0.00977913 0)
(-0.021864 0.00824492 0)
(-0.0238969 0.00595173 0)
(-0.0253629 0.00303548 0)
(-0.0260408 -0.000279571 0)
(-0.0257323 -0.00367378 0)
(-0.024454 -0.00675911 0)
(-0.022389 -0.00921153 0)
(-0.0197949 -0.0108359 0)
(-0.0169218 -0.0115507 0)
(-0.0139745 -0.0113642 0)
(-0.0110418 -0.0102916 0)
(-0.00935788 -0.00961888 0)
(-0.0147611 0.0125308 0)
(-0.018004 0.013281 0)
(-0.0212235 0.0130973 0)
(-0.0243334 0.0119896 0)
(-0.027147 0.0099812 0)
(-0.0294604 0.00713732 0)
(-0.0310828 0.00360614 0)
(-0.0317876 -0.000361985 0)
(-0.0314046 -0.00440773 0)
(-0.0299485 -0.00811098 0)
(-0.0276109 -0.0111215 0)
(-0.024669 -0.0132243 0)
(-0.0214036 -0.0143298 0)
(-0.0180426 -0.0144372 0)
(-0.0146985 -0.0135634 0)
(-0.0127062 -0.0130675 0)
(-0.0186712 0.0157664 0)
(-0.0222482 0.0162069 0)
(-0.0258098 0.0156568 0)