/*--------------------------------*- C++ -*----------------------------------*\
| =========                 |                                                 |
| \\      /  F ield         | OpenFOAM: The Open Source CFD Toolbox           |
|  \\    /   O peration     | Version:  2412                                  |
|   \\  /    A nd           | Website:  www.openfoam.com                      |
|    \\/     M anipulation  |                                                 |
\*---------------------------------------------------------------------------*/
FoamFile
{
    version     2.0;
    format      ascii;
    arch        "LSB;label=32;scalar=64";
    class       volScalarField;
    location    "39";
    object      p;
}
// * * * * * * * * * * * * * * * * * * * * * * * * * * * * * * * * * * * * * //

dimensions      [0 2 -2 0 0 0 0];

internalField   nonuniform List<scalar> 
808
(
0.122704
0.0302305
0.052157
0.122487
-0.228433
0.0239843
0.0211629
0.0406271
-0.131828
-0.0282772
0.0476439
-0.147908
0.0395378
0.0231253
-0.197161
0.0272115
-0.19842
0.0159468
0.0377639
0.0146166
0.0398498
0.383997
0.0856301
0.00566721
0.458432
-0.109737
-0.0577165
0.0116044
0.0111486
0.0238324
0.013872
0.0229984
0.0294877
0.00672655
-0.0924853
0.626758
0.0295399
0.0283199
0.0340638
0.0303251
-0.0560742
-0.0549368
0.0516956
0.0377671
-0.0549487
0.101291
0.0287022
0.0100726
0.034785
-0.174321
0.0201291
0.0207671
0.060413
0.00291657
-0.0845911
0.0330409
0.0127104
0.0437494
-0.0256187
0.0265341
-0.326654
0.0028461
0.042947
-0.192881
0.0426969
0.0629901
-0.300764
0.0367763
0.0433058
-0.2785
0.0382116
-0.309084
0.0362335
0.0298343
0.183948
0.034753
0.0056754
-0.0694255
0.0281764
0.317785
-0.0689974
0.0271225
0.0456726
0.271008
0.0377417
-0.00972293
-0.356172
-0.107127
0.0397954
-0.134575
0.0431994
-0.102415
0.259553
0.168161
0.0562788
-0.336584
0.0394405
-0.0386683
-0.113193
-0.284198
0.0231683
0.0137633
0.0478566
-0.00412765
-0.100553
0.0732881
-0.0432895
-0.0315796
0.030662
0.0269702
-0.0401801
0.339451
0.0366936
0.012949
0.0316645
0.453851
0.0264519
-0.264164
0.0342318
0.0629644
-0.313245
0.0525088
0.0287938
0.0637294
0.125385
-0.0504891
0.109779
0.0665774
0.0305529
0.0825309
-0.355406
0.0451229
-0.0439708
0.135373
0.0361268
0.0273364
-0.0103398
-0.0128012
0.0352019
0.0193773
-0.308823
0.0522273
0.0306893
0.0379957
-0.0220125
-0.061664
0.100633
0.15917
-0.150514
-0.0558061
0.0373288
0.347404
0.0403817
0.53775
-0.298186
-0.0762852
0.026481
-0.111891
-0.0018271
-0.0853323
-0.307109
-0.308137
-0.309173
0.0326208
0.076933
0.0389191
0.033541
-0.324327
0.0330612
0.0484163
0.0481396
0.169417
-0.0768954
0.121272
0.0279694
0.0743394
0.084758
-0.161473
0.036137
-0.336608
0.0472012
-0.133201
0.0293424
0.264348
-0.100309
0.130921
0.0392758
-0.164026
0.0427785
-0.114885
-0.286731
-0.0644736
0.0329568
0.0851015
0.0287597
-0.279029
0.0305136
0.0428604
0.0152601
0.0916215
0.0719486
0.0449139
0.0316749
-0.301278
0.378378
-0.286061
-0.310362
0.0105846
0.0668994
0.0368322
0.0242046
-0.385175
-0.389425
0.0282855
0.0320088
0.0315644
-0.315716
-0.0391283
0.0338374
0.0529036
-0.00651505
-0.0908106
0.0398251
0.0400978
0.0105759
0.0322654
0.139231
-0.460455
0.0116331
0.0137866
0.130038
0.0175298
0.0207016
0.01109
-0.0347731
0.0699301
0.0214132
0.0181344
0.0319808
0.0297217
0.0239526
0.00997951
-0.0134731
0.0134933
0.00505163
-0.00249534
-0.00382629
0.0114929
-0.00850119
-0.0392412
-0.316394
0.00133989
-0.0411628
-0.111061
-0.0130397
0.0356053
0.017809
-0.000514688
0.0294347
0.13866
-0.0189517
0.0108685
0.0176744
0.0674767
0.0484041
0.00719225
-0.00906956
0.00663178
0.0056325
0.00452597
0.0316578
-0.380199
0.28249
0.0120279
-0.0633633
0.0251694
0.0109409
0.0126535
-0.283323
0.274622
0.0223267
0.060902
-0.000850803
0.0908833
-0.121636
0.00999775
-0.0506516
-0.0274947
-0.0755233
-0.0191952
0.0340178
0.0128179
0.0282785
0.0411046
-0.0260117
0.0060674
0.0447867
0.0706422
-0.0452279
-0.0527167
0.0137484
0.0132931
0.0336677
0.0296677
-0.502541
-0.0600206
0.0550173
-0.0330523
-0.186411
-0.048199
-0.0427596
0.0214701
-0.318288
0.131245
0.157091
0.0337363
0.0280703
0.00572427
0.0075492
-0.217528
0.0227709
-0.00238936
0.0355016
-0.00974889
-0.0402594
0.0357986
0.014445
0.00450201
-0.0354273
-0.300887
-0.0061451
0.0519212
0.119189
0.0899509
0.0293441
0.23843
-0.0430552
-0.16836
0.54814
0.111114
0.0122496
0.0352051
-0.0471178
-0.0359552
0.0630964
0.0349251
-0.00955853
0.0188294
-0.0123329
-0.248081
0.0560917
0.118117
-0.00863145
-0.291098
-0.317889
-0.440013
-0.318933
0.0411152
0.0361345
0.0241207
-0.0426426
-0.0141079
0.00883439
0.0246087
-0.00244452
-0.494779
0.070648
0.0302562
0.0457834
-0.300295
0.0492536
-0.0474484
0.116112
-0.327902
0.0936718
0.0217787
0.0950492
0.0499119
-0.306219
0.0545368
-0.326879
0.0368033
0.0174331
0.0479585
0.0300767
0.04109
-0.0930085
-0.32204
0.0217957
0.0110601
-0.213789
0.00844228
0.0241994
0.0376224
-0.00717896
0.0320575
-0.210289
0.0378286
0.0486522
0.0264189
-0.454133
-0.12034
0.0640894
-0.0104206
-0.0729612
-0.0213244
0.423307
-0.158987
0.0306583
-0.0586317
0.0456364
0.0567288
0.0314869
0.012202
0.00637898
0.119379
-0.03905
0.00459573
-0.00489914
-0.00685982
-0.00965645
-0.00785117
0.0387146
0.119457
-0.111418
0.0311436
0.00729861
0.0261341
-0.00517404
0.04214
-0.371918
-0.186346
-0.00559837
0.0158618
-0.0949043
-0.434159
-0.000683307
-0.0838666
0.0431151
0.0329901
-0.115969
-0.247445
0.24667
-0.290828
-0.445468
-0.207579
-0.0831416
0.0209416
-0.470618
0.352991
-0.053172
-0.324657
0.0268097
0.084854
0.565115
-0.000151277
0.0102801
0.0526829
-0.127508
0.0114343
-0.177447
-0.272964
0.00482899
0.068236
-0.0559137
-0.25761
-0.295515
-0.185319
0.0236584
0.0231612
0.105762
-0.00154097
-0.0600553
0.0940081
-0.127959
0.0377419
-0.196701
-0.3304
-0.0462736
-0.00285484
0.0360478
0.0270025
0.0830041
-0.0231626
-0.00850057
-0.449021
0.452539
-0.321324
-0.312635
-0.00965053
-0.00813175
-0.304511
-0.286189
0.122768
-0.320314
-0.088024
0.863952
0.0352993
-0.334772
0.02889
0.028612
0.0694383
-0.455791
-0.295316
-0.295104
-0.0217943
-0.206341
-0.340469
0.0168958
0.011136
0.10701
-0.292336
0.0463166
-0.489179
-0.347894
-0.411144
0.0259917
0.0226661
0.0419017
0.118829
0.12783
0.00771723
-0.302962
0.302661
-0.00802621
-0.0143899
-0.421702
-0.484746
-0.309837
0.082864
-0.330147
-0.0249031
-0.00627641
-0.0596128
-0.235837
-0.225365
0.0330913
-0.31437
-0.283847
0.0170713
0.016654
-0.0963886
0.0206684
0.0502659
-0.367429
-0.343949
-0.104807
0.105964
0.0365015
-0.319598
-0.302354
-0.449202
-0.0223735
0.0544688
0.112312
0.00155566
-0.455819
-0.320023
0.111495
0.0262272
-0.0216624
0.0420981
0.0322123
-0.35669
0.0512355
-0.265454
0.0324083
-0.140599
0.00864193
0.00613811
-0.390385
-0.477115
-0.000555681
-0.468349
-0.447482
0.0422952
-0.0538302
-0.288946
-0.0407173
-0.309902
0.0442911
0.0870803
0.063549
-0.0791927
-0.0449276
0.0177898
-0.44668
-0.00114371
-0.332537
0.0297955
-0.321006
-0.522375
0.0996143
0.281152
0.446526
0.0388307
0.00338291
0.00456323
-0.321281
0.650787
0.0374297
-0.185283
0.023836
-0.0808874
0.0854445
0.494268
-0.39762
-0.00693458
-0.011229
0.0192741
0.0193352
-0.475056
-0.294849
-0.376047
-0.2895
-0.278217
0.0222042
-0.361803
0.0328862
-0.26299
-0.29852
0.531778
0.603014
-0.302532
0.110058
-0.294763
-0.00736851
0.138695
0.426348
0.083742
-0.307124
0.124944
-0.512753
0.000963806
-0.195351
-0.0117087
-0.342031
-0.275772
0.00587297
0.00532678
-0.303332
0.439592
0.684372
-0.328277
-0.31366
-0.31776
-0.0192714
-0.332499
-0.292
-0.128777
-0.305525
0.771028
-0.36316
0.738711
-0.404004
0.329002
-0.299549
0.0270316
0.182958
-0.515205
0.209126
-0.247222
-0.321042
-0.348391
0.880584
-0.296008
0.209748
0.148177
0.640934
0.124252
-0.27588
-0.294932
-0.184617
0.0233901
0.100076
0.510364
0.0204577
-6.31388e-05
-0.297022
0.137418
-0.12169
-0.471556
0.0534821
-0.178092
-0.169236
-0.139938
-0.352423
0.0272718
0.10684
0.0321876
0.0884257
0.113982
-0.352512
-0.346642
0.0733449
0.0308053
-0.463407
-0.519366
0.192556
0.200947
0.0954937
0.684503
-0.0817502
-0.0325188
-0.378646
-0.319625
-0.060385
0.0915582
0.77297
-0.456154
0.368871
0.0240661
-0.443967
0.16185
-0.0615388
0.381182
-0.132616
0.0366743
-0.308673
-0.0875698
0.184796
0.811922
0.336002
0.773322
-0.403249
-0.322262
-0.405276
0.177974
0.275214
0.0782476
0.393025
0.122901
0.501631
0.286768
0.093305
-0.189868
0.0245233
-0.24821
0.889536
0.414847
0.667979
0.516278
-0.255667
-0.358334
-0.295633
-0.309674
0.0651797
-0.406036
0.0942457
0.607798
-0.363668
0.010252
-0.309687
0.196475
-0.357726
-0.386188
-0.170132
-0.306109
-0.318571
-0.375432
-0.319176
-0.128828
-0.404009
-0.139963
-0.0639722
0.155643
0.648663
-0.209129
-0.293163
0.840337
-0.294779
0.283749
-0.232832
0.376494
0.091568
-0.379411
-0.406328
0.460963
-0.278932
-0.319846
0.184802
-0.267657
0.00591834
-0.314792
-0.107226
0.0521438
0.569357
0.783776
-0.30778
0.229452
-0.329537
0.828477
0.0165857
-0.315643
0.00670097
0.763284
0.216558
-0.323232
-0.29454
0.452786
-0.205742
0.0444774
0.366387
0.262126
0.298449
-0.245318
-0.26437
0.693168
)
;

boundaryField
{
    FrontBack
    {
        type            empty;
    }
    Top
    {
        type            zeroGradient;
    }
    In
    {
        type            zeroGradient;
    }
    Bottom
    {
        type            zeroGradient;
    }
    Out
    {
        type            fixedValue;
        value           uniform 0;
    }
    circle
    {
        type            zeroGradient;
    }
}


// ************************************************************************* //
