/*--------------------------------*- C++ -*----------------------------------*\
| =========                 |                                                 |
| \\      /  F ield         | OpenFOAM: The Open Source CFD Toolbox           |
|  \\    /   O peration     | Version:  2412                                  |
|   \\  /    A nd           | Website:  www.openfoam.com                      |
|    \\/     M anipulation  |                                                 |
\*---------------------------------------------------------------------------*/
FoamFile
{
    version     2.0;
    format      ascii;
    arch        "LSB;label=32;scalar=64";
    class       surfaceScalarField;
    location    "39";
    object      phi;
}
// * * * * * * * * * * * * * * * * * * * * * * * * * * * * * * * * * * * * * //

dimensions      [0 3 -1 0 0 0 0];

oriented        oriented;

internalField   nonuniform List<scalar> 
1171
(
-0.945051
0.945051
0.774256
-1.08469
0.310437
-0.297132
-0.667228
0.96436
0.0549493
-0.0701888
-0.28138
0.351569
-0.774256
0.0930181
0.681238
0.932585
-0.2124
-0.720185
0.858108
-1.07685
0.218742
-0.360042
-0.0437625
0.403805
-0.0133323
0.612151
-0.598819
-0.468902
0.861651
-0.392748
-0.430231
1.04068
-0.182568
0.248608
0.0822613
-0.330869
1.00174
0.038938
0.24464
0.00396734
1.04508
-0.0433421
0.604833
-0.901965
-0.781164
0.597791
0.183373
0.299302
-0.768204
0.555477
-0.912934
0.357458
-1.07866
0.669499
0.409158
-0.643185
0.629852
0.0266222
-0.245899
0.219277
0.0324029
-0.613646
0.581243
0.464881
-0.508643
-0.830022
0.866418
-0.0363964
0.994881
0.0501989
0.903744
-1.06112
0.157381
1.01745
-0.0225701
-0.702775
-0.0783894
1.28167
-0.84109
-0.440581
0.187429
-0.0943921
-0.406589
0.500981
-0.273211
0.189097
0.0841135
-0.604325
-0.480368
0.97577
-0.0720265
-0.0220427
0.885313
-0.86327
0.542279
0.739392
0.517759
0.0122257
0.452655
-0.790169
-0.105705
0.895874
0.561095
0.235087
-0.796182
0.103993
0.505874
-0.609866
-0.507199
-0.571458
-0.376308
-0.684817
0.0231411
0.251532
-0.274673
-0.949359
-0.0241336
0.973493
0.379137
0.0246681
0.820777
0.111809
-0.596789
-0.0463956
0.0355229
-0.825692
0.0894782
0.920061
-1.00954
-0.397566
0.0211646
0.376401
-0.701334
-0.248025
-0.67371
0.763188
0.708752
0.152898
-0.586593
0.978797
-0.807238
-0.171559
-0.198634
0.12386
0.074774
-0.459261
-0.0493822
-0.246465
0.955217
0.00575694
0.431836
-0.437593
-0.474002
1.0351
0.712945
-0.818651
0.411377
-0.0758
-0.335577
0.788189
-0.788189
-0.866751
0.0424652
-0.323845
-0.700307
0.678264
-0.0364838
-0.14951
0.185994
0.900309
-0.0149957
1.03463
-0.799542
0.226708
-0.324675
0.0979674
0.955625
-0.134848
-0.668206
-0.038265
0.706471
0.145525
-0.229046
0.0835209
0.793568
-1.00597
-0.436095
0.309154
0.126941
0.650244
-0.617841
0.872435
-0.39601
-0.476425
0.496128
-0.695401
0.0349762
0.660425
0.159442
0.643265
0.0604891
-0.703754
0.140545
-0.0980802
-0.507824
0.110258
0.0313577
-0.890889
0.859531
-0.531384
-0.755468
0.0526929
0.503512
-0.0508565
0.277619
-0.834939
0.557319
0.423606
0.576394
0.594871
-0.559348
-0.417134
-0.00590498
0.423039
0.561633
0.226556
-0.636877
0.74087
0.0969229
0.886586
0.00139853
-0.669604
-0.761783
0.793141
0.605
0.0728449
0.372755
-0.4456
-0.156193
0.509043
-0.00316887
0.90774
-0.615199
-0.292541
0.650755
0.328041
-0.43612
0.656868
-0.584023
0.409473
0.146004
-0.0505786
-0.805927
-0.120318
0.926244
-0.13468
-0.653509
-0.613434
0.36055
0.252883
0.650644
-0.649245
0.315085
1.0053
0.0293295
-0.761783
-0.0599528
-0.138682
0.712945
0.775019
-0.775019
0.838196
-0.822388
-0.0158077
-0.453699
0.877305
-0.188171
-0.319653
0.764505
-0.673095
-0.0914104
-0.827276
0.0213494
0.118013
-0.714802
0.818651
-0.974843
-0.225914
0.236042
-0.010128
0.126578
-1.0012
0.874619
0.548841
-0.0310817
-0.291457
0.594687
-0.30323
-0.662763
0.789341
-0.156594
0.632013
-0.953105
0.321092
1.17682
-0.794152
-0.38267
0.724441
-0.071813
0.0171801
-0.0104314
-0.0067487
-0.801863
-0.965943
0.298715
-0.700307
0.566694
-0.545529
0.138442
0.669561
-0.808003
0.777591
0.16746
0.492263
0.507737
-0.00503921
-0.698065
0.703104
0.877199
0.0305405
-0.724441
0.793141
0.183192
-0.429091
-0.0559912
0.0471666
0.0088246
0.658812
-0.430774
-0.228038
0.681238
-0.0286237
-0.333929
0.541321
0.11749
-0.0255485
-0.000944384
0.0264929
0.00926281
0.00791732
0.150752
-0.226552
-0.931614
0.00410221
-0.138473
-0.0751618
0.110222
0.788633
0.741456
-0.165061
0.639044
-0.500602
-0.164809
0.391516
0.633434
0.0478039
0.234663
-1.05705
-0.974843
0.32828
0.678264
-0.16743
0.0179198
-0.792735
1.04817
-0.25543
0.472671
-0.0962699
0.787718
0.304599
0.188805
0.0558355
-0.68035
0.68035
0.225938
0.669936
-0.0376402
0.469476
0.463341
-0.0370476
-0.0189437
0.523534
0.0253066
-0.662763
0.5672
0.197305
0.0110213
-0.0214528
-0.633434
0.202231
0.845934
0.0451567
-0.753647
0.70849
0.755768
-0.820105
0.064337
-0.777591
-0.0353692
0.0495498
-0.0141806
0.0870657
-0.131749
-0.103263
0.235012
-0.00436547
-0.0211831
0.810156
-0.764999
0.830501
0.133858
-0.390667
-0.434073
0.824741
-0.00202961
0.00202961
0.230137
0.40792
0.584132
-0.992052
-0.201839
-0.552924
0.754763
-0.0207206
0.206715
0.379206
-0.233681
0.893485
-0.485565
0.699787
0.968698
-0.384565
0.191034
0.789341
0.606773
0.219555
0.646864
-0.653509
0.31965
-0.118282
0.0673083
0.0509737
0.958367
-0.237177
-0.72119
-0.563431
0.540861
0.546301
-0.563431
-0.606773
0.540861
0.0133665
0.772332
0.0581695
-0.561633
0.472395
0.089238
0.547223
0.592393
-1.13962
0.599536
0.29395
0.49607
0.606294
-1.10236
0.637284
0.331413
0.472395
-0.5278
-0.436404
-0.719218
-0.747324
-0.283544
-0.00717146
0.00717146
0.740418
0.456268
-1.20359
0.695388
-0.322633
-1.16721
0.373054
-0.67449
0.426465
-0.0413905
-1.033
1.07439
0.449999
0.0100155
0.948352
-1.06438
-1.0587
0.0562969
1.0024
0.173011
-0.299533
0.126522
0.693952
-0.765978
0.90083
-1.04675
0.145922
0.154315
-0.769514
-0.177433
0.981545
-0.804112
-0.852476
1.00679
-0.823254
0.481971
0.341284
-0.651047
-0.00697947
0.658026
0.00326903
-0.00529864
0.423623
0.163547
-0.985657
0.82211
-0.781146
0.776107
1.14468
-0.0424458
-1.10224
0.0859891
-0.0354243
0.458463
-0.363966
0.0392904
0.982473
-1.02386
-0.517189
-0.535437
-0.234078
-0.189022
-0.960799
-0.0859531
0.502163
0.136882
-0.289581
0.462592
-0.704979
0.698
0.476425
-1.02299
-0.894922
-0.12259
-0.263497
0.751854
-0.488357
0.113596
-0.780685
0.576872
0.178896
-0.0468742
0.995226
1.06309
0.935458
-1.02141
0.0475833
-0.0475833
-0.0765193
-0.107067
-0.192466
0.34067
-0.0123896
0.160181
1.10882
0.0332089
-0.0375743
0.656514
0.343486
0.796862
-0.604325
-0.751738
-0.725534
-0.504465
0.504465
-0.211566
-0.112279
0.617908
-0.964113
0.346206
-0.463992
-0.56143
0.333935
-1.01875
-0.964515
1.11044
-0.842307
0.608229
0.66
0.215579
-0.875579
-0.384251
-0.188594
0.871008
-0.682414
-0.144307
0.0242063
0.000517211
-0.0247235
-0.0595981
-0.0474686
0.951843
0.415109
-0.167485
-0.247624
0.541631
0.749039
-0.523101
0.0157066
-0.288917
0.108706
0.684677
-0.793383
-0.358753
-0.0402763
0.13592
-1.00358
0.28239
-0.748534
0.156103
0.720621
-0.876724
-0.940222
0.191688
0.728875
-0.769152
0.224581
-0.35633
-0.550255
0.166004
0.370106
0.696108
-0.0392401
-0.00863114
0.00863114
-0.00811584
-0.0585612
-0.0597208
-0.0162055
0.0494144
-0.413373
0.347385
0.707308
-0.83243
0.125122
-0.734952
0.891054
0.802806
-0.0739306
-0.743652
-0.19657
-1.18321
0.0214611
0.0261221
-0.304667
-0.921085
-0.824145
0.383564
-0.2569
0.404829
-0.147929
-0.465567
0.1609
0.492634
0.711463
-0.0520251
-0.0231367
0.837576
0.509367
0.148474
-0.657841
-0.281932
-0.183635
0.00405576
0.0201505
0.784211
-0.904528
0.00515995
-0.00515995
-0.680123
0.777468
-0.0973442
-0.571513
-0.130193
-0.695531
-0.00101819
0.704122
-0.0560898
-0.884125
-0.29768
0.371541
-0.073861
0.807768
-0.682647
0.346449
0.240977
-0.587425
-0.136875
-0.725901
-0.150823
-0.170756
-0.298698
0.46858
-0.517962
0.127061
0.766412
-0.893473
0.496128
-0.311353
0.0544536
-0.257564
-0.0411338
0.589158
-0.0870127
-0.502145
-0.290479
0.311391
-0.020912
0.498479
0.196908
0.0769053
-0.31621
0.173489
0.142721
0.139683
-0.199635
-0.339175
0.117881
0.133459
-0.251341
0.982176
-0.343014
-0.2285
0.551463
0.353898
-0.521383
0.415464
-0.415464
-0.203992
-0.408969
-0.214559
-0.408969
-0.718674
-0.851223
0.178128
-0.53548
0.768835
0.0436283
0.154726
0.541382
0.10862
0.121925
0.00964305
-0.131568
-0.163939
0.698001
-1.02025
0.58618
0.0169199
0.0176554
-0.0345753
-0.756345
-0.178699
-0.506363
0.654837
-0.528194
-0.0383792
-0.00275464
-0.347966
-0.079519
0.079519
0.0513899
-0.0018401
0.143386
0.205194
-0.653206
0.146842
0.0842282
0.473632
0.526368
0.853012
0.000397586
0.0561977
-0.0565953
-0.298188
-0.585937
-0.494082
0.117716
-0.12205
0.00433356
-0.164808
-0.406665
-0.118061
0.822183
-0.593242
-0.163102
0.0854813
-0.0260262
0.122133
-0.339702
-0.201923
-0.198501
-0.0280503
-0.469214
0.413894
0.0553197
0.0395646
0.294493
-0.865951
-0.520381
0.658244
-0.876635
0.73976
0.434052
-0.0414894
0.0685401
-0.0270507
0.208407
-0.631513
-0.00375928
0.635272
-0.889591
0.641985
-0.718504
0.0901836
0.00705697
-0.00705697
-0.300503
0.42822
0.0302429
-0.033121
0.0335186
0.56576
0.405872
-0.698413
0.0140456
-0.00294993
-0.0056812
0.0046893
-0.0046893
-0.434757
0.631666
0.0168977
-0.0168977
-0.778556
-0.00840317
0.0116722
-0.449545
0.596387
0.473378
-0.570722
0.0711326
-0.0711326
0.0563078
-0.0752514
0.00821336
-1.09363
0.710959
-0.582686
-0.00529864
0.600552
0.00492725
-0.605479
-0.702115
0.108873
-0.314525
-0.0108199
0.325345
-0.0233397
-0.0286854
-0.602808
-0.0287053
0.0261221
0.0053353
-0.000175345
-0.00167161
0.00167161
-0.387314
0.135973
-0.467008
0.134894
0.661968
-0.116459
0.00914835
-0.00914835
0.508608
0.12289
0.00908658
0.0190652
-0.000609341
0.68587
-0.56298
-0.866652
0.638152
-0.154466
0.339753
0.825381
-0.00811584
-0.104656
0.0832035
-0.664409
0.534912
-0.191777
-0.101564
-0.0259359
-0.0268848
0.0399921
0.488647
-0.0903727
-0.411772
0.724765
0.00248216
0.00225364
-0.00225364
-0.28111
-0.18212
-0.568652
0.61228
-0.144752
0.504314
-0.185865
0.790698
0.889689
0.0053353
-0.660505
0.555759
-0.0507165
0.000559
0.0501575
0.677717
0.0954952
-0.0128593
0.0723237
-0.0594644
0.0111877
-0.0111877
-0.765421
0.0235493
-0.0453062
0.0643714
-0.0858354
0.0858354
-0.00294993
0.00103251
0.805121
0.0408127
-0.315002
-0.091664
-0.517497
0.0347647
-0.0678279
0.0678279
-0.000287507
0.0833586
-0.0833586
0.0288494
-0.0288494
-0.358543
-0.0775774
0.236645
0.0725088
0.0569314
-0.742359
-0.064493
0.158786
0.0244062
-0.244633
0.0832057
-0.0832057
-0.464902
-0.0530605
0.226795
-0.00751876
0.00366369
-0.660279
0.646912
0.0668084
-0.0670959
-0.0343357
-0.0409158
-0.012226
-0.16046
0.172686
-0.145931
-0.210399
-0.0815847
0.0815847
0.053462
-0.053462
-0.0263686
-0.0938227
0.120191
-0.0220589
-0.192511
0.0106779
-0.0163591
-0.159119
0.295092
-0.026057
0.437268
0.0105194
0.0159735
-0.0529401
0.0529401
-0.722264
0.316079
-0.125045
-0.207555
-0.0214907
-0.0222252
0.0258889
0.192346
0.0426664
-0.0031178
0.00250846
0.0873546
0.0303614
0.0574443
0.101341
-0.0447462
0.0216094
-0.00290632
0.00466826
0.00133721
0.000198534
-0.00153575
-0.00520357
0.0130015
0.0266024
-0.0266024
0.0500985
-0.0447027
0.0447027
-0.190477
0.0206418
0.0297934
-0.0778794
0.0176617
0.0793977
-0.0793977
0.247665
-0.240585
0.0946537
-0.0660921
-0.174492
-0.0137658
0.0137658
0.407585
0.25284
-0.523351
-0.0806189
-0.0414307
0.542479
-0.0563945
-0.06199
-0.477099
0.104426
-0.150375
0.168747
-0.018372
-0.0490363
0.0490363
0.929807
-0.586344
-0.000382826
-0.00482074
-0.00631639
-0.290979
-0.00015294
0.00425072
-0.0465732
-0.624664
0.570558
-0.637764
0.0137567
0.0841148
0.0148878
0.0240907
-0.156691
-0.331757
0.253878
-0.0532282
0.0268596
0.174135
0.137256
0.194946
0.263673
-0.248785
0.00116187
-0.116843
-0.218375
0.0660648
-0.00862048
0.162718
-0.138628
-0.0689746
0.156329
-0.396788
0.125557
-0.107895
0.061124
-0.472896
0.172998
0.182225
-0.251199
0.00988371
-0.181525
0.181372
0.00380798
0.152521
-0.027805
0.0476198
0.460988
0.0128366
0.00824717
0.00655017
0.0374866
-0.236747
-0.204816
0.588053
0.164238
0.0625571
0.0716331
-0.0646671
0.0903563
-0.0401987
-0.0306635
0.165264
-0.151507
0.0482393
-0.0167419
-0.108019
-0.0290038
0.0698488
0.254089
-0.0430475
0.0494405
-0.306669
-0.00804361
0.221515
0.142293
0.173787
0.0548234
0.0941343
0.0525133
0.513247
-0.00444207
0.108478
0.039284
0.0692357
-0.10852
-0.270511
-0.197116
0.0226236
-0.218807
0.284045
)
;

boundaryField
{
    FrontBack
    {
        type            empty;
    }
    Top
    {
        type            calculated;
        value           uniform 0;
    }
    In
    {
        type            calculated;
        value           uniform -1;
    }
    Bottom
    {
        type            calculated;
        value           uniform 0;
    }
    Out
    {
        type            calculated;
        value           nonuniform List<scalar> 10(1.09561 1.07502 1.15562 0.931234 1.19869 1.07874 1.19669 1.02542 0.619456 0.623528);
    }
    circle
    {
        type            calculated;
        value           uniform 0;
    }
}


// ************************************************************************* //
