/*--------------------------------*- C++ -*----------------------------------*\
| =========                 |                                                 |
| \\      /  F ield         | OpenFOAM: The Open Source CFD Toolbox           |
|  \\    /   O peration     | Version:  2412                                  |
|   \\  /    A nd           | Website:  www.openfoam.com                      |
|    \\/     M anipulation  |                                                 |
\*---------------------------------------------------------------------------*/
FoamFile
{
    version     2.0;
    format      ascii;
    arch        "LSB;label=32;scalar=64";
    class       volVectorField;
    location    "39";
    object      U;
}
// * * * * * * * * * * * * * * * * * * * * * * * * * * * * * * * * * * * * * //

dimensions      [0 1 -1 0 0 0 0];

internalField   nonuniform List<vector> 
808
(
(0.896898 -0.0107929 0)
(1.01584 -0.029118 0)
(1.14844 0.132203 0)
(1.06686 0.012237 -2.57408e-21)
(1.4922 -0.281157 0)
(0.947953 -0.0276059 0)
(1.14309 -0.0530362 -4.42919e-21)
(1.16167 -0.0314227 0)
(1.37735 -0.225352 2.60571e-20)
(1.23574 -0.0801092 -7.58633e-21)
(1.01806 -0.0750095 8.24001e-21)
(1.40439 -0.249156 0)
(1.02982 -0.0478286 0)
(0.742519 -0.029598 0)
(0.906741 0.0135357 1.34757e-20)
(1.11442 -0.0459788 0)
(0.782688 -0.0519595 -3.34205e-21)
(1.02405 -0.0484302 -8.54027e-23)
(1.06696 0.0665616 0)
(1.1087 0.0107824 0)
(1.11697 -0.0779371 -1.15007e-20)
(0.932092 0.12282 1.11821e-19)
(1.07291 0.0107528 -1.60405e-20)
(1.16765 -0.00794167 0)
(0.947621 0.169208 0)
(1.30723 0.0339904 -2.04597e-20)
(1.29168 -0.15955 7.10794e-21)
(0.938364 -0.0180677 -4.43032e-21)
(1.10643 -0.0334375 0)
(1.0365 0.0440261 -4.44858e-22)
(0.982147 -0.0290597 3.80001e-24)
(1.11785 0.00159433 0)
(1.06263 -0.00448336 0)
(1.06458 -0.0193729 2.95319e-21)
(1.31338 -0.0423186 8.37208e-21)
(0.742397 -0.126624 1.10641e-19)
(0.876139 -0.0358603 -1.19435e-20)
(1.02184 0.00274508 1.65716e-21)
(1.20766 0.0418517 -5.1012e-21)
(1.10663 -0.00724457 0)
(1.26157 -0.0255329 -1.48192e-20)
(1.27821 -0.113237 0)
(1.00904 0.00130163 -1.05781e-20)
(1.09099 -0.0506609 1.23346e-20)
(1.16652 0.0902454 0)
(1.00953 0.0134459 -2.18174e-20)
(0.994845 0.0214031 2.44977e-21)
(1.26387 -0.24245 5.44333e-21)
(1.16727 0.0320019 -1.13047e-20)
(1.43306 -0.160529 -3.76463e-20)
(1.1196 -0.0816533 8.21059e-21)
(1.14491 -0.0639686 0)
(1.11692 -0.00311465 9.4835e-21)
(1.09747 0.0184186 0)
(1.29817 0.218393 4.4197e-21)
(1.05804 0.0236724 -4.39523e-21)
(1.13014 -0.00401672 0)
(1.08557 0.0658109 6.53977e-21)
(1.24122 -0.0726524 8.14343e-21)
(1.11879 0.0310822 -1.32691e-21)
(-0.186014 0.409853 0)
(1.21959 -0.21406 -5.84026e-21)
(1.08106 0.0444315 0)
(1.45051 -0.0184166 -2.91977e-20)
(1.06403 -0.0193723 -1.35959e-20)
(1.04085 -0.02889 -1.07839e-20)
(1.45048 -0.113877 3.5528e-20)
(0.669882 0.0163628 0)
(1.05731 -0.0795477 0)
(1.4778 -0.358674 0)
(0.905134 0.0293603 -3.34964e-22)
(1.29735 -0.139904 -4.10256e-20)
(1.01899 0.0475108 0)
(1.03766 -0.0290833 -4.74013e-21)
(1.13764 -0.34019 -5.64985e-20)
(1.10186 -0.0838648 -1.67988e-20)
(1.11705 0.0305303 -8.84541e-24)
(1.31527 0.475575 2.56172e-20)
(1.0952 -0.0533614 0)
(1.00986 0.267494 -1.83614e-19)
(1.29346 0.0524843 9.76955e-21)
(0.741197 0.0230888 0)
(0.846444 0.023699 -1.2739e-20)
(0.971096 -0.115596 4.23498e-21)
(1.0729 -0.0462514 1.32045e-20)
(1.16421 0.0264658 8.1132e-22)
(1.32017 -0.240707 0)
(1.34026 0.256905 0)
(1.07459 0.0122117 -1.80612e-20)
(1.33013 0.0596556 2.15888e-20)
(1.07725 -0.00795868 1.39631e-20)
(1.33194 -0.100779 -1.44663e-21)
(0.965952 0.0251479 1.73351e-20)
(1.00398 -0.0224899 0)
(1.1075 0.0195538 2.06928e-21)
(1.47443 0.020297 -9.63039e-20)
(0.779932 0.0183342 -4.81551e-21)
(1.29513 0.0322037 0)
(1.33844 -0.056386 0)
(1.46727 -0.0913569 -5.27253e-20)
(1.10781 -0.0624845 -4.55596e-21)
(1.10638 0.0216616 -1.31065e-22)
(0.938446 0.0230777 1.27173e-20)
(1.15304 0.0386089 1.03994e-23)
(1.27292 0.0827308 -2.52487e-20)
(1.00241 0.00314431 1.57132e-20)
(1.35006 0.0452831 0)
(0.805848 -0.227977 0)
(1.07709 0.0254809 9.54238e-21)
(1.21474 -0.211786 -7.21015e-21)
(1.21915 0.069742 5.17238e-21)
(1.04138 0.0422263 -1.23195e-19)
(1.13835 0.0355466 -3.74647e-21)
(1.24341 -0.0938038 1.09947e-21)
(0.806174 0.00801514 0)
(0.918074 -0.0528242 7.60713e-20)
(1.12606 0.0273341 -8.11172e-21)
(1.47746 -0.268824 -1.84097e-20)
(1.10978 -0.0190293 -1.08214e-20)
(0.927558 0.0203524 2.23943e-21)
(-0.00724774 0.275311 0)
(0.859263 -0.0150114 2.09859e-21)
(0.780354 0.0231303 0)
(1.05402 0.00687146 -1.01134e-22)
(1.01021 0.0275644 0)
(1.29898 0.304088 7.90537e-21)
(1.03686 -0.0529422 -3.29187e-20)
(1.27955 -0.0825231 8.11308e-22)
(1.15009 -0.0422516 0)
(1.09165 -0.0220343 0)
(0.734276 -0.0962965 0)
(1.12147 -0.0241792 -6.15716e-21)
(1.23823 -0.0266795 8.03624e-21)
(1.0644 0.108682 -3.42902e-20)
(0.864614 -0.0141439 0)
(1.08456 0.02518 -2.27326e-21)
(1.21839 0.254685 -8.02313e-22)
(1.26164 0.125044 2.92603e-21)
(0.984341 0.0250363 6.11656e-21)
(1.10863 0.0157527 1.09874e-22)
(-0.0445228 -0.0751753 0)
(1.09397 -0.0115849 -1.54501e-20)
(1.16583 0.224324 2.18911e-21)
(0.721266 0.0216982 -6.14093e-21)
(1.24499 0.141229 2.30267e-21)
(1.15784 0.103537 -4.35802e-21)
(1.04434 0.0175003 1.78452e-20)
(0.992475 0.0308182 0)
(1.20304 0.0726781 -2.20547e-20)
(0.98669 -0.108426 0)
(0.94262 0.0281337 1.28182e-20)
(0.969092 0.272919 1.46945e-19)
(0.961617 0.0308934 0)
(0.819468 0.0863219 0)
(-0.158289 -0.174747 -7.37885e-20)
(1.31003 0.102715 -1.08723e-20)
(0.667833 -0.0155613 0)
(1.33353 0.063666 0)
(1.23734 0.261313 0)
(1.30403 0.0880992 1.03516e-20)
(-0.0358871 -0.197385 0)
(-0.0764109 -0.0727544 3.61668e-20)
(1.08904 -0.0620383 8.96214e-20)
(0.991353 0.0341965 1.79731e-21)
(0.858718 0.00154327 0)
(1.02698 -0.00915136 1.66494e-20)
(0.875289 0.0245283 0)
(0.854916 -0.073547 -9.68078e-20)
(1.02721 0.0338527 1.81808e-20)
(1.08962 -0.00874437 4.53212e-21)
(1.08501 0.0171462 8.25771e-21)
(1.01405 0.0658089 -1.25739e-20)
(0.873036 0.0179372 4.33831e-21)
(1.1467 -0.34911 5.71058e-22)
(0.90452 -0.0271558 0)
(1.06445 0.00607516 -1.43369e-20)
(0.8736 0.00718645 -1.26425e-20)
(1.40767 -0.16204 2.19636e-21)
(0.700997 0.0349552 0)
(1.07968 -0.148532 0)
(1.12221 0.0280633 4.80727e-21)
(1.37659 0.181856 9.10045e-21)
(1.09852 0.0237737 6.57116e-21)
(1.03612 0.0265352 1.95484e-20)
(0.562122 -0.131216 -1.73521e-20)
(0.812907 0.00135275 2.20606e-20)
(1.1359 -0.0231513 8.40499e-21)
(1.40707 -0.022033 -5.33563e-21)
(1.09662 -0.0125822 -8.44946e-21)
(1.33575 0.0049104 4.57247e-21)
(-0.148915 -0.161225 5.34825e-20)
(1.25763 0.0339271 0)
(0.626469 -0.0100679 0)
(1.06662 -0.0154151 -6.67042e-21)
(1.08487 0.0194209 9.60152e-21)
(0.0281358 -0.0497771 0)
(0.878295 -0.0208931 6.2753e-22)
(1.14511 0.0199558 -4.95481e-21)
(0.999977 0.0512282 2.85298e-21)
(1.07408 0.0358843 -8.05468e-21)
(0.99947 0.0190859 2.58749e-21)
(1.06762 -0.00684651 4.37068e-21)
(1.04676 0.0149111 0)
(0.347226 -0.048048 0)
(1.04337 -0.0640807 0)
(1.16233 0.069909 -3.08707e-20)
(-0.0200253 -0.241339 5.059e-20)
(1.14396 0.0404011 -1.95807e-23)
(1.00402 0.0379792 0)
(0.741657 0.0157021 -1.1985e-20)
(1.04836 -0.0882647 2.63826e-21)
(-0.012923 -0.0422097 -1.52831e-19)
(1.0464 -0.0129867 -7.69915e-20)
(0.621608 -0.0104507 0)
(0.813913 -0.0474974 0)
(0.939571 0.054804 1.10945e-20)
(1.05299 -0.120772 5.80558e-21)
(1.27461 0.379312 6.7434e-23)
(0.980219 0.0479737 -3.70542e-22)
(1.14927 0.084302 -6.96386e-21)
(1.01957 -0.0364582 0)
(1.35708 0.39984 -4.0501e-20)
(0.687595 -0.0279984 0)
(0.8146 -0.0226084 -5.17898e-21)
(1.03888 -0.00920042 -4.81415e-22)
(0.600344 0.0132796 0)
(1.10063 -0.00607588 0)
(0.399044 -0.0506128 -7.43683e-20)
(1.07369 0.217378 -6.94488e-21)
(0.725928 -0.0168227 1.99092e-21)
(0.990577 -0.00211083 0)
(0.555194 -0.0178709 0)
(0.767852 -0.0234217 -4.05117e-21)
(0.541089 -0.0123915 -3.94789e-22)
(1.29272 0.0460657 9.95132e-23)
(1.05464 -0.0731466 -8.08807e-21)
(0.726395 0.0153493 -3.63727e-21)
(1.09126 0.0158889 1.07957e-21)
(0.899223 0.183677 3.4915e-22)
(0.572301 0.0124274 9.73873e-21)
(1.13556 0.111803 2.08229e-21)
(1.09609 0.145565 0)
(0.905221 0.207744 0)
(0.512935 0.0185584 0)
(1.07337 -0.0013168 0)
(1.16047 0.0805831 4.93756e-22)
(0.932575 0.206024 0)
(1.19366 0.0553645 0)
(1.08123 0.198269 0)
(1.21693 0.213785 0)
(-0.019032 -0.0567941 4.91864e-20)
(1.24113 0.153584 -9.23089e-23)
(1.26975 0.199825 0)
(1.30872 0.137008 9.43372e-21)
(1.29464 0.0773095 -6.22262e-22)
(1.09534 0.0237696 6.13735e-21)
(1.27427 -0.0458457 2.16435e-21)
(1.19123 0.155603 0)
(0.594403 -0.0154573 9.4369e-21)
(1.0483 0.0374896 1.22295e-20)
(1.20029 0.0869499 0)
(1.05416 -0.0568991 -3.38159e-21)
(1.29046 0.0230064 2.82175e-21)
(0.405481 -0.253827 -2.59931e-21)
(1.09633 0.0374072 8.45936e-21)
(1.13401 -0.17563 -2.7496e-21)
(0.911635 -0.215864 0)
(1.338 0.0559119 -1.55881e-21)
(1.06606 -0.130153 -1.65839e-21)
(0.897561 0.314154 5.92512e-21)
(0.709573 -0.0464002 0)
(-0.028279 -0.0227368 0)
(0.977126 0.108984 -1.79026e-20)
(1.11173 -0.0675547 0)
(1.35922 -0.0306749 2.00198e-20)
(1.20405 -0.0602528 1.02092e-21)
(1.1394 -0.108027 2.64323e-21)
(1.23822 -0.0526719 -2.46233e-21)
(1.42114 0.0163075 1.39107e-19)
(1.02822 -0.332058 5.70443e-20)
(1.22326 -0.0472319 -2.26499e-22)
(0.830433 0.105076 0)
(0.688618 -0.272397 0)
(0.906892 0.00723039 -3.04577e-20)
(1.2169 0.0623845 -2.36234e-20)
(1.19904 -0.165495 0)
(0.824188 0.129819 -8.00484e-21)
(0.413421 -0.436375 0)
(0.847978 -0.0290255 -1.17725e-20)
(1.00611 0.230982 8.27773e-21)
(0.818345 0.0261998 -6.77893e-21)
(1.27942 -0.00969331 0)
(1.11214 -0.185766 -1.19082e-21)
(0.964562 -0.159936 9.11432e-21)
(0.748103 0.254794 1.87092e-21)
(1.24863 -0.148326 -2.32603e-21)
(0.789148 0.24726 0)
(1.08805 0.0668525 0)
(1.20936 -0.0388457 -8.04963e-21)
(0.938175 0.0831606 1.18921e-20)
(1.25183 -0.0603875 9.10742e-22)
(1.18436 -0.0616373 -2.96128e-21)
(0.817337 -0.161896 8.33279e-22)
(1.10486 -0.0888297 0)
(0.425407 -0.142664 1.41912e-20)
(1.29192 0.0762831 -1.21431e-20)
(0.934127 0.280932 -7.67348e-21)
(0.312603 -0.32029 2.74864e-21)
(1.45345 -0.0992413 2.61711e-20)
(0.71833 -0.0773387 1.86265e-20)
(1.2842 -0.1408 8.09086e-21)
(1.17892 -0.0373104 -7.84992e-22)
(-0.0299688 -0.282258 -8.64896e-21)
(1.00044 -0.00560064 0)
(1.03504 -0.0899351 -1.61277e-20)
(0.850683 -0.0310898 1.31994e-20)
(1.09147 -0.0451041 5.63036e-21)
(0.809194 0.278588 -3.89581e-21)
(0.527256 -0.0197186 1.11161e-21)
(1.43419 -0.385556 -1.59854e-20)
(1.09183 0.0881072 0)
(1.02921 0.0352567 7.31832e-22)
(1.11758 0.0309541 -3.01897e-21)
(1.31932 -0.213081 0)
(0.83947 -0.262987 1.00931e-20)
(1.14024 0.0600901 3.69717e-21)
(0.693642 0.365806 9.19253e-21)
(1.17619 -0.0415044 -7.77162e-22)
(0.98117 -0.1629 -6.91841e-21)
(-0.0352313 -0.203398 0)
(0.166424 0.0954148 3.05552e-21)
(1.09153 0.0510695 0)
(0.732513 -0.0701134 -2.27473e-20)
(0.635975 -0.252977 0)
(1.1307 -0.00168329 7.55238e-21)
(1.01681 0.0248771 0)
(1.25435 -0.220074 0)
(1.42013 -0.101013 2.18982e-20)
(0.802864 -0.0958689 0)
(0.979368 -0.114997 3.70369e-20)
(1.07668 0.00845284 -2.86636e-22)
(1.05103 0.0575404 3.62792e-21)
(1.31644 0.0534253 -1.0514e-20)
(1.22258 0.116359 -4.27412e-21)
(1.05934 0.223751 1.93476e-20)
(1.16221 0.0883799 0)
(1.19561 -0.130546 0)
(1.16192 0.0625954 1.41198e-21)
(1.22961 -0.0135755 0)
(1.41375 0.158682 -2.4928e-20)
(0.666476 0.190422 2.41562e-21)
(1.02496 0.0155743 2.35887e-20)
(1.17952 0.0940635 -6.39414e-23)
(-0.00701507 -0.0693879 0)
(-0.0312618 -0.112784 0)
(0.303673 -0.155265 -5.84648e-20)
(0.00449517 -0.282926 0)
(0.633298 0.116142 -1.06375e-20)
(1.19768 0.047217 -3.76011e-21)
(1.14579 -0.111201 -6.88383e-21)
(1.33719 -0.1805 -1.142e-21)
(1.24499 -0.0261184 0)
(0.699697 -0.00864217 -1.66264e-21)
(1.22043 0.083068 0)
(1.17998 0.0703553 -7.40503e-22)
(0.51301 -0.112837 0)
(0.544019 -0.119772 -6.80079e-22)
(1.21913 0.0576593 0)
(1.12278 -0.0017151 0)
(0.944243 0.353837 7.29243e-20)
(0.502106 -0.213782 1.12208e-22)
(0.982983 0.00992262 -8.41864e-21)
(1.00845 0.0176878 -9.74615e-21)
(0.220415 -0.172628 0)
(1.04761 0.0565522 -4.32436e-20)
(1.14847 -0.00209523 5.7974e-21)
(0.951786 0.1754 2.83033e-21)
(0.616314 -0.276751 4.38045e-21)
(-0.0389445 -0.24296 -1.06171e-19)
(1.20297 0.000467894 0)
(-0.0368947 0.0356384 0)
(1.17058 -0.0303494 1.22108e-20)
(0.575668 -0.354297 -4.71498e-21)
(1.05437 -0.0209394 -1.75615e-20)
(1.11023 -0.056449 0)
(1.07307 -0.107307 4.88784e-21)
(1.28502 -0.0736732 2.10651e-20)
(0.559927 -0.0566095 -9.61277e-21)
(1.15204 -0.0498085 -3.73006e-21)
(1.1424 -0.107745 -2.59067e-22)
(0.548727 0.0812107 5.56652e-21)
(1.18038 -0.173254 -1.44225e-21)
(1.10058 0.0332386 0)
(1.22796 0.0316631 0)
(1.22146 -0.0938798 2.01431e-21)
(1.12717 0.0185709 -5.23981e-21)
(0.65952 0.115364 -6.86647e-20)
(1.19661 -0.105754 -1.50503e-20)
(1.11422 0.0218268 1.57596e-20)
(0.520697 -0.00344337 1.57073e-20)
(0.840498 0.294874 -1.4247e-19)
(-0.00483879 0.503722 3.04087e-20)
(1.16746 0.167688 -6.53571e-21)
(1.25455 -0.502664 6.22715e-21)
(1.25541 0.125049 -1.24227e-20)
(1.24267 -0.0525839 -2.38702e-21)
(0.94836 -0.242346 9.37494e-20)
(0.0428285 0.468805 0)
(1.06005 0.0527412 -2.67336e-21)
(0.0133317 0.434755 -1.5683e-20)
(1.18074 -0.0376924 -1.0567e-20)
(1.17368 0.0928131 1.03727e-20)
(1.09639 0.0357965 0)
(0.790412 -0.308315 0)
(1.15887 -0.030145 0)
(1.12209 -0.0494618 1.33379e-20)
(1.22113 0.0289347 -1.38997e-20)
(1.17661 -0.0702008 1.16719e-21)
(0.471624 0.0173934 0)
(0.624544 0.0124223 0)
(0.630461 -0.00386011 1.70229e-22)
(0.452494 -0.0186777 0)
(1.13107 -0.0828105 0)
(1.02326 -0.00885048 2.58675e-20)
(0.691049 -0.301834 0)
(0.967414 0.0237247 0)
(1.06486 -0.0510398 0)
(1.16541 0.179172 -6.76445e-21)
(1.17666 0.0388148 -3.11516e-22)
(0.968065 -0.0305923 9.80051e-21)
(1.32299 -0.409705 -1.12762e-19)
(0.840109 -0.197288 3.5525e-20)
(1.38509 0.13786 6.51063e-23)
(1.23841 -0.179666 0)
(-0.0429072 0.291317 0)
(-0.0896027 -0.0991966 0)
(1.17965 -0.0226212 5.32138e-22)
(1.34363 -0.288768 -2.68151e-20)
(1.19605 0.073817 0)
(1.10202 0.0607164 -9.58308e-21)
(0.349155 0.146659 0)
(1.53799 -0.156559 8.00266e-20)
(0.409809 0.512346 1.19263e-19)
(0.288301 -0.0636178 0)
(1.12588 -0.284636 1.21066e-19)
(0.629821 0.433925 0)
(0.217319 0.101801 1.25427e-21)
(1.12899 0.0899349 0)
(0.145276 0.0212984 -8.56754e-22)
(0.984103 -0.0497747 0)
(1.35205 -0.0678673 -9.92481e-21)
(-0.126562 -0.25084 -8.90831e-21)
(1.1302 -0.0223747 3.11478e-21)
(1.13706 -0.154205 -1.50346e-20)
(0.583324 -0.536982 -9.02626e-20)
(1.28158 0.0471632 3.70233e-22)
(1.20244 -0.116974 3.85063e-21)
(1.17156 0.227853 -2.05473e-20)
(1.25709 -0.122594 -2.14454e-20)
(1.16917 -0.0130047 1.33658e-21)
(-0.274214 0.233995 -2.319e-20)
(-0.0374984 -0.0857816 -7.7394e-21)
(1.40523 0.0126496 1.67017e-21)
(1.05839 -0.041218 0)
(0.551896 -0.224153 3.82859e-21)
(1.43333 -0.449641 8.52593e-20)
(0.981822 -0.0973197 -6.13724e-20)
(1.3876 0.104693 6.19016e-20)
(1.06994 -0.0375492 4.7755e-21)
(1.109 -0.243391 5.02113e-21)
(1.06339 -0.00800539 0)
(1.16012 0.0124183 0)
(1.36079 -0.135673 7.78394e-21)
(1.08704 -0.0189914 -4.39788e-21)
(1.34023 -0.27227 2.22411e-20)
(1.1271 0.0237568 -8.85562e-21)
(1.44318 0.0676872 -5.1998e-20)
(0.509472 0.000776221 0)
(1.28164 -0.200846 -9.83383e-21)
(1.21121 0.136799 0)
(1.13876 0.0166681 -8.60444e-21)
(1.13486 0.025463 0)
(1.0384 -0.00624895 1.38879e-20)
(1.21638 0.0472302 6.22368e-21)
(1.1678 -0.212072 0)
(0.051307 -0.0319484 1.61591e-19)
(0.888226 -0.221395 -7.35341e-20)
(1.47152 0.186681 -3.93569e-20)
(-0.0881498 -0.252325 4.53321e-20)
(1.15528 0.0268953 7.09583e-23)
(0.702706 -0.254539 -1.37393e-21)
(-0.117092 -0.218584 -4.72923e-20)
(-0.0163472 -0.0878389 -2.88218e-20)
(1.02066 -0.0277274 0)
(-0.0269001 -0.0347724 0)
(1.15948 0.274686 0)
(0.112971 -0.120097 0)
(1.11694 -0.0321883 0)
(0.133939 0.0287493 0)
(1.08937 0.0315096 0)
(1.06541 0.151284 0)
(1.22781 -0.0148813 -7.98472e-21)
(0.589914 -0.293185 -2.26641e-20)
(-0.250872 -0.151253 0)
(1.20238 -0.0917057 6.38938e-20)
(1.35425 0.172929 -3.64746e-21)
(1.39325 0.279798 0)
(-0.0411849 -0.0426185 0)
(1.14905 0.0177084 -4.56095e-21)
(1.16068 0.00753887 1.57031e-21)
(1.1633 0.375601 0)
(0.285037 -0.126852 6.06009e-20)
(1.11524 0.0597169 1.58749e-21)
(0.239552 -0.053988 -5.48893e-20)
(-0.0580455 0.0407007 -3.58997e-20)
(-0.0212612 0.0476203 9.18953e-20)
(0.325215 0.359717 -1.98853e-20)
(1.02717 -0.205496 1.29316e-21)
(1.11066 0.0177008 -1.802e-20)
(1.02455 -0.00829498 0)
(1.07113 -0.063033 -2.16165e-20)
(1.15231 0.07094 3.34817e-22)
(-0.00861755 -0.0784054 1.0919e-19)
(0.982144 -0.0712571 -5.88443e-20)
(0.621049 -0.259547 -4.93904e-21)
(1.17594 0.0112847 3.35232e-22)
(0.0694041 -0.0352705 3.46745e-20)
(0.247307 -0.0411082 -4.93556e-20)
(0.421294 -0.0858899 -5.49546e-20)
(1.12411 -0.101627 1.98445e-20)
(-0.0592667 -0.0341989 0)
(0.930957 -0.199941 1.43639e-21)
(1.22087 -0.305126 -1.04722e-20)
(1.23816 -0.322452 1.00979e-20)
(1.3225 0.197177 0)
(1.53257 -0.215916 7.55818e-20)
(1.17317 0.00111596 -5.37169e-21)
(-0.0135976 -0.0693512 -3.74177e-20)
(0.362982 -0.0189931 0)
(0.945236 0.0401691 -4.17868e-21)
(1.10117 0.0302969 1.93278e-21)
(0.515981 0.159045 1.54552e-20)
(1.15451 0.0146116 2.26406e-21)
(1.1115 0.0486772 0)
(1.17884 -0.17474 -1.52674e-20)
(-0.027358 -0.293338 -7.834e-20)
(1.30917 0.0194783 2.45103e-20)
(1.10098 0.166781 -8.98608e-21)
(1.1351 0.0386261 1.0128e-20)
(-0.0395383 -0.065378 1.63601e-20)
(-0.0244593 0.0128896 -6.82362e-20)
(1.05368 0.118772 0)
(0.831326 0.332109 0)
(1.14273 0.0876239 -1.88137e-20)
(1.05032 0.0659536 1.37295e-20)
(1.16008 0.0607757 0)
(0.81265 0.0083179 7.41919e-20)
(0.797212 0.0504368 -1.26948e-20)
(1.09606 0.0962972 0)
(1.11539 0.0555277 0)
(1.24694 0.215485 0)
(1.08169 0.0322127 0)
(1.27924 0.169474 2.38952e-21)
(-0.0406043 0.0459648 3.92085e-20)
(1.10977 -0.0689082 1.00164e-20)
(1.46842 -0.194614 -8.79343e-20)
(1.21045 0.174157 -3.70848e-21)
(-0.227942 -0.0945366 0)
(1.23261 -0.210875 0)
(0.644144 -0.0169193 -1.2842e-21)
(0.581983 0.000731215 -6.50004e-20)
(0.0938847 0.0308471 5.22399e-20)
(0.963133 0.0241362 -2.93292e-22)
(0.758456 -0.278434 0)
(0.694055 -0.096508 0)
(1.14618 0.17214 0)
(0.539779 0.51055 2.02358e-20)
(-0.0124905 -0.0270948 -3.17481e-20)
(1.15475 0.122037 9.69986e-21)
(-0.019352 -0.14043 7.07089e-20)
(1.18743 0.00220181 3.40872e-21)
(1.16437 0.299196 3.91906e-20)
(1.11525 -0.08578 8.59435e-21)
(-0.0638922 0.106494 3.13575e-20)
(1.09592 -0.0662558 -1.31318e-21)
(1.20125 -0.243399 0)
(0.570975 0.273434 0)
(0.951281 -0.269439 -4.18197e-21)
(-0.155616 -0.229708 0)
(0.604954 0.0282321 3.25408e-21)
(0.616293 -0.427539 -3.41625e-21)
(0.26292 0.0477279 -1.18453e-19)
(1.12791 -0.229639 3.15685e-20)
(1.03483 0.35104 1.01485e-20)
(0.979259 0.0142825 0)
(1.06415 0.0570088 8.97896e-22)
(0.654295 0.0196146 0)
(0.993472 -0.0240811 -2.10487e-22)
(0.449944 -0.0240491 0)
(0.711486 0.116039 0)
(1.00303 -0.0196237 -7.56369e-21)
(1.42502 0.137786 -1.1066e-20)
(1.18919 -0.0287427 1.36742e-21)
(0.532214 -0.503835 0)
(1.13607 -0.151467 2.44942e-21)
(0.800416 0.362254 7.09094e-20)
(-0.0214117 0.0205736 1.30115e-21)
(1.22197 0.0230244 2.59692e-21)
(1.20497 0.0417548 -4.11372e-21)
(1.24094 0.0879117 9.17767e-22)
(0.800815 0.00648673 -5.00653e-21)
(0.0860291 0.0145962 4.16045e-20)
(-0.0130503 -0.137411 -6.10155e-20)
(-0.160766 -0.175257 0)
(-0.278377 -0.0971437 0)
(1.20692 -0.626679 3.38142e-20)
(1.15284 -0.0227564 -1.30423e-21)
(0.906142 -0.473961 -4.59972e-20)
(0.896027 -0.245791 -4.97495e-21)
(1.37079 0.171012 3.48049e-20)
(0.607974 0.420811 0)
(0.244004 0.406284 -1.17501e-19)
(0.591697 0.46258 0)
(-0.0787373 -0.137891 0)
(1.14059 -0.487483 0)
(-0.0438744 -0.132265 -4.1624e-22)
(1.17977 0.0149418 0)
(0.68383 0.157687 1.18948e-20)
(0.590691 0.680778 2.02469e-20)
(1.15254 0.0848359 -1.50041e-20)
(-0.0238752 -0.182374 -1.12699e-19)
(0.27324 -0.0262486 3.11038e-20)
(0.472083 0.146032 -1.40835e-20)
(1.1887 0.0818305 0)
(1.36131 0.336782 3.74559e-20)
(1.21909 0.550788 7.78728e-21)
(0.209327 -0.0312214 -2.53503e-20)
(1.05023 0.0630577 3.41748e-20)
(0.941745 -0.0139891 1.61981e-21)
(0.929564 0.0361751 -2.78714e-22)
(-0.0191203 -0.0405956 0)
(0.657496 -0.67155 -2.93565e-20)
(0.613261 0.184095 0)
(0.186539 -0.23325 0)
(-0.0460112 0.0332114 0)
(0.0533139 -0.258899 -4.31092e-20)
(1.22467 0.0180901 -3.00532e-21)
(-0.016714 -0.000477634 0)
(-0.030772 -0.0189836 0)
(1.42623 0.0772527 -5.77653e-20)
(-0.0384073 -0.112958 5.08234e-20)
(0.113461 0.224576 -1.02247e-19)
(0.440447 0.0013671 0)
(0.171748 -0.292221 8.04518e-20)
(1.11464 -0.246958 0)
(1.00729 -0.290288 0)
(0.0415836 -0.187777 1.07009e-19)
(1.13888 0.0404177 -2.49856e-22)
(1.12106 0.326546 2.8025e-20)
(0.294906 0.0230227 4.96629e-20)
(0.410432 -0.530515 -3.45789e-20)
(1.27252 0.0457274 0)
(1.25151 0.160078 2.37201e-20)
(1.24037 0.1897 -2.91263e-20)
(0.101959 0.074915 -2.35166e-20)
(-0.0654257 -0.194597 0)
(1.0749 -0.0475051 -1.95874e-20)
(1.10821 -0.224596 -1.55491e-20)
(0.589447 -0.421782 0)
(1.0994 -0.155615 -2.57409e-20)
(-0.285908 -0.11459 0)
(0.643481 -0.00594981 0)
(1.41107 0.138545 3.90053e-20)
(1.03241 0.0379615 6.9626e-22)
(1.07122 0.728485 -1.69787e-20)
(0.229257 -0.39087 1.28546e-19)
(1.16053 0.0253256 1.9815e-21)
(1.1921 0.0712262 -1.97157e-21)
(-0.0464028 -0.0439419 3.26561e-20)
(0.786296 0.726401 2.98311e-20)
(1.37406 -0.373411 -1.35698e-20)
(0.527012 0.242676 1.25756e-19)
(1.05134 0.0352504 0)
(0.00181281 -0.167914 -3.91574e-21)
(0.916013 -0.647723 3.08125e-21)
(0.905243 0.639182 -1.83701e-20)
(0.563667 -0.0394403 -6.44988e-20)
(1.13797 0.00318134 -1.06487e-20)
(1.07774 -0.0800117 7.13982e-21)
(1.11981 0.0227561 7.11743e-21)
(1.10314 0.116364 5.36888e-21)
(1.13295 -0.117675 0)
(0.948317 0.083666 1.60479e-20)
(0.900846 0.458932 0)
(1.0855 -0.0140883 -8.66948e-21)
(1.15771 0.10485 2.4323e-21)
(0.775621 0.264512 0)
(0.551401 0.108799 1.12951e-19)
(0.889445 0.700029 -1.22397e-21)
(1.07227 0.278991 -2.15229e-20)
(1.0411 -0.00745303 1.29118e-20)
(0.412182 0.473114 0)
(1.31914 -0.47991 0)
(0.356997 0.0520742 9.60638e-22)
(1.27129 0.493935 0)
(-0.000465987 0.0289456 -4.79583e-20)
(1.30212 -0.417883 -9.26297e-21)
(1.15977 0.492825 0)
(0.452756 0.197753 1.70392e-19)
(1.14311 0.309425 -1.25645e-19)
(0.828647 -0.657472 -2.49939e-20)
(1.11376 0.0281464 2.02334e-21)
(0.948519 0.144471 8.70115e-20)
(1.08489 0.160309 5.25003e-20)
(1.07041 0.693877 7.03978e-22)
(0.916491 -0.450523 6.43453e-20)
(1.38948 0.162203 3.46851e-20)
(1.12431 0.00699101 -1.72211e-21)
(-0.00696109 -0.0762967 9.15676e-20)
(1.10054 -0.715501 2.97737e-20)
(0.885613 -0.735328 5.07377e-20)
(0.255724 -0.356969 0)
(0.974045 -0.150928 7.25437e-20)
(0.360112 0.287287 -4.42372e-19)
(-0.0354682 -0.23042 3.80984e-20)
(0.295031 -0.00403584 2.50653e-20)
(0.693256 -0.0631937 -7.62096e-20)
(1.07448 0.514253 0)
(0.990452 0.213892 8.05463e-20)
(1.08212 0.0291306 4.26476e-21)
(0.904027 0.427433 -9.14237e-20)
(0.796977 -0.740133 -7.71048e-21)
(0.923975 0.0152086 -4.90178e-20)
(0.972207 0.473965 0)
(1.04608 0.00487858 9.91738e-21)
(1.40279 -0.521539 1.37645e-20)
(1.24175 -0.344777 1.01293e-20)
(-0.277921 -0.115766 3.28204e-20)
(0.195408 -0.0204415 -1.81894e-20)
(0.983144 -0.122272 -5.83943e-20)
(0.348384 0.509991 0)
(0.912412 0.00701765 3.90559e-20)
(1.16143 0.628484 8.02549e-20)
(0.0531727 -0.26628 1.69209e-19)
(-0.0743787 -0.108213 -2.70113e-20)
(-0.0625977 -0.26704 4.49684e-20)
(1.09392 0.0200391 -5.85576e-21)
(1.15233 -0.470824 0)
(1.08545 -0.750211 -3.96179e-20)
(0.695411 0.334158 0)
(0.143626 -0.262673 -1.23053e-19)
(1.17555 0.0424162 4.00313e-21)
(-0.0316226 -0.211379 -3.1537e-20)
(1.04725 0.0529384 -1.15172e-20)
(0.142161 0.0147103 6.24091e-20)
(0.891059 0.113679 0)
(1.38883 0.0748528 5.08297e-20)
(0.0500337 -0.0306102 -2.84606e-20)
(-0.343758 -0.17689 -3.89463e-20)
(-0.180601 -0.140726 0)
(0.0725149 -0.0199449 0)
(1.33822 0.0617172 -1.51365e-20)
(0.386044 -0.0146841 1.57108e-19)
(1.28977 -0.740366 -2.59688e-20)
(0.686848 0.13926 1.00008e-20)
(1.06607 0.240402 -3.05981e-20)
(0.375301 -0.578107 1.38172e-19)
(1.53335 0.246164 -3.52204e-20)
(0.0828628 -0.133031 3.52777e-20)
(0.206459 0.284957 1.97458e-19)
(0.0930407 -0.0742137 -1.32651e-19)
(0.954556 -0.504645 -4.30347e-20)
(1.45494 0.367312 3.61291e-20)
(0.578287 -0.693538 4.75783e-20)
(1.1069 -0.0700557 -7.1265e-21)
(0.408266 -0.128467 6.73639e-20)
(1.20955 0.277518 -5.21967e-20)
(0.657682 0.624823 -4.16594e-20)
(1.36294 -0.634934 0)
(1.42767 0.504964 3.51403e-20)
(1.06863 -0.539351 -1.2993e-20)
(1.39049 0.593114 -1.00994e-19)
(1.13453 0.0391171 0)
(-0.0463074 0.0173098 0)
(1.24774 0.716165 0)
(1.05106 0.00870406 -1.15977e-20)
(0.749116 -0.315121 -2.06258e-19)
(0.477012 -0.100884 0)
(-0.0617256 -0.0278997 -2.77006e-20)
(1.02183 -0.24705 9.91614e-20)
(-0.224755 0.0809068 0)
(0.321901 0.00492932 1.22874e-20)
(1.1027 0.0352634 0)
(1.4271 0.247581 0)
(1.14018 0.0297253 -2.16656e-21)
(0.364264 -0.312928 0)
(1.01344 0.143828 3.82272e-20)
(1.32084 0.267726 0)
(-0.109666 -0.11462 -7.35666e-22)
(0.820033 -0.410458 0)
(1.50511 0.314211 -5.34411e-20)
(1.23525 0.349474 -5.88521e-23)
(0.834227 0.628422 -9.99398e-21)
(1.00786 0.153181 -8.90673e-20)
(0.968577 -0.209695 -4.83172e-20)
(1.4485 0.269189 3.12607e-20)
(0.999251 0.00752809 0)
(0.564763 -0.0868741 0)
)
;

boundaryField
{
    FrontBack
    {
        type            empty;
    }
    Top
    {
        type            noSlip;
    }
    In
    {
        type            fixedValue;
        value           uniform (1 0 0);
    }
    Bottom
    {
        type            noSlip;
    }
    Out
    {
        type            zeroGradient;
    }
    circle
    {
        type            noSlip;
    }
}


// ************************************************************************* //
