/*--------------------------------*- C++ -*----------------------------------*\
| =========                 |                                                 |
| \\      /  F ield         | OpenFOAM: The Open Source CFD Toolbox           |
|  \\    /   O peration     | Version:  2412                                  |
|   \\  /    A nd           | Website:  www.openfoam.com                      |
|    \\/     M anipulation  |                                                 |
\*---------------------------------------------------------------------------*/
FoamFile
{
    version     2.0;
    format      ascii;
    arch        "LSB;label=32;scalar=64";
    class       volVectorField;
    location    "1604";
    object      U;
}
// * * * * * * * * * * * * * * * * * * * * * * * * * * * * * * * * * * * * * //

dimensions      [0 1 -1 0 0 0 0];

internalField   nonuniform List<vector> 
808
(
(0.7562585022154974 -0.01750079420116287 0)
(1.031523918900753 -0.01262503460602871 0)
(1.111649760770156 -0.006523711732851861 -1.744629659325921e-20)
(1.085119685612881 0.01260377687028883 0)
(1.364523645235763 0.01465735774369827 -3.869128937615003e-19)
(1.038745097091398 -0.009362890255528791 -7.250036608639898e-20)
(1.014037569820013 -0.02112126347899222 -2.385114319657054e-20)
(1.079096460420151 -0.005418992701617442 9.037641454802736e-21)
(1.254860215518785 -0.02016147288725191 6.318607976591669e-20)
(1.085056509403908 0.01030955382778727 0)
(1.01009003215282 -0.007701665322463637 0)
(1.3065607763213 -0.05330084436296686 -3.518353146594132e-19)
(1.086230147679219 -0.002000366169088991 2.040042803887233e-20)
(0.6751883500396882 0.006369128247468191 0)
(1.279254091015401 -0.1140967071655431 0)
(1.081483654137169 -0.0002526068394619726 -3.847547364538309e-20)
(1.226442249940106 -0.1431976074852161 -9.51920255028959e-20)
(1.073949073620166 -0.0001166680638161672 3.191343539031436e-20)
(0.991018100749628 0.003592290341207342 0)
(1.026334126694345 0.009672918476852466 0)
(1.033926613970222 -0.01040503462926313 0)
(0.9875111570177072 0.04459860663987205 0)
(1.051127108994737 -0.005922840201011787 5.641637290057667e-20)
(1.053590831536729 0.009270225470291767 0)
(0.9327149615719258 0.1971567713744788 4.597576323801416e-19)
(1.16513445738416 -0.0844619176678514 0)
(1.186171761213456 -0.0187005230038512 1.568777559453835e-19)
(1.077396000616855 0.009534549471603449 5.208836839002732e-20)
(1.083677498727106 0.002317119391498961 5.082686027304925e-21)
(1.071781688446974 0.0308809500817218 0)
(1.075333116981531 0.002810539746972521 -1.177124761796605e-20)
(1.033036566384191 0.006864518856014106 -1.92702833262548e-19)
(1.059981838093693 0.01468982298879148 -2.365880675673129e-20)
(1.088991186430016 0.00559057035571599 -2.933964171698599e-20)
(1.120863705885348 0.03925088604097867 0)
(0.755086752281855 -0.1238630529834105 -4.541568776122538e-19)
(0.9547957046727387 -0.005872990389551998 0)
(1.068801269305378 0.02224847703609403 0)
(1.06880465577487 0.007305982855825646 0)
(1.07371661366526 0.008920228542666692 -2.830047188061532e-20)
(1.092623743763479 0.0246643208772061 1.10237713499627e-19)
(1.151052861861116 0.003646251223763601 2.159770105324801e-19)
(1.096013205121747 -0.002265760363262567 0)
(1.015470760970048 -0.009081125349914253 0)
(1.133534745166367 -0.09360762060627177 -1.624745185848882e-19)
(1.044095291282263 -0.01159472671864964 -8.114294931100302e-20)
(1.058127265037849 0.0266212439573912 -2.744517498145383e-20)
(1.231628912728736 -0.1122577642737082 -5.594099299835801e-20)
(1.06756740859769 0.01207329021695939 -4.177174705559193e-20)
(1.258457634618013 0.01740219319363928 0)
(0.9964366997823436 -0.01915579201982505 2.164356746764454e-21)
(1.04470784305783 -0.001868479872385374 0)
(1.087618513102947 -0.002066981850347791 0)
(0.9994743654439616 0.007048211024857814 -1.840589452107195e-20)
(1.250383583032511 0.03420750673500445 -2.348247178462483e-19)
(1.06352020746845 0.01808547566375003 6.025907206936175e-20)
(0.9921386584475008 0.01014364039788922 0)
(1.019203342337098 -0.006749767297242318 2.41464772145136e-20)
(1.107571191107537 -0.0002802223038584424 -1.182924439903583e-19)
(1.061095291392394 0.03105550451692434 0)
(-0.0883047963584197 0.00999258686973873 7.520572486154057e-20)
(1.155178738188648 -0.05179339282609852 -1.890393916452422e-19)
(1.007009199425305 -0.006206786370608799 -2.652050006718974e-20)
(1.186600115683602 0.06986072230014123 -1.227315688953602e-19)
(0.9978033833274657 -0.00929015177886823 3.053425711400953e-20)
(1.084331542168498 -0.005481244409879173 0)
(1.248700913037562 0.09780317563289222 0)
(0.6960796672503047 0.003187148614820276 -7.452025436995119e-20)
(0.9888893957642642 -0.01349327640731875 -3.181482105468302e-20)
(1.461006468339106 -0.01852138438507198 4.455938265490988e-19)
(1.060471160983585 0.007609237535279357 -6.674569338992062e-20)
(1.368904272521135 0.09613991401120878 2.883679606026721e-19)
(1.054784074875272 0.006883077374185214 -1.935164799714605e-22)
(1.081124106520787 -0.01385082616095168 -3.51062553351307e-22)
(1.165251570943118 -0.2364797185858297 0)
(1.021719898637357 -0.0148442771359203 0)
(1.016954916141351 0.01786431668870576 -3.076197376691516e-20)
(1.385326627354499 0.3484604953555171 4.176285275964918e-19)
(1.097266185235329 -0.04245963586527877 9.457423964874866e-20)
(1.045428462132374 0.2093015615480298 2.499832975484427e-19)
(1.124997316124648 -0.06016808493274774 1.160322827007206e-19)
(0.9219420452401423 0.005135266708596403 0)
(0.9753461539102697 0.01850770826309923 0)
(1.004098236045812 -0.04887330124370715 2.861889544004404e-21)
(1.009881433108861 -0.01324386503246833 7.667323171043675e-21)
(1.029843395029159 0.026694725958107 1.381185815426228e-20)
(1.530307989084127 0.03549978589918889 3.250554800278711e-19)
(1.288759664729551 0.07126719701902941 5.541404783575093e-19)
(1.072301945825987 0.003111023320671365 -9.072673826092068e-20)
(1.197398902989304 -0.09219377336075071 0)
(1.03371587721756 0.001932942939159027 1.32474169600404e-19)
(1.165245618746593 0.02238867234829302 -3.193133541041463e-19)
(1.001444653337075 0.03236641750180595 0)
(0.9996259268570825 0.002033616182561696 0)
(1.044467456767482 7.319834698905164e-05 7.831410884180128e-20)
(1.214356876897878 0.1117255192376769 4.143900919754155e-19)
(1.011088470062878 0.006991821024937661 0)
(1.092228664617137 -0.06857201423297615 -1.054415272827044e-19)
(1.150925401433797 0.03797360154147102 0)
(1.214905493358686 0.09602595050947245 -1.946858188084623e-19)
(1.108183558784675 -0.02879816163458749 -7.729950849553992e-20)
(1.027213362855628 0.01182848669598936 0)
(1.085005413890244 -0.004607011487729931 0)
(1.018869753865264 0.02618137342926908 8.023142562786988e-20)
(1.07164413930058 0.05590104140911065 -9.599684934488369e-21)
(1.103828560571356 -0.004127950948438439 6.310279852634766e-20)
(1.111144958648385 -0.09324346572061983 1.497803249986852e-19)
(0.9636999591378269 0.004835189772818483 0)
(1.065978817049679 0.03113423666956142 3.786153701912596e-20)
(1.169173486981613 -0.07647885591463149 2.310357484889744e-19)
(1.051161547619703 0.04656908876573357 -2.892182249471422e-20)
(1.02263924930529 0.06739844385954559 3.714729896127875e-20)
(1.090219702934357 0.02601905830997439 0)
(1.017511792252304 0.01674798684077569 0)
(1.029002215893623 0.009389841282664412 7.869581300826424e-20)
(0.948627138712032 -0.03342450765280869 0)
(1.052723621599409 -0.005556050927874044 -7.700745012208635e-21)
(1.34302195856326 0.05832600880590095 -1.569538233313277e-19)
(1.079900575891949 -0.01312236276690435 2.636755045997324e-20)
(0.7439433647425282 -0.001724957688031736 0)
(0.5880291386978497 0.1918821732845083 -1.033812698707242e-19)
(0.7062087882222955 -0.002512148735960085 0)
(0.6987699561691801 0.01462377990188579 0)
(1.077637825229962 0.003675682585275485 -6.666120389139208e-22)
(0.9906489614541909 0.01451868508670724 0)
(1.278171779122638 0.1225801832109834 2.504764748393644e-19)
(1.012320207207685 -0.02781265331970724 -7.706114977502557e-21)
(1.046125284572889 0.01944507184772526 1.723153508243149e-21)
(1.058701115840682 -0.01173943149130776 0)
(1.126655494381175 -0.009108973054394454 -5.029753939518121e-20)
(1.270421016464649 0.1379895493938664 -2.293569334870576e-19)
(1.089355250743798 -0.01111177284313716 -8.593407341129327e-20)
(1.070168803448098 0.0268409386960167 -1.092831292393148e-19)
(1.040789864363795 0.04675484747467852 7.077675261858359e-20)
(1.022618063118998 -0.003762302347353518 -3.46638190177292e-20)
(1.06085005114693 0.0235610267408643 5.931479042144586e-21)
(1.133257610213499 0.0009168666701469125 1.047231691515498e-20)
(1.039141905185045 -0.01557838731268384 -4.818817754250738e-22)
(1.087400151798848 0.03472089660393225 0)
(1.028027493818757 0.01367866025363071 0)
(0.7678853511449839 -0.06808893535142359 -1.806892854996259e-19)
(1.030208641208707 -0.001619114094819907 -6.777593454168603e-20)
(1.129419488520677 -0.005509533632407769 -1.257797198177545e-20)
(0.7034169762883656 0.006575097683730125 7.278636532382426e-20)
(1.174692391670475 0.0201591023121335 -1.935385196550291e-19)
(1.135933517732185 0.007509947647424968 5.031887205326837e-21)
(1.128972324984313 -0.01001154108561517 3.435355147873089e-20)
(1.000936415650496 -0.00293925783959279 -7.272110363949704e-20)
(1.103165420295533 -0.06426165288101834 0)
(0.9880152902363408 0.0047395069249155 0)
(1.057833701348489 0.007054737788595286 0)
(1.005382644671078 0.1879420743368953 -2.440106163582461e-19)
(0.7791684955011031 0.01242196728993562 0)
(0.8569210647748343 0.1005938122450248 -8.378519899579501e-20)
(0.0783700900994483 0.03612810681576414 -2.982272942169803e-19)
(1.172017117662164 -0.02993149768929139 -2.251733116166318e-20)
(0.671316248449054 -0.007301395935814334 2.444637163523964e-20)
(1.168973852602999 -0.09997689027576191 6.87590671307e-20)
(1.123142768190048 -0.003855414847642066 -5.726473696245365e-21)
(1.154574466038518 -0.04795231736785852 2.188123740814622e-20)
(0.1002036651669166 -0.2211711726189055 0)
(0.2386301364801404 0.07692068246026451 0)
(1.260640431322476 0.1107149379943513 1.9095128520035e-19)
(1.021094103754744 0.01978948546851945 0)
(0.7378425029121701 -0.006254973768000893 0)
(1.075318968566579 -0.01157339104094256 2.727147342320606e-20)
(0.9747560326796937 0.002825325761466349 0)
(1.297455394321216 0.1275533942580509 -1.558504983126931e-19)
(1.057420386322055 0.01106884205989483 0)
(0.9937009602206245 -0.006970764201309616 0)
(1.065017668713119 0.008338043535678822 0)
(1.006186766095507 0.02084489567813487 1.934437632131807e-20)
(0.9383316385023659 0.01608305800788023 1.154908486405109e-20)
(1.177417585744657 -0.2000568327891039 0)
(1.0051979174489 -0.005179889087207998 7.930895663625486e-20)
(1.059135783323532 0.006419825436073955 0)
(0.7746640237889953 -0.00327740407208422 0)
(1.218217839550144 0.0284786861464091 1.65231943374593e-20)
(0.7049435623397738 0.001356623730647874 0)
(1.436109091614614 0.08677047074215614 -5.226035878068563e-20)
(0.9952470135346929 -0.006081248678166721 1.701124080773437e-20)
(1.273128415028832 -0.001783565343321562 -2.957938159672278e-19)
(1.059505336971885 0.008999173244119439 1.36519926870422e-19)
(1.000911861322931 -0.01356056670669481 0)
(1.212416239357987 -0.1406192655835393 2.04803312524293e-19)
(0.7331899693207945 0.01378672232932673 0)
(1.098530753088961 -0.004990956704247278 0)
(1.154045011864403 0.06943390229549781 1.965199571324286e-20)
(1.006870067874704 -0.006464897392222776 -3.036099275816237e-20)
(1.121319446271369 0.0531848918756616 -1.74932557790209e-19)
(0.09941244201552467 -0.08966172368578548 0)
(1.07225956131352 0.03921175509304109 0)
(0.6617832204389819 -0.002905877083498793 -5.883074369008407e-22)
(1.012158293979342 -0.01940946609983932 9.443371940830265e-20)
(1.061304354026144 0.0008174926730074557 0)
(1.074898310445245 -0.1295317142495898 3.72328040195082e-19)
(1.002834555768791 -0.00617677380180085 -3.382037366524437e-21)
(1.003215458073288 -0.004938360201012784 7.327412229405713e-22)
(1.093935690291811 -0.009291770985565414 0)
(1.020678977401884 0.02054072745419819 -6.426928640360647e-20)
(1.106541061262454 -0.001566760043570486 6.54001584400331e-22)
(1.074609398143788 -0.01120981102300035 6.636391449021287e-20)
(1.085741736572337 0.02223638547103261 0)
(1.330288562584975 0.1602904260446893 0)
(1.002023490167305 0.0002695592673986591 4.414804945083106e-20)
(1.318980747156566 -0.1275302781649246 1.570833911161047e-19)
(0.03221416832430415 -0.1854807340329282 -2.424123051502246e-19)
(1.071201403578097 -0.005402570375367391 0)
(1.113627690029345 -0.004664020320831554 1.176403166226677e-20)
(0.726757029580443 0.01780667828989461 0)
(1.060529088021121 0.009717283603154176 0)
(0.8667628406646968 0.1639945129129964 4.673047287089964e-19)
(1.278065681164219 0.13279734107569 1.932159206149893e-19)
(0.6543410671994049 -0.003096276102235611 -6.432253836341635e-20)
(1.04011193934848 0.002989755599556845 -6.568713205619991e-21)
(1.054728665034965 -0.0002420330896841045 6.542104445611904e-20)
(1.364445911209022 0.1208713463324889 6.689642701425266e-19)
(1.334335551912962 0.2519299364583953 0)
(1.05985611628365 0.004537740216019461 0)
(1.000687506860309 -0.005473975653240755 1.461852642849636e-20)
(0.9927558431431851 -0.005700469363927745 4.931903592084328e-21)
(1.38217107412118 0.1996383189787738 4.272553258557854e-19)
(0.6818223984144587 0.000467526609646938 9.920813361813194e-20)
(1.00562415148834 -0.002186948908029359 -6.002857893777731e-20)
(1.098236300623937 0.01308891472842211 2.556379815124146e-20)
(0.6694606120994617 0.004968849122982138 0)
(1.066090143016967 -0.01201417265325017 0)
(1.017262351787424 0.1522308703984747 -1.362629316372752e-19)
(1.092182258928704 -0.006596867776511447 -2.524873331842801e-20)
(0.9820580753203405 7.779514329355595e-05 3.294602328078977e-20)
(0.9912113689568645 0.006027681340702901 0)
(0.6382067522205009 -0.001070882183140768 0)
(0.9767261240481878 -0.00118543584036581 0)
(0.6421297721183395 -0.001452302178771487 2.647637787985976e-21)
(1.089735805320552 -0.05536802297919934 1.200606869266432e-19)
(1.112238040882203 -0.003520395060091358 1.166696430888004e-21)
(0.9579067673628319 -0.0008723135635944415 3.890502156618847e-20)
(1.016766287797976 0.01002289901915771 1.728967841297329e-20)
(1.067076542974162 0.002253216551614696 -2.549555748612408e-21)
(0.6347126713014078 0.008877121801422607 -3.625340133614703e-20)
(1.005394248374583 0.00843785438934643 -7.899865395563451e-22)
(1.036957892231787 0.006507633120127559 5.419195048926557e-21)
(0.9860547681261524 -0.01001746152072565 0)
(0.6099484060278297 -0.0004666533125646252 0)
(1.068813184078865 0.02251553977420738 0)
(1.016874305628915 -0.01658732325022727 1.03461542547734e-20)
(1.023815687143626 -0.01003929221220815 0)
(0.9920629503419239 0.01346491469007762 -9.884412962634259e-21)
(1.00944531275692 0.0009840780808108133 0)
(1.131580077476105 0.002576960200714007 -1.155030896910235e-20)
(0.03634012846389932 -0.1438915936704594 -3.82134646701123e-20)
(1.035140905743049 -0.01856002503335004 -5.896474875709745e-22)
(1.041101140700051 0.004761261369509821 0)
(1.081211284127278 0.06905032367605284 8.462292308902038e-20)
(0.9673582143496597 -0.002230104868170437 3.108439142673138e-20)
(1.020248401038068 0.01667543335410014 -2.307928134696928e-20)
(1.002587055149986 -0.002441863887747333 2.44974368732247e-20)
(1.03926302376679 -0.007806571917516805 0)
(0.6408809408617036 -0.004055175940065049 0)
(1.025837142877964 0.02453666611053629 -7.545544709899799e-20)
(1.087295887595185 -0.005975096335627156 4.964902512033068e-20)
(1.015631079813165 0.006860998018076504 0)
(0.9792539998238128 -0.001505935749523074 -1.955366516851453e-21)
(0.8606538138330966 0.0104425307185018 -9.141778130117143e-21)
(1.014020125830412 0.002565698465482151 -9.739801727560645e-21)
(1.022852198672649 0.005673126798766834 1.879904710745566e-20)
(0.984633781545126 0.004579582904786114 0)
(1.004836314010322 0.01206742549708048 3.369192648045157e-20)
(1.110728244746764 0.000580950683036601 0)
(0.928902482247644 0.007540946749506995 -3.086495753038388e-20)
(0.9556556679110422 -0.000368975548109831 0)
(0.9087959966959041 0.2060393360269002 5.047624948034675e-20)
(1.010873464683755 0.06696032652843888 0)
(0.992126035481286 0.004912515008881711 -2.265742693134078e-20)
(1.059252719393499 -0.05193339316088003 -2.873461884089436e-20)
(0.9929592853101848 0.0009067361533868672 3.290530027418133e-20)
(1.009212851057665 0.007142732795050172 0)
(0.9787472387923308 0.0007993165621504129 -3.052990416448731e-20)
(1.17347890776562 0.1050130440824852 -3.431628241973156e-19)
(1.069770710592707 -0.2653105633752282 0)
(0.9932712804464976 0.000479425541860895 -2.262426181753116e-20)
(0.9740840086455346 0.0009462182607904146 4.91490008290787e-21)
(0.9631952087930827 0.002947170295159447 9.927097936557015e-22)
(0.7459314980344101 -0.001045062668044719 0)
(1.124241082163827 -0.07622052612037027 0)
(1.002722662852553 0.002532281312471941 -2.267349106651172e-20)
(0.9090955309649237 0.01316239960484228 -9.994522686659145e-21)
(0.8469858023316823 0.003204753806896703 2.482426983379728e-21)
(1.014274741076482 -0.008314051029168365 0)
(0.9575210311618383 0.01265757814158373 1.409067040527904e-20)
(1.005548465744469 -0.000235025215657035 -2.275235770522678e-20)
(1.023639253945903 -0.003550923095734649 -2.53216059651543e-20)
(1.115091461858274 -0.00135480580387705 -4.933547341150008e-21)
(1.119246863665493 -0.00120533556809432 0)
(1.012521261616274 -0.008481385428214229 0)
(1.019889792492806 -0.0003375267963272306 0)
(0.9415652980504832 0.0003228043920725945 -1.989510898603129e-20)
(1.0178508978568 0.01360885985540751 5.459067369861904e-20)
(1.086200513041601 -0.006053109391066016 -2.295717719398151e-20)
(1.040429509723171 -0.008862521854517431 0)
(1.107858893776093 -0.002996238715089899 1.853335741527547e-21)
(0.9942723878677433 0.002068011099022673 -2.234954268356903e-20)
(0.9842343253176408 0.002188774646653939 0)
(1.010554826623493 0.003187625740465988 4.663965528691549e-20)
(1.366556645492842 -0.3146240062507243 -1.128052271721352e-18)
(1.121806359430972 -0.04316319078734249 -1.092684296397771e-19)
(0.9659013037394831 0.005497370226632082 4.445161690017806e-20)
(0.7651096694374007 0.001312171736741544 -3.219384288215652e-20)
(1.223699552629901 0.05263400415399799 0)
(1.222931929227817 -0.1266160619929738 -1.470297268897804e-19)
(1.081662312456811 -0.002337947852640966 0)
(1.008093865910418 0.0007811906208104918 2.287023203810906e-20)
(-0.1899657583869424 -0.1384323589096859 0)
(0.9939666954018216 -0.004655152438448062 0)
(1.012399756368156 -0.02310704530756025 4.29708065488402e-20)
(0.7064158408257762 -0.0194559524998236 0)
(1.096789287214089 -0.01478377034818905 2.176988233196583e-21)
(1.041716071888306 -0.006068051705631951 1.758764236173026e-20)
(0.6332199033329345 0.004118233060911644 0)
(1.44915089714611 -0.1234776187698545 0)
(0.9861290287478119 0.001472902209982839 -1.074248439168982e-20)
(1.069787760964378 -0.01508470249474998 0)
(1.037789615192132 0.0004104007910114147 2.089427880896291e-20)
(1.08116223635732 0.004681211695763497 0)
(1.011889343116917 3.823625807343022e-05 -1.096060224086441e-21)
(1.005786513477868 0.003141751533800835 0)
(1.008867052212753 -0.00173672543649672 -7.850837263353583e-22)
(1.004374377141968 -0.02076685382364907 0)
(1.036207478769337 -0.00403082949636578 1.707015108944897e-20)
(-0.176287899377564 0.02913874857503721 2.707055723375056e-19)
(0.7973175374361635 0.02084408353076394 5.4297529865181e-20)
(1.005427825137079 0.001832196888065678 0)
(1.127257620596058 0.01148313446837409 -1.135099639200249e-20)
(1.117699787690527 0.00842789090965467 8.568397199083514e-21)
(1.054559183609792 -0.01281600859012757 -1.300525107603134e-19)
(0.9987785560013365 0.01037220871634663 6.060767454676133e-22)
(1.079472305396014 -0.0001133071739324982 0)
(1.188228027402743 0.05336996781630138 0)
(0.8353148859883764 -0.07645025839303307 4.597300164589478e-19)
(1.091362106331853 0.00110064620601914 0)
(1.033772495729654 0.007457551398768242 -7.538635887332204e-21)
(1.042422869310744 0.005222906379379617 5.872438579319229e-21)
(1.055795131686539 -0.05962033143087223 -7.574050362178396e-21)
(1.139289642681264 -0.0009376860120378647 1.690207457118034e-19)
(1.086383309416342 -0.003789913495687332 0)
(0.9941965744314607 0.001610484811523578 0)
(0.9968141672597967 -0.02672257786043608 -2.389462490971792e-21)
(0.9900530211046242 0.003382212335175909 0)
(1.031495954358269 -0.03772510385842767 6.431832744068384e-20)
(1.290679500685692 -0.0941953728869773 0)
(1.041285318023526 0.0006360890461497278 -4.378945788403273e-21)
(0.9861749745154027 0.01701005057996527 -8.735483982573004e-20)
(1.03272258513582 0.04211398947864571 -2.374467844894843e-21)
(-0.07610822451160626 0.1595704299176968 -1.699990857299727e-19)
(-0.07092774633265285 -0.2996183655756445 -1.316217915267625e-19)
(0.8967848109463379 0.1357571018368102 0)
(0.2857665630928251 -0.03648772206518379 -3.249281377170978e-19)
(1.005165094874964 0.001120712685737559 -1.226958227906582e-20)
(1.063840730106637 0.002719356600553742 -2.090830687010829e-20)
(0.9912921775141759 -0.02021169052824356 3.055143170609995e-20)
(1.023690527559572 -0.03183643093454606 2.639063290226663e-21)
(1.010172274970751 -0.03173079039647003 -6.611121807304834e-20)
(0.9888776512112021 0.004820500595453992 -3.476504973771534e-20)
(0.9930838355769491 0.005221379869438754 0)
(1.025015926664747 -0.002376516517950927 -3.481304386797292e-21)
(1.936742026898225 -0.1561880587702784 1.073742130114889e-18)
(1.043169391809835 -0.0009619822130295402 0)
(0.9958777047149374 0.008565133109076762 1.528644224683896e-20)
(1.0034975740132 -0.0003930739820765834 4.019598097203891e-20)
(1.16075119289217 0.1530288559210145 0)
(0.9998562058314788 -0.007035063664139213 8.312137980439137e-21)
(0.9506301755276125 0.001853282037929169 0)
(1.037837470700059 0.04175727322748016 0)
(1.310060121945915 0.158198193422331 2.333322128724802e-19)
(1.081455242011347 -4.866345325379537e-05 2.313116048026949e-20)
(1.016828882483466 0.02969427964480329 4.562209991415275e-20)
(1.084806033575233 -7.882860889516064e-05 -2.229352837953812e-20)
(1.050338722510074 -0.01378820530723431 -8.983771344704266e-21)
(-0.3859997191076446 -0.05231397869264356 0)
(0.9997171538658691 0.01354430676528612 0)
(0.1135344901315309 0.05397520905637806 -9.174876345230148e-20)
(1.006907117132525 0.02051865413749504 -4.091986672061653e-20)
(1.001971169655615 -0.02290390581601326 0)
(1.001502241668352 0.005442480870879129 -4.928390516756712e-21)
(1.081966562829919 -0.04249434771575784 0)
(0.9940268673399881 -0.01730950862757926 -7.974662291191879e-21)
(1.101471819927696 -0.05847997050813206 0)
(1.445494989827811 0.1739430305902293 0)
(1.054854079591058 -0.01218307198996121 0)
(0.9905896301371161 -0.02472631147850113 -4.103418845481319e-20)
(1.000339392155258 -0.04101713407854182 -3.375650202448584e-21)
(1.014136436735822 -0.02045901714457269 -1.957426533642516e-20)
(0.9967129396009949 0.01659369406060311 -5.549024183583836e-20)
(0.9959390436170636 0.01030833441668867 -1.489771932070469e-20)
(0.9949043479548639 -0.02863657762195387 0)
(1.002411940154254 0.0236693391994075 1.922409705687894e-20)
(1.055210433474897 -0.03502141163633402 0)
(1.11140005669821 -0.03585187219598126 2.591367872344485e-19)
(0.9956678507036144 0.01668944288688306 4.574353279969626e-20)
(0.6150417999177259 -0.008689267786317945 0)
(1.144092817641049 0.1598127476279536 -1.466745838478728e-21)
(0.8456352185835689 -0.08520132721113204 0)
(1.137808334041948 0.07297967944283967 -2.729118592997444e-19)
(1.316980469760062 -0.3895710123953429 1.294295091706441e-19)
(1.06873426495453 0.0639628598375914 -1.246849888124176e-20)
(1.011435101939116 -0.03201116295570326 0)
(0.9561293226256189 -0.2164103991089993 0)
(0.5292191219444597 0.1656455007696746 0)
(1.016527054430936 0.01034144039323962 1.245132939988649e-21)
(0.6944028107057522 -0.02626829248418155 0)
(0.9995477076958263 0.01679292064792791 3.523183234055653e-20)
(1.027259862391332 -0.004092832017300241 -2.752920159684176e-20)
(1.078962078738002 -0.008075871310300558 2.719398926398543e-21)
(1.050932532367597 -0.02676374696899167 2.886641066558769e-20)
(1.042557282395088 0.01181032640377264 0)
(1.063140172243813 0.02168433851661369 -8.828107061220042e-21)
(1.049604910028897 0.0361789508445572 -1.803881119205157e-20)
(0.983519311622718 -0.02279071877650696 0)
(0.6249009413982981 0.00509799622736597 9.169899985671289e-20)
(0.8941494074752533 -0.005921452762189847 -8.845412913074672e-20)
(0.9093790970588289 0.0052664681550947 1.45081730728488e-20)
(0.6296072132815982 -0.006434669930535139 1.407271697574338e-20)
(0.9806530124141407 0.0009558118581096197 2.489192982942828e-20)
(1.004427376758905 -0.01746318439827433 -3.484377394382975e-20)
(0.9838749079980519 -0.0380252280817384 -3.110399745367872e-20)
(1.085594975724063 0.001656811637035627 0)
(1.020043283067883 0.005092759334415053 1.014131945102627e-20)
(1.132213196663147 0.04879983354508521 1.319192038982807e-19)
(1.031147607169264 0.04101037111486042 0)
(1.022653602145775 0.002553033202398771 0)
(1.585608519187241 -0.1678655656008252 4.398752903522116e-19)
(1.05934370944591 -0.04697881502630654 0)
(1.017726646644025 0.009952400451608787 -3.753005784534348e-20)
(1.082625470353809 0.006373320844663662 0)
(0.488524223827947 -0.009201517726336992 0)
(0.01227495474791908 0.0220294857772403 0)
(0.9913526376225084 -0.02411972189131479 1.232138766264952e-20)
(1.302360174913639 -0.09609942089864197 3.726460471847598e-19)
(1.032505192472991 0.03483256156609508 0)
(1.022301084024145 0.003541278668357557 -2.218132736457739e-20)
(0.945536306708165 -0.1602022906106728 -2.219307184721635e-21)
(1.256899944676005 0.07733178683327621 0)
(0.5967687366087285 0.7282147195432213 0)
(1.312554142236113 0.1452064233679814 1.071240549432093e-19)
(1.678793896778849 -0.02575432082856924 0)
(1.051739882687636 0.120489756698268 0)
(0.7128114399389511 -0.01899496947327416 3.96890074862553e-21)
(1.047541098426425 0.04398414471270948 0)
(0.7595578289815763 0.1260842012397045 1.324346298092293e-19)
(0.9967781510360862 -0.01646722283947284 3.576424468914792e-19)
(1.038489078860426 -0.04169384344036661 2.778775701743708e-20)
(-0.3817475060215454 -0.02963669964410493 0)
(1.072313401181281 -0.01639018959971726 0)
(1.084749600018324 -0.00465295855429505 0)
(0.6493232603634624 -0.5055609750755223 -2.466224382210435e-19)
(0.9894379652079022 -0.001078229185874705 0)
(1.092482498278858 -0.02143972117258957 5.40372345574162e-22)
(1.187051120236366 0.1210116071000675 -2.009375938993367e-19)
(1.096785331544538 -0.0491491404113931 0)
(1.006222339345396 -0.02105954337177168 0)
(0.7747535219887106 -0.1812603045781112 -1.641312616142876e-19)
(0.8793291560135827 -0.1321386483609057 1.485738231433414e-19)
(1.032189169163808 0.0147370392459136 -2.157316769120683e-20)
(1.023121612353154 -0.008940000053344421 -4.485285293679957e-20)
(0.8797028285067278 0.01064402348048133 3.10525064378899e-22)
(1.506762204200051 -0.1944330146738754 0)
(1.308806919306379 0.1158970141146666 2.984225533281445e-20)
(1.242045128397151 -0.07415539936260629 -3.286559211058538e-21)
(1.095702564047452 -0.01852682068087653 -3.943620349795246e-20)
(1.034834115123037 -0.01441690972831823 2.775276098315457e-20)
(1.092835019438123 -0.03906179009283007 9.265871503419467e-20)
(1.031779800247205 0.02060045775563727 0)
(1.048995617663908 -0.03761580977613195 0)
(1.115948740378666 -0.008943063407594282 0)
(1.096198983284193 -0.04160052864912279 0)
(0.9982403173721549 0.01109893837139099 0)
(1.150267760562524 0.08201803333201475 9.541258072321205e-20)
(1.338005788087382 -0.1537402146620205 0)
(1.036393648471484 -0.02708973311309651 -2.413093615833349e-22)
(1.047926671849785 0.05169968874120033 0)
(1.010266273728536 0.01436637031866742 -3.89423107549966e-20)
(1.033822019162062 -0.00734100511333657 9.190757346532722e-21)
(1.088930620242492 0.01347233355752074 -3.231622463915776e-20)
(1.085116760574532 -0.02794905821273339 0)
(1.070550239279897 0.005745623703062162 0)
(1.105767949789969 0.09365370587676343 -1.412908992427142e-18)
(0.935559348252004 -0.1504025159549292 -7.077448652765165e-20)
(1.171153979464643 0.1171622242665775 1.146011033607317e-19)
(-0.4700732809135098 -0.01614577846089609 -2.897358445194468e-19)
(1.017833671926097 0.02905395987929022 -8.755422351556623e-20)
(1.005537366858321 0.004651398448940501 0)
(-0.2572781703234954 -0.001561420951326043 3.553646631052441e-19)
(-0.03545839805492731 0.2897473956806113 7.63287903365544e-21)
(0.9952130783289801 -0.006259566052859637 9.507979827904708e-20)
(0.1851101289066676 -0.04455505480469571 1.317426098825291e-19)
(1.084481299827529 0.08588494114821522 1.419569216498111e-20)
(0.09384070197751979 -0.1116315004537901 -5.505118187687736e-20)
(1.108415600520627 0.002992819861186702 0)
(1.100423325456239 0.2535606512380649 0)
(1.021168531606414 0.02143934409214047 -1.713233814443582e-20)
(1.064452055222323 0.05150224645761414 0)
(1.026419226094943 0.02368482436731394 -8.664699370612007e-21)
(1.264237355482054 -0.5494980611078131 8.045410816435568e-19)
(-0.1167908816545544 -0.2363206525314359 2.138238179576195e-19)
(1.301033242048825 0.1148848349546239 -6.253419890201793e-19)
(1.121876774217557 -0.002570534405210145 0)
(1.121327242901439 0.1034933238164853 0)
(0.524722857378331 0.07871060173940227 2.458715681275936e-19)
(1.023732614034465 -0.02025347857184966 9.418378526977292e-20)
(1.006573139605151 -0.02336998450680626 0)
(1.210403525855476 0.2702326917739054 -9.594159998111063e-20)
(1.262875965037642 0.1308377898004998 -1.549125899467431e-19)
(1.026587731932063 0.003329379326698329 1.554354260915134e-20)
(1.300311884387337 -0.08503645445352856 -4.993314649724275e-19)
(0.3002720577448871 -0.01907018939192575 2.821462938881618e-19)
(0.8287287097884792 -0.1473449112806999 6.790584385391189e-19)
(1.039279431718474 0.05059968200742806 1.081043197966669e-19)
(1.038236926815655 0.003282091001348004 1.76314053130024e-21)
(1.001119746019666 0.01919578052779858 2.929512607010769e-20)