/*--------------------------------*- C++ -*----------------------------------*\
| =========                 |                                                 |
| \\      /  F ield         | OpenFOAM: The Open Source CFD Toolbox           |
|  \\    /   O peration     | Version:  2412                                  |
|   \\  /    A nd           | Website:  www.openfoam.com                      |
|    \\/     M anipulation  |                                                 |
\*---------------------------------------------------------------------------*/
FoamFile
{
    version     2.0;
    format      ascii;
    arch        "LSB;label=32;scalar=64";
    class       volVectorField;
    location    "877";
    object      U;
}
// * * * * * * * * * * * * * * * * * * * * * * * * * * * * * * * * * * * * * //

dimensions      [0 1 -1 0 0 0 0];

internalField   nonuniform List<vector> 
808
(
(0.7562649587560305 -0.017506651525305 0)
(1.031564448686529 -0.0126243260162867 0)
(1.111070004051101 -0.006088800251431557 -1.723706309314617e-20)
(1.085122086901754 0.0125956980050837 0)
(1.363606619147606 0.01364295550419623 -3.841712915101382e-19)
(1.038754687502259 -0.009396315420404018 -7.301032157366199e-20)
(1.014312518465764 -0.02108253107833384 -2.420687262819037e-20)
(1.079216771880156 -0.005366364117364945 9.059235509670378e-21)
(1.254503922207469 -0.02096067304669065 6.286776930794118e-20)
(1.085244193911814 0.009960113166393517 0)
(1.00857240590875 -0.008454036282665276 0)
(1.30593571384684 -0.05402876548664561 -3.489469899197748e-19)
(1.086341924473559 -0.002024099492672446 2.044334775023696e-20)
(0.675210387563966 0.006358086537130879 0)
(1.276693883562098 -0.1161744522284602 0)
(1.081607691368595 -0.0003951720437711415 -3.866966157920913e-20)
(1.224604047406419 -0.1444065852314807 -9.475591377545633e-20)
(1.074049841022862 -0.0002408696492661107 3.207283420805955e-20)
(0.9898491485355481 0.003521243431820845 0)
(1.02646659452259 0.009706929128708989 0)
(1.032725494101732 -0.01178344447868813 0)
(0.9875506028782491 0.04488498864637774 0)
(1.051103925605878 -0.005967951367058764 5.735400034449998e-20)
(1.053717499264908 0.00910978576771449 0)
(0.9330272308738183 0.1978109060763852 4.581251204352749e-19)
(1.163263104476933 -0.0852115486880506 0)
(1.185929762322924 -0.01929552012054339 1.554339557647521e-19)
(1.077329760863795 0.009611192875819227 5.223633223456675e-20)
(1.083624696191862 0.002234536947924124 5.109831314265949e-21)
(1.071744416218373 0.03089096444412866 0)
(1.075265527493285 0.002818774203872864 -1.180937813445838e-20)
(1.033150726930663 0.006830870526023698 -1.900526779099771e-19)
(1.060040181419759 0.01459069293909762 -2.354111020796679e-20)
(1.088872098952891 0.005651192931764699 -2.937567944802449e-20)
(1.12139322887226 0.03864723737484466 0)
(0.7549896832457278 -0.1229734160138146 -4.544685350054064e-19)
(0.9548215445872428 -0.005850083931064678 0)
(1.068764300733574 0.02221697484865462 0)
(1.068799351481406 0.007264382537077412 0)
(1.073765044831229 0.008824621006008899 -2.823071253323476e-20)
(1.092993819841573 0.02433146149979153 1.090897941431959e-19)
(1.151032801846957 0.003051527110131555 2.138065857039877e-19)
(1.095947041492437 -0.002249649180006505 0)
(1.015282392710353 -0.009201905545586433 0)
(1.131863152095227 -0.0928308404455995 -1.622903284606736e-19)
(1.044084934914243 -0.01163324484661677 -8.261172811750177e-20)
(1.058109943768748 0.02663132991997419 -2.697009321567187e-20)
(1.231074590061223 -0.1125300602227715 -5.574816645227679e-20)
(1.067507898342142 0.01202966643102651 -4.115881243499122e-20)
(1.258276532138232 0.0162441451538239 0)
(0.9967120088799429 -0.01927753580403854 2.203179715598255e-21)
(1.044743920719408 -0.002011430797727926 0)
(1.087553689568854 -0.002074095139298683 0)
(0.9993493709701393 0.007436812177100694 -1.858860502613922e-20)
(1.250747664667648 0.03351251578829155 -2.371565574930526e-19)
(1.063442232990682 0.01806415499535222 5.937481644860561e-20)
(0.9916274928400415 0.0109281046274896 0)
(1.017469397828683 -0.006301151026438519 2.473750081343965e-20)
(1.107626951072251 -0.0007090044896564444 -1.169284723029282e-19)
(1.0610864945813 0.03113706921469494 0)
(-0.08992483037021153 0.004210649335374268 7.582031594051819e-20)
(1.154865603451343 -0.05212102127157348 -1.868992433698634e-19)
(1.006163719282933 -0.00571229980721033 -2.716710844545142e-20)
(1.187683288576347 0.06853395918015877 -1.217705972578199e-19)
(0.9974273312972921 -0.009440857250201837 3.090400799596813e-20)
(1.084296954707431 -0.005462009885164566 0)
(1.249388700479381 0.09545801724793375 0)
(0.6960866399512551 0.003174422323519401 -7.431050528773885e-20)
(0.9884871911061052 -0.01401426169063146 -3.21985220553403e-20)
(1.459746312339066 -0.01941915785973151 4.424625668508901e-19)
(1.060491852902461 0.007612177925548884 -6.586737807620281e-20)
(1.367952257226299 0.09437556684408444 2.859070027514467e-19)
(1.054829157878275 0.006851766221383841 -1.96016650239479e-22)
(1.081027973483797 -0.01389700489999077 -2.767930419184822e-22)
(1.164587242976981 -0.236225195233588 0)
(1.02186546237231 -0.01502596489924993 0)
(1.017043582942359 0.01800129843335805 -3.030250261912114e-20)
(1.3864665306554 0.3484880743128175 4.203652475701529e-19)
(1.097377031564395 -0.0424945039301059 9.547755710724275e-20)
(1.045856505042105 0.2097786621892538 2.45276765476588e-19)
(1.123990591277396 -0.06033697331948435 1.170829279347703e-19)
(0.9219381904483306 0.005152591942247702 0)
(0.975328602538572 0.01851205277980639 0)
(1.004053745660756 -0.04870941008279413 3.001730852014225e-21)
(1.009822123514074 -0.01348553521283681 7.786503804278862e-21)
(1.030109379571569 0.02685612287104117 1.365355150548135e-20)
(1.528874529552447 0.03441690159573169 3.230562914116598e-19)
(1.289439409974367 0.07062988487726507 5.593504397670724e-19)
(1.07235895512125 0.003121364585472506 -8.939379822001714e-20)
(1.195639183194138 -0.09358802050281861 0)
(1.03378373869933 0.001900371373730766 1.30653672122981e-19)
(1.165373327138074 0.02160050552522202 -3.16060000764181e-19)
(1.001470388213676 0.0324428876572587 0)
(0.9996265413662907 0.002021312539180059 0)
(1.044387270265728 3.920638857283177e-05 7.934090241232057e-20)
(1.216799407286757 0.1098890673458565 4.11973347864124e-19)
(1.011116833219185 0.006983635050013335 0)
(1.091217017442903 -0.067962120828923 -1.060925493630022e-19)
(1.151338225388439 0.03716818720567868 0)
(1.216125718550235 0.09383092513361785 -1.931624323820617e-19)
(1.108257781758638 -0.02887586130793301 -7.792092143916731e-20)
(1.02731314591218 0.0119019838009238 0)
(1.085044611182648 -0.00459220009423787 0)
(1.019056043438739 0.02638488048242172 7.920461972371787e-20)
(1.072431704639466 0.05648321171957273 -9.607345989992741e-21)
(1.103787705208655 -0.004150300350647648 6.384555991321321e-20)
(1.109309587771168 -0.09211323695217537 1.493775324226935e-19)
(0.9640890768751478 0.004133326122711624 0)
(1.065949539108841 0.03119235057003364 3.728908792229259e-20)
(1.168764793500392 -0.07673791067301251 2.284206198583415e-19)
(1.051574549231216 0.0471029871670887 -2.868186646429685e-20)
(1.022793588297345 0.06766689335345441 3.676593125111024e-20)
(1.090176923839534 0.02603966287909934 0)
(1.017959718662788 0.01553365846911642 0)
(1.028995509519145 0.009371998182738848 7.847430729799997e-20)
(0.94857691052237 -0.03298003026498427 0)
(1.052762889712205 -0.00548673418357773 -7.539037693632749e-21)
(1.342202848762372 0.05690591020702582 -1.554492111630366e-19)
(1.079788602993521 -0.01312567911169955 2.660785790684885e-20)
(0.7439788949631275 -0.001723836106975411 0)
(0.5933666635726556 0.1943238819241948 -1.102183436131913e-19)
(0.7061854501491185 -0.002495001761132348 0)
(0.6987625190586223 0.01462633426248046 0)
(1.077673046776121 0.003660247875320878 -6.559434312438195e-22)
(0.9906522417182182 0.01449967090276441 0)
(1.278890759756165 0.1222369825272774 2.530189903417375e-19)
(1.012280482330012 -0.02784288263713481 -7.54854556193324e-21)
(1.04562696417764 0.01783796985571874 1.574822657812993e-21)
(1.058682077633148 -0.0119087858022029 0)
(1.126613458594448 -0.009117643361479865 -5.088952184445327e-20)
(1.272206223304504 0.1332549690705458 -2.285014897794872e-19)
(1.08926904332587 -0.01100749582411986 -8.625338626318037e-20)
(1.070559126001508 0.02668294257407876 -1.081397711135044e-19)
(1.040896591955765 0.04677773672843605 7.271637615703471e-20)
(1.0226229291442 -0.003720710299207178 -3.476980790538881e-20)
(1.060857781562809 0.02361770019204291 5.806898658389445e-21)
(1.135895226398346 0.003129693700883338 1.035154545987076e-20)
(1.039039828676585 -0.01498546893360383 -4.804717813267776e-22)
(1.087362322544957 0.0347167698690873 0)
(1.028135492544938 0.01373240096045493 0)
(0.7736718081921105 -0.07429005612434951 -1.811186423248474e-19)
(1.030250705268406 -0.001694188193084863 -6.657959392413594e-20)
(1.130172637893789 -0.003591963842861198 -1.245001450578024e-20)
(0.7034277795514312 0.006566991576690574 7.182868282993308e-20)
(1.174888946631024 0.01961436778731332 -1.956093750984483e-19)
(1.137233779889091 0.006752849390474884 5.02888009131118e-21)
(1.128989679077672 -0.01002683631783143 3.400384501753478e-20)
(1.000934496859424 -0.00294820126440438 -7.000335067884906e-20)
(1.103121098942125 -0.06096358558786663 0)
(0.9892005455724795 0.005323937032160392 0)
(1.057816792939544 0.007035824810549911 0)
(1.005639913949951 0.1884369914450858 -2.399790114076034e-19)
(0.7791840301007676 0.01243035539003691 0)
(0.8569799202177771 0.1013690888545625 -8.288838691408119e-20)
(0.08545111347919714 0.03447115297261585 -2.97298041485061e-19)
(1.171781951772096 -0.03072756399036589 -2.274675901590159e-20)
(0.6712894620475823 -0.007315982364398075 2.450481616993427e-20)
(1.166646062093465 -0.1000008091360004 6.893036295787873e-20)
(1.124496677603317 -0.001678184099470083 -5.718093831590939e-21)
(1.153974830177189 -0.04865644512175971 2.210413687961984e-20)
(0.09120226780876542 -0.2147813855290731 0)
(0.2374793066134733 0.06972275704098839 0)
(1.261769466386729 0.1078228768543505 1.884144640312579e-19)
(1.021086022602944 0.01980748414642135 0)
(0.737797128644666 -0.006247297291007405 0)
(1.075168637091707 -0.01147051069198333 2.740436707577459e-20)
(0.9747733236166362 0.002853906775853788 0)
(1.298108979550329 0.1234031130109633 -1.523739623267043e-19)
(1.05738477064468 0.01099584087904842 0)
(0.9933710271115468 -0.00694952723036238 0)
(1.065075497482762 0.008330057921501745 0)
(1.006213714467677 0.02087678420716254 2.077757310963166e-20)
(0.9375625100233562 0.0138404034752735 1.21662259560398e-20)
(1.176832369276289 -0.1999015412322164 0)
(1.005147587235773 -0.005184976549870164 8.013723791911212e-20)
(1.059158117495596 0.006383317427637369 0)
(0.7746319959535437 -0.003285497990517251 0)
(1.218327097942156 0.02736279925959857 1.635994156290929e-20)
(0.7049709322098475 0.001366045693496413 0)
(1.434832257756738 0.08510272869028507 -5.162861719230738e-20)
(0.9952031879947246 -0.005638250289033396 1.692348273000379e-20)
(1.273419581861069 -0.002861008437075916 -2.984932822543851e-19)
(1.059569505416609 0.009035795947806676 1.345134977845966e-19)
(1.000911269823204 -0.01354148301988961 0)
(1.210403147588627 -0.1414966676308806 2.053332164353823e-19)
(0.7331827527910857 0.01378533834030433 0)
(1.098466257376605 -0.004939824123077806 0)
(1.155398490825992 0.06851244766232865 1.924220046096928e-20)
(1.006648690796055 -0.006397134155362692 -3.046158013127579e-20)
(1.122224109955585 0.05270080696395884 -1.734833736879569e-19)
(0.1118284081996349 -0.09258449463467132 0)
(1.072814174324762 0.03926412321302119 0)
(0.6617578754257951 -0.002889834688148512 -5.319507594400151e-22)
(1.012136730230206 -0.01947433230451433 9.238146766342094e-20)
(1.061341976123399 0.0008591738957999051 0)
(1.076310636037195 -0.1339076067073726 3.74619382836118e-19)
(1.002780952395786 -0.006153025385017155 -3.325175224975615e-21)
(1.00331514960482 -0.004544637947513555 8.504893149343903e-22)
(1.093965138876864 -0.009248275957887053 0)
(1.020713115622073 0.02044369795191729 -6.554389591082192e-20)
(1.106580303084059 -0.001571354278969864 6.435353819357889e-22)
(1.074618318334226 -0.01102164066983854 6.658114546964345e-20)
(1.085687370285021 0.02219101016056244 0)
(1.328330247635872 0.1575538744270787 0)
(1.002049538495223 0.000398372394829107 4.409143189413718e-20)
(1.318689031953125 -0.1303235386385791 1.590354639432766e-19)
(0.01973013540108133 -0.174137364027893 -2.361953371075292e-19)
(1.071143252699317 -0.005363947949767225 0)
(1.112108875601455 -0.00544291888280602 1.164766591571853e-20)
(0.7267343673066603 0.01779586086529307 0)
(1.059210009734316 0.01105563682050376 0)
(0.8638991009985024 0.1624618006449797 4.625715392919733e-19)
(1.282033075064576 0.1292776462608609 1.924409792589646e-19)
(0.6542910933536018 -0.003098218353339116 -6.502898267498248e-20)
(1.039682667319291 0.004953421169265345 -5.464102421003307e-21)
(1.054754854654631 -0.0002211045997591978 6.48025737823073e-20)
(1.363791100771839 0.118453587424227 6.619947281892677e-19)
(1.335309003177084 0.2518467561776017 0)
(1.05904964160864 0.007203243577968119 0)
(1.00029974874141 -0.004648904026731915 1.4174651398693e-20)
(0.9928159044671123 -0.003439684967325516 3.984083914166151e-21)
(1.383179493214099 0.1993611577735764 4.300734109226035e-19)
(0.6818529919564011 0.0004677275600552701 9.958918399661397e-20)
(1.005661993368596 -0.002204529551488169 -6.019567750798009e-20)
(1.098221181448167 0.01312525347455941 2.560909025898625e-20)
(0.6694559725374435 0.004956254899782058 0)
(1.066088208484625 -0.01201931535457991 0)
(1.017095200932111 0.1474683586323214 -1.413824963800578e-19)
(1.091220510014084 -0.003023547290819134 -2.563169722870125e-20)
(0.9819926097588155 9.572075010302722e-05 3.305157733478661e-20)
(0.9912116883028695 0.0060150372565194 0)
(0.638158132393992 -0.001076162188908615 0)
(0.9767034479518943 -0.00121375786142541 0)
(0.6420905450698861 -0.001431091724727841 2.6346555528991e-21)
(1.088813850849101 -0.05520797369827567 1.208193043800438e-19)
(1.111057619688756 -0.004860586027945944 1.146856006430323e-21)
(0.9579325679593845 -0.0008586067846623525 3.881412768152505e-20)
(1.017088576500471 0.01013529219205469 1.740468831981955e-20)
(1.066627365055237 0.004474951925656664 -2.516799947834472e-21)
(0.6347428617341334 0.008875516188921255 -3.616871064316045e-20)
(1.005939098325232 0.009250829423608957 -7.058178360865881e-22)
(1.037550341142648 0.006742650492782724 5.419886997136975e-21)
(0.9856674888636724 -0.007550414423633907 0)
(0.609955243661601 -0.0004525890095042636 0)
(1.068918572885361 0.0224877298114741 0)
(1.01658946312987 -0.01682671609093455 1.030805405529143e-20)
(1.023586901598146 -0.008929017773145073 0)
(0.992622169641178 0.01338876272251956 -9.910302516493794e-21)
(1.009063477091525 0.001930699530833453 0)
(1.133483959692575 0.003436300759393882 -1.172142469109835e-20)
(0.03371648396608044 -0.1429744635570859 -3.806435695129818e-20)
(1.034614468969574 -0.01853854974898748 -5.777963080821539e-22)
(1.041714792837737 0.005843412913796778 0)
(1.082333099926611 0.07016168457529272 8.449716671586729e-20)
(0.9671262785600983 -0.001855685463489947 3.107821728591821e-20)
(1.020122937034322 0.01667982949008267 -2.264978446762979e-20)
(1.00398786141386 -0.002877442384787039 2.422504935776058e-20)
(1.038939339029726 -0.008100509528322657 0)
(0.64089767678934 -0.004075898255703032 0)
(1.02589401601092 0.02452438603423435 -7.770611087432141e-20)
(1.088097552494616 -0.004456515104404188 5.044986299069269e-20)
(1.014190537051524 0.00765602649183065 0)
(0.9798496835337734 -0.0008441459392567603 -1.948598765738785e-21)
(0.8564958581379734 0.008557492916564919 -9.759887165400892e-21)
(1.014000695570804 0.002607786036018677 -9.57035088227578e-21)
(1.022197173608217 0.004431529218256881 1.883100369152913e-20)
(0.9840942220515648 0.003277576262789622 0)
(1.006350420379819 0.01183108638064028 3.271850077851052e-20)
(1.111158231172594 0.0001942641813605536 0)
(0.931733873780288 0.01048746630368698 -3.10041159335694e-20)
(0.9541123817309798 -0.001229250878450367 0)
(0.9045870315594704 0.2036866693390403 4.987619342863062e-20)
(1.011003193478449 0.06718579688028986 0)
(0.9914724271813711 0.005005688533738128 -2.271656548898877e-20)
(1.059126398625414 -0.05046850037869725 -2.849262841113816e-20)
(0.993631161802958 0.0007079757818829593 3.254757242790383e-20)
(1.007823006584825 0.007064792249040588 0)
(0.9794896251784102 0.0008799271992770964 -3.015900881434012e-20)
(1.176188946566878 0.1039340934931438 -3.419692686291626e-19)
(1.069219027574415 -0.2648525062995243 0)
(0.9937389786008419 0.000341170229740792 -2.271465907965371e-20)
(0.9732223604553686 0.00135440345877265 4.829987698968441e-21)
(0.9618182329261106 0.000689344067669685 1.000734232683195e-21)
(0.7459577104501401 -0.001049509653005041 0)
(1.12294740412174 -0.07260086278016521 0)
(1.00279230518431 0.00116761988154845 -2.270909628921348e-20)
(0.9098877045515729 0.01215387207629443 -1.032927996972245e-20)
(0.8432535907280779 -0.0004002232668264646 2.872296418682483e-21)
(1.013605641769167 -0.008864844852202951 0)
(0.9605610452661976 0.01413043676691259 1.434437036064347e-20)
(1.005567249447752 -0.0002146855906747923 -2.253840103156595e-20)
(1.025237568030686 -0.003366984666375465 -2.504234526096545e-20)
(1.114949930244895 -0.002270756789131336 -4.920635939641388e-21)
(1.118125126432009 -0.002925915482679684 0)
(1.011134290992244 -0.004632056858621014 0)
(1.020978404338587 -0.001890592046509229 0)
(0.9425329481800022 0.002808995024677064 -1.966769561608968e-20)
(1.017854451272096 0.01351600097574679 5.553878227017886e-20)
(1.087768057074994 -0.006118340374082844 -2.334657444681818e-20)
(1.039809232849115 -0.007369718182979016 0)
(1.108605916003542 -0.002392992070086869 1.846816414365527e-21)
(0.9940897255873739 0.001574745746299119 -2.242799371749545e-20)
(0.9822181013800384 0.0003598489763232331 0)
(1.010121787846408 0.002897477327037096 4.677996887846667e-20)
(1.365054205400724 -0.314381877757511 -1.123970372190567e-18)
(1.121191759116671 -0.04362540102709982 -1.10257121723455e-19)
(0.9683221676367454 0.008141459878077382 4.410150130618461e-20)
(0.7645162251132968 0.003193377363129201 -3.417434291968576e-20)
(1.224077923252501 0.05118114734642046 0)
(1.219703682601982 -0.1265165867320631 -1.478024986794335e-19)
(1.083733420413133 -0.004290633453877321 0)
(1.008282036924881 0.000517026614928314 2.296215921517969e-20)
(-0.1973178467426374 -0.1284550789851363 0)
(0.9939675863680296 -0.004661072655180436 0)
(1.012364600069457 -0.02306621197272594 4.105491623366292e-20)
(0.706436649394073 -0.01944666385439362 0)
(1.096787711437756 -0.01482598704049177 2.257318477485749e-21)
(1.040334911537693 -0.001518304487699168 1.66118658069577e-20)
(0.6332322415138045 0.004123686372064251 0)
(1.447944114343687 -0.123920365065358 0)
(0.9858912959930225 0.001714095055253667 -1.067842315063219e-20)
(1.069736109466295 -0.01509622901304868 0)
(1.037777015045429 0.0004584181416674598 2.057362884730006e-20)
(1.08216443675408 0.002089051207200874 0)
(1.012302562186652 -0.003179917053023256 -1.142034888766535e-21)
(1.005859834826639 0.003235851753773665 0)
(1.00791762719294 0.002035921845140502 -1.139279509595497e-21)
(1.004480004998246 -0.0205713854204621 0)
(1.036460740527484 -0.006774416054901649 1.741857764983677e-20)
(-0.1817589908316134 0.03359737607342379 2.764145937644971e-19)
(0.7987666305976769 0.02338068437406836 5.730528088842342e-20)
(1.00523940998722 0.00194351645537386 0)
(1.124368771540114 0.009920582295379132 -1.169997235676821e-20)
(1.114007823103328 0.005308310770629577 8.9476580152903e-21)
(1.054449768390818 -0.01275731543298459 -1.316902031986425e-19)
(0.9987749723369689 0.01038749746225843 8.912780865624123e-23)
(1.081542593043674 -0.003404567290303676 0)
(1.188848517780187 0.052148847485623 0)
(0.835194521828814 -0.07572889673116864 4.601226010104363e-19)
(1.089467294270696 -0.0001270887477045763 0)
(1.033928233804678 0.007631794397829506 -7.631273651679271e-21)
(1.042457819033571 0.005288891587895962 5.722291692063925e-21)
(1.055003087678271 -0.05882958265830346 -7.601126276067179e-21)
(1.139247846324541 -0.001426618727532832 1.708472050414282e-19)
(1.084519466785414 -0.0005607131154254466 0)
(0.9941624611074105 0.001803193416146782 0)
(0.9974501408670019 -0.02679224688984018 -2.43206044247723e-21)
(0.9902197551381251 0.003568983906553698 0)
(1.031267469713175 -0.03711112075179988 6.486093982884712e-20)
(1.290685522509097 -0.09614770077605941 0)
(1.040434493210391 0.002574969900742228 -4.629863006840002e-21)
(0.9861826973204595 0.01696455749609291 -8.928156440903225e-20)
(1.032928272493396 0.04272448490815822 -2.343565086804889e-21)
(-0.0736546589892752 0.1732678763210559 -1.726662250608058e-19)
(-0.07111176830459343 -0.2935778491761106 -1.30067016342452e-19)
(0.8915022906057412 0.1275302204856181 0)
(0.2810987525482557 -0.03469367884024065 -3.150226653642758e-19)
(1.005934366212512 -0.0005464342429091253 -1.062255747211455e-20)
(1.063889093915616 0.002726894154554679 -2.073414482023582e-20)
(0.9915477360359232 -0.02108652442308161 3.101823070593399e-20)
(1.025322664237674 -0.03147801119365857 2.6856265031214e-21)
(1.010192835580797 -0.03115217548923385 -6.673164490075231e-20)
(0.988869719916331 0.004847368557596811 -3.485538915528556e-20)
(0.9933534503412836 0.005198078469637346 0)
(1.024741792135398 -0.002338268121400029 -3.467460404330187e-21)
(1.934206490745801 -0.1564220217938101 1.069820989023084e-18)
(1.044523552889198 -0.004466696457473803 0)
(0.9963019253812322 0.008343897205765125 1.503783402584825e-20)
(1.003626194322723 -0.0004906509497167847 3.998105226551862e-20)
(1.164007382242505 0.1580961224401089 0)
(1.002739702092324 -0.01305418080317245 7.462181244963252e-21)
(0.952004866215204 0.003242278459842889 0)
(1.037840042579092 0.04174353821732922 0)
(1.306553748980273 0.1534966533516947 2.284730325448558e-19)
(1.078727129378053 0.0007095649649384171 2.329378573546703e-20)
(1.016261423818715 0.02995687190004456 4.487173762924838e-20)
(1.081934751349864 0.002987543698405073 -2.243472751603523e-20)
(1.053850863715152 -0.01903925647123507 -8.05841535211188e-21)
(-0.3879129530591588 -0.04978008662522517 0)
(0.999795474664935 0.01299476097195454 0)
(0.1188141679604824 0.05335612861311224 -9.390312073656093e-20)
(1.006494445634529 0.02021045832511641 -4.022689060998223e-20)
(1.005288820951059 -0.02657843856664508 0)
(1.001390169472662 0.005338926852329438 -4.883142001960836e-21)
(1.082039285574428 -0.04246561271163974 0)
(0.9938626866101724 -0.01802169055446722 -8.098881027183095e-21)
(1.101905247717657 -0.05531408835918774 0)
(1.444552647596426 0.1713091572024499 0)
(1.054910711414925 -0.01208922312712195 0)
(0.9910264547049387 -0.02500389017839833 -4.167441357211093e-20)
(0.9980507287544416 -0.03282820073183225 -3.52151358257404e-21)
(1.01498363999918 -0.02143265355706434 -2.094208205805335e-20)
(0.9965927037381367 0.01672267388984486 -5.456305630832062e-20)
(0.9961096433354922 0.009952777852401373 -1.465544213078577e-20)
(0.9952910644931477 -0.02831315901904332 0)
(1.001966387885213 0.02373643803998639 1.890545484118399e-20)
(1.050851905052324 -0.02915104877233901 0)
(1.111210188271003 -0.03611777558176872 2.558131705651607e-19)
(0.9955134725831581 0.01656296749684168 4.501559832145343e-20)
(0.6150342442906058 -0.008694229117593294 0)
(1.150037734461692 0.1630985026477011 5.783146560374221e-23)
(0.8353892305490787 -0.08073006859988328 0)
(1.138127405599921 0.07275903742729087 -2.767930309006232e-19)
(1.315960914216903 -0.3892556662921407 1.286360155097016e-19)
(1.069168193938463 0.06567289337674055 -1.237877012352546e-20)
(1.011788766988533 -0.03142135262802379 0)
(0.9557618396258157 -0.2157632265243487 0)
(0.5414338119396253 0.1742265576399925 0)
(1.016271704579186 0.01172872158390662 1.164192797034617e-21)
(0.7018552811647476 -0.02133464632394408 0)
(0.9992897673476835 0.01638278160246003 3.463622362908284e-20)
(1.027449556521405 -0.002632318065153098 -2.71370627985871e-20)
(1.078973462300726 -0.008047982174006993 2.662984264478275e-21)
(1.053945584227727 -0.02803386127999937 2.660083082890349e-20)
(1.042723786274094 0.01171519369255388 0)
(1.060287559491339 0.02044410205581971 -8.616387096008133e-21)
(1.050047065568231 0.036372849700333 -1.783091587762673e-20)
(0.9837790122981123 -0.02262088913846013 0)
(0.6248872182629595 0.005102583342294513 9.168629012135482e-20)
(0.8941536357380692 -0.005939891076273359 -8.844174585697652e-20)
(0.9093711378014104 0.005240377211528363 1.451822851071887e-20)
(0.6296314451610799 -0.006442377458571974 1.4093990774124e-20)
(0.9810010610005803 0.0004573295200337019 2.464694226630176e-20)
(1.004415316116441 -0.01749397454132671 -3.393962744813908e-20)
(0.9842325853714877 -0.03519315781451025 -2.868900095281508e-20)
(1.085626970497225 0.001633292037484104 0)
(1.019679707618892 0.005276770983116101 1.028057403650078e-20)
(1.132435873312155 0.0485334116764836 1.336284675766995e-19)
(1.031043427142773 0.04175117194705393 0)
(1.02265715455951 0.002578148746977974 0)
(1.584073671697193 -0.1681338978730529 4.378474756646252e-19)
(1.058557473561843 -0.0433486880084373 0)
(1.019276492183474 0.01058663935478911 -3.668552119112696e-20)
(1.082204936251964 0.00629635442608547 0)
(0.4913219846635633 -0.0006613060551006987 0)
(0.007646065205873484 0.01641824180079312 0)
(0.9913447105710808 -0.02384122230334161 1.245728108521888e-20)
(1.301666970723709 -0.09653179915956293 3.695443838876865e-19)
(1.031410832075099 0.03543322962035705 0)
(1.022414346811936 0.003575890584876092 -2.191987332715726e-20)
(0.9369760840780397 -0.1605081524341278 -4.809276314997651e-21)
(1.25695820685088 0.07557738391853668 0)
(0.5973194911688036 0.7290760461581898 0)
(1.31005032164041 0.1424724072576317 1.051571576919068e-19)
(1.676977577411181 -0.02630909115814904 0)
(1.056891859142466 0.1277542111791914 0)
(0.7192480860918551 -0.01184085770580659 4.135460972556895e-21)
(1.04645044094253 0.04526483491144966 0)
(0.7577549173414576 0.1218919135608088 1.375292222272236e-19)
(0.9967955462865125 -0.01638235370000804 3.579548631160334e-19)
(1.039118482610353 -0.04051991805208897 2.754797995244587e-20)
(-0.3786044640288018 -0.04453603931917276 0)
(1.072298029221153 -0.01629335977762283 0)
(1.084013308040889 -0.007539978523488854 0)
(0.6488140772752562 -0.5044720071078612 -2.477428982726115e-19)
(0.9896272990959795 -0.0005890812666602409 0)
(1.092407417995821 -0.02169249748435855 6.14590817909465e-22)
(1.187592400142623 0.12081994245595 -2.029956563628895e-19)
(1.098906040137281 -0.04717420522669024 0)
(1.006084722418928 -0.02087470316294837 0)
(0.7722471186523158 -0.1854439300211881 -1.623288952352755e-19)
(0.8818169105573052 -0.1369711686650026 1.465375110470338e-19)
(1.033493858808542 0.01399592890473146 -2.086892053514435e-20)
(1.023126528067117 -0.008991214788807975 -4.382258520902745e-20)
(0.8766827364078918 0.005887941562658589 2.7321286962977e-22)
(1.505412970577816 -0.1947466827211089 0)
(1.308813611291083 0.1125836498101421 2.97180365431204e-20)
(1.241215367319437 -0.07585447367270648 -3.294831661266249e-21)
(1.095747418665829 -0.01863993523625514 -3.995283537887989e-20)
(1.035363895803217 -0.01643903492429058 2.972674796963259e-20)
(1.092825855754946 -0.03908865901079148 9.433587460406307e-20)
(1.032015295851452 0.0206465180515209 0)
(1.0505847754661 -0.03648889479316927 0)
(1.115926565097853 -0.008963792363388968 0)
(1.099158634667135 -0.04138169253085868 0)
(0.9982881075244664 0.01095408421980319 0)
(1.152174444058319 0.08148334107133208 9.481125325459229e-20)
(1.339714284516724 -0.1571506287839187 0)
(1.038304732972567 -0.02754403511311727 -2.564212561389793e-22)
(1.047711664507575 0.05308655810099694 0)
(1.010203040911073 0.01423468535944978 -3.832192123784879e-20)
(1.033701950379935 -0.007450486093121783 9.298191164535855e-21)
(1.088945479223602 0.0134416536058707 -3.198725647092687e-20)
(1.084737280087417 -0.0281749844411933 0)
(1.071192307391934 0.003545102436840911 0)
(1.103391091163446 0.09297986939351244 -1.404361675825675e-18)
(0.935352510933246 -0.1497711382524537 -7.090303326649788e-20)
(1.174689730818248 0.1175362137791257 1.149200097530886e-19)
(-0.4622941546536491 -0.02556159519770856 -2.907548617907415e-19)
(1.017926849889744 0.02938148763554935 -8.643153277539222e-20)
(1.006442012889633 0.003018649370231276 0)
(-0.2465521303916906 -0.005398233804530374 3.569558310283766e-19)
(-0.0328697227719662 0.299856415486734 7.445653530100467e-21)
(0.9952086656799597 -0.00627170296857777 9.225163176016686e-20)
(0.1835670595779252 -0.04507663883910466 1.291974148110336e-19)
(1.085197796898676 0.08896597486535117 1.409180042191362e-20)
(0.09360836212483072 -0.1105641853264597 -5.453841936642342e-20)
(1.108414086490934 0.003037437167900893 0)
(1.097214209602853 0.2509202947507867 0)
(1.021064503245465 0.02150624648057479 -1.691933385195641e-20)
(1.06244150535367 0.05383130450087232 0)
(1.025626979839797 0.02343657044010473 -8.325631940574193e-21)
(1.263057506837177 -0.5489990040434249 8.020159750250467e-19)
(-0.1098921898095324 -0.241319200459185 2.105584075228337e-19)
(1.30085958701573 0.112660494521355 -6.183913595109969e-19)
(1.12271176497664 -0.001377090679701768 0)
(1.12376035425345 0.1065132528991324 0)
(0.5221024910911763 0.07696713082092163 2.422542003874587e-19)
(1.023518745827503 -0.02025617137854948 9.525840657123931e-20)
(1.006361778586385 -0.02319776393280447 0)
(1.21118159560061 0.2704412216080304 -9.701636087535635e-20)
(1.259528301175304 0.1274924184004351 -1.51811354371815e-19)
(1.026539352127628 0.003216808426330633 1.576816450690136e-20)
(1.2984222529075 -0.08515092699710246 -4.969545821510618e-19)
(0.3052575488968324 -0.02187946469917963 2.891889328595414e-19)
(0.8318039799468332 -0.1490466466428274 6.872456497638841e-19)
(1.040919945193903 0.05559806192554916 1.099065004328605e-19)
(1.038259064822262 0.003456410752230942 1.607843387092213e-21)
(1.000898708505151 0.0191764979453381 2.875558887390255e-20)