/*--------------------------------*- C++ -*----------------------------------*\
| =========                 |                                                 |
| \\      /  F ield         | OpenFOAM: The Open Source CFD Toolbox           |
|  \\    /   O peration     | Version:  2412                                  |
|   \\  /    A nd           | Website:  www.openfoam.com                      |
|    \\/     M anipulation  |                                                 |
\*---------------------------------------------------------------------------*/
FoamFile
{
    version     2.0;
    format      ascii;
    arch        "LSB;label=32;scalar=64";
    class       volScalarField;
    location    "397";
    object      yPlus;
}
// * * * * * * * * * * * * * * * * * * * * * * * * * * * * * * * * * * * * * //

dimensions      [0 0 0 0 0 0 0];

internalField   uniform 0;

boundaryField
{
    FrontBack
    {
        type            empty;
    }
    Top
    {
        type            calculated;
        value           nonuniform List<scalar> 
15
(
142.2735652045847
133.5514663911333
138.0625393329295
144.3836518113369
159.7599194218143
131.366661167636
140.1082751207399
135.3399613270665
153.436999576515
135.7360969252541
136.0796310278607
136.7800968483521
125.2390126318332
132.9016843463291
123.9513162847519
)
;
    }
    In
    {
        type            calculated;
        value           uniform 0;
    }
    Bottom
    {
        type            calculated;
        value           nonuniform List<scalar> 
15
(
155.5671875293102
158.1119980994325
141.1074733111517
142.0805916431383
141.1900036044324
148.4596075957406
142.7167801502495
143.1686200884092
143.4226004755091
134.0663278408536
125.7393805196414
141.5617618179226
122.4124767964115
123.4898177279522
124.145932414463
)
;
    }
    Out
    {
        type            calculated;
        value           uniform 0;
    }
    circle
    {
        type            calculated;
        value           nonuniform List<scalar> 
32
(
56.1661899019024
21.70593292664564
65.22229604265421
25.84083047325485
20.03844097182246
56.2900565264361
56.67653312594083
24.04309970025942
22.08972334977771
65.44691185113274
39.9872727168281
62.93791082275617
50.53336527193181
16.13388620403321
22.8117978881051
19.42353595421336
39.157092647411
59.76842958402454
61.10852923521796
26.591053199987
65.8170271591633
63.72693065993449
63.08260668681812
59.82202946441027
64.19390776844969
46.0949279807506
66.4695067955729
32.25904925077869
37.83682557105306
55.63600394655735
21.44846657696331
43.02950221443122
)
;
    }
}


// ************************************************************************* //
