/*--------------------------------*- C++ -*----------------------------------*\
| =========                 |                                                 |
| \\      /  F ield         | OpenFOAM: The Open Source CFD Toolbox           |
|  \\    /   O peration     | Version:  2412                                  |
|   \\  /    A nd           | Website:  www.openfoam.com                      |
|    \\/     M anipulation  |                                                 |
\*---------------------------------------------------------------------------*/
FoamFile
{
    version     2.0;
    format      ascii;
    arch        "LSB;label=32;scalar=64";
    class       volScalarField;
    location    "1722";
    object      yPlus;
}
// * * * * * * * * * * * * * * * * * * * * * * * * * * * * * * * * * * * * * //

dimensions      [0 0 0 0 0 0 0];

internalField   uniform 0;

boundaryField
{
    FrontBack
    {
        type            empty;
    }
    Top
    {
        type            calculated;
        value           nonuniform List<scalar> 
15
(
142.2853941317879
133.5876187115409
138.0696204582562
144.4120864744201
159.7721324277299
131.3685683370383
140.1379496050488
135.3631169419608
153.448430660827
135.7359181527393
136.0972121046321
136.7687711342054
125.2628240375406
132.9110082810047
123.9513601974135
)
;
    }
    In
    {
        type            calculated;
        value           uniform 0;
    }
    Bottom
    {
        type            calculated;
        value           nonuniform List<scalar> 
15
(
155.5659539031608
158.1177199069263
141.0818664031083
142.0450245280555
141.1767111386963
148.4251579846887
142.697545063221
143.151067642624
143.4226330111251
134.0549913899124
125.725679727945
141.5521490066083
122.4064267124187
123.4883286497628
124.1306297019032
)
;
    }
    Out
    {
        type            calculated;
        value           uniform 0;
    }
    circle
    {
        type            calculated;
        value           nonuniform List<scalar> 
32
(
56.24030777274784
22.2551267866603
65.31855245022592
23.7052973170714
19.30512010019952
56.13995619466859
56.75416263475525
23.94178984607224
22.39045962575122
65.55084102986319
40.03195219186753
63.02703918152993
50.3996944389576
14.85084576343927
23.59406385509344
18.10219220396703
39.03529999260653
59.64117478841486
60.98189338449282
24.21292445561959
65.70812221222518
63.84033322845856
62.96947669284118
59.94919216462971
64.07988735890405
45.90759393437148
66.35965754938886
32.00238796276813
38.05670650443636
55.78566024312411
20.93361051838751
43.19197855522789
)
;
    }
}


// ************************************************************************* //
