/*--------------------------------*- C++ -*----------------------------------*\
| =========                 |                                                 |
| \\      /  F ield         | OpenFOAM: The Open Source CFD Toolbox           |
|  \\    /   O peration     | Version:  2412                                  |
|   \\  /    A nd           | Website:  www.openfoam.com                      |
|    \\/     M anipulation  |                                                 |
\*---------------------------------------------------------------------------*/
FoamFile
{
    version     2.0;
    format      ascii;
    arch        "LSB;label=32;scalar=64";
    class       volScalarField;
    location    "1097.5";
    object      p;
}
// * * * * * * * * * * * * * * * * * * * * * * * * * * * * * * * * * * * * * //

dimensions      [0 2 -2 0 0 0 0];

internalField   nonuniform List<scalar> 
808
(
-0.03498830500033302
0.04488673625395803
-0.01190789792655456
0.03596376274808501
-0.30113497339025
-0.05472155649728812
-0.01464344886040128
-0.02382019336158286
-0.1981719964539287
-0.08458704507608232
-0.009371467054949895
-0.2555368350943442
-0.030548740479978
-0.01307846015584261
-0.1235911020196613
-0.01398932774518166
-0.1421790863113249
-0.01355984294189168
-0.01275101586329126
-0.0562536052855528
-0.006198613418424566
0.1177783741962822
-0.06153068189057408
-0.0724113756439772
0.1756999545285662
-0.09939257604193667
-0.15359692406858
-0.02033824405105357
-0.01744006842676624
-0.02601534287055103
-0.02018883937309502
-0.05907991594019476
-0.02299328804188912
-0.01687225801007139
-0.09996621835132302
0.3445443150552079
-0.03879002984159017
-0.01685151055146345
-0.02311798737538335
-0.02659284164300514
-0.09082077772889655
-0.1275109944491931
-0.05122851038901124
-0.02066244945491557
-0.05530333474433836
-0.0405959872043004
-0.01233255668996314
-0.185624990692096
-0.02732106238871755
-0.2053689377662881
-0.01614320987874242
-0.06796799676925182
-0.06003921367997177
-0.0150832569574978
-0.1919250877200208
-0.02869459743233328
-0.01082505945764101
-0.01487964984434849
-0.1011511782898179
-0.04024799904871559
-0.09677940381824886
-0.1270771750564612
-0.01355418980436417
-0.1284889216497714
-0.01690698709818379
-0.05103804147598612
-0.1643677646910475
-0.03564882556317516
-0.01497073257767758
-0.4429718584897797
-0.02683233885703468
-0.3051794163476915
-0.02187846964829774
-0.02032548503108239
-0.06549078544001362
-0.017481274136435
-0.0430471526919415
-0.3624057263046219
-0.03555592761254162
0.04074671831312068
-0.09115584694696026
-0.017209156318126
0.05686010453565456
0.04446598813745711
-0.01671561309111066
-0.05271843343695207
-0.5453234503844674
-0.2247353300985347
-0.05274493100627292
-0.1121953278692534
-0.05720502147255469
-0.1333643019326735
0.03998639007474548
-0.02462531105235573
-0.06110680544309835
-0.117091347393889
-0.03846635207379891
-0.0522560386232894
-0.1167565540541032
-0.1378744322840577
-0.05218749421444194
-0.04789469188435537
-0.05495051164092023
-0.04529957095823572
-0.0576249862964951
-0.07383256907457748
-0.04162775661620878
-0.01129980790777677
-0.04073190516430554
-0.1250862730711848
-0.05086912478844375
0.08264260872315196
-0.04281573245325573
-0.008316542480992816
-0.02782482418641822
0.1805142766018894
-0.03933124605470287
-0.2709543216387216
-0.02029076511042673
-0.05412519248949021
-0.02806502803704138
-0.04818984299458545
0.01303955858726985
-0.04927081252968821
-0.03478765335372523
-0.2161551503805338
-0.04187411095485095
-0.005162979858946447
-0.07663740185268551
-0.06811858707878912
-0.1432605956830466
-0.02083358181062727
-0.07568314931596233
-0.04210404606788654
-0.02271375793927131
-0.01612322631487272
-0.006451558301722453
-0.007276300106884768
-0.0528147499552733
-0.05032649460638967
-0.2144360104599279
-0.05719878437205519
-0.008509447302853673
-0.02257551711586613
-0.1460942883702349
-0.002730077259873168
-0.07690068534118999
-0.02270114270965718
-0.00107172064525392
-0.01088572099583372
-0.03366926723346556
0.0947022593399144
-0.03920404006234748
0.2523182202968269
-0.2690799068019382
-0.1313452321014277
-0.03720873346761509
-0.09106506962906176
-0.00937438888672559
-0.1126021848865096
-0.1832112270730066
-0.2183009157097687
-0.179057353091337
0.05589624261465679
-0.06233006131202753
-0.02030280954417947
-0.06739635810256327
-0.1674377418371939
-0.02372371552562271
-0.01834512307895615
-0.05256186258724389
-0.01887950497055935
-0.006407215128880653
-0.1086808414324452
-0.02282360810209364
-0.04577078015976394
-0.06937916401365878
-0.1620290654483326
-0.03361397927073383
-0.3930490722247211
-0.01780463044361969
-0.2240869452589893
-0.04483262230546794
0.03152421600804191
-0.1060481545202056
-0.01482890304084086
-0.04197168838873516
-0.1045672255514561
-0.01763009792164974
-0.09589727645167793
-0.2074222032836363
-0.072220438847117
-0.02370299464712593
-0.04886992593947744
-0.04327469815062743
-0.2048818494175892
-0.02187334358914747
-0.01897013530965085
-0.01133255343704067
-0.05539555976585363
-0.05125372029051656
-0.02232860086576352
-0.02086220019861
-0.2450863288073415
0.1276415142714584
-0.2027071000561266
-0.2019774315288798
-0.01180012541416287
-0.01152225556956587
-0.06740355861007766
-0.009865614729660997
-0.5105092358168075
-0.1201722848871896
-0.01898052235864993
-0.0005255724432939963
-0.02417939005597502
-0.2842288479774418
-0.2762659899651511
-0.007024709996165693
-0.01728014122550889
-0.001501886998616567
-0.3469619633702666
-0.02824546875886122
-0.02911446358145388
-0.01248955565861585
-0.01974311235120576
0.05033399837218989
-0.1080698761862953
-0.01405835417959894
-0.02075698292097974
-0.04367604790206266
-0.01819111311935841
-0.01611628103412674
-0.02339667741463481
-0.06723673888121851
-0.01168777870223379
-0.01906845422682893
-0.008529313037608814
-0.0006850526284084723
-0.02955161630404531
-0.001634464461285927
-0.002240007820924012
-0.005947765535195816
-0.02562265846343225
-0.007957821725694975
0.001490543357637353
-0.004254412074785604
0.0012957312067115
0.002556616545720371
-0.008780473722016542
-0.1422053140892782
-0.003006822828798386
-0.001537778727752004
-0.04845033779830819
-0.0215816200207174
-0.0246399238711883
-0.0143625641167876
-0.006138498875479208
-0.02084476336713989
-0.03822968645589025
-0.01400049853084035
-0.01289460923183961
-0.01162919042071206
0.008164300965243889
-0.01027047818855955
-0.0117451599406803
-0.01142747612018877
-0.01076067851887026
-0.01026480996668162
-0.01199060197959226
-0.01404570771139666
-0.3083946768714126
0.06032120994349962
-0.01575330189237063
-0.0157243262213578
-0.01304224724631549
-0.01197522709758422
-0.008803828440037863
-0.09670665164188476
0.01082076082873508
-0.0135977329480911
-0.01445703407442176
-0.0106989106932268
-0.05247171472172699
-0.01031813429226752
-0.01363186848125582
-0.009805290329373686
-0.0001966319801747627
-0.01033787703435749
-0.01187117519829338
-0.02478379026370855
-0.01590618869553826
-0.01182448652112605
-0.01346187809676718
-0.007302187496951048
-0.01230489358599307
-0.01179632754645848
-0.05794467190925037
-0.0132026752033693
-0.01120059552041559
-0.008772772895953303
-0.0148820999651949
-0.01373818843175533
-0.01565952777404341
-1.373007031900766
-0.09891524773244409
-0.0134199920243075
0.02516526329545089
-0.1636660640853145
-0.09184473099916048
-0.01168194930619218
-0.01402775064882615
-0.2440860601146314
-0.02990094360801148
-0.01944295985923448
-0.01115159274384289
-0.01966001237871735
-0.01046037184757955
-0.03072782425098675
-0.4129617339209832
-0.01243764239528934
-0.0141071428007101
-0.004826295211977671
-0.01103946317017704
-0.0104317011893475
-0.01426164750015731
-0.007574439909299048
-0.02619653399801612
-0.01148642258388775
-0.1663162718242545
0.0175016328505183
-0.007620771166613939
0.003581285602883045
0.01366584464041662
-0.04761611946639523
0.02922227385637201
-0.01320411346489667
-0.1340550812227413
0.2824104440687164
-0.007198026581201655
-0.01342945127334315
-0.008344464245317651
-0.03270622605843558
-0.1233182820428757
-0.01240521394118931
-0.01228805387798027
-0.01669126531373376
-0.01359175895328062
-0.04105375030183452
-0.2158749931724729
-0.01085748825694442
-0.04185946923521942
-0.039666990821274
-0.1685230311463552
-0.1633991085901068
-0.1345943851476527
-0.2402826561591932
-0.006741662614064918
-0.02119122292881311
-0.01402379043813649
-0.01261384163307006
-0.03299560346083519
-0.02444294428085604
-0.0144205738887577
-0.01495289876221292
-1.07720826096192
-0.006300848874448147
-0.01346658960104468
-0.01844296498588659
-0.023071488322453
0.0001107972067627967
-0.01461254731341472
-0.02696426737607462
-0.1557190488937085
-0.01357021404210418
-0.02224571185303546
-0.01377283158328254
-0.0004335046877044791
-0.1789384293727504
-0.01312608372416352
-0.1425019598389188
-0.0160721231800681
0.005309225387943559
-0.0146250731517506
-0.02324013116727355
-0.01549736730545404
0.004941356010061458
-0.27626258411591
-0.02562278331278502
-0.01590004862398122
-0.001750764376525818
-0.009511355093966044
-0.03030850166409191
-0.014324848837991
-0.020334766746591
-0.02128292691325048
0.01499245031237479
-0.09986747693001215
-0.02196921991607296
0.009217052407759442
-0.05312956380100178
0.165440678403817
-0.1038958989294732
-0.3189417564658485
-0.031063351231823
-0.02542865536500085
0.1501528771567294
0.07842846153875878
-0.003487131400798675
0.04918029627087907
-0.01550917059708855
-0.01439966903568044
0.002289676267104794
0.01086269753763472
-0.06634185715808177
-0.006026092778066065
-0.05721584700619445
-0.02211472829275118
-0.01573199689594408
-0.03653874296878017
-0.03291179809194735
-0.006640698717841911
-0.01512021113860841
-0.03838274638696435
0.03749796992009267
-0.03887473267843999
-0.01376275754812724
-0.1171482304315409
-0.03197469116919895
-0.03876255214967422
-0.6742565097911506
0.02066174029275801
-0.01057772468219704
-0.005633906135537428
0.159674021256305
-0.08607360180749198
-0.03502052598313442
-0.2453761987105537
-0.01664596839767416
-0.01653363302616646
0.06847876933572097
-0.1828006056636436
-0.2316832601834445
-0.1961182148230993
-0.6833083749339142
0.001912659726417956
-0.01894652667774085
-0.0170622267440759
-0.08072751970705754
0.1181284504283572
-0.02074609788628343
-0.234409529100936
-0.03512430460841547
-0.006501783818646829
0.2792514085094714
-0.01127203774591803
-0.09281281654320719
-0.1501630475683616
-0.00367801141040302
-0.04055528513649636
-0.05139640874220655
-0.2045638263923832
-0.008545038461643539
-0.0414057953236027
-0.00244234443306582
-0.5483814595220879
-0.1969847349127357
-0.1767381240561692
-0.02273166901384241
-0.007169924982075014
-0.0604704751318309
-0.05773250008839157
-0.01382173005473975
-0.06800588527220468
0.00400962059132968
-0.01827793049745204
-0.09393433189323309
-0.2695386448366107
-0.007242674872442503
-0.02635313558511892
-0.02199783463569572
-0.07469362936239381
-0.09043145484449819
-0.08823242541146607
-0.01200172531328675
-0.9227532919826884
0.1614237870319536
-0.07877830589756206
-0.2534038800519023
-0.04228695743067852
-0.01037410885609247
-0.2551812564646687
-0.1885413431789937
-0.03243031689885487
-0.1277468256312454
-0.01968599276111101
0.5634339415460674
-0.02404852121903809
-0.2275158432496378
-0.02592883905944442
-0.00585302567212796
-0.0119736802759732
-1.248615297073005
-0.1813590035269398
-0.231221989024241
0.005315399893628655
-0.03789636619393216
-0.2517492722280218
-0.06575801764466944
-0.05115046885475893
-0.1435790443672377
-0.1864587720579942
-0.06828367531858236
-1.224975727210857
-0.1440797043153847
-0.5242307840744374
0.07876945673193837
-0.006448702455863933
-0.02180226480425976
-0.04307973716202876
-0.03978437696387908
-0.02872400306960936
-0.1301481236543846
0.08051277170262362
-0.002030390030349835
-0.009884854385677154
-0.5773407759880308
-0.8603315880527633
-0.1828771585464315
-0.008390222403531235
-0.1376151317166089
0.0009312315772729132
-0.0002255479670115185
-0.001780042664592763
-0.06011254356726117
-0.2371247446981972
-0.01334551781612845
-0.1235512924241366
-0.1566833415726967
-0.01321901982599656
-0.03558584080291913
0.02394552408501384
-0.05755669740350988
-0.07023715923365126
-0.5006843964518143
-0.2238845016834514
-0.08024519913537247
-0.07337622019029305
-0.01986738507386444
-0.1241193749477911
-0.1530710379998946
-0.07481605445543368
0.02250868906424546
-0.08506478101114247
-0.04862721547115239
-0.01488176004985453
-0.1060426515340553
-0.2742009512675461
-0.05747851590798899
-0.01842692247974042
-0.0005983465525983975
-0.00999252931048859
-0.01105810244130542
-0.219564594110035
-0.01532519323054136
-0.2203161230797671
-0.01027316671506482
-0.06932728096706164
-0.004145539499857524
-0.02322273016340252
-0.3809014327685788
-0.9145546158332087
-0.01133912036340573
-1.045031835338951
-0.6108850481389085
-0.01056495952246777
-0.6603706085383084
-0.1799203368231086
-0.006044701723841524
-0.12988498096039
-0.01674746730906207
-0.122876387394716
-0.06657804355059894
-0.07958365789257443
-0.005063167673239508
-0.002255391122709986
-1.342360031066907
-0.01132695372124483
-0.1793605844856225
0.0005939085762735162
-1.007657027168545
-1.238880955436295
-0.0804944908641102
0.01838325283629876
0.1644659338150632
-0.004506565539724066
-0.02305404858273247
-0.004172627325796159
-0.2510680134100038
0.3659715483759822
-0.0410703959459149
-0.2115749232954427
-0.01485948733198289
-0.6517453460401477
-0.07413662240580064
0.1899108087524568
-0.2869791791969025
-0.04988933045454009
-0.0690045951884582
-0.01587028601486783
-0.02173354184079284
-0.5794471794639747
-0.1458365173194703
-0.08665162314646233
-0.1272805687292451
-0.5533691011366291
-0.04428728743797323
-0.9044894821571073
0.0004987791797859679
-0.2392956946173443
-1.053161751908389
0.1652780638942391
0.2903857561862607
-0.1839849383351876
-0.1911692823279723
-0.2109860089472955
-0.06748646194126229
0.02209747527890668
0.0458155575563037
0.003080681386150015
-0.1671320490680851
0.02560820356323115
-1.361056069406026
-0.08552693802400285
-0.4752582797571504
-0.3323330020124355
-0.206055469255665
-0.1776118650842516
-0.01690260836912321
-0.01547128877508133
-0.1065002163939429
0.1731757423584014
0.3849718630509063
-0.2062511058280033
-0.1396129102763007
-0.2294645810131019
-0.06263488089194071
-0.1505326092576289
-0.1647454006753279
-0.1260987994432423
-0.1238474947404433
0.4645165081898102
-0.2715536266458212
0.4328746797224937
-0.5970637595120367
0.0716646611135031
-0.2010720806352045
-0.06641513262689751
-0.07543617764646848
-0.8829064088208699
-0.2170889235982645
-0.1914453411227443
-0.3483929641582946
-0.4596944253108364
0.5703488154849521
-0.2105459219918716
0.001059162651351938
-0.06951062404533227
0.3450296610255184
-0.0366641625595625
-0.1325340772928009
-0.1802355684668257
-0.06332455257681983
-0.01654067604585615
-0.1970844135143461
0.1964188641607908
-0.01291830379378233
-0.09671321518608356
-0.1715730230536643
-0.3181601770905707
-0.3117110242193046
-0.06591097730138006
-0.01024575397021976
-0.08058186949617638
-0.6513249089309819
-0.6731601946206011
-0.3363328117325309
-0.05790705295105111
-0.05116100400031622
-0.02534679417315754
-0.06816558223091353
-0.05693830239370221
-0.360572498146051
-0.960902237189225
-0.01051836193567355
-0.08340538423697728
-1.141715307706419
-1.035922399734647
-0.1072222517174351
-0.03951479982054834
-0.06933544010854979
0.3891806942522487
-0.3423504562840129
-0.0494260653099035
-0.6010232117132192
-0.1227975630812412
-0.2515436699414021
-0.2119368392631083
0.4736818157973705
-0.6305095103663179
0.07540973535078316
-0.02937198198417393
-0.5607849727397322
-0.05230840435988623
-0.3637437095728721
0.1085478360213945
-0.1908633124191013
-0.06006450369262069
-0.1378759819252584
-0.3596633885132499
-0.08561115368404058
0.5154408628507167
0.08603904606175464
0.4699780009922422
-0.09947723909846122
-0.2017852098683874
-0.519760543743533
-0.1326108939812033
0.02609617243233052
-0.05393814648693268
0.1012307011886868
-0.3040293851054622
0.23637830951103
0.006940947989005589
-0.003224280396149731
-0.5112472119108855
-0.1843034424363886
-0.08090869520466232
0.5816694962465832
0.1389529978476323
0.3436707706010356
0.2256506175632412
-0.5638907719893513
-0.1938063192351233
-0.2245542580099858
-0.2279670214267986
-0.06066451760715764
-0.6918870429898794
-0.1915430434559346
0.3052336045556948
-0.1925566607298512
-0.01137089303611555
-0.1683880342998003
-0.01005572332417655
-0.1586509422701714
-0.4374158199681707
-0.07618037709439592
-0.2020421741107341
-0.07122280370261409
-0.08786025296887888
-0.1447784020591777
-0.0727269373939587
-0.4526733904843885
-0.4127743239608656
-0.02489555904837447
-0.07532769977148294
0.3293457572265949
-0.2479167147884904
-0.182717557722058
0.524471991959905
-0.2061631484112664
0.01948821079259572
-0.4508961402001055
0.04966880540178456
-0.06131876849172486
-0.1408764954902886
-0.5851603607686178
0.1595673301220741
-0.578392375443875
-0.536164345676778
-0.1037649032159625
-0.509364536929338
-0.03712707953728998
-0.1399212242167255
-0.4122443402389112
-0.01623482743089127
0.2876453347997356
0.4898420617040325
-0.1601493157061802
-0.007221748523585499
-0.07942119860210504
0.5252209039135697
-0.03317088742172723
-0.4402784866132529
-0.0326711231881374
0.4615517464832854
-0.01548304548031033
-0.5450421537856694
-0.2486695235158081
0.1771207134519487
-0.3112058045741656
-0.179664011545715
0.04941308562172973
0.03303526083702205
0.05514216557441034
-0.2999729283113656
-0.1591164290738523
0.4128348402073836
)
;

boundaryField
{
    FrontBack
    {
        type            empty;
    }
    Top
    {
        type            zeroGradient;
    }
    In
    {
        type            zeroGradient;
    }
    Bottom
    {
        type            zeroGradient;
    }
    Out
    {
        type            fixedValue;
        value           uniform 0;
    }
    circle
    {
        type            zeroGradient;
    }
}


// ************************************************************************* //
