/*--------------------------------*- C++ -*----------------------------------*\
| =========                 |                                                 |
| \\      /  F ield         | OpenFOAM: The Open Source CFD Toolbox           |
|  \\    /   O peration     | Version:  2412                                  |
|   \\  /    A nd           | Website:  www.openfoam.com                      |
|    \\/     M anipulation  |                                                 |
\*---------------------------------------------------------------------------*/
FoamFile
{
    version     2.0;
    format      ascii;
    arch        "LSB;label=32;scalar=64";
    class       volScalarField;
    location    "1638.5";
    object      p;
}
// * * * * * * * * * * * * * * * * * * * * * * * * * * * * * * * * * * * * * //

dimensions      [0 2 -2 0 0 0 0];

internalField   nonuniform List<scalar> 
808
(
-0.03499874353492491
0.04489130329821577
-0.01190854584331107
0.03595318673740747
-0.3011649107575645
-0.05471788474062498
-0.01463926597147006
-0.02381995254007892
-0.1981936223867182
-0.08459906555475516
-0.009369174688347488
-0.2555616053164392
-0.03054825459500633
-0.0130743238425476
-0.1235785780289815
-0.01398874476675221
-0.1421703181059262
-0.01355924699320339
-0.01274865014687021
-0.05626254484651586
-0.006191950054741945
0.1177845663786013
-0.06152118616883721
-0.0724229369366108
0.1757084043969744
-0.09938892118369522
-0.1536155189145473
-0.02033761757636037
-0.01743904301102135
-0.02601608328595705
-0.02018808576309014
-0.05908957888786737
-0.02299339591374389
-0.01687166705368796
-0.09997859139708698
0.3445399983725875
-0.03878477721381057
-0.01685185770382339
-0.02312091579744721
-0.02659289366361849
-0.09083267565338708
-0.1275274562058021
-0.05122099123651156
-0.02065986352330726
-0.0552989479665949
-0.04058628856213821
-0.01233356849512881
-0.1856461395340359
-0.02732518270823353
-0.2053915182372219
-0.01613944571452723
-0.06797957088549199
-0.06003084577754206
-0.01508119804478583
-0.1919058447562859
-0.02869922629308382
-0.01082371082594554
-0.01487474700324611
-0.1011651890436486
-0.04025435699126453
-0.09675391253117356
-0.1270943491990048
-0.01355113397332898
-0.1285050059704969
-0.0169051295664132
-0.05103060718970558
-0.164393013824591
-0.03564944086374049
-0.01496833749012243
-0.4430076202476521
-0.02683531585031676
-0.3052146798494097
-0.02188096587071283
-0.02032337145805873
-0.06550897952325441
-0.01747776052347767
-0.04305411651823252
-0.3623754174340219
-0.03555190164086067
0.04076006545518616
-0.09114750919291281
-0.01721074470639572
0.05685883583453829
0.04445569491564191
-0.0167118249045879
-0.05272615880916424
-0.5453665212859129
-0.2247130049157652
-0.05275354262375577
-0.1121868922153078
-0.05721490608235349
-0.1333811873108074
0.03999559661512556
-0.02461502951710896
-0.06109822092812583
-0.1171070006865348
-0.038467030834206
-0.05225307623781781
-0.116771741142128
-0.1378920538163168
-0.0521837606883505
-0.04790204608671626
-0.05495907716903294
-0.04530660021259799
-0.05763004828232818
-0.07382373816794391
-0.04162724607224652
-0.01130026084097937
-0.04073759033511209
-0.1251042272686697
-0.05087565236341572
0.08265078534816757
-0.04282097384866273
-0.008316592214219185
-0.0278254352351733
0.1805107035525411
-0.03933856046704946
-0.2709851097771509
-0.02028916755122628
-0.0541342813255243
-0.02803692216439956
-0.04818321135004008
0.01303333921568524
-0.04928066801893378
-0.03477750893844861
-0.2161329743825684
-0.04188572859928121
-0.005164778873057392
-0.07665004814386145
-0.06810997729580413
-0.143280202064832
-0.02083303297744816
-0.07569323208601801
-0.04209226436197937
-0.02271268357466742
-0.01613002496422979
-0.0064519106097098
-0.007276496831525725
-0.05282007171341947
-0.05033491767832637
-0.2143979868929103
-0.05720962119604715
-0.008510144605499302
-0.02257902392363821
-0.1460782567504675
-0.002728093820671881
-0.07691105852394518
-0.02271251808160782
-0.001070443112117599
-0.01088310905305154
-0.03367334359126353
0.0947118584806354
-0.03921185145538007
0.2523230222694526
-0.2690671957244789
-0.1313317706126998
-0.03720548118260734
-0.09106519008600794
-0.009373283205702165
-0.1125906979346163
-0.1832575559531176
-0.2182781056246765
-0.179089804731754
0.05588939896324887
-0.06232209312790934
-0.02030153932021611
-0.06740374707920166
-0.1674682960611336
-0.02372714477543619
-0.0183448738302192
-0.05257129782910323
-0.01886896552094885
-0.006401607987556818
-0.1086995145799693
-0.0228207465314104
-0.04578125895734783
-0.06937029438336133
-0.1620486038992312
-0.03361640844187248
-0.3930899228699811
-0.01780378017552805
-0.2240668951259983
-0.04484084237450253
0.03151386084791417
-0.1060428826077481
-0.01481954801517992
-0.04196480711424653
-0.1045778898760361
-0.01762948742609133
-0.09590848511081519
-0.2074117626356006
-0.07222951264996923
-0.02370149600233577
-0.04888147028409497
-0.04328237537759521
-0.2048818269438397
-0.02187134156828421
-0.01896879601749133
-0.01133294929635397
-0.0553848596325239
-0.05126341593686686
-0.02232824158797098
-0.02086254401663632
-0.245127027246506
0.1276460683880071
-0.2026817119644596
-0.2020449528538713
-0.01180012592202929
-0.01152318690933157
-0.06740832847661593
-0.009862080444661537
-0.5105739437200911
-0.1201809090570728
-0.01897814613107241
-0.0005308713333338452
-0.02418148289034007
-0.2842651007667469
-0.2762403370273749
-0.007024328917243959
-0.01728235621154216
-0.001505532321990261
-0.3469339518599254
-0.02824447006005226
-0.0291138003644672
-0.01248922385261691
-0.01974395174405438
0.05034351742926259
-0.1080474093885263
-0.01405646720383245
-0.02075625277520741
-0.04366616143920044
-0.01819049080515399
-0.01611558338993773
-0.02339599860460333
-0.06723112337035529
-0.01169001785393994
-0.01906875363930782
-0.008528537972157187
-0.0006850759375937998
-0.02955206739401752
-0.001633092856142429
-0.002240886615009908
-0.005949113186345523
-0.02562284984428559
-0.007957919751150212
0.001490928537698147
-0.004253926417949005
0.001294747843746317
0.00255672326419666
-0.008778586308357185
-0.1422282497727498
-0.003007153502084536
-0.001538028634448694
-0.0484534785616219
-0.02158135469608403
-0.02464457639760749
-0.01436285850677957
-0.006137996497797092
-0.02084405293048328
-0.03821859774070729
-0.01399908778927979
-0.01289420853190592
-0.01163147961701071
0.008155466254256213
-0.01027142107019259
-0.01174477128331244
-0.01142621370218751
-0.0107622338412222
-0.01026344609652251
-0.01198684943293953
-0.01404690029685781
-0.3084451231504214
0.06033005568928113
-0.01575141155006437
-0.0157284293902277
-0.01304338868786308
-0.011977252392752
-0.008804308330755449
-0.09671309058100734
0.0108044528075158
-0.01359742848519038
-0.01446010930522249
-0.01069967188302161
-0.05248177443012997
-0.01031523949754886
-0.01363299749750525
-0.009800555078604209
-0.0001973228167981894
-0.01033159390626163
-0.01186571426491291
-0.02478593406794903
-0.01590902962669687
-0.011823914702532
-0.01346077660205846
-0.007301549354128093
-0.01230769222898402
-0.01179596910366702
-0.05793441763761305
-0.01320037369876205
-0.01119976464857793
-0.008771297853990188
-0.01488086035388605
-0.01373925864699026
-0.01565983620418683
-1.373073451184986
-0.09890584465662108
-0.01341980624132878
0.02515185411359936
-0.1636865031696
-0.09184923827513007
-0.01167851406247561
-0.01402739308399056
-0.2441777785547925
-0.02991196930166923
-0.01945462516065831
-0.01114615958346937
-0.0196573320022054
-0.01046258727535496
-0.03072731624607944
-0.4129945573715092
-0.01243731772751863
-0.0141071432382961
-0.004827569534562244
-0.01103629860078246
-0.01042730535697962
-0.0142631603286905
-0.007583805885681304
-0.02619205127258056
-0.01148416283566968
-0.16627422878346
0.01748977924900319
-0.007622240273746603
0.003575629616507201
0.01366542330557504
-0.04760933341100098
0.02923162916959673
-0.01320185718912503
-0.1340717089852359
0.2824064224953075
-0.007196082550370624
-0.013427320998513
-0.008345969870025196
-0.03270619764460748
-0.1233044849001834
-0.01240827151061348
-0.0122894524577502
-0.01668931422027507
-0.01359216383894705
-0.04104975770452841
-0.2158501843147489
-0.01086437704005658
-0.04184930274271362
-0.03967293512734964
-0.1684782682793831
-0.1634356641888228
-0.1346122187872286
-0.2404091507269689
-0.006751637715694373
-0.02119332299948687
-0.01402165263799456
-0.01260960188719296
-0.03299091658544315
-0.02444227646929862
-0.01442213282375647
-0.01495353560914918
-1.077269503259864
-0.006300594495041692
-0.01346874332844672
-0.01844391093937531
-0.02305346399589771
0.0001171602738387389
-0.01460937511948979
-0.02697508184704658
-0.1557841150426269
-0.0135692323314875
-0.02224906897532377
-0.01377088707001845
-0.00042134138351189
-0.1789492199956595
-0.01312937583705018
-0.1424713310891941
-0.01607446453493104
0.005334994521877628
-0.01462602617256489
-0.02323545521997374
-0.01549568552675511
0.004943805207471207
-0.2763031626610633
-0.02561796237102582
-0.01589718705626482
-0.001730014865333618
-0.009505696808469632
-0.03031371149252203
-0.01432701613119423
-0.02033144625724365
-0.02128641443503468
0.01499255709456287
-0.09988271908351183
-0.0219729874636014
0.009215945815016608
-0.05310550604320195
0.165360028792671
-0.1038807935554866
-0.318970323615578
-0.03106436851328809
-0.02542517529064712
0.1501417609701016
0.07845013343292954
-0.003485059104698648
0.04917089870133415
-0.01551195679630252
-0.01440419406307123
0.002288100629354016
0.01087908263969196
-0.06635218959459241
-0.00602794048581824
-0.05722329214611646
-0.02211133498509416
-0.01573197351131408
-0.03653872639244064
-0.03291177842511596
-0.006640554620581939
-0.01512038710684853
-0.038394118529327
0.03751217314132583
-0.03887526089425055
-0.01376091867763016
-0.1171339259522555
-0.03197865254887267
-0.03875638781256176
-0.674300734307313
0.02066568838833309
-0.01058040183016659
-0.005631534939456972
0.1596349496034084
-0.08603526108825424
-0.03501621722143182
-0.2454001654435481
-0.01665018493341383
-0.01653549724956714
0.06841287248930575
-0.1828247648970565
-0.231648034952407
-0.1961570940691739
-0.6833559824470806
0.001918482583491104
-0.01895784673998859
-0.01706433919859775
-0.08068786831237307
0.1181236636081006
-0.02074406833798533
-0.2344783798679455
-0.03511879056465597
-0.006499577014806661
0.2792344640128961
-0.01127306619270469
-0.09282668023068391
-0.1501445676148319
-0.003680408939574652
-0.0405498688187819
-0.05137736856754697
-0.204595147132129
-0.008549035204956642
-0.04141670916917095
-0.002440590743634766
-0.548418634116729
-0.1970187070220985
-0.1767227635308567
-0.02272837962466779
-0.007162614020821124
-0.06046090563051922
-0.05774105384767877
-0.01382229866719953
-0.06799666144473027
0.00400307770523375
-0.01828075516282507
-0.09394236773256556
-0.2694997089433639
-0.007238492533034505
-0.02635770490682223
-0.02200086057276028
-0.07468399469838884
-0.09044201377578359
-0.08822328406098834
-0.01200027432160438
-0.9228277836663686
0.1614155918236714
-0.07877776696881908
-0.2534455967001877
-0.0422930560646218
-0.01037679167179969
-0.2551724293194547
-0.188482369140259
-0.03244158272161462
-0.1277712543961367
-0.01968564380997297
0.5634292212896469
-0.02404289062719077
-0.2275596878836789
-0.02593393593263365
-0.005855919830280373
-0.01197663985516262
-1.248673288794984
-0.1813749278677327
-0.2312553247933574
0.005316230552782417
-0.03788967569790171
-0.2517932931269698
-0.06574998758412426
-0.05114448969930396
-0.1435580850440413
-0.1865117762463861
-0.06827382950879757
-1.225047828224951
-0.1440419907209577
-0.5241514273490351
0.07875971862599428
-0.006452891145855367
-0.02180652630778039
-0.043070108521616
-0.03979659988911417
-0.02872845340641403
-0.1301625663675336
0.08050435390161791
-0.002031774776580534
-0.009883811039603315
-0.5774040382039544
-0.8603954531688687
-0.1829208822679117
-0.008391575068202666
-0.1376444807414719
0.0009333684501919382
-0.0002263953038975209
-0.001775819031120294
-0.06011013500638415
-0.2371520414430414
-0.01334610004139246
-0.1235811387835529
-0.1566713682481991
-0.01321939194122754
-0.03559232135745861
0.02392187672991276
-0.05754957943936598
-0.07022658989215697
-0.500728058618148
-0.2240037432871343
-0.08025386583139119
-0.07336236368433297
-0.01986965691180943
-0.1241386873251328
-0.1530455629835232
-0.07480444630630724
0.02250755907644484
-0.08505223474625755
-0.04861661412875792
-0.01488182087034776
-0.106034593322761
-0.2741662196834181
-0.0574662148459299
-0.01842898610802693
-0.0005966429039481961
-0.009992233747005759
-0.01105996346623808
-0.2195101469537026
-0.01532605658294864
-0.2203444181635862
-0.01027303486532384
-0.06929498092420809
-0.004141668502788854
-0.02322237036897108
-0.3808450676866973
-0.914467805524635
-0.01133929337072325
-1.045085918385692
-0.6109366962067245
-0.01056580573662724
-0.6603266436302687
-0.179873586929195
-0.006044677161040534
-0.1299076189472077
-0.01674834984823996
-0.1228585707017355
-0.06659035441377148
-0.07956245455230035
-0.005062952744864613
-0.002255112764427471
-1.34229712776878
-0.01132524487671009
-0.1793847537001084
0.0005921280623714833
-1.00770766018595
-1.238799062862136
-0.08051042131736193
0.01840004554806393
0.1644643633256866
-0.004507121815766705
-0.02305412653827982
-0.004172574199650144
-0.2511118621923313
0.3659743774364027
-0.04106404806345772
-0.2115567484784898
-0.01485875562433725
-0.6517888355778779
-0.07415076987812579
0.1899240565587438
-0.2869180070577256
-0.04988395347999584
-0.06899710136189521
-0.01587033989156207
-0.02173443926043817
-0.5793728846672485
-0.1458112915551154
-0.08662916483121987
-0.1273131405993434
-0.5534066459053945
-0.04428152837973896
-0.9045370621768948
0.0004959921234665077
-0.2392682114506054
-1.053108774488713
0.1653039930178393
0.290401058265599
-0.1840060642764696
-0.191193427346989
-0.2109460067460137
-0.06749650417830005
0.02209253251743676
0.04584289832880654
0.003081345903726512
-0.1671571462171489
0.02560290350688099
-1.360984295527967
-0.08551733013636198
-0.4752239592268285
-0.3323031865523524
-0.2060058655709235
-0.177590080679441
-0.01690246628516816
-0.01547142970694641
-0.1065289950955262
0.173156189716734
0.384978677219607
-0.2063262411983514
-0.139586027403554
-0.2295503051538568
-0.06262871838696424
-0.1505063629495627
-0.1647126465857644
-0.1260882367545202
-0.1238665862731108
0.4645324182087469
-0.2715040305808332
0.4328591806841818
-0.5971104265183397
0.07165146160492172
-0.201126882379215
-0.06640655796521404
-0.07541818888491766
-0.8828314811850659
-0.2171231471928602
-0.1914276472615445
-0.3483572919647942
-0.4596540706725712
0.5703526516398488
-0.2105075465571879
0.001046917586458431
-0.06952707913822535
0.3450167097120834
-0.03667714595402011
-0.1325456280853926
-0.1802190797733194
-0.06332559300904561
-0.01654100066798025
-0.1970564868694221
0.1963944858367041
-0.0129181330478941
-0.09670161922678658
-0.1715373363116617
-0.3181253123702531
-0.3117387187599368
-0.06587403945612021
-0.01024720792316206
-0.0805608515289909
-0.6513663398842471
-0.6731174271927528
-0.3363783282858689
-0.05789960963195434
-0.05117322189652234
-0.0253510284332324
-0.06815363871098873
-0.05695243885544926
-0.36053304786256
-0.9608514192920919
-0.01052152816132813
-0.08339403525253287
-1.141655220270087
-1.035855789096553
-0.1071956094509539
-0.03949983946101231
-0.06934631433721386
0.3891942684203799
-0.3423791392982
-0.04943111575614268
-0.6009805297443367
-0.122766712286825
-0.2515688831272611
-0.2119119571333032
0.473687446323052
-0.6304600203337964
0.07538869298658935
-0.02937693423284192
-0.5607291244883547
-0.05229443146504769
-0.3637105106843634
0.1085303095973663
-0.1908459749633039
-0.06005640609658956
-0.1379036898314537
-0.3596956383785521
-0.08563723269280987
0.5154316264456216
0.08602978367791672
0.469987601250791
-0.09948069307951582
-0.2017530558749779
-0.5198112228968431
-0.1325869017226223
0.02610866634762086
-0.05392826382397921
0.1012481369329409
-0.3040638037133449
0.2363768906980579
0.006959915776098543
-0.003227600402993022
-0.5112826581955238
-0.1843249725512124
-0.08089482406421593
0.5816690598251253
0.1389461144428427
0.3436894896560851
0.2256531898034464
-0.5638515079217242
-0.1938554232673495
-0.2245352738449619
-0.2280378661185222
-0.06065502769581267
-0.6919303824502142
-0.1915705481026858
0.3052442465457029
-0.1926140250230388
-0.01136970359272344
-0.1684356840503615
-0.01004459889661981
-0.1586132283322541
-0.4373635276444676
-0.07618547357239726
-0.2019984953153378
-0.07121722349904787
-0.08782759999507984
-0.1448124431410486
-0.07273395448482685
-0.4527255490261458
-0.4128071956231248
-0.02490882043649192
-0.07531208248294284
0.3293269747743375
-0.2478911009837068
-0.1827601497303356
0.5244816323024384
-0.2062051704072282
0.01946981453200741
-0.4508615318190352
0.04964245738436272
-0.0613317162038909
-0.1409146985970483
-0.5851106959145297
0.1595878425590984
-0.5784306384585678
-0.5361236500907788
-0.1037882682884805
-0.5093265347614987
-0.03713298139643936
-0.1398894354686397
-0.4122103983432042
-0.01623578372178935
0.2876344222087676
0.489839426789112
-0.1601187117754798
-0.007235301858753201
-0.07937298309348147
0.5252224105431993
-0.03317676258908567
-0.4402413306516262
-0.03267572399885511
0.4615432838188136
-0.01547080257561418
-0.5450008290627498
-0.2486631778366267
0.1771074288854957
-0.3111770528716167
-0.1796425961671278
0.04943473144273267
0.03304636602837736
0.05513029351448268
-0.2999439203605332
-0.1591031549434902
0.4128343237455686
)
;

boundaryField
{
    FrontBack
    {
        type            empty;
    }
    Top
    {
        type            zeroGradient;
    }
    In
    {
        type            zeroGradient;
    }
    Bottom
    {
        type            zeroGradient;
    }
    Out
    {
        type            fixedValue;
        value           uniform 0;
    }
    circle
    {
        type            zeroGradient;
    }
}


// ************************************************************************* //
