/*--------------------------------*- C++ -*----------------------------------*\
| =========                 |                                                 |
| \\      /  F ield         | OpenFOAM: The Open Source CFD Toolbox           |
|  \\    /   O peration     | Version:  2412                                  |
|   \\  /    A nd           | Website:  www.openfoam.com                      |
|    \\/     M anipulation  |                                                 |
\*---------------------------------------------------------------------------*/
FoamFile
{
    version     2.0;
    format      ascii;
    arch        "LSB;label=32;scalar=64";
    class       surfaceScalarField;
    location    "849.5";
    object      phi;
}
// * * * * * * * * * * * * * * * * * * * * * * * * * * * * * * * * * * * * * //

dimensions      [0 3 -1 0 0 0 0];

oriented        oriented;

internalField   nonuniform List<scalar> 
1171
(
-0.9279096676984426
0.9279096676586168
0.7874265196889636
-1.099250576867553
0.3118240573358316
-0.1896496945593421
-0.7658628790196301
0.9555125735667869
0.07209032880484957
-0.1173159953868412
-0.2124167372094012
0.3297327321148848
-0.7874265110126047
0.06942137598083196
0.7180051350444817
0.8114101277132552
-0.1779928997695963
-0.633417228005636
0.8740644716548227
-1.044197240421463
0.170132768803928
-0.2854346021782597
-0.09789638330860774
0.3833309858225445
-0.03646125212917743
0.5489793447540623
-0.5125180927060426
-0.506466785052778
0.8262981768231106
-0.3198313917501322
-0.4027505918847881
1.045802288488961
-0.1717378168707372
0.3920790796275305
0.05010979229628262
-0.4421888729073291
1.045926893261998
-0.0001246044969158573
0.443911901553306
-0.05183282431998618
1.056465821865998
-0.01053893216708939
0.5803046332038235
-0.769954321788384
-0.7241080695494032
0.5565894707253498
0.167518598755186
0.2144765241371663
-0.7209433154940303
0.5500204302247684
-0.922612346512569
0.3725919155584859
-1.094213889388507
0.6866077546698368
0.4076061348290477
-0.5955989489006358
0.5591377033422736
0.01731202141425626
-0.2558987597981033
0.2385867374675324
-0.02252654387835253
-0.5233740036029454
0.5459005472731405
0.4003854104903728
-0.498281787589514
-0.9189657161940051
0.9416669223331949
-0.02270120612015111
1.06770711195152
-0.01124129198885471
0.9348577460499276
-1.116666446063787
0.1818086999483936
1.067156120912169
0.0005509867569361428
-0.6644113514347733
-0.05969671689808561
1.262240766927461
-0.8643074917963508
-0.3979332751326012
0.1481903998786365
-0.1099332129980612
-0.3257466513409167
0.435679864618661
-0.2855097654507683
0.1918556039688987
0.09365416191140574
-0.5836911101298375
-0.5155594705457676
1.014071321304834
-0.07921357558010673
0.009881022914964531
0.8254986782585358
-0.835379701134328
0.5717429177096874
0.6904978516849217
0.4390461364721294
-0.03085525997344209
0.4312406704705328
-0.808060862160097
-0.1025244233738402
0.9105852854615124
0.5020707087051934
0.2539830470966805
-0.756053755812865
0.006836813278325683
0.5289894654351366
-0.5358262791607452
-0.4899977544136919
-0.6042161369489167
-0.4227521052141713
-0.6939143402452389
-0.02719679429194376
0.2706266309363852
-0.2434298358795368
-0.9247520005992507
-0.00509305330105888
0.9298450539480172
0.3086274563028033
0.0747035366275523
0.7615949176362931
0.04981520624256179
-0.5330059929991195
-0.06259295356343898
0.04599515427740185
-0.8540560172346557
0.07591017389489962
0.8632601719785354
-0.9391703458579088
-0.3468242487808365
-0.04095771639543469
0.3877819652850352
-0.6820473069489749
-0.2427046897405029
-0.6343673863413173
0.7102775583031188
0.6143983715218378
0.2118997993662093
-0.5433733456205797
0.9456383216345826
-0.7789418711544637
-0.1666964504435648
0.01086776499067292
-0.008621481602859202
-0.002246283347461971
-0.4034844127179165
-0.09479737472843788
-0.2410196320416221
0.855417998551236
0.04814308153011577
0.3344637157760105
-0.3826067969127158
-0.4613640691467909
0.9634347743355641
0.6804596995933252
-0.7829841249809527
0.319781777813351
-0.0160502889929362
-0.3037314889372946
0.9307300050121355
-0.9307300049971241
-0.7811954706108574
0.1109811945390374
-0.323397927491389
-0.7499279371788483
0.7598089620933465
-0.09054553904054241
-0.1433684995491915
0.2339140391505831
0.8649075143854005
-0.03940883309304472
1.054432569529887
-0.8004495280954345
0.1866865891399653
-0.3162600573040477
0.129573468007525
0.8585343316957649
-0.09693941463273713
-0.6114123121461603
-0.0390647070811181
0.6504770192573762
0.1234416476942409
-0.2304988558287595
0.1070572071502684
0.8055870508014813
-0.9835799533616855
-0.434422968136503
0.3291935475749638
0.1052294201090336
0.5331307849112701
-0.5556573313258697
1.021909572539617
-0.4562003759173827
-0.5657091966132126
0.5991574663129008
-0.7193303253683433
0.06660649821616677
0.6527238274626734
0.1024805715942026
0.5695703133481033
0.05533020895420385
-0.6249005224194252
0.1946446571166959
-0.08366346232791511
-0.4922422484795758
0.1454179987665836
0.05023942582538484
-0.8864419801191209
0.836202554229677
-0.4732642059512572
-0.7132235484774222
0.04881219870900522
0.4372089336848619
-0.005968259785715883
0.3000061161185142
-0.8552735771938038
0.5552674609016223
0.4157556343656393
0.5842443655769777
0.5605109695803685
-0.5145158199785534
-0.3679248653582018
0.03908992219665717
0.3288349455352632
0.681279638786885
0.249450366858585
-0.5667408664036435
0.5735776800918678
0.1114622829521298
0.8750084206392312
0.0101917693303618
-0.6216040795424289
-0.74907213459436
0.7993115598489245
0.5305056108512588
0.0699754824845899
0.3014175110488757
-0.3713929937106307
-0.1674482646176391
0.4447523844304382
0.08423708996232702
0.874772551122813
-0.804953225623625
-0.06981932556706599
0.6353188832946823
0.3103194400871215
-0.4306812069061034
0.573697147982387
-0.5037216650599291
0.4171109504657102
0.1329094757616908
-0.04672842142383112
-0.5934226331503321
-0.1385748858131299
0.7319975189781742
-0.1497638346034627
-0.7809661674478861
-0.6110041495287324
0.3602995443573982
0.2507046061428955
0.6219259073376678
-0.6117341384516758
0.2391871915829055
1.011453172774805
0.04297939626928029
-0.7490721363563408
0.2324145374858438
-0.2215467687014142
0.6804597006230383
0.8017494089187887
-0.8017494088599803
0.8376297827656468
-0.8330948176045679
-0.004534965227595977
-0.4453514518097543
0.8611070864933495
-0.1472850870143431
-0.3449571590067861
0.7347486301530554
-0.6685455872548147
-0.06620304284098906
-0.7358556164111686
0.1424329845120112
0.1390457334553267
-0.6720517260530139
0.782984135783086
-0.9504324003463865
-0.3686775326548932
0.2893049213267255
0.07937261274856942
0.1457723776118599
-1.010093671786537
0.8643212941485715
0.4811052076064927
-0.04205907106795536
-0.3080893948307748
0.5863054945550475
-0.2782160998385538
-0.7386040039955241
0.8843763836490065
-0.1570159616134016
0.7311222520349347
-0.8415570876717618
0.1104348356076894
0.9762837354995667
-0.5392259287093879
-0.4370578067323575
0.7550209858820569
-0.06501460591801124
-0.03299883010059199
0.1846400204414675
-0.1516411898528696
-0.7758165039335291
-0.8400451512675
0.07418227869044865
-0.7499279367552202
0.5136783635473692
-0.5546360771597669
0.1002709974787013
0.7174371559669128
-0.817708153572492
0.7536071123746897
0.1743025388400365
0.5029269941203571
0.4970730059003771
-0.05239577575059474
-0.6125301746357102
0.6649259500833992
0.882700402282841
-0.007927854327323692
-0.7550209858961096
0.7993115600354116
0.1915645542491456
-0.4474633167302549
0.01385917343626079
0.003801514624895966
-0.01766069131466247
0.5886479612781211
-0.4374532537993502
-0.1511947078705316
0.7180051295976875
0.01007426280451965
-0.1089228992150899
0.438113366573402
0.1505345935823889
-0.01646815053209723
-0.006692529111041113
0.02316067974947032
-0.03093913481880313
-0.002059692055738374
0.2455832501273207
-0.261633549330375
-0.9587653699197315
0.00135950510180389
-0.1594538098758791
-0.1230942807431599
0.09446535840524097
0.7224151368090822
0.7289707928445401
-0.1447264269050975
0.6746992833716298
-0.5744282837280809
-0.211825903894633
0.3985124943110976
0.6956246059078491
0.02238052370935049
0.2418254538479434
-1.07492027291026
-0.9504323991312392
0.3026591931457319
0.7598089639205161
-0.2092286821734114
0.06586017972403517
-0.7237746412654913
0.9110535670839123
-0.1872789258319377
0.4155427358786104
-0.02776076477974078
0.7711879468960601
0.2806696733546269
0.3761168174971443
0.06779509461318371
-0.6587082144917775
0.6587082145102249
0.2146846703505593
0.6959006130723288
-0.05640507110624466
0.3908687849862967
0.3792747912931166
-0.01471851600206762
0.0285777004253391
0.4483914500030499
0.03271376045176438
-0.7386040031665289
0.5339910559544044
0.2007575724543527
0.3006984980699399
-0.116058479898192
-0.6956246053362817
0.179875945642834
0.7311776214047894
-0.0101846999404355
-0.8136468321702226
0.823831532124761
0.696398070093827
-0.791990745209286
0.09559267507230516
-0.7536071060120715
-0.1503069769455074
0.2117712224393916
-0.06146424476978127
0.07738765188784393
-0.1787239418241612
-0.1123544582788497
0.2910783992724199
-0.008436889341406573
-0.008031255239349413
0.7062976023950641
-0.7164822950828938
0.8868470612887954
0.06866551771868977
-0.3107305689870053
-0.5233439784441116
0.8340745475670854
0.1031794218614129
-0.1031794239674652
0.3283948383135633
0.4774126964782543
0.6094906555640981
-1.086903352104976
-0.1940997641078553
-0.5855321183786528
0.7796318824729819
0.01265464853103922
0.2212593841587802
0.3763378526065765
-0.2528962166309035
1.015684648158752
-0.5382719548683446
0.6681390724384871
0.9923033977952311
-0.3828127453868373
0.2290527699449114
0.8843763856990277
0.7126385674785193
0.213873832265687
0.7277930866268528
-0.7809661668157728
0.3412917746250776
-0.2847568821385714
0.2602138306742289
0.02454305299890087
0.8512337425496135
-0.006427024260258906
-0.844806718490078
-0.7020996311676154
0.702650615672936
0.5546485466476002
-0.7020996328192178
-0.7126385674729931
0.7026506137959322
-0.03361008800740525
0.9073891391239161
-0.02054207449810035
-0.6812796484849792
0.6122367538135418
0.06904289467768607
0.5386292332217831
0.5385047676088576
-1.077134000842112
0.4876019805074273
0.5280826666607094
0.5483556339740634
0.4577245121897417
-1.006080146211614
0.4934370383688649
0.4988663583092703
0.6122367605450814
-0.5256960816574744
-0.466683537248778
-0.5559749241689577
-0.5141294783815498
-0.1241199265901521
-0.01282441337500099
0.01282441412201635
0.5096002001573724
0.5245425052769299
-1.038671983759761
0.5722887339901467
-0.2708712211547472
-0.882959640344479
0.3437337122631166
-0.6327408796370274
0.3900361913410697
-0.0001123880635930377
-0.826662977089226
0.8267753652024136
0.4208814053776072
-0.02502781809833053
0.8762615617718492
-0.9450979596982647
-0.8340727109884859
0.05676535231139545
0.777307358760047
0.5534934169387241
-0.4374710038283279
-0.1160224131245263
0.65017579663624
-0.7293893716246788
0.8861089371222968
-0.8269340704495007
-0.0591748664737782
-0.01447810110523135
-0.7904751273790026
-0.1112807742502317
0.7143004251062224
-0.6030196508657693
-0.9414827347797917
0.9270046334330057
-0.7332400194040686
0.6882278616776062
0.04501215775734013
-0.8011222154982698
0.02778737376077793
0.7733348418242093
0.06189103670125023
0.04128838790982298
0.4329155928272944
0.05898903470511518
-0.8499689885430379
0.7909799537417834
-0.6457491265540632
0.5933533477087868
0.8891200635627118
0.07352776945701307
-0.9626478330596155
0.05504735534358484
-0.05048541633701902
0.3793203568518591
-0.3818210255769939
0.06556096651619288
0.8405101843946711
-0.8406225752577879
-0.7324566920268211
-0.8127690230210889
0.0222938954020171
-0.1677777906375063
-0.8477587984825877
0.02082472228630202
0.6228051828829702
0.051894102447416
0.01868458200169881
0.5348088289664074
-0.8158072902288331
0.8435946675509233
0.5657091978537455
-0.8516907990062388
-0.8679549635061105
0.03943417925066625
-0.02995345097102616
0.8338821515498029
-0.803928700541529
-0.0209834400830048
-0.7624101405480711
0.5442836123183378
0.152114462110552
-0.01807486345962342
0.8943364245999484
0.9837699872312277
0.8612102918893612
-0.8403855721575384
0.1477554509103222
-0.1477554522562019
-0.117543962900229
-0.4643136602767828
0.02684265350382313
0.2711445188824288
0.0315146745672932
0.3861910736558152
0.8733529863933935
0.00780432428463218
-0.01624120556852045
0.6585940282475498
0.3414059717699455
0.7835966760987395
-0.583691111924044
-0.7780690024297502
-0.8103557203347687
-0.6799494032429538
0.6799494032492214
-0.1682313867841211
-0.1551665361936723
0.6020275683184986
-0.8112773124473106
0.2092497441534152
-0.4940563945719167
-0.5688407307184746
0.2780045262461117
-0.9719188668596586
-0.8985894726312619
0.8394145986014986
-0.818358178526536
0.8406520747394373
0.6484873603848557
0.1343974651891313
-0.7828848255905319
-0.7653435628727587
-0.1464276320089568
0.7253638472402454
-0.5789362152587137
0.02523648898907875
-0.01206803772425077
0.01554917149382459
-0.003481132877191537
-0.3523546686761828
-0.1119589883975477
0.8800320974207668
0.7407994938213744
-0.2396353596310052
-0.5011641346360415
0.6247770845976349
0.6857520951557134
-0.4710674259860598
-8.163139360539522e-05
-0.28542813528015
0.01195694674880554
0.7488226357371658
-0.7607795823074931
-0.3234315038045225
-0.07217144678448291
0.07622510929268385
-0.9676706328968425
0.1228639165005477
-0.676879843002208
0.05439740647232966
0.6398685444388339
-0.6942659509272091
-0.756326819082997
0.07944697608156034
0.5893941454800186
-0.6615655921862426
0.1566362765982212
-0.3353602191624363
-0.772291768651198
0.006948205734961105
0.3711093325392189
0.5997889409381341
-0.02609178987527831
0.02039143411244697
-0.02039143494450811
-0.01951692975620599
-0.05147557576862193
-0.2332812976310683
0.02346111265144286
-0.01565681220587682
-0.7203976684371963
0.2793753937319382
0.6787149019875962
-0.6896837434059901
0.01096884159584888
-0.5956121547045293
0.6500095571439478
0.6546100243457855
-0.06521587739964914
-0.6307900352483082
-0.1255367865569419
-1.050031317293955
0.01119831570807459
0.1365571393974495
-0.7084407224330267
-0.7420708133330901
-0.763989393005713
0.3660561197966684
-0.4055432442431198
0.4647242385228169
-0.0591809940985814
-0.6695803915071337
-0.03886033087782565
0.4998876560491113
0.7306843634322563
-0.2354647717461393
0.1123704918585776
0.9607224296851465
0.4464649641849863
0.1321494948898205
-0.5786144591344625
-0.6769557206766569
0.00737533149644201
-0.04445850459685512
0.03239045425542733
0.6373020203566669
-0.7758769058403284
-0.002530076279732771
0.00253007607980913
-0.6002485783777565
0.6497370417417371
-0.04948846342896651
-0.6582711407347505
-0.1138135908122499
-0.6717559039499972
0.05681196235973649
0.6081139832209965
-0.1376523336551541
-0.8181835358967369
-0.5694340641066888
0.572175274025959
-0.002741209803512729
0.6297372578407068
-0.6187684198364339
0.3224214330633693
0.2136034605742508
-0.5360248936367623
-0.1047687913621803
-0.602319335587543
-0.09194661618938352
-0.1537836094247375
-0.5126221055068726
0.4043276114126478
-0.4991249878133709
0.1261398545472164
0.6787584818795268
-0.8048983363860586
0.5991574663091136
-0.3732690018661625
-0.0322742459479398
0.06340373775522075
-0.5760258452950207
0.551361957313073
-0.04040774431241934
-0.5109542131351383
-0.3129951815176256
0.3056418464385002
0.00735333589717487
0.4511543814704569
0.1211343521951209
0.0522906891488898
-0.3164314731543207
0.1574483303344783
0.1589831429845482
0.2488518082697024
-0.01643727527921102
-0.2958025891958376
-0.3122555524575661
0.3550958744694467
-0.04284032012121097
0.7910029877026227
-0.6283733306187309
-0.02989781035171524
0.4994409881434136
0.285489222262137
-0.525124581335469
0.5774471304299104
-0.5774471304293762
-0.2897804405918607
-0.5865056891454897
-0.2955407163557343
-0.5865056893202815
-0.5965917087440854
-0.8384789543712435
0.1699333649077375
-0.6015306695253937
0.8211932895631681
-0.003274120529086501
0.1183016964211322
0.4814872461378491
0.0967685889002604
0.1858098411872716
-0.0362782564153812
-0.1495315837059729
-0.0293554039784851
0.5901804967224409
-0.9424326551616518
0.4190886732640118
-0.006392808448697161
0.0007974526847213551
0.005595356454068562
-0.644152093048877
-0.1321239621387858
-0.4667525771196183
0.5989020745970101
-0.503509431482105
-0.3176791381105366
-0.2583466926191899
-0.2722168168532655
-0.1115041035061036
0.1115041038644885
0.1535893791199197
0.05818184597303765
0.1970081605534017
0.4482869570443029
-0.5694560798993841
0.1027034995544632
0.2538210226973943
0.4663835025444886
0.5336164980788175
0.6456440327417446
0.08311276427160269
0.001541433990013278
-0.08465419707975669
-0.2771097302630964
-0.5410738056919733
-0.5463030651078868
0.1147955896745109
-0.1266329139819485
0.01183732470770155
-0.1056522798570497
-0.3853649032463698
-0.05003187341863939
0.6581458738905602
-0.4994738004833886
-0.1446782925277124
-0.3263006167578972
0.2859799837020329
0.1289778642909833
-0.6132886128948276
-0.2045096508717284
-0.2629333035881954
0.001299770399114515
-0.4209843121293526
0.3227296116576707
0.09825470076099363
-0.09120606449652977
0.2917241744736211
-0.895940312801452
-0.4573819198229812
0.6287904671347957
-0.7732238440333521
0.6684550527079601
0.3403833673168396
-0.1251712608436416
0.2242633702790624
-0.09909211013008704
0.03124113373029938
-0.5861921482156695
0.02874553560567631
0.5574466123734112
-0.9006177337795049
0.5477592897129465
-0.6653032525810127
-0.10301806025584
0.1093974817405161
-0.1093974841684406
-0.3165131059417812
0.358989264984315
0.02033108689204311
0.0224130425942565
0.0606997074774655
0.5044138220463694
0.6678146846483931
-0.7376340123283258
0.02621455081843558
0.01979216112087225
0.0005992666418948703
-0.006467964269771125
0.006467964915645105
-0.4099159882934351
0.5310503388025601
0.01573525806350433
-0.01573525795241686
-0.7926692030991107
-0.06034622457604789
0.1222372548445692
-0.4522843308909015
0.5549878284478955
0.4503663978145912
-0.4998548571844378
0.1501930560748606
-0.1501930570525574
0.04168858411355444
-0.01311087847244004
-0.04167390857220943
-0.9758421324760326
0.5387843272200415
-0.469096986880023
0.04128838631258883
0.5151820314917702
0.03047649724425168
-0.5456585289291312
-0.6164136791292967
0.1169398793374587
-0.3291775850067721
0.01360163382800205
0.3155759505170718
-0.1548891498554769
-0.08057563289058076
-0.5409873636494572
-0.04520477884154125
0.1365571406778902
-0.0409048490750514
0.03837476938708751
0.08124714791803817
-0.0812471450184373
-0.5270529752446482
0.4842126459042098
-0.4148621415561111
0.1612964168887261
0.6223002592535634
-0.09712721265988797
-0.004842257735700784
0.004842257610380121
0.5329899919883772
-0.07847978117090627
0.006218056593580958
0.02715965911268625
0.03482043541098092
0.6887302920122477
-0.7672100733475573
-0.6600316010023827
0.6301337923295567
-0.110107697932553
0.3138907251094741
0.7455452087245413
-0.0195169286331616
-0.2653159813624548
0.1492575099437569
-0.7446039250176949
0.4837805706163645
-0.4261244900650138
-0.1012316403745111
0.003296251211235464
-0.01458402098495468
0.02500256726211789
0.4119885544687511
-0.1215877192185415
-0.3893664937913518
0.6290462205147315
0.01929235804811239
0.009023336112269518
-0.009023336009561624
-0.3529379007160788
-0.07876601345877877
-0.56031046633663
0.5570363456424615
-0.2375257157359345
0.4647177835183535
-0.1506427325967266
0.7309473690616622
0.6696274698787043
-0.04090485018280816
-0.6171337812190694
0.5607045708487003
0.2819969473610255
-0.2771634775240501
-0.004833468758478543
0.5389277306017493
0.09344371200188628
-0.03880558019932951
0.196320103635152
-0.1575145229793065
0.1200527307469911
-0.1200527283108053
-0.8586211699827824
0.002437599357209309
-0.1133446956836918
0.1405043537078522
-0.1315453156007368
0.1315453161806011
0.01979216761368724
-0.02435919251952379
0.6704898097692864
0.06068781228840515
-0.3226851631190233
-0.06267973973125177
-0.4712941503708977
-0.04430366931595227
-0.1513337468674331
0.1513337478351783
-0.04296560754394611
0.1436462348761608
-0.1436462356323612
0.1363828426252051
-0.1363828409266694
-0.3161570496010143
-0.1145241572420081
0.2260328387409708
0.1031607085157523
0.03478963156571011
-0.8212367978928384
-0.1979985636842919
0.1699294422230554
0.02163510700171265
-0.2643480236566177
0.1261869341474374
-0.1261869348055768
-0.4143219187714913
-0.08480306674420336
0.2357835957650367
0.002803138215774006
0.04034229973320948
-0.5446257081505028
0.5782357961453379
-0.03198465737510541
-0.0109809486202712
-0.02477877973381739
0.01166789288864141
0.006546802576648324
-0.1847164231331059
0.1781696206131566
-0.1079554055796328
-0.2274048123800342
-0.1444121058172905
0.1444121066195264
0.0724360553144133
-0.07243605497317691
-0.01898292069195002
-0.1085715701631134
0.1275544902875269
0.2341471706429491
-0.1834217114105364
-0.0227334117676234
0.02333267022295563
-0.1289104764513551
0.6131231228940107
-0.03906805317919702
0.4260773597254925
-0.04171082066111936
0.0648714898287437
-0.1531202894681215
0.1531202907588981
-0.6365577086528539
0.3081687322071482
-0.07911596255532494
-0.2341567518358011
0.003657892718109018
-0.1216717033280742
0.1620140038961978
0.1946766597601542
0.0964017365206048
0.09559344201056853
-0.06077300677962702
0.07314930287676281
0.04164628599961317
0.06416101279547662
0.1057684334489739
-0.09999587577311128
0.2123663838975733
0.01155341630580878
-0.1156526799049513
-0.1012966561056103
0.0962920681909005
0.005004587021450964
0.01076882866995867
-0.02241846822797738
0.03736223269359299
-0.03736223264714392
0.07464840008035906
-0.0553263237790271
0.05532632402516669
-0.2243726935006112
-0.05078118845172937
0.01178809473425977
-0.1031447449329935
0.01633011298767448
0.1088099286743907
-0.1088099291206611
0.2929313611991711
-0.2708327216954919
0.162877312732526
-0.05061270310001898
-0.2202200180616374
-0.01686275455995032
0.01686275430499529
0.3675496646718553
0.2851741566316943
-0.5279829540195576
-0.09392791063459584
-0.03270500337279707
0.528846076779095
0.2093683778789571
-0.1689142440220935
-0.3809789287366278
0.07658936454997851
-0.1472232185834963
0.1868344115107214
-0.03961119271407783
-0.06716365434769442
0.06716365408000843
0.8221345732766933
-0.5603325999229936
-0.003612293747201168
0.01438112323111773
-0.02004120912134254
-0.2872904995845302
-0.01745930435791148
-0.01286679239159898
-0.1321383839324359
-0.5722990659087096
0.5560972185330565
-0.5686457509809265
-0.006921640027195832
0.09904722020702611
-0.001786545679593521
0.01673744943567838
-0.1672644279274166
-0.3361810674646827
0.2330363224468107
-0.05405674858302469
0.03507382651024852
0.13220783808112
0.1734340095810852
0.3418874047578736
0.2759745094047906
-0.2777610555006661
-0.06292188942653942
-0.1550826584412972
-0.2205551226437401
0.07455622067259539
-0.01039520639604682
0.2135959839743281
-0.196858534944813
-0.08623761573208405
0.1593869225293299
-0.3550422893257917
0.208127225871522
-0.1917971129808349
0.08964883252987735
-0.4790153224108177
0.1739676189029704
0.1706732142471696
-0.25691083517873
0.07317496879805144
-0.1948223863898083
0.1773630824049918
0.01737699952139315
0.1420099223936772
-0.03959105555561314
0.06580850153098758
0.4671814908841764
0.02049947428413029
-0.08346026542425576
0.05534912148547667
0.125920328489717
-0.2601663170690779
-0.2309516410917218
0.5597205944130034
0.1570056032299606
0.07877799360062361
0.07487140591041178
-0.03107564037758569
-0.001484407144972012
-0.003349053531696262
-0.03259801195323978
0.1707038585939997
-0.1776254990093899
-0.05845770068368832
0.01972038172806669
-0.147093983930887
-0.05281246965808737
0.1539086726348027
0.2770513675416554
-0.04059556151671687
0.01018348681747794
-0.2551655854744481
-0.1313568182284668
0.2362341804382101
0.1786343992560822
0.1295343313748613
0.02179886601903415
0.08848643456076337
0.052244321008075
0.4521695010731057
0.01655800776569616
0.09792768998374113
0.04299321845011594
0.0722960573920156
-0.1152892748399138
-0.2428087949789082
-0.2004332707492872
-0.01978674972661717
-0.2019639518685549
0.2749523304953619
)
;

boundaryField
{
    FrontBack
    {
        type            empty;
    }
    Top
    {
        type            calculated;
        value           uniform 0;
    }
    In
    {
        type            calculated;
        value           uniform -1;
    }
    Bottom
    {
        type            calculated;
        value           uniform 0;
    }
    Out
    {
        type            calculated;
        value           nonuniform List<scalar> 10(1.035957614862087 1.064325314630363 1.02265846141567 1.021519706059077 0.9962292788771034 1.012995836784446 1.03414270586266 1.06289712529198 0.8672275751228319 0.882046405512499);
    }
    circle
    {
        type            calculated;
        value           uniform 0;
    }
}


// ************************************************************************* //
