/*--------------------------------*- C++ -*----------------------------------*\
| =========                 |                                                 |
| \\      /  F ield         | OpenFOAM: The Open Source CFD Toolbox           |
|  \\    /   O peration     | Version:  2412                                  |
|   \\  /    A nd           | Website:  www.openfoam.com                      |
|    \\/     M anipulation  |                                                 |
\*---------------------------------------------------------------------------*/
FoamFile
{
    version     2.0;
    format      ascii;
    arch        "LSB;label=32;scalar=64";
    class       volScalarField;
    location    "717";
    object      p;
}
// * * * * * * * * * * * * * * * * * * * * * * * * * * * * * * * * * * * * * //

dimensions      [0 2 -2 0 0 0 0];

internalField   nonuniform List<scalar> 
808
(
-0.03561863289067729
0.04482682760935152
-0.01149588453412603
0.03531941569010594
-0.3027495317667216
-0.05490031701474304
-0.0147731464443886
-0.02401671478497123
-0.1994751387665575
-0.08539532366156766
-0.01002154434505307
-0.2570041756495786
-0.03061250757230255
-0.01318537649816749
-0.1199841066189831
-0.0141001558855916
-0.1374604444152786
-0.01361744030641778
-0.01235657629111096
-0.05672876458180322
-0.006392115010541355
0.1181340042832294
-0.06119886136956439
-0.07311824753738835
0.1763523396741224
-0.09963263141733793
-0.1547267910168629
-0.02033215756256847
-0.0173833893346644
-0.02585226684474563
-0.020215943831937
-0.05962736139980554
-0.02284797841029498
-0.01682492960396337
-0.1010329183503692
0.3440434905992909
-0.03880187926424428
-0.01660959788913394
-0.02318670257621929
-0.02654115000777477
-0.09175822302683889
-0.1286694346733472
-0.05108343872443736
-0.02086962846078054
-0.05414181380141439
-0.04023006614698042
-0.0122247391653085
-0.1870399269853522
-0.02748194902003788
-0.2068594913556489
-0.0163989345144534
-0.0686713047937817
-0.05982422710971303
-0.01439362774135644
-0.1910918000109517
-0.02883755933180722
-0.01048989113801169
-0.01381872758979679
-0.1020653958556725
-0.04048705859289479
-0.1041559951662589
-0.1281198757876042
-0.01367867854848234
-0.1307857419974109
-0.0171800362644223
-0.05088603264419034
-0.1675771712839674
-0.03559003657110209
-0.0148606966282025
-0.4449267022764058
-0.02685628843902215
-0.3062252091578119
-0.02193474214283466
-0.02064146079925549
-0.06706001149700756
-0.01744532271581805
-0.0433268805388483
-0.3594659329689899
-0.03568855990143072
0.04182386470735402
-0.09043039801162746
-0.01719648025577784
0.05690223383793101
0.04369807538365646
-0.01669972640605998
-0.05309702707701586
-0.5472856171118572
-0.2236129804757395
-0.05317567827532937
-0.1116198606689167
-0.05777716314043697
-0.1346768142274479
0.04043092270388767
-0.0241737342296808
-0.06087875960604036
-0.12174350750891
-0.03842891468718095
-0.05165916121184755
-0.1179965560469018
-0.1413221050959492
-0.05232228059960157
-0.0481781307419446
-0.0554118109263197
-0.04558942678542056
-0.05786931801865575
-0.07356450239046963
-0.04054371490786254
-0.01097518579350187
-0.04090203956961735
-0.1262136084034883
-0.05106519867523295
0.08314271631911416
-0.04297047645449623
-0.007844209357982954
-0.02774717148138333
0.180201713261976
-0.03965311591566546
-0.2723682075076828
-0.02043916709147876
-0.05463912068970572
-0.03222408964325814
-0.04811167801188622
0.01276032053037401
-0.04985066295276991
-0.03437722343104022
-0.2148184046392009
-0.04260248158647538
-0.004799728418919574
-0.07741611114323417
-0.06786859575721331
-0.1515919037910092
-0.02109518071154137
-0.07640180732752279
-0.04150088867656689
-0.02284088824317266
-0.01641056322055389
-0.006221259959764479
-0.007539001195413111
-0.05298876018646597
-0.0507346912599466
-0.2079550001851948
-0.05784315010939173
-0.008478635927491769
-0.02264704831384499
-0.1454434229362357
-0.002086070486383289
-0.07753347161335167
-0.0234665829136496
-0.0008085570144648426
-0.010085592043743
-0.03376130873288465
0.09534293664809142
-0.03960754411894701
0.252628909886754
-0.2602609596081367
-0.130837533267957
-0.03735096338064056
-0.09100942377459749
-0.00903102542177198
-0.1121565746270535
-0.1805789419674664
-0.2119406730379391
-0.183985735760179
0.0555299909445973
-0.06213390082422963
-0.02035573874211776
-0.0677451489628557
-0.1752475169607571
-0.02379262621226003
-0.01867568190959005
-0.05308102249814292
-0.01837558387399523
-0.006255476319074372
-0.1101332643956228
-0.02298011070094226
-0.04640582277999427
-0.06911465734001096
-0.1635839163359102
-0.03362208301601483
-0.3938620414251846
-0.01780655450057825
-0.2231735720737922
-0.04523754537028735
0.03080201383897294
-0.104446710163607
-0.01451160348521049
-0.04186439597331038
-0.1061762013861776
-0.01776405670041678
-0.0972137632241835
-0.2034495922533399
-0.07291853363081453
-0.02384961094411159
-0.04957608382122592
-0.04363329539109098
-0.2020677071417933
-0.02199762330637413
-0.01906581855197956
-0.01136396631157425
-0.05501028642577541
-0.05182181264407066
-0.02254096499874364
-0.02075358401830897
-0.2440240802867535
0.1279109441278889
-0.201444218549052
-0.204443074328319
-0.01175083640290093
-0.01154946282319341
-0.067544179707033
-0.009554948894752139
-0.5088625644949174
-0.1261929890155477
-0.01913202979768609
-0.001606262484660317
-0.0241899843372746
-0.2854049192668616
-0.2742586614381319
-0.007330610527010733
-0.01793684473147338
-0.002367924113365048
-0.3448106762051341
-0.02836725865999375
-0.0292452194244459
-0.01257515287601827
-0.01968938244199257
0.05067676658025901
-0.1161084783494938
-0.01378319060046102
-0.02077946334124798
-0.04328719975929304
-0.01825784714856516
-0.01623254527202139
-0.02339267855244117
-0.06687352932375278
-0.01166846253401145
-0.01901801372589425
-0.008700861228187145
-0.001140623647747087
-0.02948054644455511
-0.001717317417070671
-0.002200257539256347
-0.006039487517612735
-0.02557640489350014
-0.008077146773012956
0.001644756381991309
-0.004093269633077194
0.0011165596842324
0.002408625791544481
-0.008560254930158596
-0.1372094187831365
-0.003005259192679846
-0.0006624402947347044
-0.04807818318218149
-0.02141779231947463
-0.02472933979212448
-0.01423442603257279
-0.006106825416270509
-0.02096677013342605
-0.03769942371503663
-0.01443046760287142
-0.01267027496695181
-0.01198847772489919
0.005665529455798696
-0.01002631024340013
-0.01263585405116684
-0.01124881922903391
-0.01057253185391306
-0.009993077500802102
-0.0109898702870465
-0.01396568423017883
-0.3052185511067008
0.06082534677871975
-0.01511660033257841
-0.01656334307444469
-0.01281803313079544
-0.0125745292952242
-0.008527803659766789
-0.09933428936253394
0.009289217549634608
-0.01407803352809049
-0.01457718701134683
-0.01080874931873109
-0.05307382619348854
-0.008819802167346347
-0.0139894766709577
-0.009148276336124557
-0.00174032531519618
-0.009994420159617086
-0.01041708428745585
-0.02479277995249498
-0.01618847806492017
-0.01216528301868215
-0.01330547374769246
-0.00906791501623368
-0.01327812117875695
-0.01118586610032606
-0.0575874889303639
-0.01292130042592766
-0.01182362527169747
-0.008814876291077234
-0.01505223752406435
-0.01416357087294005
-0.01573983342281311
-1.379895512302621
-0.09849964744165356
-0.0124382440612735
0.02226341141280769
-0.1655696545897924
-0.09357147666651845
-0.01144709558046257
-0.01412581084496979
-0.2556963893757024
-0.03060610516021391
-0.02024147638826031
-0.01115055656839619
-0.01989695886738568
-0.01124479049960742
-0.03069988188995815
-0.4151145880978576
-0.01214159533505271
-0.01409028080443698
-0.004797923037987613
-0.01038692640009327
-0.009163076577144619
-0.01427171789025445
-0.009638013683606731
-0.02639360332421653
-0.01134882839166604
-0.1612988406886074
0.01754122658837519
-0.007723038434590944
0.00285731769690013
0.01231950503572438
-0.04754530453984177
0.02964626117600668
-0.01270285724326051
-0.1359665164297141
0.2820501652169799
-0.007573741562440552
-0.01314770040510822
-0.008351726098845304
-0.03331839779051603
-0.1227480193970256
-0.01340276336831308
-0.01231996507182451
-0.01716877217876957
-0.01363970759472418
-0.04101684271475922
-0.2145934212533782
-0.0110149704018211
-0.04146541059575484
-0.03965819515729672
-0.1682422319707782
-0.1613710180996112
-0.1506063377547283
-0.2582909867618881
-0.005827265552953143
-0.02121087015157552
-0.01485677529377423
-0.01307321656066302
-0.03290926826415534
-0.02438896482123408
-0.01440210176811315
-0.01504417204444487
-1.082111768797713
-0.004057575201445212
-0.01378774027585111
-0.01832988686452051
-0.01759964007080042
0.004565332648015165
-0.01388294795142176
-0.02764244910992905
-0.1666171809083241
-0.01355782856010162
-0.02184739618569263
-0.0141873784279484
0.00226829446003754
-0.1783625103500296
-0.0133347473129706
-0.1471931024265506
-0.01598932761811698
0.00989780436263101
-0.0143571248896247
-0.02328358830962374
-0.01593701706539143
0.006010485842367615
-0.2759041815619771
-0.02571023500163088
-0.01627754986413217
-0.01008177153093904
-0.009703371259971665
-0.03043848310349246
-0.0142787012001817
-0.02054473364897911
-0.0212633330263087
0.009416229290393279
-0.1008052329708259
-0.02202329367080072
0.00928779688285237
-0.05185811976341952
0.1607422971271101
-0.1031972830212341
-0.3220207443900643
-0.02998830482035656
-0.02542291094720379
0.1489985397577359
0.09250751095804058
-0.003346788976570069
0.05077840474140493
-0.01572610438347479
-0.01428594434975765
0.002300991463816195
0.01148046219752846
-0.06694359458288762
-0.005181248354429579
-0.05745999754081074
-0.0225118262043752
-0.01569505063847356
-0.03651501255256602
-0.03292581873619451
-0.006658799411979325
-0.01478235186691667
-0.03910143466456747
0.03519284606129968
-0.03881315126956348
-0.01353078286000147
-0.1165729170337199
-0.03174302512428216
-0.03870400061775201
-0.6777647972399453
0.01639878699371638
-0.01114660836864474
-0.005263388409815238
0.1706491341399555
-0.08946091653407601
-0.03512452400118313
-0.2469703889328368
-0.01627805543766484
-0.0165291848414779
0.06304129758489582
-0.1852300276541666
-0.2250653066204541
-0.1954836104920573
-0.6863820636183335
0.009491816892649878
-0.01857983870484231
-0.01601701810123139
-0.08421312907093194
0.117747200541487
-0.02144441360065578
-0.2512561815569053
-0.03515339912029481
-0.006492966267036638
0.2763734619544745
-0.01112948750923089
-0.09371258615243487
-0.1490961354670789
-0.004699610731285392
-0.04058357318282598
-0.04477078403128006
-0.2030354019885174
-0.008798719594203972
-0.0420731246054259
-0.003017537214398516
-0.5514866318162344
-0.2002245017576189
-0.1755734865888882
-0.02291638826815938
-0.007344697558681172
-0.06011486706630571
-0.05814845559263899
-0.01558623694945215
-0.0676998175428021
0.003546968673650349
-0.01825640948600953
-0.0958552535998736
-0.2682387083704981
-0.008493754423912449
-0.02592750904237372
-0.02198961103966467
-0.07439423929158874
-0.09108175939475646
-0.08789699129253467
-0.01126695087579632
-0.9248494412077182
0.1605860159190335
-0.08139178551653949
-0.2571440189901085
-0.04253395524139897
-0.009985764483882154
-0.247383841102931
-0.1847742811150366
-0.03315170969753301
-0.1222630328739512
-0.01818451512458702
0.5622541317496569
-0.02403840222388441
-0.2248080374156698
-0.02609783659634615
-0.00487563182626056
-0.01168208519984923
-1.256171568378716
-0.1842561581821816
-0.2336441099666425
0.005400391541304101
-0.03739850530514117
-0.2470436397107606
-0.0655118765253781
-0.05103019145535286
-0.1418676279572203
-0.1920537226226933
-0.06795699114626479
-1.229893983073538
-0.1489713369431114
-0.5232011706136924
0.07824518610645706
-0.007026355547378457
-0.02190548390873544
-0.04272234894798175
-0.04059018345718245
-0.02863417426430745
-0.1321196019378951
0.07982983174184459
-0.003943617215161194
-0.009696920544506438
-0.5772424613860647
-0.8630494610830944
-0.185083123169656
-0.00801314879260326
-0.1321018062983478
0.0008428310385474629
-0.0007751221515668619
-0.002124236174958455
-0.06054995879387898
-0.2388930999457312
-0.01345191422463731
-0.1195592017097159
-0.1542488159781761
-0.01320798941313605
-0.03577691751305723
0.02288276755950315
-0.0574106196665843
-0.06988015852742366
-0.5021691359280405
-0.2480850172052826
-0.08120287313395187
-0.07267314108457419
-0.01984913739845709
-0.1179230360781701
-0.1573296198684533
-0.07780053262048532
0.02584691591891923
-0.08460432647951713
-0.04820453880160527
-0.01494298396467707
-0.1114756355462508
-0.2734158576719735
-0.05693687989201774
-0.01848918568234894
0.001465130050431106
-0.01014754798274806
-0.01104672262130298
-0.2227469130558034
-0.01458835623638544
-0.2223985766273114
-0.01065139673179002
-0.06500111857429235
-0.003456317618906979
-0.02319521809955767
-0.3796882877688877
-0.9098720759763579
-0.01129762810436834
-1.050853393250716
-0.6126723515781406
-0.01078769941184924
-0.6527544739012208
-0.177242118463503
-0.005280098589939295
-0.1289497562904874
-0.01718495903218592
-0.1217580452670098
-0.06734564022183201
-0.07477782663606757
-0.005445212769738974
-0.00305701002843137
-1.33376511026002
-0.01108830561618898
-0.1896950760057349
0.0005897732474492114
-1.015459799404995
-1.231934289423883
-0.081556728685441
0.01988720563052334
0.1643360555972112
-0.00489514460622374
-0.02300138975767492
-0.004298565134975631
-0.2496651571104931
0.3661436325552238
-0.0410014009607251
-0.2104744458775061
-0.01504655950439114
-0.6592738203105221
-0.07503995100258304
0.1914590316503574
-0.2884676090414448
-0.04988295742936719
-0.06886822938005116
-0.01583452085842145
-0.02166628987056231
-0.5772494839471557
-0.1462535841057599
-0.08844539998275233
-0.1247889484242583
-0.557579345762525
-0.04430355022183313
-0.9108020951731657
-0.000948168600706166
-0.238142751524079
-1.044903034086231
0.1704614138350898
0.2927028397445836
-0.1775516853055664
-0.1937145544953013
-0.2065889401710502
-0.06813367349609832
0.02364980248421275
0.05079623999584069
0.004428335675130093
-0.1610718289335253
0.02488509883195808
-1.353073254344666
-0.08525342110386223
-0.4725294903501365
-0.3290139046357292
-0.2072618322984294
-0.1759067772723167
-0.01693889471551058
-0.01542301902096689
-0.1017195541990311
0.1700714285807741
0.3858435080156828
-0.2216722919757499
-0.14621889798961
-0.2396569966600728
-0.06250140624673914
-0.1546215275438448
-0.1646803638770068
-0.1255473865173605
-0.1172202806778756
0.4675323008434975
-0.2713798531510437
0.4298461180516103
-0.5992729990750574
0.07047153964767555
-0.201221949384834
-0.066194072990914
-0.0740048298076528
-0.8781482899761988
-0.2234037488118741
-0.1892975474291836
-0.3471511312033226
-0.4577951196642733
0.5705779097107269
-0.2049560408650483
0.0002075807222451819
-0.07078168796902908
0.3428443285820191
-0.03752441439361007
-0.1243962905454876
-0.1784642768352251
-0.06423779308524426
-0.01646437189310578
-0.193496342725002
0.1917779347965321
-0.01267836899374467
-0.0963433053372857
-0.1688608606840412
-0.3123124389376506
-0.3135876434596714
-0.07030069969708694
-0.01011502658350878
-0.07504411565722183
-0.6576954412757017
-0.6666054986765272
-0.3358964587337228
-0.05776250950603191
-0.05195707278177062
-0.02533300493317586
-0.06768423655420253
-0.05782003694636932
-0.3595308143827349
-0.9540085180803682
-0.009716891660190281
-0.08301156344573378
-1.134704745206618
-1.029959422863494
-0.103511820476394
-0.03852886555652527
-0.07001885778358932
0.3913620261669571
-0.3450097448776587
-0.05185515866824251
-0.5970865307813866
-0.1276241324303955
-0.253418964553064
-0.2093005912305698
0.4744479354053875
-0.6268739150073189
0.07232713091188338
-0.02946114018641265
-0.5579417325348728
-0.05151834333115642
-0.3594841093498758
0.1062402130773623
-0.1900423290510085
-0.05987620876717973
-0.1335391154689038
-0.3638216483851014
-0.08941476175685638
0.5136286899495582
0.08523723991980517
0.4714824021636506
-0.1173905543260305
-0.1999540487784642
-0.5207531663703482
-0.1297939380199107
0.02688346232969465
-0.05358141659277441
0.1033174604667507
-0.3098806968766544
0.2361994716368979
0.008978384482486126
-0.003317553145052689
-0.5146874193297244
-0.1858879917087457
-0.09290549660954739
0.5812467418563126
0.1383364327171838
0.3471865724371493
0.2257446246077998
-0.5593820569589436
-0.2144762091234932
-0.2185537223878782
-0.2384261399589635
-0.06035419395538019
-0.6959615106506828
-0.1951776940194578
0.3065696104815842
-0.2103350114712649
-0.01106573320529294
-0.1713924207570776
-0.009495561269936958
-0.160494046756979
-0.4355506568172033
-0.0771357937480288
-0.1976841378777133
-0.07282872618836252
-0.09802396943411464
-0.1413823265367566
-0.07369187792035153
-0.452684713234887
-0.4165742801513276
-0.0269002120193707
-0.07435814967013933
0.32579345418738
-0.246812891666782
-0.1819014789309373
0.5260879098946105
-0.2043377872421454
0.01736414071617491
-0.448530447592967
0.04492174651637287
-0.06212989907666381
-0.1564959271308864
-0.5820377124571197
0.1627462818519576
-0.5823195480712969
-0.5329601341961558
-0.1065858146449774
-0.5055888022918685
-0.03727841390099502
-0.145568451553888
-0.408226460320552
-0.01632401298512224
0.2860528164633337
0.4893798994249168
-0.1597921777118501
-0.008283952506383275
-0.0696390555004783
0.5253803377821471
-0.03332811388724947
-0.438267137436447
-0.03263908226918378
0.4600302044404782
-0.01481258713386075
-0.5423073055048989
-0.2415820241105603
0.1754359801128739
-0.3096357936715502
-0.1781263637811192
0.05243128176689539
0.03362301321465934
0.05416596411708928
-0.2985948122129349
-0.1566176197258029
0.4127549430715417
)
;

boundaryField
{
    FrontBack
    {
        type            empty;
    }
    Top
    {
        type            zeroGradient;
    }
    In
    {
        type            zeroGradient;
    }
    Bottom
    {
        type            zeroGradient;
    }
    Out
    {
        type            fixedValue;
        value           uniform 0;
    }
    circle
    {
        type            zeroGradient;
    }
}


// ************************************************************************* //
