/*--------------------------------*- C++ -*----------------------------------*\
| =========                 |                                                 |
| \\      /  F ield         | OpenFOAM: The Open Source CFD Toolbox           |
|  \\    /   O peration     | Version:  2412                                  |
|   \\  /    A nd           | Website:  www.openfoam.com                      |
|    \\/     M anipulation  |                                                 |
\*---------------------------------------------------------------------------*/
FoamFile
{
    version     2.0;
    format      ascii;
    arch        "LSB;label=32;scalar=64";
    class       volVectorField;
    location    "652.5";
    object      U;
}
// * * * * * * * * * * * * * * * * * * * * * * * * * * * * * * * * * * * * * //

dimensions      [0 1 -1 0 0 0 0];

internalField   nonuniform List<vector> 
808
(
(0.7562500644252588 -0.01750580927721953 0)
(1.031240033984432 -0.01252384970271545 0)
(1.116057653522309 -0.002043372757991662 -1.813860126795859e-20)
(1.085122128757983 0.01259842181905715 0)
(1.363422918579607 0.01655926991912235 -3.917131555011773e-19)
(1.038655100831082 -0.009322590042578179 -7.142708767826168e-20)
(1.013488727326206 -0.02052378786709616 -2.314626174960857e-20)
(1.078538723294347 -0.004975658324614057 8.945608907555682e-21)
(1.253424449317043 -0.01902749883645009 6.373830266529596e-20)
(1.084372487650563 0.009890939005238028 0)
(1.013924689175683 -0.01000164260346388 0)
(1.305372641239437 -0.05186630997098608 -3.566352617432549e-19)
(1.085916210407981 -0.001627109061952058 2.030156354086094e-20)
(0.6750463295120167 0.006419154299916794 0)
(1.286173174903014 -0.1167849947355956 0)
(1.081535767578506 0.000185345791207447 -3.806122480634996e-20)
(1.233870858384336 -0.1490713327847913 -1.000767534964156e-19)
(1.07411431484158 4.230263399835655e-05 3.155111268476491e-20)
(0.9931313244485263 0.006113611295437861 0)
(1.026541379662278 0.009188233277630388 0)
(1.040775846674396 -0.01184694296985666 0)
(0.9874550210596644 0.04450509445025917 0)
(1.051109515684437 -0.006064108314383193 5.506008356179369e-20)
(1.053344867478824 0.008780044183043255 0)
(0.9328634599014018 0.197843001845098 4.611331581178182e-19)
(1.166936232782737 -0.08827998588530336 0)
(1.185164212785686 -0.01804285036369168 1.592106872311981e-19)
(1.077377298614618 0.009383442022035275 5.192676461889519e-20)
(1.084166464382901 0.002089692179321757 5.046638250425495e-21)
(1.072044650657802 0.03094279699211708 0)
(1.075639970691999 0.002559786048069125 -1.17214270457134e-20)
(1.033082575251348 0.006439083182618382 -1.967934716137369e-19)
(1.05982445180446 0.0148893058770635 -2.401635815043309e-20)
(1.089125190313686 0.005212229129207878 -2.926242102426458e-20)
(1.119371486224922 0.03828115825863349 0)
(0.7551725389368255 -0.1228300693680642 -4.535560609369248e-19)
(0.9544363497905981 -0.005811773227356834 0)
(1.06899596787307 0.02246853885196843 0)
(1.068842069244256 0.007342710117244688 0)
(1.073589339220722 0.008926154715039452 -2.836676582355832e-20)
(1.09186745986829 0.02371291859420667 1.117729147425028e-19)
(1.149931546438281 0.003812343506117421 2.190751835067528e-19)
(1.095793285524461 -0.002452181580813864 0)
(1.015960411154746 -0.00903712596607502 0)
(1.132145280689909 -0.09837368454490591 -1.656354875479818e-19)
(1.044090346651434 -0.01167545415900409 -7.905007584088902e-20)
(1.058388800794041 0.02665464954955285 -2.850644788777894e-20)
(1.230860881344903 -0.1113408779441331 -5.637576161310601e-20)
(1.067778738742087 0.01227739105395759 -4.273037611623881e-20)
(1.256367950637805 0.01870061936902746 0)
(0.9964661961143702 -0.01812958601079506 2.06379704315219e-21)
(1.044532396602279 -0.002107705597978675 0)
(1.087505623691204 -0.002291263583220027 0)
(0.9982228370056155 0.00667753046552709 -1.8611495268883e-20)
(1.2515087678741 0.03479507656909106 -2.314105417497183e-19)
(1.063860565737228 0.01837482294506881 6.16422147493054e-20)
(0.9901017441862091 0.008285069259974282 0)
(1.019899678681343 -0.01069006752751744 2.373730988846368e-20)
(1.106835582339607 -0.0003647116400850785 -1.203765840779723e-19)
(1.061622509592786 0.03105569203889194 0)
(-0.06874099304525047 -0.006986869266267886 6.967889271953333e-20)
(1.154614885180105 -0.05128116195216415 -1.924589878992203e-19)
(1.004571878615851 -0.008666942157070886 -2.608989946406258e-20)
(1.182982796534608 0.06841128398681208 -1.231919945626723e-19)
(0.9983474408268386 -0.01010825060097606 2.981476744364059e-20)
(1.083994569517835 -0.005554093375127044 0)
(1.243285208731015 0.09866736623500763 0)
(0.6960236023954375 0.0032035548357925 -7.504755993665797e-20)
(0.9901787307865991 -0.01435883348303107 -3.105994818084436e-20)
(1.460399645136383 -0.01649461877720965 4.510872211840811e-19)
(1.060593221033042 0.007562188952063437 -6.82689926342939e-20)
(1.3673443221985 0.09949002431662354 2.935153878029705e-19)
(1.05472116586937 0.006828097276208986 -1.851497861856422e-22)
(1.081266927202512 -0.01399742151537566 -5.374637854653815e-22)
(1.164677624154931 -0.2357382599726056 0)
(1.022195355046521 -0.01430103705097797 0)
(1.017596626666554 0.01749989229508559 -3.152685784754327e-20)
(1.386142688504849 0.3496571442204139 4.148064473259391e-19)
(1.096955114827966 -0.04206618031071056 9.277886290215114e-20)
(1.045539466055919 0.2097645787977609 2.548025308504748e-19)
(1.125758174784689 -0.06233701703795448 1.14867590897957e-19)
(0.9221070023909071 0.00514693900201807 0)
(0.9755110668688509 0.0185657035018199 0)
(1.004120981136877 -0.04895198564092052 2.647935830171065e-21)
(1.010769150316363 -0.01295643982498366 7.387648452866173e-21)
(1.030384110796667 0.02574947758161992 1.407339834252176e-20)
(1.529748893688351 0.03783856488644859 3.287676406739694e-19)
(1.289698574841748 0.07217989402184612 5.463519701654844e-19)
(1.072512549589065 0.002923395709273431 -9.28627035016662e-20)
(1.200577835178335 -0.09512532506307114 0)
(1.033759060105748 0.001642415560282869 1.352880921760172e-19)
(1.16362560990133 0.02253294279132908 -3.239479018612303e-19)
(1.001446096811226 0.03230238038550266 0)
(0.9996280650926356 0.002015780579760017 0)
(1.044406027090214 -0.0002089421138828612 7.674113694707979e-20)
(1.207802745908841 0.1072505581844963 4.080518462840673e-19)
(1.011063213320134 0.006968590767029451 0)
(1.090772140997004 -0.07162503013631942 -1.052499267105401e-19)
(1.149079777651084 0.03744591372119419 0)
(1.209038658884808 0.09556717288679341 -1.930815741310435e-19)
(1.108018801978505 -0.02852742150380202 -7.605847699974236e-20)
(1.027643750748183 0.01153384911460621 0)
(1.085301223090137 -0.004679994548567277 0)
(1.019583464506336 0.02548087897284568 8.182657083979317e-20)
(1.07301668736558 0.05326898391146112 -9.271768807690834e-21)
(1.103756863382221 -0.004289141075086439 6.199796780712261e-20)
(1.109417546960331 -0.09746626953233138 1.539857261101365e-19)
(0.9597874590672001 -0.0003686553845075636 0)
(1.066469780904212 0.03126806580014547 3.878808014724911e-20)
(1.168634206626014 -0.07575587743037718 2.352006431740108e-19)
(1.052610727165162 0.04456676973353734 -2.927677382549993e-20)
(1.022550789348228 0.06730755608453878 3.756861702313628e-20)
(1.090653620765246 0.02616734996039521 0)
(1.012607357578626 0.01766476032216185 0)
(1.028987045228817 0.009444966007907009 7.925268630823453e-20)
(0.9487328118116528 -0.03345160326705746 0)
(1.053140356066581 -0.005709861349857452 -7.961282501733507e-21)
(1.341451795505169 0.06089107420562787 -1.599290235698615e-19)
(1.080008441960204 -0.01329167032617593 2.571017218713816e-20)
(0.7440772254600545 -0.001777182614109719 0)
(0.5366958973413067 0.1575126336690308 -8.153025916781737e-20)
(0.7059500472354602 -0.002542554768440267 0)
(0.6990674583133787 0.01466126505770613 0)
(1.077717247693585 0.003537102245778339 -6.831079817152039e-22)
(0.9906333806684269 0.01449812834177773 0)
(1.278942652668931 0.1233357404398065 2.470162427456453e-19)
(1.012338947623362 -0.02787190656210163 -7.94983801880894e-21)
(1.041246537143227 0.02230876398959235 1.547895295497684e-21)
(1.058477112280778 -0.01185715517339381 0)
(1.126507084407049 -0.009210809778105856 -4.941719137577395e-20)
(1.256568549936045 0.1375747188553154 -2.207586826248839e-19)
(1.089075465473849 -0.01121662180065988 -8.480494148944749e-20)
(1.069813172647324 0.02572832874584109 -1.108040825239195e-19)
(1.040774128807479 0.04671398414683904 6.820735375472829e-20)
(1.022358830176615 -0.003670907139115401 -3.441179286446956e-20)
(1.061275214475141 0.02352042550278347 6.132187930720709e-21)
(1.130247418296664 -0.0060094012380128 1.080256222007574e-20)
(1.040940535563401 -0.0144279590794427 -4.729047940964773e-22)
(1.087752988391362 0.03481570889458832 0)
(1.02838563828248 0.01329638193540359 0)
(0.7734454583941904 -0.05778136359573523 -1.837450611202108e-19)
(1.030159917942364 -0.001868437733130904 -6.96294708107136e-20)
(1.13442925332684 -0.00362069038919846 -1.314418750293917e-20)
(0.703500214319196 0.006570303198719828 7.444762195275717e-20)
(1.175497902404458 0.02043582779229957 -1.904673233367657e-19)
(1.126885734438921 -0.000418651316496656 5.606830576164015e-21)
(1.128995624168823 -0.01005435083065805 3.489267013066235e-20)
(1.000941671820941 -0.002952792389913247 -7.687977600975599e-20)
(1.096138482617726 -0.06821936780050795 0)
(0.9845776632383181 -0.0006318632803207497 0)
(1.057996815634768 0.007088264921940274 0)
(1.005453463598439 0.1882657379457519 -2.481967933024509e-19)
(0.7794226837641535 0.01240570836271133 0)
(0.856857800253655 0.1011870258306006 -8.467323148315348e-20)
(0.08156704739256197 0.04201577620262614 -3.066949230970282e-19)
(1.173445781227953 -0.03011099987399241 -2.218014093398503e-20)
(0.6713174556449418 -0.007324379104494766 2.432549618773964e-20)
(1.169451874135368 -0.1050721908924889 6.965728364203648e-20)
(1.124797197346256 -0.006162941199548796 -6.072775164374776e-21)
(1.156105579900581 -0.04883847795823138 2.155376525763746e-20)
(0.1018969747657493 -0.2100367807987036 0)
(0.2626783620004062 0.08913114749094843 0)
(1.252672253525851 0.1132030811881791 1.934708659881912e-19)
(1.021507529370085 0.01982753431597842 0)
(0.7377082276908064 -0.00632697451125618 0)
(1.075272497185578 -0.01192954726791627 2.691230253768827e-20)
(0.9751096927339966 0.002784822192701495 0)
(1.287484012560111 0.1317105509931278 -1.554896173457729e-19)
(1.057479719504157 0.01127109975734971 0)
(0.9933589681323618 -0.008015955579461612 0)
(1.065136985652467 0.0081084623697963 0)
(1.006171263538492 0.02081394171351417 1.743936169850911e-20)
(0.9273147737962717 0.01060700210802643 1.082430499208048e-20)
(1.176893033515342 -0.1994140059880782 0)
(1.00513481737063 -0.005210810313950829 7.753473491040537e-20)
(1.059162922265986 0.006282068053902247 0)
(0.7746410029260149 -0.003321406404647839 0)
(1.215866145877138 0.02925664733050667 1.675116274727711e-20)
(0.7050379303832105 0.001318679154824656 0)
(1.435243897836879 0.09033053631627753 -5.349918014616233e-20)
(0.9939679927066262 -0.006925871143492517 1.69240373524819e-20)
(1.274773677880374 -0.0009016947706352186 -2.917257411840839e-19)
(1.059805085124902 0.008762901383993287 1.397348513048935e-19)
(1.000902039385028 -0.01361286660840641 0)
(1.218786984907904 -0.1509427006010715 2.034167464151126e-19)
(0.7331891193239127 0.013792706368356 0)
(1.098222632590419 -0.005158599652682029 0)
(1.151197119801596 0.06711351977385366 2.03812041466066e-20)
(1.007015024093948 -0.00722337986972571 -3.019209736971075e-20)
(1.119737428412077 0.05118644318040892 -1.760637037039654e-19)
(0.1207982964278767 -0.08239531661886022 0)
(1.072259375141985 0.03733335491258843 0)
(0.6616062618996087 -0.002926351293221489 -6.913538304282607e-22)
(1.012127028797273 -0.01951587648103103 9.762375976481691e-20)
(1.061645378102391 0.0006623678096840059 0)
(1.082490843052071 -0.1265442810668682 3.74172514246012e-19)
(1.002659302273689 -0.006218158442880565 -3.490018806603294e-21)
(1.002026181062736 -0.00516405114689957 9.467039393277028e-22)
(1.093945266315708 -0.00931298242810711 0)
(1.020698834975306 0.02045226267591133 -6.2435784787707e-20)
(1.106681781790332 -0.001646360212735253 6.701832677467747e-22)
(1.073938481758315 -0.01122064781010021 6.546450946151981e-20)
(1.085816722375374 0.02238880165816282 0)
(1.330320976974724 0.1665612930831721 0)
(1.002009320875242 0.000141798752644719 4.416315800204589e-20)
(1.323161644987638 -0.1247076479155474 1.536904202868004e-19)
(0.05055505573572648 -0.1762727736447254 -2.567107292343425e-19)
(1.071347272323586 -0.00557469889859321 0)
(1.118063007764319 0.001367783221781679 1.228319297469735e-20)
(0.7269503093795662 0.01787197259282092 0)
(1.062991332123718 0.002650624907759332 0)
(0.8715772571508683 0.1673562320215217 4.795077788592234e-19)
(1.268240292822963 0.1284781816385994 1.860398191257576e-19)
(0.6542679755844816 -0.003109145277624915 -6.27827146033964e-20)
(1.042356497924866 -0.005311466534413468 -5.931631296168663e-21)
(1.054860899131865 -0.000292515980937189 6.649624258603709e-20)
(1.361630798049715 0.1260283628780028 6.82411313769299e-19)
(1.335046394744013 0.2528660232514496 0)
(1.059646800632732 0.000586296310021517 0)
(0.997120453762094 -0.007541715565552935 1.533018301418433e-20)
(0.9942185196050328 -0.0119031504381807 4.305250910565414e-21)
(1.382945549671838 0.2006111072270621 4.237645607859004e-19)
(0.6816629925998547 0.0006069867701850602 9.82901831343323e-20)
(1.005585360232819 -0.002040122876209465 -5.962069335941872e-20)
(1.098064148595852 0.01300869572815116 2.539805510206037e-20)
(0.6694729626862169 0.005014484860758324 0)
(1.066087717029476 -0.01201780589947897 0)
(0.9950459604124396 0.1394024214713489 -1.190732867187646e-19)
(1.085940213453896 -0.005576654893725564 -2.434170910262033e-20)
(0.982099488453161 -2.733155588493415e-05 3.278284980202552e-20)
(0.9912102269986075 0.006030587268186411 0)
(0.6383165146368754 -0.001128496634171639 0)
(0.9768806234737564 -0.001214141975030186 0)
(0.6420839061409381 -0.001503407628230118 2.711987159248216e-21)
(1.089850445397215 -0.05735476365971119 1.197424914926737e-19)
(1.112989962617763 -0.0002212273610235534 1.243120176535645e-21)
(0.9579917106747705 -0.000925720098373623 3.916312379652361e-20)
(1.015624216210614 0.01041533925571008 1.666966352904723e-20)
(1.065395272762376 0.003599119395492376 -2.306838894960231e-21)
(0.6347334422574434 0.008856004396728482 -3.649391971775262e-20)
(1.001908187375447 0.01016420349703553 -9.148543355026937e-22)
(1.035116591537738 0.01087801791135819 5.0946222469263e-21)
(0.9880947615271169 -0.01151794518371382 0)
(0.61004270455249 -0.000495087210741864 0)
(1.068635737369296 0.0227373859231367 0)
(1.016582723262265 -0.01550557648607466 1.058161763836452e-20)
(1.022598120863951 -0.005801459013529769 0)
(0.9913513604733131 0.01484891561755935 -9.413121130969764e-21)
(1.012046492255964 0.003716791914592589 0)
(1.126858913763201 -0.005142462110142116 -1.190119334068616e-20)
(0.03878994677248886 -0.1405930877877777 -4.435956836806588e-20)
(1.03664493858578 -0.01631380202037939 -7.382392290570561e-22)
(1.043625385714986 0.005917086165225476 0)
(1.084034190227913 0.06455915036090958 8.416229648479343e-20)
(0.9695317900752025 -0.001930747338759656 3.115949564299227e-20)
(1.020686226720364 0.01704400432211666 -2.378217034593849e-20)
(1.002606361996932 0.001358195432126937 2.497424820075354e-20)
(1.040906109310898 -0.00505274201924012 0)
(0.6409298272372264 -0.003994606278802874 0)
(1.025843737918236 0.02452006224286994 -7.246888654879615e-20)
(1.07990889681984 0.000172763446252273 4.78575373577736e-20)
(1.016250281051568 0.002423687884868558 0)
(0.9799187729607883 -0.003146358628324173 -1.929348470364873e-21)
(0.8753969697809136 0.02411901676871921 -1.252394446314486e-20)
(1.014005864968388 0.002869216652645557 -1.023413844384884e-20)
(1.027249303530184 0.002858528064461926 1.793431680826016e-20)
(0.9805530968654004 0.002604423183387224 0)
(1.002501416656355 0.009709092634381683 3.512767044399327e-20)
(1.106766520817783 -0.003240009355888104 0)
(0.9251047014687502 -0.001360200231743873 -3.337845813160906e-20)
(0.9608114980065565 0.007717709879947401 0)
(0.9165024242085944 0.2118512853564453 5.214145365992821e-20)
(1.010800083349933 0.06689102471046332 0)
(0.9928289250614505 0.003815087776779054 -2.295797320738131e-20)
(1.054678464866516 -0.0540115952078318 -2.837689225089914e-20)
(0.9910290056946476 -0.0005464896639914255 3.425398546624435e-20)
(1.012187452675918 0.003258752567766085 0)
(0.9782220336578477 -0.0005869983165160729 -3.19707172852103e-20)
(1.168743073174966 0.09910179022201851 -3.357936544364167e-19)
(1.069386303152189 -0.2645660729303028 0)
(0.9935313044859201 0.001914323328016443 -2.203249095333592e-20)
(0.9814438872082378 0.006962639149339076 5.053723003559788e-21)
(0.9621586473965733 0.005062303169902546 1.031624060370603e-21)
(0.7459498959410434 -0.001079296896762743 0)
(1.117925169139149 -0.08195625844314595 0)
(1.006782129384109 0.003734639929360691 -2.166102312545157e-20)
(0.8991103198741222 0.002811682977274662 -9.862227527441345e-21)
(0.8559399179869379 0.01877705430001973 4.586557189494739e-21)
(1.012377753706464 0.00308293236120099 0)
(0.9487861266969143 0.00347310813543034 1.509623165512304e-20)
(1.005725463643071 -0.0002606767421313558 -2.313084936699505e-20)
(1.020411849515789 0.0007412293625428687 -2.583002404824501e-20)
(1.112383763003038 -0.003203434372019928 -4.925559587351094e-21)
(1.117703860970833 7.366383728538931e-06 0)
(1.014187848328576 -0.006654365161519145 0)
(1.02196759596054 0.003410605681306506 0)
(0.946751968402508 0.00287320258700009 -2.163878141456392e-20)
(1.01787249049955 0.0134493012964354 5.321229217508175e-20)
(1.079354574536179 0.004444105765625809 -2.208500781910211e-20)
(1.038859684254872 0.0003292928202261797 0)
(1.105809528322616 -0.006560545575045874 1.829189602260504e-21)
(0.9960695617269592 0.002529056127578979 -2.206205733872349e-20)
(0.9861407268908443 0.006836743133390328 0)
(1.012034624268368 0.002770268544408759 4.663845761906482e-20)
(1.366799724250626 -0.3142857802076885 -1.13334485611064e-18)
(1.122880523863607 -0.04440879201024276 -1.081735242384308e-19)
(0.968382301501731 0.003676523304073869 4.823083845524613e-20)
(0.7795860260279972 0.01647744056866973 -3.154878670697496e-20)
(1.22057571565442 0.05321008396639892 0)
(1.223337447291022 -0.1357888446592238 -1.464379507808444e-19)
(1.078326653817149 0.006408719636864377 0)
(1.008878345618055 0.001785587329565735 2.227199321843317e-20)
(-0.1610536287665159 -0.1068430348967701 0)
(0.9939684471361349 -0.004651947025912189 0)
(1.012445859926633 -0.02317793125544792 4.589145759569266e-20)
(0.7061500811447365 -0.01944177364816393 0)
(1.096798803858776 -0.01490246447199208 2.144058119834595e-21)
(1.043729441719653 -0.01084393243044183 1.714325351487219e-20)
(0.6331192294119072 0.004156948520915947 0)
(1.448601327302479 -0.122140650410593 0)
(0.9869122125229846 0.001449137255922273 -1.086091041529968e-20)
(1.069763896869645 -0.01495940748659245 0)
(1.038050306512899 0.000431547405220181 2.16615926275828e-20)
(1.084331929620613 0.004330491106836926 0)
(1.008838648951907 0.005253067021306628 -1.053399385140069e-21)
(1.006003543903963 0.002953289364393884 0)
(1.014253698330663 -0.01474623208656068 6.201015243624911e-22)
(1.003299503592238 -0.020663693183867 0)
(1.033798474975443 0.005873027361059708 1.744324598948122e-20)
(-0.1971819240712727 0.03824337628719341 2.642816696126607e-19)
(0.813979871826175 0.0301950234462137 5.293320973130961e-20)
(1.005717522639906 0.00202636614849872 0)
(1.132587155346763 0.02380736759307554 -1.228272089584426e-20)
(1.121318799149102 0.01993978807726873 8.599700475319042e-21)
(1.054210969535831 -0.01312049737360197 -1.27454773359917e-19)
(0.9987857262702957 0.01034987783047986 1.291056815015858e-21)
(1.07841880638312 0.006952439529239376 0)
(1.185230114327565 0.05319417212773561 0)
(0.8354185770557566 -0.07592197443290737 4.590317498673963e-19)
(1.101502004606199 -0.009404404212719287 0)
(1.032549726851515 0.007495271267555881 -7.393439243235999e-21)
(1.042640460895727 0.005187817823958778 6.14750602176164e-21)
(1.053277168606582 -0.06183168621920079 -7.493681747125604e-21)
(1.140100047416803 -0.001064369770971541 1.66332365048953e-19)
(1.0827451328943 -0.008151720483611983 0)
(0.9950270005257461 0.001231546679679152 0)
(0.9960557910297694 -0.02444872000565396 -2.260032731515883e-21)
(0.9909514038970495 0.002576173898641703 0)
(1.029901219357057 -0.03875431627548057 6.350592584639469e-20)
(1.293771042537639 -0.09261990378152804 0)
(1.04715389698885 -0.01420881315974286 -1.128763182246075e-21)
(0.9861537398511188 0.01694843893493479 -8.462368253072014e-20)
(1.034533705401828 0.04076432465555661 -2.427384914046754e-21)
(-0.08897234880920243 0.1539646784110921 -1.627073958385353e-19)
(-0.06388744319489596 -0.2984000852400959 -1.400357249418539e-19)
(0.8760840655565799 0.1351706488219048 0)
(0.2958006306766713 -0.01238101229360325 -3.222743155959437e-19)
(1.010361468147744 -0.01164084400952581 -1.631743567340394e-20)
(1.063872532874898 0.002629795039680416 -2.12114377298981e-20)
(0.9925035821371545 -0.0184175819144214 2.881255181999291e-20)
(1.021240987969886 -0.0285902337061939 2.496833396490338e-21)
(1.008715312403162 -0.03216089493366846 -6.52072863047607e-20)
(0.9887476328197068 0.004832762322224593 -3.466878503322042e-20)
(0.9930380080862714 0.00451307220618736 0)
(1.025242826130677 -0.001994012922987437 -3.581737121951934e-21)
(1.937957834345328 -0.1552072947155752 1.078784373451939e-18)
(1.048318261657187 -0.008014742199278158 0)
(0.9952831910005491 0.007939432890269355 1.554094653729995e-20)
(1.002835191825031 -0.0001194530894755673 4.085898394642885e-20)
(1.167502683399545 0.1327358879917436 0)
(0.9989408407180674 -0.002519200958898235 2.721008693345258e-21)
(0.9488080494302149 -0.003293281551853156 0)
(1.037840078231238 0.04176041250615783 0)
(1.303508083964321 0.1664633926129121 2.319360038932038e-19)
(1.08642008048689 -0.009741284578329326 2.257806553403921e-20)
(1.018697710037229 0.03122340549780353 4.727258857980374e-20)
(1.086670227187064 -0.01087189823002013 -2.179205837821813e-20)
(1.047432954686172 -0.003477404900996204 -2.6821062009634e-21)
(-0.3840923547854085 -0.04406015014856658 0)
(0.9983295850450014 0.01451013495843796 0)
(0.1079837806330473 0.05884641117234573 -8.494628271750428e-20)
(1.006790431922589 0.02271386631845167 -4.179936881561747e-20)
(0.9925875290458473 -0.002987665423657737 0)
(1.000742768602626 0.005868209571853047 -5.075356976020025e-21)
(1.081533677915457 -0.04223402366508969 0)
(0.9956965358143494 -0.01693947402582182 -7.682553352081162e-21)
(1.09204097682992 -0.05580000100342773 0)
(1.443440131491557 0.1797589282681849 0)
(1.054224008432075 -0.01198228339769288 0)
(0.9904886978636612 -0.02264889972808833 -3.871082355163292e-20)
(0.9888621526179537 -0.04582096288249411 -2.279742898930439e-21)
(1.017173806494561 -0.01679141264694552 -1.67591842278569e-20)
(0.9974999806289118 0.01685128499385386 -5.698541997827465e-20)
(0.9950564602241831 0.01047251486143332 -1.514570268562324e-20)
(0.9935844600528676 -0.0274397876513029 0)
(1.003270540078506 0.02514158794091285 1.977926667509717e-20)
(1.049139164714811 -0.04361732314620276 0)
(1.111012727817328 -0.03559541724559839 2.643474429491971e-19)
(0.9955984280086698 0.0173368404172335 4.69839039119815e-20)
(0.6151109476099882 -0.008668040583119516 0)
(1.134636734609821 0.1351574503703501 -5.44295402476308e-21)
(0.8583947183584653 -0.1043740796273099 0)
(1.138248260502501 0.07331274811534988 -2.674171312748374e-19)
(1.316321260962243 -0.3885176790521322 1.30191526199363e-19)
(1.073980436375363 0.06060149415272109 -1.318433901980837e-20)
(1.009515236002481 -0.03126454061706284 0)
(0.9558839790028424 -0.2157981655587486 0)
(0.4987712359839293 0.1407549944791887 0)
(1.01349544917534 0.009426676769833541 1.257426294253698e-21)
(0.6901056336930959 -0.02765501940615574 0)
(0.9988804019056314 0.01830398421633397 3.598394875052479e-20)
(1.022270726145614 -0.004471983712573536 -2.794942184355874e-20)
(1.079111320565139 -0.008097630060808651 2.820797770752419e-21)
(1.038882836711852 -0.009322167035540127 3.395360864586757e-20)
(1.04242555841936 0.01123967244489474 0)
(1.062379814447694 0.02949363834688669 -9.948735077162581e-21)
(1.050228853890872 0.03454643977852949 -1.838126819150875e-20)
(0.98254902285982 -0.02224834280391098 0)
(0.624944852495904 0.005121499135316275 9.181918529933552e-20)
(0.8941628998222116 -0.005869270025085391 -8.857050698374959e-20)
(0.9093743963049228 0.005339387004202731 1.442908133197733e-20)
(0.6295514771094284 -0.006384301578780484 1.404490590411285e-20)
(0.9783862966612505 0.00114735071069191 2.626908930854455e-20)
(1.004461881252056 -0.01752366545696702 -3.62407298705174e-20)
(0.9698606598658793 -0.0230019075777207 -3.649421098500391e-20)
(1.085489483202751 0.001538690521202528 0)
(1.019789837821081 0.004340928366412894 1.042691142218432e-20)
(1.132623746016934 0.04896664223709783 1.294478684705449e-19)
(1.033688144998845 0.04054672423564232 0)
(1.022235821019918 0.002555898598256061 0)
(1.585065359259667 -0.1666197449718574 4.42580347087055e-19)
(1.044982754707629 -0.03966554012346134 0)
(1.01773836196038 0.006596285609385635 -3.810807438650665e-20)
(1.088006914369826 -0.001830956418595407 0)
(0.479388520661773 -0.035593404204585 0)
(-0.02381092647762562 0.02091603208950469 0)
(0.9902995726615316 -0.02434541621047299 1.210087164302019e-20)
(1.301436495408099 -0.09492722582037405 3.775448941560926e-19)
(1.035922034749918 0.03725662815699261 0)
(1.022305839531844 0.003314973146710901 -2.263780761616983e-20)
(0.9634523330820958 -0.1635387823798389 3.312443620573872e-21)
(1.253238301107266 0.07881346424080668 0)
(0.5974874139324794 0.7299143502122755 0)
(1.312762062030678 0.1525148142162137 1.125063881335323e-19)
(1.678721708218124 -0.02428364662266908 0)
(1.055997464586375 0.1067873982635007 0)
(0.7114750767034164 -0.01963309435032516 2.676966479638132e-21)
(1.052814097797131 0.04535193330650608 0)
(0.727502914262149 0.1110963549148159 1.160193742580443e-19)
(0.9967689801963313 -0.01653238375118825 3.567447887728102e-19)
(1.033785542126206 -0.04189696608804351 2.745403748495122e-20)
(-0.3790370214976519 -0.001753973783428834 0)
(1.071765064954706 -0.01643570300159478 0)
(1.094522264729715 -0.007878910120345273 0)
(0.6486727746392861 -0.5036445401002665 -2.470046048193497e-19)
(0.9913614799716011 -0.001534044658263049 0)
(1.092042782979516 -0.02138745583326928 3.754706394068383e-22)
(1.187617437060679 0.1215438415579261 -1.981815835928954e-19)
(1.088957947975576 -0.04392985708028814 0)
(1.00548864566522 -0.02142843134879717 0)
(0.8091878393877266 -0.18152341961287 -1.702343580677486e-19)
(0.8923177752129111 -0.1282710827500245 1.564437369586831e-19)
(1.027392989428339 0.01253040846772813 -2.278587651916278e-20)
(1.023109292933144 -0.009092733976027029 -4.646163175672263e-20)
(0.8762614640897413 0.01303990811461792 -1.519394758412796e-22)
(1.50624616502051 -0.1929801546343114 0)
(1.302939819545047 0.1218570571239175 3.161175161177331e-20)
(1.245614887390836 -0.07454003477642708 -3.046275012362068e-21)
(1.095774379678383 -0.01846541330327236 -3.823471998910699e-20)
(1.041023400285278 -0.01141668473424413 2.393153217175343e-20)
(1.092829886984852 -0.03910434195806452 9.026869815346913e-20)
(1.031993287824855 0.01977541826227213 0)
(1.044230436966539 -0.0355176709389853 0)
(1.115923408659828 -0.008981594787139995 0)
(1.087563555471732 -0.03001435038217402 0)
(0.9979093783082774 0.01117791269208555 0)
(1.147817485011401 0.07753046319595849 9.532977885198276e-20)
(1.340251597365322 -0.1479876117133208 0)
(1.036711381889047 -0.02184660470686368 -1.839755080604178e-22)
(1.052652845628175 0.05061651275008706 0)
(1.010130332086864 0.01472842116051367 -4.000077645273755e-20)
(1.033877642194768 -0.007800828403182816 9.029082930025034e-21)
(1.088945653854636 0.01340483016278635 -3.282338245267828e-20)
(1.085401195194836 -0.02897082760198913 0)
(1.074160616734077 0.001374346673930214 0)
(1.108860489437515 0.09501085687611988 -1.430109463608848e-18)
(0.9355165997474072 -0.1499995481111929 -7.05871411587529e-20)
(1.168810768710273 0.1068665091425871 1.107827393406477e-19)
(-0.4854445569080479 0.01208063230504989 -2.920162664049036e-19)
(1.019003889826093 0.02854789718906771 -8.929587300343606e-20)
(1.004017688646653 -0.0005391408367840266 0)
(-0.2964781569955288 0.03544156460458856 3.557624037966682e-19)
(-0.05111210109039135 0.304568978645561 7.80553080827933e-21)
(0.9952287847619877 -0.006282073293099482 9.943248680498251e-20)
(0.1911566403967162 -0.03975514660911016 1.438064990226533e-19)
(1.093462222372507 0.0804357858925832 1.499670553831859e-20)
(0.09416431094910008 -0.1100811093389834 -5.522765592406737e-20)
(1.107992584261733 0.003021573994994678 0)
(1.104675713522865 0.2595353139994414 0)
(1.021767294997613 0.02175672024787698 -1.74814058883251e-20)
(1.074150326308192 0.05395480157202202 0)
(1.026590970869597 0.02666958040160264 -9.634240336951398e-21)
(1.26379385161485 -0.5490216893025245 8.065343450454876e-19)
(-0.1068451844986172 -0.1975864688976884 2.223410165670107e-19)
(1.296978526596307 0.118792958616556 -6.371084626540066e-19)
(1.122279916361298 -0.003079160394641588 0)
(1.127502428855609 0.09451186396325727 0)
(0.5297569457991443 0.08366531379280924 2.57354588486089e-19)
(1.023566738752927 -0.02091259483814039 9.257999721712611e-20)
(1.006001220799475 -0.0240049715887968 0)
(1.210919150534321 0.2709599141575684 -9.495878537335677e-20)
(1.260590009926355 0.1403541181784492 -1.618322777939045e-19)
(1.0266517806621 0.003043147588027062 1.52118976835408e-20)
(1.30172590462948 -0.0845049006963592 -5.034232374442224e-19)
(0.2919224655755048 -0.01306872827329605 2.59255315429927e-19)
(0.8250293290215879 -0.1445847793023801 6.624031524848266e-19)
(1.051115402300276 0.05502718581952531 1.049990830083337e-19)
(1.040560394163218 -0.005711989262961776 1.769672962687243e-21)
(1.001529978345308 0.01992732989676976 3.017735342911999e-20)