/*--------------------------------*- C++ -*----------------------------------*\
| =========                 |                                                 |
| \\      /  F ield         | OpenFOAM: The Open Source CFD Toolbox           |
|  \\    /   O peration     | Version:  2412                                  |
|   \\  /    A nd           | Website:  www.openfoam.com                      |
|    \\/     M anipulation  |                                                 |
\*---------------------------------------------------------------------------*/
FoamFile
{
    version     2.0;
    format      ascii;
    arch        "LSB;label=32;scalar=64";
    class       volVectorField;
    location    "26.9";
    object      U;
}
// * * * * * * * * * * * * * * * * * * * * * * * * * * * * * * * * * * * * * //

dimensions      [0 1 -1 0 0 0 0];

internalField   nonuniform List<vector> 
808
(
(0.895673 -0.0103886 0)
(1.02278 -0.033436 0)
(1.18383 0.0954025 0)
(1.06782 0.0104473 -2.5788e-21)
(1.48138 -0.294165 0)
(0.956583 -0.0274358 0)
(1.15049 -0.0550967 -1.26974e-21)
(1.15028 -0.03792 0)
(1.36157 -0.232582 2.32368e-20)
(1.23801 -0.0929294 -6.72275e-21)
(1.10001 -0.0579143 8.14601e-21)
(1.38837 -0.264167 0)
(1.01452 -0.0461684 0)
(0.74949 -0.0260574 0)
(0.897753 0.0472819 1.46889e-20)
(1.10239 -0.0454623 0)
(0.783559 -0.00221812 -4.24111e-21)
(1.00796 -0.0474377 -7.37517e-23)
(1.12202 0.0577359 0)
(1.11824 0.00316199 0)
(1.15198 -0.0740414 -1.13691e-20)
(0.93061 0.122427 1.15333e-19)
(1.07459 0.0134268 -1.54792e-20)
(1.17647 -0.0252203 0)
(0.947501 0.17651 0)
(1.31587 0.0603347 -2.38596e-20)
(1.2859 -0.17734 5.22419e-21)
(0.946153 -0.0252229 -2.63893e-21)
(1.09295 -0.0329872 0)
(1.03714 0.0436453 -3.50315e-22)
(0.981263 -0.0310213 2.93675e-24)
(1.12485 -0.00965862 0)
(1.05451 0.0173641 0)
(1.06754 -0.026623 1.90191e-21)
(1.31228 -0.0677957 8.14756e-21)
(0.741093 -0.121542 1.13333e-19)
(0.881712 -0.0319875 -8.07085e-21)
(1.02504 0.0196388 1.3264e-21)
(1.20609 0.045609 -3.36209e-21)
(1.09666 0.0143536 0)
(1.26855 -0.0557854 -1.5329e-20)
(1.28069 -0.131535 0)
(1.01267 0.00338069 -9.45035e-21)
(1.10651 -0.0475358 9.29615e-21)
(1.18262 0.0385766 0)
(1.01044 0.0164964 -2.19647e-20)
(0.997179 0.0315733 2.00966e-21)
(1.25772 -0.254849 -4.74681e-22)
(1.17514 0.0393066 -7.05959e-21)
(1.41794 -0.186966 -3.35707e-20)
(1.13595 -0.0695571 3.03632e-21)
(1.1497 -0.0731758 0)
(1.12078 -0.000289202 8.43542e-21)
(1.11551 -0.00846309 0)
(1.30771 0.233147 3.44169e-21)
(1.06847 0.0324347 -2.74138e-21)
(1.18042 -0.00995487 0)
(1.13325 0.0231323 6.1482e-21)
(1.24147 -0.0925405 7.21632e-21)
(1.13515 0.0318611 -4.2661e-22)
(-0.357142 0.152801 0)
(1.21859 -0.218883 -4.29262e-21)
(1.14099 0.00764207 0)
(1.44929 -0.0673487 -2.84958e-20)
(1.09934 -0.0357955 -1.08438e-20)
(1.0446 -0.0293567 -9.3599e-21)
(1.38142 -0.144727 3.18653e-20)
(0.6571 0.0175735 0)
(1.10302 -0.0686896 0)
(1.44798 -0.362427 0)
(0.904665 0.0304912 -2.41226e-22)
(1.24993 -0.149356 -3.74384e-20)
(1.0191 0.0509174 0)
(1.04668 -0.0370757 -3.3191e-21)
(1.12837 -0.341249 -5.98356e-20)
(1.11748 -0.0666237 -1.04621e-20)
(1.13689 0.0263235 3.02313e-22)
(1.31244 0.487562 2.49213e-20)
(1.1071 -0.0514017 0)
(1.01164 0.274927 -1.91029e-19)
(1.32922 0.0516235 1.28151e-20)
(0.743878 0.0226838 0)
(0.840942 0.0290639 -1.02955e-20)
(0.969062 -0.112814 4.42917e-21)
(1.09638 -0.0553415 8.29818e-21)
(1.1848 0.0169419 1.31158e-21)
(1.28439 -0.2439 0)
(1.34148 0.276421 0)
(1.08534 0.00457042 -1.44312e-20)
(1.35953 0.0891889 2.60144e-20)
(1.08141 -0.0160411 1.32632e-20)
(1.32783 -0.123762 -1.34156e-21)
(0.965149 0.0257644 1.80894e-20)
(1.00439 -0.0216756 0)
(1.11236 0.0215227 1.90316e-21)
(1.38134 -0.0524459 -8.79402e-20)
(0.75872 0.0207563 -3.61606e-21)
(1.33546 -0.00389369 0)
(1.338 -0.0837295 0)
(1.44635 -0.112597 -4.73804e-20)
(1.11117 -0.059313 -3.15324e-21)
(1.12155 0.0126446 -5.28797e-23)
(0.946532 0.0221283 1.15022e-20)
(1.17596 0.0207307 -3.55427e-22)
(1.31512 0.0505964 -2.85763e-20)
(1.00432 0.00627498 1.52187e-20)
(1.42934 0.0208378 0)
(0.814106 -0.104789 0)
(1.09065 0.0271625 5.79229e-21)
(1.20722 -0.22172 -8.63067e-21)
(1.25665 0.0394906 9.20468e-21)
(1.04517 0.0453132 -1.27039e-19)
(1.15064 0.0367199 -2.20591e-21)
(1.23842 -0.0216754 2.0403e-21)
(0.791388 0.0146187 0)
(0.917213 -0.050453 7.8175e-20)
(1.13945 0.0237535 -5.29849e-21)
(1.44328 -0.276582 -1.64996e-20)
(1.124 -0.0320885 -7.80781e-21)
(0.9295 0.0182011 2.46444e-21)
(-0.301682 0.0880009 0)
(0.863167 -0.0153343 2.34384e-21)
(0.793248 0.0225921 0)
(1.06025 0.00383095 -9.62776e-23)
(1.0112 0.0280365 0)
(1.30186 0.317189 5.76958e-21)
(1.03603 -0.0551514 -3.3295e-20)
(1.31229 -0.000222274 1.74371e-21)
(1.15197 -0.0571136 0)
(1.09426 -0.0219494 0)
(0.626739 -0.0912949 0)
(1.12999 -0.0336652 -4.52561e-21)
(1.25143 -0.0473631 8.68885e-21)
(1.06489 0.112174 -3.59364e-20)
(0.855216 -0.017545 0)
(1.0977 0.0238443 -1.42112e-21)
(1.18368 0.185207 5.1035e-22)
(1.24105 0.0889077 1.01912e-21)
(0.991791 0.0290603 4.21776e-21)
(1.12255 0.00898743 4.43306e-23)
(-0.0308402 -0.0136772 0)
(1.0971 -0.0196082 -1.47514e-20)
(1.15128 0.160965 2.6516e-21)
(0.724387 0.0226396 -4.21035e-21)
(1.2519 0.160852 3.39185e-21)
(1.13222 0.096536 -1.42918e-21)
(1.04626 0.0162497 1.75306e-20)
(0.991511 0.0272094 0)
(1.20387 0.040529 -2.68636e-20)
(1.01433 -0.0295032 0)
(0.945997 0.0306343 8.72283e-21)
(0.968279 0.276495 1.52741e-19)
(0.96858 0.0331819 0)
(0.818003 0.0913359 0)
(-0.130995 -0.073347 -6.32875e-20)
(1.3273 0.127619 -1.03089e-20)
(0.678495 -0.0182691 0)
(1.39321 0.0644345 0)
(1.21997 0.189105 0)
(1.33102 0.102499 1.11166e-20)
(-0.0416093 -0.153204 0)
(-0.0673766 -0.00509759 3.08463e-20)
(1.00618 -0.0785405 7.95539e-20)
(1.00166 0.0367342 1.11528e-21)
(0.860776 0.00148532 0)
(1.0321 -0.0244404 1.21039e-20)
(0.886223 0.022948 0)
(0.766439 -0.0703928 -8.59614e-20)
(1.0333 0.0401828 1.15866e-20)
(1.11009 -0.0296831 3.75223e-21)
(1.09261 0.0116362 6.8573e-21)
(1.0133 0.0674836 -1.29833e-20)
(0.845448 0.0275685 1.42276e-21)
(1.14172 -0.353078 6.93623e-22)
(0.912005 -0.0274536 0)
(1.06777 0.00153855 -1.42313e-20)
(0.874144 0.00884807 -1.23371e-20)
(1.39521 -0.17841 2.03685e-21)
(0.69848 0.0320449 0)
(1.04105 -0.151135 0)
(1.12465 -0.0068378 3.93648e-21)
(1.38114 0.205969 8.35622e-21)
(1.1102 0.0195617 5.07028e-21)
(1.03658 0.0205718 2.02412e-20)
(0.605539 -0.0216867 -4.32027e-20)
(0.812951 0.00214471 2.17513e-20)
(1.14061 -0.0199322 6.18483e-21)
(1.4066 -0.0658391 -5.26139e-21)
(1.10747 -0.0289847 -6.75247e-21)
(1.33987 -0.0317195 4.50866e-21)
(-0.133695 -0.0493049 4.60077e-20)
(1.27624 -0.00178521 0)
(0.625972 -0.0149745 0)
(1.06599 -0.023282 -6.88831e-21)
(1.09568 0.0148984 6.49804e-21)
(0.0151954 0.0192541 0)
(0.878555 -0.0234619 4.43183e-22)
(1.13943 -0.0147794 -3.94598e-21)
(0.976596 0.0427989 2.24255e-21)
(1.07711 0.0400638 -8.15866e-21)
(1.00405 0.01853 2.74955e-21)
(1.05839 -0.0243308 3.48081e-21)
(1.04508 0.023525 0)
(0.320577 -0.05078 0)
(1.04549 -0.0631903 0)
(1.1337 0.0965452 -2.69742e-20)
(-0.0351014 -0.175335 4.4124e-20)
(1.11281 0.039637 -1.68667e-23)
(1.06322 0.0236091 0)
(0.751275 0.0171827 -8.17773e-21)
(1.09401 -0.0405894 2.22763e-21)
(-0.0124719 -0.0402926 -1.39929e-19)
(0.912181 -0.0209124 -6.33709e-20)
(0.630104 -0.0160471 0)
(0.818039 -0.0240466 0)
(0.94032 0.0498892 8.08522e-21)
(1.01087 -0.124294 5.30781e-21)
(1.27195 0.390376 -3.68839e-21)
(1.02882 0.030533 -2.76626e-22)
(1.16839 0.0223661 -5.34279e-21)
(0.985275 -0.0140931 0)
(1.35499 0.413721 -3.23693e-20)
(0.679997 -0.0254015 0)
(0.804256 -0.0240899 -4.10485e-21)
(1.03959 -0.0228341 8.27948e-23)
(0.594071 0.0137605 0)
(1.10074 -0.00589173 0)
(0.167541 -0.0524087 -5.68328e-20)
(1.0959 0.0889532 -8.26824e-21)
(0.713453 -0.0203182 1.65497e-21)
(0.990294 -0.00190232 0)
(0.552179 -0.0189584 0)
(0.756004 -0.0223444 -3.24425e-21)
(0.533086 -0.0173018 -3.96848e-22)
(1.32452 0.0604038 2.02803e-22)
(1.16457 -0.0430738 -6.73007e-21)
(0.70242 0.0180075 -2.73975e-21)
(1.10495 -0.00923973 4.41264e-22)
(0.999298 0.0843886 2.60661e-22)
(0.555609 0.0151162 7.34131e-21)
(1.20342 0.0399034 1.17051e-21)
(1.15194 0.0525086 0)
(0.872507 0.118205 0)
(0.497395 0.0192267 0)
(1.05002 -0.0162326 0)
(1.17106 0.0629971 3.66968e-23)
(0.963413 0.0966098 0)
(1.18819 0.00792634 0)
(1.05801 0.115987 0)
(1.19266 0.15332 0)
(-0.0220708 -0.0531304 4.35934e-20)
(1.25262 0.103934 3.39139e-23)
(1.22131 0.125096 0)
(1.34894 0.0838333 1.73315e-20)
(1.24276 0.0586464 2.83228e-22)
(1.1092 0.0323865 3.25592e-21)
(1.22475 -0.0542033 3.73233e-21)
(1.20743 0.102412 0)
(0.588472 -0.016644 7.5179e-21)
(1.04971 0.0426407 1.26275e-20)
(1.24539 0.011396 0)
(1.12509 -0.0332309 -2.77883e-21)
(1.25598 0.0285997 2.77798e-21)
(0.390915 -0.117554 -7.07856e-21)
(1.10592 0.0370312 6.6379e-21)
(1.17248 -0.108728 -3.5237e-21)
(0.97259 -0.106443 0)
(1.29195 0.0652578 -6.11208e-21)
(1.12691 -0.0506084 -2.31841e-21)
(0.784749 0.22892 9.43806e-21)
(0.707205 -0.0427012 0)
(-0.0264238 -0.0222802 0)
(0.976152 0.110903 -1.84343e-20)
(1.11926 -0.0522242 0)
(1.34067 -0.0509695 2.3346e-20)
(1.21043 -0.0156245 9.61439e-22)
(1.15547 -0.0658129 3.38747e-21)
(1.22604 -0.00575798 -2.43573e-21)
(1.39757 -0.0368415 1.2852e-19)
(1.02229 -0.330013 6.04124e-20)
(1.18635 -0.0425261 -3.52068e-22)
(0.879776 0.0485253 0)
(0.724887 -0.154874 0)
(0.906358 0.00537218 -2.97077e-20)
(1.23061 0.0270351 -3.14222e-20)
(1.18162 -0.112764 0)
(0.708957 0.110804 -3.90669e-22)
(0.307894 -0.303514 0)
(0.746299 -0.0372401 -2.42748e-21)
(0.955181 0.169169 -1.28644e-22)
(0.819835 0.0286661 -4.98621e-21)
(1.2556 -0.034709 0)
(1.21453 -0.0869526 -1.12147e-21)
(1.06701 -0.0787698 7.37703e-21)
(0.691052 0.137226 -3.06411e-21)
(1.22738 -0.105083 -3.64936e-21)
(0.741464 0.151247 0)
(1.09089 0.0721621 0)
(1.18374 -0.0480108 -2.48159e-21)
(0.89336 0.0323946 2.45216e-21)
(1.30684 0.00262931 2.77407e-21)
(1.1612 -0.0562511 -2.68416e-21)
(0.894128 -0.0947782 8.88561e-22)
(1.10632 -0.0640569 0)
(0.41226 -0.139068 1.31658e-20)
(1.32035 0.0956857 -1.5813e-20)
(0.921512 0.179739 -1.14407e-20)
(0.150328 -0.221619 7.48524e-21)
(1.4427 -0.137577 2.48563e-20)
(0.776848 -0.0252028 4.09921e-20)
(1.30881 -0.102216 2.42123e-21)
(1.15013 -0.0385478 -5.54205e-22)
(-0.0483197 -0.194506 -7.54674e-21)
(1.00069 -0.00639124 0)
(1.03416 -0.0887383 -1.66359e-20)
(0.856788 -0.0324439 8.91957e-21)
(1.10421 -0.0464467 3.94247e-21)
(0.78822 0.15415 -2.95509e-21)
(0.510825 -0.0197315 3.14936e-22)
(1.41993 -0.391538 -1.53465e-20)
(1.10321 0.0699635 0)
(1.01433 0.0349093 -2.93704e-23)
(1.12868 0.038089 -2.43954e-21)
(1.33044 -0.137249 0)
(0.733252 -0.158287 -5.47138e-22)
(1.14072 0.0562783 2.93451e-21)
(0.618513 0.222607 1.69446e-20)
(1.17317 -0.0409854 4.34727e-21)
(0.923905 -0.11409 -4.88981e-22)
(-0.0372912 -0.12067 0)
(0.0601352 0.175134 -3.4269e-21)
(1.10924 0.0481736 0)
(0.833705 -0.0108722 -1.86635e-20)
(0.713219 -0.132775 0)
(1.13597 -0.00117974 4.7737e-21)
(1.01701 0.0264313 0)
(1.2071 -0.140691 0)
(1.41605 -0.127701 2.19433e-20)
(0.799033 -0.092229 0)
(1.02766 -0.0771227 3.20252e-20)
(1.09257 -0.0116901 -1.03112e-22)
(1.0533 0.0537536 2.9316e-21)
(1.30296 0.0106597 -1.24493e-20)
(1.2329 0.126481 -3.08467e-21)
(1.16275 0.0997181 1.94583e-20)
(1.15795 0.0760577 0)
(1.19953 -0.102639 0)
(1.15093 0.0655318 1.29429e-21)
(1.2416 -0.0100608 0)
(1.39691 0.193575 -2.29038e-20)
(0.646427 0.118713 1.91139e-21)
(1.02664 0.0181175 2.37905e-20)
(1.2241 0.0626235 -2.03131e-22)
(-0.00954992 -0.0380798 0)
(-0.0326575 -0.0962657 0)
(0.177069 -0.0715828 -4.55207e-20)
(-0.0320068 -0.194041 0)
(0.534792 0.0882195 -1.39321e-20)
(1.19385 0.0487552 -2.56611e-21)
(1.15426 -0.0949279 -4.08564e-21)
(1.3131 -0.146178 -1.9701e-21)
(1.24556 -0.0275366 0)
(0.679046 -0.0139089 -1.29727e-21)
(1.20139 0.0739026 0)
(1.14929 0.05644 -1.15194e-22)
(0.496843 -0.110668 0)
(0.543344 -0.0645261 -6.52353e-22)
(1.19451 0.0569394 0)
(1.12904 0.0161086 0)
(0.870427 0.190526 6.92355e-20)
(0.441172 -0.133287 -7.43685e-22)
(0.924671 0.024 -3.32676e-21)
(1.00982 0.0180003 -9.83102e-21)
(0.179688 -0.139555 0)
(1.13599 0.0206129 -3.88592e-20)
(1.1908 0.0195318 5.14516e-22)
(1.01638 0.07699 2.49609e-21)
(0.602583 -0.171492 8.23311e-21)
(-0.0493409 -0.154489 -9.15704e-20)
(1.19189 0.0294066 0)
(-0.0355673 0.0367627 0)
(1.18989 0.00629054 6.4188e-21)
(0.476752 -0.277167 -8.86115e-21)
(1.09097 0.00628617 -1.39672e-20)
(1.12042 -0.048583 0)
(1.11834 -0.0802367 2.80711e-21)
(1.27535 -0.107803 2.56584e-20)
(0.526393 -0.0599784 -8.7874e-21)
(1.15542 -0.0428499 -1.47139e-21)
(1.16432 -0.0989904 -6.79343e-23)
(0.390551 0.137254 9.70825e-21)
(1.20755 -0.140038 -2.79559e-21)
(1.12184 0.0348847 0)
(1.20941 0.04805 0)
(1.22277 -0.077751 4.38242e-21)
(1.16073 0.037335 -4.65013e-22)
(0.660811 0.0269586 -6.73324e-20)
(1.19607 -0.119873 -1.68443e-20)
(1.12534 0.0362536 9.33829e-21)
(0.517199 -0.00206635 1.26609e-20)
(0.589091 0.0985054 -1.29024e-19)
(-0.148468 0.310266 3.36492e-20)
(1.16929 0.179447 -6.51475e-21)
(1.24065 -0.501571 4.65741e-21)
(1.3408 0.0866 -1.66384e-20)
(1.24319 -0.0467376 -5.19333e-21)
(0.941431 -0.239369 9.65179e-20)
(-0.0434023 0.263778 0)
(1.13113 0.0209549 -1.50269e-21)
(-0.0254318 0.294539 -1.3115e-20)
(1.19179 0.0106421 -5.55463e-21)
(1.21085 0.0242762 8.03351e-21)
(1.09569 0.039614 0)
(0.722531 -0.265931 0)
(1.16889 -0.0460758 0)
(1.17162 0.0197206 8.10517e-21)
(1.24862 -0.00169765 -2.13448e-20)
(1.17422 -0.0610195 -1.49653e-21)
(0.454224 0.017233 0)
(0.603717 0.0128122 0)
(0.605158 -0.00477232 3.87872e-22)
(0.428838 -0.0163526 0)
(1.16338 -0.0281412 0)
(1.02345 -0.0127388 2.61926e-20)
(0.575844 -0.261288 0)
(0.944612 0.0303522 0)
(1.0844 -0.0415675 0)
(1.16811 0.186756 -1.0061e-20)
(1.2215 0.0401287 5.44259e-21)
(0.972104 -0.0316349 8.05873e-21)
(1.29569 -0.407405 -1.03801e-19)
(0.733477 -0.114925 2.61574e-20)
(1.34889 0.112008 1.79338e-21)
(1.25799 -0.107357 0)
(-0.370288 0.134072 0)
(-0.230991 -0.0620163 0)
(1.18185 -0.0258285 -3.42081e-21)
(1.32947 -0.295461 -2.01376e-20)
(1.26564 0.086728 0)
(1.10079 0.0573905 -7.49525e-21)
(0.329732 -0.00711787 0)
(1.52524 -0.176526 7.22564e-20)
(0.409298 0.513555 1.24007e-19)
(0.265215 -0.0627969 0)
(1.09902 -0.282666 1.1143e-19)
(0.505963 0.280013 0)
(-0.0533052 0.0517932 8.26151e-21)
(1.23803 0.0902866 0)
(-0.0223708 -0.00964008 -1.61049e-21)
(0.983588 -0.0493437 0)
(1.32469 -0.0788774 -1.14064e-20)
(-0.13993 -0.136026 -7.56381e-21)
(1.13489 -0.0244389 1.46135e-21)
(1.16367 -0.102019 -1.27409e-20)
(0.57735 -0.52703 -9.28173e-20)
(1.23494 0.0438823 -7.85775e-22)
(1.20036 -0.128067 4.66478e-21)
(1.17549 0.242047 -2.40244e-20)
(1.21626 -0.125575 -1.4158e-20)
(1.17375 -0.0102408 2.3775e-22)
(-0.235628 0.0050907 -3.95233e-20)
(-0.00752469 0.000187318 -6.74231e-21)
(1.37826 0.0412435 1.92103e-21)
(1.0592 -0.0475843 0)
(0.485611 -0.140453 9.42287e-22)
(1.40916 -0.450785 7.68973e-20)
(0.93157 -0.0970179 -5.58636e-20)
(1.39925 0.141195 6.25548e-20)
(1.07791 -0.0436968 3.30518e-21)
(1.14731 -0.166204 6.36546e-21)
(1.0627 -0.00710138 0)
(1.17605 -0.00731965 0)
(1.34319 -0.104481 8.86943e-21)
(1.08838 -0.0187069 -4.51736e-21)
(1.25323 -0.246362 1.49244e-20)
(1.12204 0.0360586 -6.30407e-21)
(1.4503 0.0134285 -5.16453e-20)
(0.453708 0.0190783 0)
(1.27371 -0.160685 -9.5392e-21)
(1.28738 0.108547 0)
(1.13738 0.0343548 -5.24809e-21)
(1.1419 0.0297184 0)
(1.04091 -0.00818502 1.37855e-20)
(1.23028 0.0478333 9.21085e-21)
(1.14797 -0.126642 0)
(0.0477919 -0.0311692 1.4907e-19)
(0.885099 -0.218186 -7.57044e-20)
(1.38836 0.0743112 -3.72288e-20)
(-0.10397 -0.139576 3.85405e-20)
(1.18106 0.0261258 2.25438e-22)
(0.633908 -0.136415 -2.32515e-21)
(-0.102806 -0.110711 -4.01902e-20)
(-0.0202178 -0.0377335 -2.48684e-20)
(1.02 -0.0291972 0)
(-0.0280857 -0.0362069 0)
(1.19506 0.194071 0)
(0.112254 -0.112755 0)
(1.12243 -0.0297483 0)
(0.125389 0.0260195 0)
(1.10824 0.038778 0)
(1.11174 0.159267 0)
(1.29416 0.0346134 -6.42094e-21)
(0.576472 -0.287055 -2.07603e-20)
(-0.202478 -0.0329975 0)
(1.14213 -0.10541 5.81447e-20)
(1.35789 0.115523 -1.27035e-21)
(1.37993 0.178652 0)
(-0.0388461 -0.0411405 0)
(1.16018 0.0214856 -1.13622e-21)
(1.17265 0.00565209 -1.43956e-22)
(1.16305 0.383531 0)
(0.246915 -0.111179 5.54504e-20)
(1.11998 0.0642149 1.54045e-21)
(0.228918 -0.0525896 -5.08501e-20)
(-0.0598613 0.0444206 -3.06418e-20)
(-0.0299676 0.0482455 7.99449e-20)
(0.338515 0.309382 -1.24286e-21)
(1.01502 -0.110685 2.18823e-21)
(1.12924 0.0357639 -9.30094e-21)
(1.02421 -0.00779784 0)
(1.07085 -0.0699334 -2.27108e-20)
(1.19448 0.0692406 -5.84969e-21)
(-0.00996078 -0.0529054 9.38619e-20)
(0.982095 -0.0728524 -6.11206e-20)
(0.64376 -0.153426 2.036e-22)
(1.18104 0.0339124 -1.19788e-21)
(0.0661173 -0.0331049 3.16371e-20)
(0.237589 -0.0399881 -4.54404e-20)
(0.385277 -0.0831829 -5.02662e-20)
(1.16398 -0.0187689 1.38862e-20)
(-0.056301 -0.0365995 0)
(0.962544 -0.0837474 3.93233e-21)
(1.18295 -0.238926 -6.79204e-21)
(1.22224 -0.254951 6.54922e-21)
(1.30987 0.0875144 0)
(1.52473 -0.233316 6.83881e-20)
(1.15844 0.0208691 -4.16082e-21)
(-0.0150603 -0.0556831 -3.22139e-20)
(0.294226 0.0383003 0)
(0.919631 0.0381198 -3.27477e-21)
(1.12062 0.025705 6.21419e-22)
(0.520483 0.0874561 1.6723e-20)
(1.16565 0.0185442 1.15115e-21)
(1.11614 0.0537087 0)
(1.14125 -0.17753 -1.39843e-20)
(-0.0602743 -0.182202 -6.62216e-20)
(1.3202 -0.0083896 2.48731e-20)
(1.10062 0.174012 -8.85311e-21)
(1.12776 0.0433441 7.20985e-21)
(-0.0403516 -0.0649213 1.45912e-20)
(-0.0234558 0.0222157 -5.86401e-20)
(0.891377 0.0582219 0)
(0.833417 0.272258 0)
(1.14829 0.098141 -1.99475e-20)
(1.05073 0.0685338 1.41234e-20)
(1.13715 0.0514755 0)
(0.623461 -0.0634412 6.10727e-20)
(0.740178 0.0738804 -1.09193e-20)
(1.0972 0.105686 0)
(1.11275 0.0548141 0)
(1.29472 0.181216 0)
(1.1371 0.033525 0)
(1.26131 0.132168 2.12725e-21)
(-0.0426053 0.0451517 3.34657e-20)
(1.16457 -0.0249802 8.66743e-21)
(1.42541 -0.209362 -7.95281e-20)
(1.23764 0.129047 -3.34085e-21)
(-0.113991 0.0264668 0)
(1.20129 -0.181469 0)
(0.618887 -0.0163317 -4.11144e-22)
(0.542219 0.00597135 -5.70498e-20)
(0.0769133 0.0341607 4.63766e-20)
(0.938851 0.0273783 4.51777e-22)
(0.739797 -0.273878 0)
(0.671209 -0.0940684 0)
(1.17601 0.121553 0)
(0.537157 0.509443 1.62911e-20)
(-0.0146398 -0.00515369 -2.75554e-20)
(1.14922 0.0798562 3.83315e-21)
(-0.0220332 -0.102278 6.1229e-20)
(1.16365 -0.017944 2.70706e-21)
(1.16768 0.310165 4.58227e-20)
(1.11533 -0.0907137 8.87513e-21)
(0.123204 0.007216 5.20725e-20)
(1.10223 -0.00696547 3.04182e-22)
(1.12756 -0.178258 0)
(0.55859 0.269987 0)
(0.908923 -0.163775 1.29985e-21)
(-0.177856 -0.0954232 0)
(0.603151 0.028279 2.40551e-21)
(0.605475 -0.419843 -2.98519e-21)
(0.243244 0.0482851 -1.08152e-19)
(1.12506 -0.232067 3.51095e-20)
(1.03505 0.357874 1.06248e-20)
(0.978351 0.0162819 0)
(1.1554 0.0255802 6.69041e-22)
(0.633494 0.0190021 0)
(0.976904 -0.0259469 -4.79526e-22)
(0.424975 -0.0250349 0)
(0.710534 0.122102 0)
(1.00812 -0.0181313 -5.53308e-21)
(1.4278 0.166879 -1.10532e-20)
(1.16071 -0.0349872 1.51644e-21)
(0.52446 -0.495462 0)
(1.1361 -0.157121 2.86892e-21)
(0.800395 0.369815 7.30842e-20)
(-0.0334429 0.02197 1.12672e-21)
(1.23311 0.00876517 6.31015e-21)
(1.21634 0.0473753 -6.63453e-21)
(1.2243 0.0215962 8.86332e-22)
(0.790392 0.00893479 -4.05447e-21)
(0.0691714 0.0170174 3.60161e-20)
(-0.016288 -0.0834384 -5.24433e-20)
(-0.202509 -0.0853722 0)
(-0.243387 0.0465833 0)
(1.18903 -0.620951 3.10805e-20)
(1.15906 -0.0222765 -2.31996e-22)
(0.888195 -0.466873 -4.12972e-20)
(0.954367 -0.133065 -9.3948e-21)
(1.35865 0.193744 3.10128e-20)
(0.601426 0.417783 0)
(0.244382 0.409338 -1.19526e-19)
(0.591944 0.470758 0)
(-0.0555251 -0.0233521 0)
(1.1281 -0.486289 0)
(-0.0441723 -0.0594484 -3.26038e-22)
(1.1934 -0.00193521 0)
(0.824692 0.203032 -2.34404e-21)
(0.590063 0.684298 2.01522e-20)
(1.21246 0.102588 -6.32686e-21)
(-0.0299717 -0.145204 -1.01746e-19)
(0.36829 0.0324179 2.69294e-20)
(0.453838 0.143766 -1.29549e-20)
(1.19972 0.0965068 0)
(1.35393 0.350945 3.12419e-20)
(1.21615 0.558868 3.84748e-21)
(0.172163 -0.0183331 -2.14773e-20)
(1.0042 0.105154 2.9864e-20)
(0.930536 -0.0250235 6.7373e-22)
(0.910571 0.0358535 -3.54162e-22)
(-0.0167234 -0.0399878 0)
(0.650234 -0.661516 -3.08668e-20)
(0.612347 0.191795 0)
(0.111589 -0.179311 0)
(-0.0463628 0.0441112 0)
(0.0217196 -0.185924 -3.88063e-20)
(1.23959 0.0152833 -7.26631e-21)
(-0.0307758 0.0261112 0)
(-0.0313936 0.0112144 0)
(1.4404 0.110164 -5.93123e-20)
(-0.0386981 -0.0997875 4.5911e-20)
(0.113835 0.228636 -1.03414e-19)
(0.398084 0.0119594 0)
(0.170207 -0.284725 8.22616e-20)
(1.08393 -0.244479 0)
(1.00036 -0.289599 0)
(0.018415 -0.145821 9.6435e-20)
(1.14765 0.0442915 -1.87025e-22)
(1.12181 0.336538 3.01476e-20)
(0.269273 0.0260483 4.4643e-20)
(0.405549 -0.522133 -3.83364e-20)
(1.25577 0.0750332 0)
(1.21722 0.183579 2.09252e-20)
(1.21672 0.20616 -2.57019e-20)
(0.10195 0.0813029 -2.38067e-20)
(-0.0639185 -0.101669 0)
(1.07214 -0.0555025 -2.00444e-20)
(1.10477 -0.22691 -1.72577e-20)
(0.584724 -0.413099 0)
(1.09841 -0.15383 -2.71935e-20)
(-0.193035 0.0287858 0)
(0.593819 0.0239816 0)
(1.44046 0.0776654 4.25169e-20)
(1.00367 0.0362077 5.64307e-22)
(1.07025 0.735596 -1.95982e-20)
(0.226648 -0.383703 1.33639e-19)
(1.13026 0.0290197 8.05177e-22)
(1.20227 0.0785086 -1.84778e-21)
(-0.0470257 0.00522388 2.80337e-20)
(0.782418 0.726928 3.24463e-20)
(1.35587 -0.379306 -1.2989e-20)
(0.164638 0.0430501 1.01283e-19)
(1.08718 0.0392946 0)
(0.0625128 -0.0590738 -5.20376e-21)
(0.900302 -0.638743 2.69245e-21)
(0.896382 0.637441 -1.47882e-20)
(0.534975 -0.0412213 -5.88415e-20)
(1.14595 0.00232985 -6.57423e-21)
(1.0774 -0.084534 7.49017e-21)
(1.1433 0.0370426 3.1861e-21)
(1.10411 0.121429 5.80454e-21)
(1.13273 -0.128439 0)
(0.909065 0.102013 1.38026e-20)
(0.885336 0.456572 0)
(1.16912 0.0430782 -4.59234e-21)
(1.16404 0.114702 2.27965e-21)
(0.753338 0.262893 0)
(0.524789 0.108931 1.03137e-19)
(0.887891 0.70459 -1.07729e-21)
(1.07414 0.287027 -2.3153e-20)
(1.0427 -0.0102816 1.29994e-20)
(0.412672 0.48119 0)
(1.30184 -0.481066 0)
(0.45904 0.00556533 3.02075e-21)
(1.25922 0.499073 0)
(-0.0183944 0.042549 -4.08478e-20)
(1.28851 -0.420635 -3.28055e-21)
(1.15896 0.502617 0)
(0.451783 0.206826 1.72726e-19)
(1.12163 0.312774 -1.13819e-19)
(0.819417 -0.649016 -2.6922e-20)
(1.14257 0.0371634 -6.49761e-22)
(0.917041 0.14839 7.71986e-20)
(1.0863 0.167033 5.66211e-20)
(1.06541 0.697444 1.9052e-21)
(0.907534 -0.444881 6.75093e-20)
(1.40755 0.185928 3.30703e-20)
(1.13064 0.0119024 -1.23278e-21)
(-0.00592844 -0.0703448 8.39227e-20)
(1.08595 -0.708301 2.2951e-20)
(0.874796 -0.726509 5.59606e-20)
(0.252765 -0.344297 0)
(0.972627 -0.149912 7.5583e-20)
(0.36034 0.296732 -4.48251e-19)
(-0.0808401 -0.119371 2.82977e-20)
(0.249283 0.0225225 2.11694e-20)
(0.666055 -0.0626998 -6.98381e-20)
(1.07342 0.521899 0)
(0.990948 0.219246 8.42908e-20)
(1.08478 0.0327783 4.20389e-21)
(0.904155 0.434574 -9.42286e-20)
(0.784509 -0.729962 -8.82132e-21)
(0.925174 0.0187302 -5.03029e-20)
(0.972425 0.481969 0)
(1.08134 0.0485316 2.96227e-22)
(1.38592 -0.521888 1.22097e-20)
(1.23257 -0.347143 8.89872e-21)
(-0.312934 0.0460954 2.8936e-20)
(0.194456 -0.00865688 -1.84427e-20)
(0.977512 -0.12104 -5.985e-20)
(0.349357 0.516133 0)
(0.912361 0.0115179 4.00801e-20)
(1.15191 0.631156 7.25859e-20)
(-0.0261632 -0.168148 1.42285e-19)
(-0.0691771 -0.0365286 -2.30988e-20)
(-0.0787871 -0.169759 3.87679e-20)
(1.09686 0.0256896 -5.74692e-21)
(1.13095 -0.465174 0)
(1.07201 -0.742768 -4.56359e-20)
(0.69541 0.341042 0)
(0.0751692 -0.173572 -1.04789e-19)
(1.14767 0.0386226 4.10647e-21)
(-0.0361086 -0.147635 -2.77042e-20)
(1.04754 0.056306 -1.19689e-20)
(0.114938 0.0244326 5.3067e-20)
(0.849341 0.121605 0)
(1.39394 0.0119738 5.04846e-20)
(0.0344976 0.00998605 -2.40374e-20)
(-0.310391 -0.0243796 -3.43489e-20)
(-0.222791 -0.047537 0)
(0.0685648 -0.0214506 0)
(1.35102 0.0137988 -1.43713e-20)
(0.368314 -0.0144933 1.43663e-19)
(1.27151 -0.733997 -1.84039e-20)
(0.774013 0.0118909 1.76384e-20)
(1.06859 0.248269 -3.29539e-20)
(0.370267 -0.566577 1.42112e-19)
(1.53188 0.273402 -3.14017e-20)
(0.0671932 -0.107286 3.2463e-20)
(0.206769 0.294208 1.99895e-19)
(0.0838788 -0.0657806 -1.21741e-19)
(0.946112 -0.499878 -4.4552e-20)
(1.44545 0.382083 3.18036e-20)
(0.569855 -0.682891 5.00231e-20)
(1.10781 -0.0814147 -7.41511e-21)
(0.263858 -0.0820666 5.73529e-20)
(1.17931 0.285856 -4.57818e-20)
(0.657702 0.630938 -4.26069e-20)
(1.34057 -0.629792 0)
(1.41082 0.513486 3.19029e-20)
(1.0577 -0.535176 -1.2582e-20)
(1.38095 0.600303 -8.98153e-20)
(1.16509 0.0328053 0)
(-0.050098 0.0406311 0)
(1.24355 0.722321 0)
(1.10941 0.0180819 -1.01425e-20)
(0.743893 -0.30904 -2.1127e-19)
(0.47583 -0.0924903 0)
(-0.0576512 0.0201879 -2.37697e-20)
(1.02104 -0.24934 1.03373e-19)
(-0.362341 0.0802703 0)
(0.32104 0.0146417 1.24592e-20)
(1.12756 0.0347981 0)
(1.4071 0.267497 0)
(1.17161 0.0347192 6.95778e-22)
(0.362048 -0.302546 0)
(1.01297 0.148993 4.00995e-20)
(1.30259 0.281733 0)
(-0.0977237 -0.0331792 -4.67206e-22)
(0.814582 -0.404188 0)
(1.50357 0.334499 -4.72823e-20)
(1.23544 0.361989 3.21913e-21)
(0.834853 0.636486 -1.02756e-20)
(1.00944 0.157576 -9.30859e-20)
(0.969819 -0.208363 -5.02433e-20)
(1.44206 0.289317 2.78011e-20)
(0.978867 0.0634275 0)
(0.563525 -0.0795371 0)
)
;

boundaryField
{
    FrontBack
    {
        type            empty;
    }
    Top
    {
        type            noSlip;
    }
    In
    {
        type            fixedValue;
        value           uniform (1 0 0);
    }
    Bottom
    {
        type            noSlip;
    }
    Out
    {
        type            zeroGradient;
    }
    circle
    {
        type            noSlip;
    }
}


// ************************************************************************* //
