/*--------------------------------*- C++ -*----------------------------------*\
| =========                 |                                                 |
| \\      /  F ield         | OpenFOAM: The Open Source CFD Toolbox           |
|  \\    /   O peration     | Version:  2412                                  |
|   \\  /    A nd           | Website:  www.openfoam.com                      |
|    \\/     M anipulation  |                                                 |
\*---------------------------------------------------------------------------*/
FoamFile
{
    version     2.0;
    format      ascii;
    arch        "LSB;label=32;scalar=64";
    class       volScalarField;
    location    "357";
    object      p;
}
// * * * * * * * * * * * * * * * * * * * * * * * * * * * * * * * * * * * * * //

dimensions      [0 2 -2 0 0 0 0];

internalField   nonuniform List<scalar> 
808
(
-0.03585690131998027
0.04510266890930435
-0.01189934561585428
0.03508039106065516
-0.3037174302864281
-0.05458840498062643
-0.01448948226896392
-0.02387396279784177
-0.2000431775379699
-0.08560061879875226
-0.009403510593614077
-0.2576870820867227
-0.0305626486802938
-0.01290012043770877
-0.1219463262981689
-0.01399794996798686
-0.1406177347410372
-0.01355377916678045
-0.01250198934249375
-0.05695539994516036
-0.005830578715428816
0.1182995612801605
-0.06082521553381243
-0.07337002359230733
0.176453624630137
-0.09928878491581583
-0.15519849069173
-0.02030213722589812
-0.01737295604759065
-0.02603271952235156
-0.02015721773920767
-0.05985612218153049
-0.02297338862838291
-0.01683446060064746
-0.1010490921943375
0.3441141580304092
-0.03851136006893861
-0.0168274769093524
-0.0233046701861824
-0.02658686497952535
-0.0918437537098776
-0.12894653815511
-0.05073083775708534
-0.02059841312686595
-0.05488097466244871
-0.03986427578991387
-0.01237787071072805
-0.1874901778890859
-0.02759982324015006
-0.2073471116124395
-0.01604407796812589
-0.068931699961534
-0.05945547911423412
-0.01480280881468305
-0.190335907045082
-0.02900131920998483
-0.01066577536499571
-0.01434352867230508
-0.1023464448796953
-0.04070074270413929
-0.09604950333371816
-0.1285556246363539
-0.01336237537713759
-0.1301061622423135
-0.01690187130802676
-0.05054552429552269
-0.1668738499182063
-0.03568211380676346
-0.01485701266664556
-0.4460728141358343
-0.02701646330791889
-0.308065200741316
-0.02203639333769582
-0.02031192640040343
-0.0671711488426109
-0.0173268292659446
-0.04354904991856605
-0.3595364005642912
-0.03540296598382973
0.04194979457908753
-0.09048402833633917
-0.01730749372540838
0.05678694423893212
0.04354929647203469
-0.0165336234792456
-0.05329482954023867
-0.5489901281756883
-0.222845113210986
-0.05341953442149618
-0.1115264199890011
-0.05800745923530987
-0.1348596540470469
0.04073527647401472
-0.02381441495115011
-0.06050279033373299
-0.1191366232004963
-0.03851034585926984
-0.05205272451660693
-0.1180988752902765
-0.1398416598295688
-0.05204603088005595
-0.0484325363262085
-0.05562835110952692
-0.04580273641729096
-0.05794729739297381
-0.07319693065186912
-0.0415312248697123
-0.01128691138308012
-0.04112013805710132
-0.1266471038484291
-0.05130082172100196
0.08333727756932098
-0.04317117347632538
-0.008155963654804439
-0.02785269306682181
0.1801780223310566
-0.03987678135225024
-0.2735634289508627
-0.02027047640307651
-0.05485661583248074
-0.02669763540707861
-0.04777919768559714
0.01258195599093134
-0.05007725387317036
-0.03400321280397867
-0.2142334892344015
-0.04285812128493963
-0.005140081752944868
-0.07770406494913933
-0.06750518234375417
-0.1463333669416393
-0.02089086836639131
-0.0765161606615556
-0.04114016438637853
-0.0227105313007415
-0.01662264002712142
-0.006446973348073409
-0.007342006296509662
-0.05318347473046205
-0.05097511013989511
-0.2101777100329541
-0.05809368287008312
-0.008577002969809722
-0.02280192127791645
-0.144797494106093
-0.002444043453580023
-0.07776298226054545
-0.02368149014058113
-0.001180721372268839
-0.0105420731233671
-0.03393551865368711
0.09553691884688209
-0.03980979215168725
0.252731365455399
-0.2662573967802239
-0.1302852188584294
-0.03709226604275257
-0.09121962140114338
-0.009231805242930999
-0.111715996382546
-0.1863232688716387
-0.2152132967002567
-0.1824833531861585
0.05537483087292634
-0.0617823499484904
-0.02027541432918215
-0.0679572982755537
-0.1712742841439756
-0.0239368023172941
-0.01846416255822024
-0.05332014447738042
-0.01803255473989148
-0.005949119156224892
-0.1103708566118662
-0.02273106871814094
-0.04663997796803302
-0.06873921901416982
-0.1637800660021458
-0.03376143823435054
-0.3963213941426361
-0.01779672019600516
-0.2224197300251677
-0.04546836730580484
0.03061659168684102
-0.1053817481677462
-0.01413519261859135
-0.04153764680438449
-0.1056120349869893
-0.01767130838374911
-0.09693097303823715
-0.2057659550409846
-0.07296387500756775
-0.0236813210268835
-0.0498399996545963
-0.04385843459984361
-0.204464101093958
-0.02181847831136624
-0.0189370222962066
-0.01136936488817196
-0.054574329280974
-0.05204568871839503
-0.02238075838883124
-0.02086469211608147
-0.2479785440572884
0.1280247353777195
-0.2005358875020795
-0.2077447794634569
-0.01179138513577834
-0.0116191149138086
-0.06772823707579621
-0.009542012668392552
-0.5151545387361967
-0.1219304834186415
-0.01891323423566246
-0.001156384650466091
-0.02431106754375786
-0.2872220245745824
-0.2739398082419552
-0.007057744054071543
-0.01757300544323635
-0.001962127341684973
-0.344426989238807
-0.02824130462679264
-0.02913179786390184
-0.0124893466991487
-0.01979025135988576
0.05104693528664805
-0.1075842495101689
-0.01383727551509682
-0.02072872037391918
-0.04292015594233924
-0.01818425515218194
-0.01611704513561208
-0.02336292677947403
-0.06685800800465025
-0.01187283435702323
-0.01908142407516469
-0.008505212106389312
-0.0007748473318011698
-0.02957184517295071
-0.001545453654859461
-0.002303174206483089
-0.006075175339334556
-0.02562823094479682
-0.007989993989711576
0.001549560279487431
-0.004186453985790323
0.0011828123973787
0.002536208085448702
-0.008586062591923928
-0.1429805626592626
-0.003032942484744406
-0.001393528951219741
-0.04849644895209146
-0.02153080185230545
-0.02493029425825044
-0.01439169562011121
-0.006094425508717742
-0.02085152210577262
-0.03733883911683682
-0.01394854748103553
-0.01283289043079053
-0.01187956374506115
0.007094580586829981
-0.01029577413422194
-0.01189855940270404
-0.01130782837581751
-0.0108089782078127
-0.01011055275318198
-0.01160712516534358
-0.01414877809706822
-0.3116400324268723
0.06106103479540195
-0.01550300938149347
-0.01644927108360455
-0.01309576065657111
-0.01226442186181112
-0.008792397133081298
-0.09760335294844229
0.009288871813773867
-0.01369501484300265
-0.01474279312185424
-0.01079977379637534
-0.05330145176914175
-0.009992089248556683
-0.01380589384263052
-0.009365859409321227
-0.0005226186810802075
-0.009804163595431842
-0.01124093124757042
-0.02491683246730211
-0.01621134618856723
-0.01185104949375812
-0.01335915395012052
-0.007661786769409908
-0.01272754482225355
-0.01168830866243835
-0.05716983308801692
-0.01298682394577826
-0.01129259109021628
-0.008668780185271476
-0.0148436231331322
-0.01392321814501463
-0.01572121982031928
-1.379428025974757
-0.09821014048700444
-0.01326160697546428
0.02372131036321108
-0.1655529756364704
-0.09257750565765878
-0.01139825857655605
-0.0140461352686383
-0.2535276003458345
-0.03083429413313168
-0.02045698490795636
-0.01085496778025377
-0.01959934659908929
-0.01087734839346668
-0.03069429747902918
-0.4158746794370014
-0.01234811973230896
-0.01410403767507707
-0.004907951143142
-0.01069099685772842
-0.009864855844200892
-0.01435835886407925
-0.008812489051160602
-0.02604090245161605
-0.01130461386041141
-0.1620694587120017
0.01719011626834044
-0.007748836657724942
0.00317631974774944
0.01345105483986348
-0.04719922569385513
0.02997415014683442
-0.01296122992951939
-0.1356443606013759
0.2820304821937962
-0.007204886654708989
-0.01321789906459101
-0.008443484572967249
-0.033004427518355
-0.1222197052713016
-0.01282033405527904
-0.01238551799102933
-0.01682846265188175
-0.01361189305101117
-0.04090619486055661
-0.2137521754188135
-0.01147776994933627
-0.04107919273135054
-0.04001007824206338
-0.1650303957262572
-0.1658492512893779
-0.1389836328592566
-0.2534219407081956
-0.007370845946545248
-0.02132120695606522
-0.01417205179846554
-0.01259050758501959
-0.0327847351446801
-0.02439615127105112
-0.01450357618367558
-0.01502056687221282
-1.08284590121616
-0.005904945609359826
-0.01364856453828183
-0.01849762463653872
-0.02053419203095831
0.001390925566347514
-0.01423661162373133
-0.02787385012110162
-0.1628696145980366
-0.01358344957196402
-0.02229252833414967
-0.01376929849644607
0.0009130613256908485
-0.1796100304516842
-0.01334436672619291
-0.1410300983195821
-0.01612061922987226
0.008058390095808974
-0.01465039251220385
-0.02301970596574287
-0.01557536663857844
0.004904712175789494
-0.2792871080593082
-0.02540675379182317
-0.01591450319173363
-0.002820693934502586
-0.009276536184073538
-0.03063916530291308
-0.01442398138873349
-0.02030347671101951
-0.02143025692168384
0.01341820349105313
-0.1011735811075279
-0.02218711862960779
0.009159554529845257
-0.05085142763843677
0.1581313202476443
-0.1026540327248506
-0.3217110658313003
-0.030794709871913
-0.02534558255474183
0.1490845656814657
0.08261582367634586
-0.003304559359604958
0.0492116993661068
-0.01567330212294411
-0.01470488893734283
0.002193700678506534
0.0119863565251615
-0.06718011873463166
-0.005837512038854048
-0.05773967112793188
-0.02209190273909272
-0.01572289895513642
-0.03653291859018214
-0.03291457222345032
-0.006637313404281136
-0.01507479810898207
-0.0393457839227116
0.03785478894096112
-0.03890363306827888
-0.0135901619812789
-0.1160000869280598
-0.03210643441125154
-0.03839564522482666
-0.6783113215522728
0.01956433845868559
-0.01087271347893928
-0.005394572640079551
0.1586636149435532
-0.08319000662823579
-0.03485967007009252
-0.2474916782849927
-0.01674763705320789
-0.01664570810630661
0.06214963903128871
-0.1850749029086398
-0.227719082151657
-0.1989500459177012
-0.687538609415255
0.003859275766605558
-0.01863655483573371
-0.01685470395181897
-0.07782399251906505
0.117691289954245
-0.02096683245462431
-0.2431823404916482
-0.0348370285670283
-0.006428262338372709
0.2773977457059085
-0.01132709380504928
-0.0939985229481179
-0.1485818079087897
-0.004467202061195171
-0.04028073308391779
-0.04881478412628265
-0.2068725575121861
-0.008864122961617045
-0.04231528259711826
-0.002426719885102401
-0.5518142488733534
-0.2002179537827938
-0.1753905971757445
-0.02262747922530731
-0.00677839808127591
-0.05975186729254674
-0.05838748575872774
-0.01447914010326857
-0.06732675177142342
0.003010073992550215
-0.0184343761804709
-0.09482639854661809
-0.2662956983788058
-0.007359004774846362
-0.02647400196782032
-0.02216046808535025
-0.0739911745998043
-0.09131235333938291
-0.08756607457716811
-0.01176788234649133
-0.9288762357316587
0.1606371926039037
-0.07910862422375714
-0.2573661917369922
-0.04269967828598156
-0.01052119789837567
-0.2528636651712811
-0.1834019890044948
-0.0333885455711075
-0.12853052926731
-0.01920335481377227
0.5628398204171384
-0.02373909003898173
-0.2303389381146205
-0.02626477108929728
-0.005664324320658024
-0.01201373931393667
-1.254512923608146
-0.1832224587353273
-0.2342381060607542
0.005395117649719954
-0.03708585951267512
-0.2542027847622917
-0.06520604998854393
-0.05080109350637604
-0.1416706519019819
-0.1916252467370765
-0.0675545111302297
-1.231456568460493
-0.1421426171414117
-0.5179178559807531
0.07831932969487608
-0.006899909015596808
-0.022060852513512
-0.04235366604722621
-0.04083987634156549
-0.02892312909581951
-0.1315156366291276
0.07974789698179541
-0.002494577249031318
-0.009769502476036744
-0.5821707070200678
-0.8657520636725786
-0.1866271860447762
-0.008292739466205531
-0.1387734297444668
0.001131189873927912
-0.0005906599067005976
-0.00177400399636459
-0.05986484693640712
-0.2395282306231501
-0.01341261266076436
-0.1251547849075782
-0.1553627332836177
-0.01324561376889687
-0.0360328017409251
0.0217543505226955
-0.05710173043920617
-0.06943956191057686
-0.5043041526016199
-0.2378903943083956
-0.08100417452837984
-0.07222950651159224
-0.01999127600474534
-0.1243614959041503
-0.1518798424543803
-0.07433731210213139
0.02331000588201104
-0.08408152460126986
-0.04780340570540866
-0.01489904369649055
-0.1063543997707135
-0.2713950743643553
-0.05648924057771078
-0.01856107323716951
0.0001268362142639582
-0.0100031810766581
-0.01118890488107597
-0.2160062861662352
-0.01525811977992158
-0.2228566366735226
-0.01033706605679166
-0.06632726277587306
-0.003835840453865442
-0.02319744488056809
-0.376332744607296
-0.9069525498184281
-0.01134476363771284
-1.050295248212082
-0.6151803873003413
-0.01067501015705529
-0.6555422041212139
-0.1757139174431391
-0.005902702383908222
-0.1313359530279065
-0.01693991775924222
-0.1213327981955562
-0.06762021377599625
-0.07708439418811214
-0.00508377922988125
-0.002468905001243683
-1.33587707347057
-0.01115722661271202
-0.1833505591880665
0.0004825169092325175
-1.013039098057171
-1.231231509712599
-0.08188971190097631
0.01993504468942172
0.1643152769064004
-0.004632514733409727
-0.02304979709619472
-0.004196055498455819
-0.2541467946596986
0.3662111434198342
-0.04068875112800136
-0.2100180615293787
-0.01487024591916944
-0.6565263178048251
-0.07535498909679482
0.1912071183188899
-0.2825622385893515
-0.04961766468594957
-0.0685161607595236
-0.0158964091878476
-0.02178008731090262
-0.5732981920608828
-0.1439256666125829
-0.08517066826579756
-0.1291178515207436
-0.5570485280244225
-0.04397656337466938
-0.9093465895607109
9.069009248395629e-05
-0.2369911357543979
-1.047511424783811
0.1682521464515569
0.2919921346070772
-0.1845054873207051
-0.1934971204952172
-0.2071471030007159
-0.06830468237041014
0.02240084375737102
0.04885928519132272
0.003644998383305307
-0.1678464644059135
0.02547982160454518
-1.353995688147878
-0.08482936197860184
-0.4721214049061829
-0.3294273298007816
-0.2024657771444819
-0.1756324842464311
-0.01690581445866843
-0.01547298811157569
-0.1077520132054093
0.1710803808941188
0.3856502857437351
-0.2152050110906733
-0.1388276570183299
-0.2380162336629082
-0.0622638080557727
-0.1492554648507474
-0.1620360285688573
-0.1252608995824996
-0.1239838880422301
0.4663079926432647
-0.2677068595872061
0.4310994196199304
-0.6010557294034439
0.07043528462534808
-0.2052793816761576
-0.06581716849682262
-0.07381091443389454
-0.8762140581398898
-0.2209297844128384
-0.1897077675282394
-0.3454297884364879
-0.4562430797487178
0.5706797955209421
-0.2065068770527737
-1.793262213633343e-05
-0.07099277718311103
0.3436141592880578
-0.03779348482980966
-0.1319861982435841
-0.1786760636238703
-0.06344507578120374
-0.01655154674318457
-0.1942679648829917
0.1936545150894695
-0.01286024932510315
-0.0958318501472253
-0.1681421765274065
-0.3143731805428071
-0.314173090419068
-0.06357664622513598
-0.01033354180693884
-0.07814980233770684
-0.6557239262340399
-0.6686269661104219
-0.3397251295049301
-0.05742088826967313
-0.05220912166969408
-0.02556672818569114
-0.0672230638682462
-0.05815759448666581
-0.3573508476285424
-0.9556821803710026
-0.01044467869893092
-0.08253617398783901
-1.135751766573539
-1.029650240485856
-0.1044800632561205
-0.03821297132337066
-0.07025019156183893
0.390630376201496
-0.3450457115729426
-0.05024546630686438
-0.5969998300896372
-0.1213451421943146
-0.2538176345783474
-0.2095441143891879
0.4742517186960417
-0.6260142038546657
0.07320659660784065
-0.02966707606810755
-0.5559448826861921
-0.05112911098336739
-0.3603915730898483
0.1067646801844321
-0.1894298907799272
-0.05951193130017136
-0.1391288530883688
-0.3629293563484146
-0.08833818458154971
0.5143790538247489
0.08518528537910654
0.4709942649211157
-0.1033409269535754
-0.1989710847958762
-0.5238270235819975
-0.1302491770640775
0.02717178084549688
-0.05319644355116353
0.1029510426837111
-0.3077921514220239
0.236228680900722
0.008766239778365223
-0.003310521283289891
-0.5146131428402857
-0.1862351600435574
-0.08139763794424536
0.5815482991108375
0.1383104646405378
0.3457717349615333
0.2258522278467847
-0.5600232748442471
-0.2020060412896928
-0.2219564889669742
-0.2355596851043394
-0.05996716792944637
-0.6959848687171993
-0.1943452017776367
0.3062928232211722
-0.200678377382552
-0.01122106572679996
-0.172586593099328
-0.009143319601505622
-0.1560976732512656
-0.4330412149385507
-0.07664838637599264
-0.1977638068549422
-0.07092993776076169
-0.08685695604170211
-0.1467086707430032
-0.07334966192955372
-0.4566645215502263
-0.4160160608653228
-0.02638855493662475
-0.07398258426083051
0.3272197075577529
-0.2457723362883166
-0.1858400547612704
0.5255139006082992
-0.2090295852273048
0.01767760155050558
-0.4478061541291768
0.04673380780920713
-0.06242412460917116
-0.1468588982224724
-0.5807498334699644
0.1617386341546007
-0.582071271095748
-0.5324373367734059
-0.1060898278736161
-0.5057354626955071
-0.03750623992489512
-0.1385896103731192
-0.4088831648018281
-0.01633043509040553
0.2865016113553564
0.4895454836713634
-0.157641209278439
-0.008443982354223918
-0.07423538200726275
0.5253598582847563
-0.0335580678843551
-0.4370566438958176
-0.03290578579903812
0.4606056864334974
-0.01445872026710085
-0.5413578636462457
-0.246821924547918
0.175781053693536
-0.3087252430251279
-0.1777571009634207
0.05163835382344583
0.03396228542313103
0.05405937714331779
-0.2975090393729037
-0.1576376518607758
0.4127737463263747
)
;

boundaryField
{
    FrontBack
    {
        type            empty;
    }
    Top
    {
        type            zeroGradient;
    }
    In
    {
        type            zeroGradient;
    }
    Bottom
    {
        type            zeroGradient;
    }
    Out
    {
        type            fixedValue;
        value           uniform 0;
    }
    circle
    {
        type            zeroGradient;
    }
}


// ************************************************************************* //
