/*--------------------------------*- C++ -*----------------------------------*\
| =========                 |                                                 |
| \\      /  F ield         | OpenFOAM: The Open Source CFD Toolbox           |
|  \\    /   O peration     | Version:  2412                                  |
|   \\  /    A nd           | Website:  www.openfoam.com                      |
|    \\/     M anipulation  |                                                 |
\*---------------------------------------------------------------------------*/
FoamFile
{
    version     2.0;
    format      ascii;
    arch        "LSB;label=32;scalar=64";
    class       surfaceScalarField;
    location    "1600";
    object      phi;
}
// * * * * * * * * * * * * * * * * * * * * * * * * * * * * * * * * * * * * * //

dimensions      [0 3 -1 0 0 0 0];

oriented        oriented;

internalField   nonuniform List<scalar> 
1171
(
-0.9279196511771577
0.9279196511207348
0.7874446002850243
-1.099250959565377
0.3118063593876731
-0.1898491294328851
-0.765215074126515
0.9550642036295184
0.07208034272535367
-0.1170496552306556
-0.2123908238975487
0.3294404788228024
-0.7874445976703431
0.06946465298355402
0.7179799447014218
0.8116213564555901
-0.177988552953398
-0.6336328035203529
0.8741822532982038
-1.044227296006168
0.1700450427540999
-0.2854785686000124
-0.09761682382259954
0.3830953928160401
-0.03632057683904477
0.5489957346177008
-0.5126751578673295
-0.5048365415721311
0.8251397867186051
-0.3203032452382442
-0.4025282188003377
1.045927578500607
-0.1717453263164734
0.3922478634943583
0.04932586185715995
-0.4415737261640061
1.045939819274304
-1.224112736308824e-05
0.4434096627888576
-0.05116180010313772
1.0565420870064
-0.01060227423397996
0.5797085776162075
-0.7695576998021378
-0.7242070243594441
0.5566576423803317
0.1675493819112228
0.2160596179818322
-0.7208961653458262
0.5502700348498095
-0.9227326935897241
0.3724626579416579
-1.09419762759109
0.6865562038856845
0.4076414238439364
-0.5955892506432892
0.5592686796117986
0.0176058811373575
-0.2562657375338668
0.2386598551467793
-0.02284620976054684
-0.5223628555646537
0.5452090657604238
0.4004443072766488
-0.4980611237449548
-0.9189473377190488
0.9415994261108994
-0.02265208839667818
1.067606812770733
-0.01106472897141431
0.9348495183607418
-1.116653318214753
0.1818037997987505
1.067055043843958
0.0005517620232949581
-0.6644487703940449
-0.05975825712785606
1.262312371607141
-0.8642579495452836
-0.3980544220537888
0.1481076991973685
-0.1097190896466377
-0.3260792868148138
0.4357983767757136
-0.2855619055399135
0.1915948667959454
0.09396703929656741
-0.5836806188083206
-0.5155703404266229
1.014039185688428
-0.07918966886830744
0.00990091290446391
0.8254857482922024
-0.8353866611765207
0.5717964526311966
0.6905159199280447
0.4392766489476981
-0.03060087655973486
0.4310451840836184
-0.8079937360221822
-0.1025081615152886
0.9105018974769633
0.5020819317704188
0.2538578825937176
-0.7559398144012116
0.006996608393381938
0.5278338623972358
-0.5348304710571167
-0.4899599489575058
-0.6042376844112988
-0.4227597287247508
-0.6938935900342981
-0.02708741626080261
0.2704118128240921
-0.2433243957684145
-0.9247093937284931
-0.005069461978083861
0.9297788557408581
0.3087362653112431
0.07435913775908412
0.7617330221360907
0.04988833372733751
-0.533072535004519
-0.06251671243060283
0.04602846353742322
-0.8540222019339021
0.07529401177155404
0.8634585825719907
-0.9387525943483951
-0.3468450537722332
-0.04122187004560725
0.3880669237471217
-0.6820335812809177
-0.2426758120729759
-0.6339751405644181
0.7092691493118887
0.6138288542005141
0.2113109272490245
-0.5432760273054813
0.9456445894342422
-0.7790042668857134
-0.1666403225423717
0.01281377022522741
-0.01193048261959767
-0.0008832887838467456
-0.4034179963078819
-0.09464312679320207
-0.2408299878492751
0.8546588354615207
0.0475317801418981
0.3350469702195681
-0.3825787499568629
-0.4609781882043014
0.9630601192897489
0.6804221173650855
-0.7829302839160299
0.320354782099938
-0.01689393111066979
-0.3034608518956279
0.9307358752513301
-0.9307358752385497
-0.7812814422859555
0.1107124077125248
-0.323103226625927
-0.7499402057120909
0.759841117553188
-0.09019718454442165
-0.1434309008454723
0.2336280858485893
0.8649473338790524
-0.03946158610848594
1.054312974257759
-0.8004550947535521
0.1865130924384589
-0.3160241086330295
0.1295110161503151
0.8587842802643911
-0.09705125690238023
-0.6115247669586594
-0.03899554454139341
0.6505203115135796
0.123516930757888
-0.2306970251087913
0.1071800931923871
0.8056337455519689
-0.9836222977082891
-0.4347668525057751
0.3293640899233176
0.1054027622489322
0.5325535642722741
-0.5553997782082937
1.021910567923182
-0.4561883303736264
-0.565722237563641
0.5991508350513015
-0.7193663625126684
0.06672242232066322
0.6526439405945329
0.1028444653660138
0.5696891784617675
0.05538729386564548
-0.6250764724519755
0.1943797392397782
-0.08366732603549484
-0.4925263616396061
0.1456813056843308
0.05023831261729962
-0.8865104496568657
0.8362721369892417
-0.473036990765222
-0.7132955606071288
0.0488467924938769
0.4372849404212072
-0.006239752650567644
0.2999265263112439
-0.8552519768461401
0.5553254502997663
0.4157451789293334
0.5842548210328964
0.5604720677247941
-0.5144436121407823
-0.3678865644558794
0.03791941708258644
0.3299671495650061
0.6813108526903671
0.2494250221853514
-0.5661432524912814
0.5731398623459695
0.111205649788974
0.8750983978288036
0.01016566464480585
-0.6216904332688779
-0.7491173252019104
0.79935563540397
0.5306936332097656
0.06982564157845041
0.3019354052432583
-0.3717610469581293
-0.1674660052015058
0.443836007683927
0.08399785908082398
0.8755376907555401
-0.8039719309403053
-0.07156575991411591
0.6352868889300836
0.310357697778133
-0.4305054142385759
0.573847206138277
-0.5040215675027143
0.4171609775741834
0.1331090470065882
-0.04674669552235243
-0.5940674993148374
-0.1379792522199928
0.732046751569885
-0.149781238526344
-0.7809546343808416
-0.6109869489388842
0.3604633779408647
0.2505235720520061
0.6219603155298348
-0.6117946531208485
0.2392432943058869
1.011323500324673
0.04298947503174391
-0.7491173270197281
0.2342520369907899
-0.2214382585373234
0.6804221192779089
0.801756366850356
-0.8017563668115194
0.8376636630472165
-0.8331451423749933
-0.004518520753380585
-0.4453659980673886
0.8611111755757362
-0.1473080660231255
-0.3452182932796077
0.7347280177976115
-0.6685140122734154
-0.06621400545043464
-0.7348159847448722
0.1407484855714593
0.1389237593029349
-0.6719962937857934
0.7829303023223897
-0.9503963074614035
-0.3686441470852831
0.2907697792595115
0.07787436833788003
0.145843352320934
-1.010001349055536
0.8641579967066202
0.4812599844107697
-0.04198333538666395
-0.3081196775423409
0.5863792849053454
-0.2782596074691052
-0.7385614725979953
0.8844048279448224
-0.157043955898282
0.7312860317176036
-0.8432036963555858
0.1119176644886576
0.9760714560047673
-0.5396987076212513
-0.4363727483501319
0.7550096684014115
-0.06503279030761785
-0.03216852260213463
0.185079109271982
-0.1529105859303837
-0.7758122752755812
-0.8416851575105955
0.07647009083899829
-0.7499402069367195
0.5136473538465216
-0.5548692220833967
0.09868219494157467
0.7185597071042609
-0.8172419021809885
0.7536358630589998
0.1742837689567085
0.5029192653684619
0.497080734653554
-0.05098299635724006
-0.6123038745256779
0.6632868707435948
0.8839402789529958
-0.008402591552945428
-0.7550096684148134
0.7993556347886182
0.1914072438078586
-0.4476729851439876
0.0156739354672079
0.003597593410325763
-0.01927153243177691
0.5885207972809169
-0.4376793720695671
-0.1508414255526634
0.7179799429308588
0.0103785886447288
-0.1103991250752877
0.4376575703039038
0.1508632231921635
-0.01645189727112075
-0.006107427949899658
0.02255932535732287
-0.03101198961738904
-0.001156526536976968
0.2449584243967339
-0.2618523711768679
-0.9588003245963819
0.001322157289635831
-0.1594446897961814
-0.1236857264554735
0.09439219294001987
0.7222301270498439
0.7290028480082408
-0.1447480253157003
0.6734589953555593
-0.5747767980917984
-0.2117652992936644
0.3982783899783297
0.6955719918835398
0.02240795106177096
0.2417856613920882
-1.074930807620055
-0.9503963052510525
0.302496504728466
0.7598411171862947
-0.2090529672142694
0.06562206181266685
-0.7235522839754701
0.9111343801256725
-0.187582096194698
0.4155426317889643
-0.02747570302252703
0.7712393438011874
0.2806336314058153
0.3748682612755317
0.06854141212080386
-0.6587012611179366
0.658701261139479
0.2146288210035034
0.6958730718282335
-0.05612063307940274
0.3911676033929244
0.3796777390189044
-0.0155236445705301
0.03119758643560979
0.4486342699984137
0.03262571664959008
-0.7385614713684562
0.5340266214934482
0.2007013917959695
0.3020901385800721
-0.1170110391297663
-0.6955719932125616
0.1800692993060034
0.7310650821566319
-0.01015152549382436
-0.8136871115077875
0.8238386370254678
0.6963622470861857
-0.7920344119850763
0.09567216487823056
-0.7536358545949288
-0.1498876709799831
0.211360952623256
-0.06147328074243413
0.07726730420981261
-0.1792034782670407
-0.1119449881461481
0.2911484658264026
-0.009502818355656653
-0.006949075665445417
0.7062805036847425
-0.7164320217205258
0.8862633522530947
0.06880085801630191
-0.3098127531627508
-0.5231426044826379
0.8329553578770857
0.1028074310751652
-0.1028074330158654
0.3286891870405552
0.4787956403570168
0.6080549280718814
-1.086850568559932
-0.1941188726202135
-0.585542491963099
0.7796613645734675
0.01227729738034424
0.2213507790428719
0.3766091733353828
-0.2530922564783988
1.014898506682798
-0.5361028699338335
0.6670767409683619
0.9923675810886319
-0.3843126562042182
0.229301112189121
0.884404831114703
0.7126595019812282
0.2138123276395662
0.7277870937088683
-0.78095463449211
0.3412987219158386
-0.2840685810212512
0.2579780912835978
0.02609049009192771
0.8519872233440898
-0.01020506044179956
-0.8417821631016502
-0.7020572208274261
0.7026089796032782
0.5546339990579324
-0.7020572237650028
-0.7126595019837862
0.7026089761012013
-0.03358969598024167
0.90582745017799
-0.01956409386298792
-0.6813108620512076
0.612248826390053
0.06906203565960732
0.5387357224941738
0.5385351828885058
-1.077270905380768
0.4887603090478844
0.526138196683523
0.5478009355583466
0.4583206958136232
-1.006121631429529
0.4950308645684411
0.4973367153974072
0.6122488330952871
-0.5257024747904361
-0.4665270631355141
-0.5557913217337105
-0.5153685666603606
-0.1246439841648503
-0.01275375495874183
0.01275375591115505
0.5095443942922898
0.5243048259801605
-1.039673392772681
0.5730872436594747
-0.2711518378107314
-0.8831825214000255
0.3434838141792553
-0.6326841774558559
0.3900083649723712
-0.0002008332630384146
-0.8280209376244234
0.8282217708978903
0.4208831756952556
-0.02402354752940405
0.8760107736434141
-0.9437878984063446
-0.8347249989097926
0.05735055857766164
0.7773744403839158
0.5509432587538765
-0.4366117250515654
-0.1143315335922748
0.6500887070470829
-0.72927837597362
0.884746968541856
-0.8278050179440942
-0.05694195040326788
-0.01345962504397571
-0.7905123088804267
-0.1110966801202092
0.7153169045174158
-0.6042202243956066
-0.940930176499714
0.9274705511599421
-0.735730877665151
0.6885161359677407
0.04721474171347077
-0.8005647829378382
0.02794948813841077
0.772615294896281
0.06180517800069372
0.04100225550706076
0.4330355732613506
0.05904094759917085
-0.8496858540979441
0.7906449063667714
-0.6448880014588236
0.5939049981269324
0.8898527610890703
0.07290732280020577
-0.962760083994201
0.05512776339228769
-0.05006439744905829
0.3800315369599216
-0.3816322677497294
0.065608153655822
0.840713554649879
-0.84091439268659
-0.7317639183024625
-0.810419896990181
0.01990758742174831
-0.1684678687190979
-0.8478543318916685
0.02004930606749421
0.6238132106124531
0.04964578668950419
0.01715491567609091
0.5337883295766351
-0.8147472892892871
0.8426967815575566
0.565722240610827
-0.8520444924298257
-0.8680228532258119
0.03780459965554721
-0.03322231381881634
0.8342656296595364
-0.8010433158148609
-0.01963257257369043
-0.7649862277617069
0.5442947076380033
0.1520675405766308
-0.01951834413221937
0.8955291169124662
0.9848211101143979
0.8607506014927043
-0.8407012999314204
0.1475864925266333
-0.1475864943600008
-0.117742210911603
-0.46622365697965
0.02961192546372953
0.2713731066562604
0.03112339840377919
0.3852468382568714
0.8758965470981718
0.006241482747609151
-0.01574428755848076
0.6586021472997529
0.3413978527223637
0.7835529042832176
-0.5836806196433884
-0.7780471390544755
-0.8112483687795454
-0.6799568816232548
0.6799568816210804
-0.1681394632279444
-0.1549637575633004
0.6017949442075081
-0.8113307301496659
0.2095357859637515
-0.4939729996795325
-0.568856680725033
0.2780647256722266
-0.9719583167436142
-0.8988424169551911
0.8419004558640921
-0.8197509089984576
0.8396584972180193
0.6484852885272018
0.134495288525646
-0.7829805770646769
-0.764033626984685
-0.1463090579358677
0.725349272184502
-0.5790402142480807
0.0229458729058002
-0.01294429937688972
0.01609409755759659
-0.003149797101196557
-0.3528080377128593
-0.1134156171454362
0.8798596709058417
0.7385320977894911
-0.2385444658113894
-0.4999876322849007
0.6242005657345823
0.6856402947758207
-0.4710114752840125
-0.0003088811465331116
-0.2852530292020853
0.01447308765706236
0.746829321675429
-0.7613024091892147
-0.3234730279257325
-0.07174813950035096
0.07596797746503386
-0.9665541885043666
0.1247720293950156
-0.6768354399298059
0.05420169327098692
0.6402382477904521
-0.6944399410381119
-0.7565835569575049
0.07974811701490049
0.58948313680623
-0.6612312762201978
0.156254494514285
-0.3354579766929577
-0.7724475761372056
0.008413949139461852
0.3711512307611131
0.6001546035449014
-0.0263073945957032
0.02183643242524601
-0.02183643395785209
-0.01886117424428652
-0.0525434754714323
-0.231525089995314
0.02114874960637876
-0.0149072936941328
-0.7228017927964704
0.2794048362650265
0.6784369771215416
-0.6901265779805404
0.01168960104208777
-0.59681548409426
0.6510171757697262
0.654433285883019
-0.06495015030677188
-0.6310705760220082
-0.1255129832000084
-1.049764319945433
0.0112341046216337
0.1363523921700048
-0.7083287065934859
-0.7421672598057376
-0.7639458470843067
0.3658914257218576
-0.4069336400291341
0.4675447138950622
-0.06061107372176935
-0.6737835023422672
-0.03454520414459172
0.49962762166782
0.7306824955178292
-0.2347571439535941
0.1110714190606
0.9581402421010039
0.446169506003132
0.1324292922591818
-0.5785987983180255
-0.6774907242408824
0.003707224212091338
-0.04449691417828602
0.03155259014078794
0.6375787236063004
-0.7755579778108573
-0.002780734282365676
0.002780733825743951
-0.6000233233662021
0.6495686526212817
-0.0495453292320017
-0.6603358087395446
-0.1138571359206069
-0.671815941301997
0.05371698197029143
0.6095698835518126
-0.1376103901693956
-0.8181249976966969
-0.5650774069408493
0.5720796381484049
-0.00700223047648353
0.6312530476281452
-0.619563447053623
0.3223264812381572
0.2136765729805666
-0.5360030542293324
-0.104588537234859
-0.6027234707816519
-0.09171646917233213
-0.153853816618432
-0.5113604365329116
0.4043522653999425
-0.4989953943180041
0.1259893222483334
0.6787466617035528
-0.8047359839499629
0.599150835045013
-0.3746670147631757
-0.03226663591398738
0.05986504194981924
-0.5712254799293849
0.5514574580048138
-0.04033324538845431
-0.5111242128130342
-0.3127429980187251
0.3053881182180976
0.007354881018101632
0.4507779399504414
0.1223093000849778
0.05170981703991546
-0.3162144765302247
0.157207504633067
0.159006972126293
0.2533167365281888
-0.01906470971356628
-0.2968524838421799
-0.3131817829309923
0.3598102617691478
-0.04662847559423581
0.7918487682772091
-0.6291870417054712
-0.03114876716761028
0.4995104247812963
0.2851236738735219
-0.5236681437641747
0.5774419058526034
-0.5774419058510157
-0.2897888924322618
-0.5865180193707298
-0.2955234778169
-0.5865180195896736
-0.5968686556017823
-0.8384785575017161
0.1699645407754539
-0.5995751110281581
0.8212214791853267
-0.003411768589742183
0.1189140962448158
0.4812405081235252
0.09674149978602138
0.1855800671364826
-0.0361842438556836
-0.1493958223610195
-0.02749548254082761
0.5906729192400164
-0.9426481694669497
0.4195055605813239
-0.004273175751159173
7.462425152560473e-05
0.004198551740455813
-0.6439903630768739
-0.1321164086003233
-0.4659771119769962
0.5984064052716072
-0.5035757420414791
-0.3151620289697281
-0.2560634365790371
-0.2723374564660361
-0.1116428167416012
0.1116428174703925
0.1535620248580084
0.05779893065164865
0.1968141754426701
0.4484800005103685
-0.569692031835816
0.1037149145086595
0.2537049049778522
0.4662803458699662
0.5337196548113724
0.6456148119045638
0.08131775717397599
0.002993360384509059
-0.08431111769355631
-0.2770442303211828
-0.5410807673855672
-0.5452427983580198
0.114606380921664
-0.1264785655436145
0.01187218510751955
-0.105808080176374
-0.385551542017113
-0.04879932220218058
0.6583692222907271
-0.4994308349619023
-0.1445595280892441
-0.3270925024254956
0.2865664986283389
0.1278265213166632
-0.6093219993534948
-0.2043237203564306
-0.2626157658110267
0.000763413395732834
-0.4209556974769646
0.3221737692733318
0.09878192841163277
-0.08964312408035137
0.2916950207639104
-0.8959327077591408
-0.4575270909112948
0.6308737354282263
-0.773138852506833
0.6685503153209154
0.3411031992817187
-0.1257995359557856
0.2248041962452168
-0.09900466103067364
0.03145372397926201
-0.5861762552604065
0.02886460510703049
0.5573116499066286
-0.9006470410491899
0.5474795474823848
-0.6652217584238271
-0.1007477180455291
0.109155355229403
-0.1091553579149794
-0.3165233631840676
0.3601442204093778
0.01988731110798868
0.0210765314422679
0.06024120011847053
0.5043862393674962
0.667345014469274
-0.7389107767721463
0.02467411963133668
0.02021884731571226
0.001617573238263081
-0.006324709006135657
0.006324709898426551
-0.4100269174297181
0.5323362135942853
0.01559206343026542
-0.01559206331535712
-0.7926145719556545
-0.06003023435458975
0.1218354047574379
-0.4509844255838163
0.5546993358595518
0.4496923215715634
-0.4992376505609237
0.1500427721773856
-0.1500427736589505
0.04390456325301455
-0.01270696606107493
-0.04126496959014148
-0.9764185178968349
0.540045770689804
-0.4706379992242138
0.0410022538623241
0.515043479270594
0.03052094792607975
-0.5455644273973458
-0.6162513026131594
0.1168204680188913
-0.329386719905211
0.01359027762383827
0.3157964413432441
-0.1543254373904972
-0.0804317228707969
-0.5409109070038084
-0.04526534524090165
0.136352392827525
-0.04130152433584908
0.03852078688554363
0.08161462144967541
-0.08161461857396966
-0.5298317883078545
0.4832033033927857
-0.4147276226652439
0.1613031659127797
0.6222497384124637
-0.09735829364223729
-0.00574232765715448
0.005742327705063961
0.5330027507064319
-0.07553366507146367
0.006347920933012299
0.02719703683890576
0.0346775578863727
0.6894153890122086
-0.7649490541706417
-0.6623274583264773
0.6311786915494693
-0.1104937620043227
0.3136024259384264
0.7456436847147545
-0.01886117299717661
-0.2655874326628683
0.1485764067730413
-0.7446250633744985
0.4838799836279827
-0.4245313066296051
-0.1012078217374598
0.003383801284075991
-0.01467322396971113
0.02414213284406558
0.4123034581687868
-0.1216343226076836
-0.3894898913335033
0.6290887274924937
0.01907843511348527
0.009135392227133107
-0.009135392424477673
-0.3547796894522667
-0.08135178808990953
-0.5604171387025241
0.5570053699644189
-0.2377445256941219
0.4647449687111374
-0.1505813004493121
0.7302898811802475
0.6704210332987396
-0.04130152406244202
-0.6164327477139114
0.5600219084456577
0.2823791169247567
-0.2785355610941003
-0.003843554800228684
0.541535569348786
0.09343885959283776
-0.03874924820086623
0.1966717109402713
-0.1579224622898039
0.1203638670647191
-0.1203638643475265
-0.8586455719621411
0.002456275548894563
-0.1131468448856845
0.1403438805108122
-0.1316822819597883
0.1316822830050708
0.02021885066980832
-0.02460351294577754
0.6708693567528369
0.06019572589325861
-0.3228473516989933
-0.06270419010598996
-0.471294898782411
-0.04471338655172358
-0.1514902861604248
0.1514902876733706
-0.0404065560898007
0.1435051531497517
-0.1435051544568355
0.1366126361823843
-0.1366126341022124
-0.3160145718997294
-0.1144908422964189
0.226219754686885
0.103144334714484
0.03480692872803844
-0.821225952523256
-0.1976406322420743
0.1700545002088164
0.02135273609457946
-0.2647011952248952
0.1260512944573224
-0.1260512956046362
-0.4142545578785815
-0.0847408335312355
0.2360250200797122
0.002634830055544107
0.04031310055554786
-0.5444108051929873
0.5780005011962114
-0.02815666761777207
-0.01224988753673976
-0.02541054435835435
0.01270356372492266
0.006537601985031381
-0.1845389260371565
0.178001324022296
-0.1077083088516273
-0.2277496693710912
-0.1445542601181787
0.144554261468215
0.0725666606038321
-0.07256665993928629
-0.01911289843977793
-0.1086183144149649
0.1277312120743236
0.2354047081629481
-0.1832319845799048
-0.02152430392302794
0.02314187044603141
-0.1301999509850932
0.6134032570342123
-0.03907616011473478
0.4244993889307688
-0.04122431326995638
0.06378362224121999
-0.1533079099049731
0.1533079117344862
-0.6363571496803077
0.3084126168861236
-0.07911150551949864
-0.2343549932225353
0.003657963353204978
-0.12223010752422
0.1625432089501088
0.1942153986714479
0.09693306073355475
0.09503967741922713
-0.06036211949294794
0.07298759719524474
0.04161878383275907
0.06407101682444939
0.1059834863424123
-0.09913733989975525
0.2102087817430615
0.01191613115021641
-0.1140446302936559
-0.1020593302248015
0.09676075991870539
0.005298568959051433
0.01108345628213189
-0.02214588199373187
0.03747805087471041
-0.03747805076693889
0.07444160264980694
-0.05517478809736685
0.0551747884185298
-0.2244247640923245
-0.05026100864426924
0.01174722890211711
-0.1031669617560965
0.01624876783702451
0.1086657487281233
-0.1086657494647054
0.2929973230206124
-0.2710112347766468
0.1633029202995116
-0.05045407289142872
-0.2205571627811056
-0.01703300944450262
0.01703300902762709
0.3674422412305375
0.2852016884043657
-0.5277798726861219
-0.09394212045229722
-0.03253644297502958
0.5287454001998686
0.2099941498581659
-0.1686543682722725
-0.3816456096606824
0.07659641582387634
-0.1474029247938267
0.1870202337049728
-0.03961730852014789
-0.06704698253717542
0.06704698202711026
0.8222401005374417
-0.5603891727812882
-0.002713815272999005
0.01379727170168747
-0.02003946258406891
-0.2870801712372546
-0.01745386337332444
-0.01287197481387878
-0.1320185722426867
-0.5722192968683987
0.5560357331572044
-0.5685814392918124
-0.006936024673333149
0.09916875428734415
-0.001817626739686103
0.01669527881452347
-0.1674423864354505
-0.336347707426784
0.2331807454983622
-0.05420151729687635
0.03508861752098365
0.1321261777968307
0.1732619391841135
0.3405334522137881
0.276232634586233
-0.2780502619852072
-0.06353854247331284
-0.1549539938458159
-0.2207647210490198
0.07464655815512307
-0.01057553939332902
0.2138163932266153
-0.1971211149169823
-0.08622967119263697
0.1592172726292493
-0.3549048705789856
0.2083765340762488
-0.1921277662379763
0.08966659625870949
-0.4791564849296824
0.174148262028413
0.1704300264210596
-0.2566597078368868
0.07289378748991897
-0.1946379079080544
0.1771840449708891
0.01738554483005359
0.141831725994558
-0.03958271258747856
0.06599979916646673
0.4670029520215042
0.02044504051072544
-0.08070018763950051
0.05614982260256609
0.1256706524614264
-0.260382028697488
-0.2309449375136736
0.5597089569109213
0.1572376835076633
0.07878733784844098
0.07521033611542347
-0.0310617795060007
-0.0005283099782597894
-0.003315243462572308
-0.0326250721622388
0.1708701838985852
-0.1778062090700784
-0.05655805778186673
0.02042805688908715
-0.1469395491353098
-0.05280619396480003
0.1536507096728582
0.2770658462174369
-0.04054241035554556
0.0121752569772253
-0.2552253819048105
-0.1306927244407086
0.2360381775642608
0.1788837061746935
0.1295289075363964
0.0216886198272736
0.08865504779636374
0.05212307364432756
0.4522631657402195
0.01721470928069449
0.09765273698552333
0.04320061705722178
0.07211915850849887
-0.1153197741842692
-0.2425781817872218
-0.2005723316511621
-0.0199848343877693
-0.2020906358154077
0.2752102118028912
)
;

boundaryField
{
    FrontBack
    {
        type            empty;
    }
    Top
    {
        type            calculated;
        value           uniform 0;
    }
    In
    {
        type            calculated;
        value           uniform -1;
    }
    Bottom
    {
        type            calculated;
        value           uniform 0;
    }
    Out
    {
        type            calculated;
        value           nonuniform List<scalar> 10(1.036561245068636 1.064438197105813 1.022318384863978 1.021169062402028 0.9968558778353028 1.012705282133567 1.033849220399868 1.06282968038561 0.8672308025145526 0.8820414972114567);
    }
    circle
    {
        type            calculated;
        value           uniform 0;
    }
}


// ************************************************************************* //
