/*--------------------------------*- C++ -*----------------------------------*\
| =========                 |                                                 |
| \\      /  F ield         | OpenFOAM: The Open Source CFD Toolbox           |
|  \\    /   O peration     | Version:  2412                                  |
|   \\  /    A nd           | Website:  www.openfoam.com                      |
|    \\/     M anipulation  |                                                 |
\*---------------------------------------------------------------------------*/
FoamFile
{
    version     2.0;
    format      ascii;
    arch        "LSB;label=32;scalar=64";
    class       surfaceScalarField;
    location    "199.5";
    object      phi;
}
// * * * * * * * * * * * * * * * * * * * * * * * * * * * * * * * * * * * * * //

dimensions      [0 3 -1 0 0 0 0];

oriented        oriented;

internalField   nonuniform List<scalar> 
1171
(
-0.9279120893921869
0.9279120893522699
0.7874333488047334
-1.099257225025543
0.3118238763499597
-0.1896325524702647
-0.7656670406288624
0.9552995931077187
0.07208790609056788
-0.1172415611769069
-0.2124179376939205
0.3296594984716418
-0.7874333422690329
0.06943512175345266
0.7179982205275477
0.8114766751573711
-0.17800007848613
-0.6334765967166445
0.8740931268379947
-1.044214566135168
0.170121439332542
-0.2854564366826668
-0.09781948335558784
0.3832759203575145
-0.03642866707201231
0.5489921642700418
-0.5125634972706069
-0.5060171915530747
0.8259445326571185
-0.3199273411061058
-0.4026979914222323
1.045836603369458
-0.171743476691415
0.392075690087124
0.04991043217326167
-0.4419861231267534
1.045925169420647
-8.85658659448486e-05
0.443740605787508
-0.0516649175297563
1.05648101460613
-0.01055584932658538
0.5801709595256604
-0.769803505561901
-0.7241316638228485
0.556600331287715
0.1675313324724755
0.2148366391483179
-0.720853836537747
0.5500878053264777
-0.9226457601708968
0.3725579541751748
-1.094209780111707
0.6865959777291166
0.4076138024831072
-0.595599431856856
0.5591707716604931
0.01738516978576157
-0.255990921641619
0.2386057509585162
-0.0225870766683718
-0.5230910008206647
0.5456780774748102
0.40040844324773
-0.4982279198162052
-0.9189633845960703
0.9416509262645862
-0.02268754165666833
1.0676787615119
-0.01119774899069214
0.9348509316861644
-1.116658882902049
0.1818079511595874
1.067124941028796
0.000553815826398603
-0.6644230921062295
-0.05970857064139479
1.262263163771209
-0.8642923377365826
-0.397970826033333
0.1481615515825845
-0.1098861598033369
-0.3258391362885267
0.4357252963554921
-0.2855214094018199
0.1917913277714334
0.09373008204358237
-0.5836921908196178
-0.5155650368166251
1.014062237535809
-0.07921130591378035
0.009886027833488156
0.8254960304417922
-0.8353820582471021
0.5717570858015906
0.690506080578677
0.4391060103505791
-0.03078888560217578
0.4311973291988415
-0.8080470116810028
-0.1025186476156512
0.9105656592342717
0.502064759457778
0.2539497103658237
-0.7560144698389171
0.006924901271640042
0.5286601407256412
-0.5355850423564449
-0.4899886769542177
-0.6042211054207519
-0.4227522237988994
-0.6939066582466894
-0.02716363816892684
0.2705707015265432
-0.2434070626568065
-0.9247383202637192
-0.005084915101596874
0.9298232354032152
0.3086679443941985
0.0746079839671705
0.7616226880580838
0.04985398410338
-0.5330237577479073
-0.06257567116924423
0.04599992306005853
-0.8540469355809739
0.07573091690662741
0.8633338145473279
-0.9390647314445604
-0.3468220441455653
-0.04102987999197195
0.387851924196839
-0.6820381206644831
-0.2427001960034814
-0.6342971840058591
0.7100280990900955
0.6143093965072079
0.2116351307394101
-0.5433523747229291
0.945631896242578
-0.7789526462556143
-0.1666792499623368
0.01125872537328446
-0.009447088881933331
-0.001811636620711704
-0.4034728652272889
-0.09475505400549847
-0.2409541417567813
0.8552635331295869
0.04799040397265553
0.3346266440176843
-0.3826170476250584
-0.4612662456993725
0.9633310024893454
0.6804540067639731
-0.7829726564484228
0.3199596759357423
-0.01628503002440672
-0.3036746461863582
0.9307328063416017
-0.9307328063286203
-0.7811935958027809
0.1109048109727524
-0.3233227438264413
-0.7499298316420728
0.7598158613554291
-0.09044577844039096
-0.1433947872783166
0.2338405661998271
0.864918317142661
-0.03942228396326621
1.054398579092849
-0.8004488735193713
0.1866460890303453
-0.3162022206906062
0.1295561315430682
0.8585945557309206
-0.09697186778669484
-0.6114389083072351
-0.03904078010320504
0.6504796884309518
0.1234575030992739
-0.2305474107596144
0.1070899067351913
0.8055990312916987
-0.9835991117343955
-0.4345098801381174
0.3292373192155711
0.1052725605411855
0.5329872640784231
-0.5555743430735732
1.021907170220166
-0.4561961476623932
-0.5657110225559945
0.5991549454274689
-0.7193411624962345
0.06663876294353636
0.6527023998591027
0.1025800827887663
0.5695905308762436
0.05535504531385424
-0.6249455763010259
0.1945737126319759
-0.08366890011006707
-0.4923113391142759
0.1454892941859929
0.05023727083209364
-0.8864556246512707
0.8362183537672617
-0.4731805627280702
-0.7132405464275501
0.04881745641532831
0.4372393969869215
-0.006042063713432359
0.2999844732838903
-0.8552675586026238
0.5552830851472542
0.4157531971898122
0.5842468027636307
0.5604989359283262
-0.5144990177526866
-0.3679500870744065
0.03881007356196364
0.3291400156596657
0.681287632624298
0.2494451745958333
-0.5665740569477317
0.5734989588172593
0.1114002610902673
0.875034148557132
0.01018327591422736
-0.6216221825168429
-0.7490812396026335
0.7993185104062293
0.5305497552789381
0.06991193390453262
0.3015676401801588
-0.3714795742360072
-0.1674509602302165
0.4445343787192722
0.08412577012987028
0.8749777400327257
-0.804777511641661
-0.07020022845906959
0.6353072137731897
0.3103246841698727
-0.4306365023855214
0.5737134902794777
-0.50380155557365
0.4171247129713902
0.1329630887920261
-0.04673090510739341
-0.5936634964962977
-0.1384094572373269
0.7320729537507581
-0.1497699051256695
-0.7809628980551515
-0.6109986732095042
0.3603415609049714
0.2506571131932319
0.6219303481502269
-0.6117470727440538
0.2392137199464805
1.011414818303198
0.04298376072733048
-0.7490812407043826
0.2330781090020694
-0.2218193779499234
0.6804540075587303
0.8017456488615093
-0.8017456488144363
0.8376381688640352
-0.8331056733136809
-0.004532495613006702
-0.4453552587106615
0.8611084565028977
-0.1472866714002233
-0.345024665155189
0.7347428920071153
-0.6685374995406544
-0.0662053924092965
-0.7356175225553616
0.1419540277489129
0.1390151237878328
-0.6720388809018403
0.7829726667261615
-0.950423626908157
-0.3687212515705382
0.2897339518654531
0.07898730083499515
0.1457906003109391
-1.010074418175544
0.8642838178417651
0.4811539770323606
-0.04204796661774639
-0.3080969042936722
0.5863248943175287
-0.2782279901256868
-0.7385953867961084
0.8843859894759029
-0.1570222959902899
0.7311183399111594
-0.8420708999585453
0.1109525599916928
0.9761995613747673
-0.5393241992234095
-0.436875362104938
0.7550147425712687
-0.06502184769694593
-0.03273359113196087
0.1847228169536692
-0.1519892253263337
-0.7758162183973414
-0.8404377485604017
0.07477071477605239
-0.7499298313242507
0.5136635142707214
-0.5546933915139995
0.0999648302559812
0.7177378158261416
-0.8177026461981475
0.7536137453694992
0.1742983299287795
0.5029258861453507
0.4970741138737083
-0.0519954096812956
-0.6125644218790763
0.6645598313076182
0.8830893809446089
-0.008111643995524115
-0.7550147425834326
0.799318510323736
0.191526174234837
-0.4475170980806485
0.0143100074808102
0.003763906808020234
-0.01807391725629539
0.5886013661906756
-0.437504741615718
-0.1510966249180784
0.7179982162430081
0.01009303113460485
-0.1093194078646555
0.4379897760359315
0.150611589219633
-0.01650377675488782
-0.006528284783801509
0.02303206162975324
-0.03092478405252323
-0.001808802705041903
0.2454356632963244
-0.2617207038082682
-0.958767944457252
0.001340404837717247
-0.1594494341255704
-0.1232855873885732
0.0944411821192381
0.7223768558530735
0.7289792497466514
-0.1447324463381226
0.6745397765449872
-0.5745749437175881
-0.211808284470323
0.3984543750433288
0.6956116231555631
0.02238659310395886
0.2418171638275214
-1.074922838646808
-0.9504236259648392
0.302625876906944
0.7598158628903786
-0.2091856990206958
0.06579090890182714
-0.7237172602394628
0.9110976525683256
-0.1873803923486081
0.415531916227363
-0.02767998619014641
0.7711965053868369
0.2806588354150898
0.375812006765042
0.06792861016910708
-0.6587064237790511
0.6587064237961529
0.2146678361150571
0.6958978208878505
-0.05634485906167426
0.390971502493415
0.3793804356796096
-0.01497225760317714
0.02928227500140187
0.4484465034856812
0.03270747651842721
-0.7385953857972599
0.5339990588724258
0.2007438316855895
0.3010336225528859
-0.1163108087501671
-0.6956116230905484
0.1799307475326496
0.7311669054698342
-0.01017446118865635
-0.813658327664735
0.8238327888688487
0.6963892958979276
-0.7920021407844394
0.09561284485195808
-0.7536137398029784
-0.1501880575777389
0.2116613180160132
-0.06147325974822798
0.07735423924931259
-0.1788510351197485
-0.1122311611618956
0.2910821955823854
-0.008763528672332443
-0.007740241920641818
0.7062887457029773
-0.7164631995936617
0.8867090681219473
0.06859053098955914
-0.3103932975446766
-0.5233721688006396
0.833765466489207
0.1030697608561109
-0.1030697627170697
0.3285440208518088
0.4778474747713578
0.6089892177306863
-1.086836692573362
-0.1941048372855618
-0.5855333286123632
0.779638165887105
0.01254021698387467
0.2213003429946674
0.3764042918554449
-0.2529468007129079
1.015495614349928
-0.5376481425855731
0.6678831411411703
0.9922890224681867
-0.3832998076352551
0.2291176254408959
0.8843859918660825
0.7126425135497612
0.2138587569181379
0.7277921659180185
-0.7809628973195196
0.3412935661231693
-0.2846801563371029
0.2597951369421015
0.02488502061279847
0.8515042319282538
-0.007448141973496457
-0.8440560901351368
-0.7020866597186046
0.7026404732560194
0.5546447400681764
-0.7020866615262001
-0.7126425135464286
0.7026404710996662
-0.03358679854062713
0.9069664666553326
-0.02025739504710547
-0.6812876424531282
0.6122386484850567
0.06904899397239343
0.5386574571401204
0.5385351111824414
-1.07719256833023
0.4878755781190071
0.5276200354177637
0.5482755236543962
0.4578698948507651
-1.006145418550932
0.4938318746722304
0.4984571468286441
0.6122386553269226
-0.5256999172472786
-0.4666611542627467
-0.5559152391746923
-0.5144126966414294
-0.1243330784586791
-0.0128122125498863
0.01281221327123895
0.5095384090842474
0.5244962845354383
-1.038908981274756
0.5724753230175811
-0.2709076802415142
-0.8829878991056141
0.3436637006304635
-0.6327204497896542
0.3900202550537736
-0.0001727690270005446
-0.8270078039508291
0.8271805730129578
0.4208823530547266
-0.02484897736960869
0.8763532111012802
-0.9446904855764201
-0.8342570718406992
0.05696367831370276
0.7772933935947262
0.5526270019086247
-0.4372031496370227
-0.115423852252275
0.6501533026422175
-0.7293646078723963
0.8857262659344788
-0.8271044982892812
-0.05862176746730236
-0.01425971375495012
-0.7905178005901253
-0.1112509543291297
0.7145982605531375
-0.6033473062285075
-0.9414024471734969
0.9271427331211752
-0.7340260373470092
0.6882593454522422
0.0457666919176966
-0.8008330655167839
0.02767698141694231
0.7731560841803363
0.06186914310568912
0.04120062069818376
0.4329475636135947
0.05896423241006887
-0.8498674202840703
0.7909031877797693
-0.6455460851718384
0.5935506721723693
0.8893157440700499
0.07339895414043977
-0.9627146982608497
0.05505867497151976
-0.05040757304189328
0.3795475831839537
-0.3817736247903186
0.06557140250089238
0.8405441913192562
-0.8407169635495098
-0.7322425287485999
-0.8121190650141394
0.02160126411107624
-0.1680300433798817
-0.8477140720071303
0.02060956777757795
0.6230734752194461
0.05146630341700681
0.01805823127341456
0.5345687634902765
-0.8156362428426793
0.8433132278573586
0.5657110237482303
-0.8518567857471281
-0.8680034912284272
0.03896297889396382
-0.03078753554276568
0.833932926219233
-0.803145390645353
-0.02053350661383431
-0.763030061248051
0.5442858350928188
0.1521034653233901
-0.0182966860376546
0.8946498964529531
0.9841064129232704
0.8610651815678972
-0.8404556167348027
0.14771077553024
-0.1477107768551812
-0.1175845656847419
-0.4646154865112624
0.02741233370573103
0.2712167908063191
0.03140908637411709
0.3859050305553202
0.8741163919236496
0.007402065727521765
-0.01616558507276514
0.658595892996818
0.3414041070201577
0.7835847281287763
-0.5836921921831782
-0.7780622777215876
-0.810593527203722
-0.6799529251456961
0.6799529251495765
-0.168211705602244
-0.155111032949695
0.6019643300185029
-0.8112797719311682
0.2093154419345632
-0.4940372112790468
-0.5688430096407157
0.2780189047109998
-0.9719255632982526
-0.8986154949302821
0.839993719576658
-0.8188141221825074
0.8404153870316603
0.6484835447081828
0.1344267185134227
-0.7829102632350914
-0.7648268351237437
-0.1464008519290913
0.7253752676903281
-0.5789744157791696
0.02449910574575134
-0.01227426335195897
0.01565535113570672
-0.003381086943160662
-0.3524555366766517
-0.1121599469200169
0.8799832379833704
0.7401105887055779
-0.2392439687057837
-0.5008666203701916
0.6246867403812277
0.6857266624409828
-0.4710588272754471
-0.0001390019913677524
-0.2853824086243963
0.0124902905773878
0.7482893519209719
-0.7607796423477247
-0.3234420155421834
-0.07204712579461506
0.07615877245535019
-0.9674583562575254
0.1234022688347353
-0.6768530486856343
0.05437931024467443
0.639956129328481
-0.6943354395789342
-0.7563953345738811
0.07954228588580606
0.5894383011807119
-0.6614854269048395
0.1565238002889149
-0.3353748364444991
-0.7723607163355208
0.00753388117975037
0.3711197803547999
0.5998691813817956
-0.02615568780154392
0.02076513617834646
-0.02076513709077339
-0.01934048441726165
-0.05179958144522277
-0.2328805632677801
0.0227964044645451
-0.01539436291710752
-0.7208944149069239
0.2793849863466173
0.6786135152356934
-0.6898101076016033
0.01119659252683813
-0.5959384399332576
0.6503177469184419
0.6545817183691728
-0.06514341591819577
-0.6308592132334095
-0.1255361236443852
-1.049952448974629
0.01121001671117659
0.1365007636205494
-0.7084041249515489
-0.7421101705973023
-0.7639889727859114
0.3660181488274167
-0.4058363129915236
0.4655091650989658
-0.05967285193127741
-0.6707465319811147
-0.03765759291066647
0.499789572624186
0.7306838039119842
-0.2352893594952343
0.1120037730467657
0.9599244773900801
0.4463872492005153
0.1321979317671019
-0.5785851810190714
-0.6770962825417186
0.006349753007920491
-0.04446479331357731
0.03219051553226769
0.6373904075871534
-0.7757998644215101
-0.002606829958311796
0.00260682972370042
-0.6001743507239118
0.6497118850642702
-0.04953753437859789
-0.6590380522995186
-0.1138356646220409
-0.6717752415780274
0.05598128768922651
0.6085785395321285
-0.1376478476670873
-0.8181760930372177
-0.5683521930100486
0.5722227524073924
-0.003870559169153249
0.6301222683666241
-0.6189256784236109
0.3223957596700363
0.2136155113743995
-0.5360112710465258
-0.1047197616172206
-0.6024367706956492
-0.0918986690815467
-0.1537870963410564
-0.5123709096686855
0.4043372486475131
-0.4990923040841541
0.1260879699503308
0.6787622611010037
-0.8048502310240265
0.5991549454230976
-0.373722075119779
-0.03211424212226083
0.06217914217787231
-0.5745500534993501
0.5513825420180093
-0.04038485002411509
-0.5109976921307663
-0.3129318781000991
0.3055796200543007
0.007352258872360562
0.4510027542246772
0.1214725679843087
0.05214494847144326
-0.3163768319780093
0.1573884330095588
0.1589883991313464
0.2503522596832972
-0.01727415636024684
-0.296117320627121
-0.3125314089961552
0.3563260909643494
-0.04379467996702219
0.7912854088038794
-0.6286350644968756
-0.03040298800089303
0.4994622035596878
0.2854547508004577
-0.5246987192883575
0.5774450433328533
-0.5774450433324011
-0.2897834002809366
-0.5865097462756559
-0.2955354250966623
-0.5865097464237798
-0.5966965450601118
-0.8384782021670325
0.1699407012648797
-0.6012227238758046
0.8212022654929518
-0.003310849434888663
0.118465686194171
0.4814034969238025
0.09676181554269031
0.1857487540602988
-0.03625075670462938
-0.149497996424225
-0.02899997893989299
0.5902651808650756
-0.9424405590397728
0.4190683869435484
-0.00586150849431369
0.0005327470362964838
0.005328761922933136
-0.6441178316156453
-0.1321272906706996
-0.466527111058242
0.5987250457438947
-0.5035252762780539
-0.3168710155703409
-0.2576790236433285
-0.2722655613162888
-0.1115371669426303
0.1115371673460884
0.1535978512654545
0.05806346918225426
0.1969587748656847
0.448235005291736
-0.5694684423871965
0.1029413283504085
0.2539336279962245
0.4663555649172251
0.5336444356545033
0.6456956173494909
0.08257427549123351
0.002023994377728721
-0.08459826912939218
-0.2770945991965156
-0.5410814938822307
-0.5459430098371519
0.1147502373854834
-0.1265957726429306
0.01184553563730106
-0.1056945037516384
-0.3854095148987898
-0.049757173081196
0.6583357291795366
-0.4994726598091703
-0.1446451717752969
-0.3263180984538538
0.2860613679976469
0.1287256443667829
-0.6122325343234337
-0.2044624704292734
-0.2628564946616114
0.001135807291497348
-0.4209590984686258
0.3225689727554577
0.09839012594360343
-0.09073157447506242
0.2917171918229744
-0.8959382983332396
-0.4574142397890508
0.6293357472709374
-0.7732034466981157
0.6684836851174113
0.3405639276587923
-0.1253471963690371
0.2244047661229164
-0.09905757039039206
0.03139206488752995
-0.5861864102923831
0.02877215418158421
0.5574142558955874
-0.9006245093277622
0.547690485736039
-0.6652750514090077
-0.10244684317421
0.1093282827490079
-0.109328284999815
-0.3165158354863103
0.3592545701824672
0.02029300858733744
0.02194388473838704
0.06063037421068174
0.5043940688826173
0.6677683111807402
-0.7379685416728543
0.02570778726626789
0.01986496136106226
0.0009001673952971042
-0.006419149325251613
0.006419149961595563
-0.4098463162856908
0.5313188824861851
0.01570084803406212
-0.0157008479335117
-0.7926596375729276
-0.06025194069965218
0.1221210771096461
-0.4518662933229156
0.5548076196055943
0.4501627756184424
-0.4997003061019002
0.1501546844082619
-0.1501546854042363
0.04243469279651384
-0.01315241066920522
-0.04155613983774364
-0.9759947686404915
0.539119408087259
-0.469519172225544
0.04120061960803319
0.5151524442610779
0.03048075977924931
-0.5456332042169922
-0.6163736249790135
0.116900965937234
-0.3292310393902069
0.01360078510666484
0.3156302536249481
-0.1547336596270304
-0.08055571187872929
-0.5409681529249297
-0.04521825163826147
0.136500765036676
-0.04102150863706908
0.03841467621120288
0.08135231780256365
-0.08135231520737481
-0.5276876030158261
0.4838929150862656
-0.4148299729278203
0.1612979606076955
0.6222867675594729
-0.09718168329056677
-0.005109778296278203
0.005109778207453518
0.5329943195796928
-0.07766376738328458
0.006258518712607975
0.02717248261817663
0.0347814841362187
0.688977004792879
-0.7666407723015011
-0.6607278118109555
0.6303248253110723
-0.1102645803602417
0.3138217009152228
0.7455647573372142
-0.01934048340528315
-0.2653691386181145
0.1490583398225926
-0.7446093211167742
0.4838004400200802
-0.4257090714535595
-0.1012211737215019
0.003317684575363292
-0.01461198207491106
0.0248204214358282
0.412087915101837
-0.1216004769801564
-0.3893972144493222
0.6290614020893947
0.01923134088502415
0.009036499987832996
-0.009036499960369593
-0.3534290517975986
-0.07945259440215985
-0.5603372790260187
0.5570264294442677
-0.237578354832513
0.4647244259496461
-0.1506186368329477
0.7307895998197883
0.6698074641089314
-0.04102150946908455
-0.6169539382122324
0.5604880564166814
0.2819963723378072
-0.2773993766026348
-0.00459699457401155
0.539593253164755
0.09344317688496298
-0.03878728294839476
0.1964144177782025
-0.1576271344219894
0.1201396030720441
-0.1201396008258289
-0.858626408610523
0.002443903343612008
-0.1132898723964351
0.1404623539990048
-0.1315786982212212
0.1315786988432944
0.01986496793981006
-0.02445026907153445
0.670595528089163
0.06057137804244699
-0.3227260551360589
-0.0626834594424094
-0.4712950456864153
-0.04432172558596773
-0.1513737978291044
0.1513737988147725
-0.04216357172913369
0.1436111518296899
-0.143611152632305
0.1364453302479123
-0.1364453286388966
-0.316123136576486
-0.1145133657575702
0.2260790564887904
0.1031582626469068
0.03479361342741241
-0.8212353422011897
-0.1978997939357717
0.1699601254134092
0.02156604372022118
-0.2644352867322486
0.1261538605392878
-0.1261538612412955
-0.414305970495723
-0.08478633098475527
0.2358429679446961
0.002762779567383291
0.04033081146100333
-0.5445844562864248
0.5781712548255271
-0.03093742630802188
-0.01122614408286249
-0.02492568511250905
0.01177326500277083
0.006543512484084025
-0.1846714582359421
0.1781279457833866
-0.1078802250503543
-0.2274946107471242
-0.1444475867708166
0.144447587609866
0.07246649684749913
-0.07246649646999047
-0.01901393426300415
-0.1085836561168177
0.127597589822697
0.2343964605632319
-0.1833757440388933
-0.02232669171413854
0.02322685184906303
-0.1291336508424063
0.6130265674647178
-0.03907067219097262
0.4256739757609284
-0.04155903917070213
0.0645910889500865
-0.1531697241162734
0.1531697253918102
-0.6365028890108356
0.3082288022673761
-0.07911117719905836
-0.234206651601888
0.003659237544450478
-0.1218299802962039
0.1621607925143646
0.1945376548949043
0.0965445373403853
0.09542929887976702
-0.06064781485701634
0.07311074006849956
0.04163949729353531
0.06413925222879298
0.1058208772090362
-0.09980609111887855
0.2118098820378707
0.01164333379439703
-0.1152004468749527
-0.1015178930638425
0.09640906119182394
0.005108830974601693
0.01082846608944749
-0.02232770265502387
0.03738874751979349
-0.03738874746456396
0.07458443762178828
-0.05529018459974432
0.05529018483774802
-0.2243851895441913
-0.05060935628139254
0.01178106307404512
-0.1031519801008626
0.01630572918376558
0.1087752134549773
-0.1087752139213595
0.2929277812682948
-0.2708741424598836
0.1629939140151271
-0.05056469539783255
-0.220309446731335
-0.01690220097934275
0.0169022007136995
0.3675213788919674
0.2851810148501806
-0.5279314209001044
-0.0939309867481854
-0.03266478507976162
0.5288193356579159
0.2094707629292741
-0.16882459978374
-0.3811722696511501
0.07659294438233834
-0.1472668431520493
0.1868807530000876
-0.03961390961953355
-0.06713572983864662
0.06713572954481692
0.8221577017206479
-0.5603441170645774
-0.003344140973621604
0.01417260764361352
-0.02004153021768435
-0.2872383251679159
-0.01745729599176181
-0.01286888761526384
-0.1321088854066571
-0.5722800004588621
0.5560813776500848
-0.5686170692689295
-0.006926211643881037
0.09902474222025402
-0.001795927699572141
0.01672439570180737
-0.167308373450044
-0.3362233240737422
0.2330713438774163
-0.05409168993377896
0.03507775464756396
0.1321910089696051
0.1733886125673047
0.3415833053001677
0.2760388463975604
-0.2778347745203736
-0.06310321798781564
-0.1550473131481893
-0.2206058709068929
0.07457822909512142
-0.0104389749826327
0.2136520536454053
-0.1969276583289149
-0.08623470749477144
0.1593454525585764
-0.3550015572498356
0.2081918278307432
-0.1918860987118692
0.08965470215832823
-0.479051912634557
0.1740118669412006
0.1706140256872594
-0.2568487392260584
0.07310159085250206
-0.1947764898864476
0.1773191942457099
0.01737863942955637
0.1419668124122991
-0.03958932646885042
0.06585872429836437
0.4671355956784292
0.0204865418828406
-0.08273704140375962
0.05558016180362931
0.1258503677359553
-0.2602197815569679
-0.2309507563474611
0.5597172651476968
0.157061511796921
0.07878145763710138
0.07495914835242229
-0.03107385683420489
-0.00107988013074834
-0.003517106804685048
-0.03260304723924298
0.1707448798386937
-0.1776710918565517
-0.05791662238561761
0.0198827164140009
-0.1470540927329147
-0.05280968459037975
0.1538932486566913
0.2770551021876748
-0.04060834205860617
0.01069338747563902
-0.2551746046419633
-0.1311650641287138
0.2361854279833271
0.178700372943135
0.1295284267263375
0.02176594902644516
0.08852691560353211
0.05221082903790945
0.4521832398704862
0.01675217042127073
0.09786033759913776
0.04304202255671034
0.0722541104462998
-0.1152961320174698
-0.2427504033240234
-0.2004663275297051
-0.019843121874616
-0.2019968073712092
0.2750177214384848
)
;

boundaryField
{
    FrontBack
    {
        type            empty;
    }
    Top
    {
        type            calculated;
        value           uniform 0;
    }
    In
    {
        type            calculated;
        value           uniform -1;
    }
    Bottom
    {
        type            calculated;
        value           uniform 0;
    }
    Out
    {
        type            calculated;
        value           nonuniform List<scalar> 10(1.036151102329431 1.064357374308579 1.022576393435065 1.021451911185831 0.9964050054510133 1.01286984357793 1.034034694084726 1.062880220916963 0.8672284477309012 0.8820451713856924);
    }
    circle
    {
        type            calculated;
        value           uniform 0;
    }
}


// ************************************************************************* //
