/*--------------------------------*- C++ -*----------------------------------*\
| =========                 |                                                 |
| \\      /  F ield         | OpenFOAM: The Open Source CFD Toolbox           |
|  \\    /   O peration     | Version:  2412                                  |
|   \\  /    A nd           | Website:  www.openfoam.com                      |
|    \\/     M anipulation  |                                                 |
\*---------------------------------------------------------------------------*/
FoamFile
{
    version     2.0;
    format      ascii;
    arch        "LSB;label=32;scalar=64";
    class       surfaceScalarField;
    location    "1814";
    object      phi;
}
// * * * * * * * * * * * * * * * * * * * * * * * * * * * * * * * * * * * * * //

dimensions      [0 3 -1 0 0 0 0];

oriented        oriented;

internalField   nonuniform List<scalar> 
1171
(
-0.9279289296153382
0.9279289297518865
0.7874402731746496
-1.099196589881584
0.3117563166432453
-0.1905654329481069
-0.7648845417768009
0.9554499743452082
0.07207106721794015
-0.1168639887926882
-0.2123047509736448
0.3291687397395215
-0.787440284595279
0.06948173384728103
0.7179585507228654
0.811707281587726
-0.1779198703571026
-0.6337874113138126
0.8742888684131481
-1.044173355449618
0.1698844869310064
-0.2854326149416044
-0.09741232741323635
0.3828449414693116
-0.03616943069423737
0.5489408497968649
-0.5127714189050069
-0.5036546020227595
0.8245617822915473
-0.3209071797363597
-0.4022966026156575
1.046009708381041
-0.1717208520716408
0.3927570998225547
0.04862463776559621
-0.4413817368285604
1.046000112142054
9.592572929330469e-06
0.4432875130828136
-0.05053042480547654
1.056648689641114
-0.01064858636926043
0.5790351933988903
-0.7696006220161513
-0.7243067647560602
0.5567692426851627
0.1675375221818744
0.2178170639180809
-0.7214716681266289
0.5504661850957641
-0.922820766271089
0.3723545828538324
-1.094182977920349
0.6864993426529125
0.4076836349037771
-0.5955560958498625
0.5593866698393068
0.01788353508390877
-0.2566064691201652
0.2387229373174686
-0.02328986744629909
-0.5216614696361555
0.5449513346143301
0.4004321972809666
-0.4978445305424972
-0.9189107982155491
0.9415291367453706
-0.02261833845607317
1.067538264308819
-0.01088957875511748
0.9348815806494358
-1.116677372338448
0.1817957917564622
1.067007759233081
0.0005304995471480196
-0.6644634475234084
-0.0598433164900297
1.262345854020423
-0.8642355271351005
-0.3981103269358286
0.148096958922206
-0.1094688434120534
-0.3263132740348918
0.4357821168152423
-0.2856214301518868
0.1913430008763757
0.09427842790886648
-0.5836401931243556
-0.5155563897202785
1.014019683159919
-0.07913810091424719
0.009919555929140872
0.8254705004094484
-0.8353900563319981
0.5718410640392828
0.6905047903998646
0.4394720071196369
-0.03038652902484433
0.4308187241868674
-0.8079073547187073
-0.1025070997220604
0.910414454537254
0.5021602230116716
0.2537569919830819
-0.7559172148471029
0.006747869460890988
0.5271208032716275
-0.5338686728882116
-0.4899216797046233
-0.6042613043395422
-0.4227818573225613
-0.6938955138867405
-0.02703284832671714
0.2702297344087582
-0.2431968876451197
-0.9246950577564177
-0.005064674021108351
0.9297597317597437
0.3087319012372617
0.07411303232283423
0.7619110472688008
0.04979623377757737
-0.5331242193187615
-0.06243187582303497
0.0460884651715097
-0.8539958215800382
0.07492279858271721
0.8634508142518404
-0.9383736127614458
-0.3469237693377304
-0.04142012305310294
0.3883438930711921
-0.6820663011670529
-0.242628757698379
-0.6333889911334268
0.7083117914612647
0.6128780045407251
0.2116837766917229
-0.543157943675795
0.9457137220562551
-0.7790997663380694
-0.1666139556408758
0.01536400601924452
-0.01507571441614002
-0.0002882853741594021
-0.4033144784535531
-0.09453005132448832
-0.2407984628681476
0.8536764651418456
0.04696502402991201
0.3354508909032849
-0.3824159156280917
-0.4606322770964948
0.9627925002696123
0.6803569305680789
-0.7828640324117092
0.3206126069842963
-0.01748656153647365
-0.3031260420970326
0.9307329797762898
-0.9307329797935746
-0.7815394608072267
0.1105355504716236
-0.3228402973351411
-0.7499621719810782
0.7598817283009075
-0.08997385873748387
-0.1434042386865343
0.2333780968788279
0.8649794271876985
-0.03950892906419403
1.054231279422223
-0.8004742896122987
0.1863272831861912
-0.315794126244911
0.1294668428383176
0.8590297545068515
-0.0971187119878435
-0.6116397191174148
-0.03898490314346933
0.6506246222717439
0.123611098568021
-0.2308906368357599
0.107279540910478
0.8056715906008192
-0.9835914653564698
-0.4350817562550212
0.3295149657721621
0.1055667908042967
0.5320159862032157
-0.5553058507973793
1.021934881976085
-0.4561877094365818
-0.5657471724546508
0.5991530268652622
-0.7193878854296643
0.06680744043547429
0.6525804439815768
0.1031125412170124
0.5698740044225585
0.05535608509937488
-0.6252300893150619
0.1941709176359986
-0.08363537681562337
-0.4928081359943347
0.1458843621632272
0.05025241875545429
-0.8866006408935618
0.8363482221893882
-0.4730368294656956
-0.7133692600587349
0.04890581306371809
0.43726403614756
-0.006445304688316273
0.299864739578061
-0.8552361194704916
0.5553713805837208
0.4157343201259155
0.584265679874195
0.5604548118689241
-0.5143663484503801
-0.3675776252192714
0.03673816877235269
0.3308394533415898
0.6813399061834454
0.249393074484946
-0.5657344010294292
0.572482263689145
0.1109507610626713
0.8751533338062111
0.01015752264894987
-0.6217972531735333
-0.7491758446281119
0.7994282626363368
0.5308890887483886
0.06989307398580435
0.3022512582086857
-0.3721443320825648
-0.1674964852000554
0.4428976192529219
0.08422318996630014
0.8761369534589298
-0.8025081062839529
-0.07362884691827233
0.6352869492887006
0.310426764958634
-0.430347327202678
0.5741525799850428
-0.5042595031263113
0.4171982278953716
0.1332679699475713
-0.04677934922954198
-0.594043325965919
-0.1375576741846279
0.7316010000390341
-0.149784157509963
-0.7809488199689649
-0.610980174503532
0.3606088032907945
0.2503713690480949
0.6220248770551616
-0.611867352811995
0.2391948850898095
1.011247400600819
0.04298388028246029
-0.7491758502317531
0.2343366988003966
-0.2189726970503584
0.6803569291534212
0.8018062065735538
-0.8018062065788062
0.8376948306467649
-0.8332043764169479
-0.004490454048080769
-0.4453781852453813
0.8611125075935195
-0.1473629217196204
-0.3454452171895017
0.7347122187769159
-0.668485925855659
-0.06622629308921156
-0.7336768024347797
0.1396334809355439
0.1388116223356464
-0.6719358412711005
0.7828640264907318
-0.9503605118322346
-0.3682027895249895
0.2916233327587755
0.07657945877660535
0.1459041870102011
-1.009882215528553
0.8639780285825239
0.4813227845091716
-0.04185077754228607
-0.3081484347391124
0.5864413877996745
-0.2782929528615888
-0.7385027687781428
0.8844069504714364
-0.1570748985018438
0.7317977760490332
-0.84392220903787
0.1121244336046888
0.9761247981610796
-0.5402964038052203
-0.4358283943466684
0.7550268482007119
-0.0650280120641846
-0.03183686296413189
0.1856972487348517
-0.1538603878027246
-0.7758011362969587
-0.8433492905328261
0.07846475022277771
-0.7499621739494461
0.5136752637896151
-0.5550953937160955
0.09650978818943412
0.7194370425485174
-0.8159468304842421
0.7536663044745116
0.1742626239184684
0.5029073987517514
0.4970926012036591
-0.05004413500661561
-0.6113423602017769
0.6613864949293441
0.8844629800657275
-0.008326029864724036
-0.7550268481792876
0.7994282595698977
0.1912525576267255
-0.4478590343099999
0.01741728689165504
0.003290772028379074
-0.02070805128598077
0.5885204191475496
-0.4379313350663117
-0.1505890836018481
0.7179585578112403
0.01108265631572625
-0.1115515054055794
0.4373092301650493
0.1512111838014067
-0.01613017733337401
-0.005691020143154858
0.02182119679284513
-0.03134462980943935
-0.0004922330524251095
0.244318857787217
-0.2618054086188331
-0.9588811113546211
0.001365180759100038
-0.1594528518095481
-0.1238839318555787
0.09436967297897993
0.7219940364890453
0.7290295633111574
-0.1447638853155027
0.6711279101708687
-0.5746181202589653
-0.2117289787002255
0.3980562642468596
0.6955188915623808
0.02243966623908764
0.2417359773130485
-1.074940354321403
-0.9503605135154737
0.302286599611244
0.7598817258289593
-0.2088824313461614
0.06547819765068129
-0.7233592129139255
0.9110184713006757
-0.1876592582120534
0.4156284987058363
-0.027284608834218
0.7713202073925337
0.2806120990770193
0.3737164349512337
0.06957108726505971
-0.6586952181363444
0.6586952180802162
0.2146007258009355
0.6958137262256752
-0.05576955059445989
0.3912204415371331
0.3800125605848184
-0.01588529768990873
0.03330255625555109
0.4489034286019604
0.03241935240355352
-0.7385027721024046
0.5340651597917544
0.2006470561373926
0.303490322230026
-0.1177930481906025
-0.6955188932378523
0.1801953472910511
0.7308231216248344
-0.01013608361917492
-0.8137149269755147
0.8238510105139581
0.696327870292525
-0.7920719574118891
0.0957440871019363
-0.7536663042821817
-0.1496157171924237
0.2110444966885642
-0.06142878161316568
0.07717923387087341
-0.1795957557734472
-0.1117277569060539
0.2913235130659796
-0.01002405932726384
-0.006106108433353824
0.7063023511341822
-0.7164384296985259
0.8856625604656686
0.06978741901272627
-0.3098128022372157
-0.5223339147564854
0.8321467163070705
0.1025927300117908
-0.1025927270339703
0.3283615162243932
0.4793745602115193
0.6078509248185727
-1.087225484604261
-0.1941345558718642
-0.5855643435993397
0.7796988994816578
0.0120908398359214
0.2212872715940403
0.3768746174349534
-0.2532635336212589
1.01410959112572
-0.534735029237779
0.6660172023161786
0.9926664794232
-0.3848155552121897
0.2295116922008714
0.8844069506877663
0.7126860931509621
0.2137533974542985
0.7277757385031738
-0.7809488198574709
0.3413047882102088
-0.2826106266804906
0.2547113637302311
0.02789926643419887
0.8520349033325754
-0.01309759066546028
-0.8389373123199471
-0.7020375007574557
0.7025679998674916
0.5546218153495324
-0.7020375027828374
-0.7126860931212008
0.7025679950772277
-0.03371841602658308
0.9046365515842119
-0.01897399021456004
-0.6813399128960064
0.6122703242853791
0.06906958862883859
0.5388210171540186
0.5383831984265595
-1.077204215619372
0.4899603774987601
0.5241492140910116
0.5468226767191413
0.4589008028687248
-1.005723479447892
0.4965368389294598
0.4961296416160347
0.6122703292082144
-0.5256900166697356
-0.4662512172598992
-0.5557314590097697
-0.5167290381740569
-0.1244851634218904
-0.01264416988796918
0.01264416769278146
0.5098735835637846
0.5239804073501017
-1.040709445200162
0.5739267547438641
-0.2716754960862789
-0.8836085608752877
0.3433121591350628
-0.6326815336387605
0.3900527740985243
2.342219350937922e-05
-0.829239515918054
0.8292160938205652
0.4208811310295964
-0.02252014310169389
0.874555050550111
-0.9432017931625633
-0.8351639692508819
0.05748243899252861
0.7776815302495558
0.5503641330678114
-0.4362138497909647
-0.1141502837160641
0.6500154691983903
-0.729153570115905
0.8838138131411944
-0.8289846847737923
-0.05482912870787144
-0.01223056033737586
-0.7902775476191299
-0.1107968035451645
0.7159187452063317
-0.605121941674851
-0.9399645586695364
0.9277339966965171
-0.7367463185309467
0.6890982949743194
0.04764802357110589
-0.8012319027217509
0.02929580181247789
0.7719361007063582
0.06172788375024819
0.04086483243964816
0.4331327044527899
0.05938799068662813
-0.8496646480377412
0.7902766576935621
-0.6439886967519164
0.5939445727687434
0.8904358214040066
0.07212418520549504
-0.9625600062372535
0.05527185270920196
-0.04945208830531676
0.3802915589510507
-0.3814578476819735
0.06566372633910364
0.8410438933926607
-0.8410204813223565
-0.731444487743255
-0.8087322758877526
0.01845472788655235
-0.1684447454048052
-0.8484854686951186
0.01950078003216502
0.6246218745445253
0.04650603239267604
0.01764350548138427
0.5327206330530833
-0.8130200739657385
0.8423158751453379
0.5657471707764401
-0.8517596718063961
-0.8678403732490867
0.03679617879160745
-0.03611857151620644
0.834981216692426
-0.7988626452006087
-0.01926939114473942
-0.7675630574356034
0.5443098311957112
0.1520180432377511
-0.02196114128912086
0.8965161858162651
0.9852164365711529
0.8605542402311643
-0.8410534657869965
0.1474483540801947
-0.1474483493903367
-0.1179966210638722
-0.4694423220265239
0.03322847488381276
0.2714651607354756
0.03082143828088834
0.3847990858947944
0.8772467944081851
0.004864247873738149
-0.01488831906238863
0.6586099284698478
0.3413900714761229
0.783519493892131
-0.5836401927255384
-0.7780346199080757
-0.8119602349356675
-0.6799496586698224
0.6799496586957287
-0.168026894337688
-0.1548133997027597
0.6016207892130534
-0.8114689627857462
0.2098481735522736
-0.4938830545234388
-0.568886246747088
0.2781264343283893
-0.9720219474829815
-0.8993717406839223
0.8445426061372112
-0.8201909225023296
0.8386456492065089
0.6485107529775495
0.1345486941300192
-0.7830594470991336
-0.7643122044282914
-0.1461769877941414
0.7252138408281631
-0.5790368531064556
0.02212494941575546
-0.01382468414042013
0.01681586900111272
-0.002991187391007572
-0.3533793573011634
-0.1160629664334182
0.8797472280199649
0.7373990309220476
-0.2384793653688297
-0.4989196654143228
0.6232487348505629
0.6855161145679723
-0.4709153881105987
-0.0005170829572315652
-0.2851043474827432
0.01756684851276531
0.7452640552180035
-0.7628309039125636
-0.3235111907958166
-0.07150643471488327
0.07574392471843801
-0.9649926813013551
0.1260553700559634
-0.6769202637491597
0.05377216934443187
0.6406169410679839
-0.6943891105481206
-0.7567906330811769
0.07987036939730917
0.5893888217367206
-0.6608952566118568
0.1560319848437686
-0.3356277465009653
-0.7723570559827466
0.008044851491579894
0.371190826094757
0.6005793023714897
-0.02642672673070803
0.02307596628750051
-0.0230759618046079
-0.01833521220960329
-0.05302635655554925
-0.2295842655828001
0.01965382807096891
-0.01478959051550794
-0.7258510166343886
0.2794150854699081
0.6784269316724991
-0.6904131630594933
0.01198623101186876
-0.5977233341011075
0.6514954965469011
0.6541426145061027
-0.06475379328183851
-0.631340896732062
-0.1254497365135594
-1.04961451248604
0.011245564026545
0.1362027895954518
-0.7082841676454862
-0.7421376994699634
-0.7638244774248032
0.3657141506531667
-0.4086424858442522
0.4695432895147338
-0.06090080377786693
-0.6767672129746146
-0.03151695494439963
0.4996474275031833
0.7306809931482654
-0.2340799084706423
0.1101959723982207
0.9569478292589307
0.4459278427585379
0.1328562219435466
-0.5787840646325438
-0.6779297367504388
0.001162519745296792
-0.04452613470577077
0.03070145317897777
0.6376861927729131
-0.7752438640204942
-0.002904105790385463
0.002904107459067857
-0.5999559005212628
0.6492826864984016
-0.04932678625850744
-0.6602862333758081
-0.113809007136056
-0.6718351394273149
0.05123780858472432
0.6101486880341072
-0.1375248642525967
-0.8180121302471234
-0.5609663265667021
0.5713492056277306
-0.01038288229756633
0.6326171331346706
-0.6206309108464477
0.322254771215957
0.2137926337035775
-0.5360474048709093
-0.1044515026858102
-0.6029626918604846
-0.09142642504695089
-0.1540280542185343
-0.5097285103027708
0.4043463228635975
-0.4988763808639227
0.1259611727090718
0.6786848438555538
-0.8046460164560157
0.5991530268803273
-0.3751480351681337
-0.03349445217241261
0.05928877126614264
-0.5690172802711129
0.5515736335367838
-0.04029764886728556
-0.5112759840861677
-0.3125093669080168
0.3051412009389292
0.0073681625901001
0.4508821213901753
0.1230446331476132
0.05117991879977551
-0.3160149781225499
0.1569799445809044
0.1590350329311148
0.2544304117986566
-0.02009371739556538
-0.29741168702918
-0.3137191773844181
0.3637622671065515
-0.0500430992715245
0.7920725745709792
-0.6295483835130691
-0.03073784996648101
0.4995433552738142
0.2843337134138136
-0.5228130789444798
0.5774445167859258
-0.5774445167877212
-0.2897905827138182
-0.5865206593313881
-0.2955147229171737
-0.5865206586851558
-0.5968458556683366
-0.8384826692970133
0.1699967416546037
-0.5963199123434546
0.8212341416994029
-0.003521754752817388
0.1193921955262798
0.4811871041155419
0.09671673626566568
0.1853949600253801
-0.03612865032458534
-0.1492663109074226
-0.02497069658424913
0.5914335822069338
-0.9432115728171472
0.4208776586194658
-0.002244232803533061
-0.0001525701983672988
0.002396803328672685
-0.6437906508866588
-0.1320668710026743
-0.465509451619149
0.5983656730705128
-0.503644359060206
-0.3142467812859991
-0.2547704964462262
-0.2723046136183582
-0.1117858917435616
0.1117858893565628
0.1534259090469158
0.05761856663167396
0.1966405132083615
0.4494495824105899
-0.5702743211251415
0.1047648718551655
0.2524671506858023
0.4661990494293864
0.5338009491661618
0.6451244892196945
0.08035371539999099
0.003390067874760218
-0.08374378023585639
-0.2769740724484537
-0.5410380579026383
-0.545013846560529
0.114413756278564
-0.1263225740898054
0.01190881665091357
-0.1059270287402434
-0.3857428658576909
-0.04740115492029447
0.6575498341600713
-0.4993125953479872
-0.1444780555531332
-0.3293224963077103
0.287605029809269
0.1264790616647711
-0.60613507939167
-0.2041555443481635
-0.262290549727085
0.0004851346663229785
-0.4210714021190363
0.3218256601923562
0.09924574173750568
-0.0888545375501827
0.291665304549349
-0.895926608392781
-0.4576925739585067
0.6325791337135265
-0.7730545252366237
0.6686030224383835
0.3417683487318124
-0.126238660208158
0.2252628942417144
-0.09902423247303742
0.03086458077246872
-0.5861760602010294
0.02900104249461366
0.5571750182266603
-0.9006777322310983
0.5472118336343919
-0.6652084544869253
-0.0986689697503936
0.1089984144755566
-0.1089984089182737
-0.316532070876752
0.3614042846220398
0.0188872711197649
0.02093926046992171
0.05941444337726225
0.5044623614355945
0.6663478277037721
-0.7399766764083117
0.0242300446176926
0.02091508816364433
0.002160874073405961
-0.006295870449193187
0.0062958681101514
-0.410883905880267
0.5339285391495942
0.01544697494603398
-0.0154469751674643
-0.7925304612254767
-0.05985701491640561
0.1215849016803723
-0.4505212730173932
0.5552861458480396
0.4493430821360391
-0.4986698626515313
0.1499089503229571
-0.1499089461907921
0.04449256975494639
-0.01119001966160164
-0.04100330690443475
-0.9768904087563095
0.5410620170263593
-0.4717847105640073
0.04086483380709099
0.5148736592981291
0.03061807617953334
-0.5454917350670506
-0.6160963650246976
0.1167837684052144
-0.3295735225206732
0.01356386882221239
0.3160096562420118
-0.1539110670367223
-0.08016884908752502
-0.5408407325181768
-0.04533532568294545
0.136202793723765
-0.04153421713949853
0.0386301167193694
0.08185295796998261
-0.08185296321964043
-0.5328568471812511
0.4828137601310672
-0.4145932346370302
0.1613113128519949
0.6222081809557332
-0.09759695486095761
-0.006260133312147215
0.00626013235372849
0.5330064765910534
-0.07341444662506366
0.006405675578509846
0.02720437578358682
0.0345689510824731
0.6894677624746804
-0.7628822090702524
-0.6634437123279074
0.6327058646735774
-0.1103804259860111
0.3133079200803145
0.7457766442991702
-0.01833521525122862
-0.2659577046646128
0.148164649942918
-0.7446453291440461
0.4840106578929346
-0.4232152582871987
-0.1012227027053953
0.003469092155257562
-0.01471151332625959
0.02304389901937898
0.412431909055991
-0.1216693324475214
-0.3896066508820288
0.6290940966884692
0.01894005205822914
0.009362629579425104
-0.009362628407285934
-0.3562607766694542
-0.08340726682260884
-0.5605161430349395
0.5569943885292512
-0.237966424375813
0.4647720550339865
-0.1505936589112643
0.729628854221859
0.6713039501877429
-0.04153422336575598
-0.6158198481331741
0.5597524442725902
0.2835154812301051
-0.2804627597852398
-0.003052721186894277
0.5438513259285221
0.0934289992375428
-0.03873005858939624
0.1969500250844519
-0.158219967279688
0.1205830119601768
-0.1205830177841395
-0.8586768286665045
0.002460608152749339
-0.1130051401971182
0.1402095185373165
-0.1318177412976865
0.1318177380484113
0.02091509399288481
-0.0245953491072976
0.6711360149495899
0.05968710291929462
-0.3229967427167472
-0.0627461230204957
-0.4712887852914259
-0.04580702442021168
-0.151629934099692
0.1516299297503669
-0.03925120955584277
0.1433719468435186
-0.1433719428913762
0.1367879275891435
-0.1367879325463508
-0.3158670034626444
-0.1144803237841786
0.2263989893510683
0.1031159674609557
0.03482581331234425
-0.8212047391077277
-0.1973818695785594
0.1701765743492596
0.02107597939207225
-0.2650394200096269
0.1259178466488983
-0.1259178431696837
-0.414183288476303
-0.08469309166137338
0.2362590987810284
0.002463826039389106
0.04031873971051169
-0.5441114943856572
0.5778299103067708
-0.0253551518621856
-0.01389605701233065
-0.02618289679618382
0.0149928741344328
0.0065370171057858
-0.1843779672069439
0.1778409504214686
-0.1075836227842764
-0.2280441267900003
-0.1446882315043932
0.1446882274666832
0.07270671028940674
-0.07270671241877313
-0.01924638898037482
-0.1086591547654468
0.1279055457881776
0.2370745830018864
-0.1830425199398522
-0.02123885578919544
0.02339973397652916
-0.1321688648373291
0.6149826286257991
-0.03907918017555376
0.4231172762948229
-0.04100939906892815
0.06283058276840962
-0.1534638198620418
0.1534638149568074
-0.6362074084814138
0.3086484167433151
-0.07913672153734989
-0.2345381189578695
0.003647469157684628
-0.1226043921962646
0.16292313018576
0.1939713345978746
0.09735217062436408
0.09472506556402126
-0.06015611512408064
0.07282138380760757
0.0415923845473564
0.06398124509680586
0.1061953293972057
-0.09814645276512889
0.2083424277352358
0.01226671673007478
-0.1129360457211747
-0.1025290221390253
0.09720303326240846
0.005325992767239828
0.01155246618843608
-0.02206933058136502
0.03760590145017405
-0.03760590181702139
0.07434563512581997
-0.0550189572840418
0.05501895646813799
-0.224477909209443
-0.05010545237627502
0.0116832841307137
-0.1031745267492433
0.01620491602393319
0.1085201690776864
-0.1085201668848723
0.2932170798581386
-0.2712044083815202
0.1636207893443054
-0.05037221808572492
-0.2208321926371624
-0.0172169118912966
0.01721691312567079
0.3673523059945158
0.2852281260376271
-0.5275959799977745
-0.09395899560854588
-0.03236357328908841
0.5286636145221325
0.2108916931295086
-0.1686055446391981
-0.3820559277454884
0.07658881250358246
-0.1475817792417457
0.1871953601694775
-0.03961358215452668
-0.06692777071773112
0.06692777232962406
0.8223654568180451
-0.5604634826479318
-0.002199450251569086
0.01375191800708673
-0.02003184336709527
-0.2868802686725232
-0.01745409424835834
-0.01287049220427762
-0.1319036750612295
-0.5721380916057831
0.5559818790630592
-0.5686212888048308
-0.006941699105060001
0.09969580687697303
-0.001833886261780115
0.0166758852688861
-0.1676136125164893
-0.3364992155751979
0.2333246894053618
-0.05434719660540049
0.03510080828599881
0.1320208926021613
0.1731203051760168
0.3389920596817289
0.2764762851735584
-0.2783101695760362
-0.06389889511495243
-0.1548593659797713
-0.2209742477951648
0.07473620077977297
-0.01075495768488055
0.2140154330055467
-0.1973395465280632
-0.08622979733629767
0.1590511793758668
-0.354828655968513
0.2085921870200271
-0.1923872712945763
0.0896720574162503
-0.479278704765172
0.1743248786098408
0.1701892359952163
-0.2564190283764968
0.07265574200224759
-0.1944639062562445
0.1770098110250634
0.01739769951563707
0.1416534747308418
-0.03957197315784865
0.06616070630341299
0.4668457692325583
0.02038899684488758
-0.0783815131556645
0.05665734311955916
0.1254979974206946
-0.2605878323492844
-0.2309324325037008
0.5597016752778703
0.1574718560790871
0.07878724281486575
0.07550445035410798
-0.03103524754499935
-0.0009442138207316582
-0.002108503475953408
-0.03266388258550201
0.1710306436195726
-0.177972341483659
-0.05533760789617891
0.02120027582784953
-0.1468056990952119
-0.05281043359771066
0.1530047948456359
0.2770784363439727
-0.04028757943940125
0.0140486373585788
-0.2553287389796902
-0.1302743072515061
0.2358529563350189
0.1790882079549157
0.1295601981357235
0.02162816060903747
0.08882636873728399
0.05203674784883515
0.4524256136101362
0.01759272231242889
0.09738400563215806
0.04341884092369248
0.07193555592127168
-0.1153544004780933
-0.2423678574118193
-0.2007163624635735
-0.02011582649053618
-0.2022002720275883
0.2754445596520737
)
;

boundaryField
{
    FrontBack
    {
        type            empty;
    }
    Top
    {
        type            calculated;
        value           uniform 0;
    }
    In
    {
        type            calculated;
        value           uniform -1;
    }
    Bottom
    {
        type            calculated;
        value           uniform 0;
    }
    Out
    {
        type            calculated;
        value           nonuniform List<scalar> 10(1.036783056063596 1.064511035789841 1.021982676286523 1.020686053805545 0.9972840049588446 1.012858679737642 1.033853992701785 1.062769301359147 0.8672351026138676 0.8820353821721817);
    }
    circle
    {
        type            calculated;
        value           uniform 0;
    }
}


// ************************************************************************* //
