/*--------------------------------*- C++ -*----------------------------------*\
| =========                 |                                                 |
| \\      /  F ield         | OpenFOAM: The Open Source CFD Toolbox           |
|  \\    /   O peration     | Version:  2412                                  |
|   \\  /    A nd           | Website:  www.openfoam.com                      |
|    \\/     M anipulation  |                                                 |
\*---------------------------------------------------------------------------*/
FoamFile
{
    version     2.0;
    format      ascii;
    arch        "LSB;label=32;scalar=64";
    class       volScalarField;
    location    "479.5";
    object      p;
}
// * * * * * * * * * * * * * * * * * * * * * * * * * * * * * * * * * * * * * //

dimensions      [0 2 -2 0 0 0 0];

internalField   nonuniform List<scalar> 
808
(
-0.03553164477464955
0.04505971937593913
-0.01193897992188309
0.03541228058224666
-0.3027338740049735
-0.05459706212342886
-0.01450302326704174
-0.02383424709246463
-0.1993211010424583
-0.08521067693340185
-0.009331625048431153
-0.2568604445350585
-0.03054582550179112
-0.01292817871043775
-0.1227604533818036
-0.013980674353039
-0.1414879452700205
-0.01354589696821939
-0.01262091945552374
-0.0567044499422272
-0.005919327605167523
0.1181153494946163
-0.061063770789508
-0.07300867469394684
0.1761706894052019
-0.09928590773150636
-0.1545810142864927
-0.0203120587762142
-0.01739501290513782
-0.02604958096574222
-0.02016154797877018
-0.05957243753145526
-0.02299724210164374
-0.01684736682803839
-0.1006143309714513
0.344302182498505
-0.03857876265065538
-0.01686230378729743
-0.02326128695729496
-0.02659832093585085
-0.09144189834908913
-0.1283834627517368
-0.05088442851420365
-0.02058715914204464
-0.0550920505484488
-0.04011448057180608
-0.01238313002508319
-0.1867641850705757
-0.02752221164936354
-0.2065736061362889
-0.01603048674391397
-0.06856818527606698
-0.05964379439490035
-0.01494383305950764
-0.1909059092552816
-0.02891711566482299
-0.01074144210748912
-0.01458869424332494
-0.1018849543054133
-0.04055834605271311
-0.09604458163258467
-0.1279866596587066
-0.01340763056265854
-0.1293911768565611
-0.01686837537570771
-0.05069785390067329
-0.1657897901290625
-0.03568240674363276
-0.01488567363544977
-0.4448947419079264
-0.02697620677413454
-0.30701767754754
-0.02200221121844351
-0.02027659117235108
-0.06649527843969727
-0.01735663891606112
-0.04338600593862389
-0.3606803773168054
-0.0354182015157494
0.04148865088236395
-0.09074310818564355
-0.01729115469345347
0.05679432130853961
0.04391316807144383
-0.01657327100800829
-0.0530968848254583
-0.5476239694694145
-0.223535174822536
-0.05318051379465845
-0.1117760035704476
-0.05771206068483816
-0.1342637020762468
0.04046882909171187
-0.0240992928811084
-0.06069886065102422
-0.1180903034801317
-0.03850431753850193
-0.05214517793957849
-0.1175606163365696
-0.1389159532669338
-0.05205976100287649
-0.04825492455382043
-0.0553863879640934
-0.04563909324339056
-0.05784686059092956
-0.07340702955923849
-0.04163121792341221
-0.01131558644654384
-0.04100567328044374
-0.1260439760556819
-0.05116954344390686
0.08308539678174826
-0.04306834988753523
-0.008278172960993023
-0.02785735257308137
0.1803206516971393
-0.03969380817094061
-0.2725825575086502
-0.02025159681951296
-0.0545910509818553
-0.02694812758450263
-0.04789809975777095
0.0127308742534334
-0.04977942803329724
-0.0342751351014954
-0.2149492577657014
-0.04248336019235667
-0.00521483108808044
-0.07729802265936632
-0.0677063130900816
-0.144655387633692
-0.02084237771093451
-0.07619874436486464
-0.04148651780392146
-0.02269130232685785
-0.01645917960314932
-0.006475186984570191
-0.007303376086833222
-0.05307339299288005
-0.05074847904342994
-0.2120704495608279
-0.05775937436181602
-0.008563458218040871
-0.02274545749779225
-0.14525724635575
-0.002605643832962683
-0.07744028716979329
-0.02330288053463286
-0.001084536986053254
-0.01071311024650476
-0.03386565047364234
0.0952282960051173
-0.03959852493236034
0.2525843276235297
-0.2678679433767395
-0.1306569369781941
-0.03709967069235971
-0.09115449471406514
-0.009314141291231873
-0.1120259112577593
-0.1854411431712463
-0.2167158329104039
-0.1809571921187536
0.05555229362559762
-0.06195694218612448
-0.02026798090628954
-0.06776637055340061
-0.1693918418551268
-0.02388768304072653
-0.01838746137134846
-0.05304443269572642
-0.01833347700367766
-0.006125937740656414
-0.1097007820543596
-0.02273112671515792
-0.04631495707225951
-0.06895062659683344
-0.1630776812140281
-0.0337323733653468
-0.3951647171351608
-0.01779015020392129
-0.223021811686289
-0.04524595835370794
0.03097305521986076
-0.1057371719214363
-0.01436915349864683
-0.04166633308288718
-0.1051455037801806
-0.01763599879732605
-0.09649536263112186
-0.2066079619278073
-0.0726801843004428
-0.0236647275407315
-0.04947275037742366
-0.04365855332201993
-0.2047826249558154
-0.02181264106127582
-0.01893262671381686
-0.01135755803041968
-0.05485636493336316
-0.05175397285829836
-0.02233922362912739
-0.02087984028645989
-0.2470780747175614
0.1278914408325915
-0.2013351752946018
-0.2056220825934181
-0.01180039872473175
-0.01159117828867611
-0.06763527421192568
-0.009669899500781114
-0.5137228056091057
-0.1208579300459175
-0.01890745868436583
-0.0008689283282374616
-0.02428523743897795
-0.286125023444797
-0.2748373850592513
-0.007024346726155869
-0.01742285142454275
-0.001746713982931057
-0.3454036929356423
-0.02822408284975639
-0.02910820960344765
-0.01248168076667418
-0.01978840294235957
0.0508044231329016
-0.1070678710526757
-0.01393005311560275
-0.02073191482654253
-0.04318076759709451
-0.01817624009336395
-0.01610204102062896
-0.02337074167383263
-0.0669918566122488
-0.01181800214734284
-0.01908448975212493
-0.008500200195480903
-0.0007125532423160164
-0.02957506910634361
-0.001568804014671639
-0.002285112426413436
-0.006026297912295969
-0.02563247986461725
-0.007970491018940797
0.001518586575228155
-0.004220879037916195
0.001233267193570836
0.002553487518377377
-0.008681621347721238
-0.1430574799782523
-0.003025309198175189
-0.001504777900595791
-0.04853775362372701
-0.02156179148507811
-0.02485842088109239
-0.01438725535373984
-0.006111440582241886
-0.02083303868263589
-0.03765542549244714
-0.01393287340353257
-0.01286740518990649
-0.01177453289346083
0.007560176771271588
-0.01031443301981728
-0.01178091868049553
-0.01136223080926302
-0.01082982655112394
-0.01018492807372653
-0.01180685826314643
-0.01412218687930626
-0.3107781630693395
0.06079349172216109
-0.01562966699937466
-0.0160958524915696
-0.01309878154760523
-0.01212312334100444
-0.008820550174079048
-0.09710389326642216
0.009912971317719205
-0.01362369903559273
-0.01464410840253794
-0.01076038881798845
-0.05299307824070833
-0.01017600174921191
-0.0137196502708267
-0.009562403981509204
-0.0003407774546009214
-0.01000581183460173
-0.01155814644436061
-0.02489086038493963
-0.01608624236133621
-0.01182178413221866
-0.01340742846061735
-0.007417503628790903
-0.01251537449648
-0.01177091027163627
-0.05743391367032816
-0.01307480363391494
-0.01121764646214032
-0.0087033138565471
-0.01484036374263208
-0.0138335857946944
-0.01569212462442735
-1.376802548826011
-0.09845660769643223
-0.01338711910662414
0.02432572499466641
-0.1647773570406215
-0.09223934690778615
-0.01150531924995954
-0.0140289528123204
-0.2495307098666892
-0.03047935478685521
-0.02006309499339909
-0.01092938863930788
-0.01958286956229817
-0.01068345939593306
-0.03070543785204114
-0.4147462480748806
-0.01241212129517501
-0.01410681076656543
-0.004895855765122728
-0.01085091186325375
-0.01014283091049382
-0.01434225233805262
-0.008249559061311725
-0.02604816235717355
-0.01137344664510789
-0.1638057220014917
0.01705999078295053
-0.007710855102333707
0.003301249854858104
0.01359366084220414
-0.04731926150420608
0.0297085167081315
-0.01307493129070222
-0.1349686966100228
0.2821916960900279
-0.007162762123298618
-0.01330692008111508
-0.008425239189993355
-0.03282585988801662
-0.1226082418229003
-0.01260977572137334
-0.0123669995709611
-0.01670919344081237
-0.01361927588176402
-0.0409269727319603
-0.2145354642357406
-0.0112551140880556
-0.04134821219023247
-0.03992961433838824
-0.1661650638044335
-0.16514488869524
-0.1362811917552577
-0.2477946433955236
-0.00723124388386725
-0.02129654337741307
-0.01403255793187982
-0.01252300582505146
-0.03282947757205321
-0.02441273042236811
-0.01449857644006893
-0.0149925420547339
-1.080620570697112
-0.006195339697929948
-0.01359031167824136
-0.01849453291865891
-0.02180607890904055
0.0006524201085178659
-0.01441290187454084
-0.02753002925975508
-0.1596680806762029
-0.01357030015833147
-0.0223556607487039
-0.01373560478888931
0.0002979003411098862
-0.1794272420525122
-0.01329035910734736
-0.1411629386662029
-0.01615515979512075
0.006858866983819118
-0.01466952861764826
-0.02306399786087547
-0.01549388393347013
0.004985005109159465
-0.278292438634042
-0.02544484085670822
-0.01585070832871742
-0.001340230024153186
-0.009308290425928734
-0.03055200693273262
-0.01442281088518982
-0.0202616117831737
-0.0214265174440819
0.01455737492134831
-0.1006717699769719
-0.02214393214216824
0.009160603954453528
-0.05171240921293619
0.1608802866816845
-0.1030990117822703
-0.3205658945746873
-0.03100538598868933
-0.02533694432140689
0.1495288044042131
0.08019485724296507
-0.003374636912743006
0.04883532704948305
-0.01564013522449175
-0.01460795222436052
0.002208538268293211
0.01165919611700664
-0.06686965083834445
-0.006027581256372597
-0.057568595790348
-0.02203812092630174
-0.01572958549043049
-0.03653697262739483
-0.03291236089667973
-0.006636395273900141
-0.01512009376670118
-0.03897945201599786
0.0380001122396211
-0.03890396594154664
-0.01366179805311484
-0.1164047612862663
-0.03212174242399375
-0.03849798398338363
-0.6767086533922148
0.02039586712434802
-0.01075299120735253
-0.005499747816839073
0.1581505010014495
-0.08380153407847302
-0.03487643454494437
-0.2466685212526245
-0.0167992658444054
-0.01662803895368669
0.06459800005846296
-0.1841294233713778
-0.2294887875092075
-0.1980371032083666
-0.6859085998758203
0.002581160992184734
-0.01934478789988552
-0.01706445521008946
-0.07841862401723784
0.1178716888414386
-0.02079493728314784
-0.2389601648240127
-0.03490432927255487
-0.00643621197752526
0.2782262990044637
-0.01132235370742227
-0.09354148316597978
-0.1491657223778512
-0.004054834142807467
-0.04034362187032906
-0.05026969730843835
-0.2061903020630622
-0.008765401544783903
-0.04197330104032452
-0.002402688464685729
-0.5504461587634089
-0.1988806100036563
-0.1759090424892791
-0.02262657230361437
-0.006869937822951231
-0.05999685639987994
-0.05815718464428049
-0.01407816442235601
-0.06755472107552013
0.003415169366094943
-0.01841066083240877
-0.09438806439081067
-0.26744946714597
-0.007192681600462906
-0.0265161923176437
-0.02213598230430452
-0.07422592105657162
-0.09098152993525581
-0.08779230614809817
-0.01189784861777515
-0.9266904243910205
0.1609659535982953
-0.07880209402196557
-0.2557680036020917
-0.04257457994226384
-0.01050091261987403
-0.2542209259525341
-0.1852814677094941
-0.03302272844907859
-0.1286423008121535
-0.01953257080262915
0.5631318993163268
-0.02381766941792525
-0.2295816229273104
-0.0261713038148069
-0.005885126630179837
-0.01207389211097379
-1.25201320750937
-0.1823499957545978
-0.2330388549172549
0.005360625584593493
-0.03744732086725321
-0.2537109431464633
-0.0653849600234058
-0.05090059484824525
-0.142409257830775
-0.1894757336881411
-0.06780051377499897
-1.228951551959805
-0.1424002462719635
-0.5200510505722977
0.07830438169351558
-0.006708297557978315
-0.0220011692606463
-0.04260156218404838
-0.04043219801849955
-0.02890703184592474
-0.1309318096076102
0.08005633535751011
-0.002224008131147845
-0.009824032683870776
-0.5805676135030849
-0.8637536486198005
-0.1852047324039976
-0.008404725818598028
-0.1387654549077928
0.001041066063855967
-0.0004039371873058973
-0.001711716637538093
-0.05993730271797586
-0.23858958966953
-0.01338758688192006
-0.1248453247624662
-0.1559621295170497
-0.01324119913345447
-0.03589692182301278
0.02254312082346205
-0.05724005461746477
-0.06971108838268388
-0.5029859920304209
-0.2314284704900139
-0.08069304733018262
-0.07264358605932315
-0.0199752664053545
-0.1247056585901224
-0.1519602570222233
-0.07426459894077433
0.02265997182978912
-0.08442324058970012
-0.04808931344644231
-0.0148907232132691
-0.1057896750704623
-0.2723652768622838
-0.05683928634770514
-0.01853327023527051
-0.0003499688682833003
-0.00999714129772097
-0.01116306422361127
-0.2169198528234097
-0.01534046531329187
-0.2218464176855076
-0.01030170177798179
-0.06756162465037729
-0.00397286843649634
-0.02320644406224423
-0.3779105843161393
-0.9097803646385912
-0.01134687525165844
-1.048128492495273
-0.613619343646842
-0.01063403462000216
-0.6576684043030137
-0.1772820868031027
-0.006005336136744937
-0.1309238027915992
-0.01683851521296656
-0.1219080191101623
-0.06722278813539725
-0.07834781230028666
-0.005075761657820487
-0.002330917065377639
-1.338619868035721
-0.01123081994774196
-0.1811914827977252
0.0005030050626290461
-1.010693028496298
-1.234240775469458
-0.08134699474804855
0.01932828291184267
0.1643843950543647
-0.004562101424761001
-0.02305694574793446
-0.004178560888809631
-0.2532109933677025
0.3661308701941302
-0.04079656109409443
-0.2105995479887763
-0.01484688769892172
-0.6543986467077426
-0.07488522771726835
0.1906810548366176
-0.2838868205775343
-0.04968139435494635
-0.06866662074584984
-0.01588535145098205
-0.0217806116605469
-0.5754658207224048
-0.1445087890616656
-0.08546745702385312
-0.128772318437313
-0.5555210823760502
-0.04405325292071317
-0.9072799978141842
0.0002931309174583456
-0.2378228299222654
-1.049954820912868
0.16691122554158
0.2913080313985497
-0.1847914001760714
-0.1925364536049574
-0.2086777665902931
-0.0679994069759573
0.02204706903647225
0.0475102077216541
0.003264031542928968
-0.1680297133761188
0.0254497183166148
-1.356885319737249
-0.08506132117011284
-0.4733382891514956
-0.3306107952996066
-0.2035467565035138
-0.1764035920982116
-0.0169009090205805
-0.01547777500252941
-0.1076611975702087
0.1720048031578093
0.3853753596258865
-0.2110289253792746
-0.1385831139859496
-0.2344419644315255
-0.06237361761233996
-0.1493806487205338
-0.1629569379491363
-0.1255638925526205
-0.1243969066047411
0.4655120678324762
-0.2689720170972999
0.4319129466201009
-0.5995653512986171
0.0709347825912926
-0.2038675070617049
-0.06601052633809873
-0.07443628919883177
-0.878748928904256
-0.2191994777224128
-0.1904325442457895
-0.3464840171625073
-0.4575049131658716
0.5705659570515611
-0.2082183648743609
0.0004036246872866094
-0.07040547403705043
0.3442485931711893
-0.03735545366590517
-0.1327419555167394
-0.1793070359072234
-0.06336025578566967
-0.01655776552474926
-0.1954415387452668
0.1949102049179357
-0.01290084110285708
-0.09613272230921335
-0.1694886812637453
-0.3160289026158649
-0.3132147227617345
-0.06407622898434909
-0.01032404324263397
-0.07929017822030175
-0.6538050067815265
-0.6705796365803243
-0.3386178636260621
-0.05757021482683863
-0.05180593287101902
-0.02553277722065408
-0.06755287590217651
-0.0576877693339637
-0.3584754656828278
-0.957885599439124
-0.0105916708888578
-0.08283465641760883
-1.138209383977566
-1.032134210116689
-0.1056379112184506
-0.03869953618999268
-0.06990415821631467
0.3900073511465184
-0.3439548704477473
-0.0498850518123158
-0.5985964503762747
-0.1214626049069768
-0.2529225807864103
-0.2105092275784578
0.4740200130137616
-0.6277442587388523
0.07416461940342058
-0.02959855454335588
-0.5577312156784743
-0.05156077205133126
-0.3617899601871567
0.1075283568577115
-0.1899487607604185
-0.05968733693668301
-0.1390056374810012
-0.3615428038835917
-0.08715537942722623
0.5148704949508575
0.08553226452027061
0.4705626093466837
-0.1006229741887032
-0.200021487471444
-0.5223975766768812
-0.1312172917941559
0.02677384646257681
-0.05344913580756407
0.1022464412792221
-0.3061209778329786
0.2363009188844409
0.00803081118956896
-0.003347833955182157
-0.5132439861761403
-0.1854751728440053
-0.08062892108491093
0.5816299753624867
0.1385755162961762
0.3448381268384876
0.225790214849084
-0.561609309251241
-0.1975900590192482
-0.2232323714076271
-0.2322692424032075
-0.06020120489921723
-0.6943280970698087
-0.1931495724043658
0.305859388229101
-0.1965599291533231
-0.01129585165017994
-0.1709856973111839
-0.009470471994455916
-0.15679635762039
-0.4346031761903912
-0.07643344690470927
-0.1995027919144111
-0.07092581011680907
-0.08645764875560773
-0.1462934779534689
-0.07308688850786704
-0.4553292589203881
-0.4146629125516412
-0.02578445424487266
-0.07448195740279601
0.3281866341692551
-0.2465461466511586
-0.1848340939662265
0.5250657259584769
-0.2081869700084663
0.01843697336640633
-0.4489816676125732
0.04805323854290201
-0.06200039881267999
-0.1436642244442355
-0.5824150731403617
0.1608065915644541
-0.5805638418407086
-0.5338831436470814
-0.1051103736616526
-0.5071905598388808
-0.03740185645964857
-0.1385883257338119
-0.4102670497124541
-0.01630037651491946
0.2870034391606533
0.4896871771426671
-0.1584985271342298
-0.007957911288235127
-0.0766487585442156
0.5253134631566742
-0.03344809096708327
-0.4382506541665792
-0.03286824502543724
0.4610379263259744
-0.01483091717607952
-0.5427559146391117
-0.2479436749133734
0.1763535166396117
-0.3096426164378078
-0.1784824764049441
0.05070042654951798
0.0336277812520796
0.05449413419060266
-0.2984073726366985
-0.1583084985240522
0.4128102334041377
)
;

boundaryField
{
    FrontBack
    {
        type            empty;
    }
    Top
    {
        type            zeroGradient;
    }
    In
    {
        type            zeroGradient;
    }
    Bottom
    {
        type            zeroGradient;
    }
    Out
    {
        type            fixedValue;
        value           uniform 0;
    }
    circle
    {
        type            zeroGradient;
    }
}


// ************************************************************************* //
