/*--------------------------------*- C++ -*----------------------------------*\
| =========                 |                                                 |
| \\      /  F ield         | OpenFOAM: The Open Source CFD Toolbox           |
|  \\    /   O peration     | Version:  2412                                  |
|   \\  /    A nd           | Website:  www.openfoam.com                      |
|    \\/     M anipulation  |                                                 |
\*---------------------------------------------------------------------------*/
FoamFile
{
    version     2.0;
    format      ascii;
    arch        "LSB;label=32;scalar=64";
    class       volScalarField;
    location    "48.4";
    object      p;
}
// * * * * * * * * * * * * * * * * * * * * * * * * * * * * * * * * * * * * * //

dimensions      [0 2 -2 0 0 0 0];

internalField   nonuniform List<scalar> 
808
(
0.123604
0.0450931
-0.00409798
0.122219
-0.283164
0.0410437
0.0355557
0.0336169
-0.150657
-0.0100704
0.0150913
-0.17854
0.0316429
0.037772
-0.280309
0.029168
-0.313548
0.0378385
0.0535805
0.0320783
0.0632312
0.381753
0.0911194
0.00595201
0.461543
-0.162456
-0.0759433
0.0183447
0.045005
0.0396236
0.0289304
0.0366852
0.0385988
0.034386
-0.0554477
0.620089
0.0410295
0.0468565
0.0415589
0.0307613
-0.0274767
-0.0694833
0.0568043
0.0413725
-0.213245
0.107613
0.0441927
-0.0146745
0.0373983
-0.186447
0.0363619
0.0238072
0.0660209
0.0276331
-0.06474
0.0354923
0.0132528
0.0228412
-0.0172567
0.0342583
-0.390884
-0.0135472
0.0395234
-0.138304
0.0397785
0.0662973
-0.270027
0.0298438
0.0426294
-0.34291
0.04086
-0.394038
0.0368587
0.0453134
0.160406
0.0506277
0.0289229
-0.0583818
0.0351203
0.322386
-0.109999
0.0381179
0.0544506
0.261933
0.0610554
0.0112447
-0.434965
-0.0860064
0.0456708
-0.192284
0.0507819
-0.103845
0.264594
0.172656
0.0584323
-0.159453
0.0225686
-0.130584
-0.0967284
-0.175688
0.0423563
0.0325238
0.0553733
0.0203474
-0.00729824
0.0787538
-0.268329
-0.00355221
0.0369805
0.00511973
-0.00687997
0.337691
0.0406574
0.0425258
0.0342414
0.444324
0.0386258
-0.32578
0.0401097
0.0694848
-0.241676
0.0596644
0.0379765
0.0684534
0.126158
-0.0316807
0.105697
0.0117149
0.0339236
0.0856598
-0.298362
0.03316
-0.0159202
0.136746
0.0406972
0.036503
0.082937
0.0389049
0.0452554
0.0345048
-0.264275
0.0525233
0.0363215
0.0395253
-0.0129324
0.0669257
0.102165
0.155842
-0.0142263
0.0333822
0.0399766
0.349733
0.0502781
0.537753
-0.297143
-0.0775003
0.0408839
-0.228856
0.0807358
-0.0968497
-0.376748
-0.271212
-0.345239
0.0430746
0.080258
0.0408497
0.0445657
-0.369651
0.0379254
0.0381026
0.0540855
0.172967
0.0518967
0.0986862
0.047985
0.0763291
0.0885507
-0.157027
0.0444279
-0.43271
0.0368563
-0.120997
0.0393824
0.253035
-0.396976
0.135317
0.041818
-0.0898936
0.0447706
-0.0571442
-0.276113
-0.024192
0.0397024
0.0824854
0.0409339
-0.245116
0.0412959
0.0354739
0.00168322
0.0969952
0.0766435
0.0310207
0.0379675
-0.421927
0.375893
-0.237243
-0.360344
0.0157445
-0.0242186
0.0407832
-0.027212
-0.49975
-0.197802
0.0445434
-0.0489763
0.0388738
-0.408793
-0.0220946
-0.0512975
0.0300621
-0.0459499
-0.0695369
0.0412782
0.0376482
0.0128475
0.0410536
0.142722
-0.198419
-0.0128274
0.0376748
0.133739
0.0345861
0.0355504
0.0303236
-0.107485
-0.0216866
0.0121392
-0.00558997
-0.0452849
0.0194384
-0.0158806
-0.00618053
-0.0413717
0.00812472
0.00217722
0.00763594
0.00335475
0.000318171
-0.027782
0.0940448
-0.386026
0.0255101
0.0378241
-0.00575766
0.0309981
0.029728
0.0386084
-0.00728496
0.0368896
0.140548
0.0293192
0.00920342
0.0240615
-0.0799915
0.0350683
0.0329442
0.00768691
0.0537165
-3.51157e-06
-0.0127862
-0.0545158
-0.497512
0.283538
0.0573396
-0.0284471
0.0317841
0.0299337
0.0372687
-0.0968808
0.253995
0.0376896
-0.0328062
-0.0591649
0.0935341
-0.161908
0.0523063
0.023814
-0.0292326
0.00051116
0.0286656
0.0439049
0.0430003
-0.0159332
-0.0167474
0.00596
0.0308047
-0.0196375
0.0747593
0.0390392
0.0220489
0.00146209
0.0315986
-0.0408342
0.0346639
-0.582149
-0.0755928
0.00895709
-0.128048
-0.171751
-0.41503
0.0605818
0.0335099
-0.361095
0.128137
0.150968
0.04579
0.0484555
0.00287514
0.0111845
-0.270548
0.0690293
0.00517658
0.0506264
0.0445376
-0.011675
0.0570925
-0.0484833
0.0328076
-0.00532338
-0.314183
-0.123123
0.0227884
-0.131304
-0.0706431
0.0351661
0.242384
0.0546762
-0.137343
0.540695
-0.0431683
0.0115488
0.047474
-0.0263689
-0.0288402
-0.0354054
0.0588997
0.0416317
0.0594775
-0.0267622
-0.225752
-0.0563432
0.121698
0.00721679
-0.300524
-0.371095
-0.271905
-0.371318
-0.0639503
0.0434261
0.0533711
0.0578635
0.00902107
0.0208445
0.0527889
0.01716
-0.579719
-0.0625521
0.0460573
0.0303134
0.0314527
-0.0209495
0.0197348
0.115331
-0.433395
-0.0252226
0.00515852
-0.0378611
0.0744152
-0.327091
0.0218533
-0.283587
0.0211282
0.0264089
0.0316397
0.0376265
0.0384121
-0.00806614
-0.433403
0.0301285
0.0514644
0.00356892
0.109713
0.026146
0.0387943
0.0417771
0.0175351
0.0601802
0.0291547
0.0249142
0.0409481
-0.0182888
-0.211617
0.0794245
-0.043434
-0.00361239
0.0202094
0.411154
-0.214042
-0.0156759
0.0187403
0.0294252
0.0131691
0.0489683
0.101849
0.0115111
-0.104023
-0.00749627
0.0361253
-0.0014573
-0.00461723
-0.00984286
-0.00838781
0.0256641
0.115081
0.0511219
0.0222997
0.0296
0.0384069
0.00814705
0.0502308
-0.436181
0.0686536
0.06422
-0.00640631
-0.207068
-0.330858
0.0181035
-0.115127
-0.0270572
0.0506682
-0.327388
-0.247621
0.231084
-0.413295
-0.526663
0.0208484
-0.136904
-0.0113355
-0.214871
0.345171
0.0271766
-0.339245
0.0311527
0.00917981
0.562553
0.0310098
0.0120849
0.0641925
0.037489
0.0176243
-0.468555
-0.258086
0.0552761
0.0677491
0.0378506
-0.310797
-0.384152
-0.215614
0.0504514
0.0929193
0.111731
0.0138321
0.046732
0.096994
0.0960952
0.04226
-0.0786124
-0.2577
0.0627695
-0.00882861
0.0418384
0.0296626
0.0845336
-0.0311881
0.0224879
-0.558886
0.440996
-0.0570641
-0.321601
0.0207096
-0.0291717
-0.304569
-0.293129
0.120552
-0.418357
0.0100112
0.865107
0.0362302
-0.453789
0.0308597
-0.0464861
-0.00960104
-0.516043
-0.320592
-0.372088
0.0355565
0.0362002
-0.456012
0.0135338
5.96152e-05
0.115452
-0.416405
0.0470417
-0.585132
-0.293314
-0.35447
-0.0786292
-0.0377834
0.0242907
0.124553
0.12221
0.0121891
-0.320183
0.296909
0.0249894
0.011733
-0.533551
-0.585523
-0.424656
-0.0225072
-0.440123
0.00159008
0.176937
0.167573
0.00749516
-0.269421
0.0120415
-0.350712
-0.249433
0.0107431
0.0277405
-0.357626
0.0143656
0.0517559
-0.461694
-0.371156
-0.0322745
0.118392
0.0462957
-0.405987
-0.28341
-0.0123482
-0.0105806
0.0589323
0.117443
0.0206417
-0.141803
-0.256531
0.118217
0.0476617
0.00508938
0.0387667
0.0702001
-0.298609
-0.000581045
-0.304407
0.0714636
-0.482143
0.0945441
0.0023208
-0.33275
-0.426236
0.00783414
-0.534857
-0.54861
0.0444944
-0.065984
-0.288967
0.0385321
-0.330846
0.0225105
0.0975833
0.0652216
-0.521202
0.0404411
0.0885463
-0.435481
-0.0116073
-0.335149
0.0399791
-0.359373
-0.483442
0.0815543
0.283966
0.438243
-0.0445921
0.00598737
0.00150297
-0.436169
0.648729
0.040686
-0.19334
0.0414743
-0.100478
0.0728914
0.494092
-0.337464
-0.0200782
-0.0211732
0.0319197
0.0380282
-0.422778
-0.305663
-0.328891
-0.364177
-0.321437
0.0272749
-0.408469
-0.032128
-0.237177
-0.301297
0.51696
0.597084
-0.275779
0.0828072
-0.292563
0.00386063
-0.159577
0.412349
-0.046305
-0.403617
-0.198044
-0.486609
-0.00188064
-0.173907
-0.00536956
-0.277515
-0.231191
0.00390092
0.00503084
-0.416633
0.434729
0.682057
-0.412496
-0.284186
-0.42059
-0.0387572
-0.271009
-0.28698
-0.172517
-0.404293
0.760307
-0.306012
0.74179
-0.491121
0.3127
-0.396008
0.0280571
0.190619
-0.473105
0.203221
-0.240087
-0.2785
-0.308674
0.876961
-0.300256
0.199983
0.130855
0.636619
0.116321
-0.383611
-0.24007
-0.00647226
0.0185225
0.096536
0.512202
0.0206552
0.000659487
-0.282539
0.12474
-0.161949
-0.139209
0.028108
-0.431303
-0.197043
-0.147188
-0.46454
0.030569
0.103198
0.0236624
0.0962996
0.0960036
-0.295773
-0.343058
-0.0370273
0.0330125
-0.445611
-0.488648
0.184948
0.210512
0.0961976
0.676489
-0.120004
-0.455351
-0.363702
-0.263257
-0.0958455
0.0980997
0.768998
-0.427163
0.357562
0.0237787
-0.398381
0.172629
-0.0648441
0.367125
-0.131316
0.0394523
-0.427099
-0.114605
0.17091
0.814281
0.323679
0.766702
-0.35745
-0.247863
-0.507642
0.180118
0.284111
0.0814121
0.391941
0.110983
0.495806
0.287685
-0.0858704
-0.236873
-0.00140081
-0.449077
0.888551
0.403125
0.656172
0.514583
-0.251934
-0.380151
-0.28724
-0.338008
0.0677737
-0.465951
0.0734789
0.605504
-0.43716
0.021646
-0.338206
0.201426
-0.290595
-0.336447
-0.0318684
-0.245153
-0.374285
-0.341342
-0.434739
-0.0274776
-0.515557
-0.175323
-0.411384
0.164601
0.649312
-0.193817
-0.423453
0.833839
-0.419094
0.264969
-0.209891
0.374245
0.0884346
-0.340731
-0.370137
0.45174
-0.328577
-0.299223
0.163268
-0.257754
0.0243027
-0.269522
-0.104994
0.00762083
0.56179
0.781612
-0.275294
0.213732
-0.409321
0.826178
0.0259292
-0.284948
0.0240064
0.762595
0.225245
-0.293972
-0.278526
0.441601
-0.185787
0.0562239
0.360855
0.270802
0.282456
-0.226223
-0.299142
0.688976
)
;

boundaryField
{
    FrontBack
    {
        type            empty;
    }
    Top
    {
        type            zeroGradient;
    }
    In
    {
        type            zeroGradient;
    }
    Bottom
    {
        type            zeroGradient;
    }
    Out
    {
        type            fixedValue;
        value           uniform 0;
    }
    circle
    {
        type            zeroGradient;
    }
}


// ************************************************************************* //
