/*--------------------------------*- C++ -*----------------------------------*\
| =========                 |                                                 |
| \\      /  F ield         | OpenFOAM: The Open Source CFD Toolbox           |
|  \\    /   O peration     | Version:  2412                                  |
|   \\  /    A nd           | Website:  www.openfoam.com                      |
|    \\/     M anipulation  |                                                 |
\*---------------------------------------------------------------------------*/
FoamFile
{
    version     2.0;
    format      ascii;
    arch        "LSB;label=32;scalar=64";
    class       volScalarField;
    location    "137.5";
    object      p;
}
// * * * * * * * * * * * * * * * * * * * * * * * * * * * * * * * * * * * * * //

dimensions      [0 2 -2 0 0 0 0];

internalField   nonuniform List<scalar> 
808
(
-0.03324953449102124
0.04403638527936192
-0.01147734733598056
0.03772377160060978
-0.2960065867852598
-0.05546544514300796
-0.01542601942105735
-0.02401438476280983
-0.194539778491922
-0.0826442248377308
-0.01009803478502789
-0.2513513695803572
-0.03071616511928853
-0.01387431434971909
-0.124871504901915
-0.01418822682876589
-0.1424302809159198
-0.01373917393036207
-0.01293340650410659
-0.05475380116920809
-0.007557661305150976
0.1166818402003511
-0.06321579016506608
-0.07050825260866417
0.1742740575726843
-0.1001448536181364
-0.1504940960157465
-0.02047062626697967
-0.0176456916490741
-0.02572624077260801
-0.02037038972665941
-0.05747075875857719
-0.02284916949685543
-0.01698398832071399
-0.09807243795223229
0.3451511885552472
-0.03975167039771343
-0.01660911927068164
-0.02251882619008294
-0.02650513139140612
-0.08896118584039085
-0.1248459481033789
-0.05257702715808923
-0.02124745086522003
-0.05556660300672059
-0.04231231957338827
-0.01200773481710861
-0.1821153333646576
-0.0265532129052791
-0.2016297916170477
-0.01690377146079125
-0.06605445830952686
-0.06153494009739603
-0.01522776809956586
-0.1953819694972587
-0.02783663673227334
-0.01096265800228639
-0.01560065904453711
-0.09886008407571385
-0.03912568475626428
-0.1034845822973147
-0.124208126505894
-0.01439554224427919
-0.1264049659278268
-0.01739581462731639
-0.05236909011573797
-0.1607384605605039
-0.035445485839603
-0.01543722911253144
-0.4368143468950031
-0.02620805391895282
-0.2987936359970838
-0.02134613307501303
-0.02087175648735557
-0.06260422835110967
-0.01812059178980649
-0.04184678921480135
-0.3672223843815358
-0.03632520472354175
0.03853514320774889
-0.09246276354134811
-0.01681365773914305
0.05720527558529819
0.04612427252078375
-0.01743193391030387
-0.05143529838259287
-0.5377334288381228
-0.228689082044656
-0.05127992751957017
-0.1136485416117532
-0.05555816259861056
-0.1306879778476884
0.038355341060158
-0.02644149579937058
-0.06264084055173351
-0.116114453478423
-0.03826629266893423
-0.05247755876521811
-0.1143860697736428
-0.1359535662035512
-0.05292235637674227
-0.04661880788918709
-0.0535011881623513
-0.04410324345502521
-0.05684900434009722
-0.07540516674703111
-0.04102940982728371
-0.01104063182039111
-0.03970325198271479
-0.1220908741786603
-0.04977238466714171
0.08122095897013155
-0.04185676723732994
-0.008068461486896196
-0.02760686486058567
0.1810509736943763
-0.03806729048480536
-0.2655980552798387
-0.02069794495502761
-0.05259769721392293
-0.03504517061015414
-0.0493876872945207
0.01413209160230026
-0.04762521508656962
-0.03658467685192639
-0.2199950586572375
-0.03994962193313193
-0.004631128394594935
-0.07454461762476275
-0.06965299487672472
-0.1427520518416666
-0.0211074622821067
-0.07408834554579902
-0.04416492443852219
-0.02302185181992073
-0.01493590604259936
-0.006141630334519519
-0.007315050450912118
-0.05184595952205719
-0.04889400688793984
-0.2192349158935311
-0.05539791355539888
-0.008181295505840932
-0.02187941659239235
-0.1489785537157139
-0.00264869937078999
-0.0751750000144974
-0.02083539295632411
-0.0006047054612586865
-0.01106381677277318
-0.03288431859476122
0.09305199484434726
-0.03787137863485414
0.2514693134680116
-0.2679875686825361
-0.1337774184878818
-0.03787437765195066
-0.09096772218728465
-0.00928707777268111
-0.1146602900133218
-0.1732459913360648
-0.2200737114338299
-0.1747556461508873
0.05706804961600835
-0.06375413115355227
-0.02063655131306073
-0.06612076838054762
-0.1646350231096199
-0.02304157625701678
-0.01857231184185558
-0.05097524313534961
-0.02073283002873338
-0.007194769957326957
-0.1056593642223434
-0.02343582434365593
-0.04402817804474832
-0.07096207066085457
-0.1589215315939379
-0.03307947972495735
-0.3854579094720707
-0.01802910352015218
-0.2276814536523915
-0.0434329790213448
0.03321031100792831
-0.1068028469946543
-0.01649379168696924
-0.04320166721590589
-0.1032340180875442
-0.01786906826483306
-0.09433968960346704
-0.2075696084027698
-0.0708217885641583
-0.02408976694475153
-0.04695313657045677
-0.04195515720229819
-0.2041770769194216
-0.02233921782498836
-0.01932153156205093
-0.01124059847261407
-0.05731165624159094
-0.0496324289688139
-0.02256009271971143
-0.02068165088254883
-0.2367376802181707
0.1268291416003056
-0.2072590861183537
-0.1902445861446196
-0.01175417598346849
-0.01122765015526893
-0.06651498596284783
-0.01043281167913366
-0.4973018655788374
-0.1209014031522003
-0.01951258168378941
0.0001043062905089637
-0.02369728791802296
-0.2777339094560575
-0.2805293672374931
-0.007209256869079864
-0.01732934489242938
-0.001106791389887188
-0.3516332130588287
-0.0285338200775326
-0.02933884519948373
-0.01259437194696676
-0.01948488412546049
0.04864453709746021
-0.1148210063187631
-0.0144660100601838
-0.02093379831021018
-0.04542587764443131
-0.01836926654566266
-0.01633471913182753
-0.02354710857983264
-0.06811444736152705
-0.01114807685643186
-0.01895568957399212
-0.008749862251349123
-0.0008470885244507555
-0.02939257174197916
-0.001935875480944797
-0.002052195595460557
-0.005708187697961624
-0.02554140893624914
-0.007985319863840041
0.0014782366206454
-0.004281697355814462
0.001419901330516467
0.002484690316327493
-0.00891437396567633
-0.1358684360516758
-0.002931783341090944
-0.001143727639692538
-0.04781586362844799
-0.02154396681154148
-0.02376197747971173
-0.01428625140717812
-0.006220887698145433
-0.02107101126223851
-0.0401770607961206
-0.01461333804567898
-0.01289686459124839
-0.01126911117388063
0.008872603561646809
-0.00990040278588477
-0.01218387515720042
-0.01155223956551743
-0.01028202878965831
-0.01037689228070674
-0.01194660997340316
-0.0136991208005527
-0.2973907504121721
0.05877666120325638
-0.01588160386951146
-0.01489523661244941
-0.0126725072326455
-0.01181598569116155
-0.008550473313089064
-0.09665652530929825
0.01335756091471555
-0.01388082212633832
-0.01377443286061984
-0.0105285209160656
-0.05079408902834694
-0.009862163262235858
-0.01356034873925261
-0.01018757941252744
-0.0005930688191909165
-0.01138879917251431
-0.01209155693276862
-0.02429612330614719
-0.01551563515054962
-0.01200445220552488
-0.01355158887316857
-0.007814024534517575
-0.01213733649648079
-0.0114767396062178
-0.05977674635296615
-0.01361585879163691
-0.01151231470247349
-0.009040573055594031
-0.01521355646501636
-0.01362254527406641
-0.01564637128936396
-1.362725217779866
-0.1005549880736821
-0.01286491776841543
0.02674980232431567
-0.160531422273476
-0.09165420653246824
-0.01227820010412682
-0.01416568180372745
-0.2313633760627574
-0.02807833348156531
-0.01753302451673415
-0.01214347135348777
-0.02026377660234854
-0.009974767399396249
-0.03082660961153021
-0.4074507502827522
-0.01227121854597805
-0.01409499828169613
-0.004471904516719917
-0.01139183001311284
-0.01075536093925508
-0.01387285029499113
-0.006064041730697619
-0.02703662491494944
-0.01182817966223452
-0.1733538949615142
0.0197839478778413
-0.00726914285436248
0.004404041546759458
0.01327830615314051
-0.04883543143676067
0.02755904397692156
-0.0134206713447539
-0.1316948488521293
0.2830130584993823
-0.007791782335803786
-0.01374385659236967
-0.007960945499392112
-0.0326806382685792
-0.1257854364868163
-0.01248395624719649
-0.01191709889015862
-0.01713299990114766
-0.01342013547340876
-0.04164374583209267
-0.2202871890638327
-0.008974340253121006
-0.04366445563091637
-0.03859011807206749
-0.1777778220556887
-0.1555871984137921
-0.1379310467851133
-0.2221587393828931
-0.004130257749310896
-0.02071193563772938
-0.01468221608902923
-0.01342590678572664
-0.0337226427927093
-0.02456689243289393
-0.01401016249557185
-0.01485167803769144
-1.067182342516225
-0.005325987266434283
-0.01307209378731617
-0.01813609634689425
-0.02476270995059828
0.0007798867261408807
-0.01494010465818186
-0.02517153193994699
-0.1475271502602904
-0.01392123398694052
-0.02146484372036826
-0.0147264521814741
-0.001664351781257203
-0.1777062534567802
-0.01249633484927425
-0.1505129977980897
-0.0155655417810381
0.002129780960380284
-0.01424492319801688
-0.02409545291092548
-0.01598091535501363
0.005621327265846021
-0.2682666708202189
-0.02650685889044426
-0.01650213441029862
-0.007451085020712555
-0.0105994020565328
-0.02936279210208544
-0.01381373569702
-0.02091831573596069
-0.02059997178356108
0.0137544756978795
-0.09733300440681861
-0.02122415868225114
0.009539730620571965
-0.05811649086380118
0.1805102914722251
-0.1065812373398753
-0.3146104655659354
-0.03056039608563414
-0.02589885421838493
0.1518275669388649
0.07968047781789681
-0.003836824062848476
0.05139041430181993
-0.01500782841677434
-0.01377544139938902
0.002685643315219327
0.007983658207525394
-0.06463424201897781
-0.00533210687815988
-0.05595348257580841
-0.02281816162940824
-0.01571275972560505
-0.03652865983531342
-0.03292285083898017
-0.006679241784812696
-0.01488016908776211
-0.03650017846246279
0.03397055071493735
-0.03869509975971174
-0.01404302222099073
-0.1197186705423534
-0.03119840294901122
-0.03987407029499533
-0.6670319062223319
0.0185861153169176
-0.01012629103996099
-0.005936106801477602
0.1719113654660188
-0.09524916364627189
-0.03577316180620641
-0.2413903044689001
-0.01572279220780198
-0.01608178265810943
0.08017403452753677
-0.179095749849553
-0.2360465898929869
-0.1882514939434716
-0.6752584604672925
0.003445523440594594
-0.01788742528402259
-0.01630446115393347
-0.08948784156486268
0.1188716156345066
-0.02120301121842629
-0.2286338582206688
-0.0361250314666925
-0.006976741072237602
0.2814040694857448
-0.01097861016130614
-0.09053560860848751
-0.1533764236089507
-0.003495947582639028
-0.04151826375899498
-0.05238876616918629
-0.1985190390405754
-0.007773761611848824
-0.0395954514065615
-0.002839503001151871
-0.5423829192152287
-0.191881020890566
-0.1793619350911194
-0.02341330404050102
-0.008624949953785779
-0.0621641281711548
-0.05629971660034661
-0.01415697704945511
-0.06964639112552255
0.005093483733158379
-0.01765744352811343
-0.09324481994721147
-0.2767166600591807
-0.008387877246163191
-0.0253796829749062
-0.02136304262249355
-0.07641109931603476
-0.08867831521789664
-0.08984260368639929
-0.01197387517287725
-0.9090536546912562
0.1626535638537788
-0.08005836955643589
-0.2479828503930847
-0.04125316480733773
-0.00967738585932041
-0.2545961994564611
-0.1989559087738949
-0.03056931056577837
-0.1209320889315667
-0.019336497780369
0.5638641287885747
-0.02506648843789692
-0.2179809276483364
-0.02501043694476474
-0.00492656209304207
-0.01127331659759214
-1.240245896317651
-0.1794600093221973
-0.2258490958320744
0.005210512056155379
-0.03924889705630893
-0.2414159319410378
-0.06715543772952305
-0.05217054644809636
-0.1470361443448761
-0.1784711622724496
-0.07003824709615608
-1.212823010423655
-0.1535202937190319
-0.5394414516830024
0.08022783748485422
-0.00584125555684544
-0.02099781218025234
-0.04478714420455567
-0.03777200549336761
-0.02786389662521404
-0.1282660125499581
0.08184349507477963
-0.002373695839354609
-0.009996202412370748
-0.5650068850827127
-0.8489499665647676
-0.175106529166104
-0.007958316789206537
-0.1298318222512714
0.0006362280065170268
-0.0001539456923262072
-0.00256106429905238
-0.06098136340698242
-0.2325899857881329
-0.01321992492132557
-0.1163490016490689
-0.1583171602899826
-0.0131068701370005
-0.03443257405739145
0.02873058607266834
-0.05880648321537434
-0.07213021304870686
-0.4927954883413065
-0.2088415652153849
-0.07905043838087125
-0.07581256428471443
-0.01934639298286582
-0.1179977558486075
-0.1600486302034331
-0.07880931371177706
0.0237708899324272
-0.08732156004784226
-0.05051164939707292
-0.01487252702991531
-0.1098503439731893
-0.2807677681157763
-0.0596646101951563
-0.01796238012484894
-0.0003175153498465515
-0.009999142297728084
-0.01054964857193358
-0.2316064133531203
-0.01477528007247333
-0.2157152320949751
-0.01028907353674906
-0.07457669392660184
-0.004500625026494423
-0.02328907651226427
-0.391515101655171
-0.9297757560412818
-0.0112795553390495
-1.036758097924399
-0.6015454444570902
-0.01034880359004961
-0.6660557033016861
-0.1879596191027302
-0.005738531497693444
-0.1251013148578887
-0.01680731521269622
-0.1259418541547768
-0.06454107192563671
-0.08219115098793521
-0.005085574566703579
-0.002463869078085448
-1.351371379800212
-0.01154474707448714
-0.1791266184142731
0.001016847739716237
-1.00081680667356
-1.252244309990939
-0.07786294536296878
0.01565961037604473
0.1646856875395647
-0.004535057161159599
-0.0229999196560127
-0.004234340989823259
-0.2420323119368868
0.3654516037543359
-0.04221018086351518
-0.2147627699015253
-0.01513894121466716
-0.6461986161476052
-0.0717952682708753
0.1878905860214866
-0.2996371297517331
-0.05079550028352618
-0.07033821584267259
-0.01595937047274767
-0.02145442584116621
-0.5931915974791299
-0.1516054890794095
-0.09191086996630039
-0.1208404453318368
-0.5477151114297908
-0.04532462242188296
-0.8976792658815602
0.0006094163576155781
-0.2442766254641245
-1.060365225792035
0.1621764229380116
0.2882577648253887
-0.1782346153200936
-0.1874953738730141
-0.2176091463095925
-0.06585840406240746
0.02370880298721581
0.0423601997152445
0.003507089392850817
-0.1598687636196253
0.02651159440008445
-1.372043458047558
-0.08725768138204539
-0.4809457511975651
-0.3369063592782175
-0.2163235737631594
-0.1812984054020044
-0.01694973725751541
-0.01540669967908564
-0.09910805069872541
0.175748936461542
0.3839430584113548
-0.1978864966196658
-0.1477246842203705
-0.2168479561038461
-0.06367909976053115
-0.1573570673743731
-0.1710257238375751
-0.1279771827948352
-0.1175754825516167
0.4625298821986046
-0.2812644245883213
0.4346961984283468
-0.5888650626286005
0.07372822605428485
-0.190562296477634
-0.06794309357892621
-0.07841799479080135
-0.8957688855612064
-0.2128816261963214
-0.1941899581411158
-0.354949465993759
-0.4669064208611122
0.5696494448645925
-0.2167432545930951
0.003061356003702128
-0.06685249786670612
0.3466688877785186
-0.03452517935271778
-0.1281557032793151
-0.1829412222610053
-0.06366558122324828
-0.01640511762250699
-0.2011881341131607
0.1993474806272216
-0.01281785076506436
-0.0988100174474041
-0.1771832890022627
-0.3227490873423609
-0.3070994717657897
-0.07557967776015935
-0.009808895420955024
-0.08310601120886038
-0.6457336698954733
-0.6790242632493091
-0.3273457107089285
-0.0592334461703888
-0.04914780661427354
-0.0245208851618575
-0.07029711171667223
-0.05458681298888765
-0.3679581912676492
-0.9682083387993127
-0.009617574443493912
-0.08544464823958862
-1.150793785198677
-1.046680317028793
-0.1110283323098244
-0.04207157009476462
-0.06753409389595652
0.3873374513128264
-0.3378363771465132
-0.04914107551311656
-0.6078829921537953
-0.1308438084864117
-0.2474101936518066
-0.2158071979198095
0.4728429237280102
-0.6388237443531384
0.07828034751791603
-0.02845918270312605
-0.5706569046988645
-0.05473918547137443
-0.3686205479279754
0.1110303552940902
-0.1939629329886665
-0.06151097450950366
-0.1308524270260234
-0.3550191344135994
-0.08203469209807031
0.5165051773788858
0.08748801640502689
0.4686483516069081
-0.1067415344406834
-0.2074450743170344
-0.5103084702168115
-0.1362394669763877
0.02394481897452984
-0.05569202929998255
0.098600668446338
-0.2996095674876625
0.2365492319294931
0.00399434302329636
-0.00262984177878885
-0.5057127008402492
-0.1807791991292135
-0.08778023218592619
0.5815536782038166
0.1400124943430268
0.3413356313009293
0.2251521526440544
-0.5698571966498667
-0.1923087286788249
-0.2258422826284007
-0.2198446592307511
-0.06235344759304583
-0.6850480308547211
-0.1876236196765294
0.3036346506636814
-0.1885969099434778
-0.01145294125036811
-0.1607458827485883
-0.01201163253895142
-0.1668461048608317
-0.4469708468221811
-0.07573353824804004
-0.2087797327662919
-0.07325562444097003
-0.09670072164821798
-0.1368944625365394
-0.07186559342182029
-0.4425590183259647
-0.4078762825843006
-0.02262083827569701
-0.078016651255744
0.3316008527501791
-0.2525370591632354
-0.1742289312267891
0.5231723763011926
-0.197345122123472
0.02220744392847563
-0.4567837747989474
0.05294051980824579
-0.05917315632911823
-0.1400788458361437
-0.5937085421931533
0.1567538970331707
-0.5724902789176184
-0.5429183348193586
-0.1003452241976409
-0.515367375688474
-0.03607833850337398
-0.1484893336242488
-0.4173565683888942
-0.01597987638904997
0.2891136745754505
0.490136544255313
-0.1659475710641635
-0.005044687015728209
-0.08936917067020621
0.5249493605917781
-0.03212051954414683
-0.4468118829787068
-0.03179758915270178
0.4625722583019615
-0.01762100266101937
-0.5521068628599755
-0.2470181313466398
0.1790149067824847
-0.3162547249368735
-0.1832761831385159
0.0463180054259653
0.03108245677138781
0.05702861840723676
-0.3051518916685582
-0.1609327158914008
0.4128654911012242
)
;

boundaryField
{
    FrontBack
    {
        type            empty;
    }
    Top
    {
        type            zeroGradient;
    }
    In
    {
        type            zeroGradient;
    }
    Bottom
    {
        type            zeroGradient;
    }
    Out
    {
        type            fixedValue;
        value           uniform 0;
    }
    circle
    {
        type            zeroGradient;
    }
}


// ************************************************************************* //
