/*--------------------------------*- C++ -*----------------------------------*\
| =========                 |                                                 |
| \\      /  F ield         | OpenFOAM: The Open Source CFD Toolbox           |
|  \\    /   O peration     | Version:  2412                                  |
|   \\  /    A nd           | Website:  www.openfoam.com                      |
|    \\/     M anipulation  |                                                 |
\*---------------------------------------------------------------------------*/
FoamFile
{
    version     2.0;
    format      ascii;
    arch        "LSB;label=32;scalar=64";
    class       volVectorField;
    location    "48.9";
    object      U;
}
// * * * * * * * * * * * * * * * * * * * * * * * * * * * * * * * * * * * * * //

dimensions      [0 1 -1 0 0 0 0];

internalField   nonuniform List<vector> 
808
(
(0.896255 -0.0130906 0)
(0.995272 -0.0424566 0)
(0.999747 -0.255808 0)
(1.06612 0.0128456 -2.48679e-21)
(1.49866 -0.23218 0)
(0.936959 -0.0193929 0)
(1.09011 -0.0560417 -8.84304e-21)
(1.13445 -0.0450986 0)
(1.36368 -0.184397 3.23822e-20)
(1.20667 -0.0437924 -6.9715e-21)
(1.16745 0.158036 1.08862e-20)
(1.40251 -0.191178 0)
(0.989466 -0.0423788 0)
(0.716857 -0.0202436 0)
(1.00902 0.060717 1.35962e-20)
(1.06231 -0.0334753 0)
(0.854898 0.0728067 -5.32886e-21)
(0.952177 -0.0178516 -1.70568e-22)
(1.1426 -0.137709 0)
(1.09404 0.00595784 0)
(1.13002 0.130687 -1.5189e-20)
(0.924226 0.122486 1.15641e-19)
(1.07061 0.00773492 -2.036e-20)
(1.15874 -0.0223649 0)
(0.958987 0.174154 0)
(1.37367 0.0477389 -2.32004e-20)
(1.28268 -0.123203 1.43403e-20)
(0.998028 -0.0263504 -1.16069e-20)
(1.0425 0.000732166 0)
(1.05215 0.012469 -2.91135e-22)
(0.977833 0.00947393 9.03054e-24)
(1.10483 -0.0035289 0)
(1.07354 0.0531728 0)
(1.08851 -0.0208829 9.75644e-21)
(1.26017 -0.0124871 6.03934e-21)
(0.749932 -0.123612 1.08711e-19)
(0.844749 -0.0302671 -1.98964e-20)
(1.04724 0.0439583 2.34139e-21)
(1.17828 0.0622841 -6.52943e-21)
(1.13451 0.0441244 0)
(1.22078 -0.0363056 -9.71912e-21)
(1.26359 -0.0869693 0)
(1.00319 -0.0218368 -1.41657e-20)
(1.14093 -0.00675297 1.75699e-20)
(1.34517 -0.145014 0)
(1.00873 0.0158909 -2.61468e-20)
(1.00833 0.0352551 4.51115e-21)
(1.26032 -0.206798 2.39228e-20)
(1.16712 0.0552925 -1.43122e-20)
(1.40569 -0.0893533 -4.67789e-20)
(1.08298 -0.0280001 1.67092e-20)
(1.13574 -0.0469445 0)
(1.11069 -0.00153059 1.27482e-20)
(1.22521 0.00989263 0)
(1.31438 0.22127 1.42831e-21)
(1.06708 0.0451634 -5.65121e-21)
(1.2644 0.0925728 0)
(1.33266 0.00345443 2.07258e-21)
(1.21856 -0.0586971 7.48386e-21)
(1.13562 0.0248977 -2.28377e-21)
(-0.0297956 0.199839 0)
(1.21809 -0.187827 -1.1782e-20)
(1.25174 -0.0446089 0)
(1.35811 0.0152644 -2.61125e-20)
(1.17321 -0.00913939 -1.70745e-20)
(1.0302 -0.0295776 -1.41694e-20)
(1.42484 0.0198924 2.89571e-20)
(0.668486 0.0191649 0)
(1.1609 0.0313676 0)
(1.51069 -0.312608 0)
(0.884832 0.0278176 -4.27058e-22)
(1.37425 -0.081084 -5.56521e-20)
(0.996106 0.0498779 0)
(1.0513 -0.0336989 -8.06659e-21)
(1.14005 -0.325182 -4.84614e-20)
(1.07537 0.00340704 -3.24465e-20)
(1.12112 0.0146675 -6.6403e-22)
(1.3198 0.494131 2.46442e-20)
(1.07372 -0.0469568 0)
(1.00377 0.271029 -1.94772e-19)
(1.36236 -0.00107466 1.03043e-20)
(0.748427 0.011278 0)
(0.85453 0.018713 -1.87572e-20)
(0.973943 -0.1121 3.9415e-21)
(1.08287 -0.0234341 2.55544e-20)
(1.15025 0.0104172 -1.61647e-22)
(1.39743 -0.19901 0)
(1.33733 0.279985 0)
(1.0734 0.00713438 -2.15471e-20)
(1.42725 0.095501 2.58525e-20)
(1.06679 -0.0116494 1.41778e-20)
(1.30374 -0.0603969 -1.62534e-21)
(0.965505 0.0215234 1.90071e-20)
(1.00307 -0.0261488 0)
(1.10976 0.00653369 2.7003e-21)
(1.32652 0.104551 -5.65691e-20)
(0.783048 0.00895705 -3.63971e-21)
(1.37862 -0.0911037 0)
(1.28801 -0.0338277 0)
(1.40705 0.0598126 -4.99454e-20)
(1.07128 -0.0382026 -1.0869e-20)
(1.09958 0.0108653 -2.81189e-22)
(0.937647 0.0204525 1.41087e-20)
(1.14445 -0.00931041 7.80662e-22)
(1.20981 0.00375344 -2.2545e-21)
(0.99973 -0.00291149 1.98697e-20)
(1.50459 -0.180807 0)
(1.01896 0.294766 0)
(1.08429 0.0310703 1.23378e-20)
(1.21441 -0.191782 -3.28639e-21)
(1.20235 0.0020427 -2.40842e-22)
(1.03426 0.0348422 -1.27144e-19)
(1.14694 0.0346803 -4.87335e-21)
(1.23313 0.232895 5.04534e-21)
(0.823609 0.0193801 0)
(0.922718 -0.0537345 7.43057e-20)
(1.13184 0.0175134 -1.2275e-20)
(1.50544 -0.199154 -2.38159e-20)
(1.13843 -0.0445085 -1.41834e-20)
(0.924183 0.0169208 1.81377e-21)
(-0.181192 0.175021 0)
(0.845269 -0.0191098 1.94671e-21)
(0.788693 0.0230524 0)
(1.05316 0.00454433 -1.04236e-22)
(1.01461 0.0276972 0)
(1.30281 0.313689 3.01825e-21)
(1.03858 -0.0434329 -3.01217e-20)
(1.40631 0.213549 -1.564e-21)
(1.14044 -0.0477499 0)
(1.08816 -0.0191216 0)
(0.872653 0.167362 0)
(1.15124 -0.0334719 -6.19673e-21)
(1.20547 -0.019887 4.86847e-21)
(1.0683 0.107422 -3.8669e-20)
(0.854892 -0.0382732 0)
(1.08622 0.0192014 -3.21756e-21)
(0.920605 0.152881 3.43721e-21)
(1.0387 0.035231 -5.92339e-21)
(0.987623 0.0316696 7.94175e-21)
(1.10601 0.0104346 2.35718e-22)
(-0.00455471 0.0800694 0)
(1.08534 -0.0104135 -1.55191e-20)
(0.834677 -0.208532 2.33131e-21)
(0.707282 0.0266079 -7.4871e-21)
(1.2567 0.164265 4.54048e-21)
(1.10745 0.289799 2.88492e-21)
(1.04307 0.023244 1.7685e-20)
(0.99188 0.0310498 0)
(1.17296 -0.381422 -1.1803e-20)
(1.13671 0.310677 0)
(0.934236 0.0305959 1.56646e-20)
(0.964174 0.273722 1.55378e-19)
(0.961952 0.0350561 0)
(0.823111 0.0894762 0)
(-0.110577 0.106508 -6.61403e-20)
(1.33914 0.12466 -7.75666e-21)
(0.666762 -0.0211573 0)
(1.49374 0.00691596 0)
(0.944242 -0.0439435 0)
(1.35634 0.0858175 9.36285e-21)
(-0.0636108 -0.146201 0)
(-0.0475189 0.0920825 2.95281e-20)
(1.23126 0.092216 1.17258e-19)
(0.995991 0.0356794 2.58858e-21)
(0.855567 -0.00302089 0)
(1.04685 -0.0519785 1.98689e-20)
(0.87717 0.0212801 0)
(0.976252 0.0833901 -1.26647e-19)
(1.02765 0.0474321 2.30999e-20)
(1.17917 -0.0257587 5.23041e-21)
(1.08228 0.0159261 9.37632e-21)
(1.01368 0.0673001 -1.41738e-20)
(0.820151 0.379296 -2.87193e-21)
(1.14607 -0.337821 2.09493e-22)
(0.911824 -0.0124288 0)
(1.06318 0.0108046 -1.40378e-20)
(0.872452 0.00472006 -1.52738e-20)
(1.36498 -0.0950144 2.46774e-21)
(0.671413 0.021721 0)
(1.18928 -0.108312 0)
(1.16244 -0.0617938 8.1396e-21)
(1.38338 0.210682 6.14944e-21)
(1.1001 0.0150612 7.70156e-21)
(1.03368 0.0220296 1.82722e-20)
(0.875939 0.139864 -8.44573e-20)
(0.813535 0.00392287 2.58476e-20)
(1.12086 -0.0232636 1.16103e-20)
(1.29077 0.02941 -3.45052e-21)
(1.14806 -0.0248336 -9.69654e-21)
(1.25092 0.00206107 2.95673e-21)
(-0.0999383 0.158074 4.69756e-20)
(1.21504 -0.00905808 0)
(0.61805 -0.0113985 0)
(1.05561 -0.0181218 -6.06131e-21)
(1.08358 0.0118775 1.40646e-20)
(0.0728889 0.130833 0)
(0.882182 -0.0277707 9.36536e-22)
(1.17045 -0.0781349 -4.20863e-21)
(0.975495 0.00352404 1.83045e-21)
(1.0767 0.0309477 -9.39642e-21)
(0.996949 0.0245016 2.16763e-21)
(1.06412 -0.0664893 3.71253e-21)
(1.08269 0.0260183 0)
(0.503537 -0.000931502 0)
(1.04922 -0.0695864 0)
(1.15485 0.10451 -2.12299e-20)
(-0.0697293 -0.125069 6.17719e-20)
(1.07783 0.033083 -2.1007e-23)
(1.02444 -0.209613 0)
(0.745544 0.0259529 -1.51147e-20)
(1.04395 0.313725 1.08203e-21)
(0.0168635 -0.0383256 -2.0866e-19)
(0.951876 0.185817 -4.84214e-20)
(0.634861 -0.0176258 0)
(0.927196 0.263858 0)
(0.917264 0.0138503 1.42022e-20)
(1.17078 -0.0603487 8.23417e-21)
(1.27244 0.392979 -7.83433e-21)
(1.09515 0.134585 4.25215e-22)
(1.30958 -0.0821706 -1.52817e-22)
(0.95341 0.319116 0)
(1.3549 0.41875 -2.29975e-20)
(0.653849 -0.0152599 0)
(0.802557 -0.0168986 -6.0189e-21)
(1.10562 -0.0285658 4.04806e-22)
(0.609532 0.0105131 0)
(1.10004 -0.00661672 0)
(0.23864 0.422144 -4.06888e-20)
(1.30447 -0.279497 6.51765e-21)
(0.751421 -0.0138757 5.35488e-21)
(0.989719 -0.00556689 0)
(0.558311 -0.0105279 0)
(0.764472 -0.0129427 -5.7758e-21)
(0.564957 -0.0156493 -1.02267e-21)
(1.36149 -0.00968423 2.0262e-22)
(1.19655 -0.0740705 1.75817e-21)
(0.725914 0.0162781 -2.69995e-21)
(1.2404 -0.0112801 2.42495e-22)
(1.16045 0.00556408 -4.00617e-22)
(0.555113 0.0119648 7.29459e-21)
(1.32372 -0.0202117 -8.75349e-22)
(1.21957 -0.12839 0)
(0.966205 0.1255 0)
(0.507295 0.0159594 0)
(1.10206 -0.0258029 0)
(1.12679 -0.0766182 -2.88589e-21)
(1.08855 -0.129738 0)
(1.22548 -0.0690983 0)
(0.925252 -0.0876901 0)
(1.05201 0.200011 0)
(-0.0394331 -0.0830245 6.49687e-20)
(1.05613 -0.0498915 2.07451e-21)
(0.884024 0.0432054 0)
(1.19764 -0.00680318 -4.38475e-21)
(1.08918 0.0322011 3.49231e-21)
(1.11625 0.0410169 5.72224e-21)
(1.06628 -0.149605 6.76239e-21)
(0.97078 -0.127389 0)
(0.57011 -0.0124894 1.20616e-20)
(1.05033 0.0415943 1.37855e-20)
(1.26122 -0.260804 0)
(1.1405 0.164902 -3.72875e-22)
(1.17774 0.121829 6.37015e-21)
(0.838149 0.128113 1.96213e-20)
(1.1853 -0.023388 8.94042e-21)
(1.03966 0.12718 -8.9293e-21)
(1.16001 0.213216 0)
(1.11354 0.179187 -1.8674e-20)
(1.26771 0.242195 2.32624e-21)
(0.765288 -0.0878073 2.93159e-21)
(0.890095 -0.255723 0)
(0.00314093 -0.0225606 0)
(0.965585 0.107414 -1.83687e-20)
(1.10444 0.0589552 0)
(1.25159 -0.16639 1.51383e-20)
(1.29811 0.124063 3.30633e-23)
(1.03187 0.187414 8.58313e-21)
(1.14743 0.100404 -6.09391e-21)
(1.31349 0.128065 7.24351e-20)
(1.03044 -0.326498 4.89242e-20)
(1.08632 -0.0695619 -5.5763e-22)
(0.816944 -0.308903 0)
(1.03262 0.0949794 0)
(0.904713 0.00265976 -3.0481e-20)
(1.39091 -0.354688 -6.8908e-20)
(1.00419 -0.0255409 0)
(0.739449 0.299412 9.55048e-21)
(0.751307 0.234671 0)
(0.844192 -0.297157 2.52907e-21)
(0.727397 0.149794 -1.22804e-20)
(0.811882 0.0152608 -9.27187e-21)
(1.06852 -0.165032 0)
(1.29285 0.175942 -3.85709e-23)
(1.22244 0.0690451 -1.26861e-21)
(0.911999 -0.328981 4.63502e-21)
(1.01834 -0.0426032 -6.15298e-21)
(0.755596 -0.408303 0)
(1.09076 0.0640362 0)
(1.16846 -0.264981 5.73477e-21)
(0.901971 -0.364698 -2.55485e-21)
(1.22984 0.192598 -2.72001e-21)
(1.06493 -0.0255726 -6.42704e-21)
(1.03393 -0.0499996 -6.08191e-22)
(1.02751 0.059774 0)
(0.47099 -0.149322 1.75202e-20)
(1.33798 0.0578936 -1.1847e-20)
(0.723464 -0.220051 -4.96586e-21)
(0.437572 -0.237001 -2.07514e-20)
(1.39449 -0.0253906 2.63084e-20)
(1.02554 0.0708478 7.68136e-20)
(1.1337 -0.19148 -6.09824e-21)
(1.04802 -0.0718403 6.77348e-22)
(-0.0833236 -0.0897968 -1.07033e-20)
(0.998851 -0.00625802 0)
(1.03515 -0.0879938 -1.51896e-20)
(0.829573 -0.0357464 2.19878e-20)
(1.09894 -0.027321 9.58172e-21)
(1.00634 -0.256342 5.27266e-21)
(0.536704 -0.0243998 1.29577e-21)
(1.45124 -0.351466 -1.80594e-20)
(1.05947 -0.0304476 0)
(1.05144 -0.0178401 -1.77426e-21)
(1.13187 0.0130915 -4.85097e-21)
(1.03034 0.0620482 0)
(0.879584 0.0535898 7.40759e-22)
(1.08719 0.019012 5.97364e-21)
(0.914101 -0.102705 -2.48146e-20)
(1.11078 -0.0713858 -1.37344e-20)
(0.867873 -0.155257 8.80141e-22)
(-0.0523679 -0.0477277 0)
(0.499311 -0.313477 1.61311e-20)
(1.14776 -0.0406574 0)
(1.10094 -0.00192499 2.00545e-20)
(1.15391 0.181832 0)
(1.11947 -0.0359515 1.22166e-20)
(1.01515 0.0254655 0)
(0.978006 -0.104044 0)
(1.34612 -0.0228995 1.71558e-20)
(0.804706 -0.0944028 0)
(1.08137 0.259067 4.45285e-21)
(1.1726 -0.00186858 6.43177e-22)
(1.02877 0.00391569 5.82966e-21)
(1.3068 -0.189251 -1.16634e-20)
(1.241 0.112189 5.58226e-22)
(1.26784 -0.215782 -1.1753e-20)
(1.03522 -0.00100801 0)
(1.07992 -0.0296953 0)
(1.03285 0.0576906 3.43284e-21)
(1.19789 -0.0804067 0)
(1.41263 0.219193 -1.90894e-20)
(0.940268 0.033476 3.98408e-21)
(1.02756 0.0116232 2.81762e-20)
(1.19446 -0.027334 1.73948e-22)
(-0.0113666 -0.0316695 0)
(-0.0489742 -0.127229 0)
(0.131844 0.365361 -5.46599e-20)
(-0.0782146 -0.0601284 0)
(0.77103 0.26729 1.18424e-20)
(1.15634 0.0375264 -4.06551e-21)
(1.06625 0.0353588 -1.03527e-20)
(1.11834 -0.154567 -5.9034e-21)
(1.15239 -0.111426 0)
(0.72228 -0.0259443 -4.45604e-21)
(1.06824 0.0892236 0)
(1.09235 -0.0203472 1.67694e-21)
(0.581937 -0.111999 0)
(0.760331 0.330914 -3.48048e-23)
(1.08478 0.113019 0)
(1.24005 0.0337419 0)
(0.305238 0.0762611 -1.20559e-21)
(0.688021 0.468359 -5.61769e-22)
(0.896391 0.28166 5.54124e-21)
(1.00865 0.018059 -9.38878e-21)
(0.383565 0.0343754 0)
(1.19145 0.0940941 2.02968e-21)
(1.24623 0.0297317 6.51853e-21)
(1.2781 -0.0924923 2.23066e-21)
(0.555253 0.256622 8.79195e-21)
(-0.0730614 -0.0689617 -1.21238e-19)
(1.16885 0.10465 0)
(-0.0250439 0.0218981 0)
(1.22964 0.0767848 9.15467e-21)
(0.593353 0.23373 -9.45823e-21)
(1.19394 0.0382933 -1.8395e-20)
(1.08297 -0.0342615 0)
(1.10074 0.100934 7.44183e-21)
(1.26689 -0.377906 1.12723e-20)
(0.714103 0.0016088 -1.36397e-20)
(1.11351 -0.0414643 -6.77053e-21)
(1.06253 -0.0713523 -8.33842e-22)
(0.545767 -0.518884 1.08844e-20)
(1.12231 0.0176903 -3.31483e-20)
(1.13442 0.0208129 0)
(1.13686 0.115199 0)
(1.10204 -0.0973591 -3.5307e-21)
(1.23991 0.033332 -5.89092e-21)
(0.738696 -0.392136 -3.54369e-20)
(1.18993 -0.0835017 -9.29861e-21)
(1.14282 0.0560233 1.33674e-20)
(0.523103 0.000401421 2.42154e-20)
(0.221529 0.358863 -1.10098e-20)
(0.683364 -0.283469 2.91065e-20)
(1.16682 0.181007 -6.31852e-21)
(1.26837 -0.488966 1.01913e-20)
(1.23689 -0.0208981 1.97719e-21)
(1.12538 -0.0751623 4.18422e-21)
(0.948498 -0.240933 9.03629e-20)
(-0.108405 -0.176465 0)
(1.23875 0.0340835 1.12365e-21)
(0.115536 -0.321152 -7.32408e-21)
(1.2181 0.122696 -7.92207e-21)
(1.20375 -0.170805 3.47859e-21)
(1.07034 0.0208683 0)
(0.368038 -0.0590771 0)
(1.14551 -0.0325909 0)
(1.44278 0.0983265 -8.36309e-21)
(1.19439 -0.0141041 4.47947e-22)
(1.09049 -0.0499668 8.76178e-21)
(0.491503 0.0164875 0)
(0.656828 0.00338843 0)
(0.646897 0.000533243 2.98124e-22)
(0.453721 -0.00945607 0)
(1.27264 0.054913 0)
(1.01869 -0.0112247 2.36588e-20)
(0.362531 -0.216137 0)
(0.956135 0.056171 0)
(1.12526 0.0624898 0)
(1.16821 0.171617 -1.69059e-20)
(1.21393 0.00199373 -6.44439e-21)
(0.944813 -0.0346048 1.38092e-20)
(1.37865 -0.392819 -1.42205e-19)
(0.464168 -0.32131 -2.38116e-21)
(1.11333 0.121704 7.40225e-21)
(1.02947 0.270304 0)
(0.32084 -0.520838 0)
(-0.200922 0.552039 0)
(1.12422 -0.0536729 8.97069e-21)
(1.34564 -0.25811 -4.74181e-20)
(1.30663 -0.049751 0)
(1.03748 0.0356675 -1.45771e-20)
(0.841025 -0.274436 0)
(1.50647 -0.0694721 9.25245e-20)
(0.410639 0.516128 1.27309e-19)
(0.437235 -0.0137604 0)
(1.19083 -0.26903 1.52701e-19)
(-0.0670603 0.0617675 0)
(0.271508 -0.598413 -6.97242e-21)
(1.29245 -0.0334057 0)
(-0.195615 0.365431 8.45016e-21)
(0.984758 -0.0520315 0)
(1.18159 -0.183648 -4.20715e-21)
(-0.190807 0.109933 -1.04519e-20)
(1.10327 -0.0519334 4.83121e-21)
(1.01581 0.306343 -5.35799e-21)
(0.589395 -0.535283 -8.83063e-20)
(1.05881 0.109975 -4.89806e-21)
(1.18811 -0.0970297 1.78836e-21)
(1.16787 0.239676 -2.9465e-20)
(1.17188 -0.230317 5.45385e-22)
(1.14516 -0.055236 2.36481e-21)
(0.328345 0.0728021 -8.47443e-20)
(0.0518242 0.154726 -6.22029e-21)
(1.23402 0.232247 4.59343e-21)
(1.05506 -0.0404859 0)
(0.794599 0.396629 3.1557e-22)
(1.46396 -0.419498 1.12812e-19)
(1.11509 -0.00927146 -8.61426e-20)
(1.4437 0.157689 5.4963e-20)
(1.05897 -0.0107106 1.1393e-20)
(1.02154 0.164377 2.65835e-20)
(1.05797 -0.0114933 0)
(1.14408 -0.0153315 0)
(1.08533 -0.158609 -5.49861e-21)
(1.08667 -0.0189761 -4.5014e-21)
(1.12011 -0.244862 -4.90367e-22)
(1.08974 0.0697363 -1.10464e-20)
(1.30438 0.0398716 -2.04154e-20)
(0.416395 0.0187056 0)
(0.995316 -0.0130408 2.47023e-20)
(1.22089 -0.0702499 0)
(1.10328 0.0718839 -7.73427e-21)
(1.13698 0.00822019 0)
(1.03711 -0.00794976 1.35982e-20)
(1.22899 0.0171961 3.18909e-21)
(0.953415 0.227971 0)
(0.0895217 -0.0238564 2.11513e-19)
(0.8881 -0.221332 -7.08761e-20)
(1.2072 0.119585 -1.5087e-20)
(-0.152777 0.053228 4.60017e-20)
(1.15635 0.0139231 -1.93039e-22)
(0.839247 0.29923 9.49012e-22)
(-0.12121 0.0584815 -4.79306e-20)
(-0.021912 -0.00947918 -2.76026e-20)
(1.02286 -0.0248655 0)
(-0.0371267 -0.0573935 0)
(1.08313 -0.0605074 0)
(0.114505 -0.118245 0)
(1.09464 -0.035942 0)
(0.213528 0.0451984 0)
(1.12582 0.0275563 0)
(1.06388 -0.151111 0)
(1.39932 0.0910737 2.41013e-21)
(0.623917 -0.304796 -2.77567e-20)
(-0.123716 0.260463 0)
(1.3013 -0.00642953 8.9674e-20)
(1.11471 0.0856896 7.38305e-21)
(1.07329 0.0347422 0)
(-0.037814 -0.0505872 0)
(1.15135 -0.00906545 -6.63052e-21)
(1.15459 -0.0359704 1.95138e-21)
(1.16044 0.383191 0)
(0.453614 -0.0161598 9.19012e-20)
(1.1204 0.0539762 2.12843e-21)
(0.291974 -0.0526169 -6.99821e-20)
(-0.0573541 0.0270281 -2.70094e-20)
(-0.037249 0.0489853 7.17553e-20)
(0.151529 -0.496939 1.79971e-22)
(0.898962 0.401046 -8.92928e-22)
(1.1471 0.0596743 -1.55241e-20)
(1.0234 -0.00959047 0)
(1.07259 -0.0528756 -1.95713e-20)
(1.22262 -0.0364807 6.92684e-21)
(-0.0173961 -0.0589508 1.19845e-19)
(0.975222 -0.0712244 -5.63007e-20)
(0.943628 0.341504 -4.18394e-22)
(1.18152 0.184732 5.4076e-22)
(0.120512 -0.0246194 4.82205e-20)
(0.311143 -0.0330371 -6.55223e-20)
(0.621903 0.0204581 -8.35232e-20)
(1.34986 0.141768 -2.98012e-21)
(-0.0541466 -0.051696 0)
(1.20895 0.34951 -4.87969e-21)
(0.881119 -0.146077 4.25428e-20)
(1.04592 -0.129711 -4.10251e-20)
(1.1755 0.0702738 0)
(1.52191 -0.151242 9.90951e-20)
(1.1624 0.0406504 -3.748e-21)
(-0.0287048 -0.0767185 -4.32645e-20)
(0.261542 0.10775 0)
(0.916319 0.0300833 -2.756e-21)
(1.11383 0.0140546 3.32653e-21)
(1.19818 -0.372616 2.25032e-20)
(1.15907 -0.0165855 3.6551e-21)
(1.11636 0.038843 0)
(1.26531 -0.137239 -2.03943e-20)
(-0.102541 0.0480793 -9.71338e-20)
(1.23832 0.0171476 8.61108e-21)
(1.09606 0.162272 -8.41035e-21)
(1.07245 0.0745129 1.26337e-20)
(-0.0510048 -0.100964 2.20574e-20)
(-0.0105573 0.0106701 -5.71042e-20)
(0.641918 0.228449 0)
(0.439051 -0.107052 0)
(1.14994 0.0937114 -2.56996e-20)
(1.05229 0.0609975 1.66976e-20)
(1.06862 0.0014068 0)
(0.69339 0.291485 4.66545e-20)
(0.712845 0.0869891 -9.19672e-21)
(1.09819 0.104455 0)
(1.05795 0.0623609 0)
(1.10457 -0.0471168 0)
(1.20643 -0.0943667 0)
(1.03068 0.0700969 4.2995e-21)
(-0.0423661 0.0391751 2.94936e-20)
(1.34833 0.0129169 4.00602e-21)
(1.48206 -0.0930413 -1.10063e-19)
(1.06736 -0.0289147 -7.61473e-21)
(0.171661 0.314387 0)
(0.975592 0.0383541 0)
(0.647175 -0.00983746 -1.6597e-21)
(0.531237 0.00887916 -5.17653e-20)
(0.0674448 0.0372902 4.25742e-20)
(0.954826 -0.000127896 2.12739e-21)
(0.81689 -0.284458 0)
(0.77686 -0.086494 0)
(1.01261 -0.134893 0)
(0.539067 0.512245 1.36571e-20)
(-0.00654175 -0.00277623 -2.92901e-20)
(1.03469 0.153935 -6.38735e-21)
(-0.0374172 -0.106434 8.501e-20)
(1.15095 -0.0666494 3.28204e-21)
(1.16408 0.305534 5.62002e-20)
(1.1085 -0.0682493 7.80954e-21)
(0.601756 0.121799 1.10742e-19)
(1.16036 0.287388 1.52496e-21)
(0.815446 0.254843 0)
(0.556722 0.270965 0)
(0.910394 0.166468 -2.0308e-21)
(-0.266693 0.2741 0)
(0.617514 0.0312469 4.58224e-21)
(0.638172 -0.439913 -4.37219e-21)
(0.234647 0.0496028 -1.01351e-19)
(1.13988 -0.212669 2.23416e-20)
(1.03153 0.357913 1.09507e-20)
(0.986124 0.0119641 0)
(1.21671 0.140593 -8.13158e-22)
(0.670521 0.0117683 0)
(1.02896 -0.00875237 -3.68658e-22)
(0.567618 0.00121823 0)
(0.719087 0.11931 0)
(0.988246 -0.0286985 -1.03683e-20)
(1.43328 0.168693 -8.68064e-21)
(1.10689 -0.082152 4.75686e-21)
(0.54516 -0.51496 0)
(1.13541 -0.137924 7.0616e-22)
(0.806771 0.371333 7.41048e-20)
(-0.042397 0.0165004 1.00911e-21)
(1.21544 -0.0725576 3.79354e-21)
(1.21802 0.0180077 -1.50042e-21)
(1.17166 -0.190219 9.2027e-22)
(0.81459 0.00976052 -1.02597e-20)
(0.0578028 0.0191042 3.22146e-20)
(-0.0237152 -0.0589912 -6.60015e-20)
(-0.180832 0.335053 0)
(-0.107535 0.408008 0)
(1.23676 -0.623226 4.08653e-20)
(1.13341 -0.0357091 -2.30753e-21)
(0.949379 -0.484687 -5.78462e-20)
(1.17555 0.312275 8.66885e-21)
(1.36667 0.195264 2.6425e-20)
(0.602472 0.419882 0)
(0.245073 0.410837 -1.20752e-19)
(0.596451 0.473218 0)
(0.0834061 0.224947 0)
(1.14807 -0.472138 0)
(-0.0482647 0.0279585 4.03373e-22)
(1.16373 -0.00231437 0)
(0.699102 -0.297146 -4.18151e-22)
(0.593641 0.688438 2.00102e-20)
(1.24264 -0.0649434 3.58848e-21)
(-0.0190237 -0.127385 -1.59923e-19)
(0.713079 -0.251291 -2.79383e-20)
(0.448532 0.144365 -1.22183e-20)
(1.20486 0.0782146 0)
(1.35928 0.356001 2.47681e-20)
(1.22063 0.564746 1.39734e-22)
(0.152929 -0.021562 -1.85996e-20)
(0.986153 0.141666 2.3501e-20)
(0.985641 -0.0341996 1.77258e-21)
(0.918845 -0.000179027 -7.3021e-22)
(0.0304958 -0.0340022 0)
(0.664646 -0.672784 -2.76398e-20)
(0.616981 0.190822 0)
(0.233295 0.0180253 0)
(-0.035393 0.0258422 0)
(0.0425509 -0.0715231 -6.22141e-20)
(1.23293 -0.0333483 -4.44339e-21)
(-0.0349711 0.0321093 0)
(-0.0181387 0.0183751 0)
(1.45488 0.118674 -5.15424e-20)
(-0.025358 -0.111472 7.17754e-20)
(0.114139 0.228566 -1.03745e-19)
(0.38088 0.0129055 0)
(0.175028 -0.29285 7.97573e-20)
(1.19924 -0.231756 0)
(1.00526 -0.282084 0)
(0.0658304 -0.0758882 1.53204e-19)
(1.1445 0.0230638 -3.8331e-22)
(1.11385 0.336389 3.22735e-20)
(0.255906 0.0285672 4.12898e-20)
(0.417318 -0.538625 -2.95867e-20)
(1.31227 0.0788692 0)
(1.21643 0.200522 1.83572e-20)
(1.21788 0.211903 -2.25495e-20)
(0.102464 0.0788799 -2.37418e-20)
(-0.083871 0.0193336 0)
(1.07062 -0.0494027 -1.82407e-20)
(1.10894 -0.212984 -1.11513e-20)
(0.595339 -0.420144 0)
(1.09945 -0.145506 -2.33357e-20)
(-0.0139374 0.39103 0)
(0.566399 0.042187 0)
(1.243 0.0144001 1.86166e-21)
(0.998107 0.0275928 6.81543e-22)
(1.07791 0.742481 -2.15718e-20)
(0.232344 -0.395233 1.24183e-19)
(1.12538 0.0549328 -6.81683e-22)
(1.20399 0.0680756 -4.43397e-21)
(-0.0352319 0.046358 2.73778e-20)
(0.786104 0.731156 3.43462e-20)
(1.38341 -0.331391 -1.62276e-20)
(-0.126529 0.354278 4.12892e-20)
(1.16207 -0.00122274 0)
(0.40058 0.200045 -7.79556e-21)
(0.945544 -0.659101 3.94377e-21)
(0.898668 0.640946 -1.23969e-20)
(0.683767 -0.00687385 -8.87451e-20)
(1.13166 -0.0179142 -1.73909e-20)
(1.076 -0.0746689 6.40279e-21)
(1.169 0.0370665 6.56358e-21)
(1.10493 0.11484 8.17905e-21)
(1.13643 -0.10484 0)
(0.90572 0.10958 1.16257e-20)
(0.884212 0.458845 0)
(1.37271 0.0373056 -2.87598e-22)
(1.16719 0.102167 5.4702e-21)
(0.747607 0.264159 0)
(0.514379 0.110194 9.66481e-20)
(0.893107 0.709212 -9.20828e-22)
(1.0667 0.281625 -2.47853e-20)
(1.03794 -0.00327748 1.24484e-20)
(0.415981 0.483494 0)
(1.33352 -0.454773 0)
(0.999738 -0.0325683 7.43789e-21)
(1.26201 0.50472 0)
(-0.0240099 0.0345382 -3.53256e-20)
(1.31346 -0.399402 -2.7133e-20)
(1.16456 0.507158 0)
(0.45647 0.206159 1.72675e-19)
(1.12084 0.31793 -1.05331e-19)
(0.833517 -0.653235 -2.18636e-20)
(1.17203 0.0179671 4.67289e-21)
(0.912012 0.153126 7.01394e-20)
(1.0813 0.162753 6.33222e-20)
(1.06988 0.702944 2.81296e-21)
(0.922847 -0.446817 5.87163e-20)
(1.433 0.178586 2.64628e-20)
(1.12453 -0.00564294 -2.62348e-21)
(0.0420966 -0.0725673 1.35557e-19)
(1.12018 -0.714861 4.55825e-20)
(0.896503 -0.736795 4.16902e-20)
(0.25895 -0.353342 0)
(0.975629 -0.153141 6.91791e-20)
(0.363093 0.297177 -4.48259e-19)
(-0.099665 0.359017 2.87642e-20)
(0.212277 0.0297283 1.70417e-20)
(0.798877 -0.045574 -1.02465e-19)
(1.07795 0.526602 0)
(0.979562 0.213122 8.78009e-20)
(1.08518 0.025494 5.40059e-21)
(0.912682 0.437182 -9.55361e-20)
(0.815082 -0.74979 -6.06191e-21)
(0.937447 0.0142637 -4.90915e-20)
(0.978021 0.485077 0)
(1.24117 -0.0984015 6.18599e-21)
(1.42138 -0.498916 1.85516e-20)
(1.24387 -0.322731 1.326e-20)
(-0.0810892 0.383169 3.81159e-20)
(0.19767 -0.0117659 -1.83142e-20)
(0.981217 -0.123414 -5.76225e-20)
(0.351682 0.518904 0)
(0.927666 0.00493909 3.91156e-20)
(1.15518 0.63677 6.67091e-20)
(-0.0652642 0.122977 2.0803e-19)
(-0.0568193 0.0551809 -2.28848e-20)
(-0.12252 -0.0454558 5.13909e-20)
(1.09847 0.0158766 -7.53749e-21)
(1.19904 -0.468743 0)
(1.09574 -0.743927 -2.7701e-20)
(0.700504 0.341096 0)
(0.12671 0.117361 -1.57349e-19)
(1.1026 0.051692 5.87908e-21)
(-0.0553887 -0.112291 -4.08081e-20)
(1.04866 0.0518897 -1.18242e-20)
(0.0975872 0.0127046 4.59201e-20)
(0.84058 0.128203 0)
(1.22954 0.0625491 1.99569e-20)
(0.0346619 0.0368244 -1.93501e-20)
(-0.15705 0.453103 -4.53083e-20)
(-0.282701 0.468638 0)
(0.144766 -0.00520735 0)
(1.22084 0.0038192 -7.52274e-21)
(0.47796 0.00236546 2.13325e-19)
(1.31104 -0.732574 -4.37342e-20)
(1.12794 -0.0976202 5.46167e-20)
(1.06005 0.2408 -3.62632e-20)
(0.380391 -0.581369 1.35133e-19)
(1.55172 0.284081 -2.68956e-20)
(0.170595 -0.0530541 5.35015e-20)
(0.208705 0.29448 2.00014e-19)
(0.208417 -0.0277848 -1.98017e-19)
(0.959332 -0.499688 -4.0829e-20)
(1.45141 0.389487 2.72897e-20)
(0.587837 -0.700045 4.47942e-20)
(1.10545 -0.0649168 -6.85937e-21)
(0.471972 0.236674 8.53695e-20)
(1.17826 0.293972 -4.12944e-20)
(0.661542 0.63407 -4.32306e-20)
(1.3977 -0.625774 0)
(1.41689 0.52246 2.95472e-20)
(1.07688 -0.532251 -1.38142e-20)
(1.38814 0.60811 -8.07611e-20)
(1.15449 -0.000757252 0)
(-0.0425656 0.047979 0)
(1.25123 0.729494 0)
(1.26497 -0.0832272 -3.18898e-21)
(0.755155 -0.314448 -2.02665e-19)
(0.483461 -0.0954597 0)
(-0.0427759 0.065733 -2.32021e-20)
(1.02976 -0.243578 9.06722e-20)
(-0.141017 0.317948 0)
(0.324516 0.011495 1.23722e-20)
(1.13311 0.015853 0)
(1.41267 0.279176 0)
(1.17136 0.0205558 -5.00437e-21)
(0.369404 -0.309516 0)
(1.00628 0.141351 4.27106e-20)
(1.30475 0.287547 0)
(-0.0647316 0.093885 1.75908e-21)
(0.824056 -0.408859 0)
(1.51603 0.340114 -4.06632e-20)
(1.22891 0.364551 6.83796e-21)
(0.841806 0.641822 -1.04564e-20)
(1.00091 0.149419 -9.68074e-20)
(0.968963 -0.205363 -4.42628e-20)
(1.45039 0.294173 2.39591e-20)
(0.986757 0.126682 0)
(0.568282 -0.0837907 0)
)
;

boundaryField
{
    FrontBack
    {
        type            empty;
    }
    Top
    {
        type            noSlip;
    }
    In
    {
        type            fixedValue;
        value           uniform (1 0 0);
    }
    Bottom
    {
        type            noSlip;
    }
    Out
    {
        type            zeroGradient;
    }
    circle
    {
        type            noSlip;
    }
}


// ************************************************************************* //
