/*--------------------------------*- C++ -*----------------------------------*\
| =========                 |                                                 |
| \\      /  F ield         | OpenFOAM: The Open Source CFD Toolbox           |
|  \\    /   O peration     | Version:  2412                                  |
|   \\  /    A nd           | Website:  www.openfoam.com                      |
|    \\/     M anipulation  |                                                 |
\*---------------------------------------------------------------------------*/
FoamFile
{
    version     2.0;
    format      ascii;
    arch        "LSB;label=32;scalar=64";
    class       volVectorField;
    location    "910.5";
    object      U;
}
// * * * * * * * * * * * * * * * * * * * * * * * * * * * * * * * * * * * * * //

dimensions      [0 1 -1 0 0 0 0];

internalField   nonuniform List<vector> 
808
(
(0.7562698395402006 -0.01752383810131597 0)
(1.031291405827215 -0.01249841309680275 0)
(1.115348993405951 0.0001902569286934096 -1.773547963174739e-20)
(1.085130568374955 0.01257189113146255 0)
(1.360551290158607 0.01402056939035495 -3.844364485289267e-19)
(1.038662624811137 -0.009404251750038468 -7.237525270515897e-20)
(1.014158213624111 -0.02029029798530077 -2.382085157541904e-20)
(1.078770250694694 -0.004718122571936439 8.955374854469856e-21)
(1.252110578397743 -0.02110297329436418 6.289354670193181e-20)
(1.084782371260927 0.008808451836520313 0)
(1.010345429885998 -0.01247910012222496 0)
(1.303329903544076 -0.05368198760498148 -3.488568692123777e-19)
(1.086187421636788 -0.001615300096791859 2.034621016466592e-20)
(0.675076610532867 0.006398494302522299 0)
(1.280072281223933 -0.1229523008479004 0)
(1.081907328254019 -9.693103043195996e-05 -3.831172364545123e-20)
(1.229646936213052 -0.153448461487806 -9.892646114414355e-20)
(1.074415203879289 -0.0002718397096051034 3.174418281048762e-20)
(0.9902783956234501 0.006434999279355213 0)
(1.026968747889197 0.0091802420819457 0)
(1.038709566455983 -0.01581017623432083 0)
(0.9875563960283216 0.04530404860524749 0)
(1.051038286893595 -0.006221608319934728 5.711753443401568e-20)
(1.053663986551528 0.008214984098704163 0)
(0.9337981104865346 0.1998431399630358 4.575446632109738e-19)
(1.16218742034439 -0.09101361016884538 0)
(1.184270106022673 -0.01962873224114436 1.553057881857568e-19)
(1.077185595337553 0.009566554538172269 5.224181964392652e-20)
(1.084103483033027 0.001820223090780722 5.093818190978136e-21)
(1.071993062019425 0.03098537334913812 0)
(1.075511108588887 0.002529650416051761 -1.179878877866275e-20)
(1.033425013041594 0.006253815359807523 -1.898637967661546e-19)
(1.059953415784215 0.01464881280954714 -2.380609159376507e-20)
(1.08882065039196 0.005301836649189369 -2.931747645939959e-20)
(1.120594464400847 0.03636506827016436 0)
(0.7549152251764866 -0.1200783935266961 -4.548125045611504e-19)
(0.9544314318877789 -0.005732935537481059 0)
(1.0689301668235 0.02242665240065696 0)
(1.06883294399834 0.007234494118209399 0)
(1.073697603278509 0.008657684447426371 -2.822457675055095e-20)
(1.092774855483575 0.02256616388913489 1.086992835383574e-19)
(1.149655220054319 0.002130473692383615 2.131344525929172e-19)
(1.095555815734136 -0.002448728851562358 0)
(1.01554680503264 -0.009370380602387006 0)
(1.127450929417519 -0.0972752460230065 -1.657847560474514e-19)
(1.044058641131551 -0.01180277082446781 -8.22755177476835e-20)
(1.058394840302861 0.02669253640836469 -2.759802458880435e-20)
(1.229106666383415 -0.1119502242322319 -5.590170042045018e-20)
(1.067656644448977 0.01219792618606302 -4.135037845322853e-20)
(1.255426821518362 0.0156139595780653 0)
(0.9972502816483545 -0.01826171754773218 2.128954720249285e-21)
(1.044608031702786 -0.002569904753116345 0)
(1.087296074274961 -0.002360800839547957 0)
(0.997609520194213 0.007689855727892824 -1.914144024381882e-20)
(1.25277082769819 0.03292902073111513 -2.368925062342316e-19)
(1.063712837924961 0.01838056471718476 5.965137734990458e-20)
(0.9882268244717484 0.01010513261402896 0)
(1.015191743612216 -0.01029285320613802 2.521091900384503e-20)
(1.106854468868906 -0.001619223839745088 -1.166772545287651e-19)
(1.061716074711204 0.03129010865364058 0)
(-0.06812521945348905 -0.02805600313906416 7.395249128717065e-20)
(1.153605402156754 -0.05212414726009228 -1.866317779921899e-19)
(1.001753546515398 -0.007852699180788918 -2.770619947340394e-20)
(1.185379805680467 0.06436289813039102 -1.203593617758466e-19)
(0.9974408502802232 -0.01068226552764011 3.045941797480815e-20)
(1.083821745325813 -0.005515790376355825 0)
(1.244270774723766 0.09207352364378979 0)
(0.6960302412245097 0.003171288722777414 -7.466217762137762e-20)
(0.9892986911122056 -0.01598424561836225 -3.172644600487253e-20)
(1.456647322264589 -0.01866810948076821 4.427749127694443e-19)
(1.060676958143675 0.00756249520942003 -6.636491588141157e-20)
(1.36425231350945 0.09508197947934403 2.871942149676233e-19)
(1.054833486756334 0.006731285058976987 -1.876801032468665e-22)
(1.081033276754088 -0.01416055943577916 -3.884805141066659e-22)
(1.162646619305637 -0.2348619183874578 0)
(1.022693189308642 -0.01468913401779433 0)
(1.017989710146379 0.01781436526159207 -3.042248348644607e-20)
(1.389578964643965 0.3499772797143896 4.216545480656696e-19)
(1.097201226151584 -0.0420789140654554 9.448665311567422e-20)
(1.046786779042165 0.2112152594850695 2.438907021827927e-19)
(1.12310272924067 -0.06330333756157044 1.171218469318512e-19)
(0.9221285911606147 0.005198461810176691 0)
(0.9754934639847174 0.01859015254775281 0)
(1.003994826441855 -0.0485073853640143 3.046202733415216e-21)
(1.010784740133703 -0.01356116139147533 7.589741171666287e-21)
(1.031258845575166 0.02600904014302718 1.368187683859639e-20)
(1.525500604263695 0.03519764191848568 3.235632798311878e-19)
(1.291828502965219 0.07053710727390818 5.584424784874745e-19)
(1.072725320462767 0.002910803128821975 -8.946183322341133e-20)
(1.196280507396863 -0.09943569561241089 0)
(1.033967624550057 0.001486678671508645 1.305284729315387e-19)
(1.163672946520231 0.02029748276745437 -3.15046498844123e-19)
(1.001520581566994 0.03250537896738472 0)
(0.9996301297448172 0.001976364466458085 0)
(1.044163360503013 -0.0003677913593090865 7.893594168102978e-20)
(1.21352363707255 0.1012375136526049 3.993597187122723e-19)
(1.011136950284764 0.006940450932148392 0)
(1.08758566335817 -0.0707707503374021 -1.06530341942007e-19)
(1.149905991566561 0.0350330500874587 0)
(1.211416799421008 0.08922961454761545 -1.881335597494229e-19)
(1.108190789714742 -0.02868455605250793 -7.723020582074846e-20)
(1.028027489790499 0.01168074008290146 0)
(1.085480263695151 -0.004654044728148158 0)
(1.020270682444439 0.02590822614531465 7.936697133748854e-20)
(1.075530465857081 0.05438696693300286 -9.198618962518139e-21)
(1.103624109475758 -0.004386402171292133 6.36054577104084e-20)
(1.104124705281732 -0.09546725346692772 1.541061642358793e-19)
(0.9600828669265895 -0.003476635644977594 0)
(1.066496660913691 0.03146229706765031 3.747184380472927e-20)
(1.167353587047801 -0.07636510357143625 2.280780060550194e-19)
(1.054082600511306 0.04565799369354745 -2.87095790556883e-20)
(1.022973514384812 0.06805375648181439 3.6719336674965e-20)
(1.09062618657884 0.0262585316996739 0)
(1.012884370448607 0.01448847221917125 0)
(1.028963565563578 0.009405214297999596 7.884570388161435e-20)
(0.9486095008085184 -0.03218953406614945 0)
(1.053346546112808 -0.005544993861067956 -7.563257559783454e-21)
(1.338768884686071 0.05731794325579082 -1.559810362622069e-19)
(1.07972292113951 -0.01333298719763345 2.609694811233994e-20)
(0.7442116415211095 -0.001785057305276218 0)
(0.5395475154673161 0.1586520463998104 -9.562142293892453e-20)
(0.7058259710049096 -0.002500891653482308 0)
(0.6991141079868387 0.01467549288051225 0)
(1.077838768786829 0.003462858072693879 -6.549848639104535e-22)
(0.9906389753860776 0.01443641334690938 0)
(1.281154223532601 0.122504276518959 2.530022275987722e-19)
(1.012230927445594 -0.02797191463499581 -7.519441105286453e-21)
(1.038810114181001 0.01843666125908939 1.266288438293732e-21)
(1.058381313751555 -0.01237332897906812 0)
(1.12635460681145 -0.009257368220320103 -5.069840092953504e-20)
(1.259142517494606 0.1239508628494504 -2.162579365302657e-19)
(1.088779918351692 -0.01094520160282153 -8.510230662672837e-20)
(1.070866485736271 0.02505019336364167 -1.077416826822699e-19)
(1.041074856825868 0.04676729463431089 7.257032191658679e-20)
(1.022324647568799 -0.003533473249275572 -3.454919774295667e-20)
(1.061394979707937 0.02367546518481819 5.825541924303998e-21)
(1.136965913343065 -0.001378651017812817 1.062806525975067e-20)
(1.041037289484955 -0.01251465312712586 -4.671977847234214e-22)
(1.087724279912847 0.03482722960786669 0)
(1.028774995586725 0.01336128375779429 0)
(0.7909983248267463 -0.07398578012840704 -1.846876416630176e-19)
(1.030277157761254 -0.002138615628480251 -6.644105354639314e-20)
(1.137676014185283 0.002234963309392403 -1.302819831187691e-20)
(0.7035480663571936 0.006546256970120228 7.237157546685434e-20)
(1.176218728580357 0.01893914292374969 -1.95138096812336e-19)
(1.128595297995054 -0.00404319469346776 5.790268240742931e-21)
(1.12905240524323 -0.01010821786198578 3.395707467288208e-20)
(1.00093730148477 -0.002988590731351435 -6.938068742376084e-20)
(1.094317902475744 -0.059758304305061 0)
(0.987202064218507 -0.0001230665949606062 0)
(1.05798525995293 0.007045363614666517 0)
(1.006207189709541 0.1897383029283638 -2.389129572192811e-19)
(0.7795266662406575 0.01242676704240341 0)
(0.8570170329496867 0.1035238089745746 -8.262635134058501e-20)
(0.1040136504114845 0.03539673389066765 -3.041778042840535e-19)
(1.173066880009973 -0.03239937837498509 -2.268325739564852e-20)
(0.6712457525995046 -0.007370244758892 2.444286325724374e-20)
(1.163302896114309 -0.1060799051774714 7.007646475799522e-20)
(1.129011427985579 -0.0005885532576384653 -6.13271907580376e-21)
(1.154726333005438 -0.05100330869782466 2.204258016820318e-20)
(0.0756495405621315 -0.1893752938627794 0)
(0.2649415649919082 0.06891056221575696 0)
(1.254441747781588 0.1054069577082264 1.860461569096504e-19)
(1.021577564666493 0.0198851079061548 0)
(0.7375493461620364 -0.006320763805079841 0)
(1.074843912493309 -0.01171589698016806 2.708275541016422e-20)
(0.9752400283357545 0.002859078677553408 0)
(1.28763700177295 0.1207065851093519 -1.449755108230101e-19)
(1.057392805727717 0.01111178668772152 0)
(0.9923939487381039 -0.008172259831451608 0)
(1.06533201445863 0.008033554735568299 0)
(1.00624507903478 0.02089441744262287 2.062562587415981e-20)
(0.9230202017385875 0.003347276807390668 1.24670391905643e-20)
(1.175101980651981 -0.198842934809942 0)
(1.004982654804332 -0.005230980914535251 7.904269827745607e-20)
(1.059235208675643 0.006148055754182106 0)
(0.7745433101769169 -0.003353439880102507 0)
(1.215713774808503 0.02619658474593191 1.630360868081007e-20)
(0.7051331339579481 0.001336812771277512 0)
(1.431374934045867 0.08626668031701896 -5.180752115885944e-20)
(0.9935706514545531 -0.005866454703371563 1.657044415151223e-20)
(1.275923292437175 -0.003803460059905705 -2.979302318138897e-19)
(1.060056817542294 0.008819105935201061 1.346155651690539e-19)
(1.000897507152285 -0.01357560901075709 0)
(1.213898588644821 -0.1546595692647867 2.035280322492843e-19)
(0.7331679788394452 0.01378973379232531 0)
(1.09797079079344 -0.005050848047065464 0)
(1.154496797967696 0.06404467129905754 1.930278301525122e-20)
(1.006408977622286 -0.007200660784360869 -3.02933603223168e-20)
(1.121999612093748 0.04940854108574342 -1.720188355275357e-19)
(0.1578408932386439 -0.08925390394432682 0)
(1.073846756529429 0.03709058057296195 0)
(0.6615035892327896 -0.002885119230713022 -5.685993449010302e-22)
(1.012064367819417 -0.01972849497481179 9.211780558788596e-20)
(1.061831676085827 0.0007497357960645999 0)
(1.087733189529193 -0.1385140213676047 3.792311338579257e-19)
(1.002476292704958 -0.006158225826222416 -3.370947886237935e-21)
(1.00204577357434 -0.004093523418508348 1.306770071976929e-21)
(1.094029290347843 -0.009195920831384019 0)
(1.020798922486946 0.02015773311848846 -6.525428373409386e-20)
(1.106826082963966 -0.001677814172132468 6.425935127528299e-22)
(1.073825809502755 -0.0106900752938219 6.561501992156632e-20)
(1.085677142546792 0.02229113433870051 0)
(1.324779091876758 0.1600294428168822 0)
(1.002080792553617 0.0004841860175398133 4.410565895947294e-20)
(1.323075829837734 -0.1321563082399038 1.581572000492783e-19)
(0.01742128734788768 -0.1383879587104178 -2.39505723107751e-19)
(1.071213347892702 -0.005503406823856265 0)
(1.114695240145037 0.0004463717252287759 1.20988276942509e-20)
(0.7269299009515796 0.01785448042257649 0)
(1.059806515156857 0.004947502711438838 0)
(0.8643151577659584 0.1636283876230585 4.679884459593903e-19)
(1.277783713891268 0.1177642827571661 1.821183776399617e-19)
(0.6541156002587131 -0.003116375337818105 -6.404213535823246e-20)
(1.041615992576093 -0.001525052244833207 -2.673739975777291e-21)
(1.054960426153834 -0.0002429367317424835 6.522050170329494e-20)
(1.359117175810467 0.1201916055099276 6.638007145767025e-19)
(1.337980610958404 0.2528136647067663 0)
(1.05734478574674 0.007247366971134765 0)
(0.9953411237651106 -0.005678727914776614 1.413836090722327e-20)
(0.9946837623873275 -0.006832138370286695 1.497929222613639e-21)
(1.385991668465538 0.2000103830557044 4.306537711201064e-19)
(0.6817231571183668 0.000638940119601772 9.882460265235979e-20)
(1.005690072946477 -0.00206577949931973 -5.982685030032498e-20)
(1.097981911861943 0.01309698663971195 2.546675090164182e-20)
(0.6694599503347713 0.004988322951293203 0)
(1.06608153092071 -0.01203333514565378 0)
(0.9902075679586333 0.1242271929866503 -1.290402641107323e-19)
(1.081930634628218 0.004565375701167508 -2.516525413623074e-20)
(0.9819229636436446 -3.459283687405481e-06 3.29719007837141e-20)
(0.991210913581169 0.005994511350415768 0)
(0.6382052780374029 -0.001155959687408586 0)
(0.976849025176768 -0.001302500566137702 0)
(0.6419611115384036 -0.001455296475867141 2.708205954464318e-21)
(1.087259939561097 -0.0573801156610295 1.21225962282415e-19)
(1.109821366670905 -0.003333906985510431 1.206323000754312e-21)
(0.9580816448122963 -0.0008990503907794099 3.899696054810512e-20)
(1.016290685682681 0.01081887301920924 1.684112336671988e-20)
(1.063769273505087 0.01012170198677461 -2.160434050037719e-21)
(0.6348216555374079 0.008847168294719489 -3.633910601612364e-20)
(1.002704538330825 0.01281089301703108 -6.997445887184321e-22)
(1.036386091531182 0.01246927546794771 5.012831145323847e-21)
(0.9874371260923779 -0.004881598702716357 0)
(0.6100813796704541 -0.0004616885313225575 0)
(1.068895627210184 0.02270703609934495 0)
(1.015718619946408 -0.01595100509694193 1.053311595337088e-20)
(1.021698689543056 -0.001788165001092533 0)
(0.9927776910175289 0.01493214851219435 -9.372151022985776e-21)
(1.011527993441614 0.006961178756179947 0)
(1.131107572354816 -0.004341720560449002 -1.269611095902973e-20)
(0.0322067165579526 -0.1375732177038165 -4.476038993740382e-20)
(1.035479973708861 -0.01577358565151581 -7.386156505988198e-22)
(1.045889883990017 0.009227763775743207 0)
(1.087812418562823 0.06671051585572368 8.386850475310466e-20)
(0.9693382869873529 -0.0008138634382759058 3.117439949042654e-20)
(1.020428007776382 0.01714109964706604 -2.28619254314774e-20)
(1.006532958220318 0.0009592491375000862 2.425685197470761e-20)
(1.040339449328908 -0.005294343917457081 0)
(0.6409872885767921 -0.004041546110969917 0)
(1.026006337999616 0.02447679245097169 -7.752046472711312e-20)
(1.080570072176947 0.005750312625508647 4.955228532715843e-20)
(1.012316377401667 0.003737100968134159 0)
(0.9817381294031334 -0.001634382057281169 -1.907772584778688e-21)
(0.8668477874327217 0.02095237150970417 -1.457763923886951e-20)
(1.013947460289315 0.00305553229521164 -9.913695061872888e-21)
(1.026329837127131 -0.001255179238200031 1.781367168281772e-20)
(0.9781684741352737 -0.001469758752598174 0)
(1.006247228715292 0.008500425113574805 3.31077063519967e-20)
(1.10712448714314 -0.00511061910322242 0)
(0.9321472001695517 0.005002935892921669 -3.449040605923709e-20)
(0.9575507405483348 0.006989970095560125 0)
(0.905969980778544 0.2062396867082882 5.069809058001671e-20)
(1.011156314577506 0.06751848960819752 0)
(0.9911313683131806 0.003852511911260301 -2.313751569601842e-20)
(1.053277003828506 -0.05041383333140918 -2.732669604994788e-20)
(0.9925158994203703 -0.001416240109685617 3.359437128251163e-20)
(1.008891347748689 0.002237441537557156 0)
(0.9802024229064324 -0.0006587618180701377 -3.128938348603388e-20)
(1.175556604066395 0.09491874572249814 -3.305823817031908e-19)
(1.067715162653223 -0.2631045778822894 0)
(0.9948907031960629 0.001803990758757797 -2.20893336179358e-20)
(0.980638164418573 0.009376140603139856 4.84803924595846e-21)
(0.958039546420675 -0.0008425599847416245 1.066706480882591e-21)
(0.7460322451798161 -0.001098648004559361 0)
(1.112861848220179 -0.0733253849625039 0)
(1.007863051359763 9.071355494406825e-05 -2.151481351862935e-20)
(0.8993122732465246 -0.002272021880150626 -1.077603201552214e-20)
(0.8470548714013288 0.01162716780267934 5.852135008203314e-21)
(1.010042966337689 0.003965165846788689 0)
(0.9554363591251529 0.00550949987704542 1.604392065197185e-20)
(1.005814260510495 -0.0002090836305913674 -2.268823308193351e-20)
(1.024188728787774 0.002224417916272775 -2.509604425684482e-20)
(1.111409974840316 -0.006161066848450289 -4.89646819730837e-21)
(1.114222865747719 -0.00459680876861064 0)
(1.010699112350609 0.004586080532734381 0)
(1.025494247859704 -0.000202075659590926 0)
(0.9506433834361587 0.01046171138185053 -2.146821583514951e-20)
(1.01788523611529 0.01315265494762888 5.529653332811389e-20)
(1.082270123871525 0.00659281818332859 -2.288395799838397e-20)
(1.036753353902289 0.006534680252818502 0)
(1.107467481349316 -0.005619812084294421 1.808554689522352e-21)
(0.995955464402383 0.001237251874699085 -2.217785056987729e-20)
(0.980829708315418 0.002666442155578642 0)
(1.011124990498151 0.00188891693647062 4.693642785910696e-20)
(1.362521906161833 -0.3135217221130827 -1.122361577343808e-18)
(1.121352495437312 -0.04594734729227085 -1.102947989432297e-19)
(0.97568960055106 0.01080209038994978 4.834779854972171e-20)
(0.7813573402883301 0.02461713035956934 -3.535958258598958e-20)
(1.221049467893829 0.04916594796042589 0)
(1.214646376326041 -0.1369244737500984 -1.473130460175231e-19)
(1.083464056485578 0.002838160264440864 0)
(1.009585703050957 0.001259859493905859 2.232943838648546e-20)
(-0.1804933173148713 -0.06809157074217249 0)
(0.9939716702118235 -0.004672936145862576 0)
(1.012353517628256 -0.02308511266287577 4.057278100859482e-20)
(0.7061497400561187 -0.01941181572246285 0)
(1.096802710464033 -0.01504523181037991 2.329571169253924e-21)
(1.040298298273099 0.0008781923960202682 1.441221152945495e-20)
(0.633131025148553 0.004182210728873495 0)
(1.445014858614941 -0.123148955696194 0)
(0.9863965311390268 0.002116493028945596 -1.076981308412783e-20)
(1.069613547519128 -0.01496486660516681 0)
(1.038070111537301 0.0005706728179625984 2.105988637424753e-20)
(1.08783099549668 -0.003108231011610184 0)
(1.009373491663314 -0.002706287315683494 -1.226903340902254e-21)
(1.006246884720986 0.003175464013290202 0)
(1.012682316335418 -0.006957104100041872 -1.624972585941915e-22)
(1.003357785837816 -0.02007661810125817 0)
(1.034013446943544 0.000241653999079288 1.857652844080693e-20)
(-0.2140293948930956 0.05317867462072063 2.75420969654482e-19)
(0.8220280050074651 0.0405209240354282 5.835409784169177e-20)
(1.005241469908685 0.002377512646494092 0)
(1.125001866811829 0.02224485392442371 -1.317166355390004e-20)
(1.111214207725301 0.01309820095481951 9.639797845534043e-21)
(1.05382293491824 -0.01302161774850431 -1.308894813376745e-19)
(0.9987768686115444 0.01038847417736628 1.474692284905845e-22)
(1.084065811095573 -0.0008502685583009339 0)
(1.186421362802458 0.04967238992460331 0)
(0.8350951277091837 -0.07374834121825373 4.605364732405894e-19)
(1.09818440070505 -0.01486134848631449 0)
(1.032731859657457 0.007997385704665991 -7.616577749964054e-21)
(1.042781294902727 0.005362397424688495 5.846809333848766e-21)
(1.050453739025481 -0.06016082541443429 -7.513563591922041e-21)
(1.14014674368044 -0.002486111096248478 1.704610402464879e-19)
(1.076760836275604 -9.06307948449999e-05 0)
(0.9951046448389772 0.001695449111679169 0)
(0.9977233638187309 -0.0241502560415439 -2.321002515203449e-21)
(0.9916262982589598 0.002943161905768439 0)
(1.028894173661117 -0.03723451720069224 6.454413210411284e-20)
(1.294347994827932 -0.09787544406619429 0)
(1.045950212196082 -0.01184901123804171 -1.300510453204736e-21)
(0.9861703709393987 0.01680314815373475 -8.888474690174766e-20)
(1.035506504806478 0.04219982367488589 -2.356512957751157e-21)
(-0.09159296235276829 0.1891787561953974 -1.684736743222839e-19)
(-0.06382936559456126 -0.2805377346033181 -1.368714338508987e-19)
(0.8568962933157201 0.1129757293957237 0)
(0.2808795714098 -0.005010882857461447 -2.926307944232546e-19)
(1.013547732467789 -0.01891293591680047 -1.242478672772961e-20)
(1.064012273822058 0.00263341881021915 -2.08485595150488e-20)
(0.9934903518343192 -0.02052967556712472 2.94496281305774e-20)
(1.025468038672054 -0.02663342702142118 2.563007245761097e-21)
(1.00842534444703 -0.03062302566718312 -6.642574849517841e-20)
(0.9886943029721742 0.004912647554908168 -3.484964021852705e-20)
(0.9938021209949535 0.004305180072349278 0)
(1.024519505516307 -0.001807245465687103 -3.567244389945908e-21)
(1.930907453378764 -0.1556809840747282 1.068227878102664e-18)
(1.053191117196668 -0.01914357080057387 0)
(0.9963382978703681 0.007180235563195869 1.50356794241311e-20)
(1.003055609877018 -0.0003430808689583317 4.047414016815249e-20)
(1.177896019695373 0.1421771636312029 0)
(1.006965892888653 -0.0185950240294825 -1.075934434069824e-21)
(0.9522817825098137 -0.0004516136727855704 0)
(1.037849844680906 0.04171679219245544 0)
(1.292303240359207 0.154632360343492 2.170380024030699e-19)
(1.079799315597625 -0.00946873346756583 2.287470268892192e-20)
(1.017520990832593 0.03230380846709185 4.591344589177719e-20)
(1.079055420945215 -0.004434232965012775 -2.205477301428551e-20)
(1.056554502701043 -0.01676696014739247 1.482284112708824e-21)
(-0.3848398089911088 -0.03470071996687348 0)
(0.9982506313029679 0.01315483938397929 0)
(0.1224218801169709 0.05827347747182592 -8.92015338943314e-20)
(1.005594380728894 0.0223265586826257 -4.057207852082067e-20)
(0.9995233739905381 -0.009499143568424928 0)
(1.000261651284476 0.005665036199774146 -4.99232810258795e-21)
(1.081647433428431 -0.04209690289178876 0)
(0.9955408653531738 -0.01883755319361004 -7.893198384923362e-21)
(1.090990160477865 -0.04634857055511154 0)
(1.440310034753813 0.1734185281216704 0)
(1.054245081494673 -0.01166849184008577 0)
(0.9917614295792654 -0.02303160021612254 -3.960365981401082e-20)
(0.9805274138289158 -0.0243018190527588 -2.515696057167592e-21)
(1.020234729579937 -0.01896335875939579 -1.954204584820031e-20)
(0.9973333790823874 0.01727701006594492 -5.489463291898461e-20)
(0.995321822102437 0.009503443166892566 -1.465330015246969e-20)
(0.9943581507342001 -0.02621974703849228 0)
(1.002193493775823 0.02565645314319393 1.914997395442026e-20)
(1.035616736628058 -0.0294495461701054 0)
(1.110395727148365 -0.03631394379672851 2.553029421984411e-19)
(0.9951489389976372 0.01712570806419168 4.549046494862721e-20)
(0.615102031542036 -0.008677274897391845 0)
(1.14958551654575 0.1391516851827596 -2.36539600370793e-21)
(0.8325256128833349 -0.09713122501700683 0)
(1.139247231409505 0.07274769235377745 -2.762627035404248e-19)
(1.313251983487853 -0.3874053419352398 1.279561708650682e-19)
(1.076334713322671 0.06464595599776669 -1.324526604359332e-20)
(1.010058283100036 -0.02938599531572687 0)
(0.9547679397550755 -0.2138114404073523 0)
(0.526316526080332 0.1587928812861031 0)
(1.012135818474936 0.01313489624054116 1.040271016402544e-21)
(0.7098083081820018 -0.01376686508468571 0)
(0.9980062605133423 0.01747782634658173 3.492925993423098e-20)
(1.021762001729416 -0.0004813747904711046 -2.679242830288353e-20)
(1.079173460449581 -0.008023437848760523 2.705950383624627e-21)
(1.044500427968008 -0.009323446175382917 2.955024613669332e-20)
(1.042884739809417 0.01084496598122643 0)
(1.053957986156433 0.02772138289976862 -9.879327017979608e-21)
(1.051621482471158 0.03475900488053693 -1.786684354709782e-20)
(0.9830777005678285 -0.02164112313464715 0)
(0.6249151581605149 0.005139410397021867 9.182199814783265e-20)
(0.8941771953121447 -0.005909957342962372 -8.857296765426475e-20)
(0.9093510697584374 0.005281023427994983 1.443653085443636e-20)
(0.6296079143172503 -0.00639542813070296 1.408860272257031e-20)
(0.9788928783012307 -0.0002220881728884029 2.59284676886841e-20)
(1.004434977054956 -0.01762580356059426 -3.378068981170843e-20)
(0.9677576443136774 -0.01134364102024661 -3.181218254305601e-20)
(1.085557645116141 0.001447511713848057 0)
(1.018713216626041 0.004697439517763195 1.086470635833009e-20)
(1.13334062508659 0.04823766493516639 1.333312307094724e-19)
(1.033943254975287 0.04254121255635924 0)
(1.022152854507935 0.002628137338953822 0)
(1.580535315431139 -0.1671435086920392 4.370821622296255e-19)
(1.040047188115073 -0.02654807025125333 0)
(1.022063855554386 0.007645770032962159 -3.628070430211809e-20)
(1.087963380506369 -0.003780033533413679 0)
(0.4851259970175986 -0.01867899139325884 0)
(-0.0415664817594975 0.006157994435998729 0)
(0.9900427095436942 -0.02360338113074178 1.23631293087568e-20)
(1.299250928239738 -0.09594304387314176 3.691240340161581e-19)
(1.033555315220231 0.03952987194874 0)
(1.022617714958425 0.003370219047011404 -2.210689559995238e-20)
(0.9433893751378515 -0.1657116710416914 -1.595531340857456e-21)
(1.252756306971001 0.07402931851879559 0)
(0.5992218488877769 0.7327500066489626 0)
(1.305761373322921 0.1459861783334286 1.076404070975215e-19)
(1.673478668790391 -0.02558409085258004 0)
(1.071260106010773 0.1233869989609408 0)
(0.7296215866386259 0.0006749887988156235 2.943722459868914e-21)
(1.050876378237471 0.04932640291509597 0)
(0.7160340898991456 0.09866250025084364 1.260938195045688e-19)
(0.9968173417450069 -0.01630343851895405 3.582593227843155e-19)
(1.034475807203931 -0.03868375584099554 2.642524644099542e-20)
(-0.3704428083930856 -0.03466123605830482 0)
(1.071596989556408 -0.01617100549862639 0)
(1.094452181581228 -0.01687057896705016 0)
(0.6470896161366594 -0.5001364612098709 -2.50568902973673e-19)
(0.992302157498111 -0.0002501156379886274 0)
(1.091743334124128 -0.02210906988305101 5.82727483707563e-22)
(1.189278212842712 0.1211026920455533 -2.030408229157979e-19)
(1.092527252476532 -0.03722253391546523 0)
(1.004935835778066 -0.02098712682876386 0)
(0.8096527646617071 -0.195111268038244 -1.734421537515536e-19)
(0.9011750615963888 -0.1415334842168337 1.510052738243557e-19)
(1.030076459671028 0.009978653840101558 -2.132957930439939e-20)
(1.023126439707734 -0.009274208827322657 -4.366938283410461e-20)
(0.8671488838588969 0.0005157506321114474 -3.544374650093397e-22)
(1.502260103946194 -0.1935935275217848 0)
(1.301707312036813 0.1137393709581716 3.147758789821796e-20)
(1.243923072819079 -0.07936604324048631 -3.053240890688085e-21)
(1.095915555682807 -0.01875883661943493 -3.915984119475891e-20)
(1.043862834803726 -0.01667093107931067 2.796529772312731e-20)
(1.09280173001374 -0.03919129129515368 9.395166367771603e-20)
(1.032715911613766 0.01973422882787557 0)
(1.047594810162042 -0.03158137519787149 0)
(1.115853602174723 -0.00904949898605905 0)
(1.09335274973406 -0.02626438920558699 0)
(0.9979715372833093 0.01078601008593089 0)
(1.152735934610535 0.07516474260182891 9.347429040235369e-20)
(1.345560350662949 -0.1566538267695015 0)
(1.042398126071624 -0.02208567166225596 -2.10569527692583e-22)
(1.053036186696627 0.0542667144079157 0)
(1.009916776904968 0.01443935458215916 -3.872789308417246e-20)
(1.033546805705796 -0.008208802885757633 9.26135086807878e-21)
(1.088995382307098 0.01330470615427563 -3.194326967179838e-20)
(1.084386617213127 -0.02981961289693584 0)
(1.076747658586252 -0.005794119855965631 0)
(1.10264296947903 0.09335009260606686 -1.408387661908286e-18)
(0.934908287885739 -0.148106640307691 -7.102477492493286e-20)
(1.178304398597904 0.106213123525751 1.109125678706656e-19)
(-0.4624199166724956 -0.006857068912386619 -2.922601319711351e-19)
(1.019523507064414 0.02936806337840421 -8.660312484984061e-20)
(1.006247620200243 -0.00626106101084411 0)
(-0.2731621091783973 0.02967004686189597 3.554932808792548e-19)
(-0.05105316043942271 0.3400730318932704 7.384378729509513e-21)
(0.9952219352228086 -0.006330047764954194 9.169706882354455e-20)
(0.1875932292893483 -0.04040297913029291 1.383551001899611e-19)
(1.097321092928811 0.08790117877465108 1.505803154355653e-20)
(0.0935389679153904 -0.1067195290597982 -5.379966810843986e-20)
(1.10789460718684 0.003156085379926071 0)
(1.096335543886338 0.2531600967527138 0)
(1.021601441244998 0.0220159184885459 -1.696764991366677e-20)
(1.070903435503662 0.06092979249806908 0)
(1.024403562311132 0.02661800123074168 -9.147358825598453e-21)
(1.260307866220788 -0.5474917840845633 7.994546550850825e-19)
(-0.0830153446593231 -0.2096820087867974 2.125594374662351e-19)
(1.295499782973559 0.1130952170986366 -6.178381821708501e-19)
(1.124737888939059 0.0001723685557163763 0)
(1.13528521981119 0.1012390726780442 0)
(0.5232345734046843 0.07962120777833166 2.489054882471332e-19)
(1.022925789960876 -0.02106921969295928 9.4846676242596e-20)
(1.005272757003646 -0.02366283106183134 0)
(1.213253695131911 0.2717019381236159 -9.761755433203589e-20)
(1.250479538684197 0.1321604519390425 -1.536332599177424e-19)
(1.026526119341796 0.002660854821027306 1.570247231925164e-20)
(1.29656981637063 -0.08472646655545188 -4.972421624991695e-19)
(0.3047148271058547 -0.01999622191375108 2.732715807228454e-19)
(0.8331531786477586 -0.1489476142035312 6.819072185364063e-19)
(1.05874470849833 0.07045365741401147 1.074144254772057e-19)
(1.041090502110948 -0.007104229318718291 1.325577954574653e-21)
(1.000996922776321 0.02003087287163349 2.900776415201045e-20)