/*--------------------------------*- C++ -*----------------------------------*\
| =========                 |                                                 |
| \\      /  F ield         | OpenFOAM: The Open Source CFD Toolbox           |
|  \\    /   O peration     | Version:  2412                                  |
|   \\  /    A nd           | Website:  www.openfoam.com                      |
|    \\/     M anipulation  |                                                 |
\*---------------------------------------------------------------------------*/
FoamFile
{
    version     2.0;
    format      ascii;
    arch        "LSB;label=32;scalar=64";
    class       volVectorField;
    location    "181";
    object      U;
}
// * * * * * * * * * * * * * * * * * * * * * * * * * * * * * * * * * * * * * //

dimensions      [0 1 -1 0 0 0 0];

internalField   nonuniform List<vector> 
808
(
(0.7562575464567598 -0.01750016957411749 0)
(1.031515494256098 -0.01262385088543722 0)
(1.11176489232251 -0.006509252274250181 -1.74834818191888e-20)
(1.085119399777338 0.01260472370905248 0)
(1.364602754665212 0.01478571198247877 -3.872630096884156e-19)
(1.038742215467031 -0.009359063858100152 -7.25082834676294e-20)
(1.01400235449351 -0.02111790368095863 -2.385651165869857e-20)
(1.079076809193938 -0.005418600064470962 9.042309699047617e-21)
(1.254877583503428 -0.02006443352657893 6.322855441826175e-20)
(1.085027275010696 0.01034070713661192 0)
(1.010290072688494 -0.007656427098325686 0)
(1.306608823040885 -0.05320701963333352 -3.52200752950867e-19)
(1.086214282570237 -0.001993184091029632 2.040833010463803e-20)
(0.675183716558072 0.006370824567238246 0)
(1.27959897489449 -0.1139275757960915 0)
(1.081471273790618 -0.0002328140600930587 -3.849656146059324e-20)
(1.226719249962906 -0.1431603558041723 -9.543725768389941e-20)
(1.07394059448395 -0.0001023481255261721 3.193249647858271e-20)
(0.9911622166925366 0.003632028695120861 0)
(1.02632216837879 0.009663438186485337 0)
(1.034130980961973 -0.01028299585721237 0)
(0.9875066438647955 0.04456901723030261 0)
(1.051128994202955 -0.005920376374417963 5.639840119066387e-20)
(1.053573715347116 0.009281023660951604 0)
(0.9326861804588066 0.1971008670173383 4.597658805154384e-19)
(1.165343700696318 -0.08443900016410874 0)
(1.186182824308613 -0.01863055340342289 1.570581681922696e-19)
(1.077401839227856 0.009524936585476507 5.209156023582786e-20)
(1.083688709548449 0.002322351284879085 5.083948792102166e-21)
(1.071789129790471 0.03088076304304025 0)
(1.075343490858752 0.002806389207036273 -1.177253982584882e-20)
(1.033024466198739 0.006862778070769611 -1.930123874428056e-19)
(1.059974321743318 0.01470232486811341 -2.367807435355582e-20)
(1.089004395340549 0.005579545927038519 -2.934403481014422e-20)
(1.120789147228047 0.03930134359202139 0)
(0.7550984597486482 -0.123938040447829 -4.540342824481253e-19)
(0.954787856487503 -0.00587446022285833 0)
(1.068807814561525 0.02225447237376447 0)
(1.068805834449818 0.007310343656648455 0)
(1.073710492776038 0.008929869651574805 -2.831137717112918e-20)
(1.092575034921456 0.02468689031512086 1.103601288955011e-19)
(1.151039775997991 0.003710174282493874 2.162318565952978e-19)
(1.096016497643422 -0.002269883175351957 0)
(1.015495070908977 -0.009068500475489219 0)
(1.133675701348098 -0.09374172136283641 -1.628071370905035e-19)
(1.044096071098826 -0.01159204034763646 -8.111492851248799e-20)
(1.058132725464966 0.02662071039340276 -2.751019635865416e-20)
(1.231675083396186 -0.1122169964619568 -5.595945801701915e-20)
(1.067575956544822 0.01207987161300607 -4.183584847285935e-20)
(1.258448783268899 0.01753820429983506 0)
(0.9964085951224868 -0.01913057161863004 2.16496117845557e-21)
(1.044700936743932 -0.001856287528440019 0)
(1.087623151282604 -0.002069420535866662 0)
(0.9994702231880325 0.007004596194804586 -1.839784693623934e-20)
(1.250362496833451 0.03428297839517666 -2.346799882324974e-19)
(1.063532074033057 0.01809068150714812 6.035154963642511e-20)
(0.9921627785554277 0.01004119793268299 0)
(1.019385824561664 -0.006846276045603865 2.412002528171936e-20)
(1.107555133081114 -0.0002364121316679123 -1.184593693496713e-19)
(1.061101919046465 0.03104683850017751 0)
(-0.08808106167663454 0.01031027567721306 7.474188725096004e-20)
(1.155202619281619 -0.0517524122654265 -1.893181671042201e-19)
(1.007061992863204 -0.006287473579281804 -2.649194042059405e-20)
(1.186443021238744 0.06997849978402235 -1.228160371382247e-19)
(0.9978470191831863 -0.009285441916116792 3.054306255474288e-20)
(1.084330251606133 -0.005484202095761173 0)
(1.24856024240712 0.09805665645333331 0)
(0.6960784986487455 0.00318863274736891 -7.455191199613016e-20)
(0.988944993403221 -0.01345202273599238 -3.182408106085915e-20)
(1.461126540408606 -0.01840351018609013 4.459940218537207e-19)
(1.060470853642139 0.007608188613508445 -6.684294922889391e-20)
(1.368981811429527 0.09636319512928823 2.886895376571669e-19)
(1.054779059328463 0.00688524143065295 -1.933162722587184e-22)
(1.081134752139377 -0.01384800363294002 -3.548341873408106e-22)
(1.165311130457419 -0.2364942994152202 0)
(1.021710692873531 -0.014819224608053 0)
(1.016952891503773 0.01784563567038077 -3.081028545078857e-20)
(1.385224800141937 0.3484727871398524 4.174298148479814e-19)
(1.097250423366835 -0.04245117488249225 9.458821612891724e-20)
(1.045387978882204 0.2092603014892245 2.501499695123649e-19)
(1.125105714552294 -0.06018231374222952 1.16052929544151e-19)
(0.9219448963751857 0.005133691246725667 0)
(0.9753504165700585 0.01850803637962455 0)
(1.004103157816577 -0.04888974258701454 2.840501328185164e-21)
(1.009897915582012 -0.01321615621588599 7.668393736625135e-21)
(1.029821655398879 0.02666636576801685 1.382739110621191e-20)
(1.530446468515465 0.03564018636745978 3.253128795651428e-19)
(1.288705021486774 0.07134148352085951 5.538455284036719e-19)
(1.072297965216738 0.003107809364943052 -9.088099108745393e-20)
(1.197614389194994 -0.09209479851782759 0)
(1.033708624055586 0.001932918093290737 1.326868478489968e-19)
(1.165211137244019 0.02247178409151884 -3.196954241620048e-19)
(1.001442252084952 0.03235784453752569 0)
(0.9996259093109393 0.002034318307661425 0)
(1.044474295709308 7.270848748429612e-05 7.830727773556973e-20)
(1.214023931312119 0.1118588777721695 4.144598713980005e-19)
(1.011085670356385 0.006992350690977418 0)
(1.092308664916655 -0.06866983046716346 -1.055372788050033e-19)
(1.150858795105195 0.03805042609618999 0)
(1.214705175559868 0.09624624508393662 -1.94786891411555e-19)
(1.108173351474354 -0.02878698204643024 -7.730930526616404e-20)
(1.027207470699152 0.01181739547779844 0)
(1.085004357092502 -0.004609388828423829 0)
(1.01885849514958 0.02615182929150533 8.032955452122506e-20)
(1.071579174138434 0.05580800150269082 -9.593921191152534e-21)
(1.103831426836915 -0.004127941111915392 6.309280594142792e-20)
(1.111296900036219 -0.09340002994762811 1.501439121847197e-19)
(0.9636097401301914 0.004837805187036865 0)
(1.065987148814687 0.03112965097476964 3.79205756421083e-20)
(1.169207525594512 -0.07644191798337764 2.313762270498309e-19)
(1.051136033639173 0.04648924874679563 -2.893775750384697e-20)
(1.022622978399839 0.06737064193909541 3.715546763434942e-20)
(1.090229005427404 0.02601854459018791 0)
(1.017406273084862 0.0168798935696285 0)
(1.029003057975423 0.009392353118048568 7.872924504091545e-20)
(0.9486336103398256 -0.03346859509135575 0)
(1.05272398871152 -0.005565130871787333 -7.718586194952357e-21)
(1.343085445753062 0.05850424210407081 -1.571472699429665e-19)
(1.079912373530814 -0.01312413021166033 2.637639971054343e-20)
(0.7439408433810174 -0.001725681355822864 0)
(0.5868284744608695 0.1910609484644073 -1.021206353797335e-19)
(0.7062073041429441 -0.002514202184698027 0)
(0.6987739071046632 0.01462400420870476 0)
(1.077634625655869 0.003675678872151251 -6.6792015681328e-22)
(0.9906483711244971 0.01452000616682622 0)
(1.278111220993364 0.1226233199309662 2.503311064065852e-19)
(1.012324163333769 -0.02780962917575193 -7.727081195619887e-21)
(1.046116243870573 0.01964171450303315 1.733719811591038e-21)
(1.058699389007631 -0.01172283374428675 0)
(1.126657539292075 -0.009109561773461703 -5.028958340167881e-20)
(1.270062136988181 0.1384702737583078 -2.29289895266941e-19)
(1.089359604421096 -0.01112342707839987 -8.598180694298718e-20)
(1.070123011949931 0.02684331994525636 -1.094050296419906e-19)
(1.040779218397258 0.04675186273444499 7.071830271075285e-20)
(1.022613491247621 -0.003765212650450048 -3.467599479752881e-20)
(1.06085373534564 0.02355451110058068 5.945224278253567e-21)
(1.132958139084694 0.0006069698014417934 1.049525001822215e-20)
(1.03917603889961 -0.01562258607616725 -4.819877540817849e-22)
(1.087407915601847 0.03472222997919838 0)
(1.028020036380823 0.01366869266428471 0)
(0.7673610570549023 -0.06733117472584872 -1.808629562838674e-19)
(1.030202865466828 -0.001614106227776883 -6.792371382289786e-20)
(1.129409778109071 -0.005675279257535076 -1.26053979429812e-20)
(0.7034169463445239 0.006575767027706091 7.289241346346166e-20)
(1.174683464069765 0.02021581437439948 -1.934593034969754e-19)
(1.135687576560519 0.007483016580420497 5.042656813769458e-21)
(1.128970523651545 -0.01001030856343565 3.439788743219939e-20)
(1.000936668442703 -0.002937936655198462 -7.309648582011294e-20)
(1.103089893392467 -0.06463377897121833 0)
(0.9878520065626556 0.004611790861938331 0)
(1.057837348438204 0.007056833685592497 0)
(1.005358315025938 0.1878972491400609 -2.441437163897698e-19)
(0.7791694556300147 0.01242089688520919 0)
(0.8569148182623151 0.1005247229556841 -8.380886316670058e-20)
(0.07767536131357904 0.03629271397167055 -2.986565291843454e-19)
(1.172058822939783 -0.02985581807493493 -2.251314393623981e-20)
(0.671318267749773 -0.007300303979599217 2.444623722738733e-20)
(1.169208126233726 -0.1000391738937222 6.886339185790018e-20)
(1.123030831198981 -0.004101112789997165 -5.736562666162733e-21)
(1.154653213043137 -0.04789555368477549 2.187717562117454e-20)
(0.1011410556540293 -0.2216792418410319 0)
(0.2390264315698955 0.0778107478244932 0)
(1.260426516945261 0.1110411816265433 1.91233839428755e-19)
(1.021099377678036 0.01978806796175649 0)
(0.7378449238941464 -0.006256638417437873 0)
(1.075332654786709 -0.01158810090808213 2.728705182029468e-20)
(0.9747579106808347 0.002821798475983816 0)
(1.29726250232544 0.1280275420242998 -1.561822240482578e-19)
(1.057424729038799 0.01107824688201018 0)
(0.993728350671707 -0.00698616049002431 0)
(1.065012547597141 0.008336212407021877 0)
(1.006183954442919 0.02084097746571462 1.930904027249989e-20)
(0.9382667614890554 0.01623511843210508 1.148812908955776e-20)
(1.177469769392076 -0.2000628831120342 0)
(1.005201256825371 -0.005179744710465155 7.932517244002983e-20)
(1.059133335225852 0.00642212993982677 0)
(0.7746666958358046 -0.003277136894951308 0)
(1.218175956457786 0.0286039680300957 1.654221128185537e-20)
(0.7049422297031547 0.001355139745502713 0)
(1.436227730902865 0.08698579808463663 -5.234067105374226e-20)
(0.9952341929021452 -0.006135851801832337 1.70451936686884e-20)
(1.273121155420573 -0.00166639382014298 -2.956532416110105e-19)
(1.059501712797408 0.008992485294330107 1.367521236308833e-19)
(1.000911900212774 -0.0135625101286625 0)
(1.212690093817476 -0.1406973120931584 2.050504017787779e-19)
(0.7331905864879924 0.01378691432766253 0)
(1.098532763604844 -0.004998286214517481 0)
(1.153869372194883 0.0694996630380216 1.970884882915579e-20)
(1.00689320777885 -0.006481293825303463 -3.038873334760147e-20)
(1.121205399792234 0.05321031950036828 -1.750584434672406e-19)
(0.09841780991964094 -0.08925817978153359 0)
(1.072201371825665 0.03918299387753296 0)
(0.6617828299041355 -0.002907753850977662 -5.907732420860602e-22)
(1.012159482765036 -0.01940347970575678 9.469399290483667e-20)
(1.061303971684235 0.0008112323454244749 0)
(1.074855349301546 -0.129058723313113 3.725048257776561e-19)
(1.002836803759104 -0.006179606333374392 -3.383850833822067e-21)
(1.003189659239639 -0.004980128627684145 7.279313938160891e-22)
(1.093933210020402 -0.009296363736364754 0)
(1.020675679503679 0.0205488624856684 -6.423739868747434e-20)
(1.106538243246376 -0.00156716126910626 6.552848618822222e-22)
(1.074599308556051 -0.01122851611543488 6.640070866275551e-20)
(1.085748456816282 0.02224289644860017 0)
(1.330485659975637 0.1606470607787884 0)
(1.002020831024446 0.0002554914536245568 4.413456928185349e-20)
(1.319064101948247 -0.1272181330815581 1.569508027486396e-19)
(0.03372952541102564 -0.1865192242396305 -2.433258353922513e-19)
(1.071209421791485 -0.00540865246678946 0)
(1.113836945426102 -0.004509078661411224 1.178735322399499e-20)
(0.7267614277294087 0.01780851212566876 0)
(1.060692199239144 0.009492240086305346 0)
(0.8671156874610336 0.1641931501114098 4.679511997869357e-19)
(1.277533515810143 0.1331035457487301 1.931657773598407e-19)
(0.6543443985284882 -0.003096258658178559 -6.434075164325937e-20)
(1.040183999373217 0.002686283710020186 -6.679641524861701e-21)
(1.054728136167918 -0.000244875023494993 6.549330875559794e-20)
(1.364478096226362 0.121182006343152 6.698489644832089e-19)
(1.334248926135703 0.2519501142360309 0)
(1.059933569621995 0.004220459371072826 0)
(1.000679633234602 -0.005582423917460952 1.469077354581626e-20)
(0.9927687736589347 -0.00600651530552645 5.02587534473024e-21)
(1.382081966391008 0.1996780112539473 4.270552559946821e-19)
(0.6818167306674655 0.000469259365489926 9.924362709234893e-20)
(1.00561915373418 -0.002183209372067181 -6.004943009100727e-20)
(1.098235047387222 0.01308426137916032 2.55636190910467e-20)
(0.6694615049676409 0.004970687168319757 0)
(1.066090293071527 -0.01201380306349008 0)
(1.016992618552234 0.1525553125990373 -1.354708370312497e-19)
(1.09219705038958 -0.006939037317542658 -2.521927866007811e-20)
(0.9820644481784432 7.470205780242622e-05 3.294857156486729e-20)
(0.9912113182753238 0.006028749707018787 0)
(0.6382124836841174 -0.001071104783064322 0)
(0.9767297679757769 -0.00118293738665349 0)
(0.6421325374124467 -0.001455051276529098 2.646670380477326e-21)
(1.089825863605124 -0.05541044758509363 1.201666191728495e-19)
(1.11236655598495 -0.00334419384176408 1.170002119552817e-21)
(0.9579056080391934 -0.0008743572424513623 3.8919641513255e-20)
(1.016718857405954 0.01001675285756495 1.727560484766734e-20)
(1.067099303763235 0.00204920654748282 -2.55100871742516e-21)
(0.6347101539194485 0.008877016367976852 -3.62670241782063e-20)
(1.005294214653355 0.00837912764528828 -7.999261908614686e-22)
(1.036874785586739 0.006541180643709195 5.417784414291657e-21)
(0.9861194404637446 -0.01028296682564052 0)
(0.609949139330613 -0.0004684194476766926 0)
(1.068799867790214 0.02252115880699442 0)
(1.016899362198677 -0.01654941376210447 1.03542284008241e-20)
(1.023822288635313 -0.01009469442691354 0)
(0.9919975251654189 0.01349044905687945 -9.879281215717752e-21)
(1.009516973492796 0.0009251639996210607 0)
(1.131331148199712 0.00239037575144517 -1.154568831510703e-20)
(0.03665337973429988 -0.1439426484471061 -3.830769509140803e-20)
(1.035213575891081 -0.01853305631445074 -5.933322182649155e-22)
(1.041073056507176 0.004668423914501965 0)
(1.081130480346244 0.06887984592743074 8.45779938842693e-20)
(0.9674097248536909 -0.002263522236920954 3.108803109436305e-20)
(1.020266168882354 0.016678868144202 -2.312250715893044e-20)
(1.002447414515505 -0.002349248289581736 2.455135393209955e-20)
(1.039317226144112 -0.007741554327964969 0)
(0.6408794401019554 -0.004052270974005666 0)
(1.02583152832238 0.02453740821534637 -7.539008824404559e-20)
(1.087120512733255 -0.006045686201832423 4.958596442127435e-20)
(1.015782224505422 0.006724282360878736 0)
(0.9792035399025723 -0.001593127665327219 -1.956143421247095e-21)
(0.8612657296708327 0.01080540429065623 -9.123577867331897e-21)
(1.014022300451609 0.002565472277153607 -9.765510492252836e-21)
(1.022973856696006 0.005761101670096083 1.879613301247905e-20)
(0.9846342863815459 0.004683716333510695 0)
(1.004655649699789 0.01206029320219618 3.380860140734803e-20)
(1.110634752786901 0.0005700003577067862 0)
(0.9285705626723904 0.007134145057496179 -3.090410681260136e-20)
(0.9558745732645831 -0.0001783914920655384 0)
(0.9093220830364125 0.2063536989218268 5.055982541450226e-20)
(1.010859821633338 0.06693704373015451 0)
(0.9921997570520312 0.004888871613728763 -2.266774157357411e-20)
(1.059208449997161 -0.05210835257243195 -2.884380804038583e-20)
(0.99286776279445 0.0009078345785177987 3.296711154569873e-20)
(1.009389400889078 0.00710049867913549 0)
(0.9786666314477125 0.0007733668591518453 -3.059359717411679e-20)
(1.173141510455962 0.1050515005335275 -3.430888637452881e-19)
(1.069821171064903 -0.2653459849086804 0)
(0.9932277874091324 0.0005119116201486361 -2.262734319979875e-20)
(0.9742641695156055 0.0009827850744363862 4.927201298460774e-21)
(0.9633183703100323 0.003199843068975867 9.929529415103009e-22)
(0.7459286451599637 -0.001044998880191157 0)
(1.124291245719141 -0.07663736555590799 0)
(1.002767801071759 0.002684016699718594 -2.267070644805379e-20)
(0.9088852967614511 0.01312906864091445 -9.968915989559673e-21)
(0.8474741112985219 0.003777197370628324 2.471060986347537e-21)
(1.014316665120024 -0.008111571334031831 0)
(0.9571035223468564 0.01239310335375734 1.408875604824639e-20)
(1.005549219954541 -0.0002374336260252942 -2.277751688426958e-20)
(1.023437711880778 -0.003513360478743461 -2.537736695380681e-20)
(1.115071325437725 -0.001287039775193816 -4.93603689451674e-21)
(1.119339535447764 -0.001017700940366618 0)
(1.012680522798638 -0.008841263862349109 0)
(1.019807936173969 -0.0001349084289373147 0)
(0.9415355715765498 0.0001079366344350927 -1.995237192247883e-20)
(1.017850657017849 0.01361567425155289 5.45709416410422e-20)
(1.08595607922111 -0.00591039560183089 -2.292539061757761e-20)
(1.040471055207439 -0.008892324404099631 0)
(1.107758959873378 -0.003102779678438457 1.854089230397035e-21)
(0.9943132023558863 0.002123472577189122 -2.235196654042802e-20)
(0.9844587529189274 0.002431626465399664 0)
(1.010616458945662 0.003211312848466436 4.66529329666829e-20)
(1.366711566370887 -0.314644085515595 -1.128549621105178e-18)
(1.121880268068022 -0.04313439986614981 -1.092879666759028e-19)
(0.9656924015736107 0.005211496333761023 4.456312173414325e-20)
(0.765373948530226 0.001317454745653102 -3.200362841537336e-20)
(1.223620434970954 0.05279062762097059 0)
(1.223237080047348 -0.1267647586557998 -1.471921741611409e-19)
(1.081412791686596 -0.002030945453451386 0)
(1.008084771921515 0.0008205530115507852 2.287334678683195e-20)
(-0.1888769301732253 -0.1390917128083523 0)
(0.993966590531395 -0.004654234046229815 0)
(1.012403868187222 -0.02311105315825085 4.323989736211897e-20)
(0.7064099036656264 -0.0194566249339191 0)
(1.096788799378463 -0.0147812402384145 2.175987272139447e-21)
(1.041879081119228 -0.006582405302846037 1.769667637959642e-20)
(0.6332168669397794 0.004118186007723977 0)
(1.449266020667189 -0.1234145906537333 0)
(0.986163316586381 0.001448580017000357 -1.075281959141654e-20)
(1.069792819656618 -0.01508188137621896 0)
(1.037794661377633 0.0004059649881412385 2.093920532254323e-20)
(1.081103068132331 0.00493492633728137 0)
(1.011809186348844 0.0004264508450397502 -1.09346440220778e-21)
(1.005782485825335 0.003129840553162737 0)
(1.0090312811995 -0.002280660847819134 -7.298378178866436e-22)
(1.004349683863522 -0.02078503739424284 0)
(1.036151631350292 -0.003629527621795482 1.705125733077048e-20)
(-0.176073057596822 0.02879279053812095 2.703130633780195e-19)
(0.7974224671377291 0.02070745005226532 5.400632229463461e-20)
(1.005450894093887 0.001823704633777031 0)
(1.127613362097091 0.01178214920874 -1.133290062427378e-20)
(1.118121813493375 0.008875354401319719 8.536414160246961e-21)
(1.054565065592315 -0.01282603477668997 -1.300568483701843e-19)
(0.998779033898243 0.01037022836468491 6.177168799334698e-22)
(1.079252498871848 0.0003053167141817128 0)
(1.188125935223516 0.05349328147661545 0)
(0.8353288502984751 -0.07651531655083592 4.595871853686976e-19)
(1.091679037952769 0.001092313157136257 0)
(1.033740649756798 0.007440657045693588 -7.529395761796305e-21)
(1.042422661133108 0.00521585168062113 5.89175745187185e-21)
(1.055842315268552 -0.05972513249251102 -7.585834897022141e-21)
(1.139304395997986 -0.0008918714853548338 1.689497472980021e-19)
(1.086522571027408 -0.004169664218500283 0)
(0.994211101828248 0.001586285563838952 0)
(0.996741126056074 -0.02668794977192631 -2.390641661702843e-21)
(0.9900487094836675 0.003353157875200121 0)
(1.031497575647995 -0.0377995231931854 6.437913749799875e-20)
(1.290719334950579 -0.09398304627780969 0)
(1.041446083033441 0.0002493242354265874 -4.310676523739617e-21)
(0.9861738713461335 0.01701354469008799 -8.730857811579132e-20)
(1.032722714407196 0.04203492430749391 -2.377241406891696e-21)
(-0.07658422795208272 0.1582131374946055 -1.699025327331446e-19)
(-0.07081562759584578 -0.3002304911645375 -1.31903340281615e-19)
(0.8970560623194566 0.1365892301320293 0)
(0.2863816596749943 -0.03635726503516037 -3.257518753364891e-19)
(1.005154429389016 0.001123377265684681 -1.250613116441101e-20)
(1.063836654609792 0.002717322426431012 -2.092869990123084e-20)
(0.9912805484504589 -0.02010119958225976 3.056044529098863e-20)
(1.023498276173278 -0.0318331334162056 2.640422143437856e-21)
(1.010150816681319 -0.03179400182390078 -6.616679308722995e-20)
(0.9888760714954532 0.00481803877674885 -3.476659102743812e-20)
(0.9930573856639954 0.005214485412980002 0)
(1.025046411027814 -0.00237528422640354 -3.484258369456538e-21)
(1.937014717319331 -0.1561514515817893 1.074219230579339e-18)
(1.043101972479685 -0.0006997047189482433 0)
(0.9958289011663564 0.008579067775359517 1.531165123144741e-20)
(1.003476581533248 -0.000379795958693915 4.023109380095437e-20)
(1.160504418406813 0.1522424691643929 0)
(0.9995607373149754 -0.006370776597133062 8.28955780158092e-21)
(0.9504687249094695 0.001647989875536033 0)
(1.037837127023742 0.04175908850897615 0)
(1.310328832111597 0.1587796340862028 2.337815210136981e-19)
(1.081790145330177 -0.0002485608945600739 2.313745124115215e-20)
(1.016908428519693 0.02968520500790729 4.568661033269201e-20)
(1.08511677410454 -0.0005267647215333894 -2.230171405216489e-20)
(1.049951592822073 -0.01312813288362535 -8.954766635271995e-21)
(-0.3858469586148758 -0.0524550662407166 0)
(0.9996925263870218 0.0136105665338203 0)
(0.1129512786150152 0.05407883096127438 -9.15614384725308e-20)
(1.006947271192158 0.02057553989835322 -4.097628018061848e-20)
(1.001517104142642 -0.02227809223429148 0)
(1.001504008454851 0.005458299768873942 -4.935637888382903e-21)
(1.081953144706111 -0.0424940843411666 0)
(0.9940633761953268 -0.01723374397906438 -7.975734184569254e-21)
(1.101313855111141 -0.05877423511981934 0)
(1.445565000769756 0.1742838522147915 0)
(1.054839872557875 -0.01219002189421607 0)
(0.9905440308697223 -0.02467261717884285 -4.104553955328189e-20)
(1.000445827033601 -0.04182305149018807 -3.346351210238455e-21)
(1.014088139121358 -0.02031688443352891 -1.946765887336573e-20)
(0.9967341784577143 0.01658305445954755 -5.558246636573158e-20)
(0.9959116133329791 0.01034539863326893 -1.492228575009972e-20)
(0.994849167456852 -0.0286540493899546 0)
(1.002467079006241 0.02367956908374736 1.925304732119593e-20)
(1.055612627665503 -0.03573723732247558 0)
(1.111413685106157 -0.03582040190327025 2.595633663318111e-19)
(0.995682518869341 0.01670940695291738 4.581858991317175e-20)
(0.6150437069281185 -0.008688505425131072 0)
(1.143360961676209 0.1591474563342977 -1.719716943021898e-21)
(0.8468439422345378 -0.08586543414778806 0)
(1.137782502703559 0.07300535972707661 -2.72748726382381e-19)
(1.317074781892992 -0.389588470136041 1.295289834237669e-19)
(1.068753786997008 0.06374540975106376 -1.24645968852505e-20)
(1.011374987261985 -0.03205944576397871 0)
(0.9561628807229449 -0.2164661317965421 0)
(0.5276330684688625 0.1644262845527294 0)
(1.016512657327763 0.01019109552430219 1.254051461952019e-21)
(0.6935527606617827 -0.02678203895452835 0)
(0.9995657013698237 0.01685172267342156 3.528023993411827e-20)
(1.027175760358233 -0.004242406389197095 -2.760766713830394e-20)
(1.078963235414109 -0.008079002903386277 2.726194002539203e-21)
(1.0504610475414 -0.02642057570352398 2.913766133455002e-20)
(1.04253733226634 0.01181334342621676 0)
(1.063416918587192 0.02190364910712486 -8.854631182384039e-21)
(1.049565827820146 0.03613862805539859 -1.80592281892081e-20)
(0.9834806640552429 -0.02280110860393745 0)
(0.6249030549751946 0.005097853253153045 9.17028625291617e-20)
(0.8941494256941614 -0.005918938027010278 -8.845787236215054e-20)
(0.9093791876398191 0.005270016285359948 1.450727430305289e-20)
(0.6296035813913348 -0.006433223118127811 1.407280774199475e-20)
(0.9805894388692833 0.001008076035376261 2.493957384397299e-20)
(1.004428808959718 -0.01746014828969839 -3.496386630341215e-20)
(0.9836259601218157 -0.03810514311626002 -3.139337389824135e-20)
(1.085590772210435 0.001657645133241472 0)
(1.020075887594183 0.0050645475723263 1.013452116951936e-20)
(1.13219676497577 0.04882774255057721 1.318479227205497e-19)
(1.031188230998947 0.04092824703013109 0)
(1.022647357209787 0.002550579688257172 0)
(1.58575672828311 -0.1678219117171969 4.401278054072252e-19)
(1.059207337122335 -0.04721797936061256 0)
(1.017573151765173 0.009846296832873677 -3.762723233994747e-20)
(1.082736631958825 0.006275012122362291 0)
(0.488131445753728 -0.0103583841569468 0)
(0.01232470891303963 0.02263604622340751 0)
(0.9913394297728177 -0.02415007599472173 1.232989324934879e-20)
(1.302418238365053 -0.09603933633916643 3.730472904836514e-19)
(1.032657396315897 0.03480014315974226 0)
(1.022290256309447 0.003534752066347153 -2.221211669810487e-20)
(0.9466524895736879 -0.16016489980999 -2.000848899428739e-21)
(1.256845032709084 0.07753181713063839 0)
(0.5967241441650857 0.7281518990760523 0)
(1.312807699857171 0.1455792353381246 1.07391606296531e-19)
(1.678976828692105 -0.02567889636371362 0)
(1.051276784924411 0.1195809667483372 0)
(0.7121711919966279 -0.01963670440669586 3.934872099268669e-21)
(1.0477155541529 0.04387105030640081 0)
(0.7593087861434724 0.1263661451240244 1.316568899855884e-19)
(0.996776380613745 -0.01647599470960591 3.574606566852288e-19)
(1.03836536101557 -0.04181321206610707 2.789409078750279e-20)
(-0.3819597164131381 -0.02781732531499064 0)
(1.072307324594133 -0.01640050857406137 0)
(1.084943798788136 -0.004400414251844903 0)
(0.6493656562781114 -0.5056446247226435 -2.464741810736847e-19)
(0.9894443081528278 -0.001132882296355877 0)
(1.092483637343966 -0.02141238619201297 5.250297095499802e-22)
(1.18700530863074 0.1210369140508821 -2.00819456171088e-19)
(1.096459784131069 -0.04928230639852513 0)
(1.006226092477734 -0.02108276403145622 0)
(0.7754182579257572 -0.1807280390913897 -1.638683642160947e-19)
(0.8792471812312767 -0.1315918229968842 1.490751908963719e-19)
(1.03199842361478 0.01478166584375597 -2.165912537023023e-20)
(1.023120275333766 -0.008936181555625151 -4.498742602805387e-20)
(0.8799631015417293 0.01115238596935502 3.050559887137985e-22)
(1.50689214990341 -0.1943816989119018 0)
(1.308735024695463 0.1163073006818201 2.988576018977389e-20)
(1.242173758407985 -0.07399333014418179 -3.278883770769217e-21)
(1.095698284769352 -0.01851487582071683 -3.944324189584022e-20)
(1.03485610477136 -0.01417318344282133 2.760256806122289e-20)
(1.092835797448629 -0.03905977374786997 9.262672188064663e-20)
(1.031757117404508 0.02058560988838399 0)
(1.048776687870181 -0.03769784992159077 0)
(1.115950426821638 -0.00894160736142835 0)
(1.095787573393735 -0.04147643021689124 0)
(0.9982318665823128 0.01111384502145557 0)
(1.150040481513608 0.08201756311860926 9.545154519817361e-20)
(1.337863370949968 -0.1533320152049148 0)
(1.036206344523318 -0.02698165036189453 -2.404467331929596e-22)
(1.048006000830189 0.05154503372312993 0)
(1.010271197960591 0.01438344815252481 -3.900630730420647e-20)
(1.0338342889345 -0.007336637745931297 9.189475876784704e-21)
(1.088928825956369 0.0134749215875879 -3.235793212174959e-20)
(1.085157724661772 -0.02794074549898985 0)
(1.0705325377964 0.005908823343916283 0)
(1.106048945488052 0.0937394718104228 -1.414016021910882e-18)
(0.9355792186635374 -0.1504590078922768 -7.074103211375277e-20)
(1.170760135060579 0.1169953370505871 1.144722983623516e-19)
(-0.471047077626329 -0.01493222584642124 -2.899597539867347e-19)
(1.01783758139896 0.02901385580797023 -8.766182826834124e-20)
(1.005427695549513 0.004747113665398183 0)
(-0.2588564616325132 -0.0007699534106147068 3.555753739779871e-19)
(-0.03603411148338754 0.2889127884896983 7.632629430499551e-21)
(0.9952134418421101 -0.006257830701611086 9.546098660904835e-20)
(0.1853467374629164 -0.04443597174853699 1.321783630057491e-19)
(1.08452306359785 0.08550200531529718 1.419125280869566e-20)
(0.09386812921050799 -0.1117165428414764 -5.509799227043817e-20)
(1.108409831340386 0.002988671574367009 0)
(1.100803248864223 0.2539055969863946 0)
(1.021185976889264 0.02143591888972873 -1.715688807530567e-20)
(1.064777060858579 0.05129658082827439 0)
(1.026501330141487 0.02374512395460276 -8.698422729201453e-21)
(1.264350255593946 -0.5495420990163513 8.048379114148908e-19)
(-0.1173466704969488 -0.2352692409859014 2.146288427417916e-19)
(1.30100306951076 0.1151633702630764 -6.261975939919056e-19)
(1.121799948275716 -0.002696003546633886 0)
(1.12115448549244 0.1030681816347905 0)
(0.5250540258892061 0.07895225418226406 2.463962577886694e-19)
(1.023751200427056 -0.02026216697568809 9.419331704265357e-20)
(1.006586203992892 -0.0233953229817354 0)
(1.210333640715962 0.2702213539306231 -9.587692075003048e-20)
(1.263188272658316 0.1313073763352092 -1.553100098087026e-19)
(1.026593011022658 0.003336556942290689 1.553969885278523e-20)
(1.30052141625846 -0.08501803857368664 -4.996313801145175e-19)
(0.2996758899855582 -0.01872594595932248 2.815156440577414e-19)
(0.8283799512014787 -0.1471430290678639 6.782504804095898e-19)
(1.039257938554722 0.05015917274855829 1.079576962691141e-19)
(1.038264783769296 0.003148372409493822 1.780192833333515e-21)
(1.00114686069912 0.01920593159466619 2.934955453488299e-20)