/*--------------------------------*- C++ -*----------------------------------*\
| =========                 |                                                 |
| \\      /  F ield         | OpenFOAM: The Open Source CFD Toolbox           |
|  \\    /   O peration     | Version:  2412                                  |
|   \\  /    A nd           | Website:  www.openfoam.com                      |
|    \\/     M anipulation  |                                                 |
\*---------------------------------------------------------------------------*/
FoamFile
{
    version     2.0;
    format      ascii;
    arch        "LSB;label=32;scalar=64";
    class       surfaceScalarField;
    location    "1380";
    object      phi;
}
// * * * * * * * * * * * * * * * * * * * * * * * * * * * * * * * * * * * * * //

dimensions      [0 3 -1 0 0 0 0];

oriented        oriented;

internalField   nonuniform List<scalar> 
1171
(
-0.9279041638512234
0.9279041639296631
0.7872739237059108
-1.098849923581503
0.311575999888464
-0.1935567091985382
-0.7678022433596309
0.961358952262711
0.07209584126986299
-0.1177554689415845
-0.2119464272012355
0.3297018958244703
-0.7872739299251238
0.06926426165396174
0.7180096682565237
0.8106159403105792
-0.1775187441572659
-0.6330971962271111
0.8740386048107364
-1.043585922705543
0.1695473178386036
-0.2847904872683197
-0.09829488385808435
0.3830853706750506
-0.03630511211299632
0.5484580596697385
-0.5121529474430044
-0.5085958081390226
0.8297931220346073
-0.321197313507059
-0.402545950179205
1.045532987021213
-0.1714943887061725
0.3949686194436955
0.05000049043663533
-0.4449691100480725
1.046290644841075
-0.0007576595397342692
0.4466329083524758
-0.05166430018150143
1.056753989408193
-0.01046334540782203
0.5793603049685107
-0.7729170143923942
-0.7241596471599596
0.5569334504709947
0.1672261967242225
0.2169589193774991
-0.7255547264064905
0.549786319921012
-0.9224513056682441
0.3726649865809079
-1.094213879080306
0.6865331043215077
0.4076807745434221
-0.5954126165563802
0.5591075003491036
0.01738410155751348
-0.2559431710314737
0.238559071353731
-0.0235960460244712
-0.5247262317456591
0.5483222759301523
0.3998822174789001
-0.498177098007305
-0.9188218966970159
0.9416050437456914
-0.02278314698747105
1.067881680110049
-0.01112769125815833
0.9351512844141052
-1.116934327595372
0.1817830431737305
1.067482956435668
0.0003987237847069916
-0.6642596502389884
-0.05990000729406348
1.262009229984685
-0.8644793954229307
-0.3975298345984951
0.1486610598373165
-0.1095437371667407
-0.3252191854247933
0.4347629223106538
-0.2856002542959959
0.1917532086949179
0.09384704484045955
-0.5834657492629232
-0.5153841698674777
1.014146413888088
-0.07899513071643287
0.009889462939387632
0.8254713646924143
-0.8353608276109485
0.5717127846175176
0.6902964476864447
0.4389143125095001
-0.03100604704819407
0.4308882642101111
-0.8078778742506396
-0.1026232657706786
0.9105011400527188
0.5025628577491801
0.2540746508657658
-0.7566375085052508
0.004106048021046551
0.5312355069019554
-0.5353415552135609
-0.4899685709713874
-0.6042453025571072
-0.4228641530408958
-0.6940701743695593
-0.02754540831994898
0.2707435514285724
-0.2431981438134084
-0.9249289867992082
-0.005209654257002589
0.9301386410600432
0.3078532775596275
0.07523209652336894
0.7619806547237993
0.04863528888897182
-0.5329229384273557
-0.06248968557806417
0.04620883276236992
-0.8540867005496697
0.07729615093675324
0.8618744584926673
-0.9391706093653318
-0.3472617820631391
-0.04065464528632472
0.3879164279123207
-0.6823678957544188
-0.2425610906896786
-0.6326905886129852
0.7099867392075605
0.6112007899926205
0.2185923358544948
-0.5431590055422389
0.946087161446953
-0.7792058105692931
-0.16688135081556
0.01683177491671958
-0.007318595415895985
-0.009513177443528564
-0.4031607178643933
-0.09501638104325627
-0.2420090451019397
0.8532098330051738
0.04807678186768267
0.3335021411462082
-0.3815789233239613
-0.4613655466119124
0.9639284046965962
0.6802344011185881
-0.7828576588696826
0.3177919535474468
-0.01470111016706517
-0.3030908406222134
0.9306713184898935
-0.9306713184931369
-0.7825628570114102
0.1115063232677842
-0.3234527504294439
-0.7500040686927386
0.75989353178245
-0.09126380629510245
-0.1427438665585677
0.2340076727681319
0.8648806677481143
-0.03940930258820261
1.054617888220566
-0.8005432368435881
0.1864843126192924
-0.3161591061383224
0.1296747932779977
0.8586812851104481
-0.09670062812618697
-0.6114877116129143
-0.03944688289480254
0.6509345945094269
0.1236283161630193
-0.2305936595061024
0.1069653447120617
0.8055496145547718
-0.9830683562346207
-0.4344334545875282
0.3291606151678323
0.105272839405781
0.5330617309662018
-0.5566577802077611
1.022085407005263
-0.4562781035390724
-0.5658073033964002
0.5992212500842011
-0.7192599979012115
0.06646333262174382
0.6527966647285995
0.1020437772321822
0.5701089263218257
0.05472350254929745
-0.6248324288070174
0.1949029939923216
-0.08339667347041728
-0.4924128035967383
0.1451510241464882
0.05034570175099588
-0.886627651676404
0.8362819499468841
-0.4747257314593357
-0.7132645789814279
0.04900492345615174
0.4365350836796175
-0.005646820214989305
0.3000878145665855
-0.8553030368642276
0.5552152226836089
0.4157453317744896
0.5842546681978746
0.560639762804128
-0.5144309275424724
-0.3658687362178149
0.03824953633732252
0.3276191981359181
0.6812857824335187
0.2493855379296236
-0.5676864356118347
0.5717924756565165
0.1113158931174173
0.8748138790953688
0.01030560101521158
-0.621793317806708
-0.7491867609619405
0.7995324609706698
0.5306620316186313
0.07145386360529477
0.3002718678715294
-0.371725731471691
-0.1675535879454774
0.4441927338768918
0.08704278730360684
0.8740400973438321
-0.8007690606492006
-0.07327103655320097
0.6355273098067306
0.31055984761836
-0.4307061304416828
0.5748971336105607
-0.5034432700807649
0.4170493508499396
0.1327369702775807
-0.04684058917721414
-0.5889089587199441
-0.1394417343574125
0.7283506929790422
-0.1496670220278816
-0.7810042940214074
-0.61107159194665
0.3602738243550504
0.250797766516223
0.6221535215860076
-0.61184792384104
0.2384380853839767
1.011751087482081
0.0428668000818905
-0.749186758173246
0.2201837261745075
-0.2033519474718841
0.6802344003141547
0.8020543104992491
-0.8020543104780976
0.8376227340799315
-0.8331793057409826
-0.004443428237199198
-0.4453434478423723
0.8610887812021807
-0.1475326053008003
-0.3448801947230224
0.7347653936750894
-0.6685519294628975
-0.06621346429961635
-0.7345427369844735
0.1456337779100167
0.1390536608874934
-0.6719766039720396
0.7828576526430573
-0.9504112406682782
-0.3656067634985842
0.2858419440379998
0.07976482124982916
0.145742054371567
-1.009825787770508
0.864083733415941
0.4805155488519028
-0.04160123641056499
-0.3080984395218188
0.5862665770842935
-0.2781681374854958
-0.7384464707257391
0.8841885180250685
-0.1570522950785655
0.7337047097939823
-0.8359469885144974
0.1022422791843033
0.9780880966583221
-0.5404534847006944
-0.4376346119162171
0.7552137237196263
-0.0648598847730885
-0.03628989684647792
0.1864673724544081
-0.1501774768936881
-0.7757542681493472
-0.8412300957527425
0.07342785066071547
-0.7500040683652901
0.514082428852834
-0.5547370719400555
0.09486343443864524
0.7164574172492455
-0.8113208515531897
0.7536301858878162
0.1742739852508003
0.5029069420071538
0.4970930579733078
-0.05502204966242205
-0.6074892226369291
0.6625112719016555
0.8782662488729897
-0.004226150622573764
-0.7552137237088528
0.7995324635705365
0.1914818589820836
-0.4474250234706495
0.01486182504203365
0.002137804143395061
-0.01699962571369339
0.589465405853863
-0.437784127479744
-0.1516812782603412
0.7180096704490291
0.01298070692955606
-0.1075253838734346
0.4385687697507361
0.1508966367090885
-0.01410398922936716
-0.007628079978480594
0.02173206875261236
-0.03300999301807329
-0.003279933894620589
0.2450422989443372
-0.2597434046334536
-0.9591066035497974
0.00192528840013756
-0.1595741399998656
-0.1205644549399771
0.09477781406930053
0.7219193598437239
0.7289516367911179
-0.1446969685786366
0.6658077803092063
-0.5709443406488437
-0.2119733398726149
0.3984576508110432
0.6955796788792544
0.02242999156380081
0.2417316460064377
-1.074910951342794
-0.9504112416134806
0.3022064505193859
0.7598935326579096
-0.2091616054446777
0.06641772959683249
-0.7238446445925861
0.9096620950348449
-0.1858174503038701
0.4161732664071688
-0.02825683517179575
0.7714220656536596
0.2807400036066703
0.3752683489982421
0.07136457744077744
-0.6587101884283292
0.6587101883964922
0.2148493443321694
0.6956518015718863
-0.05575272834718428
0.3892548843144486
0.3790101891163837
-0.01210122467025781
0.02696303202901365
0.4487197724661192
0.03179577047406208
-0.7384464746518311
0.5340226233372152
0.2007427689093818
0.3020299796999689
-0.1155626023555914
-0.695579678054762
0.1795022019603223
0.7301598897423124
-0.0102911918999092
-0.813583229974155
0.8238744218168055
0.6963795830436904
-0.7919734114279993
0.09559382834420879
-0.753630187136048
-0.1511403865102413
0.2122035156496039
-0.06106313029088579
0.07754869568619785
-0.1784295195703179
-0.1135259010816991
0.2919554204183116
-0.004918928408184171
-0.009185074303070227
0.706573630900692
-0.7168648210905235
0.8863126419364488
0.07504631054273067
-0.3168645747023543
-0.5187427397573525
0.8356073140341558
0.1041285075259016
-0.1041285065034347
0.3240914760981903
0.4724431614555559
0.6175801873513499
-1.090023348519329
-0.1940862247879544
-0.585627105463716
0.7797133302503623
0.01383998695586825
0.2201676837052992
0.3764709818982837
-0.2528426657875328
1.015147329282358
-0.54270416736342
0.6673923790745389
0.9940634012414493
-0.3764832151546271
0.2289383733095108
0.8841885130248213
0.7126941232255919
0.2138564920990394
0.7277485514530404
-0.7810042929131764
0.3412898137541928
-0.278968368919312
0.2517846065598662
0.02718376492910458
0.8465655184411517
-0.002505129882470126
-0.8440603884102454
-0.70223077798222
0.7026295012394861
0.5546565539712422
-0.7022307774702051
-0.7126941232047492
0.7026295003262982
-0.03462469823903635
0.9090837668225752
-0.02277112481727406
-0.6812857859127521
0.6123140643288104
0.06897172159649358
0.538542188935526
0.5371887606988568
-1.075730949667483
0.4886775436200808
0.526469785982404
0.5448914363321224
0.4579984492203186
-1.00288988547354
0.4938444478260334
0.5002189534163465
0.612314066593564
-0.5255621875044965
-0.4657076419467067
-0.5567594619679745
-0.5158289257122831
-0.1194895657272365
-0.01244844082319926
0.01244844011114497
0.5123804562986303
0.5237552311946401
-1.039584156724247
0.5730840446221908
-0.2728121790814988
-0.8845927039006778
0.3441392201731331
-0.6330933681315958
0.3905322758720211
0.002142287901871705
-0.8265423181882708
0.8244000303824963
0.4208532005826862
-0.02075638787447681
0.8673219034940486
-0.9495551627313412
-0.8329400777860302
0.05383161191421442
0.7791084659149415
0.5667392724557215
-0.440057977880528
-0.1266812950769832
0.6502248376603603
-0.7292199674299695
0.8883563951315044
-0.8297416412786803
-0.05861475399510128
-0.01226757128420321
-0.7885014884687941
-0.1103361554303694
0.7119814773445293
-0.6016453218997339
-0.9380978386975185
0.9258302668779338
-0.7242280565152681
0.6906295617583507
0.03359849483206633
-0.8097225853905743
0.03651899080119393
0.7732035944801887
0.06189804821353588
0.04223046093378031
0.4328247904254238
0.06119876886135271
-0.851708318452381
0.7905095497902469
-0.6450242792009041
0.5900022256824075
0.8885058612506632
0.07192033455240839
-0.9604261955621384
0.05556578600726141
-0.04881951254038756
0.3764387079565631
-0.3818149008504313
0.06565579166177522
0.8415933621965946
-0.8394510773595621
-0.7346762790467047
-0.816109856198028
0.02760836874933146
-0.1632964959471466
-0.8517419540394914
0.02200031272921973
0.6219857767141476
0.0438220087666558
0.03295972733338327
0.5337795466955906
-0.8102804025212048
0.8467993920365559
0.5658073064175096
-0.8472987092768781
-0.86617750214909
0.04290626442109026
-0.02938112983672085
0.836544556741759
-0.8071634269265523
-0.02734192669269509
-0.7640574124957669
0.5443176661547954
0.1520619225254855
-0.02626414814817173
0.8935860496681167
0.9796618821434117
0.8628360110770676
-0.8408356999588477
0.1478821341825064
-0.1478821315076461
-0.1180890126144493
-0.4750294137262538
0.03497143390934339
0.2702630233185416
0.03194342686194119
0.388249049281747
0.8662441219001341
0.00828663018878693
-0.01320554430103071
0.6585886184695846
0.3414113815025872
0.7836469448337448
-0.583465745417357
-0.7781132521482536
-0.8096685620866542
-0.6798463524915114
0.6798463525110858
-0.1680180567051749
-0.1554346817090217
0.6023069959392863
-0.8119498135368123
0.2096428175836583
-0.4939533916219166
-0.568950355162184
0.2780549807931214
-0.9721251564458078
-0.9007892489456859
0.8421744942340665
-0.8122542636140528
0.83986263096577
0.6486899340240819
0.1341439630484894
-0.7828338970768957
-0.776070068959981
-0.1462644513316206
0.7244897029767835
-0.5782252517044755
0.03454512717712872
-0.01278501344796548
0.01702666737076566
-0.004241655403720734
-0.3540243333556466
-0.1210050785158015
0.8803619757663311
0.7480860129655665
-0.2464739901230253
-0.5016120230332607
0.6214047206361901
0.685590792051458
-0.4707414427615073
-8.646264691471433e-05
-0.2855137886116027
0.01810621466301192
0.750573496304323
-0.7686797109312441
-0.3234352233855545
-0.07323180280620244
0.0762983005747931
-0.9637106049291325
0.1196502132644249
-0.6778058522698599
0.05264548579777201
0.6401274592965742
-0.6927729451924169
-0.7561135167918003
0.07830766456684327
0.5881362938399722
-0.6613680967191407
0.1575492666132614
-0.3359787787712175
-0.7706148398217273
-0.005455229149305259
0.3711202070800162
0.6004235448414617
-0.02552641260552985
0.01974479048673557
-0.01974478865323356
-0.02007651558104346
-0.0483576694918423
-0.2306107005222594
0.02845703851963111
-0.02017043869586577
-0.7267928323605987
0.2792535602007559
0.6805190751791967
-0.6887627566980948
0.00824368127489462
-0.5940667338748571
0.6467122239570351
0.6536821675837232
-0.06554587311211951
-0.6308951340251703
-0.1252183800375372
-1.050712853105129
0.01103740824390093
0.1368447149784287
-0.708686615777281
-0.7412312846720424
-0.7633938713994738
0.3658640394529474
-0.4088975376639503
0.4609000110840319
-0.05200247280846131
-0.6634283692867046
-0.04525824667527588
0.5017830347077999
0.7306844593831266
-0.2352317155460836
0.1146672572336471
0.9691658343938814
0.4466808549549507
0.133343889906203
-0.5800247448224926
-0.6770753274349212
0.0136469635879376
-0.04476472428219737
0.03197969949638146
0.6362651513806443
-0.7757068816661002
-0.001691774515872737
0.001691775838869547
-0.601248638809997
0.6487894567627609
-0.0475408182192701
-0.644115592397188
-0.1131690335128574
-0.6714923507483103
0.05973289325338563
0.6027783701123117
-0.1373003993021353
-0.8177568003439796
-0.5688818522145848
0.566801200203388
0.002080650133390936
0.6294857303559092
-0.6212420437883618
0.3225335289524121
0.2139470319212655
-0.5364805608403641
-0.1049661352154398
-0.6013804261938586
-0.09139251780457312
-0.1545677851658405
-0.5091489603463926
0.404105349872386
-0.4991217338859624
0.1269174286646226
0.6783963467762502
-0.8053137753398016
0.599221250091154
-0.3671116265736833
-0.04178591191825925
0.08259854839000896
-0.5917475100211376
0.5515700730624435
-0.04063805647388809
-0.5109320162525209
-0.3129782941114435
0.3055342729480346
0.007444019151842238
0.4543776942510828
0.1187063540060538
0.05230174299235835
-0.3164278909786259
0.1573959506068326
0.1590319400196385
0.227596291186325
-0.007412576356821515
-0.2929031468234098
-0.3101948673244498
0.3519436788893426
-0.04174881709631755
0.7870425900198522
-0.6256073477149064
-0.01850824477736313
0.4992074840201459
0.2822324882988742
-0.5287064664965007
0.577501423839978
-0.5775014238380587
-0.2897367119846971
-0.5864417786943449
-0.2955909379907045
-0.5864417786557652
-0.5945621537385181
-0.8385044427540527
0.1699525091979748
-0.5906359202819416
0.8210983253721581
-0.003166999542608569
0.1177048273710546
0.4827187170804526
0.09676865487874399
0.1860027643380771
-0.0365092807113631
-0.1494934838955312
-0.02383471738563269
0.592491915351997
-0.9451233482049367
0.4263806089171419
-0.006646759241571967
0.004045018074679086
0.002601742483528443
-0.6437711194216895
-0.131802401266486
-0.4685133244702734
0.601857215319815
-0.503580337945136
-0.3277406468166915
-0.2640068755819649
-0.2711474121150497
-0.111623544453809
0.1116235429170015
0.1527305990031461
0.05947290067762618
0.1970401594380778
0.4534874230434682
-0.572082519184933
0.10356919014763
0.2451378629296621
0.4664771065647749
0.5335228927397135
0.6423039720056627
0.08878830651476297
-0.006349934383929122
-0.08243836689751802
-0.2770362991847093
-0.5407205012604569
-0.5517207852035209
0.1146489021456024
-0.1265206312370326
0.01187172846328998
-0.1054842354645119
-0.385518253438235
-0.04823723177690041
0.6510155981059965
-0.4989008175264422
-0.1448703018937329
-0.3350592505870178
0.2899287656451819
0.1267053778772685
-0.6162025830707829
-0.2045273448379571
-0.2626904614391941
0.002947048024687183
-0.4220412561374281
0.3238290904011368
0.09821216578630222
-0.09606899859029056
0.2917010684275047
-0.8959463693655685
-0.4576062458956925
0.6271808789671072
-0.7731741558433894
0.6682080205688586
0.3404353731410336
-0.1241880498242059
0.2240477760663794
-0.09985972543845781
0.02547018437973594
-0.5862923358236947
0.02894864408395791
0.5573436919751554
-0.9006369680306512
0.54765156139624
-0.6657405738561193
-0.102948854729196
0.1098870719333163
-0.1098870692093279
-0.3165143490312934
0.3606023237088559
0.01583638513970759
0.03081804847446259
0.05797024737531227
0.5051356197366471
0.6636427391050669
-0.7369137747030866
0.03295585049244983
0.02178946136442447
-0.002044669535051296
-0.007247531817109334
0.007247530321973292
-0.4153032698193207
0.5340096223055174
0.01563085480140601
-0.01563085489737378
-0.7924204608170526
-0.06121843151535823
0.1231164836650409
-0.4573373413318874
0.5609065306017992
0.4523102549529073
-0.4998510723826934
0.1502229013679122
-0.1502228988935361
0.03152634177228045
-0.004563309453742606
-0.04252276875273144
-0.9754357320158831
0.5378011217082723
-0.4673057426483346
0.04223046179729403
0.5148745981565871
0.03087298677166749
-0.5457475847709088
-0.6163690483391607
0.1174682353656424
-0.3291492898468776
0.01348514104119048
0.3156641502796823
-0.1556776450477863
-0.07955406212310764
-0.5409805482890175
-0.04531178285807365
0.1368447176249629
-0.03991923116513627
0.03822746238127415
0.08052137592222652
-0.08052137806650748
-0.53015970137876
0.4884108777458199
-0.4147815051858577
0.1613208784384311
0.6223260663533471
-0.09730602555593426
-0.002718111310907714
0.002718110398102436
0.5329404385869907
-0.08242303532814653
0.005758573009480857
0.02695765066684804
0.03498293402182664
0.6846154663648569
-0.7670385017203351
-0.6526510655190874
0.6341428249630413
-0.1067034147780958
0.3136701803643301
0.7458622351454308
-0.02007651698978569
-0.2663356982481576
0.1507730980279147
-0.7446115046303929
0.484053235082729
-0.4273033722498486
-0.1014944450444532
0.003337124569415046
-0.01425860729543997
0.02210711040927757
0.4108059582923096
-0.1215369170665562
-0.3893951021536177
0.6287987156629612
0.01969595010230575
0.01010478700884743
-0.0101047866625846
-0.351275236734868
-0.07667227353215815
-0.5603234947463575
0.5571564952762271
-0.2377139529716521
0.4647296616936456
-0.1511420085111994
0.7305023135977174
0.670799581665273
-0.03991923510637114
-0.6173332802007705
0.5632741975322521
0.2870707952636631
-0.2830249966564248
-0.004045798375915879
0.5380738198074986
0.09340457442611318
-0.03905121090001479
0.1960117452121101
-0.1569605346100135
0.119572580707064
-0.1195725836541406
-0.8586870666744721
0.002340768717897374
-0.1136434906352139
0.1406011425519221
-0.1316215049405426
0.1316215029005334
0.0217894552087785
-0.02279462641443014
0.6699037660121234
0.06025611996501757
-0.3226967707572709
-0.06282148238243263
-0.4712338381279077
-0.04798846235460241
-0.1513109673757424
0.151310964720524
-0.05091203725094149
0.1436164028041679
-0.1436164003320262
0.1361297103245789
-0.1361297130357777
-0.316025396798188
-0.1146807336453732
0.2260964409508247
0.1030641747006124
0.03481264284379348
-0.8211531255741958
-0.1985188333449148
0.1699871794980535
0.02149467591580961
-0.2644919899661315
0.1261173788416888
-0.1261173766640126
-0.4142429796106528
-0.08487875458255878
0.2358861393233218
0.002672930804423583
0.04060214270527181
-0.5438998574326311
0.5785245556797893
-0.0357835481414929
-0.01512848759787103
-0.02660404446558194
0.02204073075243022
0.006606497524662736
-0.1847298743319967
0.1781233770646441
-0.108705379440701
-0.2272733960511148
-0.1444434781370744
0.1444434756168835
0.07258713306229217
-0.07258713440809646
-0.01909214997776013
-0.1085578218848359
0.1276499730425042
0.2382644587360205
-0.1833034981329109
-0.02871419162443662
0.02666952590675037
-0.1342062291593071
0.6226171102421004
-0.03903641350687933
0.4267003172551417
-0.04343420486128329
0.06516627046658911
-0.1530086173744799
0.1530086144637365
-0.6367919231968523
0.3082697860925231
-0.07933141072892386
-0.2341749836081674
0.003581329702437366
-0.1206627194327276
0.1612648614286171
0.1959838515631742
0.09597157681860749
0.09703628619314054
-0.06205335275049357
0.07301252703828624
0.04163637461230236
0.06410230579690591
0.1058848792303765
-0.09821273513267649
0.2128799996616302
0.01179656867766972
-0.1183831580184778
-0.0996325961832957
0.09649382293300005
0.003138775754607837
0.01168467093610494
-0.02373825583930225
0.03752325237899914
-0.03752325260789136
0.07534902936749865
-0.05519992578466714
0.05519992533184272
-0.2244189441776616
-0.05321688728904887
0.01159611669244918
-0.1030528535825389
0.01655712712066584
0.1087080251624415
-0.1087080238095458
0.2941960179270638
-0.2710703064970543
0.1623649268005813
-0.05108311657361198
-0.21998718334675
-0.01707377101615779
0.01707377177454372
0.3676028359576223
0.2851938283401026
-0.5279987392589126
-0.09395576628099721
-0.03256486897286708
0.5289237159289394
0.2116604357329251
-0.1703641221901526
-0.3795155990258358
0.07648682070386986
-0.1473318470201791
0.1868760612012261
-0.03954421494325182
-0.06707164632960211
0.06707164734475894
0.8223490558631718
-0.5604936221254907
-0.006389970139879545
0.01807464256783424
-0.01999795590673061
-0.2872370942680657
-0.01749901382101998
-0.01282198361725724
-0.1321011057708217
-0.5722358835592422
0.5561125954887991
-0.5693492903073102
-0.006867483099046925
0.1020061472633465
-0.001697654151966555
0.01687890609889819
-0.1673298056073613
-0.3361773677368563
0.2331245145162682
-0.05415601999184315
0.03506387149195964
0.1319775874369304
0.1735566877059035
0.3402605856260201
0.2760356147668578
-0.2777332677786233
-0.06140514099715267
-0.1552595019046734
-0.2206898494751442
0.07460549036189794
-0.01050318289235078
0.2135831204860172
-0.19670421372955
-0.08629253983329176
0.1593050653529359
-0.3554022609778321
0.2080436570366924
-0.1914865301905301
0.08957225564287505
-0.4789673569721786
0.1740540755496223
0.1705368512892214
-0.256829386895234
0.07329802316111911
-0.194784865635283
0.1772858512984011
0.01740935370739517
0.1418957076139193
-0.03956906699799773
0.06571658118479998
0.4672238568580152
0.02044947651848494
-0.08414120638859456
0.05368366178291656
0.1263425319178658
-0.2602340748687173
-0.2309045234172288
0.5597427030529533
0.1571698973085287
0.07871624516315139
0.07476003542041042
-0.03097066248287232
-0.01095722268438897
0.006911439669787861
-0.03270461854333964
0.1707679199384555
-0.1776354023483334
-0.06203409205712857
0.02027954458252636
-0.1471527206103588
-0.05288915106673187
0.1508458868129182
0.2770470908104163
-0.03908022628899585
0.01108350281498563
-0.2555302349846826
-0.1327709384258903
0.2361926508850853
0.1784684926599261
0.1298012961573502
0.02209659778299311
0.08861356429517116
0.05242733281340931
0.452708286948791
0.01493534989995578
0.09779744365363427
0.04320779379938941
0.07213393531417941
-0.1153417312124991
-0.2428049121003634
-0.2005650919491072
-0.0194220875208901
-0.20192026712773
0.2749523187247666
)
;

boundaryField
{
    FrontBack
    {
        type            empty;
    }
    Top
    {
        type            calculated;
        value           uniform 0;
    }
    In
    {
        type            calculated;
        value           uniform -1;
    }
    Bottom
    {
        type            calculated;
        value           uniform 0;
    }
    Out
    {
        type            calculated;
        value           nonuniform List<scalar> 10(1.033568980210954 1.0641043758677 1.022467103922187 1.020314233857847 0.9951872100153545 1.016047879096465 1.036135688292098 1.062903746846874 0.8672381366056137 0.8820327166285956);
    }
    circle
    {
        type            calculated;
        value           uniform 0;
    }
}


// ************************************************************************* //
