/*--------------------------------*- C++ -*----------------------------------*\
| =========                 |                                                 |
| \\      /  F ield         | OpenFOAM: The Open Source CFD Toolbox           |
|  \\    /   O peration     | Version:  2412                                  |
|   \\  /    A nd           | Website:  www.openfoam.com                      |
|    \\/     M anipulation  |                                                 |
\*---------------------------------------------------------------------------*/
FoamFile
{
    version     2.0;
    format      ascii;
    arch        "LSB;label=32;scalar=64";
    class       volScalarField;
    location    "1649";
    object      yPlus;
}
// * * * * * * * * * * * * * * * * * * * * * * * * * * * * * * * * * * * * * //

dimensions      [0 0 0 0 0 0 0];

internalField   uniform 0;

boundaryField
{
    FrontBack
    {
        type            empty;
    }
    Top
    {
        type            calculated;
        value           nonuniform List<scalar> 
15
(
142.2821402474023
133.5846174808654
138.0702723435032
144.4116460628338
159.7729965096582
131.3688043065895
140.1354837233056
135.3632442584799
153.4440836109644
135.739292825373
136.0976485080378
136.7688022246796
125.2585522520305
132.9087865790225
123.9495870598978
)
;
    }
    In
    {
        type            calculated;
        value           uniform 0;
    }
    Bottom
    {
        type            calculated;
        value           nonuniform List<scalar> 
15
(
155.5654808271275
158.1166707152171
141.0825008545128
142.0499453205972
141.1779095178563
148.4282364946013
142.6984658238671
143.1549047936158
143.4232800256502
134.0544504981339
125.7271367082705
141.5514017190822
122.4080100446786
123.4895834088778
124.132769644213
)
;
    }
    Out
    {
        type            calculated;
        value           uniform 0;
    }
    circle
    {
        type            calculated;
        value           nonuniform List<scalar> 
32
(
56.30087476025626
22.26431286686061
65.33105890931485
23.48618946198152
19.15502826412482
56.1383504528198
56.78817118398607
24.01998948099184
22.40280949836469
65.55878378412159
40.10254546257784
63.04769894089011
50.34643717729847
14.17546675380727
23.72421524828306
18.30480993954356
38.95951820562208
59.60698377708657
60.97863033135977
24.30154410264458
65.70015778162046
63.84565913116636
62.94907792523228
59.95286746288126
64.07459603176883
45.90817005291029
66.34728397158017
32.006181542822
38.06024941919468
55.78868086724562
20.94321663159564
43.19421729457607
)
;
    }
}


// ************************************************************************* //
