/*--------------------------------*- C++ -*----------------------------------*\
| =========                 |                                                 |
| \\      /  F ield         | OpenFOAM: The Open Source CFD Toolbox           |
|  \\    /   O peration     | Version:  2412                                  |
|   \\  /    A nd           | Website:  www.openfoam.com                      |
|    \\/     M anipulation  |                                                 |
\*---------------------------------------------------------------------------*/
FoamFile
{
    version     2.0;
    format      ascii;
    arch        "LSB;label=32;scalar=64";
    class       surfaceScalarField;
    location    "29.5";
    object      phi;
}
// * * * * * * * * * * * * * * * * * * * * * * * * * * * * * * * * * * * * * //

dimensions      [0 3 -1 0 0 0 0];

oriented        oriented;

internalField   nonuniform List<scalar> 
1171
(
-0.945713
0.945713
0.778308
-1.08256
0.304256
-0.287577
-0.811088
1.09866
0.0542866
-0.065967
-0.273823
0.33979
-0.778308
0.0804077
0.697901
0.921051
-0.195681
-0.72537
0.835504
-1.03691
0.201406
-0.352302
-0.0362028
0.388505
0.00158896
0.59931
-0.600899
-0.57515
1.03202
-0.45687
-0.418269
1.00485
-0.169342
0.271327
0.0876043
-0.358931
0.993506
0.0113397
0.328439
-0.057112
1.0209
-0.0273892
0.718866
-1.00644
-0.789367
0.61604
0.173327
0.318825
-0.893974
0.561474
-0.915978
0.354504
-1.07996
0.669116
0.410846
-0.642206
0.643795
0.0362953
-0.256494
0.220198
0.015601
-0.644181
0.62858
0.465027
-0.50123
-0.847397
0.900545
-0.0531475
1.01029
0.010609
0.927449
-1.08275
0.155296
1.04203
-0.0317467
-0.698428
-0.0909387
1.25814
-0.864871
-0.393265
0.194636
-0.0686645
-0.412547
0.481212
-0.274733
0.182081
0.0926519
-0.600819
-0.481745
0.981355
-0.0539055
-0.0180645
0.866793
-0.848728
0.502784
0.755351
0.530646
0.0256889
0.439338
-0.785484
-0.107752
0.893236
0.606534
0.236289
-0.842823
-0.00592659
0.646519
-0.640593
-0.508894
-0.571068
-0.391661
-0.691084
0.0270068
0.243701
-0.270708
-0.946933
-0.0345904
0.981523
0.3701
0.0184048
0.866043
0.0550077
-0.603573
-0.0386327
0.0400057
-0.82549
0.16982
0.933972
-1.10379
-0.407889
0.0246142
0.383275
-0.717185
-0.229748
-0.763276
0.933096
0.620661
0.411358
-0.575211
1.00118
-0.82343
-0.177748
0.0165217
-0.116747
0.100226
-0.456234
-0.0449953
-0.335407
0.956068
-0.0153198
0.434296
-0.418976
-0.508769
1.1153
0.709851
-0.817603
0.379451
-0.0682023
-0.311249
0.766038
-0.766038
-0.965639
0.0405302
-0.314353
-0.694871
0.676806
-0.03362
-0.142406
0.176026
0.884216
-0.0174228
1.05522
-0.818935
0.220987
-0.317412
0.096425
0.992704
-0.12666
-0.678376
-0.0555986
0.733974
0.150937
-0.233983
0.0830463
0.811318
-1.007
-0.445821
0.311974
0.133847
0.665743
-0.650142
0.885919
-0.401208
-0.484711
0.494258
-0.69476
0.0377325
0.657028
0.149881
0.674725
0.0400951
-0.71482
0.134739
-0.0942087
-0.516318
0.108429
0.037308
-0.907618
0.87031
-0.556577
-0.761607
0.0631785
0.496076
-0.0567379
0.273943
-0.832289
0.558345
0.42432
0.57568
0.599078
-0.559072
-0.364131
-0.0217884
0.38592
0.539689
0.226349
-0.677747
0.67182
0.0835286
0.891726
0.00638762
-0.684763
-0.766462
0.80377
0.619127
0.128576
0.339143
-0.467719
-0.156374
0.527806
0.118713
0.736014
-0.801054
0.06504
0.658332
0.342846
-0.429228
0.722224
-0.593648
0.409526
0.151948
-0.0588529
-0.61124
-0.2242
0.83544
-0.116484
-0.649554
-0.613275
0.365479
0.247795
0.663362
-0.656974
0.30617
1.04334
0.0118838
-0.766462
-0.0773735
0.0938952
0.709851
0.788314
-0.788314
0.84444
-0.831168
-0.0132717
-0.454955
0.879275
-0.194728
-0.32159
0.762135
-0.668258
-0.0938774
-0.882122
0.270882
0.106421
-0.709994
0.817603
-0.973976
-0.175272
0.15184
0.0234327
0.112083
-0.994847
0.882763
0.542009
-0.011363
-0.290658
0.596751
-0.306093
-0.655915
0.767998
-0.160068
0.770841
-0.707342
-0.0634995
1.12755
-0.609392
-0.518153
0.729461
-0.0687239
-0.0226103
0.0218909
0.00071942
-0.80024
-0.812933
0.00184543
-0.694871
0.577822
-0.553208
0.0528935
0.642748
-0.695642
0.779734
0.165979
0.492126
0.507874
-0.0785808
-0.633653
0.712234
0.751312
-0.0152974
-0.729461
0.80377
0.178762
-0.435256
-0.007173
-0.0145309
0.0217039
0.679853
-0.441282
-0.238571
0.697901
-0.0120123
-0.0420918
0.558726
0.121127
-0.00616151
0.00266902
0.00349249
0.00118118
-0.0237915
0.133696
-0.201899
-0.948382
0.0484935
-0.144612
-0.0415759
0.132795
0.779896
0.743391
-0.167711
0.383287
-0.330393
-0.163599
0.384586
0.644031
0.0538696
0.228714
-1.05988
-0.973976
0.313362
0.676806
-0.160195
0.0177888
-0.828389
0.982848
-0.154459
0.487676
-0.104401
0.801586
0.30524
0.306685
0.0217542
-0.680714
0.680714
0.226565
0.666671
-0.00973492
0.444031
0.471477
0.0381985
-0.0453715
0.553553
-0.0115441
-0.655915
0.571525
0.19061
0.0121705
0.00972046
-0.644031
0.154147
0.828701
0.0126438
-0.717391
0.704748
0.759339
-0.823115
0.0637758
-0.779734
-0.0359888
0.0486849
-0.0126961
0.0840221
-0.124465
-0.107546
0.232011
-0.008042
0.00188049
0.747528
-0.734884
0.913923
0.184742
-0.429205
-0.550808
0.980013
-0.000521629
0.000521629
0.130051
0.401708
0.667393
-1.0691
-0.192096
-0.561389
0.753484
-0.0172588
0.193285
0.386212
-0.235275
1.12511
-0.723399
0.801609
0.943518
-0.276125
0.191483
0.767998
0.598656
0.258697
0.641848
-0.649554
0.319286
0.00628572
-0.0138939
0.00760822
0.836872
0.133447
-0.970319
-0.571267
0.53952
0.545045
-0.571267
-0.598656
0.53952
-0.0120038
1.07284
-0.158913
-0.539689
0.459474
0.0802149
0.506889
0.68578
-1.19267
0.43548
0.689627
0.733474
0.456236
-1.18971
0.342746
0.600771
0.459474
-0.525255
-0.567413
-0.661729
-0.374609
-0.0645936
-0.00361531
0.00361531
0.560133
0.599119
-0.973728
0.719438
-0.380295
-1.01714
0.407752
-0.691117
0.461369
0.00637673
-0.914591
0.908215
0.452733
-0.038843
0.875715
-1.19248
-0.976303
0.081343
0.89496
0.43586
-0.142866
-0.292994
0.780813
-0.834718
1.09244
-0.943586
-0.148851
-0.105161
-0.695893
-0.130788
0.792756
-0.661969
-1.05581
0.950649
-0.461892
0.654248
-0.192356
-0.874903
0.15833
0.716572
0.00392215
-0.00444378
0.425892
0.100044
-1.0092
0.909155
-0.760999
0.682418
0.986064
0.179677
-1.16574
0.0097613
0.00850857
0.377411
-0.358278
0.0408653
0.928038
-0.921661
-0.690161
-0.913274
0.217382
-0.105847
-1.0028
0.0592131
0.525391
-0.142105
0.246396
0.189464
-0.522163
0.680493
0.484711
-0.953434
-0.876133
0.196702
0.0340682
0.546878
-0.580946
-0.0945842
-0.656093
0.579989
0.179351
-0.0247155
0.90043
1.03199
0.998591
-0.939378
0.0461574
-0.0461574
-0.0914159
-0.349781
0.206915
0.335447
-0.0220855
0.294673
0.805846
-0.0096448
0.00160281
0.658193
0.341807
0.797366
-0.600819
-0.765066
-0.447499
-0.486373
0.486373
-0.205632
-0.10872
0.699711
-0.959372
0.259661
-0.493551
-0.552593
0.353247
-1.04433
-0.975583
0.826732
-0.510756
0.728137
0.692055
0.168827
-0.860883
-0.639855
-0.169464
0.830266
-0.660803
0.169737
-0.00916667
0.00382868
0.005338
-0.102698
-0.247083
1.05296
0.745605
-0.429791
-0.315814
0.452612
0.741167
-0.514602
0.0099946
-0.284728
0.137519
0.760123
-0.897642
-0.352276
-0.089179
0.13654
-1.0137
0.0433791
-0.790544
0.0476582
0.75951
-0.807169
-0.851255
0.060711
0.685051
-0.77423
0.237496
-0.361961
-0.482071
-0.157784
0.370382
0.742698
-0.0204735
0.00568227
-0.00568227
-0.000946284
0.0332408
-0.0269551
-0.0168739
0.00722914
-0.624175
0.322827
0.815758
-0.814518
-0.00123978
-0.697314
0.744972
0.761008
-0.0759568
-0.701098
-0.150157
-1.15528
0.0204892
0.0256682
-0.486657
-0.831886
-0.879872
0.486607
-0.153157
0.128496
0.0246605
-0.426262
-0.0603942
0.475187
0.71248
-0.0395439
-0.00203202
1.17148
0.511608
0.21936
-0.730968
-0.444681
0.0184188
-0.0100861
0.000919394
0.681159
-0.905359
0.00615382
-0.00615382
-0.728157
0.709483
0.0186735
-0.198286
-0.0990592
-0.702744
0.116849
0.595385
-0.0532476
-0.872208
-0.122306
0.062786
0.0595197
0.762724
-0.763964
0.348272
0.265595
-0.613867
-0.150727
-0.702272
-0.104897
-0.216549
-0.00545664
0.468789
-0.513784
0.195875
0.723568
-0.919443
0.494258
-0.0939118
-0.0592452
0.255402
-0.260858
0.598637
-0.0950956
-0.503541
-0.282933
0.302878
-0.0199455
0.617823
0.101615
0.058736
-0.30921
0.166697
0.142513
-0.205757
0.128384
-0.256614
-0.0496442
0.0431784
0.00646583
0.844988
-0.271161
0.0728752
0.552856
0.24978
-0.679571
0.410144
-0.410144
-0.201485
-0.390685
-0.212281
-0.390685
-0.679134
-0.84968
0.181423
-0.0642458
0.729133
0.045429
0.143716
0.598982
0.109031
0.117867
0.00947362
-0.12734
-0.00145982
0.728163
-1.01585
0.465043
-0.020756
0.0839075
-0.0631514
-0.736759
-0.174568
-0.60561
0.824969
-0.538056
-0.013618
-0.24724
-0.333334
-0.0817992
0.0817992
0.0441616
0.00452323
0.138356
0.25688
-0.761539
0.155929
-0.03465
0.470747
0.529253
0.741154
0.033676
-0.00415132
-0.0295247
-0.293958
-0.57825
-0.578818
0.111799
-0.117109
0.00531036
-0.122185
-0.416686
-0.0438405
0.639225
-0.573843
-0.162917
-0.130365
0.0503689
0.173472
-0.390787
-0.196159
-0.184525
-0.0173733
-0.4866
0.43545
0.0511506
-0.13125
0.293262
-0.86433
-0.541493
0.637765
-0.856363
0.705636
0.452539
-0.0309706
0.057096
-0.0261254
-0.018992
-0.636364
-0.000285171
0.636649
-0.893902
0.638952
-0.730368
-0.189119
0.00762496
-0.00762496
-0.299215
0.421159
-0.0437476
0.0251928
0.00848326
0.598653
0.604058
-0.539018
0.0106619
0.00721525
-0.00153297
0.00405904
-0.00405904
-0.510277
0.611892
0.0129532
-0.0129532
-0.775702
-0.00942216
0.0133443
-0.549583
0.705512
0.632342
-0.613668
0.0687839
-0.0687839
-0.034393
-0.0109785
0.00875975
-1.01669
0.498541
-0.485617
-0.00444378
0.596063
0.0152977
-0.611361
-0.705827
0.131984
-0.318212
-0.0141377
0.33235
-0.0267883
-0.0127556
-0.605239
-0.0311244
0.0256682
0.00575093
0.000402885
-0.00335893
0.00335893
-0.31919
0.325655
-0.458074
0.135659
0.661707
-0.131986
-0.0018536
0.0018536
0.50848
-0.201323
0.00814659
0.0180432
-0.000384745
0.52217
-0.723493
-0.618773
0.691649
-0.0644581
0.324574
0.765113
-0.000946284
-0.0958656
0.105586
-0.637177
0.556227
-0.353087
-0.109764
-0.0252505
-0.025456
-0.0210253
0.459933
-0.0865921
-0.416949
0.688213
-0.000443729
0.00695685
-0.00695685
-0.137659
-0.0623091
-0.573935
0.619364
-0.138516
0.510159
-0.21824
0.937106
0.788874
0.00575093
-0.838047
0.746782
0.0700669
-0.0713917
0.00132484
0.560399
0.0956883
-0.0121995
0.0672074
-0.0550079
0.0088406
-0.0088406
-0.754078
0.0226265
-0.0441472
0.0621904
-0.08737
0.08737
0.00721524
-0.00279988
0.720255
0.108446
-0.31961
-0.0970751
-0.519385
-0.0602985
-0.0673906
0.0673906
-0.0639177
0.0805559
-0.0805559
0.0267757
-0.0267757
-0.35362
-0.0756071
0.24278
0.0691936
0.0493303
-0.737536
-0.0626698
0.162319
0.0164427
-0.249104
0.0802179
-0.0802179
-0.46534
-0.0484448
0.233389
-0.0131908
0.00239201
-0.642246
0.65425
-0.00897011
-0.0549476
0.0563805
-0.067359
-0.011772
-0.155632
0.167404
-0.151859
-0.210102
-0.0821938
0.0821938
0.0559861
-0.0559861
-0.0304996
-0.0945559
0.125056
-0.00674305
-0.186508
-0.0159999
0.0144669
-0.237242
0.562897
-0.0258131
0.46827
0.00556986
-0.00207737
-0.0515246
0.0515246
-0.730653
0.320749
-0.129266
-0.21036
-0.0236234
-0.0169428
0.0193349
0.202195
0.029816
0.000263454
-0.000648199
0.0821605
0.0296385
0.0545726
0.107747
-0.00230899
0.000276969
0.000803034
0.00492015
0.00638766
0.00823422
-0.0146219
0.000258392
0.00512613
0.028824
-0.028824
0.0502646
-0.0411041
0.0411041
-0.191581
0.00284278
0.025288
-0.0754317
0.0179351
0.076053
-0.076053
0.253345
-0.240111
0.0882516
-0.0679146
-0.172196
-0.0172382
0.0172382
0.405288
0.25174
-0.517219
-0.081032
-0.0360774
0.540947
0.0496375
-0.0660497
-0.444753
0.0919563
-0.155183
0.171757
-0.0165735
-0.0464144
0.0464144
0.857069
-0.594113
-0.0123793
0.0126377
-0.00557084
-0.283288
-0.000337936
0.00517621
-0.0448809
-0.624366
0.567829
-0.674622
0.0148032
0.211301
0.015866
0.0247488
-0.160754
-0.336426
0.260995
-0.0576617
0.0271621
0.16941
0.133468
0.234374
0.267025
-0.251159
0.00679055
-0.113878
-0.224497
0.0692476
-0.014675
0.162508
-0.137759
-0.0687005
0.150861
-0.409027
0.122922
-0.104987
0.0586158
-0.475565
0.176933
0.174862
-0.243563
0.00538958
-0.175916
0.175578
0.00416493
0.146696
-0.0281509
0.0514201
0.45706
0.0115858
0.0242707
-0.00895364
0.0367344
-0.241071
-0.202579
0.590197
0.171877
0.0615117
0.0807514
-0.0626903
0.0383991
-0.0370743
-0.0301914
0.168113
-0.15331
0.00324546
0.00208764
-0.104714
-0.0292196
0.00352243
0.252252
0.00778604
-0.0289599
-0.314502
-0.00991281
0.215727
0.141473
0.179276
0.0575206
0.0992424
0.0576401
0.541013
-0.0138189
0.101049
0.0448663
0.0642283
-0.109095
-0.265479
-0.198994
0.0267975
-0.223312
0.287705
)
;

boundaryField
{
    FrontBack
    {
        type            empty;
    }
    Top
    {
        type            calculated;
        value           uniform 0;
    }
    In
    {
        type            calculated;
        value           uniform -1;
    }
    Bottom
    {
        type            calculated;
        value           uniform 0;
    }
    Out
    {
        type            calculated;
        value           nonuniform List<scalar> 10(1.16895 1.03214 1.22914 1.03237 1.14202 0.97538 1.15925 1.04614 0.611629 0.602966);
    }
    circle
    {
        type            calculated;
        value           uniform 0;
    }
}


// ************************************************************************* //
