/*--------------------------------*- C++ -*----------------------------------*\
| =========                 |                                                 |
| \\      /  F ield         | OpenFOAM: The Open Source CFD Toolbox           |
|  \\    /   O peration     | Version:  2412                                  |
|   \\  /    A nd           | Website:  www.openfoam.com                      |
|    \\/     M anipulation  |                                                 |
\*---------------------------------------------------------------------------*/
FoamFile
{
    version     2.0;
    format      ascii;
    arch        "LSB;label=32;scalar=64";
    class       surfaceScalarField;
    location    "1483.5";
    object      phi;
}
// * * * * * * * * * * * * * * * * * * * * * * * * * * * * * * * * * * * * * //

dimensions      [0 3 -1 0 0 0 0];

oriented        oriented;

internalField   nonuniform List<scalar> 
1171
(
-0.9279329909398084
0.9279329909884415
0.7872941076527158
-1.098778246237862
0.3114841383298356
-0.1947964853823137
-0.7663813034087887
0.9611777888657502
0.0720670121757125
-0.117090041001796
-0.2117946247538869
0.3288846666274834
-0.7872941197284796
0.06935123626026136
0.7179428834515348
0.8110595397379388
-0.1774259665346781
-0.6336335730857438
0.874362972026428
-1.043561489366974
0.1691985172904691
-0.2848080263788995
-0.0975881278782802
0.3823961538102135
-0.03589107197857388
0.5484218075565753
-0.5125307354832336
-0.5045513127393489
0.8271930361303346
-0.3226417234975207
-0.4018980726481368
1.045840061660894
-0.1714770900395327
0.3957682581934047
0.04789541514303246
-0.4436636717325282
1.046387427426918
-0.0005473663307686189
0.4454980946861772
-0.04972983360380998
1.057005027516745
-0.01061759791217141
0.5775741036760998
-0.7723705943143401
-0.7244446309324667
0.5571840151658325
0.1672606158757269
0.2217332835373949
-0.726284588933965
0.5504302468836954
-0.9227531459864985
0.372322900096318
-1.094168578795413
0.686379638926882
0.4077889397454467
-0.5953584015472376
0.5594673220930346
0.01819831918759063
-0.2569569840889544
0.2387586659838395
-0.02460432082608371
-0.5222223133909815
0.5468266349312075
0.3999648058506384
-0.4975529395147434
-0.918745246842581
0.941410877253637
-0.02266563045170448
1.067636886799135
-0.01063185794248622
0.935180827750477
-1.11694561864402
0.1817647910008201
1.06726532870846
0.0003715612408349868
-0.6643395292266929
-0.06010510414667051
1.262161506508173
-0.8643723016628931
-0.3977892048355692
0.1485200858790581
-0.1088925106122887
-0.3260505709125282
0.4349430811206185
-0.2857579612142964
0.1910204150092806
0.0947375456780245
-0.58339608419242
-0.5153821562048139
1.014070616448792
-0.07888978816616485
0.00994354243122058
0.8254321644032494
-0.8353757069043428
0.5718524921277288
0.6903090118448801
0.4395292927525635
-0.03032677963078974
0.4302915858354867
-0.8076621559934885
-0.1025971171503959
0.9102592732531515
0.5026833718266952
0.2537517709667088
-0.7564351427987248
0.00401516574579709
0.5287505767049581
-0.532765741681143
-0.4898589521527043
-0.6043096259477301
-0.4229043571334412
-0.6940412618817816
-0.02729851770170936
0.2701687856551949
-0.2428702690493206
-0.9248444676922036
-0.005167960626773516
0.9300124282407034
0.3080304760981288
0.07436567238724995
0.7624148983882364
0.04864464619126818
-0.5330973502194923
-0.06226105268234203
0.04633726133985254
-0.8539994173242218
0.07587017677967432
0.8621705396314362
-0.9380407164490761
-0.3473884089030223
-0.04132714223520614
0.3887155508381896
-0.6823896900626296
-0.2424547824649769
-0.6313332780183393
0.7072034564070733
0.6091105763761119
0.2180824664616798
-0.5428575222453025
0.9461874442112721
-0.7794279443781168
-0.1667594999006879
0.02260502897918125
-0.01603936588660824
-0.006565662324591967
-0.402927548121111
-0.09462539105189012
-0.2416976831677968
0.8508082640754046
0.04639095341985513
0.3349460558058842
-0.381337009803876
-0.4603486968562808
0.9630320735975842
0.6800913079609132
-0.7826884241781907
0.3190559952258107
-0.01679285902830293
-0.3022631368422254
0.9306763637356354
-0.9306763637585448
-0.7829904098247287
0.1108538061417013
-0.3226484346388043
-0.7500514200329907
0.7599949597378927
-0.09041981344555955
-0.1428082188255485
0.2332280313816919
0.864983209241279
-0.03955104903329594
1.054329499107366
-0.8005777212910876
0.1859744974494191
-0.3154923562480234
0.129517859098515
0.8593674465344201
-0.0969525467490651
-0.6118116234661002
-0.03932488929573497
0.6511365127191783
0.1238655987826535
-0.2311539721723482
0.1072883746900141
0.8056669873727471
-0.9830929498678498
-0.4353754444012229
0.3296224640110598
0.1057529811321442
0.5315118732848522
-0.5561161927301399
1.022117623924607
-0.4562585233282365
-0.5658591006263527
0.5992132671354233
-0.7193418437378477
0.06675282488683473
0.6525890184651715
0.1029323101179054
0.5705296643202356
0.05477615913894917
-0.6253058232709405
0.1942161783153874
-0.08336236846979464
-0.4932184248357681
0.1458300164501724
0.05036297378133141
-0.8868524712084974
0.8364894975165361
-0.4743269053439
-0.7134747636579858
0.04913523346071606
0.4366381768844819
-0.00634659411697317
0.2998848038393445
-0.8552495955516969
0.5553647919012716
0.41571438369902
0.5842856164032942
0.5605567731353274
-0.5142195079628641
-0.3654469435500821
0.03492580876626539
0.3305211315188777
0.6813707345978344
0.2493056286354385
-0.5662562413859117
0.5702714085143658
0.110587602793068
0.8750182326795533
0.0102543765183673
-0.6220660025262408
-0.7493337509625061
0.7996967257815322
0.5312047691091129
0.07129391653028301
0.3014906262606246
-0.3727845425200463
-0.1676197779976618
0.4417364118414387
0.08701415433562143
0.8760144914533398
-0.7973798050271448
-0.07863468634759227
0.6354784138052839
0.3107090286747891
-0.4302260655017314
0.5755115012246754
-0.5042175848435734
0.4171771205655463
0.1332531294287271
-0.04691127961150478
-0.5898829022538821
-0.1379990785987479
0.7278819808711677
-0.1496983095626469
-0.7809780571275166
-0.611035929152889
0.3607174888931939
0.2503184389338857
0.6222915688938643
-0.6120371923483607
0.238464857564942
1.011453758740843
0.04287574164678249
-0.7493337482457096
0.2229301572434379
-0.2003251311767937
0.6800913066639843
0.8021306639569552
-0.8021306640515752
0.8377172345476241
-0.8333354316826657
-0.004381802780068729
-0.4453821960363292
0.8610965785939387
-0.1476354101181647
-0.3455830176160024
0.7347139949717307
-0.6684660821743941
-0.06624791287127706
-0.7314298444935408
0.1415469424453732
0.1387171149102272
-0.6718144649870259
0.7826884142534204
-0.9503081923172697
-0.3650928230610799
0.2893525330741734
0.07574028793939518
0.1459296783157022
-1.009531239590431
0.8636015613114221
0.4808462951314433
-0.04131700247641932
-0.3081845135953791
0.5864616810495875
-0.2782771672851002
-0.7383066012922707
0.8842362781541218
-0.1571363776697859
0.7346401440991337
-0.8393375297860175
0.1046973856321947
0.9778336845836596
-0.5419482093017758
-0.435885475383555
0.755219386730262
-0.06488198997610468
-0.03440285086675289
0.1879125851102971
-0.1535097346442569
-0.7757358136354129
-0.845903234254747
0.07952192510359311
-0.7500514210744156
0.5140616829704286
-0.5553888288025627
0.08981282308144344
0.7192345076415617
-0.8090473305648166
0.7537155399711184
0.1742174678101183
0.5028766065323722
0.4971233934398346
-0.05175036637587545
-0.6059279527824792
0.6576783198997632
0.8808482111247371
-0.004833716293659786
-0.755219386709767
0.799696726047687
0.1910361862671223
-0.4479931674420169
0.02027545694358014
0.001234486995478895
-0.02150993943571307
0.5892506334886134
-0.4384520825546016
-0.1507985503209102
0.7179428908207751
0.01406090095639547
-0.1112630887311864
0.4374094853606162
0.1518411489365678
-0.01368453576252401
-0.006034107458667609
0.01971864255527337
-0.03368868592095208
-0.0007141708439130693
0.2432698925418434
-0.2600627436940549
-0.9592670422819409
0.001922516372654207
-0.1595703162435159
-0.121822936012968
0.09463671386256953
0.7213343970351207
0.7290360165572064
-0.1447504002948196
0.6610659176623078
-0.571253095745002
-0.2118286114981276
0.397803108709995
0.6954308593696281
0.02251203142025898
0.2416063743879404
-1.074941804180154
-0.9503081938579503
0.3016838824811843
0.759994957057027
-0.2086653928646418
0.06585717532421474
-0.7232569145839496
0.9096290572214478
-0.1863721426482037
0.4162705457097997
-0.02755500142989159
0.7716075098132713
0.2806581564763378
0.3720527665702935
0.07344532106641158
-0.6586914611362503
0.6586914611139703
0.2147276666281204
0.6955316075639754
-0.05487043124671282
0.3898164936023711
0.3800726522518726
-0.01413543253098337
0.03441087627217423
0.4494414319656495
0.03140485987382642
-0.7383066017480514
0.5341294327760843
0.2005845639488949
0.3060194682745683
-0.1181068853127532
-0.6954308608935804
0.1799599287077547
0.7296691295171013
-0.01022066608227407
-0.8136806365352469
0.8239013026076847
0.6962784421579725
-0.7920891138830685
0.09581067180490359
-0.7537155461933964
-0.150148211460743
0.211176291335417
-0.0610280808384582
0.07724685725976953
-0.1796967520972472
-0.1125806204893918
0.2922773739936907
-0.007425537480715757
-0.006259007400726381
0.7065745481775567
-0.7167952216330815
0.8846375520565717
0.07654023222380087
-0.3154413150175201
-0.5174044951507046
0.8328458100334559
0.103262269053225
-0.1032622658500136
0.3242783448395506
0.4753252788827655
0.6150895344195662
-1.090414813264047
-0.1941358590421414
-0.5856700931660161
0.7798059522301408
0.01302026498866665
0.2202077725100753
0.3772376280708489
-0.2533720184090066
1.012928954171907
-0.5376036718888003
0.6644361228848193
0.9945356339209446
-0.3794460960071968
0.2296022150453233
0.8842362768034275
0.7127591873534526
0.2136865263829459
0.7277243538436798
-0.7809780577209907
0.3413085499495979
-0.2762425151527871
0.2445348678476496
0.03170764533901208
0.8477594674723989
-0.01193053892058325
-0.8358289282584682
-0.7021415923176793
0.7025131554946661
0.5546178054397006
-0.7021415912697847
-0.7127591873669604
0.7025131565702954
-0.03474435888026761
0.9051391342889017
-0.0205015852863236
-0.6813707246829867
0.6123601297617794
0.06901059490935413
0.5388176618820621
0.5370394072883743
-1.075857069147667
0.4919927131427463
0.5209362421854594
0.5427850768148087
0.4596605226007102
-1.002445599357889
0.4982260024460353
0.4963096328427507
0.6123601229230837
-0.5255541613730261
-0.4651131568461057
-0.5563991049613793
-0.5194915826532018
-0.120103025263651
-0.01220669759747752
0.01220669643248972
0.5127205258849438
0.5229648345179216
-1.04245641705179
0.5753878196448843
-0.2738971942979151
-0.8854830057841422
0.3435347960001823
-0.6330028912378324
0.3905481071406572
0.002306895127568599
-0.8301893193443384
0.8278824241187671
0.4208514944472828
-0.01728259149780817
0.8650420589771848
-0.9467745884474494
-0.8345099505217272
0.05490476192872525
0.779605188453534
0.56198325802993
-0.4383012373807488
-0.1236820205308365
0.6499980148550112
-0.7288878035910109
0.8850550870887565
-0.8326189343986339
-0.05243615296379656
-0.009141982404721841
-0.7882378194488485
-0.109651977219327
0.7143170658324401
-0.6046650886059234
-0.9360107156254956
0.9268687334725304
-0.7293272461182112
0.6917829461523912
0.03754429990289695
-0.8097553421741825
0.03852290885137707
0.7712324332261014
0.06166432522310401
0.04159794080668961
0.4331379308272196
0.06171949122532581
-0.8512401151245277
0.7895206240096492
-0.6425777720380201
0.590827406905397
0.8903859246193118
0.0699551170071826
-0.9603410416078078
0.05587597109331905
-0.04741686496638158
0.3779379981510383
-0.3812925864611378
0.06580023227992635
0.8423347781234144
-0.840027880980758
-0.7332151153158227
-0.8103159611283642
0.02207814181623711
-0.1641915436263905
-0.8527034753313965
0.02008454598520339
0.6246298593423775
0.03643605719364226
0.03111151404195779
0.5308717466114677
-0.8064087375378546
0.8449316430344898
0.5658590996957275
-0.8474719083247879
-0.8660556006406473
0.03908352963899918
-0.03808975631657614
0.8380680632638241
-0.7999783070092685
-0.0248210463939201
-0.7713048727995488
0.5443528942395099
0.1519255428523925
-0.03165932469986577
0.8967013841593227
0.9817734938201714
0.8618719646846421
-0.8417874168337662
0.147437892456131
-0.147437890825957
-0.1187067105050556
-0.4825339685958635
0.04423273291672381
0.270749399909344
0.03093448219413039
0.3861136696121614
0.871880336518931
0.00361022663615349
-0.01103577273606901
0.6586126064505297
0.341387393531336
0.7835347537025211
-0.5833960818599339
-0.7780656902227476
-0.8119088484121748
-0.6798475300367196
0.6798475300247269
-0.1677295121906081
-0.1549189248965564
0.6017241089854043
-0.8122137143114114
0.2104896052921717
-0.4937102350301488
-0.569012737672221
0.2782234386039324
-0.9722647001989346
-0.9018597221541187
0.8494235757161213
-0.8149522605468966
0.8370304016130039
0.6487172717399762
0.1343647430705789
-0.7830820147830143
-0.774364547026869
-0.1459093634852246
0.7242845082088752
-0.5783751446676515
0.0299793829625351
-0.01509604614457668
0.01858295568638147
-0.003486910690042905
-0.3553162839053485
-0.1272176899162367
0.8799475449256641
0.7429558264821712
-0.2447818816647669
-0.4981739441260212
0.6192737992655505
0.6852586335248733
-0.4705309657610731
-0.0007107350717497291
-0.2850472262540066
0.02595954991071047
0.7455304536286931
-0.7714900037786748
-0.3235474309800918
-0.07230636134792361
0.07560960091806916
-0.9600249460009781
0.1241960167810565
-0.6778489752793903
0.05172769065888591
0.6412071005821371
-0.6929347912307178
-0.756779011605782
0.0789300363186542
0.5881383396216414
-0.6604447010611779
0.1566420912793482
-0.3363388426820108
-0.7707765643369647
-0.003587982622322407
0.3712376272016014
0.6015249529536122
-0.02601345485569682
0.02349856046010728
-0.02349856007909824
-0.01824081500669281
-0.05093118151565706
-0.2253113367152584
0.02215573730774276
-0.01854548457696175
-0.7343405046532215
0.2793131177178482
0.6800580955280898
-0.6898517559049173
0.009793660180228756
-0.5971147340156843
0.6488424296549261
0.6530264073810625
-0.06488807024874757
-0.6316745042742599
-0.1251045038791466
-1.050109341406583
0.01110916458894531
0.1363287269105363
-0.7083809534283103
-0.7413264753406175
-0.7631699868522812
0.3653807800502798
-0.4129913513099142
0.4676606013445348
-0.05466925073990032
-0.6737719976513049
-0.03460895587338191
0.5014021161286466
0.7306796117616244
-0.2332308356431613
0.111407899117561
0.9636129257970099
0.4459180225116054
0.1343294359696291
-0.5802474583894877
-0.6782412162248946
0.00446921707623829
-0.044511457233784
0.029415419121665
0.636818231005765
-0.7748173094457695
-0.002250110524078594
0.002250110564958719
-0.6008189514009828
0.6481635145671154
-0.04734456300512382
-0.6471296987190516
-0.1131719778897457
-0.6716088008209961
0.05221451462276391
0.6054638100083072
-0.1371279475925342
-0.8175181642765676
-0.5570744361891125
0.5659139259743553
-0.008839489432771132
0.6337053968577706
-0.6239117312977061
0.3222938698534937
0.2142116599894971
-0.5365055298508121
-0.1045082463705467
-0.60228385087817
-0.09065093863894988
-0.1549009329668412
-0.5048599190451313
0.404140405942882
-0.4987657951044756
0.1266538048305733
0.6782959852629067
-0.8049497901788533
0.5992132671396958
-0.3700012148042799
-0.04299013412699604
0.07709748279198365
-0.5819573975284068
0.5518638242952135
-0.04047101650214083
-0.5113928076533011
-0.3122801110471435
0.3048175930800974
0.007462517065517314
0.4539260247983576
0.1214617942756998
0.05074255606737357
-0.3158298196529563
0.1567254494104254
0.1591043700551066
0.2353670315303866
-0.01243686868156088
-0.2952421417140906
-0.3124645085137204
0.3641557756220064
-0.05169126895858522
0.7886321407430033
-0.6275484287538836
-0.01958126956179829
0.4993622176419402
0.2806140551682079
-0.5253959401117502
0.5774967889418785
-0.5774967889436121
-0.2897518896177237
-0.5864641687973066
-0.2955535561426935
-0.5864641686210268
-0.5949602664988225
-0.8385108097902693
0.1700447306026725
-0.5833157063206752
0.821158115629938
-0.003525002450512768
0.1192493203930553
0.482275631302419
0.09669522449301413
0.1854020053100336
-0.03628837494167584
-0.1491136320571096
-0.01740176969519808
0.5942140443786311
-0.9461871955346742
0.4287827037618968
-0.001219604358193053
0.002267126642644683
-0.001047523882910786
-0.643263214289933
-0.131729285674576
-0.4667148403895636
0.6010442747451948
-0.5037688974095905
-0.3227805910298505
-0.2591768236729857
-0.2713286502303307
-0.1120266451553913
0.1120266448954624
0.1525611173136535
0.05861516876539214
0.1965111679720257
0.455223740811616
-0.573175343098047
0.1064605058041699
0.243315257542567
0.4662109258125717
0.5337890733372
0.6415699691130324
0.08436694510114534
-0.003053170303980408
-0.08131377873963956
-0.2768446775322471
-0.5406734866290882
-0.5497567131536508
0.114105843181394
-0.1260791774497277
0.01197333375763145
-0.1058778191220888
-0.3860540337125091
-0.04445523857489393
0.6499190288518839
-0.498678071585381
-0.144585142763332
-0.3388199558909809
0.2918840399928658
0.1232168978200655
-0.6058620520658888
-0.2040178799192138
-0.2617096451745047
0.001646885529962569
-0.4221140755222442
0.322485756243293
0.09962831878880912
-0.09257918502075223
0.2916167393800078
-0.895926364013051
-0.4580452118861855
0.6325172605792928
-0.7729326944942957
0.6684244480785907
0.342399628184461
-0.1257623205282458
0.2255139622602141
-0.09975164076241529
0.02493070113598327
-0.5862658343157808
0.02930621852543996
0.556959616118615
-0.9007243365033017
0.5468817486345202
-0.6655884592313696
-0.09676361622989461
0.1093019589666146
-0.109301955595563
-0.3165405542332977
0.3639227591423962
0.01401524541804221
0.02881972115460996
0.05554723065723134
0.5051913133146236
0.6616321034951433
-0.7402667875350465
0.03005422108938577
0.02366572505779355
-0.000167156779557013
-0.006979372501191581
0.006979371871341248
-0.416448896582325
0.5379106914933099
0.01522165811712717
-0.01522165827466092
-0.7922268305573567
-0.06049528040726706
0.1221596113395442
-0.4548581457530051
0.5613186524446838
0.4508157873152679
-0.4981603545547035
0.1498142647287291
-0.1498142636609939
0.03636793182201464
-0.001957056985235909
-0.04150188087338622
-0.97693977811445
0.5410543013183413
-0.4711181401945195
0.04159794349733834
0.5144442959096605
0.03106369995582855
-0.5455079955786526
-0.6159216994811573
0.1172436270186564
-0.329718336982185
0.01343520124408387
0.3162831364841246
-0.1542080044231293
-0.07902282270239659
-0.5407708704091536
-0.04549497040444985
0.1363287252784524
-0.04085398887767418
0.03860388466906617
0.08141705674653596
-0.08141706097249309
-0.5382762730021798
0.4865850148682019
-0.4144016878245245
0.1613392019356145
0.6221955517075861
-0.09797182774058824
-0.004915614523992943
0.004915614719063325
0.5329637567657458
-0.07499030727789562
0.006039691029220072
0.02702676625131181
0.03461856245601769
0.6858304306221079
-0.760820737706923
-0.6574479599959013
0.6378666869470832
-0.1071954098529299
0.3128305317163616
0.7461849812572721
-0.01824081708373745
-0.2672311013265571
0.1491242092796454
-0.7446700543544089
0.4843770103560993
-0.423368353249741
-0.10147741278476
0.003582020516777896
-0.01444921828765112
0.01910255077323405
0.4114775093464833
-0.1216567027133893
-0.389736103824965
0.6288733977237184
0.01918608268955318
0.01067128451171946
-0.01067128453012053
-0.3559859824070273
-0.08305253832458015
-0.5606156339543129
0.5570906317545087
-0.2383429466805142
0.464804970036714
-0.1510597342555573
0.7286338348588554
0.6731440844627385
-0.04085398834489989
-0.6154618539543005
0.5618809954730326
0.289060480042623
-0.2869102354776623
-0.002150245937200733
0.5452874980136196
0.0933833630469911
-0.03893569022454513
0.1969326610682639
-0.1579969715280343
0.1203527408231758
-0.1203527441019921
-0.8587646286541548
0.002376374716459231
-0.113148802386187
0.140175570146632
-0.1320124033998791
0.1320124028910929
0.02366571840237602
-0.02315642300121758
0.6708293619064033
0.05883976696895656
-0.3231429217953641
-0.06291111262967151
-0.4712299038259087
-0.04975947526108736
-0.1517390076368059
0.1517390066474635
-0.04494585572880513
0.1432234638597895
-0.1432234631586601
0.1367222188580769
-0.136722221003569
-0.3156142439496428
-0.1146118216480943
0.2266188513304848
0.1030036131341205
0.03486333248713947
-0.8211077176577285
-0.1976232236602841
0.1703408222303713
0.02069536886132303
-0.265471998468682
0.1257329683733663
-0.1257329677665257
-0.4140480607510608
-0.08471773644328759
0.2365662338506303
0.00219243531250814
0.04056306600130452
-0.5432010797671089
0.5779454386460551
-0.02570992817479194
-0.01923593028544745
-0.02868928658493364
0.02673223400248091
0.006590809394970825
-0.1842437322059799
0.1776529226603582
-0.1081429346149647
-0.2281959094751082
-0.1448410156732277
0.1448410149177852
0.07297291505105898
-0.07297291531838442
-0.01946632752593964
-0.1086849894451865
0.1281513176293116
0.242154193610809
-0.1827622530736671
-0.02656730962358455
0.02640016244960192
-0.1388066188970223
0.6253916358884463
-0.03905371579356776
0.4225120254424105
-0.04239401208416448
0.06211265968239989
-0.1535078238335569
0.153507822385425
-0.6362822504742323
0.3089559987596222
-0.0793537836889151
-0.2347229826927904
0.003569013473431478
-0.1220421296845054
0.1626051944386565
0.1949111492893422
0.0973662280598008
0.09575009781736823
-0.06113153495071437
0.0725463399449312
0.041559504071244
0.06384826455018461
0.1064925528614994
-0.09570168574164131
0.2071095709356023
0.0129213894594955
-0.1142471823314643
-0.1014574498310642
0.09786063965612675
0.003596811112983965
0.01299443996885584
-0.02320792202470272
0.03786876852021322
-0.03786876854589871
0.07489053016303633
-0.05476177809168804
0.0547617777823733
-0.2245671374088564
-0.05213452385845932
0.01145160823231755
-0.1030994846435169
0.01636947473367017
0.1082946223746963
-0.108294621946046
0.2945394661748882
-0.2715953503252286
0.1634524187390251
-0.05072006010629762
-0.2208752901448822
-0.01757389741180075
0.01757389765989993
0.3673206725258673
0.2852683507825757
-0.5274428541458588
-0.09399904960742907
-0.03208012727676347
0.5286598799646778
0.2134649236598044
-0.1698648730584552
-0.3810925946032736
0.07648806127712844
-0.1478438592645419
0.1873939072863766
-0.03955004820202623
-0.06673511945521211
0.06673511967288474
0.8226730425280119
-0.5606726487624041
-0.004176047231412256
0.01717048546192267
-0.01998576832076306
-0.286648209525604
-0.01749050139261091
-0.0128286030933292
-0.1317660491304415
-0.5720083790917103
0.5559476377152435
-0.5693026208003881
-0.00689799684281306
0.1028839166368014
-0.0017688111884067
0.01678560202637219
-0.1678296280041569
-0.3366329031858628
0.2335334185981288
-0.05457047870922977
0.0351041521523019
0.1317153718765303
0.1731022215835897
0.3363541940845034
0.2767559056294305
-0.2785247163922293
-0.06285355951004924
-0.1549328404622721
-0.2212877771989005
0.07486534802087037
-0.01101708416022755
0.2141877370854295
-0.1974021345491797
-0.08627986757428616
0.1588262086940786
-0.3550909628258086
0.2087170302576611
-0.1923475553110338
0.08960950955232996
-0.4793456173535495
0.174565307655232
0.1698458719236229
-0.2561257371049077
0.07254217815231494
-0.1942717202055955
0.1767812183179523
0.01743833862613855
0.1413878705773825
-0.03954013407422702
0.06622211546375599
0.4667416407316543
0.0202948704470225
-0.07664107671748718
0.05564909355152388
0.1257263564041055
-0.2608378227181505
-0.2308799274737778
0.5597144840119805
0.1578342122093359
0.07873202146565837
0.07567026316331507
-0.03091565942623765
-0.0097634191656071
0.007613166813184039
-0.03279555675248099
0.1712363368809542
-0.1781343332452814
-0.05753852314722659
0.02222410559702788
-0.1467372581690951
-0.05288385058052159
0.1495710566236785
0.2770876171848272
-0.03869296614502886
0.01696881634461693
-0.2557509010893751
-0.1311573459010128
0.2356461043214513
0.179126994884773
0.1298290028077958
0.02184018531111672
0.08909760554479117
0.05212852141673679
0.4530627918442369
0.01651819599024772
0.09702136803295174
0.0438126439913272
0.07162026432371887
-0.1154329094697352
-0.2421745050199645
-0.2009671743941611
-0.01990811330353346
-0.2022580031068514
0.2756590188233029
)
;

boundaryField
{
    FrontBack
    {
        type            empty;
    }
    Top
    {
        type            calculated;
        value           uniform 0;
    }
    In
    {
        type            calculated;
        value           uniform -1;
    }
    Bottom
    {
        type            calculated;
        value           uniform 0;
    }
    Out
    {
        type            calculated;
        value           nonuniform List<scalar> 10(1.034777789645073 1.06437182358597 1.021512261810804 1.019162243641264 0.9966999309217897 1.015801215368326 1.035685359981765 1.062722972687631 0.8672486743935213 0.8820177249370381);
    }
    circle
    {
        type            calculated;
        value           uniform 0;
    }
}


// ************************************************************************* //
