/*--------------------------------*- C++ -*----------------------------------*\
| =========                 |                                                 |
| \\      /  F ield         | OpenFOAM: The Open Source CFD Toolbox           |
|  \\    /   O peration     | Version:  2412                                  |
|   \\  /    A nd           | Website:  www.openfoam.com                      |
|    \\/     M anipulation  |                                                 |
\*---------------------------------------------------------------------------*/
FoamFile
{
    version     2.0;
    format      ascii;
    arch        "LSB;label=32;scalar=64";
    class       volVectorField;
    location    "17.3";
    object      U;
}
// * * * * * * * * * * * * * * * * * * * * * * * * * * * * * * * * * * * * * //

dimensions      [0 1 -1 0 0 0 0];

internalField   nonuniform List<vector> 
808
(
(0.891839 -0.0112672 0)
(1.02447 -0.0348365 0)
(1.20982 0.0498178 0)
(1.07058 0.0100273 -2.38253e-21)
(1.46702 -0.294371 0)
(0.961197 -0.0303429 0)
(1.14366 -0.0477483 1.15548e-22)
(1.10587 -0.0311066 0)
(1.34114 -0.231694 2.18604e-20)
(1.23118 -0.0993049 -6.43226e-21)
(1.21301 -0.10451 3.95889e-21)
(1.36962 -0.262529 0)
(0.994467 -0.0374107 0)
(0.740129 -0.0238048 0)
(0.97779 0.0377536 2.06154e-20)
(1.07434 -0.0266899 0)
(0.872101 0.0437891 -6.77115e-21)
(0.993276 -0.0323178 -3.85245e-23)
(1.24958 0.054286 0)
(1.12335 -0.000654423 0)
(1.26129 -0.0974255 -5.52525e-21)
(0.929006 0.125498 1.09119e-19)
(1.07479 0.011778 -1.07625e-20)
(1.18053 -0.0447659 0)
(0.95393 0.188635 0)
(1.3213 0.0386049 -3.40484e-20)
(1.27484 -0.184612 5.72578e-21)
(0.965148 -0.0195796 -7.12619e-22)
(1.07509 -0.0238089 0)
(1.04072 0.0432211 -1.84818e-22)
(0.98891 -0.0245177 1.20831e-24)
(1.12786 -0.0188618 0)
(1.02427 0.0436117 0)
(1.07061 -0.0174204 6.38539e-22)
(1.30247 -0.0917901 7.63903e-21)
(0.741437 -0.109442 1.11724e-19)
(0.873277 -0.0283551 -1.8723e-21)
(1.01324 0.0419161 6.28698e-22)
(1.18738 0.0454667 -9.9712e-22)
(1.07581 0.0355185 0)
(1.26389 -0.0834454 -1.48699e-20)
(1.27398 -0.142534 0)
(1.00529 -0.000299472 -5.28796e-21)
(1.12358 -0.0518937 3.77681e-21)
(1.2066 -0.0686347 0)
(1.01085 0.0171127 -1.72975e-20)
(0.990806 0.0359545 8.22251e-22)
(1.24769 -0.255321 1.39326e-22)
(1.17269 0.0558613 -1.02558e-21)
(1.39543 -0.194575 -3.158e-20)
(1.14165 -0.0493298 1.43255e-22)
(1.15049 -0.0771302 0)
(1.11992 -0.00377543 4.70983e-21)
(1.12967 -0.022081 0)
(1.32536 0.229124 5.37936e-21)
(1.06725 0.0484479 -3.6055e-22)
(1.15616 -0.0339414 0)
(1.17209 -0.104367 2.73393e-21)
(1.23401 -0.104706 6.90453e-21)
(1.1475 0.039194 7.86175e-22)
(-0.187388 -0.057969 0)
(1.21277 -0.215959 -4.70487e-21)
(1.1535 -0.0729775 0)
(1.42382 -0.116675 -2.54889e-20)
(1.1338 -0.0599622 -4.73847e-21)
(1.03995 -0.0304018 -5.39888e-21)
(1.30967 -0.14171 2.44067e-20)
(0.624589 0.0169198 0)
(1.14967 -0.0758902 0)
(1.42541 -0.355033 0)
(0.884846 0.0286413 -1.05558e-22)
(1.22118 -0.146892 -3.72181e-20)
(1.00035 0.0459671 0)
(1.05416 -0.0498686 -1.55373e-21)
(1.11759 -0.334254 -5.85766e-20)
(1.14245 -0.0560946 -2.2823e-21)
(1.1541 0.0239371 6.46805e-22)
(1.32439 0.497955 2.51331e-20)
(1.11533 -0.0409789 0)
(1.01578 0.285851 -1.79567e-19)
(1.35105 0.0141444 1.92377e-20)
(0.729492 0.0227098 0)
(0.841859 0.0348767 -5.6173e-21)
(0.967585 -0.108517 4.31331e-21)
(1.13112 -0.0559594 1.73958e-21)
(1.20154 0.00824601 1.79746e-21)
(1.2652 -0.237857 0)
(1.35189 0.286264 0)
(1.0941 -0.00184482 -8.23194e-21)
(1.41961 0.0788336 3.74015e-20)
(1.08165 -0.02227 1.07907e-20)
(1.31579 -0.135744 -1.26101e-21)
(0.965338 0.0267918 1.64406e-20)
(1.00427 -0.0239074 0)
(1.1161 0.0159486 1.08006e-21)
(1.24675 -0.10413 -6.32476e-20)
(0.756049 0.0224663 -8.98904e-22)
(1.34322 -0.0602122 0)
(1.32398 -0.106524 0)
(1.40379 -0.109563 -3.88154e-20)
(1.10961 -0.0476387 -7.22262e-22)
(1.13184 0.00684686 4.73521e-23)
(0.954598 0.0239397 8.98182e-21)
(1.19539 0.000419364 -7.60444e-22)
(1.34362 0.0105169 -2.54931e-20)
(1.00007 0.00646742 1.06926e-20)
(1.45695 -0.051877 0)
(0.896585 0.0513863 0)
(1.0967 0.0343293 6.45733e-22)
(1.19694 -0.223292 -8.26701e-21)
(1.29183 -0.00479141 1.38519e-20)
(1.04894 0.0486236 -1.20511e-19)
(1.15803 0.0419949 -1.9494e-22)
(1.14984 0.106023 4.49864e-21)
(0.79346 0.0183349 0)
(0.916901 -0.0451423 7.61407e-20)
(1.15001 0.0238687 -1.16303e-21)
(1.41685 -0.268013 -1.58372e-20)
(1.11561 -0.0534073 -3.24391e-21)
(0.924722 0.0140823 2.57163e-21)
(-0.285968 -0.0421019 0)
(0.862924 -0.0167485 2.04687e-21)
(0.803847 0.0243107 0)
(1.06359 0.000777955 -8.18547e-23)
(1.01252 0.0286018 0)
(1.3152 0.320715 8.36182e-21)
(1.0332 -0.0561196 -3.09737e-20)
(1.28634 0.147583 2.40501e-21)
(1.14914 -0.0689029 0)
(1.09107 -0.0245154 0)
(0.545478 -0.019449 0)
(1.11419 -0.0397461 -1.87003e-21)
(1.25518 -0.0604001 8.62296e-21)
(1.06789 0.113705 -3.13379e-20)
(0.84675 -0.0190116 0)
(1.10678 0.0244131 -2.34897e-22)
(1.09982 -0.0206445 2.66118e-21)
(1.14771 0.0016601 -7.60889e-22)
(0.986384 0.0354854 1.46427e-21)
(1.13402 0.00453645 -3.96972e-23)
(0.00426604 0.070447 0)
(1.09691 -0.024916 -1.20778e-20)
(1.17831 0.0280594 1.1298e-21)
(0.715912 0.0260055 -1.31898e-21)
(1.26375 0.170184 2.51737e-21)
(1.02259 0.0248508 4.94574e-21)
(1.04989 0.0172142 1.57825e-20)
(0.990306 0.0261969 0)
(1.13117 -0.0923221 -1.36752e-20)
(1.0255 0.0275405 0)
(0.934035 0.031678 2.54792e-21)
(0.969353 0.285275 1.43743e-19)
(0.966203 0.0358268 0)
(0.81809 0.104095 0)
(-0.103359 0.0557371 -6.9573e-20)
(1.34561 0.13348 -1.38941e-20)
(0.675079 -0.0235332 0)
(1.46815 0.0207258 0)
(1.13744 -0.0218166 0)
(1.35896 0.0842342 1.58192e-20)
(-0.0370959 -0.0699125 0)
(-0.0552461 0.0910082 3.36993e-20)
(0.952273 -0.0555698 7.10376e-20)
(1.00364 0.0406121 1.59919e-22)
(0.861258 0.000546019 0)
(1.03113 -0.0444331 5.02633e-21)
(0.895358 0.0222893 0)
(0.687933 -0.0322987 -7.67846e-20)
(1.02088 0.046944 2.32816e-21)
(1.11901 -0.0576255 1.70767e-21)
(1.09901 0.00852564 4.34241e-21)
(1.01504 0.0708382 -1.10327e-20)
(0.694592 -0.0221272 -4.9238e-21)
(1.13359 -0.349659 6.65673e-22)
(0.915794 -0.0257571 0)
(1.07106 -0.000654758 -1.27094e-20)
(0.875448 0.0104461 -9.11643e-21)
(1.37226 -0.180401 1.91457e-21)
(0.692445 0.028449 0)
(1.02566 -0.14452 0)
(1.10383 -0.0526955 1.79446e-21)
(1.39474 0.214679 1.10875e-20)
(1.12013 0.0171792 2.57001e-21)
(1.03711 0.0168102 1.95167e-20)
(0.741887 0.0191535 -8.03247e-20)
(0.81496 0.0034668 1.7236e-20)
(1.13664 -0.0182749 1.72188e-21)
(1.38895 -0.101149 -4.75877e-21)
(1.10409 -0.055951 -3.6253e-21)
(1.32438 -0.0631783 4.07772e-21)
(-0.108273 0.0778244 5.0859e-20)
(1.28348 -0.0472364 0)
(0.599956 -0.0203243 0)
(1.062 -0.0285503 -6.34433e-21)
(1.10359 0.0111686 1.83143e-21)
(0.0634454 0.0868102 0)
(0.875799 -0.0219017 1.76026e-22)
(1.10222 -0.055107 -2.01166e-21)
(0.978147 0.0178314 -7.53394e-23)
(1.07936 0.0373467 -6.51744e-21)
(1.0098 0.0206844 2.75473e-21)
(1.03225 -0.0417523 1.77453e-21)
(1.04552 0.0329533 0)
(0.320456 -0.0362661 0)
(1.04798 -0.0625059 0)
(1.15187 0.107502 -3.00803e-20)
(-0.0405121 -0.0673311 4.41378e-20)
(1.06498 0.0108372 -4.23706e-24)
(1.20811 0.0876587 0)
(0.753956 0.0202148 -2.52325e-21)
(1.15284 -0.0403884 6.48122e-22)
(-0.00594669 -0.03806 -1.40424e-19)
(0.735163 -0.00566048 -4.07463e-20)
(0.618353 -0.0215623 0)
(1.00267 -0.0424663 0)
(0.92393 0.0397153 4.42084e-21)
(0.992799 -0.112405 5.33681e-21)
(1.28219 0.397851 1.20317e-21)
(1.11672 -0.0504378 -1.82593e-23)
(1.1233 -0.0782581 -4.24692e-21)
(1.02268 -0.0302205 0)
(1.36565 0.423643 -4.14037e-20)
(0.645023 -0.018615 0)
(0.801247 -0.0215161 -2.08305e-21)
(1.05052 -0.00940919 8.02235e-23)
(0.565235 0.0163474 0)
(1.09974 -0.00614179 0)
(0.0113596 -0.00975151 -3.75226e-20)
(1.10033 -0.0743814 -8.33437e-21)
(0.730306 -0.00902805 6.12655e-22)
(0.991165 -0.00268665 0)
(0.531374 -0.0164379 0)
(0.760056 -0.0154263 -1.625e-21)
(0.523897 -0.0135772 -4.20915e-22)
(1.33278 0.0296839 3.44468e-22)
(1.24472 0.0898395 -2.58987e-21)
(0.701968 0.0110083 -4.68376e-22)
(1.10524 -0.0249906 1.63449e-23)
(1.15639 -0.0601012 1.72062e-23)
(0.530475 0.0158407 1.46744e-21)
(1.16346 -0.04263 2.76494e-22)
(1.14705 -0.0387698 0)
(0.961598 -0.0574976 0)
(0.487927 0.0166259 0)
(1.02777 -0.00347047 0)
(1.15162 0.00639157 -3.65768e-22)
(1.06949 -0.0441661 0)
(1.11473 -0.0194039 0)
(1.042 -0.0268351 0)
(1.05817 -0.0295036 0)
(-0.0207062 -0.0337629 4.32104e-20)
(1.2118 0.00915604 2.36071e-22)
(1.08383 -0.0170125 0)
(1.36351 -0.00406187 2.05648e-20)
(1.15754 0.00599567 2.06344e-22)
(1.10934 0.0539342 -9.80231e-22)
(1.13477 -0.00325937 3.4467e-21)
(1.16034 -0.000725555 0)
(0.557428 -0.0180485 3.79588e-21)
(1.05227 0.0430925 1.07304e-20)
(1.19322 -0.0286036 0)
(1.20088 -0.0318353 -7.12523e-22)
(1.15892 0.00622615 1.36709e-21)
(0.636831 0.189993 -3.95713e-21)
(1.13445 0.0322092 2.60311e-21)
(1.2018 -0.00450765 -2.67618e-21)
(1.04026 0.0619519 0)
(1.14597 0.0398618 -1.6379e-20)
(1.13557 0.0464212 -3.08069e-21)
(0.739134 -0.087644 4.94227e-21)
(0.930028 0.0893377 0)
(-0.0176819 -0.0207433 0)
(0.976594 0.114774 -1.733e-20)
(1.1445 -0.0159621 0)
(1.26807 -0.0684489 2.11509e-20)
(1.16216 0.0437806 5.65628e-22)
(1.1706 -0.0124975 2.57278e-21)
(1.1367 0.0400741 -1.13558e-21)
(1.33995 -0.0637037 9.23996e-20)
(1.01464 -0.321779 5.91367e-20)
(1.11456 -0.0264723 -4.15595e-22)
(1.00404 0.0523325 0)
(0.928899 0.0936771 0)
(0.901389 0.00165269 -2.64345e-20)
(1.24684 -0.0996391 -4.28987e-20)
(1.15579 0.00622159 0)
(0.59567 -0.107468 1.19507e-20)
(0.321623 0.141836 0)
(0.779036 0.0589771 6.17424e-21)
(0.809275 -0.0759722 -1.37761e-20)
(0.807836 0.0287832 -2.68278e-21)
(1.14809 -0.00807453 0)
(1.24719 0.0714505 -6.59795e-22)
(1.17568 0.0905356 2.68092e-21)
(0.744724 -0.0191564 -8.71816e-21)
(1.17 0.007521 -3.06572e-21)
(0.861962 0.0121805 0)
(1.0923 0.0715934 0)
(1.0592 -0.0120101 7.72972e-21)
(0.807401 0.00482953 -6.23702e-21)
(1.25054 0.0279086 4.88334e-21)
(1.13063 -0.0217039 -2.51001e-21)
(1.03066 0.0836821 4.54012e-22)
(1.12032 -0.0144978 0)
(0.407766 -0.136509 1.29461e-20)
(1.33938 0.0822165 -2.42903e-20)
(0.919373 -0.0247661 -5.74867e-21)
(0.0612501 0.144069 4.18392e-21)
(1.41668 -0.159905 2.24828e-20)
(0.927012 -0.0448097 7.50752e-20)
(1.19872 0.0119252 -7.887e-21)
(1.10634 -0.019645 -3.65528e-22)
(-0.060462 -0.0640498 -7.53986e-21)
(1.00039 -0.00687563 0)
(1.03375 -0.0856719 -1.61343e-20)
(0.85634 -0.0331093 2.06918e-21)
(1.09882 -0.0576285 1.84554e-21)
(0.765716 -0.0668682 -7.6742e-22)
(0.516344 -0.0144357 -5.77354e-22)
(1.40529 -0.387825 -1.50672e-20)
(1.1265 0.0418912 0)
(1.01219 -0.00135232 8.27779e-22)
(1.13441 0.0384186 -1.3936e-21)
(1.24732 0.00899591 0)
(0.801472 0.064022 -6.20073e-21)
(1.12902 0.0389986 1.99248e-21)
(0.721469 -0.104408 2.02852e-20)
(1.15226 -0.0352502 8.42028e-21)
(0.884665 0.0573856 3.80792e-21)
(-0.037251 -0.0023229 0)
(0.558695 0.20492 2.98875e-20)
(1.1541 0.0394699 0)
(1.00137 0.212656 1.38648e-20)
(0.949313 0.236234 0)
(1.1279 -0.00677077 -1.34957e-21)
(1.01593 0.026562 0)
(1.05842 0.0282726 0)
(1.39348 -0.137452 1.94176e-20)
(0.794091 -0.0826205 0)
(1.19762 -0.15526 1.09132e-20)
(1.09067 -0.0197632 1.042e-22)
(1.05277 0.0407728 1.6747e-21)
(1.26514 -0.071162 -1.29814e-20)
(1.24612 0.117933 -7.27269e-21)
(1.22508 -0.0882183 1.36807e-20)
(1.16229 0.0370684 0)
(1.1873 -0.0450984 0)
(1.11157 0.03815 1.61666e-21)
(1.22417 -0.0241453 0)
(1.41707 0.21139 -2.74794e-20)
(0.780523 -0.109267 -4.18948e-22)
(1.02752 0.0166341 1.88396e-20)
(1.28552 0.0145308 -3.96541e-22)
(-0.0126864 0.012552 0)
(-0.027098 -0.0501699 0)
(0.022678 0.058328 -3.58612e-20)
(-0.0597685 -0.0678445 0)
(0.718267 -0.126633 -1.09336e-20)
(1.17157 0.0414113 -1.17182e-21)
(1.17444 -0.0586637 -2.26843e-21)
(1.23193 -0.0600783 -3.24904e-21)
(1.20296 -0.0367931 0)
(0.702413 -0.00240862 -1.8364e-22)
(1.13934 0.0387887 0)
(1.1021 0.0205916 -1.01932e-22)
(0.494116 -0.108309 0)
(0.80443 -0.0958547 -2.36523e-22)
(1.11426 0.0528456 0)
(1.1381 0.0373772 0)
(0.671049 0.00338575 4.54529e-20)
(0.642591 -0.0414646 -1.53424e-21)
(0.88728 -0.0040845 2.27439e-21)
(1.01188 0.0173817 -9.01863e-21)
(0.152415 -0.0673363 0)
(1.22004 -0.129444 -1.54354e-20)
(1.24083 0.0901685 -8.93982e-21)
(1.15286 -0.122345 -3.23692e-22)
(0.743404 -0.0112134 2.85264e-21)
(-0.0509769 -0.0274125 -9.2629e-20)
(1.13259 0.0776467 0)
(-0.0352307 0.0430392 0)
(1.17203 0.105477 -9.48542e-22)
(0.439196 0.123607 -3.07001e-21)
(1.12707 0.0473676 -5.69239e-21)
(1.11374 -0.0417729 0)
(1.18214 -0.081786 1.7835e-21)
(1.20092 -0.135367 1.30595e-20)
(0.523189 -0.0477136 -8.83521e-21)
(1.14527 -0.0360558 1.08179e-21)
(1.18298 -0.0483325 -2.15038e-23)
(-0.0234701 -0.0544466 1.49217e-20)
(1.26317 -0.0631936 -3.20876e-21)
(1.14063 0.043386 0)
(1.13611 0.0701869 0)
(1.18859 -0.0439655 4.10972e-21)
(1.18446 0.0910747 8.07942e-21)
(0.616365 -0.146544 -3.42427e-20)
(1.19097 -0.125878 -1.54588e-20)
(1.11855 0.0613103 2.16433e-22)
(0.492806 -0.00210553 6.58738e-21)
(0.181436 -0.0945576 -8.31535e-20)
(-0.0424175 -0.320619 2.49237e-20)
(1.17534 0.185527 -6.66491e-21)
(1.22625 -0.493176 4.37657e-21)
(1.42562 0.0518224 -1.76325e-20)
(1.20262 -0.0398143 -4.87024e-21)
(0.93377 -0.229822 9.46991e-20)
(-0.324108 -0.141678 0)
(1.15827 -0.0437731 -3.54958e-22)
(0.143531 0.111178 -2.41955e-20)
(1.15297 0.103598 8.20789e-22)
(1.14094 -0.049378 5.67987e-21)
(1.08572 0.0411677 0)
(0.610517 0.041301 0)
(1.1754 -0.0580635 0)
(1.2824 0.214878 -7.37952e-21)
(1.2744 -0.0302515 -2.8303e-20)
(1.15521 -0.0448714 -3.44629e-21)
(0.473653 0.0080328 0)
(0.640045 -0.00399858 0)
(0.650386 0.0067039 6.19553e-22)
(0.466825 -0.00694649 0)
(1.1606 0.0645969 0)
(1.02061 -0.0138259 2.43787e-20)
(0.14544 0.175366 0)
(0.912573 0.0262247 0)
(1.11287 -0.0124838 0)
(1.17672 0.184428 -2.89068e-21)
(1.28228 0.0420623 1.45355e-20)
(0.965107 -0.0304994 4.07937e-21)
(1.27846 -0.400361 -1.02241e-19)
(0.479748 -0.0381083 -3.25327e-21)
(1.22015 0.0263146 5.62938e-21)
(1.23773 -0.0303487 0)
(-0.376613 -0.0993719 0)
(-0.244055 0.0475319 0)
(1.1621 -0.0329986 -6.95057e-21)
(1.31332 -0.293824 -2.00964e-20)
(1.36121 0.131064 0)
(1.08433 0.0420238 -4.92576e-21)
(0.367595 -0.144191 0)
(1.49837 -0.180299 6.53797e-20)
(0.414125 0.523489 1.09784e-19)
(0.26323 -0.040178 0)
(1.08479 -0.277092 1.09741e-19)
(0.221843 -0.109402 0)
(-0.317118 -0.116275 2.81766e-21)
(1.39034 0.103937 0)
(-0.112037 -0.0236852 -4.75366e-22)
(0.983509 -0.0498487 0)
(1.24136 -0.0701877 -8.82172e-21)
(-0.134438 0.0112324 -7.32812e-21)
(1.12344 -0.0295798 -5.17838e-22)
(1.20202 -0.118831 -3.79567e-21)
(0.568806 -0.507626 -9.26208e-20)
(1.1246 -0.000166352 -4.41777e-22)
(1.19232 -0.133148 4.22458e-21)
(1.18494 0.249757 -1.71806e-20)
(1.1351 -0.093657 3.10282e-22)
(1.15913 -0.014556 -1.30673e-21)
(-0.0873303 -0.157494 -6.43172e-20)
(0.0623921 0.0982437 -7.62626e-21)
(1.22746 0.0783732 2.47674e-21)
(1.05858 -0.0514758 0)
(0.473672 0.00194331 -8.40715e-21)
(1.38964 -0.443459 7.60481e-20)
(0.904294 -0.0748618 -5.44242e-20)
(1.44324 0.149254 8.30647e-20)
(1.09005 -0.0520195 7.57065e-22)
(1.23343 -0.0786701 3.05932e-21)
(1.06191 -0.00730519 0)
(1.18889 -0.0276832 0)
(1.2513 -0.0579184 3.56926e-21)
(1.08659 -0.0210675 -4.5118e-21)
(1.13008 -0.0767263 3.94156e-24)
(1.08594 0.0527049 -3.60493e-21)
(1.43409 -0.0605058 -4.52216e-20)
(0.441503 0.0345543 0)
(1.23296 -0.0502139 6.0682e-22)
(1.35792 0.0752046 0)
(1.1045 0.064677 -6.1018e-22)
(1.14355 0.0236658 0)
(1.04207 -0.00980903 1.23113e-20)
(1.23409 0.0316884 1.79382e-20)
(1.08813 0.0112555 0)
(0.0516633 -0.0289097 1.48571e-19)
(0.882113 -0.208209 -7.42744e-20)
(1.23316 -0.0740113 -2.67444e-20)
(-0.112054 0.00262928 3.98642e-20)
(1.20605 0.0367278 4.4012e-22)
(0.794389 0.0301134 -2.24733e-22)
(-0.0941357 0.0321615 -4.15593e-20)
(-0.0260309 0.0373911 -2.68431e-20)
(1.01772 -0.03037 0)
(-0.0276555 -0.03117 0)
(1.2356 0.0152614 0)
(0.111353 -0.0975822 0)
(1.11608 -0.0272415 0)
(0.133341 0.0307625 0)
(1.12084 0.0553625 0)
(1.21155 0.124452 0)
(1.34579 0.126171 -8.81275e-22)
(0.568473 -0.282087 -2.01586e-20)
(-0.133998 0.119565 0)
(1.10413 -0.100596 5.66276e-20)
(1.23361 0.00251894 9.48372e-22)
(1.30852 -0.0121931 0)
(-0.0359801 -0.0390453 0)
(1.16166 0.01136 5.89182e-21)
(1.1693 -0.00912511 -2.84499e-21)
(1.17238 0.39186 0)
(0.223622 -0.0598772 5.53836e-20)
(1.12115 0.0580914 8.64564e-22)
(0.228553 -0.0509018 -5.04261e-20)
(-0.0615471 0.0495033 -3.26127e-20)
(-0.0356308 0.049622 8.40827e-20)
(0.487515 -0.0274396 4.12908e-20)
(1.04663 -0.0152479 2.11467e-22)
(1.13378 0.0695335 3.51624e-21)
(1.02253 -0.00805291 0)
(1.06967 -0.0718726 -2.16957e-20)
(1.26106 0.0613178 -1.56226e-20)
(-0.00886448 -0.00905613 9.58164e-20)
(0.979126 -0.0714111 -5.96855e-20)
(0.624488 0.088924 1.3902e-20)
(1.11331 0.00784352 -2.83099e-21)
(0.0720602 -0.0296113 3.18553e-20)
(0.240335 -0.0373634 -4.54179e-20)
(0.380389 -0.0489083 -5.02054e-20)
(1.21896 0.162817 -4.39813e-21)
(-0.0518154 -0.0321819 0)
(0.981489 0.149518 5.60425e-21)
(1.15324 -0.0695787 7.89562e-21)
(1.1298 -0.0304628 -7.61233e-21)
(1.26574 -0.0376221 0)
(1.50876 -0.235742 6.6301e-20)
(1.11404 0.0284323 -9.38291e-22)
(-0.0118208 -0.0237528 -3.21419e-20)
(0.299974 0.0859551 0)
(0.901878 0.0258013 1.01929e-22)
(1.13778 0.0252385 -1.14522e-21)
(0.729101 -0.139502 1.52652e-20)
(1.16336 0.00903871 -2.02894e-21)
(1.1177 0.049882 0)
(1.12278 -0.172769 -1.39424e-20)
(-0.0899234 -0.0354582 -6.11782e-20)
(1.31762 -0.040963 2.12658e-20)
(1.10501 0.176128 -8.86768e-21)
(1.08652 0.0474572 4.12291e-21)
(-0.0379298 -0.0459963 1.45066e-20)
(-0.0259994 0.0426387 -6.45566e-20)
(0.637322 0.0186603 0)
(0.804422 0.102458 0)
(1.15408 0.0988796 -1.29153e-20)
(1.05236 0.0697164 1.09336e-20)
(1.10104 0.019251 0)
(0.406594 -0.0254066 3.9272e-20)
(0.729805 0.0908073 -1.16205e-20)
(1.09942 0.109378 0)
(1.08353 0.037422 0)
(1.38493 0.100964 0)
(1.20915 0.0480075 0)
(1.1791 0.00347819 2.28659e-21)
(-0.0431254 0.0457684 3.56204e-20)
(1.20115 0.0562307 3.32103e-21)
(1.38804 -0.20026 -7.50428e-20)
(1.25773 0.0193852 -3.82921e-21)
(0.0284135 0.0252653 0)
(1.17278 -0.0504467 0)
(0.642777 -0.000779958 6.29272e-22)
(0.535899 0.009287 -5.99115e-20)
(0.0706132 0.0365782 4.86307e-20)
(0.946585 0.000830273 -1.14466e-21)
(0.731876 -0.269913 0)
(0.665035 -0.0898323 0)
(1.21394 0.0232479 0)
(0.542626 0.517058 2.40129e-20)
(-0.0183731 0.0329437 -3.00413e-20)
(1.07967 -0.0142556 -2.62075e-21)
(-0.0184194 -0.0318287 6.05935e-20)
(1.10521 -0.0444291 1.79038e-21)
(1.178 0.317005 3.27682e-20)
(1.11236 -0.0923578 8.17428e-21)
(0.286516 -0.0762574 8.38802e-20)
(1.02537 0.0594828 3.66927e-21)
(1.17657 -0.121469 0)
(0.560572 0.272397 0)
(0.940338 0.0422921 3.11793e-21)
(-0.193138 0.0713907 0)
(0.607274 0.0292572 1.30172e-21)
(0.596707 -0.412213 -2.82562e-21)
(0.238762 0.0495253 -1.13989e-19)
(1.12132 -0.22716 3.39344e-20)
(1.04164 0.36891 9.831e-21)
(0.978753 0.0217616 0)
(1.23139 -0.0635698 8.28393e-23)
(0.644513 -0.000794568 0)
(0.983782 0.00380228 -7.6621e-22)
(0.423374 -0.0186502 0)
(0.711654 0.136898 0)
(0.999481 -0.0215922 -1.39704e-21)
(1.43994 0.171937 -1.5795e-20)
(1.09578 -0.028102 2.18266e-21)
(0.516636 -0.485605 0)
(1.13206 -0.157082 2.54497e-21)
(0.805902 0.384359 6.92455e-20)
(-0.0405344 0.0210528 1.18447e-21)
(1.21908 -0.0225237 1.21752e-20)
(1.21478 0.0311361 -1.39514e-20)
(1.12677 -0.0443928 6.51943e-22)
(0.788558 0.008865 -1.49816e-21)
(0.0613612 0.0188904 3.78893e-20)
(-0.0176764 0.000784387 -5.38848e-20)
(-0.201735 0.0562132 0)
(-0.192463 0.178839 0)
(1.17403 -0.611131 3.01255e-20)
(1.15276 -0.025937 1.27509e-21)
(0.876812 -0.460082 -3.9862e-20)
(1.02599 0.166492 -1.24843e-20)
(1.37086 0.199763 3.55988e-20)
(0.606004 0.422721 0)
(0.247801 0.420441 -1.12526e-19)
(0.59778 0.488878 0)
(0.0408584 0.0661195 0)
(1.11501 -0.476655 0)
(-0.0484642 0.0490348 -3.84835e-22)
(1.20323 -0.0227207 0)
(0.924145 0.164539 -3.52489e-20)
(0.598393 0.698892 2.06457e-20)
(1.35048 0.196768 1.50233e-20)
(-0.0368233 -0.0676489 -1.01892e-19)
(0.788969 0.200712 -2.51898e-20)
(0.452858 0.144977 -1.37321e-20)
(1.2058 0.0915094 0)
(1.36516 0.357497 3.7631e-20)
(1.22706 0.570123 9.33287e-21)
(0.157502 -0.0135519 -2.25485e-20)
(1.00952 0.133902 3.32989e-20)
(0.932282 -0.0127515 8.70194e-23)
(0.90878 0.0165639 2.72762e-22)
(-0.00526237 -0.0262559 0)
(0.640517 -0.643157 -3.11373e-20)
(0.613631 0.209271 0)
(0.0401497 -0.0826598 0)
(-0.0502194 0.0669887 0)
(-0.0162117 -0.0724109 -3.82942e-20)
(1.23574 -0.00458705 -1.39767e-20)
(-0.0273704 0.0686889 0)
(-0.0365275 0.063246 0)
(1.44822 0.116066 -8.02665e-20)
(-0.036085 -0.0613569 4.61946e-20)
(0.115594 0.23949 -9.99032e-20)
(0.385973 0.0183955 0)
(0.167537 -0.270473 8.18886e-20)
(1.0699 -0.238668 0)
(0.992361 -0.281674 0)
(-0.00759263 -0.066678 9.5712e-20)
(1.15002 0.0344089 1.81251e-23)
(1.12918 0.346705 2.67885e-20)
(0.261298 0.0283593 4.6997e-20)
(0.399136 -0.509927 -3.96214e-20)
(1.29957 0.0746134 0)
(1.22234 0.197346 2.25867e-20)
(1.22233 0.212737 -2.77444e-20)
(0.102815 0.0956161 -2.33071e-20)
(-0.062962 0.0257437 0)
(1.06912 -0.0589823 -1.96343e-20)
(1.09841 -0.222329 -1.66828e-20)
(0.578778 -0.395081 0)
(1.09542 -0.148979 -2.65322e-20)
(-0.0762874 0.153785 0)
(0.605225 0.0497608 0)
(1.44781 -0.00491899 3.87927e-20)
(0.982476 0.0213857 9.72189e-23)
(1.08188 0.750091 -1.4435e-20)
(0.222627 -0.371797 1.34495e-19)
(1.0722 0.00789265 -2.91466e-22)
(1.2092 0.0720841 1.56443e-21)
(-0.0524663 0.0802389 3.05945e-20)
(0.790904 0.737896 2.6182e-20)
(1.33807 -0.372688 -1.29429e-20)
(-0.211502 -0.140401 6.43536e-20)
(1.12575 0.0440947 0)
(0.247279 -0.0189763 -8.96174e-21)
(0.887456 -0.62845 2.54863e-21)
(0.903473 0.644822 -2.17967e-20)
(0.531195 -0.0359421 -5.90329e-20)
(1.1471 -0.00698834 2.16228e-21)
(1.07596 -0.0860249 7.08545e-21)
(1.16224 0.065064 -2.53019e-21)
(1.10664 0.121372 2.77433e-21)
(1.13055 -0.132713 0)
(0.909369 0.111464 1.46899e-20)
(0.889309 0.460761 0)
(1.31519 0.138032 6.277e-21)
(1.16987 0.113029 -1.93007e-21)
(0.753286 0.26501 0)
(0.520314 0.110514 1.08732e-19)
(0.897322 0.718161 -7.87565e-22)
(1.08138 0.293661 -2.05732e-20)
(1.04406 -0.0120625 1.19488e-20)
(0.417241 0.500454 0)
(1.28518 -0.472816 0)
(0.658928 -0.0896689 5.77618e-21)
(1.26743 0.506296 0)
(-0.0253392 0.0586133 -4.31865e-20)
(1.27413 -0.415856 -3.57679e-21)
(1.16947 0.514197 0)
(0.45282 0.226955 1.67947e-19)
(1.12601 0.317868 -1.21789e-19)
(0.807868 -0.631514 -2.71794e-20)
(1.16889 0.0644327 -4.14633e-21)
(0.917078 0.152592 8.22665e-20)
(1.09107 0.170305 4.8589e-20)
(1.07493 0.708452 -2.61251e-22)
(0.89715 -0.431376 6.69392e-20)
(1.43733 0.180973 4.31138e-20)
(1.13072 0.00858839 4.76519e-23)
(0.00225648 -0.0410533 8.61164e-20)
(1.07164 -0.695923 2.11896e-20)
(0.862488 -0.711291 5.68122e-20)
(0.248496 -0.32011 0)
(0.971073 -0.144757 7.38525e-20)
(0.363625 0.317761 -4.35936e-19)
(-0.116282 0.0621754 1.97066e-20)
(0.240886 0.0476752 2.28358e-20)
(0.660264 -0.0585801 -6.98119e-20)
(1.08344 0.534475 0)
(0.993659 0.225291 7.8348e-20)
(1.08841 0.0309549 2.81162e-21)
(0.913937 0.448467 -8.92785e-20)
(0.771876 -0.716008 -9.19285e-21)
(0.927452 0.027297 -4.89931e-20)
(0.980881 0.495349 0)
(1.22069 0.201836 -1.87442e-20)
(1.36936 -0.514221 1.20056e-20)
(1.22096 -0.340695 8.53886e-21)
(-0.220234 0.0485815 3.582e-20)
(0.193897 0.0158543 -1.81194e-20)
(0.972071 -0.11542 -5.82378e-20)
(0.35568 0.533433 0)
(0.916088 0.0215496 3.90371e-20)
(1.16019 0.639685 8.22845e-20)
(-0.0863523 -0.0319472 1.3021e-19)
(-0.0650754 0.0697207 -2.55241e-20)
(-0.0789594 -0.035759 3.92569e-20)
(1.0979 0.0237314 -3.67218e-21)
(1.11706 -0.45741 0)
(1.05702 -0.727625 -4.64273e-20)
(0.700382 0.356634 0)
(0.00288667 -0.0283482 -9.21008e-20)
(1.09495 0.0145427 1.54396e-21)
(-0.0314457 -0.044649 -2.72357e-20)
(1.04815 0.0560524 -1.23709e-20)
(0.102599 0.0334797 5.59724e-20)
(0.845775 0.128411 0)
(1.37979 -0.0661023 4.42049e-20)
(0.0487025 0.05744 -2.59277e-20)
(-0.22797 0.0916557 -4.25352e-20)
(-0.221938 0.106009 0)
(0.0774193 -0.0118086 0)
(1.33729 -0.0357288 -1.17909e-20)
(0.368462 -0.010706 1.43809e-19)
(1.25416 -0.721216 -1.66841e-20)
(0.938345 -0.157699 3.26119e-20)
(1.07579 0.253994 -2.85564e-20)
(0.36313 -0.546149 1.41836e-19)
(1.55257 0.281955 -3.55753e-20)
(0.055359 -0.0494418 3.32082e-20)
(0.209234 0.315881 1.94401e-19)
(0.0851075 -0.0282086 -1.24818e-19)
(0.936894 -0.487398 -4.41262e-20)
(1.45722 0.390555 3.62665e-20)
(0.559272 -0.666076 5.04552e-20)
(1.10664 -0.0864509 -7.03372e-21)
(0.152163 0.0381831 4.94021e-20)
(1.18292 0.293026 -4.8394e-20)
(0.664992 0.647363 -3.96314e-20)
(1.32268 -0.619715 0)
(1.42033 0.522344 3.42777e-20)
(1.04519 -0.523754 -1.20948e-20)
(1.39228 0.609976 -1.03711e-19)
(1.19388 0.0340607 0)
(-0.0548482 0.0851497 0)
(1.25553 0.734059 0)
(1.20484 0.0545271 -3.7643e-21)
(0.736467 -0.294731 -2.08261e-19)
(0.475618 -0.0745025 0)
(-0.0556977 0.0927914 -2.59246e-20)
(1.01932 -0.244978 1.00552e-19)
(-0.313137 -0.0150494 0)
(0.321417 0.0356584 1.22423e-20)
(1.15466 0.0393563 0)
(1.41681 0.277358 0)
(1.2006 0.0609272 4.44004e-21)
(0.358934 -0.281788 0)
(1.01542 0.153198 3.61751e-20)
(1.31028 0.288377 0)
(-0.0857422 0.0757231 -5.44554e-22)
(0.808529 -0.3892 0)
(1.52021 0.340807 -5.39548e-20)
(1.24482 0.372466 -1.05017e-21)
(0.844453 0.653228 -9.58903e-21)
(1.01368 0.159718 -8.64567e-20)
(0.967676 -0.20161 -4.89245e-20)
(1.45583 0.296934 3.17428e-20)
(1.01241 0.105746 0)
(0.563589 -0.0635093 0)
)
;

boundaryField
{
    FrontBack
    {
        type            empty;
    }
    Top
    {
        type            noSlip;
    }
    In
    {
        type            fixedValue;
        value           uniform (1 0 0);
    }
    Bottom
    {
        type            noSlip;
    }
    Out
    {
        type            zeroGradient;
    }
    circle
    {
        type            noSlip;
    }
}


// ************************************************************************* //
