/*--------------------------------*- C++ -*----------------------------------*\
| =========                 |                                                 |
| \\      /  F ield         | OpenFOAM: The Open Source CFD Toolbox           |
|  \\    /   O peration     | Version:  2412                                  |
|   \\  /    A nd           | Website:  www.openfoam.com                      |
|    \\/     M anipulation  |                                                 |
\*---------------------------------------------------------------------------*/
FoamFile
{
    version     2.0;
    format      ascii;
    arch        "LSB;label=32;scalar=64";
    class       surfaceScalarField;
    location    "1159.5";
    object      phi;
}
// * * * * * * * * * * * * * * * * * * * * * * * * * * * * * * * * * * * * * //

dimensions      [0 3 -1 0 0 0 0];

oriented        oriented;

internalField   nonuniform List<scalar> 
1171
(
-0.927932699715699
0.9279326996314188
0.7874316007364305
-1.099156925582819
0.3117253248214978
-0.1910216813747083
-0.7648275080585856
0.9558491897565911
0.0720672940584197
-0.116804786573837
-0.2122495883273074
0.3290543752107519
-0.7874315908892772
0.06948183363708003
0.7179497572692586
0.8117093026849105
-0.1778719045310381
-0.6338373980606469
0.8743311710333415
-1.044126538812011
0.1697953678423125
-0.2853877420655965
-0.09734390204399308
0.3827316446135297
-0.03610054859625803
0.5488972851388876
-0.5127967366613129
-0.5032618727960098
0.8244670081713594
-0.321205135855563
-0.4021925357932171
1.046031983936698
-0.171700806203529
0.3930724761340249
0.04833814697363649
-0.4414106230438452
1.046041345685694
-9.359915719679286e-06
0.443337332795231
-0.0502648486617872
1.056705398280819
-0.01066405168331476
0.5787188757329599
-0.7697405571447503
-0.7243503885471136
0.556829755952794
0.1675206325566528
0.218638539086475
-0.7219004134288869
0.5505373519323759
-0.9228504188806947
0.3723130660122561
-1.094176874375644
0.68647283463725
0.407704039981535
-0.5955350551136283
0.5594345118538276
0.01800056452168843
-0.2567485717843108
0.2387480051587878
-0.02351263624414242
-0.5214345904106951
0.544947228677697
0.4004070236716262
-0.4977509302833415
-0.9188900454898012
0.9414980277018369
-0.02260798228379232
1.067517817411041
-0.01081241858684136
0.9349065790916462
-1.116697932504717
0.181791353405601
1.067002675653157
0.0005151415110780981
-0.6644634718519256
-0.05988690599890092
1.262349680569468
-0.8642329559569075
-0.398116724570148
0.1481126301178933
-0.1093496951808822
-0.3263885272513364
0.4357382227648575
-0.2856495303778029
0.191235052814071
0.09441447839983294
-0.5836138717651247
-0.5155430605276706
1.0140143781673
-0.07910779763629025
0.009927335307854477
0.8254632922022102
-0.8353906275362287
0.5718580131531658
0.6904916654182738
0.4395475991474211
-0.03030380353335226
0.4307108273184452
-0.8078640049755028
-0.1025108954959568
0.9103749004306075
0.5022123792819954
0.2537200794258546
-0.7559324588224222
0.006520426495765856
0.5269506886931524
-0.5334711147561632
-0.4899046098377436
-0.6042722706492325
-0.422795468827958
-0.6939024635778371
-0.02702431707251639
0.2701591985107459
-0.2431348806329086
-0.9246966146728252
-0.005067733826648339
0.9297643484867867
0.3086993222672966
0.07403231748683997
0.7619992171698385
0.04971008165658503
-0.5331425763850767
-0.06239247106702406
0.04612219908850925
-0.8539862111216455
0.07482787018875055
0.8633906349208784
-0.9382185051766732
-0.3469738890636452
-0.04148912983317701
0.3884630182797648
-0.6820933245406197
-0.2426032899469017
-0.6330789934093898
0.7079068641623719
0.6123584455813874
0.2121085577632188
-0.5431005285057648
0.9457612147441471
-0.7791504958821216
-0.1666107189473753
0.0166347145516825
-0.01638754149209089
-0.0002471781746149957
-0.4032587863324924
-0.09449214325251307
-0.2408282878895117
0.8531867361951881
0.04672965897730316
0.3355777099282483
-0.382307368554564
-0.4604933681944348
0.9627057456974815
0.6803204912711172
-0.782831395545287
0.3206389383746079
-0.01767316613495502
-0.3029657750081455
0.9307290503476316
-0.9307290503438203
-0.7816985089020624
0.1104843447324807
-0.3227339333828358
-0.7499744440012368
0.7599017793501488
-0.0899107345250485
-0.1433675746554572
0.2332783092962415
0.8649913495472432
-0.03952805768292744
1.054206047485443
-0.8004859696117734
0.186242486739051
-0.3156951608637263
0.1294526743840329
0.859134553884593
-0.09713533878526504
-0.6116904844560646
-0.03899641723161324
0.6506869016670933
0.1236574411737603
-0.2309742344675944
0.1073167917503352
0.8056850516723578
-0.9835569586680516
-0.4352116682141689
0.3295757058839204
0.1056359623322081
0.5317955853104941
-0.5553082183913327
1.021951745665633
-0.4561904639828644
-0.5657612817588392
0.5991562803004233
-0.7193935758579159
0.06683638538776955
0.6525571910921757
0.1032020919820859
0.5699726811042526
0.05531828712435751
-0.6252909683184379
0.1940955493002308
-0.08361120248075438
-0.49293094641341
0.1459570534602055
0.05026277716651342
-0.8866459024455625
0.836383125275677
-0.4730964516928544
-0.7134017673242736
0.04893830091426298
0.4372285374613123
-0.006517708538369226
0.2998427386800787
-0.8552308833309537
0.5553881442015313
0.4157293313823279
0.5842706686525886
0.5604532125537686
-0.5143310162820357
-0.3673685942823501
0.03622132383026697
0.3311472715342673
0.6813518337702497
0.2493772149938475
-0.565611556998285
0.5721319906070345
0.1108400140479346
0.8751668794691986
0.01015890499166562
-0.6218493835264943
-0.749204969603024
0.7994677485039113
0.5309762757329721
0.06998174210643629
0.3023340922002559
-0.3723158342966845
-0.1675133857453868
0.4424891849114517
0.08446149072249041
0.8763544232384078
-0.8017343806913418
-0.0746200427124266
0.6352958175016754
0.3104654021544931
-0.4302830997933697
0.5743281282586936
-0.5043463869841104
0.4172111076571721
0.1333262430744562
-0.04679750319394393
-0.5938481148204969
-0.1374219701510694
0.731270085057703
-0.1497814191849302
-0.7809476332663888
-0.6109801563974644
0.3606675868563439
0.250312570733332
0.6220612306550405
-0.6119023224052256
0.2391436421691023
1.011228811870167
0.0429772350717122
-0.7492049724517564
0.2338696225426731
-0.2172349180745539
0.6803204922746663
0.8018396818983377
-0.8018396819332299
0.8377075958397692
-0.8332325545928769
-0.004475041353853153
-0.4453829475709346
0.8611122766551931
-0.1473955323861697
-0.3455354173636964
0.7347065414219102
-0.6684745132451807
-0.06623202807641977
-0.7331504535505365
0.1393023395674944
0.1387654450090528
-0.6719080167514371
0.7828314030151721
-0.9503447886681055
-0.3678999953652007
0.2918295611398251
0.07607043165712246
0.1459279345270933
-1.009822814075186
0.8638948795219217
0.4813248941365564
-0.04177729490892876
-0.3081607491055948
0.5864653753883622
-0.2783046263741951
-0.7384725691398911
0.884400510665152
-0.1570892575732206
0.7321172192386466
-0.8439788067300856
0.1118615869926397
0.97622121839486
-0.540592229524669
-0.4356289889121877
0.7550421766690967
-0.06501960933763951
-0.03182423538564314
0.1860181397174022
-0.1541939029485923
-0.7757942351587094
-0.8440833659585972
0.07925585968282664
-0.7499744445745926
0.5137032414824991
-0.55519237473174
0.09540653324576606
0.7197496309094455
-0.815156164271207
0.7536800147403
0.174252676588049
0.5029012850481228
0.4970987149736623
-0.0497670405090752
-0.6107133105260878
0.6604803514043119
0.8844943880661451
-0.008139965654977868
-0.7550421766787048
0.7994677456555676
0.1911854737277102
-0.4479340529042219
0.01817201612394623
0.003119796643239814
-0.02129181714681617
0.5885540499121471
-0.4380483439806518
-0.1505057060973859
0.717949752978035
0.01147612408846032
-0.1119661493968243
0.4371857401741456
0.151368308864886
-0.01590538715799561
-0.005550200230338633
0.02145558801938397
-0.03156416799593195
-0.0002600379931587699
0.2440373424602763
-0.2617105122203529
-0.9589289408805618
0.001406008799114569
-0.1594611952075885
-0.123862665720028
0.09437372092947925
0.7218774567650886
0.7290397774971111
-0.1447691093702238
0.6698117078686976
-0.5744051800040334
-0.211719823270909
0.3979623122440268
0.6954953273138782
0.02245442566831338
0.2417116214164908
-1.074944176760042
-0.9503447874883559
0.302181620939908
0.759901778396613
-0.2088094932040913
0.06544192824985401
-0.7232834683511317
0.9109138586310254
-0.1876303904176418
0.4156891964748081
-0.027226182815087
0.7713635152701243
0.2806064232958554
0.3732524436710002
0.07008487215992376
-0.6586927632866658
0.6586927633228806
0.2145962511267331
0.6957786429537708
-0.05559819655423025
0.3911758908877691
0.3801400307743091
-0.01593735982837102
0.03410939552718927
0.4490280942343493
0.03229680623426402
-0.7384725649022572
0.5340826131036918
0.2006239301619983
0.3041112837041605
-0.118093149537498
-0.6954953267138279
0.1802316467163751
0.7306822139382867
-0.01013423076058609
-0.8137234747857275
0.8238577056040041
0.6963130215488064
-0.7920866899629191
0.09577366845954334
-0.7536800133330652
-0.1495411671110387
0.2109361103599307
-0.06139494196522122
0.07714957944055627
-0.1797446797874974
-0.1116847685055963
0.2914294484442781
-0.01010286927658111
-0.005802505062551569
0.7063224618305138
-0.7164566940665757
0.8853942097906132
0.07045497953660727
-0.3100657417678401
-0.5218128487336644
0.8318785909766833
0.1025431617278612
-0.1025431629362094
0.3280508849735281
0.4794068642615825
0.6081003695366549
-1.087507234110444
-0.1941405007307822
-0.5855769357149314
0.7797174364475027
0.01206581002231029
0.2212125012952753
0.3769893249378105
-0.2533318845706641
1.013763872112888
-0.5343570082116414
0.6655563474651548
0.9928615473372632
-0.3847611762787719
0.2295937961795926
0.8844005156478256
0.7126997107083651
0.2137285630696695
0.7277694649499302
-0.7809476342043725
0.3413072333394472
-0.2817546406673899
0.2529905825096068
0.02876405431273757
0.851860374061996
-0.01411564560383089
-0.837744728608995
-0.7020356588691629
0.7025508010418743
0.5546170498665206
-0.7020356594228434
-0.7126997107327462
0.7025508019093495
-0.03381597764095116
0.9042167949711758
-0.01882258527720505
-0.6813518307440348
0.6122821583181668
0.06906967240879776
0.5388526991440747
0.5382665001322108
-1.077119199237359
0.4904969498330815
0.5232669220191016
0.5462780061775282
0.4591504413385796
-1.005428447599796
0.4971715717083239
0.4956899757503553
0.6122821563415842
-0.5256795168053425
-0.4660975248858759
-0.5557391643628183
-0.5173581497919866
-0.1242291816752459
-0.01258495481770229
0.01258495612348726
0.5101236920249422
0.5238142222660674
-1.041172372262911
0.5743043076573427
-0.2719702131781446
-0.883850751465964
0.3432585210148231
-0.6326952911031836
0.3900920032645583
0.0002089892881536584
-0.8297349871880557
0.8295259977921834
0.4208790244243943
-0.02172545783054006
0.873585834191156
-0.9431447355912982
-0.8352971675019849
0.05741533059895542
0.777881836860843
0.5506610484870696
-0.4361667501052844
-0.1144942980423063
0.6499871282062273
-0.7290949266213199
0.8835233458101887
-0.8295868952474208
-0.05393645040205776
-0.01163520535749474
-0.7900991762199632
-0.1106338332087209
0.716068679050101
-0.605434845832067
-0.9394279953860347
0.9277927906315656
-0.7367831724420054
0.6894331574066224
0.04735001501023484
-0.8018624746911228
0.03021162882581552
0.7716508459806222
0.06169640556963081
0.0408467528400237
0.4331689746716217
0.05962138840221012
-0.8497272633167806
0.7901058746911934
-0.6435853194330602
0.5938182804656484
0.8906496971944389
0.07173621540662252
-0.9623859128782741
0.05535252749646771
-0.0491307144988413
0.3802779862959936
-0.3813856026667939
0.06569044574294262
0.8412263578827216
-0.8410173655985715
-0.731407490412293
-0.8081758627097501
0.01807668545023173
-0.1682241191596703
-0.8489095731831884
0.01932267806089741
0.6249215863226731
0.04489011587107071
0.01842184485544369
0.5322392020827005
-0.8120799877082001
0.8422916180188329
0.5657612789374596
-0.8514604419427042
-0.8676917816643768
0.0365250137708187
-0.03728153000086301
0.835385984174506
-0.7981044541686856
-0.01938357235065062
-0.7686890167453455
0.5443174474066812
0.1519955677697855
-0.02330600218495624
0.8968918383250056
0.9852081180563065
0.8605396802354621
-0.8412170005901256
0.1473966147271893
-0.1473966177477784
-0.1181224759732695
-0.4712279012447929
0.03506115532169336
0.2714673608511531
0.03071426042326534
0.3847285730172516
0.8775082671579293
0.004303445892031874
-0.01440632814606891
0.6586130713290856
0.3413869287002666
0.7835077092981025
-0.583613876150747
-0.7780315389713147
-0.8122200950638435
-0.6799428207250097
0.679942820700455
-0.1679717415585031
-0.1547622056065908
0.6015604329633005
-0.811552953693788
0.2099925207347285
-0.49384181610224
-0.5689027945217442
0.2781537140103166
-0.9720561763847299
-0.8996796544152422
0.8457432047330793
-0.8201202327789566
0.838196919862078
0.6485291999627781
0.1345601399908021
-0.7830893399504648
-0.7648700782017953
-0.1461157134547851
0.725120613599056
-0.5790049000744356
0.02217138686278066
-0.01419981316594764
0.01716558558923658
-0.002965770850241953
-0.3536699721918943
-0.1175579319836494
0.8797141481071702
0.7372200651806179
-0.2387401024872783
-0.4984799625343744
0.6227257641463447
0.6854582254852866
-0.4708619799539731
-0.0006029337427921133
-0.2850465994377424
0.01909201670503819
0.7447015061963583
-0.763793522847714
-0.323526975232604
-0.0714533297621596
0.07565489734497541
-0.9641885905128792
0.1264438647764669
-0.6769928116658372
0.05351950372382843
0.6407835418442769
-0.6943030454372913
-0.7568675039749035
0.07987469225333359
0.5892957526194726
-0.6607490823131619
0.1559771735464868
-0.3357218604116541
-0.7722486079882761
0.007378529881775947
0.3712076695379303
0.6007804520168981
-0.02645232304186012
0.0235538013321767
-0.02355380432911095
-0.01813516651627865
-0.05307470949312298
-0.2286799283408778
0.01920960522413016
-0.01490612826208336
-0.727358491278891
0.2794144156606072
0.6784964210199966
-0.6904936140926953
0.01199719325514015
-0.5980349059106278
0.6515544055621092
0.6539833012176089
-0.0646875494212913
-0.6314560839989682
-0.1254114227575504
-1.049580980869802
0.01124367185966662
0.1361529528422095
-0.7082664777512568
-0.7420899215071971
-0.7637496636897462
0.3656329367732151
-0.4094712230302344
0.4701983542412872
-0.06072713119582956
-0.6777252983369356
-0.03054117926227999
0.4997332109386838
0.7306803658497431
-0.2337914647263098
0.1099288019539538
0.9568100607881349
0.4458374737411932
0.1330824769865719
-0.5789199507493246
-0.6781145866571966
0.0003892825358332603
-0.04452570546394129
0.0303259063429649
0.6376864149204385
-0.7751083885894057
-0.002923064923982739
0.002923063638213826
-0.5999700981403205
0.6491258521377526
-0.04915575373294196
-0.6596927500817095
-0.1137625355557443
-0.6718316423932051
0.05032306466947448
0.6101572954331336
-0.1374753582863437
-0.8179473581901947
-0.5592366658237914
0.570841989850395
-0.01160532149232187
0.6331694747724649
-0.6211722872136782
0.3222298792922915
0.2138550335441536
-0.5360849128758267
-0.1044035045559148
-0.6030198435735146
-0.09128320300103428
-0.1541326227311724
-0.5089136003890974
0.4043350791809969
-0.4988272191153679
0.1259825321391799
0.6786441809481731
-0.8046267131991119
0.5991562802911659
-0.3751070408045094
-0.0343641821702691
0.05988658176475724
-0.5688001821142472
0.5516299101716924
-0.04029241485353512
-0.5113374957132844
-0.3124122588566723
0.3050349492664805
0.007377311834414668
0.451058769834875
0.1232455325947608
0.05096345542202085
-0.3159326375642473
0.1568841428442136
0.1590484951071956
0.2539870731156144
-0.02011743710826189
-0.2975215828008678
-0.3138736296983456
0.3652752988680399
-0.05140166273666971
0.7920002144648449
-0.6295944056009772
-0.03009834424230608
0.4995476150126915
0.2838702365058463
-0.5226103523124623
0.5774476627998854
-0.5774476627997122
-0.2897894023326859
-0.5865194579597217
-0.2955133108051794
-0.586519457975646
-0.5967529781652383
-0.8384856410735557
0.1700111322304132
-0.5945332444483504
0.8212352256552957
-0.003562463732477857
0.1195634498629306
0.4812170029651547
0.09670661615121356
0.1853265367054363
-0.03611516029178127
-0.1492113760700446
-0.0236912549854944
0.5918394939508845
-0.9435545193450789
0.4217416701450756
-0.001391468552054624
-0.0001747779044788603
0.001566246127592804
-0.64369245579585
-0.1320333344173052
-0.4653904069614796
0.5984728832133346
-0.5036749230110033
-0.3142821931262612
-0.2545179793656391
-0.2722515168985727
-0.1118497924870845
0.1118497942050867
0.1533422016336878
0.05759392592325353
0.1965702217337039
0.4500809238101983
-0.5706222229375799
0.1052318202526452
0.2515990952515034
0.4661694206813278
0.533830580091699
0.6447817335731904
0.08015521735912333
0.003274002676767861
-0.0834292229052797
-0.2769421846142783
-0.5410051734626928
-0.5451549906891935
0.1143284875852308
-0.1262538061822314
0.01192531930604464
-0.105968916940033
-0.385827829965307
-0.04674683352606725
0.6569041334175336
-0.4992394165711475
-0.1444530392312356
-0.3306697202711401
0.2881739087868117
0.1258352327915372
-0.6049463637302147
-0.2040868952999295
-0.2621369337840712
0.0004264291050179896
-0.4211606617769412
0.3217281470648805
0.09943251469450659
-0.08873093505808595
0.2916520077060404
-0.8959242806462219
-0.4577703217943703
0.6332128796697549
-0.7730179075493739
0.6686144030623593
0.342045174069236
-0.126380096919694
0.2254428451043876
-0.09906274907768273
0.03038211221855507
-0.5861802318029745
0.02906554244051312
0.5571146890814932
-0.9006914987446769
0.5470985986230944
-0.665221074779915
-0.09781131394496702
0.1089538327516228
-0.1089538358378786
-0.3165355760170019
0.3619858824205157
0.01829210290938781
0.02122317058909156
0.0589320526919162
0.5045239522868037
0.665765563703694
-0.7403856073508158
0.02434296646488229
0.02130404949581613
0.002249754233512271
-0.006315430179968734
0.00631543171279853
-0.4114547213789567
0.5347002557760199
0.01538302758300246
-0.01538302747006966
-0.7924852543602495
-0.05982141341504529
0.1215178170813592
-0.4505511304996937
0.5557829519836562
0.4492802109206592
-0.4984359657267297
0.1498550493970897
-0.1498550521566307
0.04433101616951558
-0.01022162027741614
-0.04092444421858638
-0.9770681520485405
0.5414391615300248
-0.4721818461614501
0.04084675103680385
0.514790699987796
0.03067508585627247
-0.5454657860588222
-0.6160308102884827
0.1167913889314632
-0.3296492902035442
0.01354827908820368
0.3161010094459297
-0.1537686328806672
-0.08002284056844249
-0.5408116604175787
-0.04536857655574821
0.1361529502630203
-0.04159128496795936
0.03866822463699066
0.08192221907258783
-0.08192221650778066
-0.534230047465648
0.4828283919857581
-0.4145347033875362
0.1613152940247781
0.6221924153176563
-0.09770295021252066
-0.006388235658808384
0.006388236632605277
0.5330058079735357
-0.07270716228350313
0.006410662597842944
0.0271991108783555
0.03453131390198835
0.6893209392293775
-0.762028101465327
-0.6635949885602404
0.6334966388162407
-0.1101959713972325
0.3131759616422491
0.7458441916285011
-0.01813516458720985
-0.2661484729829924
0.1480553222965938
-0.7446538056509422
0.4840761920922491
-0.4227420960599613
-0.101240115993824
0.003505779752156854
-0.01471394957053719
0.02248360375879298
0.4124368377434562
-0.1216817070224116
-0.3896557858220805
0.6290863480926264
0.01890041045995671
0.009498188927184643
-0.009498189885880335
-0.3568149443140624
-0.08414912746229915
-0.5605573291479111
0.5569948653217495
-0.2380648662223876
0.4647836661640091
-0.1506192215635643
0.7293380971422393
0.6717141846282751
-0.04159128387607992
-0.6155755614734788
0.559748035532922
0.2842217434145043
-0.2814094215189207
-0.002812323716385659
0.5447657099447039
0.09342336215299814
-0.03873185857821997
0.1970523315887506
-0.1583204726273882
0.1206540796262569
-0.1206540762955293
-0.8586921973013684
0.002458436985807874
-0.1129590132766882
0.1401581227370306
-0.1318767169418367
0.1318767192123078
0.0213040538246309
-0.02452340010203195
0.6712219910441534
0.05946022686668462
-0.3230587040178394
-0.06276912628095943
-0.471284083647808
-0.04644796755624896
-0.15168660241056
0.151686605365164
-0.03909820057133911
0.1433158479503444
-0.1433158507032623
0.1368500113515703
-0.1368500083289662
-0.3158009803201813
-0.114482119472946
0.2264753364821263
0.1031003684548174
0.03483449350201567
-0.8211928275109064
-0.1972967682889273
0.1702292274611048
0.02095625043566795
-0.2651834882961705
0.1258600366149137
-0.1258600390246122
-0.4141509053455126
-0.0846763135450605
0.236359653972518
0.002388352721366729
0.04033092968815174
-0.5439576981867961
0.5777736758961374
-0.02440331061810973
-0.0146948914747554
-0.02658451954885161
0.01636290056878119
0.006539208761544378
-0.1843121870203172
0.1777729779727432
-0.1075621966184782
-0.228159666937716
-0.1447447650099992
0.1447447678209584
0.07277065029653899
-0.07277064878626562
-0.01930576224937207
-0.108675491903407
0.1279812528252055
0.2379090695494511
-0.1829595866834891
-0.02137719506707533
0.02362693685171728
-0.1332094953874955
0.6160378832851928
-0.0390791445277382
0.4225734400932157
-0.04099096430884444
0.06244655446727149
-0.1535235914737522
0.1535235947182632
-0.6361555395239545
0.3087495919421689
-0.07915579804123118
-0.234614287099378
0.003640045852050248
-0.1227184532175768
0.1630493838202642
0.1939227820344497
0.09750665904873973
0.09465418727776775
-0.06012287275494437
0.07274737074919611
0.04158111842819526
0.06394206931029962
0.1062871526388006
-0.0976751011766491
0.2076038973957709
0.01242123221612234
-0.1125812499345399
-0.1026548660964136
0.09739287270108775
0.005261990699120937
0.01180587237523455
-0.02209055238101679
0.03766516976523587
-0.03766516950398895
0.07433387107904876
-0.05494956736615496
0.05494956787797996
-0.2245014670307174
-0.050134699249711
0.01164889221634603
-0.1031739495870287
0.01619593048091773
0.1084560110958153
-0.1084560125843241
0.293355295641496
-0.2712931883382402
0.1637309921236455
-0.05035723604375163
-0.2209359572153984
-0.01730111218734731
0.01730111135351926
0.3673177288557657
0.2852394634478175
-0.5275208010167725
-0.09396703147947895
-0.03228676991903779
0.5286330217907471
0.2113245321006874
-0.168641814188795
-0.3821661782332355
0.07658142004384932
-0.1476598807293321
0.1872692088218136
-0.03960932724497909
-0.06687489088514663
0.06687488976017703
0.8224256116578686
-0.5605006427598845
-0.00207508907436034
0.01388095972657514
-0.02002692720499981
-0.2867955286875729
-0.01745581580153717
-0.01286804158698802
-0.131854838190599
-0.5721021004475655
0.5559603944903165
-0.5686673261626805
-0.006941841041937318
0.1000369141559858
-0.001836987865258157
0.01667358586861954
-0.1676868045952915
-0.3365613975367382
0.2333874475413349
-0.05441125033076908
0.03510548624616195
0.1319680976502102
0.1730668494777422
0.3382806071898516
0.276579173680211
-0.2784161628138718
-0.06398663135317319
-0.154827437153566
-0.2210660006305154
0.07477532314138889
-0.01083325593158099
0.2140969476294486
-0.1974233625040977
-0.08623206557369828
0.1589794351902401
-0.3548122895477149
0.2086777028642057
-0.1924817721031752
0.08967125786566585
-0.4793270444350269
0.1744011682704973
0.1700844418298427
-0.2563165115496868
0.07256364370274519
-0.1943906946740797
0.1769348794650748
0.01740403453709541
0.1415754047252417
-0.03956654171466249
0.06622300603547478
0.4667828025432054
0.02036406488251639
-0.07747802983520856
0.05680102193397103
0.1254441765902393
-0.2606753165219418
-0.2309254415893192
0.5596996008349949
0.1575749515702178
0.07878469862898346
0.07562098816298386
-0.03102003996852949
-0.001493266748225086
-0.001319073076462571
-0.03268414573998038
0.1710993741443581
-0.1780412159531179
-0.05499442962992278
0.02155186373335213
-0.1467529335251232
-0.05281529421282764
0.1526094883794645
0.277083510741664
-0.04012100376308073
0.01486963873706449
-0.2553858456579863
-0.1301575529602484
0.2357748790263412
0.1791657279816409
0.1295838616669439
0.02161516824840221
0.0889021022580203
0.05200871313005909
0.45251523911666
0.01768321376912884
0.09726802049437779
0.0435174080913614
0.07185331191382235
-0.115370717706554
-0.2422813362213542
-0.2007808955108803
-0.02015506546666678
-0.2022435329440795
0.2755409158808186
)
;

boundaryField
{
    FrontBack
    {
        type            empty;
    }
    Top
    {
        type            calculated;
        value           uniform 0;
    }
    In
    {
        type            calculated;
        value           uniform -1;
    }
    Bottom
    {
        type            calculated;
        value           uniform 0;
    }
    Out
    {
        type            calculated;
        value           nonuniform List<scalar> 10(1.036774955879179 1.064532216634398 1.021836689236333 1.020438493775239 0.9974169415552575 1.013048125681458 1.03393791351716 1.062744610552744 0.8672370645181562 0.8820327688224892);
    }
    circle
    {
        type            calculated;
        value           uniform 0;
    }
}


// ************************************************************************* //
