/*--------------------------------*- C++ -*----------------------------------*\
| =========                 |                                                 |
| \\      /  F ield         | OpenFOAM: The Open Source CFD Toolbox           |
|  \\    /   O peration     | Version:  2412                                  |
|   \\  /    A nd           | Website:  www.openfoam.com                      |
|    \\/     M anipulation  |                                                 |
\*---------------------------------------------------------------------------*/
FoamFile
{
    version     2.0;
    format      ascii;
    arch        "LSB;label=32;scalar=64";
    class       surfaceScalarField;
    location    "1059";
    object      phi;
}
// * * * * * * * * * * * * * * * * * * * * * * * * * * * * * * * * * * * * * //

dimensions      [0 3 -1 0 0 0 0];

oriented        oriented;

internalField   nonuniform List<scalar> 
1171
(
-0.9279195215339066
0.9279195214776643
0.7874445248588731
-1.099251366193367
0.3118068414425156
-0.1898425168918765
-0.7652213040000025
0.9550638209608193
0.07208047239742418
-0.1170526195823477
-0.2123916030917254
0.3294442223659174
-0.7874445221034909
0.06946427458078573
0.7179802475373136
0.8116194824907759
-0.1779890977466362
-0.6336303847628982
0.8741807495685854
-1.044227510598845
0.1700467610763116
-0.2854786402736044
-0.09762000043632464
0.3830986411027258
-0.03632253407613842
0.5489960410394994
-0.5126735070519235
-0.5048549237568268
0.8251508114668967
-0.3202958878001845
-0.4025312548361816
1.04592621956443
-0.1717454710942291
0.3922430489865527
0.04933566823659068
-0.4415787180396029
1.045939308141846
-1.308892173713677e-05
0.4434134969881355
-0.05117044883824614
1.056540864803464
-0.0106015631278267
0.5797171489499211
-0.7695596586108187
-0.7242056877166846
0.5566563963802549
0.1675492912684499
0.2160372571348924
-0.7208921867166147
0.5502671018890349
-0.9227313288050936
0.3724642261185299
-1.094197829106488
0.6865569316291765
0.4076408976153927
-0.5955895502367462
0.5592670219731721
0.01760208013618157
-0.2562610374667942
0.2386589560851727
-0.02284096013063383
-0.5223739547462077
0.5452149153034849
0.4004440401090255
-0.4980640332163424
-0.9189476775480043
0.9416003043588455
-0.02265262681534782
1.06760786974165
-0.01106700812942874
0.9348493280916993
-1.116653225862403
0.1818038977152559
1.067055952042999
0.0005519108262781851
-0.6644484339397039
-0.05975725689757554
1.262311744519302
-0.864258412700759
-0.3980533318106134
0.1481082675960834
-0.1097222161763496
-0.3260755795092101
0.4357977959995494
-0.2855611559778534
0.1915982778625479
0.09396287866636953
-0.5836809849405854
-0.5155703810127039
1.014039540578388
-0.07919021402471831
0.009900662220817886
0.8254859310389511
-0.8353865932393446
0.5717958322813995
0.6905159132134737
0.4392738288251354
-0.03060397581734283
0.4310480161629486
-0.8079947785784217
-0.1025082623211742
0.9105030408389322
0.5020813055367745
0.2538593519287394
-0.7559406575022178
0.00699745896114528
0.5278461612498716
-0.5348436204808362
-0.4899604523574305
-0.6042373824991062
-0.4227595189899599
-0.6938937074087953
-0.02708848038268918
0.270414443129663
-0.243325961952091
-0.9247097450596143
-0.005069631228946342
0.9297793763230685
0.3087356485968304
0.07436300270533727
0.7617308760866127
0.04988860573873547
-0.5330717511200418
-0.0625177959309258
0.04602781249384479
-0.8540225934427584
0.07530036211831351
0.863457453573279
-0.938757815696156
-0.3468443377838776
-0.0412188421565007
0.3880631798722351
-0.6820334102310169
-0.2426763344152559
-0.6339817925619563
0.7092821516747523
0.6138391380740503
0.2113116680927582
-0.5432774757689824
0.9456440278568929
-0.7790031814805446
-0.1666408463697535
0.01278311306319635
-0.01188767359578076
-0.0008954406250972981
-0.4034191468783185
-0.09464488571098408
-0.2408313928505039
0.8546705243492838
0.04753959110835444
0.3350405288542077
-0.3825801195577956
-0.46098306842679
0.9630643732198846
0.680422828804207
-0.7829310961389159
0.3203494876891841
-0.01688454338930368
-0.3034649451954956
0.9307359048075304
-0.9307359047947127
-0.7812789651137269
0.1107153318805519
-0.3231069300037826
-0.7499399688591499
0.7598406300435585
-0.09020092213108968
-0.143430713301805
0.2336316358931677
0.8649468585501938
-0.03946092799888638
1.054314267106496
-0.8004549183265945
0.1865154918877732
-0.3160272123804159
0.1295117204467869
0.8587809750322857
-0.09705009775253778
-0.6115232398584025
-0.03899602657947583
0.6505192664516242
0.123515783703058
-0.2306944159581912
0.1071786310986189
0.8056331864765246
-0.9836222835000081
-0.4347624803498743
0.3293619628720081
0.1054005171425197
0.532560995659092
-0.555401959945822
1.021910398009395
-0.4561884139484167
-0.5657219840747453
0.5991508748828082
-0.7193659956840739
0.06672111137447038
0.6526448847110063
0.1028403169452259
0.569687086742301
0.05538719881982617
-0.62507428568673
0.1943828727602448
-0.08366753545772536
-0.492522588911745
0.145678248949236
0.05023821224615138
-0.8865093688581607
0.8362711565614861
-0.4730382835117779
-0.7132945761742481
0.04884614449945235
0.4372846416652219
-0.006236621814603606
0.2999274591698904
-0.8552522247482464
0.555324765344123
0.415745318351728
0.5842546816101823
0.5604724208848074
-0.5144446163201456
-0.3678890810413729
0.03793506735379332
0.3299540158844994
0.6813104902227656
0.2494254142239646
-0.5661498440139824
0.5731473043957898
0.1112090583729373
0.8750974602349286
0.01016587693040628
-0.6216891184294457
-0.7491166173447679
0.7993548271887225
0.5306910594907207
0.06982599614998081
0.3019300157755541
-0.3717560120626792
-0.167465668926032
0.4438483999771651
0.08399776571201444
0.875528701685416
-0.8039886187362785
-0.07154008304764919
0.635287072092754
0.3103569530886045
-0.4305076289103086
0.5738440171982878
-0.504018023947818
0.4171604064522156
0.1331066852237133
-0.04674634123927565
-0.5940639683004761
-0.1379858658614221
0.7320498341966364
-0.149781130301866
-0.780954772144011
-0.6109871026398791
0.3604613293885637
0.2505257743044595
0.6219596263749048
-0.6117937516613755
0.2392433002025256
1.011324816978686
0.04298945119302951
-0.7491166191758861
0.2342407320644011
-0.2214576108270437
0.6804228306999709
0.8017559449090693
-0.8017559448699135
0.8376632302053125
-0.833144401034375
-0.004518829251938234
-0.4453658239223692
0.861111140859329
-0.1473075185011825
-0.3452150680797013
0.7347282482078477
-0.6685144044915171
-0.06621384364274809
-0.7348305623463574
0.140766594187834
0.13892531772845
-0.6719970683332575
0.7829311145000185
-0.9503967833636865
-0.3686475931266882
0.290754875324589
0.07789271832927898
0.1458424816276327
-1.010002753494912
0.8641602718393164
0.4812586030160604
-0.04198477411457294
-0.3081192894524521
0.5863783869684114
-0.2782590976221991
-0.7385621493441519
0.8844046339844369
-0.1570435595712872
0.7312812127741257
-0.8431887393442676
0.11190752642243
0.9760723167470542
-0.5396914776698273
-0.4363808390434729
0.7550096007443707
-0.06503272146236123
-0.03217575052546737
0.1850718718306265
-0.1528961205690073
-0.7758123743583764
-0.8416631065078427
0.07644180995188636
-0.74993997007202
0.5136473193198766
-0.5548661596664662
0.09870785647513934
0.7185465746265663
-0.8172544312367906
0.7536354636970993
0.1742840386464983
0.5029194062851187
0.4970805937368891
-0.05099825708151615
-0.6123122312500446
0.6633104881890928
0.8839291716581879
-0.008400473333399171
-0.7550096007577921
0.7993548265834072
0.1914093231857621
-0.4476703644762923
0.01565078758528863
0.003600687156623969
-0.01925147829336006
0.5885215257176444
-0.4376761540953337
-0.1508453719644861
0.717980245687453
0.01037128876612435
-0.1103818930381272
0.4376628314562205
0.1508586905068307
-0.01645424011733611
-0.006113878887201555
0.02256811913942157
-0.03100906918099998
-0.001166674944535004
0.244966864583786
-0.2618514235936708
-0.9587995063022924
0.001322069480988666
-0.1594446797073447
-0.1236807322518328
0.09439278153794775
0.7222329759452507
0.7290024606591143
-0.1447477774222647
0.6734837986526494
-0.5747759398712489
-0.2117659364495227
0.3982814266347716
0.6955726925358371
0.02240755316613052
0.2417862690728326
-1.074930673933491
-0.9503967811725677
0.30249901889156
0.7598406297008511
-0.2090552795867182
0.06562456173051522
-0.7235550450528976
0.9111347281965289
-0.1875796831877126
0.4155419783523053
-0.02747879345645935
0.7712384322234658
0.2806339982878416
0.3748843817464751
0.0685291258422467
-0.6587013462968621
0.65870134631835
0.2146293566196156
0.6958736795890594
-0.05612492124794425
0.3911654501461997
0.3796728700760159
-0.01551628062040639
0.03116707465215852
0.448630821486718
0.03262778376424912
-0.738562148118706
0.5340261129064899
0.2007021308174108
0.302071491399234
-0.1169996292831189
-0.6955726938248457
0.1800672387591719
0.7310674907469908
-0.01015183892460944
-0.8136867037587452
0.8238385427070749
0.6963627138049492
-0.7920338745753476
0.0956711607494139
-0.7536354552389313
-0.1498922404442526
0.2113657876845563
-0.06147354634168795
0.07726866897919311
-0.1791977469175302
-0.1119489874923688
0.2911467338194394
-0.009492595279311648
-0.006961641607611506
0.706280460936061
-0.7164322923893914
0.8862713027814462
0.06879252480379547
-0.3098180174419121
-0.5231499082301633
0.8329679259025374
0.1028112571182401
-0.1028112590620079
0.3286899333853378
0.4787833615091175
0.6080646488725495
-1.086848010511789
-0.1941186386313426
-0.5855422717006209
0.7796609103220651
0.01228098674252037
0.2213506397490291
0.3766055985075411
-0.2530898287259501
1.01490906061989
-0.5361257027158812
0.6670908428234433
0.9923649084356426
-0.3843002627535413
0.2292980848652228
0.8844046371408922
0.7126591632479321
0.2138131162921477
0.7277871833224504
-0.7809547722450124
0.3412986367661697
-0.2840834372533688
0.2580153626720581
0.02606807495624545
0.8519825684339875
-0.01016127090870608
-0.8418212977248102
-0.7020575932354925
0.7026095008280421
0.5546341732010098
-0.7020575961558116
-0.712659163250372
0.7026094973476771
-0.03358885610857796
0.9058454212718386
-0.0195741144361414
-0.6813104996111857
0.6122486304101943
0.0690618691995491
0.5387344477895808
0.5385361172723433
-1.077270565060196
0.4887445280206809
0.5261645316478257
0.5478115168312573
0.4583128521601293
-1.006124369048827
0.4950102349757382
0.497354672337584
0.6122486371316223
-0.5257025106763968
-0.4665301077334487
-0.5557928505803916
-0.5153510920119193
-0.124642159646647
-0.01275490580361342
0.01275490675370024
0.5095422104512868
0.5243086642188269
-1.039659756362544
0.5730762516707507
-0.2711462352783037
-0.8831780531936054
0.3434865759314402
-0.6326845213480399
0.3900081865468146
-0.0002019756417594126
-0.8280039990982672
0.8282059747510188
0.4208831764529713
-0.02404055172635686
0.8760231229073235
-0.9437998146817144
-0.8347179940822269
0.05734622131285645
0.7773717728216303
0.5509623315178008
-0.4366196102502481
-0.114342721158945
0.6500897672189281
-0.7292799812928494
0.8847617519536829
-0.8277910909011422
-0.05697066085786631
-0.01347478552539487
-0.7905138361985501
-0.1110999979905311
0.71530650928365
-0.6042065112916313
-0.9409407241145028
0.9274659382892422
-0.7357089314669647
0.6885100231134941
0.04719890836973899
-0.8005626790960958
0.02793818327239679
0.7726244959204542
0.06180625859468481
0.04100500093731237
0.4330341443073761
0.05903808039981179
-0.8496876398021808
0.7906495592707942
-0.6448997425154175
0.5939014785036287
0.8898442199109122
0.07291680816680912
-0.9627610281817783
0.05512622706688822
-0.05007141609576468
0.3800254219748906
-0.3816346844465865
0.06560746666303495
0.8407099231584317
-0.8409119035537294
-0.7317701476889747
-0.8104460068827332
0.01993217000013297
-0.1684638331459159
-0.8478489487955462
0.02005785003578394
0.6238014025243162
0.04968239807463146
0.01716008600069124
0.5338022320984226
-0.814766904397846
0.8427050917911122
0.5657219871194338
-0.8520445580611002
-0.8680239154520489
0.0378215085378321
-0.03318169064641951
0.8342581949893514
-0.8010765043169802
-0.01964298557019434
-0.7649518340009021
0.5442945271564263
0.1520681878125583
-0.01949129432614367
0.8955144163705848
0.9848121599982287
0.8607546662670503
-0.840696820715616
0.1475885281215687
-0.147588529948886
-0.117739131421599
-0.4661885634272198
0.02956894674521291
0.2713710676756519
0.03112795154719315
0.3852556589317025
0.8758714335478101
0.006260703578545534
-0.01575328539473992
0.6586020389249831
0.3413979610970655
0.7835534121219017
-0.583680985799272
-0.7780473605717676
-0.8112377677889463
-0.67995686447635
0.6799568644742819
-0.1681408407514615
-0.1549660834384691
0.6017976196880632
-0.8113293700134534
0.2095317503470368
-0.4939741898551369
-0.5688563905844837
0.2780638983997464
-0.9719576068451863
-0.8988366278870775
0.8418659563751011
-0.8197398947370409
0.8396720655314538
0.648485116429094
0.1344943071407405
-0.7829794235817396
-0.764038859348928
-0.146310744355427
0.725350370713193
-0.5790396263575859
0.02296519738911758
-0.0129325980786119
0.01608536795086405
-0.003152768795139339
-0.3528012536318988
-0.1133873076601783
0.8798615191267556
0.7385537835738254
-0.2385513350239348
-0.5000024488587979
0.6242110639513325
0.6856418799823117
-0.4710125248829272
-0.0003059911116262363
-0.2852551696345086
0.01443508467815104
0.7468528658653067
-0.7612879503996886
-0.3234724901076684
-0.07175243849635236
0.07597116096578346
-0.9665726708209746
0.1247513770644384
-0.6768350611594492
0.054206044043934
0.6402332509925251
-0.6944392950136286
-0.7565805113228078
0.07974545015075667
0.5894833115042587
-0.6612357499143099
0.1562583743636347
-0.3354561251470999
-0.7724470057952013
0.008408146432793286
0.3711506925686631
0.6001492629486883
-0.02630524294173949
0.02181855444787136
-0.0218185559720134
-0.01886877603427518
-0.05253375267442967
-0.2315496690954983
0.02117323086283138
-0.01491255412212805
-0.7227646110631319
0.2794045812119957
0.67843864842535
-0.6901218531016161
0.01168320485927949
-0.5968016548358777
0.6510076972352171
0.6544364879306741
-0.06495317761673806
-0.6310669216223314
-0.1255135919846765
-1.049767038964016
0.01123380387973894
0.1363547285091807
-0.7083295278436138
-0.7421669233137382
-0.7639470431468686
0.3658937120484522
-0.4069125925061658
0.4675133998132867
-0.06060080716186195
-0.6737366893475225
-0.03459283839002697
0.4996289078288231
0.7306825168459112
-0.2347662453757168
0.1110855146780206
0.9581645271322162
0.4461730350068253
0.1324244447162092
-0.5785974797789102
-0.6774843936900492
0.003747706655651804
-0.04449623226574915
0.03156360964837487
0.6375763164711331
-0.7755621843000321
-0.00277835103177252
0.002778350578771039
-0.6000251262952424
0.6495717813199381
-0.04954665500284704
-0.660324307902146
-0.1138572717885756
-0.6718154451517498
0.05375332234196675
0.6095571606342065
-0.1376112701537175
-0.818126188004484
-0.5651335082838457
0.5720854799112741
-0.00695197090539195
0.6312340476677064
-0.6195508433402129
0.3223275697237382
0.213675269847967
-0.5360028395821602
-0.1045906078475168
-0.6027193076073497
-0.09171998636486731
-0.1538520905119853
-0.5113801974115023
0.4043521554830864
-0.4989970433149759
0.1259903999741008
0.6787471958849829
-0.8047375958566099
0.5991508748765511
-0.3746553926650092
-0.03225721039621798
0.0598901325300687
-0.5712703313957309
0.5514560269630041
-0.04033394621291755
-0.5111220809459024
-0.3127462316747968
0.3053914566802646
0.00735477620685208
0.4507793047923558
0.1222969432946101
0.05171718222143066
-0.3162172448535251
0.1572106194551124
0.1590066256267158
0.253282622307028
-0.01904190036830762
-0.2968422190911471
-0.3131727593374851
0.3597532181835963
-0.0465804556196586
0.7918422178085537
-0.6291798327982693
-0.03114447523923688
0.4995097673485373
0.285131726319807
-0.5236830653720805
0.5774419508721984
-0.5774419508706203
-0.2897888472946046
-0.5865179042484098
-0.2955236295316285
-0.5865179044664348
-0.5968673134327865
-0.8384785249376648
0.1699641160063189
-0.5996108808277901
0.8212212508954178
-0.003410137175079247
0.1189069308615774
0.4812423329120014
0.09674184505288005
0.1855828135490863
-0.03618522089827426
-0.1493975917284336
-0.02752541056126168
0.5906643484936738
-0.9426425422561509
0.4194926296350158
-0.004300520523643279
7.987552158715344e-05
0.004220645247004065
-0.6439928025481283
-0.1321168143089762
-0.4659851252808778
0.5984095710413158
-0.5035748436012026
-0.3151834503404247
-0.2560868666878244
-0.2723369966352394
-0.1116409337306086
0.1116409344543887
0.1535632358004925
0.05780255472599972
0.196816621112461
0.4484714957455099
-0.5696862313683115
0.1037011007574844
0.2537148317327558
0.4662815570569281
0.5337184436237976
0.645618657457391
0.08133531588666766
0.002981920681711622
-0.08431723668851425
-0.2770451427373363
-0.5410810452778768
-0.5452507004316225
0.114608932560108
-0.1264806386848213
0.01187170660920772
-0.1058062795136489
-0.385549017602388
-0.04881699700226002
0.6583741741923927
-0.4994319670960354
-0.1445608354261874
-0.3270711148257325
0.2865552153670918
0.1278433170382833
-0.6093687754052105
-0.2043260748490219
-0.2626199571142329
0.0007685522476638643
-0.4209549776414387
0.322179594678701
0.09877538317189211
-0.08965814543876102
0.2916954116904319
-0.8959327967752696
-0.4575249947635986
0.6308487593252253
-0.7731399753521553
0.6685493675534353
0.3410940274468322
-0.1257925934801977
0.2247976135791726
-0.09900502083969746
0.03145684915750935
-0.5861763467628581
0.02886288142818591
0.5573134650880374
-0.9006466376330513
0.5474831943952939
-0.6652223258458917
-0.1007765903216956
0.1091579713802715
-0.1091579740633278
-0.3165232414251772
0.3601280587124297
0.01989735781612357
0.02108577436600556
0.06024951604646836
0.5043858172991426
0.6673553873672009
-0.7388954728047323
0.02468645623303465
0.02021119244334489
0.001607350199844325
-0.006325805915186467
0.006325806804291513
-0.4100196861989288
0.5323166255935378
0.01559398954924827
-0.01559398943433772
-0.7926155249905211
-0.06003342196836135
0.1218396729577793
-0.4509954584389514
0.554696554984192
0.4496988466500564
-0.4992455013682943
0.1500446623111153
-0.1500446637861824
0.04388781645865114
-0.01272073112748685
-0.04126930030913661
-0.9764116860049955
0.5400308481153155
-0.470620501384739
0.04100499926465553
0.5150455620280732
0.03051995804789003
-0.5455655202765665
-0.6162534114324896
0.1168214447028669
-0.3293840990927067
0.01359054302110509
0.3157935551371107
-0.1543317871674916
-0.08043447447380639
-0.5409118815345949
-0.04526446216156509
0.1363547291799144
-0.04129747455054428
0.03851912035870559
0.08161069680109399
-0.08161069392397401
-0.5297926628139141
0.4832121978573573
-0.4147294129110285
0.1613030701946942
0.6222503419692479
-0.0973551502806992
-0.005733179399218092
0.005733179443511129
0.533002651008899
-0.07556653863203676
0.006346711003275692
0.02719675703570262
0.03467920637773676
0.6894111222882525
-0.7649776610080725
-0.662305607404948
0.6311611325727037
-0.110492425774312
0.3136062968237351
0.7456421416841322
-0.01886877479009234
-0.2655830628380985
0.1485834467280396
-0.7446248220565251
0.4838784148131126
-0.4245507012108384
-0.1012078477058474
0.003382646291177688
-0.01467240283662426
0.02415517438273963
0.4123006563384971
-0.1216337895153446
-0.3894882925405903
0.6290884378563832
0.01908068289742287
0.009133049889097786
-0.009133050082199392
-0.3547580206238093
-0.08132116731359466
-0.5604157697771099
0.5570056324533933
-0.2377415825075443
0.4647446038829373
-0.1505815433745045
0.7302986954413285
0.6704097956723184
-0.04129747430374572
-0.6164414261152423
0.5600279028560081
0.2823683965944958
-0.2785125127027571
-0.00385588285175319
0.5415029890079296
0.09343895757639846
-0.03874971814107171
0.1966675759916593
-0.1579178574006889
0.1203604123924495
-0.1203604096782405
-0.8586452366791356
0.002456130079886397
-0.1131490811407909
0.140345836963915
-0.1316804662742853
0.1316804673133113
0.02021119583737297
-0.02460196640693428
0.6708651492559352
0.06020234198421844
-0.3228452857679118
-0.06270373161959995
-0.4712949343171537
-0.04470271927390272
-0.15148832564922
0.1514883271549043
-0.04042942178818151
0.1435069823678839
-0.1435069836676957
0.1366099828420889
-0.136609980766551
-0.3160165022901114
-0.1144911265774849
0.2262173184521041
0.1031446438801809
0.03480668774733061
-0.8212261401231471
-0.1976446998286506
0.1700528555287281
0.02135646017687432
-0.264696595459566
0.1260530914952433
-0.1260530926361278
-0.4142554770563687
-0.08474156336525289
0.2360218543512117
0.002637096721009398
0.04031322561751852
-0.5444143021688493
0.5780031582999345
-0.02819960316711659
-0.01222981767395458
-0.02540137456335654
0.01268062893284278
0.006537662864802937
-0.1845411786857238
0.1780035157923353
-0.1077106756942866
-0.2277454509543897
-0.1445524256038452
0.1445524269465149
0.07256484779453
-0.07256484713429166
-0.0191111377388177
-0.1086177356476304
0.127728872608798
0.2353847762008596
-0.1832345138514463
-0.02153366896231972
0.02314101242789069
-0.1301775635405555
0.6133897640351175
-0.03907608998743081
0.424518995535293
-0.04122881016818142
0.06379691293519378
-0.1533056468715106
0.1533056486940076
-0.6363594407001322
0.3084094245113007
-0.07911134046131317
-0.2343524630138828
0.003658042279683493
-0.1222240553493249
0.1625372818370022
0.1942198956812703
0.09692683176099255
0.09504532846352509
-0.06036612204904038
0.0729897892948915
0.04161914336675129
0.06407221754891856
0.1059806409491162
-0.09914964450153188
0.2102351818781157
0.01191140553176941
-0.114062195256099
-0.1020513767570608
0.0967547364516495
0.005296638964541105
0.01107814378894232
-0.02214813115477251
0.03747641533979857
-0.03747641523283308
0.07444351986743711
-0.05517684370183139
0.05517684402206534
-0.2244240659346565
-0.05026528290754492
0.0117479512941417
-0.1031667772469721
0.01624956914481523
0.1086676854076211
-0.1086676861403054
0.2929952748592901
-0.2710087411837212
0.163298059891447
-0.05045560673873457
-0.2205531353127905
-0.01703063436437899
0.01703063394966633
0.3674435404301484
0.2852013333574064
-0.527782440218818
-0.09394191137235999
-0.03253872522304667
0.5287466036868502
0.2099833876743891
-0.1686562274482938
-0.3816386709073298
0.07659642885181889
-0.1474005342098088
0.1870178358089671
-0.03961730121057209
-0.06704855957168412
0.06704855906481663
0.8222385705348133
-0.5603882803004452
-0.002722863055000702
0.0138010069998568
-0.02003952991769814
-0.2870829027630192
-0.01745389550416824
-0.01287195613612109
-0.1320201398928428
-0.5722203724367159
0.5560364985393639
-0.5685815034310298
-0.00693589869370193
0.09916406928341838
-0.001817324284838715
0.01669566909862719
-0.1674400632235723
-0.3363455988868577
0.2331788214687668
-0.05419957930851232
0.03508844020749075
0.1321274387923118
0.1732640166986126
0.3405529401628
0.2762293005603841
-0.278046625501314
-0.06353225557010173
-0.1549554643195177
-0.2207619254689776
0.07464535968223816
-0.01057314021613314
0.2138136144995942
-0.1971179459046292
-0.08622971935183427
0.1592195128749717
-0.3549062377858447
0.208373463083411
-0.1921238939387092
0.08966645439949651
-0.4791547442582194
0.1741458827344017
0.1704332520942412
-0.2566629815968297
0.07289718938652376
-0.1946402974039018
0.1771864023351806
0.01738540513391648
0.1418341059519697
-0.03958284209085264
0.06599747508793434
0.4670051764019091
0.02044578004210856
-0.08073340027099415
0.05614138076467453
0.1256734300418246
-0.2603792258706265
-0.2309450741387431
0.5597090779548533
0.1572345716076442
0.07878728400197761
0.07520614723664364
-0.03106205649198759
-0.000530696327325034
-0.003325185050516093
-0.03262462322018241
0.1708680095163333
-0.1778039087068042
-0.0565782288710184
0.02041815113392553
-0.1469414639269318
-0.05280620339308816
0.1536569387473348
0.2770656711295177
-0.04054464343883077
0.01214993581531109
-0.2552242539038256
-0.1306997503674191
0.236040716268619
0.1788807193238705
0.1295287020145553
0.0216897134269588
0.08865277845753128
0.05212442775740194
0.4522613895590424
0.01720805360737824
0.09765635720152535
0.0431977688767626
0.07212157020888139
-0.1153193377090685
-0.2425811043716288
-0.200570438394039
-0.01998270015364063
-0.2020890702373641
0.2752069495657027
)
;

boundaryField
{
    FrontBack
    {
        type            empty;
    }
    Top
    {
        type            calculated;
        value           uniform 0;
    }
    In
    {
        type            calculated;
        value           uniform -1;
    }
    Bottom
    {
        type            calculated;
        value           uniform 0;
    }
    Out
    {
        type            calculated;
        value           nonuniform List<scalar> 10(1.036556045316946 1.064436958289309 1.022322958308637 1.021174767774277 0.996848968570372 1.012705764426435 1.033850874803077 1.062830580420945 0.8672308024038666 0.8820415338036856);
    }
    circle
    {
        type            calculated;
        value           uniform 0;
    }
}


// ************************************************************************* //
