/*--------------------------------*- C++ -*----------------------------------*\
| =========                 |                                                 |
| \\      /  F ield         | OpenFOAM: The Open Source CFD Toolbox           |
|  \\    /   O peration     | Version:  2412                                  |
|   \\  /    A nd           | Website:  www.openfoam.com                      |
|    \\/     M anipulation  |                                                 |
\*---------------------------------------------------------------------------*/
FoamFile
{
    version     2.0;
    format      ascii;
    arch        "LSB;label=32;scalar=64";
    class       volScalarField;
    location    "1129";
    object      p;
}
// * * * * * * * * * * * * * * * * * * * * * * * * * * * * * * * * * * * * * //

dimensions      [0 2 -2 0 0 0 0];

internalField   nonuniform List<scalar> 
808
(
-0.03422514198526191
0.04455879605979294
-0.01179676133797714
0.03673689136403539
-0.2989030350187338
-0.05499158161187748
-0.01494068876869019
-0.02385076958223181
-0.1965811374972982
-0.08372543263498447
-0.009575223346344515
-0.2537048595174397
-0.03058309294306999
-0.01337787978215384
-0.1243190936467027
-0.01403742447053661
-0.1425403003046515
-0.01360605816959402
-0.01288887827323337
-0.05560127216569546
-0.006710975854607376
0.1173083159912436
-0.06223473041046589
-0.07157398266829672
0.1750707727136275
-0.09966172969183511
-0.1522347869601607
-0.02038417257525729
-0.01751210239330428
-0.02592926947203818
-0.02024633586825126
-0.05837667896231986
-0.02296122049381494
-0.01691130005205642
-0.09910477479078134
0.3448392393886169
-0.03916873099602713
-0.01679078187618113
-0.02288290590450827
-0.02657394379180833
-0.08998239141944658
-0.1263250151264362
-0.05178001373437443
-0.02085348763698382
-0.05548917425757828
-0.04131567412824852
-0.01222858557369166
-0.1840724342710379
-0.02700474901025162
-0.2037204587361442
-0.01641909701436573
-0.06712690641890259
-0.06065633178328569
-0.01519261882905827
-0.1933904376020602
-0.02834026508746641
-0.01090443696323451
-0.01518612015234877
-0.1001384927896675
-0.03977273244667454
-0.09896435139371201
-0.1258173855948379
-0.01382617210547217
-0.1274453215346332
-0.01704722817690709
-0.05158278613148979
-0.1626458968651099
-0.03558383888758074
-0.01513107728191423
-0.4402918885989388
-0.02659025776157761
-0.3024813862070949
-0.02167394479418332
-0.0204926333086349
-0.06417871355731149
-0.01772309216629485
-0.04253375965618054
-0.3646093202987408
-0.03584467788556239
0.03976267481539833
-0.09172602974038396
-0.01706781535378212
0.05697856409286267
0.04521019283690304
-0.01698384077384061
-0.05216037067579849
-0.542057190979481
-0.2264299956155333
-0.05211141932108203
-0.1128019338995168
-0.05648457908378834
-0.132161356282938
0.03929317893212093
-0.02539341888767661
-0.06174049203473134
-0.1163004381250249
-0.03839899331782567
-0.05237077702392738
-0.1156856067033033
-0.1368080995132666
-0.0524577627930881
-0.04735039524446377
-0.05432140897859646
-0.04478546767835978
-0.05728245244705991
-0.07448547059362604
-0.04147256584265629
-0.01122614121991052
-0.04030198010489118
-0.1237674536846968
-0.05039855495258947
0.08202840512079197
-0.04241724150883443
-0.00826770251758668
-0.02775742227333294
0.1807650734664652
-0.03878991148320317
-0.2686448039787903
-0.02041160773298858
-0.05345934432212947
-0.03058167195398476
-0.04867392335497932
0.0135039437346559
-0.04855057074327651
-0.03554430767839703
-0.2178223147796484
-0.04102647719662954
-0.004982437837984182
-0.07571673769157103
-0.06875449781620281
-0.1424114289592197
-0.02088921369437969
-0.07497048277625272
-0.04298494692689529
-0.02279674653742239
-0.01561722879808694
-0.006387293207697976
-0.007274869085657377
-0.05241103855180652
-0.04970770697381209
-0.2169479161696376
-0.05640898766764526
-0.008424286328045587
-0.02229807797206587
-0.147311011778703
-0.002797583746640006
-0.07614294910763034
-0.02187390917423769
-0.0009721875207024931
-0.01102899930776151
-0.03335153501480988
0.0939832237476985
-0.03862835066498549
0.2519525400733834
-0.2693959703457965
-0.1323609691534699
-0.0374465383243659
-0.09100655517006362
-0.009411453662393881
-0.1134589582503331
-0.179336111443738
-0.2195741558603228
-0.176905873389742
0.05640138167872397
-0.06291651588030941
-0.0203971252595808
-0.06684894380774239
-0.1656667799979111
-0.02345207484310872
-0.01836566594477557
-0.05187086895341591
-0.01966739103471552
-0.006805245977236096
-0.10732355733656
-0.02303526190734304
-0.04500586479429924
-0.07003613590562149
-0.1606330806206113
-0.03341172497951573
-0.389879136348875
-0.01784956637130262
-0.2256117329824338
-0.04422807911233272
0.03227558134845915
-0.1063569909225392
-0.01552371296982579
-0.04247196586441058
-0.1038947848383342
-0.01767275285174042
-0.09515242739515078
-0.2079186062848355
-0.07158911266244117
-0.02381746756161135
-0.04802739318038006
-0.04270753268674327
-0.2047243167567242
-0.02202268211526916
-0.01906502872602106
-0.01129792622247609
-0.05619811916477858
-0.05054456688408104
-0.02236981488302189
-0.02081338540454961
-0.2417823108496363
0.1272941083971202
-0.2046421106696162
-0.1968334751370243
-0.01179094072173919
-0.01142323489196128
-0.06703750772197334
-0.01012247973699906
-0.5052346097869741
-0.1200402777430488
-0.01915723816881163
-0.0001769662392509751
-0.02400066042382105
-0.2814694216805797
-0.2781646726588804
-0.007076135595898202
-0.01718372485950148
-0.001269245068561125
-0.3490387631918571
-0.02832277923684587
-0.02916660938693741
-0.01251973389862377
-0.01965860551197522
0.049627058412297
-0.110498784890719
-0.01421747202957761
-0.02081119003390022
-0.04441155648239151
-0.01823894099833475
-0.01617320180152162
-0.02344554824105842
-0.06760216424858022
-0.01148707670919731
-0.01903400453746307
-0.008603585062856984
-0.0007151976666831361
-0.02950182246570911
-0.0017500065652571
-0.002165127699494508
-0.005842842798123205
-0.02559886492298568
-0.007958259006144585
0.001471952301344919
-0.004279402194973567
0.001362402354918859
0.002537854449445829
-0.008893832531950252
-0.1400336453734069
-0.002977835027392361
-0.001448720504044442
-0.04821675790032184
-0.02158453555682683
-0.02428051721071141
-0.01431579021047544
-0.006175640622505058
-0.02090133235340503
-0.03905789217653188
-0.01418700851098861
-0.0129079272672889
-0.01146109152950408
0.008679849425641222
-0.01015927735520314
-0.01184283078760381
-0.01150220050544511
-0.01060575423479446
-0.01034294251874144
-0.01213012814501132
-0.01392456704493403
-0.3041551336882486
0.05965755244629338
-0.01584811291205506
-0.01535049191652537
-0.01292063718678684
-0.01185215450620356
-0.008733110996871317
-0.09647359339262765
0.01198717368822343
-0.01364775122276018
-0.0141920732553757
-0.01062836636498008
-0.05173643307748239
-0.01028359119622152
-0.01356016534334626
-0.01009164472786262
-0.0002401528129103544
-0.01080574184892245
-0.01214027005219973
-0.02460199723036784
-0.01568890564934085
-0.01188362261704414
-0.01352596692767059
-0.007407571992149734
-0.01214118903746334
-0.01174748728843102
-0.05871038321050744
-0.0133775068533531
-0.01128613490222321
-0.008886339193411365
-0.01498662308457546
-0.013667760868034
-0.01563215600189024
-1.368230600062867
-0.09960009275261768
-0.01332504153953806
0.02604645056292071
-0.1622306127099698
-0.09155348952861284
-0.0119344881139606
-0.01405420337257215
-0.2377397440547942
-0.02909698559857677
-0.01859449056645505
-0.01154403540828522
-0.01986157079082551
-0.01024624658278065
-0.03076334785203784
-0.4105297484455993
-0.01242187768383838
-0.01410472186553412
-0.004705656177668141
-0.01123450056169202
-0.01067764476226387
-0.01412516844166876
-0.006895591991271191
-0.02651686868690482
-0.01164610744357885
-0.1694154359089654
0.01845763251257102
-0.007492334755520583
0.003983684067720129
0.01361041569550897
-0.04810957917833074
0.02851787818956672
-0.01333353965252224
-0.1329311820542901
0.2826922886203208
-0.007364034717041734
-0.01357691744659137
-0.008208980053377026
-0.03265934658674918
-0.1243563377154298
-0.01225367500048663
-0.01215983835734016
-0.0168259423782511
-0.01354505728429985
-0.04130102063074896
-0.2177586796825827
-0.01030325789229549
-0.04261780500258567
-0.03922102555917135
-0.1721853880713914
-0.1603567599121342
-0.1345394980771398
-0.2314203973967706
-0.005851542510117105
-0.02101306797796723
-0.01421316956126951
-0.01291780364282978
-0.03329847478140128
-0.02448826403481015
-0.01427853021197231
-0.01490614218382477
-1.072700007139701
-0.006115784694188005
-0.01330230656519559
-0.01834330528185524
-0.02416589881179719
-1.657760278807008e-05
-0.01480878870814917
-0.02617489701046567
-0.1514185628305619
-0.01360100765845946
-0.02195895142777668
-0.0139134457300612
-0.001168386590827007
-0.1781455784487287
-0.01286861643486719
-0.1453324823487713
-0.01587894370083071
0.003623443295058751
-0.01451075664511619
-0.02357293176820674
-0.01563222867093726
0.005020145761905062
-0.2730294326906383
-0.0259667629890366
-0.01610614344401509
-0.003629746661314109
-0.009932969863917623
-0.0299144016860416
-0.01413758794877971
-0.02055459040128936
-0.02100883957218919
0.01482622436042345
-0.09875279150060845
-0.02167085194507565
0.009324621002314033
-0.05513931698655342
0.1718148341422825
-0.1050383444234411
-0.3169153116402457
-0.03093916202691566
-0.0256294536274663
0.150937093719
0.07778269376852127
-0.003639977306575226
0.04998473473388364
-0.01529894858830332
-0.01407776940900796
0.002430346169487499
0.009628432672626659
-0.06559321593186142
-0.005811593567581571
-0.05667544110455651
-0.02236259619444301
-0.01572933228864606
-0.03653743613499649
-0.03291408582108955
-0.006652301670360939
-0.01506535181239675
-0.03755303489177778
0.03622528648612049
-0.03881747709202499
-0.01388793251316551
-0.1182318909972789
-0.03166762072561016
-0.03920951351835204
-0.6710109777825454
0.02012574009012266
-0.01038342493943805
-0.005786649541037105
0.1637223259646027
-0.0892854749423445
-0.03531451035380329
-0.2436147804918672
-0.01629399244814844
-0.01637045585661749
0.07357299347442466
-0.1811022055470345
-0.2340051475317171
-0.1929883379623891
-0.6797608120276398
0.001986931118301151
-0.01831178692125524
-0.01683062718901884
-0.0843509293262483
0.1184686961967714
-0.02088473867883764
-0.2302883654270265
-0.03552066674864052
-0.006659455240281921
0.2803721371908023
-0.01117022689697814
-0.09180690717935729
-0.1515523165030815
-0.003506578273350287
-0.04093822089336768
-0.05222427333407176
-0.2020338246654102
-0.00822820264592585
-0.04061028664749688
-0.002599248669618416
-0.545671465931055
-0.194594653901065
-0.1778685451047344
-0.0229730455926633
-0.007731675330875587
-0.06118014069916549
-0.05711087166916198
-0.01382833373810904
-0.06868976743511715
0.004525657598302401
-0.01804220223417251
-0.09350084886085705
-0.2725619120252777
-0.007611073420485098
-0.0259804634517812
-0.02175186625160515
-0.07540678175019891
-0.08966082431749887
-0.08890041839116498
-0.01204903319341542
-0.9169683639781033
0.1620004766269201
-0.07909815646581538
-0.2504811945322972
-0.0418424947043355
-0.01012126176243247
-0.2553603517271533
-0.1929896041136071
-0.03160895491023199
-0.1254285560622463
-0.01964259057531441
0.5637103716906245
-0.02445380069308258
-0.2238439651581319
-0.02554433409817366
-0.00555159409974656
-0.01171476134198057
-1.244568150917547
-0.1803364943334698
-0.2288048991804356
0.005260721030664268
-0.03844843899296722
-0.247912838210193
-0.06633794918057892
-0.05156845487707624
-0.1451240705460324
-0.1827016391876641
-0.06901475677263159
-1.219594109889861
-0.147506138502281
-0.5305507127581753
0.07947272276040035
-0.00614950864747742
-0.02147275288159094
-0.04379528033856475
-0.03889362558876209
-0.02837832808360745
-0.1291595105257011
0.08111685444582012
-0.002044763598203208
-0.009948818517050522
-0.5722980898432376
-0.8554478708891384
-0.1795665987117685
-0.008248981663078397
-0.1348993184926729
0.0007829911332901784
-0.000158318505362268
-0.002089993388509345
-0.06040879740040372
-0.2351240796522715
-0.01329640292300875
-0.1209086035870272
-0.157479877050742
-0.01318156672139325
-0.03510011788043242
0.02593242967626934
-0.05806935690670313
-0.07102720382512909
-0.4973365007102634
-0.2161387803772545
-0.07967477201164931
-0.07441806297314162
-0.01967434720194752
-0.122150269085098
-0.1554363192054548
-0.07614963745551682
0.02281621397881609
-0.08601172855119049
-0.0494203334854442
-0.01487719844410031
-0.1072470168942431
-0.2769277795713975
-0.05840462522097175
-0.01825336981158587
-0.0006149378808116488
-0.01000861931036873
-0.01088380130997181
-0.2242141049688138
-0.01518027710985311
-0.218264182265252
-0.01028495967202188
-0.07171861480439672
-0.004351951573265267
-0.023247181151351
-0.3853440971288821
-0.9211865646567144
-0.01132015026801031
-1.04116626500027
-0.6069161481171593
-0.01049024072568243
-0.6633167352233186
-0.183294802544594
-0.005984161214451036
-0.1279906328164558
-0.01669521129981451
-0.1242102972225454
-0.06568113596375895
-0.08083981566701508
-0.005075942844256021
-0.002287423502667893
-1.346754146140418
-0.01143986713060252
-0.1783112223241131
0.0007482315594055418
-1.004215799781529
-1.244934425667765
-0.07932944962565415
0.01715461091791002
0.1645721960732206
-0.004485920180209128
-0.0230402649808936
-0.004185433494518801
-0.2474916696165107
0.3657508282421498
-0.04153031976969532
-0.2129374433312529
-0.01492600281827942
-0.6488560653388865
-0.0731036697679092
0.1889643395455217
-0.292031894753996
-0.05025791333401853
-0.06954707735684938
-0.01585983682268212
-0.02164284537971455
-0.5852621578787613
-0.1479894856922001
-0.08863886231018485
-0.1245276460139875
-0.5507082864246168
-0.04470063486687885
-0.9011827984849237
0.0006352927302999906
-0.2414063282078478
-1.056784525763363
0.1635910465448701
0.2893321335225487
-0.1819074618002293
-0.1894550607932412
-0.2139377296173542
-0.06676634508829062
0.02263388667126378
0.04400029708200939
0.003134435173528551
-0.1646834447939903
0.02602213292453932
-1.366214727667424
-0.08624129245148209
-0.4777995775238462
-0.3344685723550869
-0.2101458064198485
-0.1792221968054478
-0.01691446120724347
-0.01545276124706186
-0.10388577145152
0.1744869066123711
0.3844863047848237
-0.2015594267511022
-0.1423031846688968
-0.2233943638888372
-0.06306095735113312
-0.1529413433065181
-0.1672269867692118
-0.1268804852813405
-0.1218580234037741
0.4634639541011804
-0.2755343676042667
0.433871723143563
-0.5935268227947063
0.07261005152395403
-0.1967177549790201
-0.06704548487932979
-0.07676386720026089
-0.888572131468132
-0.2148462652348356
-0.1926939202684169
-0.3511596420120447
-0.4627877714175555
0.5700492534832351
-0.2132946998369094
0.001950329537609377
-0.06831681938995669
0.3458843919982043
-0.03571668665254622
-0.1311339109165569
-0.1814334308335064
-0.0633751521464206
-0.01650053087510016
-0.1990504043686347
0.1980012840398208
-0.01290562520780966
-0.09758530972495202
-0.1740945382705111
-0.3205111347578628
-0.3096695389823299
-0.06940359221567424
-0.01010033584889507
-0.08197473823679496
-0.6485125548516111
-0.6760924314975308
-0.3326949886188428
-0.05844952736322801
-0.05027108116507486
-0.02501459647809948
-0.06906375364554417
-0.05590259805657362
-0.3636612904385935
-0.96445478661988
-0.01021118947376479
-0.08425716660958327
-1.146006588448763
-1.040820035256476
-0.1090765166570344
-0.04063113613090875
-0.06854217552524594
0.3882541464472505
-0.3402840997890832
-0.0490832770824329
-0.6041483810673529
-0.1256488175269047
-0.2496974538543466
-0.2137280178441405
0.4732815620807843
-0.634207384380326
0.07684077286588768
-0.02899426033541543
-0.5650586483098389
-0.05335621926713276
-0.3660818426466558
0.1097565855894437
-0.1921745608531247
-0.06065928266709909
-0.1353782380271792
-0.3574198183889489
-0.08383288308945434
0.5160294089089807
0.08670120978471918
0.4693164740766849
-0.1008247514058939
-0.2042257610989525
-0.5158115336835818
-0.1343182448460921
0.02516139751545933
-0.05467203385582998
0.09999109926086643
-0.3017383253099007
0.2364690572209766
0.005576812919690325
-0.002969945058857868
-0.5086992958205202
-0.1827304384219483
-0.08283875599184638
0.581661732662438
0.1394418030934149
0.3424339190444401
0.2254462444984663
-0.5666964363545384
-0.1917026718533427
-0.225619822227363
-0.2232841711598743
-0.06136795991095284
-0.6887527789751425
-0.1896386247406615
0.3044781332737954
-0.1895374284626725
-0.01143689192041293
-0.164849005833174
-0.01089074971651643
-0.1618249284565676
-0.4414768915019639
-0.07590977503179054
-0.2051743476771472
-0.07180605115860272
-0.09095145533128553
-0.1418456228196538
-0.07229122904299778
-0.4485341999377983
-0.4104563364373284
-0.02384155444440385
-0.07649596129454424
0.3305634331290473
-0.2498785138613177
-0.1793003282341007
0.5238141643169177
-0.2027076826782762
0.02077828000233521
-0.4534888552156682
0.05140019604263783
-0.06037351737370822
-0.1391681066014096
-0.5889116007044742
0.1581625439702333
-0.5756537013562983
-0.5391847560022202
-0.1021316867990003
-0.5121247091784951
-0.03668576490943387
-0.1429190864138136
-0.4146591443574133
-0.01614549948059412
0.2883819372608705
0.4900062179502124
-0.1625256744031747
-0.006241544280112701
-0.0834905902212134
0.5251026568539654
-0.03272985380597475
-0.4431041685705422
-0.03231685261901607
0.4620995153902703
-0.01640179502982832
-0.5481484667194635
-0.2486358231145024
0.1780385533260201
-0.3133868586663396
-0.1812572450417695
0.0479062567389783
0.03219828174862618
0.05599719713468846
-0.3021894880982278
-0.1599907503930762
0.4128597705343807
)
;

boundaryField
{
    FrontBack
    {
        type            empty;
    }
    Top
    {
        type            zeroGradient;
    }
    In
    {
        type            zeroGradient;
    }
    Bottom
    {
        type            zeroGradient;
    }
    Out
    {
        type            fixedValue;
        value           uniform 0;
    }
    circle
    {
        type            zeroGradient;
    }
}


// ************************************************************************* //
