/*--------------------------------*- C++ -*----------------------------------*\
| =========                 |                                                 |
| \\      /  F ield         | OpenFOAM: The Open Source CFD Toolbox           |
|  \\    /   O peration     | Version:  2412                                  |
|   \\  /    A nd           | Website:  www.openfoam.com                      |
|    \\/     M anipulation  |                                                 |
\*---------------------------------------------------------------------------*/
FoamFile
{
    version     2.0;
    format      ascii;
    arch        "LSB;label=32;scalar=64";
    class       volScalarField;
    location    "31.5";
    object      p;
}
// * * * * * * * * * * * * * * * * * * * * * * * * * * * * * * * * * * * * * //

dimensions      [0 2 -2 0 0 0 0];

internalField   nonuniform List<scalar> 
808
(
0.116786
0.0248324
0.0620522
0.116325
-0.25467
0.0237013
0.0146036
0.0283434
-0.145699
-0.029442
0.0548558
-0.165367
0.0263251
0.0191448
-0.176551
0.0239079
-0.17493
0.0195698
0.0558618
0.0137222
0.055628
0.396573
0.0899878
-0.00544364
0.47522
-0.151769
-0.0727696
0.0113772
0.0172645
0.0315123
0.0168707
0.0211052
0.0320515
0.0179587
-0.08789
0.631946
0.0238505
0.0393373
0.0259944
0.0265944
-0.053452
-0.0710658
0.0491016
0.0365293
-0.197987
0.107133
0.0325748
-0.0041099
0.0255806
-0.186341
0.0220873
0.0131612
0.0606096
0.00837537
-0.0508724
0.0232549
0.0122355
0.0528583
-0.0295852
0.0173865
-0.318816
-0.00978577
0.0334291
-0.182628
0.0405918
0.0600901
-0.303148
0.031441
0.0616129
-0.306545
0.0311371
-0.345328
0.0249921
0.0254145
0.173251
0.0338113
0.00724752
-0.0303185
0.0216013
0.337574
-0.101705
0.0261456
0.0441451
0.268523
0.0390092
-0.0126177
-0.387947
-0.0694233
0.0324276
-0.142752
0.039456
-0.113243
0.27457
0.177574
0.0554895
-0.274214
0.0275129
-0.129459
-0.117278
-0.251953
0.0249456
0.0123037
0.0421407
-0.00373645
-0.0602041
0.0757641
-0.241404
-0.0247626
0.0204666
0.014536
-0.036564
0.353725
0.0271343
0.0121551
0.0321225
0.457355
0.0217179
-0.294226
0.0286128
0.0577319
-0.234856
0.0486417
0.0210844
0.057682
0.132869
-0.0163408
0.101661
-0.0117762
0.0252836
0.0838557
-0.357269
0.0260745
-0.0422202
0.149532
0.0280582
0.0204367
0.0749685
0.00704217
0.0286109
0.0164737
-0.227099
0.0452735
0.0849129
0.0299165
0.00257619
0.0245939
0.0945312
0.154215
-0.174977
-0.00767715
0.0284031
0.3653
0.0343016
0.551291
-0.252221
-0.0635415
0.0247221
-0.200949
0.0807503
-0.0857986
-0.329757
-0.236767
-0.341734
0.0254913
0.0760927
0.0314315
0.0269978
-0.365841
0.0224436
0.0396651
0.0417657
0.180517
0.0399484
0.109706
0.0265717
0.0688125
0.0876831
-0.168059
0.031355
-0.374496
0.0380563
-0.0966966
0.0238626
0.259554
-0.20473
0.135456
0.032642
-0.146071
0.040905
-0.103154
-0.234594
-0.0561054
0.0288729
0.077734
0.0247804
-0.200358
0.0294587
0.029425
0.00899334
0.10114
0.066079
0.0261209
0.0340683
-0.350509
0.389833
-0.208364
-0.322187
0.0117668
0.0435608
0.0277287
0.00149995
-0.425989
-0.334693
0.0264468
0.00886313
0.0250343
-0.356274
0.000135337
-0.000830544
0.0159865
0.0146457
-0.0481356
0.0300005
0.0291183
0.00777504
0.0340604
0.144123
-0.341734
-0.0196326
0.0175169
0.136918
0.0181344
0.0193193
0.015835
-0.0895613
0.0227789
0.0128275
0.0027627
-0.00471649
0.0216106
0.00221877
0.0040728
0.00452091
0.0080741
0.00417516
-0.00484569
0.0139695
0.0115798
-0.0110306
0.0451564
-0.339653
0.000660985
0.0252409
-0.0562708
0.0134531
0.0173375
0.0271919
-0.00187697
0.0235534
0.149073
-0.0146543
0.0244755
0.0162828
-0.0622958
0.0482004
0.00608277
-0.0259959
0.0311989
-0.0188157
0.0704248
-0.000523428
-0.423964
0.297729
0.0371539
-0.106999
0.0162942
0.0383259
0.0224501
-0.209932
0.266725
0.012456
0.0412595
-0.0311
0.0849265
-0.265772
0.0216138
0.063816
-0.0534478
0.0192219
0.0853528
0.0289833
0.0325416
-0.012231
-0.00410853
-0.0113706
0.0301879
0.0387028
0.0780268
-0.0045638
0.0146134
-0.0162095
0.0244359
-0.0131049
0.0301986
-0.532921
-0.0727724
0.0757946
-0.0642684
-0.190138
-0.258841
0.0206029
0.0260605
-0.326575
0.125065
0.152967
0.0278824
0.0261595
-0.0166348
0.00758699
-0.241
0.0427341
-0.00450476
0.0420881
0.0588342
0.0220873
0.0384286
-0.0134427
-0.0018513
0.0334267
-0.280181
0.0767186
0.0349584
-0.0531424
-0.0768189
0.0221893
0.252645
0.0402784
-0.166207
0.552785
0.0836231
0.00748085
0.0386489
-0.0976188
-0.0195098
-0.00804643
0.0419938
0.000280958
0.0354303
-0.0509397
-0.189438
-0.00442608
0.126668
-0.014406
-0.262705
-0.331496
-0.353814
-0.336726
0.0258664
0.0294397
0.0170958
0.025058
-0.0313025
0.0130046
0.0337304
0.00123774
-0.527142
0.0685658
0.0201256
0.0425506
-0.0425633
0.0514481
0.00608701
0.110463
-0.386149
0.0346188
0.00318205
0.00562093
0.0928051
-0.292629
0.0208112
-0.248951
0.00338062
0.068872
0.0484596
0.0213261
0.041582
-0.143957
-0.367473
0.01046
0.0151039
-0.157616
0.0379153
0.0117348
0.0206426
-0.00432931
0.00565233
-0.251886
0.0279411
0.0188543
0.0301362
-0.207831
-0.280948
0.0905546
-0.0255996
-0.0253614
-0.0317755
0.421163
-0.16038
0.00967055
-0.0888244
0.0191343
0.0209609
0.0348984
0.0738906
-0.00365904
0.000325504
-0.0364888
-0.00748484
-0.0046035
-0.00674736
-0.0124189
-0.0111265
0.0278293
0.111225
0.0375282
0.0230054
0.0118981
0.0505736
-0.00788788
0.0366256
-0.398203
0.0687025
0.048094
0.0289383
-0.191545
-0.298043
-0.0133736
-0.100718
0.0081619
0.0338085
-0.379091
-0.259507
0.269783
-0.34356
-0.476897
-0.0559618
-0.121318
0.00364197
-0.300208
0.355927
-0.0650172
-0.307453
0.014575
0.0903268
0.565618
0.0183778
0.00434552
0.0779592
-0.0711016
-0.00333133
-0.37151
-0.204147
0.0125274
0.0612617
-0.000143694
-0.280735
-0.342534
-0.155843
0.0275802
0.045383
0.111057
-0.0067839
-0.0559299
0.0975002
0.00271823
0.0242866
-0.159687
-0.236869
0.0529545
-0.00784535
0.0248326
0.0286215
0.077722
-0.0284885
0.0495354
-0.489594
0.452611
-0.201506
-0.285375
-0.00525684
0.0101371
-0.268507
-0.251478
0.116728
-0.356836
-0.0320315
0.871895
0.0231524
-0.378617
0.0153272
0.00963401
-0.00498609
-0.479746
-0.256451
-0.333699
0.00680507
-0.0701237
-0.384046
0.00576043
-0.00955237
0.136654
-0.352892
0.0505804
-0.525038
-0.261483
-0.320861
0.0195827
0.0383261
0.015343
0.124953
0.12323
0.00148958
-0.288635
0.304323
-0.0360144
-0.00525946
-0.46302
-0.522081
-0.364594
-0.0162846
-0.371539
-0.0276809
0.0777237
0.0467343
-0.126211
-0.251036
0.0215667
-0.317228
-0.203538
0.0113353
0.0105235
-0.38261
0.00636141
0.0570814
-0.403865
-0.349315
-0.0831449
0.128004
0.0307069
-0.35031
-0.240668
-0.25712
0.000999469
0.0664839
0.122194
0.00610088
-0.33634
-0.231607
0.127841
0.0303603
-0.0121368
0.0447256
0.0484638
-0.26954
0.0372774
-0.291028
0.0576697
-0.259729
0.103112
0.00139809
-0.299815
-0.387336
0.000512651
-0.494604
-0.485093
0.0573158
-0.020695
-0.245561
0.0153909
-0.302718
0.0232455
0.112242
0.0590789
-0.272392
-0.0093374
0.138209
-0.386713
0.020851
-0.295778
0.0259818
-0.33781
-0.440366
0.0893682
0.304074
0.450843
0.00875785
0.00286609
0.00148637
-0.364838
0.662308
0.0289396
-0.147105
0.019915
-0.0910912
0.0739895
0.512544
-0.305885
-0.0363466
-0.0249158
0.0317593
0.0256605
-0.383947
-0.27236
-0.31011
-0.249591
-0.296913
0.00952228
-0.381456
-0.0511318
-0.203374
-0.252383
0.548261
0.619516
-0.204761
0.0976795
-0.254677
-0.0147589
0.0324406
0.445446
0.0269137
-0.34105
0.0041645
-0.440342
0.00136865
-0.145412
0.0237123
-0.253377
-0.198536
0.00258865
0.00317903
-0.34494
0.437718
0.697592
-0.368009
-0.242728
-0.35797
-0.044595
-0.245516
-0.241226
-0.119296
-0.343141
0.783569
-0.27857
0.743167
-0.437675
0.323977
-0.34042
0.022576
0.208963
-0.431695
0.204847
-0.199267
-0.247553
-0.276251
0.891156
-0.265745
0.205218
0.138928
0.642648
0.118512
-0.240377
-0.19967
-0.116464
0.0173383
0.1302
0.511022
0.0148908
0.00553654
-0.241806
0.164357
-0.140967
-0.230621
0.0424542
-0.206135
-0.182358
-0.10227
-0.394353
0.0203583
0.101532
0.0121422
0.10249
0.102146
-0.267138
-0.296188
0.00880708
0.0379784
-0.399416
-0.444233
0.218796
0.224441
0.0906611
0.698929
-0.0994084
-0.3203
-0.322586
-0.238597
-0.0774648
0.122934
0.784847
-0.384061
0.36421
0.0100557
-0.357741
0.183289
-0.0262039
0.376632
-0.102898
0.0328425
-0.354071
-0.100255
0.177813
0.818108
0.334184
0.785842
-0.363887
-0.229521
-0.44344
0.206044
0.295855
0.0834813
0.414748
0.116039
0.508092
0.311268
-0.0149008
-0.21044
0.0106137
-0.262445
0.898993
0.415163
0.682346
0.527189
-0.211038
-0.361936
-0.247968
-0.301947
0.0683867
-0.430481
0.0844863
0.623358
-0.397939
0.00886916
-0.305982
0.213425
-0.267978
-0.30201
-0.121926
-0.215051
-0.265337
-0.298769
-0.362658
-0.0920216
-0.4449
-0.155745
-0.356528
0.178876
0.650666
-0.160526
-0.349091
0.851994
-0.345397
0.27662
-0.180107
0.37471
0.0856193
-0.376699
-0.330261
0.479972
-0.300083
-0.262782
0.175302
-0.219707
0.00445579
-0.239191
-0.0682552
0.036985
0.570348
0.791458
-0.240975
0.221642
-0.252752
0.838178
0.00885305
-0.25188
0.00531333
0.768498
0.235631
-0.259652
-0.23768
0.45037
-0.157972
0.0764875
0.388653
0.28077
0.292881
-0.193852
-0.22743
0.700966
)
;

boundaryField
{
    FrontBack
    {
        type            empty;
    }
    Top
    {
        type            zeroGradient;
    }
    In
    {
        type            zeroGradient;
    }
    Bottom
    {
        type            zeroGradient;
    }
    Out
    {
        type            fixedValue;
        value           uniform 0;
    }
    circle
    {
        type            zeroGradient;
    }
}


// ************************************************************************* //
