/*--------------------------------*- C++ -*----------------------------------*\
| =========                 |                                                 |
| \\      /  F ield         | OpenFOAM: The Open Source CFD Toolbox           |
|  \\    /   O peration     | Version:  2412                                  |
|   \\  /    A nd           | Website:  www.openfoam.com                      |
|    \\/     M anipulation  |                                                 |
\*---------------------------------------------------------------------------*/
FoamFile
{
    version     2.0;
    format      ascii;
    arch        "LSB;label=32;scalar=64";
    class       volVectorField;
    location    "0.9";
    object      cellDisplacement;
}
// * * * * * * * * * * * * * * * * * * * * * * * * * * * * * * * * * * * * * //

dimensions      [0 1 0 0 0 0 0];

internalField   nonuniform List<vector> 
256
(
(0.00251786 0.0218812 0)
(-0.00085545 0.0221093 0)
(-0.00383641 0.0207939 0)
(-0.00585447 0.0181684 0)
(-0.00660112 0.0146938 0)
(-0.00607618 0.0108478 0)
(-0.00451536 0.00697936 0)
(-0.00228231 0.00325952 0)
(0.00625967 0.0649584 0)
(-0.00317582 0.0652707 0)
(-0.0114657 0.0617601 0)
(-0.0172663 0.0549097 0)
(-0.0198299 0.0457521 0)
(-0.0191503 0.0355495 0)
(-0.0156165 0.0250012 0)
(-0.009963 0.0145673 0)
(0.008615 0.105998 0)
(-0.00612099 0.10607 0)
(-0.0189801 0.100602 0)
(-0.0281868 0.0904318 0)
(-0.0327884 0.0770318 0)
(-0.0326353 0.0618491 0)
(-0.0282288 0.0460198 0)
(-0.0203821 0.03006 0)
(0.00963151 0.145239 0)
(-0.00974889 0.144741 0)
(-0.0266112 0.137596 0)
(-0.0389692 0.124926 0)
(-0.0457127 0.108302 0)
(-0.0466195 0.0893554 0)
(-0.0422276 0.0694863 0)
(-0.0333018 0.049174 0)
(0.00931926 0.182759 0)
(-0.0141885 0.181575 0)
(-0.0346138 0.173015 0)
(-0.0498961 0.158405 0)
(-0.0588627 0.139409 0)
(-0.0612559 0.117724 0)
(-0.0575913 0.0948882 0)
(-0.0485905 0.0713664 0)
(0.00759551 0.21878 0)
(-0.019582 0.216727 0)
(-0.0432338 0.207013 0)
(-0.0612563 0.190891 0)
(-0.0725023 0.170179 0)
(-0.0767476 0.146651 0)
(-0.0743816 0.12175 0)
(-0.0661577 0.0959992 0)
(0.00436978 0.253365 0)
(-0.0261448 0.250436 0)
(-0.0527121 0.239629 0)
(-0.0733304 0.222362 0)
(-0.0869458 0.200508 0)
(-0.0932922 0.175769 0)
(-0.0927186 0.149572 0)
(-0.0860385 0.122485 0)
(-0.000591392 0.286737 0)
(-0.034085 0.282768 0)
(-0.0633315 0.270955 0)
(-0.0864706 0.252836 0)
(-0.102499 0.230219 0)
(-0.111194 0.204802 0)
(-0.112855 0.177934 0)
(-0.108319 0.150143 0)
(-0.00749105 0.318857 0)
(-0.0436986 0.313748 0)
(-0.0754324 0.301013 0)
(-0.101018 0.282227 0)
(-0.119557 0.259153 0)
(-0.130814 0.233419 0)
(-0.135084 0.206319 0)
(-0.133226 0.178343 0)
(-0.0167087 0.349729 0)
(-0.0553396 0.343362 0)
(-0.0894211 0.329755 0)
(-0.117434 0.310431 0)
(-0.138552 0.287071 0)
(-0.152582 0.26122 0)
(-0.159793 0.23418 0)
(-0.161108 0.206319 0)
(-0.0286515 0.379236 0)
(-0.069521 0.371546 0)
(-0.105826 0.357062 0)
(-0.136244 0.33723 0)
(-0.160043 0.313628 0)
(-0.177051 0.287726 0)
(-0.187534 0.260785 0)
(-0.192468 0.233182 0)
(-0.0440219 0.407262 0)
(-0.0868511 0.398078 0)
(-0.125265 0.382616 0)
(-0.158092 0.362238 0)
(-0.184719 0.338341 0)
(-0.204967 0.312268 0)
(-0.21903 0.285231 0)
(-0.227941 0.257715 0)
(-0.0635103 0.433237 0)
(-0.108024 0.422344 0)
(-0.148404 0.40577 0)
(-0.18371 0.384639 0)
(-0.21335 0.360262 0)
(-0.23713 0.33377 0)
(-0.25517 0.306258 0)
(-0.268512 0.278185 0)
(-0.0880074 0.456189 0)
(-0.133861 0.443391 0)
(-0.176098 0.425426 0)
(-0.213912 0.40324 0)
(-0.246793 0.377845 0)
(-0.274447 0.350314 0)
(-0.296985 0.321532 0)
(-0.315199 0.291959 0)
(-0.117969 0.474034 0)
(-0.164611 0.459096 0)
(-0.208368 0.439468 0)
(-0.248633 0.415782 0)
(-0.284922 0.388751 0)
(-0.316971 0.359106 0)
(-0.344701 0.327577 0)
(-0.36855 0.294467 0)
(-0.151345 0.481517 0)
(-0.197813 0.464364 0)
(-0.242376 0.442739 0)
(-0.284605 0.41685 0)
(-0.324093 0.386946 0)
(-0.360459 0.353316 0)
(-0.393355 0.316284 0)
(-0.422462 0.276205 0)
(-0.00217921 0.00328491 0)
(-0.0042483 0.00602347 0)
(-0.00646003 0.00809085 0)
(-0.0089458 0.00942002 0)
(-0.0117549 0.00991982 0)
(-0.0147861 0.00948253 0)
(-0.0177713 0.00803536 0)
(-0.0202645 0.00561428 0)
(-0.00982845 0.0144321 0)
(-0.0158699 0.0214472 0)
(-0.022406 0.0264295 0)
(-0.0297121 0.0292467 0)
(-0.0377741 0.0296628 0)
(-0.0462611 0.0274786 0)
(-0.0543452 0.0225781 0)
(-0.0609968 0.0152205 0)
(-0.020422 0.0293851 0)
(-0.0301675 0.0393046 0)
(-0.0407762 0.0459022 0)
(-0.0525766 0.0490784 0)
(-0.0654288 0.0484974 0)
(-0.0786242 0.0438686 0)
(-0.0908611 0.0351557 0)
(-0.100647 0.0229551 0)
(-0.0338754 0.0477017 0)
(-0.0470641 0.0591453 0)
(-0.0615211 0.0661744 0)
(-0.0774885 0.0686833 0)
(-0.0945659 0.0662406 0)
(-0.111714 0.0585798 0)
(-0.127219 0.0458215 0)
(-0.139164 0.0288792 0)
(-0.0500796 0.0688158 0)
(-0.0665268 0.0805326 0)
(-0.084577 0.0868614 0)
(-0.104304 0.087737 0)
(-0.125054 0.0826956 0)
(-0.145383 0.0715067 0)
(-0.163352 0.0545585 0)
(-0.176522 0.0330411 0)
(-0.0690166 0.0921991 0)
(-0.0885278 0.10298 0)
(-0.109894 0.107559 0)
(-0.132973 0.105941 0)
(-0.156756 0.0976319 0)
(-0.179543 0.0825419 0)
(-0.199047 0.0612907 0)
(-0.212797 0.0354104 0)
(-0.0906681 0.117206 0)
(-0.11311 0.126002 0)
(-0.137498 0.127879 0)
(-0.163434 0.122965 0)
(-0.189624 0.110809 0)
(-0.214079 0.0915096 0)
(-0.234324 0.0659219 0)
(-0.247996 0.0359211 0)
(-0.115135 0.143216 0)
(-0.140281 0.14896 0)
(-0.167385 0.147305 0)
(-0.195676 0.138398 0)
(-0.223543 0.121906 0)
(-0.248844 0.0981526 0)
(-0.269107 0.0682956 0)
(-0.282223 0.0343989 0)
(-0.142548 0.169477 0)
(-0.170186 0.171227 0)
(-0.199571 0.165215 0)
(-0.229573 0.151684 0)
(-0.258393 0.130469 0)
(-0.283787 0.102155 0)
(-0.303448 0.0681332 0)
(-0.315521 0.0306173 0)
(-0.173201 0.195181 0)
(-0.202997 0.192018 0)
(-0.234143 0.180902 0)
(-0.265184 0.162203 0)
(-0.29415 0.135978 0)
(-0.318902 0.10308 0)
(-0.337321 0.0650773 0)
(-0.347891 0.0242105 0)
(-0.207473 0.219324 0)
(-0.239032 0.210366 0)
(-0.271308 0.193462 0)
(-0.302578 0.169145 0)
(-0.330861 0.137744 0)
(-0.354128 0.100313 0)
(-0.370637 0.0585852 0)
(-0.37915 0.0147526 0)
(-0.245979 0.240577 0)
(-0.278723 0.22498 0)
(-0.311313 0.201625 0)
(-0.341827 0.171344 0)
(-0.3684 0.134741 0)
(-0.389265 0.0930415 0)
(-0.403123 0.0479678 0)
(-0.409177 0.00154671 0)
(-0.289468 0.256968 0)
(-0.322555 0.233847 0)
(-0.354302 0.203582 0)
(-0.382791 0.167198 0)
(-0.406423 0.125638 0)
(-0.423911 0.0800877 0)
(-0.434391 0.0321919 0)
(-0.437469 -0.0162684 0)
(-0.338788 0.265372 0)
(-0.370827 0.233949 0)
(-0.400043 0.196506 0)
(-0.424789 0.154384 0)
(-0.44404 0.108502 0)
(-0.457072 0.0600199 0)
(-0.463436 0.010198 0)
(-0.463066 -0.0395881 0)
(-0.394126 0.260764 0)
(-0.422726 0.220798 0)
(-0.446763 0.176985 0)
(-0.465572 0.130339 0)
(-0.478831 0.0815633 0)
(-0.486318 0.0314576 0)
(-0.487946 -0.0190921 0)
(-0.483777 -0.0691964 0)
(-0.4475 0.233467 0)
(-0.468229 0.18848 0)
(-0.484449 0.141678 0)
(-0.496003 0.0935114 0)
(-0.50278 0.0444443 0)
(-0.504716 -0.00505078 0)
(-0.50179 -0.0544972 0)
(-0.494032 -0.103419 0)
)
;

boundaryField
{
    walls
    {
        type            cellMotion;
        value           uniform (0 0 0);
    }
    cylinder
    {
        type            cellMotion;
        value           nonuniform List<vector> 
16
(
(-0.151345 0.481517 0)
(-0.197813 0.464364 0)
(-0.242376 0.442739 0)
(-0.284605 0.41685 0)
(-0.324093 0.386946 0)
(-0.360459 0.353316 0)
(-0.393355 0.316284 0)
(-0.422462 0.276205 0)
(-0.4475 0.233467 0)
(-0.468229 0.18848 0)
(-0.484449 0.141678 0)
(-0.496003 0.0935114 0)
(-0.50278 0.0444443 0)
(-0.504716 -0.00505078 0)
(-0.50179 -0.0544972 0)
(-0.494032 -0.103419 0)
)
;
    }
    outlet
    {
        type            cellMotion;
        value           uniform (0 0 0);
    }
    inlet
    {
        type            cellMotion;
        value           nonuniform List<vector> 0();
    }
    frontAndBack
    {
        type            empty;
    }
    procBoundary3to1
    {
        type            processor;
        value           nonuniform List<vector> 
16
(
(0.0056382 0.0202507 0)
(0.015287 0.0608983 0)
(0.0230593 0.100526 0)
(0.0290199 0.138979 0)
(0.0332019 0.176341 0)
(0.0355963 0.212584 0)
(0.0361034 0.247815 0)
(0.0345915 0.282036 0)
(0.0307815 0.315381 0)
(0.0243703 0.347763 0)
(0.0148666 0.379067 0)
(0.00164283 0.409115 0)
(-0.0162189 0.437435 0)
(-0.0395585 0.463053 0)
(-0.0691877 0.483774 0)
(-0.103419 0.494032 0)
)
;
    }
    procBoundary3to2
    {
        type            processor;
        value           nonuniform List<vector> 
16
(
(-0.0219373 0.00249464 0)
(-0.0650557 0.00619151 0)
(-0.106173 0.00850308 0)
(-0.145415 0.00948995 0)
(-0.182977 0.0091443 0)
(-0.218971 0.00741301 0)
(-0.25357 0.00416818 0)
(-0.286895 -0.000773374 0)
(-0.319012 -0.00767753 0)
(-0.349833 -0.0168501 0)
(-0.379325 -0.0287836 0)
(-0.407316 -0.0440972 0)
(-0.433264 -0.0635689 0)
(-0.456205 -0.0880266 0)
(-0.474038 -0.117977 0)
(-0.481517 -0.151345 0)
)
;
    }
}


// ************************************************************************* //
