/*--------------------------------*- C++ -*----------------------------------*\
| =========                 |                                                 |
| \\      /  F ield         | OpenFOAM: The Open Source CFD Toolbox           |
|  \\    /   O peration     | Version:  2412                                  |
|   \\  /    A nd           | Website:  www.openfoam.com                      |
|    \\/     M anipulation  |                                                 |
\*---------------------------------------------------------------------------*/
FoamFile
{
    version     2.0;
    format      ascii;
    arch        "LSB;label=32;scalar=64";
    class       surfaceScalarField;
    location    "0.9";
    object      meshPhi;
}
// * * * * * * * * * * * * * * * * * * * * * * * * * * * * * * * * * * * * * //

dimensions      [0 3 -1 0 0 0 0];

internalField   nonuniform List<scalar> 
480
(
0.000954572
-0.00134458
0.00100732
-0.000675301
0.00103315
-7.58664e-05
0.000958945
0.000416654
0.000851826
0.00078531
0.000736187
0.00105535
0.000547367
0.00119893
0.00115258
0.000383406
0.00283524
-0.0023883
0.00297957
-0.00116748
0.00302377
-0.000126597
0.00283133
0.00072269
0.00255458
0.00140124
0.00222339
0.00188757
0.0016772
0.00209231
0.00194448
0.0012019
0.00468685
-0.00318052
0.00489684
-0.00154465
0.00489758
-0.000190624
0.00464687
0.000936771
0.00425376
0.00184617
0.00373558
0.00247661
0.00289982
0.00270831
0.00248778
0.00219272
0.0065355
-0.00371209
0.00680278
-0.00178801
0.00672112
-0.000217846
0.00644632
0.00110931
0.00595676
0.0021847
0.00528107
0.00289095
0.00423088
0.00310669
0.00284216
0.00342668
0.00825822
-0.00403019
0.00859292
-0.00195328
0.00851097
-0.000265999
0.00824355
0.00122602
0.00769981
0.00242052
0.00690326
0.00316045
0.00569989
0.00334454
0.00304413
0.00490227
0.00971562
-0.00421308
0.0100984
-0.00199411
0.0102304
-0.000214785
0.0100175
0.00131603
0.00948194
0.00253876
0.00862378
0.0032817
0.00733531
0.00343848
0.00310947
0.00659637
0.0111375
-0.00423339
0.0115321
-0.00190497
0.0118869
-8.85959e-05
0.0117599
0.00138746
0.0112635
0.00254505
0.0104078
0.00324779
0.00914566
0.00339482
0.00307649
0.00852946
0.012754
-0.00408989
0.0131559
-0.00173501
0.0135607
5.13415e-05
0.0134939
0.00140545
0.0130359
0.0024383
0.012267
0.00308958
0.0111596
0.00325444
0.00298126
0.0107677
0.0144064
-0.00374377
0.0148597
-0.00140309
0.0153107
0.00025755
0.0152751
0.001401
0.0148602
0.00226029
0.0142579
0.00284627
0.0134312
0.00304105
0.00283575
0.0133467
0.0159593
-0.00334796
0.0164142
-0.00106551
0.0169717
0.000393578
0.0170706
0.0012295
0.0167911
0.00193241
0.0164476
0.00254817
0.0160241
0.00282774
0.00270753
0.0163063
0.0174649
-0.00302203
0.0177723
-0.000969074
0.018322
0.000346469
0.0187084
0.00111621
0.0188281
0.001815
0.0189014
0.00242921
0.0189681
0.00272578
0.00265385
0.0196887
0.0190615
-0.00257428
0.0192498
-0.000898722
0.0197291
0.000351406
0.0204181
0.00125225
0.0210764
0.00196385
0.0216648
0.00247122
0.0222558
0.00271759
0.00267643
0.0234517
0.0207533
-0.00182821
0.0210346
-0.000540773
0.0216375
0.000540815
0.0225759
0.00139041
0.0236701
0.00201519
0.0247715
0.0024328
0.0259015
0.00266597
0.00266724
0.0275613
0.0224174
-0.000769672
0.022899
7.87167e-05
0.0237654
0.000832904
0.024975
0.00145577
0.0264638
0.00192334
0.0281049
0.00225181
0.0298571
0.00246174
0.00249804
0.0319933
0.0237879
0.00040971
0.0244701
0.000800996
0.0256019
0.00115362
0.0271301
0.00145737
0.0290211
0.00170931
0.0312032
0.00190831
0.0335807
0.00205256
0.00212238
0.0361348
0.0221367
0.0230468
0.0243559
0.02601
0.0279506
0.0301143
0.0323965
0.0346733
0.000327152
-0.000911008
0.000376029
-0.00127149
0.000451978
-0.00177139
0.000531656
-0.00209256
0.000665318
-0.00225587
0.000796556
-0.00233121
0.000853644
-0.00219671
-0.00185493
0.00107401
-0.00217285
0.00127087
-0.0028968
0.00147086
-0.00379663
0.00167057
-0.00424828
0.00202634
-0.00438158
0.00238114
-0.00434966
0.00257209
-0.004007
-0.00336606
0.00205384
-0.0038047
0.00239333
-0.00475763
0.00268544
-0.00585876
0.00297218
-0.00638893
0.00345153
-0.00642495
0.0039487
-0.00616281
0.00427532
-0.00554097
-0.00458437
0.00329658
-0.00565048
0.00370533
-0.00672461
0.00407605
-0.00788477
0.0044384
-0.00839496
0.00495609
-0.00824513
0.00552141
-0.00766557
0.005948
-0.00671933
-0.00545474
0.00479741
-0.00757346
0.00524903
-0.0087562
0.0056574
-0.00987223
0.00605531
-0.0102528
0.00655676
-0.00987409
0.00712819
-0.0089626
0.00759223
-0.00766457
-0.00606129
0.00653103
-0.00940473
0.00705253
-0.0106756
0.00745251
-0.0117245
0.00781943
-0.0118927
0.00826242
-0.0112141
0.00877637
-0.00994541
0.00920715
-0.0082965
-0.00642596
0.00849959
-0.0110925
0.0090958
-0.0123811
0.00944802
-0.0132753
0.0097315
-0.0131947
0.0100735
-0.0122288
0.0104685
-0.0106412
0.0108057
-0.0086889
-0.00660227
0.010728
-0.0125376
0.011323
-0.0137166
0.0116049
-0.0143828
0.0117685
-0.0140504
0.0119592
-0.0128081
0.0121929
-0.0109576
0.0124084
-0.00879553
-0.00656151
0.0131957
-0.0135823
0.0136946
-0.0145462
0.0138687
-0.0149141
0.0138754
-0.0143172
0.0138819
-0.0128496
0.0139484
-0.0108344
0.0140452
-0.00859559
-0.00631077
0.0159298
-0.0141118
0.0162055
-0.0147544
0.0162247
-0.0147775
0.0160481
-0.0139703
0.0158493
-0.0123766
0.01575
-0.0103264
0.0157348
-0.00813884
-0.00592377
0.0190148
-0.013957
0.0189393
-0.0143092
0.0187112
-0.0139843
0.0182974
-0.0129861
0.0178619
-0.0113605
0.017576
-0.00939245
0.0174382
-0.00736069
-0.00536366
0.022484
-0.0128636
0.0219787
-0.013011
0.0213527
-0.012412
0.0206185
-0.0112676
0.0199254
-0.00970914
0.019418
-0.00794432
0.0191346
-0.00616439
-0.00446627
0.0262391
-0.0106921
0.0252421
-0.0106504
0.0241141
-0.00989942
0.0229812
-0.00874327
0.0219977
-0.00737476
0.0212545
-0.00592995
0.0208254
-0.0045203
-0.00320219
0.0301956
-0.0074801
0.0285677
-0.00728511
0.0268635
-0.00648868
0.0252862
-0.00551571
0.0239774
-0.00449309
0.023021
-0.00348893
0.022447
-0.00253538
-0.00165044
0.0337543
-0.00303341
0.0313306
-0.00278822
0.0290611
-0.00231267
0.0270971
-0.00181428
0.0255235
-0.00132866
0.0243964
-0.000859804
0.023725
-0.000413447
8.10927e-06
0.031707
0.0289161
0.0265178
0.0245702
0.0231001
0.0221236
0.021646
)
;

boundaryField
{
    walls
    {
        type            calculated;
        value           uniform 0;
    }
    cylinder
    {
        type            calculated;
        value           nonuniform List<scalar> 
16
(
4.9233e-12
-6.05114e-12
-2.0079e-12
3.64855e-12
-1.02809e-11
7.44463e-12
1.15296e-11
-5.83909e-12
5.83515e-12
-1.15331e-11
-7.44862e-12
1.02774e-11
-3.65136e-12
2.00446e-12
6.04672e-12
-4.92786e-12
)
;
    }
    outlet
    {
        type            calculated;
        value           uniform 0;
    }
    inlet
    {
        type            calculated;
        value           nonuniform List<scalar> 0();
    }
    frontAndBack
    {
        type            empty;
    }
    procBoundary3to1
    {
        type            processor;
        value           nonuniform List<scalar> 
16
(
-0.000887717
-0.00265511
-0.00438537
-0.00607413
-0.00770999
-0.00929845
-0.0108867
-0.0125038
-0.0141404
-0.0157851
-0.0174169
-0.0190615
-0.0207261
-0.0223115
-0.0235598
-0.0216659
)
;
    }
    procBoundary3to2
    {
        type            processor;
        value           nonuniform List<scalar> 
16
(
0.000957817
0.00284349
0.00464678
0.00635887
0.00797971
0.00952751
0.0110543
0.0126
0.0141704
0.0157682
0.0173825
0.0190133
0.020663
0.0222615
0.0235292
0.0216555
)
;
    }
}


// ************************************************************************* //
