/*--------------------------------*- C++ -*----------------------------------*\
| =========                 |                                                 |
| \\      /  F ield         | OpenFOAM: The Open Source CFD Toolbox           |
|  \\    /   O peration     | Version:  2412                                  |
|   \\  /    A nd           | Website:  www.openfoam.com                      |
|    \\/     M anipulation  |                                                 |
\*---------------------------------------------------------------------------*/
FoamFile
{
    version     2.0;
    format      ascii;
    arch        "LSB;label=32;scalar=64";
    class       pointVectorField;
    location    "0.9";
    object      pointDisplacement;
}
// * * * * * * * * * * * * * * * * * * * * * * * * * * * * * * * * * * * * * //

dimensions      [0 1 0 0 0 0 0];

internalField   nonuniform List<vector> 
578
(
(0 0 0)
(0 0 0)
(0 0 0)
(0 0 0)
(0 0 0)
(0 0 0)
(0 0 0)
(0 0 0)
(0 0 0)
(0.00745467 0.0420363 0)
(0.00120195 0.0436132 0)
(-0.00483598 0.0425524 0)
(-0.00962481 0.0389752 0)
(-0.0124158 0.0334342 0)
(-0.0129404 0.0267424 0)
(-0.0113535 0.0196007 0)
(-0.00808881 0.0124331 0)
(-0.00591228 0.00866487 0)
(0.0133291 0.0831366 0)
(0.00140515 0.0856291 0)
(-0.00993965 0.0834875 0)
(-0.0189914 0.0769866 0)
(-0.0245427 0.0670844 0)
(-0.0261277 0.0550853 0)
(-0.02393 0.0421282 0)
(-0.0185608 0.028921 0)
(-0.0149541 0.02183 0)
(0.0175991 0.122728 0)
(0.000599675 0.125563 0)
(-0.0153712 0.122307 0)
(-0.028202 0.113443 0)
(-0.0364365 0.100224 0)
(-0.0394653 0.0841788 0)
(-0.0374549 0.0667125 0)
(-0.0310618 0.0487164 0)
(-0.0267655 0.0387576 0)
(0.0203044 0.160872 0)
(-0.00124599 0.163625 0)
(-0.0212984 0.15928 0)
(-0.0375369 0.148534 0)
(-0.0483803 0.132808 0)
(-0.053138 0.113744 0)
(-0.051953 0.0929055 0)
(-0.0454632 0.0712767 0)
(-0.0412042 0.058918 0)
(0.0214335 0.197658 0)
(-0.00421756 0.200003 0)
(-0.027914 0.194625 0)
(-0.0472639 0.182374 0)
(-0.0606477 0.164765 0)
(-0.0673662 0.143536 0)
(-0.067524 0.120299 0)
(-0.0617198 0.0960591 0)
(-0.0581812 0.0817406 0)
(0.0209161 0.233176 0)
(-0.00844751 0.234866 0)
(-0.0354291 0.228489 0)
(-0.0576465 0.215012 0)
(-0.0735256 0.196025 0)
(-0.0823943 0.173321 0)
(-0.0843142 0.148482 0)
(-0.0798644 0.122514 0)
(-0.0776726 0.106624 0)
(0.0186136 0.267526 0)
(-0.0141229 0.268361 0)
(-0.0440802 0.26098 0)
(-0.0689739 0.246479 0)
(-0.0873269 0.226518 0)
(-0.0985035 0.202866 0)
(-0.102543 0.177064 0)
(-0.100021 0.150096 0)
(-0.0997285 0.132933 0)
(0.0143136 0.300788 0)
(-0.0214787 0.300559 0)
(-0.0541492 0.29215 0)
(-0.081575 0.276787 0)
(-0.1024 0.256142 0)
(-0.116035 0.231936 0)
(-0.122512 0.20566 0)
(-0.122405 0.178243 0)
(-0.124485 0.159996 0)
(0.00772537 0.332965 0)
(-0.0308233 0.331452 0)
(-0.0659851 0.321994 0)
(-0.0958373 0.305882 0)
(-0.119152 0.28475 0)
(-0.135392 0.26025 0)
(-0.14459 0.233823 0)
(-0.14733 0.206343 0)
(-0.152191 0.187071 0)
(-0.00154653 0.363978 0)
(-0.0425696 0.360992 0)
(-0.0800385 0.350452 0)
(-0.112241 0.333642 0)
(-0.138078 0.312116 0)
(-0.15707 0.287441 0)
(-0.169258 0.261011 0)
(-0.175246 0.233661 0)
(-0.18323 0.213291 0)
(-0.0140592 0.393696 0)
(-0.0572765 0.389051 0)
(-0.0968766 0.377343 0)
(-0.131364 0.359805 0)
(-0.159782 0.337881 0)
(-0.181703 0.313016 0)
(-0.197157 0.286531 0)
(-0.206754 0.259265 0)
(-0.218134 0.237545 0)
(-0.0305484 0.421785 0)
(-0.0756176 0.415247 0)
(-0.117146 0.402217 0)
(-0.153873 0.383831 0)
(-0.18497 0.361388 0)
(-0.210044 0.336182 0)
(-0.229078 0.309406 0)
(-0.242661 0.281877 0)
(-0.257653 0.25827 0)
(-0.0518486 0.447497 0)
(-0.0983675 0.438803 0)
(-0.141606 0.424244 0)
(-0.180533 0.404781 0)
(-0.214439 0.381511 0)
(-0.242925 0.355566 0)
(-0.265925 0.32799 0)
(-0.283948 0.29951 0)
(-0.302692 0.273099 0)
(-0.0787133 0.469276 0)
(-0.126134 0.458186 0)
(-0.170746 0.441853 0)
(-0.211755 0.420988 0)
(-0.24856 0.396417 0)
(-0.280771 0.369021 0)
(-0.308256 0.339654 0)
(-0.331326 0.308914 0)
(-0.353926 0.278184 0)
(-0.110543 0.483349 0)
(-0.157984 0.469757 0)
(-0.203331 0.45142 0)
(-0.246026 0.428714 0)
(-0.28559 0.402089 0)
(-0.321637 0.37204 0)
(-0.353902 0.339083 0)
(-0.382308 0.303647 0)
(-0.408149 0.266252 0)
(-0.127689 0.488952 0)
(-0.175 0.474082 0)
(-0.220625 0.454646 0)
(-0.264126 0.430831 0)
(-0.305083 0.402868 0)
(-0.343102 0.371025 0)
(-0.377817 0.335608 0)
(-0.408893 0.29696 0)
(-0.436031 0.255451 0)
(0 0 0)
(0 0 0)
(0 0 0)
(0 0 0)
(0 0 0)
(0 0 0)
(0 0 0)
(0 0 0)
(0 0 0)
(0.00745467 0.0420363 0)
(0.00120195 0.0436132 0)
(-0.00483598 0.0425524 0)
(-0.00962481 0.0389752 0)
(-0.0124158 0.0334342 0)
(-0.0129404 0.0267424 0)
(-0.0113535 0.0196007 0)
(-0.00808881 0.0124331 0)
(-0.00591228 0.00866487 0)
(0.0133291 0.0831366 0)
(0.00140515 0.0856291 0)
(-0.00993965 0.0834875 0)
(-0.0189914 0.0769866 0)
(-0.0245427 0.0670844 0)
(-0.0261277 0.0550853 0)
(-0.02393 0.0421282 0)
(-0.0185608 0.028921 0)
(-0.0149541 0.02183 0)
(0.0175991 0.122728 0)
(0.000599675 0.125563 0)
(-0.0153712 0.122307 0)
(-0.028202 0.113443 0)
(-0.0364365 0.100224 0)
(-0.0394653 0.0841788 0)
(-0.0374549 0.0667125 0)
(-0.0310618 0.0487164 0)
(-0.0267655 0.0387576 0)
(0.0203044 0.160872 0)
(-0.00124599 0.163625 0)
(-0.0212984 0.15928 0)
(-0.0375369 0.148534 0)
(-0.0483803 0.132808 0)
(-0.053138 0.113744 0)
(-0.051953 0.0929055 0)
(-0.0454632 0.0712767 0)
(-0.0412042 0.058918 0)
(0.0214335 0.197658 0)
(-0.00421756 0.200003 0)
(-0.027914 0.194625 0)
(-0.0472639 0.182374 0)
(-0.0606477 0.164765 0)
(-0.0673662 0.143536 0)
(-0.067524 0.120299 0)
(-0.0617198 0.0960591 0)
(-0.0581812 0.0817406 0)
(0.0209161 0.233176 0)
(-0.00844751 0.234866 0)
(-0.0354291 0.228489 0)
(-0.0576465 0.215012 0)
(-0.0735256 0.196025 0)
(-0.0823943 0.173321 0)
(-0.0843142 0.148482 0)
(-0.0798644 0.122514 0)
(-0.0776726 0.106624 0)
(0.0186136 0.267526 0)
(-0.0141229 0.268361 0)
(-0.0440802 0.26098 0)
(-0.0689739 0.246479 0)
(-0.0873269 0.226518 0)
(-0.0985035 0.202866 0)
(-0.102543 0.177064 0)
(-0.100021 0.150096 0)
(-0.0997285 0.132933 0)
(0.0143136 0.300788 0)
(-0.0214787 0.300559 0)
(-0.0541492 0.29215 0)
(-0.081575 0.276787 0)
(-0.1024 0.256142 0)
(-0.116035 0.231936 0)
(-0.122512 0.20566 0)
(-0.122405 0.178243 0)
(-0.124485 0.159996 0)
(0.00772537 0.332965 0)
(-0.0308233 0.331452 0)
(-0.0659851 0.321994 0)
(-0.0958373 0.305882 0)
(-0.119152 0.28475 0)
(-0.135392 0.26025 0)
(-0.14459 0.233823 0)
(-0.14733 0.206343 0)
(-0.152191 0.187071 0)
(-0.00154653 0.363978 0)
(-0.0425696 0.360992 0)
(-0.0800385 0.350452 0)
(-0.112241 0.333642 0)
(-0.138078 0.312116 0)
(-0.15707 0.287441 0)
(-0.169258 0.261011 0)
(-0.175246 0.233661 0)
(-0.18323 0.213291 0)
(-0.0140592 0.393696 0)
(-0.0572765 0.389051 0)
(-0.0968766 0.377343 0)
(-0.131364 0.359805 0)
(-0.159782 0.337881 0)
(-0.181703 0.313016 0)
(-0.197157 0.286531 0)
(-0.206754 0.259265 0)
(-0.218134 0.237545 0)
(-0.0305484 0.421785 0)
(-0.0756176 0.415247 0)
(-0.117146 0.402217 0)
(-0.153873 0.383831 0)
(-0.18497 0.361388 0)
(-0.210044 0.336182 0)
(-0.229078 0.309406 0)
(-0.242661 0.281877 0)
(-0.257653 0.25827 0)
(-0.0518486 0.447497 0)
(-0.0983675 0.438803 0)
(-0.141606 0.424244 0)
(-0.180533 0.404781 0)
(-0.214439 0.381511 0)
(-0.242925 0.355566 0)
(-0.265925 0.32799 0)
(-0.283948 0.29951 0)
(-0.302692 0.273099 0)
(-0.0787133 0.469276 0)
(-0.126134 0.458186 0)
(-0.170746 0.441853 0)
(-0.211755 0.420988 0)
(-0.24856 0.396417 0)
(-0.280771 0.369021 0)
(-0.308256 0.339654 0)
(-0.331326 0.308914 0)
(-0.353926 0.278184 0)
(-0.110543 0.483349 0)
(-0.157984 0.469757 0)
(-0.203331 0.45142 0)
(-0.246026 0.428714 0)
(-0.28559 0.402089 0)
(-0.321637 0.37204 0)
(-0.353902 0.339083 0)
(-0.382308 0.303647 0)
(-0.408149 0.266252 0)
(-0.127689 0.488952 0)
(-0.175 0.474082 0)
(-0.220625 0.454646 0)
(-0.264126 0.430831 0)
(-0.305083 0.402868 0)
(-0.343102 0.371025 0)
(-0.377817 0.335608 0)
(-0.408893 0.29696 0)
(-0.436031 0.255451 0)
(0 0 0)
(0 0 0)
(0 0 0)
(0 0 0)
(0 0 0)
(0 0 0)
(0 0 0)
(0 0 0)
(-0.00800599 0.0112736 0)
(-0.0122248 0.0154924 0)
(-0.0168627 0.0183053 0)
(-0.0220322 0.019582 0)
(-0.0276358 0.0191641 0)
(-0.0332938 0.0169276 0)
(-0.0383633 0.012897 0)
(-0.0421029 0.0074092 0)
(-0.0190536 0.0261368 0)
(-0.0272901 0.0332789 0)
(-0.0363547 0.0376812 0)
(-0.0463633 0.0391458 0)
(-0.0570195 0.0374074 0)
(-0.0675317 0.032304 0)
(-0.0767364 0.0240091 0)
(-0.0832595 0.0132414 0)
(-0.0328685 0.0438931 0)
(-0.0448721 0.0526497 0)
(-0.0580819 0.0574831 0)
(-0.0725104 0.0581536 0)
(-0.0875864 0.0543287 0)
(-0.102119 0.0458887 0)
(-0.114502 0.0332305 0)
(-0.122893 0.0174745 0)
(-0.049375 0.0640683 0)
(-0.064916 0.0732047 0)
(-0.0819682 0.0773931 0)
(-0.100353 0.0763707 0)
(-0.119188 0.0697883 0)
(-0.136938 0.0576463 0)
(-0.151598 0.0405973 0)
(-0.161062 0.0201499 0)
(-0.0685275 0.08616 0)
(-0.0873784 0.094516 0)
(-0.107936 0.0970578 0)
(-0.129777 0.093535 0)
(-0.151699 0.0836259 0)
(-0.171858 0.0675005 0)
(-0.187966 0.0460914 0)
(-0.197859 0.0212573 0)
(-0.0903206 0.109631 0)
(-0.112258 0.116142 0)
(-0.135954 0.116122 0)
(-0.160708 0.109371 0)
(-0.185022 0.0956531 0)
(-0.20678 0.0753374 0)
(-0.22358 0.0496461 0)
(-0.233374 0.020728 0)
(-0.11479 0.133886 0)
(-0.139572 0.137576 0)
(-0.166008 0.134175 0)
(-0.193087 0.123554 0)
(-0.219051 0.105621 0)
(-0.241624 0.0809857 0)
(-0.258452 0.0511386 0)
(-0.267709 0.0184238 0)
(-0.14203 0.158263 0)
(-0.169364 0.158219 0)
(-0.198067 0.150688 0)
(-0.226821 0.135646 0)
(-0.253675 0.113192 0)
(-0.276335 0.0841938 0)
(-0.292613 0.0503597 0)
(-0.300948 0.0141323 0)
(-0.172228 0.182022 0)
(-0.201738 0.177383 0)
(-0.23214 0.165037 0)
(-0.261856 0.145111 0)
(-0.288846 0.117936 0)
(-0.310905 0.0846143 0)
(-0.326083 0.0470025 0)
(-0.333097 0.00756225 0)
(-0.205673 0.204269 0)
(-0.236889 0.194227 0)
(-0.268332 0.17646 0)
(-0.298231 0.151289 0)
(-0.324552 0.119287 0)
(-0.345288 0.0817596 0)
(-0.358786 0.0406437 0)
(-0.364079 -0.00168328 0)
(-0.242804 0.223857 0)
(-0.275121 0.207645 0)
(-0.306794 0.18392 0)
(-0.335961 0.153255 0)
(-0.360709 0.116458 0)
(-0.37933 0.0749645 0)
(-0.390556 0.0306951 0)
(-0.393768 -0.0141637 0)
(-0.28419 0.239134 0)
(-0.31676 0.216037 0)
(-0.347605 0.185952 0)
(-0.374911 0.149729 0)
(-0.397048 0.108363 0)
(-0.412713 0.0633006 0)
(-0.421071 0.0163356 0)
(-0.421829 -0.0306182 0)
(-0.33043 0.247567 0)
(-0.361983 0.216985 0)
(-0.390541 0.180413 0)
(-0.414569 0.138911 0)
(-0.432911 0.0935318 0)
(-0.444741 0.0455908 0)
(-0.449618 -0.00339781 0)
(-0.447519 -0.0518879 0)
(-0.381666 0.24523 0)
(-0.410167 0.207039 0)
(-0.434367 0.164514 0)
(-0.453373 0.118646 0)
(-0.466615 0.0703319 0)
(-0.473727 0.0205951 0)
(-0.474578 -0.0294625 0)
(-0.469285 -0.0787296 0)
(-0.43331 0.225772 0)
(-0.455684 0.181859 0)
(-0.473305 0.135501 0)
(-0.485875 0.0873434 0)
(-0.493214 0.0379944 0)
(-0.495225 -0.0118898 0)
(-0.491905 -0.0616294 0)
(-0.48335 -0.110547 0)
(-0.45897 0.211483 0)
(-0.477489 0.165477 0)
(-0.491409 0.117878 0)
(-0.500597 0.0691443 0)
(-0.504964 0.0197443 0)
(-0.504468 -0.0298459 0)
(-0.499113 -0.0791486 0)
(-0.488952 -0.127689 0)
(0 0 0)
(0 0 0)
(0 0 0)
(0 0 0)
(0 0 0)
(0 0 0)
(0 0 0)
(0 0 0)
(-0.00800599 0.0112736 0)
(-0.0122248 0.0154924 0)
(-0.0168627 0.0183053 0)
(-0.0220322 0.019582 0)
(-0.0276358 0.0191641 0)
(-0.0332938 0.0169276 0)
(-0.0383633 0.012897 0)
(-0.0421029 0.0074092 0)
(-0.0190536 0.0261368 0)
(-0.0272901 0.0332789 0)
(-0.0363547 0.0376812 0)
(-0.0463633 0.0391458 0)
(-0.0570195 0.0374074 0)
(-0.0675317 0.032304 0)
(-0.0767364 0.0240091 0)
(-0.0832595 0.0132414 0)
(-0.0328685 0.0438931 0)
(-0.0448721 0.0526497 0)
(-0.0580819 0.0574831 0)
(-0.0725104 0.0581536 0)
(-0.0875864 0.0543287 0)
(-0.102119 0.0458887 0)
(-0.114502 0.0332305 0)
(-0.122893 0.0174745 0)
(-0.049375 0.0640683 0)
(-0.064916 0.0732047 0)
(-0.0819682 0.0773931 0)
(-0.100353 0.0763707 0)
(-0.119188 0.0697883 0)
(-0.136938 0.0576463 0)
(-0.151598 0.0405973 0)
(-0.161062 0.0201499 0)
(-0.0685275 0.08616 0)
(-0.0873784 0.094516 0)
(-0.107936 0.0970578 0)
(-0.129777 0.093535 0)
(-0.151699 0.0836259 0)
(-0.171858 0.0675005 0)
(-0.187966 0.0460914 0)
(-0.197859 0.0212573 0)
(-0.0903206 0.109631 0)
(-0.112258 0.116142 0)
(-0.135954 0.116122 0)
(-0.160708 0.109371 0)
(-0.185022 0.0956531 0)
(-0.20678 0.0753374 0)
(-0.22358 0.0496461 0)
(-0.233374 0.020728 0)
(-0.11479 0.133886 0)
(-0.139572 0.137576 0)
(-0.166008 0.134175 0)
(-0.193087 0.123554 0)
(-0.219051 0.105621 0)
(-0.241624 0.0809857 0)
(-0.258452 0.0511386 0)
(-0.267709 0.0184238 0)
(-0.14203 0.158263 0)
(-0.169364 0.158219 0)
(-0.198067 0.150688 0)
(-0.226821 0.135646 0)
(-0.253675 0.113192 0)
(-0.276335 0.0841938 0)
(-0.292613 0.0503597 0)
(-0.300948 0.0141323 0)
(-0.172228 0.182022 0)
(-0.201738 0.177383 0)
(-0.23214 0.165037 0)
(-0.261856 0.145111 0)
(-0.288846 0.117936 0)
(-0.310905 0.0846143 0)
(-0.326083 0.0470025 0)
(-0.333097 0.00756225 0)
(-0.205673 0.204269 0)
(-0.236889 0.194227 0)
(-0.268332 0.17646 0)
(-0.298231 0.151289 0)
(-0.324552 0.119287 0)
(-0.345288 0.0817596 0)
(-0.358786 0.0406437 0)
(-0.364079 -0.00168328 0)
(-0.242804 0.223857 0)
(-0.275121 0.207645 0)
(-0.306794 0.18392 0)
(-0.335961 0.153255 0)
(-0.360709 0.116458 0)
(-0.37933 0.0749645 0)
(-0.390556 0.0306951 0)
(-0.393768 -0.0141637 0)
(-0.28419 0.239134 0)
(-0.31676 0.216037 0)
(-0.347605 0.185952 0)
(-0.374911 0.149729 0)
(-0.397048 0.108363 0)
(-0.412713 0.0633006 0)
(-0.421071 0.0163356 0)
(-0.421829 -0.0306182 0)
(-0.33043 0.247567 0)
(-0.361983 0.216985 0)
(-0.390541 0.180413 0)
(-0.414569 0.138911 0)
(-0.432911 0.0935318 0)
(-0.444741 0.0455908 0)
(-0.449618 -0.00339781 0)
(-0.447519 -0.0518879 0)
(-0.381666 0.24523 0)
(-0.410167 0.207039 0)
(-0.434367 0.164514 0)
(-0.453373 0.118646 0)
(-0.466615 0.0703319 0)
(-0.473727 0.0205951 0)
(-0.474578 -0.0294625 0)
(-0.469285 -0.0787296 0)
(-0.43331 0.225772 0)
(-0.455684 0.181859 0)
(-0.473305 0.135501 0)
(-0.485875 0.0873434 0)
(-0.493214 0.0379944 0)
(-0.495225 -0.0118898 0)
(-0.491905 -0.0616294 0)
(-0.48335 -0.110547 0)
(-0.45897 0.211483 0)
(-0.477489 0.165477 0)
(-0.491409 0.117878 0)
(-0.500597 0.0691443 0)
(-0.504964 0.0197443 0)
(-0.504468 -0.0298459 0)
(-0.499113 -0.0791486 0)
(-0.488952 -0.127689 0)
)
;

boundaryField
{
    walls
    {
        type            fixedValue;
        value           uniform (0 0 0);
    }
    cylinder
    {
        type            solidBodyMotionDisplacement;
        value           nonuniform List<vector> 
34
(
(-0.127689 0.488952 0)
(-0.127689 0.488952 0)
(-0.175 0.474082 0)
(-0.175 0.474082 0)
(-0.220625 0.454646 0)
(-0.220625 0.454646 0)
(-0.264126 0.430831 0)
(-0.264126 0.430831 0)
(-0.305083 0.402868 0)
(-0.305083 0.402868 0)
(-0.343102 0.371025 0)
(-0.343102 0.371025 0)
(-0.377817 0.335608 0)
(-0.377817 0.335608 0)
(-0.408893 0.29696 0)
(-0.408893 0.29696 0)
(-0.436031 0.255451 0)
(-0.436031 0.255451 0)
(-0.45897 0.211483 0)
(-0.45897 0.211483 0)
(-0.477489 0.165477 0)
(-0.477489 0.165477 0)
(-0.491409 0.117878 0)
(-0.491409 0.117878 0)
(-0.500597 0.0691443 0)
(-0.500597 0.0691443 0)
(-0.504964 0.0197443 0)
(-0.504964 0.0197443 0)
(-0.504468 -0.0298459 0)
(-0.504468 -0.0298459 0)
(-0.499113 -0.0791486 0)
(-0.499113 -0.0791486 0)
(-0.488952 -0.127689 0)
(-0.488952 -0.127689 0)
)
;
        solidBodyMotionFunction oscillatingRotatingMotion;
        oscillatingRotatingMotionCoeffs
        {
            origin          ( 0 0 0 );
            axis            ( 0 0 1 );
            omega           1.5;
            amplitude       ( 0 0 30 );
        }
    }
    outlet
    {
        type            fixedValue;
        value           uniform (0 0 0);
    }
    inlet
    {
        type            fixedValue;
        value           nonuniform List<vector> 0();
    }
    frontAndBack
    {
        type            empty;
    }
    procBoundary3to1
    {
        type            processor;
    }
    procBoundary3to2
    {
        type            processor;
    }
}


// ************************************************************************* //
