/*--------------------------------*- C++ -*----------------------------------*\
| =========                 |                                                 |
| \\      /  F ield         | OpenFOAM: The Open Source CFD Toolbox           |
|  \\    /   O peration     | Version:  2412                                  |
|   \\  /    A nd           | Website:  www.openfoam.com                      |
|    \\/     M anipulation  |                                                 |
\*---------------------------------------------------------------------------*/
FoamFile
{
    version     2.0;
    format      ascii;
    arch        "LSB;label=32;scalar=64";
    class       volScalarField;
    location    "1067.5";
    object      yPlus;
}
// * * * * * * * * * * * * * * * * * * * * * * * * * * * * * * * * * * * * * //

dimensions      [0 0 0 0 0 0 0];

internalField   uniform 0;

boundaryField
{
    FrontBack
    {
        type            empty;
    }
    Top
    {
        type            calculated;
        value           nonuniform List<scalar> 
15
(
142.2869260197213
133.5884106177785
138.068846076505
144.4115877987197
159.7713384411728
131.3683984565642
140.1383450982604
135.3621399253331
153.4505366951819
135.7337797807928
136.0963428267494
136.7690005479399
125.2647149525624
132.9120220023761
123.9523923311794
)
;
    }
    In
    {
        type            calculated;
        value           uniform 0;
    }
    Bottom
    {
        type            calculated;
        value           nonuniform List<scalar> 
15
(
155.5662549292373
158.118285335467
141.0822840659673
142.0432668800541
141.1766067270038
148.4244015904578
142.697791083976
143.1494594036124
143.4223645179246
134.0557458108083
125.725278850119
141.5528842299414
122.405768961978
123.4876604478184
124.1299407052678
)
;
    }
    Out
    {
        type            calculated;
        value           uniform 0;
    }
    circle
    {
        type            calculated;
        value           nonuniform List<scalar> 
32
(
56.20080922391359
22.22965322164984
65.30770059945856
23.91142586098729
19.41790120814662
56.14582964541905
56.73077195572262
23.89835522214827
22.37281753757645
65.54252821348766
39.98737387691217
63.01143947300751
50.43593310429227
15.29883072154435
23.48703865681806
18.01911701096823
39.08479901187272
59.66578717573874
60.98799973020795
24.23423246304956
65.71645094755452
63.83329933915902
62.9853726958825
59.94272209528327
64.08678940494653
45.91336494910075
66.37064700913159
32.00844914829019
38.04730011404741
55.77884251077703
20.94480985537144
43.18527008549365
)
;
    }
}


// ************************************************************************* //
