/*--------------------------------*- C++ -*----------------------------------*\
| =========                 |                                                 |
| \\      /  F ield         | OpenFOAM: The Open Source CFD Toolbox           |
|  \\    /   O peration     | Version:  2412                                  |
|   \\  /    A nd           | Website:  www.openfoam.com                      |
|    \\/     M anipulation  |                                                 |
\*---------------------------------------------------------------------------*/
FoamFile
{
    version     2.0;
    format      ascii;
    arch        "LSB;label=32;scalar=64";
    class       volScalarField;
    location    "1978.5";
    object      yPlus;
}
// * * * * * * * * * * * * * * * * * * * * * * * * * * * * * * * * * * * * * //

dimensions      [0 0 0 0 0 0 0];

internalField   uniform 0;

boundaryField
{
    FrontBack
    {
        type            empty;
    }
    Top
    {
        type            calculated;
        value           nonuniform List<scalar> 
15
(
142.2799758741242
133.5570332052567
138.0604280225428
144.3839268344999
159.7578466491646
131.3661190313087
140.1123331338829
135.3383605204493
153.4458686214138
135.7284731773905
136.0777607493229
136.7802989385262
125.2476710245996
132.9061636126927
123.9551011327289
)
;
    }
    In
    {
        type            calculated;
        value           uniform 0;
    }
    Bottom
    {
        type            calculated;
        value           nonuniform List<scalar> 
15
(
155.5680813762671
158.1144269883782
141.1064522566531
142.0706810042716
141.1881551845093
148.4535133634535
142.7158497152582
143.1608318316862
143.4215301020081
134.0680950946474
125.7368299008471
141.5633540963333
122.4095364925845
123.4872615590965
124.1421002868244
)
;
    }
    Out
    {
        type            calculated;
        value           uniform 0;
    }
    circle
    {
        type            calculated;
        value           nonuniform List<scalar> 
32
(
56.03125763980862
21.69745428558861
65.1921209696543
26.43672505085048
20.38840221516766
56.29810215438883
56.59983334856886
23.87656295752355
22.05214169625229
65.42643975041615
39.8307072131902
62.89013001067175
50.65298434520501
17.43425841533146
22.53466665378147
18.9468482469134
39.32737777783181
59.84608286585568
61.11938095756302
26.44138941863608
65.83741815490326
63.71184235544277
63.12993789895467
59.81011424564289
64.20870787676192
46.09948719107069
66.49940971111259
32.25900440096025
37.82222220656273
55.62483577317916
21.44577267807969
43.01969184515682
)
;
    }
}


// ************************************************************************* //
