/*--------------------------------*- C++ -*----------------------------------*\
| =========                 |                                                 |
| \\      /  F ield         | OpenFOAM: The Open Source CFD Toolbox           |
|  \\    /   O peration     | Version:  2412                                  |
|   \\  /    A nd           | Website:  www.openfoam.com                      |
|    \\/     M anipulation  |                                                 |
\*---------------------------------------------------------------------------*/
FoamFile
{
    version     2.0;
    format      ascii;
    arch        "LSB;label=32;scalar=64";
    class       surfaceScalarField;
    location    "14.9";
    object      phi;
}
// * * * * * * * * * * * * * * * * * * * * * * * * * * * * * * * * * * * * * //

dimensions      [0 3 -1 0 0 0 0];

oriented        oriented;

internalField   nonuniform List<scalar> 
1171
(
-0.945178
0.945178
0.773888
-1.08663
0.312738
-0.27685
-0.743552
1.0204
0.0548219
-0.0655133
-0.278608
0.344122
-0.773888
0.0909498
0.682938
0.936288
-0.216882
-0.719406
0.837416
-1.0418
0.204381
-0.358784
-0.0365777
0.395362
-0.00367437
0.607969
-0.604295
-0.515135
0.928779
-0.413644
-0.424298
1.00741
-0.169992
0.230242
0.0958889
-0.326131
0.986277
0.0211307
0.262602
-0.0323605
1.01053
-0.0242566
0.646333
-0.923183
-0.786495
0.608754
0.177741
0.285881
-0.801016
0.557688
-0.913823
0.356135
-1.08094
0.672137
0.4088
-0.646032
0.642357
0.0303531
-0.249152
0.218799
0.0387113
-0.634212
0.5955
0.468854
-0.505432
-0.837484
0.859581
-0.0220979
0.995807
0.014727
0.890785
-1.05098
0.160196
1.0045
-0.00868808
-0.699149
-0.0873456
1.24183
-0.830419
-0.411416
0.167012
-0.0779157
-0.414643
0.492559
-0.273156
0.186561
0.086595
-0.606108
-0.480517
0.958366
-0.0675813
-0.0272561
0.877401
-0.850145
0.515065
0.726769
0.530054
0.0231823
0.445672
-0.79124
-0.105499
0.896739
0.583639
0.227422
-0.811061
0.0599582
0.584101
-0.644059
-0.509957
-0.57098
-0.381626
-0.669354
0.028717
0.246039
-0.274756
-0.946849
-0.0362319
0.983081
0.377331
0.018031
0.837387
0.0989009
-0.604992
-0.0410398
0.0354012
-0.826641
0.104036
0.903781
-1.00782
-0.404625
0.0291857
0.375439
-0.711135
-0.235715
-0.689083
0.79312
0.681246
0.247533
-0.581113
0.993281
-0.819611
-0.17367
-0.114094
-0.012845
0.126939
-0.46081
-0.0446217
-0.292203
0.973449
-0.00915935
0.438808
-0.429648
-0.48743
1.07107
0.715206
-0.820705
0.397858
-0.077539
-0.320319
0.760699
-0.760699
-0.901074
0.0394362
-0.318045
-0.691222
0.663966
-0.0323062
-0.14476
0.177066
0.884271
-0.00686977
1.02996
-0.802541
0.226011
-0.322143
0.0961323
0.971577
-0.13419
-0.675567
-0.0473484
0.722915
0.148301
-0.229971
0.0816696
0.793077
-1.00996
-0.439533
0.309401
0.130132
0.676263
-0.637552
0.854182
-0.385648
-0.468533
0.472555
-0.693836
0.0352402
0.658596
0.160516
0.66439
0.0488093
-0.7132
0.135162
-0.095726
-0.509798
0.105173
0.0355877
-0.905457
0.869869
-0.538323
-0.759589
0.0604402
0.50248
-0.056808
0.276081
-0.833514
0.557433
0.424651
0.575349
0.599856
-0.564455
-0.388699
-0.0226007
0.4113
0.543074
0.217625
-0.664921
0.724879
0.0878369
0.884027
0.00360023
-0.679167
-0.764255
0.799842
0.617042
0.101887
0.362766
-0.464653
-0.154505
0.536329
0.0477721
0.904155
-0.80338
-0.100775
0.655301
0.33798
-0.432093
0.695445
-0.593558
0.40918
0.148508
-0.0558337
-0.709595
-0.192932
0.902527
-0.127947
-0.632752
-0.612841
0.361857
0.250984
0.660401
-0.6568
0.311816
1.01332
0.0166443
-0.764255
-0.164374
0.0502793
0.715206
0.783288
-0.783288
0.845017
-0.830925
-0.0140918
-0.453811
0.878462
-0.192346
-0.317452
0.763548
-0.669661
-0.093887
-0.873718
0.164124
0.109418
-0.714409
0.820705
-0.975209
-0.191416
0.190245
0.00117053
0.111775
-0.984857
0.873082
0.549607
-0.0195531
-0.28879
0.594274
-0.305484
-0.646878
0.758653
-0.15921
0.689528
-0.886009
0.196481
1.09516
-0.634275
-0.460885
0.727454
-0.0704135
0.00127213
-0.0013892
0.000117075
-0.800629
-0.906769
0.163218
-0.691222
0.574636
-0.545451
0.132574
0.675594
-0.808168
0.778347
0.166831
0.491155
0.508845
-0.0488735
-0.701515
0.750388
0.91546
-0.0113052
-0.727454
0.799842
0.181446
-0.430598
-0.032891
0.0188205
0.0140705
0.671854
-0.430508
-0.241345
0.682938
-0.0485585
-0.217241
0.562339
0.109515
-0.018198
0.000693379
0.0175046
0.00617592
-0.0049038
0.133411
-0.21095
-0.942498
0.028462
-0.142655
-0.0580047
0.132936
0.778866
0.741835
-0.166486
0.574996
-0.442422
-0.162645
0.388656
0.630234
0.0527042
0.229913
-1.06084
-0.975209
0.320523
0.663966
-0.161318
0.0165585
-0.807328
1.00549
-0.198161
0.480145
-0.104705
0.799456
0.306164
0.255296
0.00730586
-0.680568
0.680568
0.225465
0.671274
-0.0195795
0.458387
0.472979
0.00127524
-0.0341662
0.544749
0.00485809
-0.646878
0.570716
0.192832
-0.00429507
0.00290586
-0.630234
0.168715
0.836774
-0.016903
-0.706194
0.723097
0.760349
-0.82155
0.0612012
-0.778347
-0.032514
0.0459412
-0.0134272
0.0861771
-0.11997
-0.102984
0.222954
-0.00632547
-0.0118725
0.71013
-0.727033
0.908574
0.111827
-0.373574
-0.530946
0.90452
-0.00172959
0.00172959
0.167644
0.458183
0.624429
-1.08261
-0.195433
-0.54602
0.741452
-0.0204395
0.197505
0.380613
-0.232312
1.05859
-0.600403
0.775288
1.02591
-0.401483
0.188267
0.758653
0.588661
0.214028
0.645554
-0.632752
0.319432
-0.030817
-0.0114281
0.0422451
0.916936
-0.0269415
-0.889995
-0.564404
0.555716
0.546189
-0.564404
-0.588661
0.555716
0.0113419
0.943578
-0.0350045
-0.543074
0.487975
0.0550987
0.524349
0.59346
-1.11781
0.503723
0.554864
0.607322
0.489914
-1.09724
0.521498
0.504413
0.487975
-0.494953
-0.507614
-0.605836
-0.572874
-0.210415
-0.00654785
0.00654785
0.587547
0.536137
-1.10901
0.723114
-0.360348
-1.03019
0.395912
-0.684773
0.449058
-0.0246214
-0.945575
0.970196
0.453045
-0.0472746
0.964211
-1.06266
-0.991513
0.0797757
0.911737
0.257525
-0.182254
-0.0752713
0.719485
-0.787066
0.958941
-0.9647
0.00575891
-0.00618821
-0.797192
-0.177672
0.900215
-0.722542
-0.993637
0.987449
-0.702657
0.585882
0.116775
-0.771954
0.0290739
0.74288
0.00328151
-0.0050111
0.424589
0.103717
-0.944523
0.840806
-0.789883
0.74101
1.02863
0.0896787
-1.11831
0.0371181
-0.00765369
0.418953
-0.361285
0.0391422
0.928847
-0.953469
-0.660126
-0.7825
-0.0146917
-0.165186
-0.944517
-0.0201822
0.506176
0.0688198
-0.103593
0.361118
-0.698607
0.727681
0.468533
-0.99285
-0.903958
0.0396201
-0.0889735
0.704302
-0.615328
0.0256792
-0.7491
0.578383
0.181966
-0.00569441
0.969905
1.06722
0.929796
-0.949978
0.0460765
-0.0460765
-0.0752125
-0.0922668
-0.0899869
0.341811
-0.0212882
0.206738
0.995584
0.0134339
-0.0197594
0.658101
0.341899
0.797319
-0.606108
-0.749837
-0.64227
-0.533618
0.533618
-0.209225
-0.108819
0.643279
-0.942747
0.299468
-0.500206
-0.528427
0.342699
-1.01205
-0.964543
0.970302
-0.758723
0.744031
0.656249
0.20375
-0.859999
-0.525494
-0.188237
0.861846
-0.673609
-0.0310416
0.0105877
0.00179864
-0.0123863
0.0308873
-0.123154
0.985978
0.590309
-0.281126
-0.309183
0.515037
0.751169
-0.525704
0.014238
-0.287394
0.051923
0.757993
-0.809916
-0.355804
-0.0650041
0.144128
-1.01987
0.129875
-0.738997
0.124568
0.733394
-0.857962
-0.890154
0.151157
0.721545
-0.786549
0.2329
-0.352869
-0.539837
0.0143432
0.368505
0.726247
-0.0308021
-0.00341144
0.00341144
-0.00585447
-0.00136219
-0.0294548
-0.0148842
0.0283181
-0.471018
0.338251
0.740558
-0.832295
0.0917368
-0.712349
0.836917
0.804936
-0.0833906
-0.70649
-0.183663
-1.10604
0.0210096
0.0250668
-0.419095
-0.884163
-0.841261
0.429846
-0.219299
0.274179
-0.0548799
-0.449422
0.030327
0.513977
0.712922
-0.0431558
-0.0148488
1.00553
0.514237
0.185116
-0.699353
-0.363935
-0.0854861
-0.00192917
0.0125169
0.725463
-0.918395
0.00535391
-0.00535391
-0.714367
0.746839
-0.0324719
-0.467528
-0.121777
-0.697222
0.104754
0.645634
-0.0529535
-0.885458
-0.280087
0.275691
0.00439605
0.78804
-0.696303
0.346793
0.256245
-0.603038
-0.1587
-0.715522
-0.14244
-0.20013
-0.175332
0.471695
-0.516317
0.171556
0.738045
-0.909601
0.472555
-0.192862
-0.026437
-0.0732494
-0.102083
0.59451
-0.0938871
-0.500623
-0.286524
0.307651
-0.0211272
0.566935
0.156179
0.0894138
-0.313419
0.171511
0.141907
-0.103973
-0.0604012
-0.304117
0.177222
-0.0352834
-0.141939
0.905163
-0.314391
-0.153137
0.555012
0.306165
-0.587291
0.454134
-0.454134
-0.228511
-0.450281
-0.233939
-0.450281
-0.688464
-0.850744
0.181084
-0.404378
0.73269
0.0490592
0.154913
0.571333
0.109097
0.118348
0.0105188
-0.128867
-0.128688
0.6898
-1.0212
0.490252
-0.0124142
0.0589054
-0.0464912
-0.757
-0.178259
-0.560035
0.74515
-0.521748
-0.00798169
-0.0941011
-0.341607
-0.0797154
0.0797154
0.0467994
-0.000858161
0.139358
0.213778
-0.721848
0.161813
-0.0238423
0.473336
0.526664
0.830424
0.0148005
0.0219211
-0.0367215
-0.299854
-0.585604
-0.524035
0.115506
-0.120097
0.00459079
-0.118449
-0.411339
-0.118075
0.763709
-0.591434
-0.165565
-0.0208267
-0.00301983
0.179984
-0.412095
-0.198707
-0.185744
-0.0252056
-0.471699
0.428808
0.0428907
-0.0129762
0.294642
-0.865622
-0.535459
0.635021
-0.870982
0.712281
0.450733
-0.0316242
0.0560267
-0.0244025
0.140613
-0.633969
-0.00882187
0.642791
-0.894006
0.649699
-0.724911
-0.0508963
0.00677404
-0.00677404
-0.299181
0.435981
-0.0170273
-0.00688806
0.0216885
0.58624
0.59236
-0.693135
0.0119325
0.000584357
-0.0039958
0.00486335
-0.00486335
-0.484671
0.64085
0.0155854
-0.0155854
-0.780372
-0.00787765
0.0111592
-0.494463
0.656276
0.567553
-0.600025
0.0693426
-0.0693426
0.00239645
-0.0365627
0.0117609
-1.05592
0.595034
-0.539551
-0.0050111
0.607543
0.00433257
-0.611876
-0.71261
0.121176
-0.314548
-0.0130309
0.327579
-0.0215938
-0.0215621
-0.607659
-0.0263107
0.0250668
0.0056654
-0.000311494
-0.00293458
0.00293458
-0.360165
0.218227
-0.460543
0.133551
0.663767
-0.128019
0.00521009
-0.00521009
0.508576
-0.0509771
0.00850362
0.0182928
-0.00014775
0.628184
-0.679161
-0.775634
0.622497
-0.10357
0.329847
0.763888
-0.00585447
-0.0874946
0.0904005
-0.651095
0.549245
-0.259287
-0.105067
-0.0292753
-0.026156
0.00703682
0.477837
-0.085654
-0.414969
0.705411
0.0016845
0.0036304
-0.0036304
-0.20989
-0.146387
-0.569821
0.618881
-0.134608
0.50862
-0.198912
0.845245
0.840956
0.0056654
-0.723468
0.623715
0.0256041
-0.00494366
-0.0206604
0.609521
0.0833378
-0.0118403
0.0656407
-0.0538004
0.00890568
-0.00890568
-0.756938
0.0232661
-0.0436321
0.0619249
-0.0855031
0.0855031
0.000584356
-0.000644387
0.749088
0.0876867
-0.316072
-0.0952669
-0.521578
0.00477733
-0.0661302
0.0661302
-0.0343251
0.0816216
-0.0816216
0.0263183
-0.0263183
-0.358117
-0.0739762
0.238919
0.0704816
0.0338408
-0.728892
-0.0608311
0.159577
0.0218695
-0.238799
0.0816353
-0.0816353
-0.468014
-0.0483024
0.228362
-0.00956307
0.00273082
-0.665373
0.654031
0.0147874
-0.0491125
0.0330181
-0.0695808
-0.012279
-0.157555
0.169834
-0.148655
-0.204214
-0.0806084
0.0806084
0.0540106
-0.0540106
-0.0277227
-0.0936597
0.121382
-0.0353803
-0.190392
0.000453875
-0.00444967
-0.21411
0.432337
-0.0257048
0.442166
0.00910907
0.0083955
-0.0505149
0.0505149
-0.733733
0.315541
-0.127274
-0.207132
-0.0228391
-0.0170962
0.019827
0.19284
0.0301145
-0.00241582
0.00226807
0.0855793
0.0299268
0.0563542
0.103223
-0.0226711
0.0078223
-0.00172351
0.005647
0.004887
0.00123638
-0.00612338
-0.00304604
0.0107936
0.0272053
-0.0272053
0.0485445
-0.0434175
0.0434175
-0.189774
0.0140425
0.0309156
-0.0756289
0.0174126
0.0779351
-0.0779351
0.23573
-0.234719
0.0860639
-0.0663157
-0.168404
-0.0148258
0.0148258
0.408439
0.250157
-0.520762
-0.0804289
-0.0396679
0.54199
-0.0023622
-0.0573801
-0.463918
0.0815945
-0.151497
0.168571
-0.0170737
-0.0480083
0.0480083
0.845482
-0.589605
-0.00471701
0.00167097
-0.00578767
-0.287078
1.36962e-05
0.00489464
-0.0442726
-0.630771
0.56988
-0.660673
0.0144782
0.145125
0.0156153
0.0241966
-0.157285
-0.333177
0.257548
-0.054528
0.0268053
0.173178
0.134473
0.211515
0.262389
-0.246774
0.0045755
-0.113901
-0.220163
0.0669075
-0.0105533
0.159313
-0.135116
-0.0683368
0.153916
-0.404428
0.120116
-0.102703
0.0585239
-0.473493
0.173465
0.179703
-0.248039
0.00837776
-0.178669
0.178683
0.00370025
0.150216
-0.0278321
0.048197
0.460379
0.0123795
0.0134252
-0.00135346
0.035769
-0.237236
-0.203045
0.590765
0.166755
0.0616072
0.0744633
-0.0642333
0.0597879
-0.0804483
-0.0304111
0.165105
-0.150626
0.020462
-0.00916668
-0.105601
-0.0284531
0.0282843
0.251948
-0.0131847
-0.00979294
-0.308919
-0.0075196
0.218845
0.138646
0.176895
0.056609
0.0956776
0.0537932
0.532447
-0.00784689
0.106132
0.0409644
0.0675001
-0.108464
-0.270605
-0.195255
0.0268513
-0.221544
0.282068
)
;

boundaryField
{
    FrontBack
    {
        type            empty;
    }
    Top
    {
        type            calculated;
        value           uniform 0;
    }
    In
    {
        type            calculated;
        value           uniform -1;
    }
    Bottom
    {
        type            calculated;
        value           uniform 0;
    }
    Out
    {
        type            calculated;
        value           nonuniform List<scalar> 10(1.11104 1.0193 1.11345 1.07636 1.08337 1.07729 1.12368 1.02863 0.682645 0.68422);
    }
    circle
    {
        type            calculated;
        value           uniform 0;
    }
}


// ************************************************************************* //
