/*--------------------------------*- C++ -*----------------------------------*\
| =========                 |                                                 |
| \\      /  F ield         | OpenFOAM: The Open Source CFD Toolbox           |
|  \\    /   O peration     | Version:  2412                                  |
|   \\  /    A nd           | Website:  www.openfoam.com                      |
|    \\/     M anipulation  |                                                 |
\*---------------------------------------------------------------------------*/
FoamFile
{
    version     2.0;
    format      ascii;
    arch        "LSB;label=32;scalar=64";
    class       volScalarField;
    location    "1975.5";
    object      p;
}
// * * * * * * * * * * * * * * * * * * * * * * * * * * * * * * * * * * * * * //

dimensions      [0 2 -2 0 0 0 0];

internalField   nonuniform List<scalar> 
808
(
-0.03592869609074893
0.04510336740601088
-0.01189040219800182
0.03500753460223809
-0.3038927575528081
-0.0545946038040318
-0.01449181635603744
-0.02388613900925948
-0.2001799798545788
-0.0856860827834459
-0.009431863225245621
-0.257840256052127
-0.03056828895835951
-0.0129023939115529
-0.1217589671095481
-0.01400477811682121
-0.1403937988283425
-0.01355764861801644
-0.01248500105478427
-0.05701573428264928
-0.005828129210599902
0.1183170038099111
-0.06079641972015182
-0.07344928947134327
0.1764901147779912
-0.09930500174405946
-0.1553184611068222
-0.02030155643768397
-0.01737006457309431
-0.02603322669481514
-0.02015852481157509
-0.05992208316456532
-0.02297152062458075
-0.01683259936230652
-0.1011474084606649
0.344063282451244
-0.03850698762683295
-0.01682313578070861
-0.02332470491035954
-0.02658829132748475
-0.09193456205113164
-0.1290614918837744
-0.0507145892634288
-0.02060744209807583
-0.05482654304540277
-0.03983370186492171
-0.01238205519720936
-0.1876299433585386
-0.02762839856500999
-0.2074952701122496
-0.01605282000760129
-0.06901077967060981
-0.05943422069981982
-0.01476833855909745
-0.1902581664715675
-0.02903111715060808
-0.0106487503312145
-0.01428876202150823
-0.1024428004159127
-0.04074117486362562
-0.09623548255179995
-0.128667323809688
-0.01336350964413228
-0.1302717202120268
-0.01691557696805174
-0.05052927343187901
-0.1671063733157204
-0.03568524220820337
-0.01485224620899283
-0.446279664939572
-0.02703458369232521
-0.3082319302113586
-0.02205428564175744
-0.02032697579908948
-0.06730873920730326
-0.01732359041074725
-0.04359395293716074
-0.3593366285547316
-0.03540632542047693
0.04201941063297839
-0.09043954975826166
-0.0173181594004565
0.05677900315962221
0.04347041862567734
-0.01653000160496788
-0.05334714445693031
-0.5492184269079261
-0.2227461989922357
-0.05347665117885625
-0.111491275634891
-0.05807516910653349
-0.1349830251488396
0.04076613322055499
-0.02377926813495159
-0.06048044796277092
-0.1194068113966213
-0.03851405891546376
-0.05202494633959856
-0.1182138077084999
-0.1400638122571621
-0.05205007777935933
-0.04847900569075055
-0.05568645325153562
-0.04584856261825337
-0.05798656678784706
-0.07317245859460557
-0.04148987173786099
-0.01127704824916517
-0.04115507995354856
-0.126764838682855
-0.05134175703978959
0.08336700089560875
-0.04320375295937103
-0.00814527626935755
-0.02785549825596616
0.1801379901646738
-0.03992445145020633
-0.2737330456469229
-0.02027918979683141
-0.05491885154458807
-0.02678361751118453
-0.0477679339488867
0.01254050584660089
-0.05014508638265548
-0.0339700034992806
-0.2141258793256503
-0.04293831464756787
-0.005139637863869544
-0.07778987074744462
-0.06748204195906363
-0.1467812581117591
-0.02090604317333556
-0.07659151745469103
-0.0410944432622201
-0.02271856971555423
-0.01666673519569929
-0.006446795613428938
-0.007354915729424381
-0.05321710630371619
-0.05103067935971799
-0.2097878649399557
-0.05816767690233322
-0.00858565745592991
-0.02282412598622094
-0.1447367227917309
-0.002418175401805766
-0.07783472705546751
-0.02376264130257644
-0.00117709841225497
-0.0105025189858698
-0.03396084994496032
0.09557658925996328
-0.03986254723061734
0.2527423787356013
-0.2658244951346097
-0.1302376654841179
-0.0370976920766453
-0.09123485940738461
-0.009221619706589086
-0.1116764804803492
-0.1863722555403312
-0.2148701164742122
-0.1828158294700831
0.05532735636593251
-0.06176313839090957
-0.02028030706172603
-0.06800611364666785
-0.1717293241943203
-0.02395888457766249
-0.01848509896443198
-0.05338398965126104
-0.01799464940062504
-0.005933272104400394
-0.1105047260671101
-0.02273770081983651
-0.04671232746811552
-0.06871489493406847
-0.163922247133948
-0.03377672553909709
-0.396493657381692
-0.0178003973796145
-0.2223361054988827
-0.04552298101195625
0.03053972508531991
-0.1053026211234677
-0.0141077867845663
-0.04152440350117041
-0.1057299978472871
-0.01768185638233305
-0.09703685819883678
-0.2055698156764655
-0.07303535853125122
-0.02368963110601511
-0.04991898620474293
-0.04390892135872138
-0.2043624765293494
-0.02182498947351108
-0.01894289312199756
-0.01137356228910753
-0.05454031534882409
-0.05211242951894791
-0.02239375165353837
-0.02086548271771373
-0.2480684735092635
0.1280336302725041
-0.2004203301338645
-0.2080727671617855
-0.01179093814167869
-0.01162881675898554
-0.06775825891752014
-0.009520280063152399
-0.515288000433492
-0.1222442794241396
-0.01892047384041465
-0.001220904729522153
-0.02432498882464781
-0.2873982586648429
-0.2737937454726209
-0.007071032390521621
-0.01761121722950672
-0.002012298145177509
-0.3442675677177953
-0.02824878921155135
-0.02914004548602116
-0.01249313176397168
-0.01979524413366402
0.05107568169177249
-0.1078936094677381
-0.01382332203385348
-0.02072993335988115
-0.04288853335300206
-0.01818817563363526
-0.01612338591061371
-0.02336268714778574
-0.06683506434392268
-0.01188394499677547
-0.01908238190070219
-0.008510815632573318
-0.0007950056380170757
-0.02957292320442907
-0.001545364490781553
-0.002304387120250798
-0.006084030070015961
-0.02562851245489431
-0.007995679749445993
0.00155703033129851
-0.004178245114522503
0.00117182647881454
0.002529841998927289
-0.008579649644289011
-0.1428503562900731
-0.003034414399432527
-0.001357221245360674
-0.04850360175292776
-0.02152432400709048
-0.0249579805583087
-0.01439140208470182
-0.006091950909620119
-0.02085867687802458
-0.03729803055680868
-0.01396593207652745
-0.01282417604851289
-0.01190424843849372
0.006953134500887378
-0.01029335672482842
-0.01193870251647062
-0.01129950989543788
-0.01081440182190788
-0.01009730987217441
-0.01156484341458522
-0.01415442580843642
-0.3116658868561971
0.06109316117301892
-0.01547191948518117
-0.01650807640108991
-0.01309324389164752
-0.01229880604789337
-0.008784960850553089
-0.09775419453756591
0.009158486973352697
-0.01371847338657398
-0.01476280914443853
-0.01081052769724722
-0.05337088028088832
-0.009924830547827711
-0.01382775699752867
-0.009333782119110966
-0.0005961143009517428
-0.00977562797955024
-0.0111731871785245
-0.0249308829567733
-0.01623680954110038
-0.01186745904209201
-0.01335376138773276
-0.007743889850699339
-0.0127813748721252
-0.01166803154168215
-0.05713799967461971
-0.01297315513630417
-0.01132276697316199
-0.008668325620119918
-0.01485031117744735
-0.01394946421668858
-0.01572789188150531
-1.379937260910997
-0.0981771864428831
-0.01322790573932168
0.02355001738625584
-0.1657135756580207
-0.09266564124983064
-0.0113829879354115
-0.01405236634351597
-0.2543217678817176
-0.03091134553746128
-0.02054067299942063
-0.01084973622259475
-0.01960997697762275
-0.01092684040681905
-0.03069281101423579
-0.4160812719715608
-0.01234130547423435
-0.01410367336627881
-0.004916813780864192
-0.01065721460441587
-0.009801773232804503
-0.01437042537663876
-0.008942308568670386
-0.026046423060434
-0.01129697680440913
-0.1617418877268537
0.01716317722441168
-0.007764013277628991
0.00311191546296718
0.01337125235246673
-0.04718766562205544
0.03000467251835817
-0.01293792470004953
-0.1357942432207475
0.2819866177662593
-0.007225140624762823
-0.01320044130693772
-0.008455044576548597
-0.0330404129150472
-0.122168457473783
-0.01287593852464775
-0.01239819692544075
-0.01685228193100057
-0.01362308164955888
-0.04090255347020006
-0.2136377310735154
-0.01151545736936378
-0.04104637968700494
-0.04003960683238412
-0.1649058998242095
-0.1658951908010206
-0.1397609560972154
-0.2545723775446134
-0.00736818996525589
-0.02133583388208738
-0.01421111844075005
-0.01260500832498896
-0.03277608993477227
-0.02439343935234422
-0.01451552959410752
-0.01502710398628164
-1.083254095389218
-0.005815488241261376
-0.0136769665642121
-0.01850001483432986
-0.02025951550381783
0.001591209294134604
-0.01419785332542567
-0.02794897163399847
-0.1635599585153817
-0.01358934454307477
-0.02229565533539143
-0.01378966848899256
0.001050988263769182
-0.1796182618540651
-0.01337270531712909
-0.1411576023456923
-0.01613402611805843
0.008314781381393709
-0.01464665487783323
-0.02301770442457598
-0.01559783416373651
0.004938526397404134
-0.2794077596844378
-0.02540655961510757
-0.01593098907425576
-0.003143310484916088
-0.009277063802665159
-0.03067102494541009
-0.0144372932557906
-0.02031231541345252
-0.02144996876715083
0.01316770510688249
-0.1012745806596012
-0.02221023438350569
0.009153659894129558
-0.05073162052387858
0.1576815402811265
-0.1025945002820033
-0.3219446692801584
-0.03076437657020258
-0.02534314929034183
0.148985776870121
0.08324440209587011
-0.003293302046177244
0.04923205705833607
-0.01570063226677599
-0.01471618571775064
0.002182738252029005
0.012037283068545
-0.06725079477503766
-0.005817992591940179
-0.05778576777494582
-0.022108901390504
-0.01572189393611971
-0.03653213303759006
-0.03291533943086002
-0.006638163841228972
-0.01506497017431971
-0.03942462811108814
0.03777146693844833
-0.03890575997940346
-0.01357638735481301
-0.1159478264515726
-0.0321196841698187
-0.03838625301802293
-0.6786097572573938
0.01938169748790442
-0.01091354079626333
-0.00537402247779146
0.1589786432096893
-0.08322693108048984
-0.03486141523184095
-0.2476477858762607
-0.01675509407731283
-0.01665854553723327
0.06171295501974166
-0.1852695406589202
-0.2273470906566715
-0.1990535693213581
-0.6878280440604375
0.004191064601479916
-0.01864434166547233
-0.01682689484031245
-0.07785962550461173
0.1176449149300187
-0.02099910631005347
-0.2441674842734454
-0.03483276808886506
-0.006430574208331082
0.2772067923270832
-0.0113259564248503
-0.09409361870686017
-0.1484967400644814
-0.004526183183660834
-0.04027648154987544
-0.04846393063078629
-0.2069223590857421
-0.008897378641873888
-0.04239052028593068
-0.002454462830392508
-0.5520746533803198
-0.2004806870775222
-0.1753086167770868
-0.02263447757418965
-0.006773636222314554
-0.05972215126299514
-0.05844423554522088
-0.01456401310791866
-0.06729984082776393
0.002972124557522302
-0.01845069372758607
-0.09495054594349883
-0.2661401775119243
-0.007406911756398031
-0.02648050755034277
-0.02217822292580077
-0.07396275101941104
-0.09138555884365684
-0.08753703886389243
-0.01173482386212286
-0.9292005749056983
0.1605605979208363
-0.07923815159700197
-0.2576580546944807
-0.042740446528753
-0.01051512715813014
-0.2524881188398088
-0.1831158201697508
-0.03346717699899721
-0.1283816446988353
-0.01914863761216645
0.5627581025202371
-0.02373294424650495
-0.2303661782311817
-0.02629768721941387
-0.005640560828474833
-0.01202026644752118
-1.255026245544181
-0.1834219680131237
-0.2344617717805373
0.005400044802072997
-0.03704708805887118
-0.2541438776535259
-0.06518379261991747
-0.05078914362891701
-0.1415511787154352
-0.1920453689853257
-0.06752466165101587
-1.231896786065024
-0.1422665664915994
-0.517663114470733
0.078266872259244
-0.006939908503637527
-0.02208789653639523
-0.04232404558285507
-0.04092563150462799
-0.02894324788568451
-0.1316540275418781
0.07967797895902144
-0.002591418919736331
-0.009759737569162175
-0.5823672567846468
-0.8660727976724237
-0.1868683672667159
-0.008290557466200129
-0.1386369425968534
0.0011236568763624
-0.0006249908998614528
-0.001784375019917622
-0.05988761927157719
-0.2397032186264337
-0.01342200332304457
-0.1251104006077095
-0.1552378961689793
-0.01324849876041015
-0.03607185539640285
0.02163667903145771
-0.05708610463141291
-0.06940666350138319
-0.5045135003333847
-0.2393346298356449
-0.08108605938173388
-0.07217348638836703
-0.02000552037019265
-0.1241656411835182
-0.1519985566480716
-0.07444428104968195
0.023447549745805
-0.08403889987732918
-0.04776823650561578
-0.01490311212116793
-0.1065929463497819
-0.2712748263117803
-0.05644449863674194
-0.01857788760674173
0.000210149809733553
-0.01001502945808837
-0.01120202398707787
-0.216009073260901
-0.0152335328313973
-0.2230488121910534
-0.01036068983824749
-0.06611155415642637
-0.003798031984698194
-0.02319606896613126
-0.3761334444892828
-0.9065145226104858
-0.01134416702904923
-1.050722414654173
-0.6154254393961569
-0.01069436252289564
-0.6551014201321778
-0.1754756964649304
-0.00587106094762414
-0.1313722447582229
-0.01696638931961181
-0.1212477005620309
-0.06770448235164925
-0.07680574064655553
-0.005108600563279475
-0.002506914556541682
-1.335337840189646
-0.01114480302468404
-0.1839138173992871
0.000470239313308807
-1.013541478117151
-1.230708467095623
-0.08199833281726757
0.02003301639350467
0.1642891366658639
-0.004652481633638797
-0.02304896863200967
-0.004201767466600075
-0.2542313843168216
0.3662101917472028
-0.04067834997185056
-0.2099311906811132
-0.0148803210592938
-0.6569958247535442
-0.07545105423331891
0.1912960168606609
-0.282469813670689
-0.0496122795130889
-0.06850002926380702
-0.01589971699620141
-0.02178510669369408
-0.5730053912211825
-0.1438735113251105
-0.08520255130003551
-0.1290773447427775
-0.5573573989340859
-0.04397123461473749
-0.9097756157603092
7.477679473312544e-06
-0.2368753600366127
-1.047016030398888
0.1685347691349834
0.2921202542012593
-0.1843046382171546
-0.1936945661566745
-0.2068708647707891
-0.06837637145925939
0.02244881883191189
0.04913746670407747
0.003692550308675346
-0.1676710937087479
0.02542719413467434
-1.353456714733927
-0.08480230405466983
-0.4719187595850541
-0.3292127918046062
-0.2023905031195047
-0.1755070131823803
-0.01690780066850308
-0.01547254299303459
-0.1076448839432102
0.1708720990141705
0.385691142803307
-0.2161434037249646
-0.1390538095085955
-0.2387180856277357
-0.06225100996226739
-0.1493642567547645
-0.1619358213327069
-0.1252201605175914
-0.1237668399088732
0.4664679624886608
-0.267572059212163
0.4309062508948431
-0.6013049378615081
0.07032896350270625
-0.2054557337342557
-0.0657949040782763
-0.07371222505831115
-0.8758063811845472
-0.2213199698751802
-0.1895743171645459
-0.3452870136654417
-0.4560587160639631
0.570684026076155
-0.2061671000089812
-0.0001062238699484115
-0.07111204097130239
0.3434648711808794
-0.03788414948352795
-0.1316878765015352
-0.1785661801959622
-0.06349992494102172
-0.0165518989359162
-0.1940478046470203
0.1933656273849711
-0.01285199762927078
-0.09579535245127467
-0.167921371258446
-0.3140354567736039
-0.3143524303540534
-0.06362789423714922
-0.01033822483395012
-0.07789883128679903
-0.6561374809767561
-0.6682353012312633
-0.3398563688983245
-0.05740455111122818
-0.05229433449294089
-0.02558907581993838
-0.06718150712656119
-0.05825279363772821
-0.3572062562007106
-0.9552519093783581
-0.01042963733320755
-0.08249953444403699
-1.135289063285388
-1.029214014484117
-0.1042585315331615
-0.03814218976575705
-0.07032583905550986
0.3907475142696229
-0.3452616412867764
-0.05034307377255495
-0.596720792725322
-0.1214788125380579
-0.2539895098844062
-0.2093735926428512
0.4742844769092328
-0.6257285225185358
0.07299496236000225
-0.02969637556852819
-0.5556755811082033
-0.05106928085788012
-0.3601269424684817
0.1065969375643614
-0.1893578041880037
-0.05949239786179588
-0.1390373438134345
-0.36322037773696
-0.08859579130429776
0.5142568483046889
0.08510747220830865
0.4710705050380876
-0.1041851109604609
-0.1988125437976329
-0.5240348852651512
-0.1300737113324618
0.02722663726353002
-0.05316547622820111
0.1030756537128749
-0.3081626717059282
0.236200639387475
0.008893451362693166
-0.00333727296422183
-0.5148827835353941
-0.1863833983405793
-0.08179165158821113
0.581511906960269
0.1382474759115686
0.3459613573848992
0.2258475963172919
-0.5597297357172585
-0.2031445972336146
-0.2216565110325102
-0.2362314741587274
-0.05993900788829152
-0.6963051836218169
-0.1945996947083435
0.3063650519765704
-0.2016857680422779
-0.01120653441825119
-0.1728606536000406
-0.009101666028192224
-0.1560817388303857
-0.4328247420078506
-0.07671937064578956
-0.1974522310625832
-0.07099007901147024
-0.08718507424230471
-0.1466777807184839
-0.07342685595841002
-0.456833967603328
-0.4162933927588297
-0.02651189427479379
-0.07391036449546184
0.3269942618747603
-0.2456644276847004
-0.1859496682298105
0.5255950311132322
-0.2090917803599855
0.01751533497896329
-0.4476182456867095
0.04643440433035716
-0.0625123194959924
-0.1476838774341868
-0.5804860008991088
0.1619191802374856
-0.5823701712700472
-0.532195614451225
-0.1062969474274905
-0.50547715275915
-0.03754168456583337
-0.1387630267627009
-0.4086265444498132
-0.01634236014537933
0.2863840420823275
0.4895009650596901
-0.1575424079190125
-0.008545508657492715
-0.07369751816388179
0.5253543342735026
-0.03359357515142355
-0.4368766147190847
-0.03292887871695591
0.4604982406242129
-0.01440920456527378
-0.5411346482742154
-0.2465047835685261
0.1756527514313442
-0.3085884208059535
-0.1776434775099567
0.0518153191288792
0.03400461738598055
0.05396643621990595
-0.2973797124202699
-0.1574995202628311
0.4127521046684666
)
;

boundaryField
{
    FrontBack
    {
        type            empty;
    }
    Top
    {
        type            zeroGradient;
    }
    In
    {
        type            zeroGradient;
    }
    Bottom
    {
        type            zeroGradient;
    }
    Out
    {
        type            fixedValue;
        value           uniform 0;
    }
    circle
    {
        type            zeroGradient;
    }
}


// ************************************************************************* //
