/*--------------------------------*- C++ -*----------------------------------*\
| =========                 |                                                 |
| \\      /  F ield         | OpenFOAM: The Open Source CFD Toolbox           |
|  \\    /   O peration     | Version:  2412                                  |
|   \\  /    A nd           | Website:  www.openfoam.com                      |
|    \\/     M anipulation  |                                                 |
\*---------------------------------------------------------------------------*/
FoamFile
{
    version     2.0;
    format      ascii;
    arch        "LSB;label=32;scalar=64";
    class       volScalarField;
    location    "979.5";
    object      p;
}
// * * * * * * * * * * * * * * * * * * * * * * * * * * * * * * * * * * * * * //

dimensions      [0 2 -2 0 0 0 0];

internalField   nonuniform List<scalar> 
808
(
-0.03545591361857307
0.04506205874722118
-0.01194984161631687
0.03549057373475258
-0.3023935243797637
-0.05458419046020427
-0.01448469065596266
-0.02381386987982442
-0.1990945233349579
-0.08512078846505959
-0.009303714410591713
-0.2565872729766311
-0.03053221512563093
-0.01292124697080473
-0.1229858205029475
-0.01397084127317089
-0.1416916017654728
-0.01353907706725388
-0.01267386512577459
-0.05665964940516813
-0.005952544856610079
0.1180142864832401
-0.06115456403303102
-0.07292503847076816
0.1760334852068811
-0.0992633667777149
-0.1543958836778086
-0.02031486556790977
-0.01739980076260653
-0.02606405126045231
-0.02016164279281989
-0.05951581830488671
-0.02301083644417896
-0.0168496888285409
-0.1005202898794209
0.3443355837983826
-0.03858675934332076
-0.01688082142622756
-0.02327270226834348
-0.02660821786933164
-0.09135388986963131
-0.1282277923902038
-0.05093337409135311
-0.02056956144531839
-0.0550961511615309
-0.0402115811205682
-0.01239596773611167
-0.1865310562932331
-0.02752793809396741
-0.2063344993973833
-0.01600467681641889
-0.06848156379039783
-0.05970947797253371
-0.0149847778983438
-0.1911510223160699
-0.02892227362705576
-0.01076460763896098
-0.01465333801100854
-0.1017652410168632
-0.04054724598114038
-0.09601696322136431
-0.1278175475958898
-0.01342146276205109
-0.1292235201855725
-0.01684446631422741
-0.05074615261480865
-0.1654854801391886
-0.0356881407373224
-0.01487458608503847
-0.4444699398732943
-0.02698717021287045
-0.306631322565755
-0.02201467092166
-0.02025213284310494
-0.06628282335790832
-0.01734452198340122
-0.04337167197794601
-0.3611381270116309
-0.03540351663030945
0.04128820165295252
-0.09080963347860381
-0.0173013266719782
0.05678333984741397
0.04400836165442251
-0.01656858162928073
-0.05307524872476485
-0.5471089356562918
-0.2238320389095281
-0.05313668975834689
-0.1118511668583894
-0.05764990296124893
-0.1341023090220838
0.04034687712642571
-0.02421822370494666
-0.06076801563042615
-0.1178748990488369
-0.03850627513223152
-0.05211910283316713
-0.1174257351605132
-0.1387015510349367
-0.05204664477829358
-0.04823408543031515
-0.05534134038656557
-0.04562717359958259
-0.05787411233650881
-0.07348387198281857
-0.04157337851470101
-0.01131830741235115
-0.04100270088573459
-0.1258588835262124
-0.05117532839171771
0.08296216716085782
-0.04306808750204718
-0.008347121763573936
-0.02786595084871848
0.1803396033517934
-0.03967005643769501
-0.2722407991340372
-0.020231267361615
-0.05453768883881592
-0.02713692343653003
-0.047930930602954
0.0127455967478498
-0.04971474917067679
-0.0343857668703373
-0.2152524371446174
-0.0423887381469984
-0.005268144874054228
-0.07719432547488382
-0.06777899655036118
-0.1442998592623313
-0.02081649368791775
-0.07613989046300478
-0.04163377484138883
-0.02267433286245917
-0.01644087990286274
-0.00648959958026265
-0.007295912621692901
-0.05307024549170229
-0.05071078711300204
-0.2127503902331551
-0.05768237171167863
-0.008563386153908855
-0.02275387092241896
-0.1454519855514665
-0.002669820992875664
-0.07736598267405063
-0.02320587225442262
-0.0009886219819196589
-0.0107676453642802
-0.03387194611913758
0.09508205015363587
-0.03956388560328374
0.2524962102163141
-0.2683269636532933
-0.1308064654070172
-0.03708641105628437
-0.09107828703260942
-0.009350750661228577
-0.1121418902176872
-0.1850052881457281
-0.2172156363364191
-0.1805135971574003
0.05557511068641133
-0.0620165995385464
-0.02025199422479467
-0.06773829552313806
-0.1689004820777232
-0.02390014185927787
-0.01834795375623319
-0.05298799289046113
-0.01846146269701645
-0.006211228119849894
-0.109489290671847
-0.02271649430422537
-0.0462401686519222
-0.06902945070618161
-0.1628774730006592
-0.03374484253551115
-0.3947137698993148
-0.01777578617427879
-0.2232781847496553
-0.04520875370336634
0.03106450646712593
-0.1057883997391991
-0.01445938378320006
-0.04170189746298937
-0.1050673301110516
-0.01761036887682046
-0.09641333285873117
-0.2068928065543365
-0.07263782748472319
-0.02364769056777375
-0.04938172263506481
-0.04362843645646504
-0.2048418326720197
-0.02179791259076859
-0.0189242644019475
-0.01135568550246594
-0.05497167651217799
-0.0516912456864455
-0.02231661746628085
-0.02089224456380681
-0.2466880138541293
0.1278090976547244
-0.2016767772149064
-0.2047707056569315
-0.01180542831168679
-0.01158371627810023
-0.06763560271760394
-0.009720345287281903
-0.5130419309529849
-0.1207075607442222
-0.01889179227382555
-0.0007711850882448396
-0.02429544228844075
-0.2857250667736592
-0.2752087188716943
-0.007020126052607158
-0.01736334029942978
-0.001676133295950204
-0.3458064691051721
-0.02820973928374637
-0.02909306161209846
-0.01248009248236112
-0.0197965634759096
0.05071036134913471
-0.1073539513635331
-0.01396063006054724
-0.0207308134048855
-0.04328452662064398
-0.01817026787416795
-0.01609349698352554
-0.02337162250774682
-0.06700560368225182
-0.01179593423228183
-0.01908797796353937
-0.008504037052302816
-0.0006997228890217962
-0.02957903088920276
-0.001583121453084074
-0.002274609785075189
-0.006006353489751461
-0.02563569324020813
-0.007965368716777707
0.00150901156574205
-0.004231363306568607
0.001251168516255333
0.00255596231198703
-0.00873237325282691
-0.1429904832654733
-0.003022148643915005
-0.001525548940021859
-0.04860879696445858
-0.02157238849670874
-0.02486811598606283
-0.01437532268478131
-0.006118922359636612
-0.02082147764016838
-0.03778830566686561
-0.01393813071513337
-0.01287505086664274
-0.01174011415407823
0.007691891386879766
-0.01032430978156801
-0.01175676800023194
-0.01138384480559638
-0.01085340187449485
-0.01021306289267152
-0.01187124519284595
-0.01410870501893993
-0.3103190593852949
0.06066817911229253
-0.01566443824084694
-0.01590848592870994
-0.01309642514311515
-0.01207615701960036
-0.008827873246182366
-0.09706388570517843
0.01010492805617451
-0.01360141069253558
-0.01460361915741337
-0.01074709246991894
-0.0529241686576423
-0.01014901901703424
-0.01368864202877752
-0.009637902148913803
-0.0003048993450073265
-0.01009219959370133
-0.01166378616760854
-0.02490194328773046
-0.0160306698525446
-0.01182447273793656
-0.01342927718720313
-0.007367741065665088
-0.01244607482644584
-0.01179065737488037
-0.05753841760549309
-0.01310600966149551
-0.01120512920780855
-0.008724145948127142
-0.01484171534047159
-0.0138091645773933
-0.01567761675629527
-1.375855157653026
-0.0985371563912537
-0.01341626996183776
0.02450515263101064
-0.1645600164327246
-0.09206794432141349
-0.01154749784040278
-0.01401879737932431
-0.2481193158068336
-0.03039235973934949
-0.01995895485731842
-0.01094098754032797
-0.01956271246515081
-0.01061870331682273
-0.03070829338493555
-0.414349147072149
-0.01244612510170675
-0.01410805226854707
-0.004904002522819492
-0.01090342547637558
-0.01023124783204139
-0.01435363159869205
-0.008058305575775892
-0.0260278822338619
-0.01140286414523293
-0.1645317097938115
0.01696247354053168
-0.007709730329204473
0.003283945982661118
0.01356613947226531
-0.04735058043457386
0.02958873922918278
-0.01311115158263087
-0.1348002684284607
0.2822169481653296
-0.007150395758820123
-0.01333863420130588
-0.008434536251283429
-0.03271911558109097
-0.1227651494974429
-0.01253876737347301
-0.01237607262568184
-0.01663204393816052
-0.0136431282860689
-0.04089643936515852
-0.2148665230781386
-0.01115330182665337
-0.04145668440216289
-0.03994618901910586
-0.1667784789076881
-0.1648168859938055
-0.1357751798655537
-0.2458218678951044
-0.00712604078047973
-0.02130894927793802
-0.01396821522302484
-0.012461639399365
-0.03280926166145093
-0.02441674513716559
-0.01451729848628052
-0.0149833489935232
-1.079794261616159
-0.006246587167121003
-0.01359762420251204
-0.01849608991035433
-0.0222694685157699
0.0004633190243651963
-0.01447231182730848
-0.02744724290039059
-0.1586472944979571
-0.0135556177974827
-0.02241443007819018
-0.01373054228513876
0.0001002428270141265
-0.1793785019769883
-0.01330283966614221
-0.1414361654352146
-0.01620687079604512
0.006436723485138547
-0.01467708651727065
-0.02305987323517979
-0.01544683330743779
0.005096224263515025
-0.2778820976460663
-0.02543800529160717
-0.0158016391441153
-0.0009676150072114091
-0.009300523680838219
-0.03056096877452054
-0.0144482830461982
-0.0202122425388995
-0.02146536226715822
0.01491507969006959
-0.100529303042908
-0.02216120867132084
0.009149081428730792
-0.05216900615973457
0.1621028388679676
-0.1032907909416718
-0.3201860205476513
-0.03112306109667316
-0.02529031451252354
0.1496543465240613
0.07956081273248912
-0.003402913397157901
0.04870944495844452
-0.01566754658295306
-0.01454706054832652
0.002196772618627651
0.01150860556959435
-0.06680503136501695
-0.006127435938837922
-0.05755810973786944
-0.02199481534728262
-0.01573254589294459
-0.03653850563682184
-0.0329115770066391
-0.006636096390848069
-0.01513525517457437
-0.03888788187407827
0.03797403112237699
-0.03890756303553369
-0.01368599273628705
-0.1165771200857219
-0.03217189402736667
-0.03852206069106088
-0.6761309314040561
0.02070989629712523
-0.01073291009699568
-0.00553665384334181
0.158328566583565
-0.08463561344220331
-0.03485513739026024
-0.2463982866770939
-0.01685337832253051
-0.01664096959929535
0.06568165708008931
-0.1838539593496304
-0.2301202660944433
-0.1976604816447183
-0.6853029176121078
0.002253732299372888
-0.01963617797037164
-0.01717039278938886
-0.07912451904459544
0.1179028866533202
-0.02068889244389995
-0.2376830839871762
-0.03491098819631145
-0.006427938109416548
0.2784748463429267
-0.01131710999743227
-0.09342028261252837
-0.1494146837821791
-0.003820102895350818
-0.04034499274483378
-0.05054483620919409
-0.2058129301120082
-0.008749962680351268
-0.0418926676151626
-0.00241561776173854
-0.5499666359158122
-0.1984556453716661
-0.1761048772048634
-0.02260951985494054
-0.006897309697519035
-0.06009144665959932
-0.05812201228464739
-0.01389675782926019
-0.06764154417724305
0.003703771838699674
-0.01842771435297097
-0.09433962375134616
-0.2679740276563978
-0.007116377255551626
-0.02657111827224416
-0.02215715101422373
-0.07431104718593558
-0.09090416653636609
-0.08786688312358666
-0.01193237002250982
-0.9257816507927249
0.161050261366955
-0.07885738692851685
-0.2552027648255057
-0.0425778576632895
-0.01047664824126365
-0.2546164731622839
-0.186145514603683
-0.03293092929122099
-0.128573742887411
-0.01968396943144255
0.5631914828527282
-0.02382987036258218
-0.2291932548786177
-0.02617714835862047
-0.005994878234509267
-0.01212978915109392
-1.251148095976681
-0.182101234880004
-0.2326419932584371
0.005345877620885091
-0.03765640033348326
-0.2533748237292628
-0.06543856150778503
-0.0509143897276997
-0.142716572866978
-0.1887507719517717
-0.06789301267147531
-1.22799146299595
-0.1427464980228996
-0.5210770768761376
0.07827526383438285
-0.006637782484649239
-0.02201590644763329
-0.04269870771132016
-0.04032297698422829
-0.02894334843692172
-0.1307807921107236
0.0801329699704221
-0.002172958354180565
-0.00984469974659603
-0.5798611386513862
-0.8629585661691809
-0.1846934625150829
-0.008480213791334313
-0.138636260484079
0.0009769485860961237
-0.0002958278572565884
-0.001637772874613099
-0.06006613607822498
-0.2382844950460613
-0.01338443143412163
-0.1246456381977486
-0.1561610783917708
-0.013242426849822
-0.03588923809372877
0.02297133201411792
-0.05727599131608002
-0.0698177930764242
-0.502479183320565
-0.2293472514868316
-0.08065262330714255
-0.07282097395738198
-0.01999360127981877
-0.1247222303292088
-0.1521951505558461
-0.07445608744199769
0.02247213006508568
-0.08456557443983666
-0.0482068322781979
-0.01489081546591689
-0.1058845365364988
-0.2728169521628359
-0.05698870396853984
-0.01854558714358982
-0.0005376801052825922
-0.01000994233787986
-0.01116563034542688
-0.2175200643066783
-0.01535826325733187
-0.2215241023371678
-0.01031147687667665
-0.06792356338100593
-0.003982668190647254
-0.02320874714844022
-0.3786499079614156
-0.9109983461273247
-0.01134730346089058
-1.047361950469383
-0.6130025287485155
-0.01063489673158325
-0.6584322605467666
-0.1779938312674323
-0.006026797984052664
-0.130755689731065
-0.01679754284838427
-0.1221537108923125
-0.06712109131786317
-0.07863080017683304
-0.005102950245491208
-0.002276704538333112
-1.339642578962148
-0.0112581249224511
-0.1806653380212883
0.0004922097609744082
-1.009907252138361
-1.235456917806327
-0.08118496831872009
0.01907354462337337
0.1643763657825082
-0.00454271200468339
-0.0230604574202235
-0.004174493463433665
-0.2527859876991418
0.3660667031491806
-0.04082237842104611
-0.2108335287233794
-0.01483526081455426
-0.6537042877523986
-0.07475404351205987
0.1904598298288639
-0.2846168208997524
-0.04967877516872194
-0.06870848259096708
-0.01587109764042976
-0.02179097813790225
-0.5764588257049477
-0.1448740333811023
-0.08584426472385764
-0.1284770602425657
-0.5549995189692521
-0.04406378272367813
-0.9065755694791831
0.0003074432228387202
-0.2381861951656205
-1.050846003348188
0.166430345212612
0.2910370424389781
-0.1846663677968849
-0.1922237830572605
-0.2093252014818385
-0.06794011760704305
0.02189443470329357
0.04701942318937541
0.003087570514943593
-0.1679725260558333
0.02534418477617433
-1.358002211448554
-0.08514601088144967
-0.4738367361776981
-0.331074790471662
-0.2041396990504969
-0.1767101372625028
-0.0168990323106067
-0.01548019638690445
-0.1075204983855714
0.1722889203411958
0.3852451783025694
-0.2097355665331706
-0.1387560108410469
-0.2331840454372986
-0.06239001450824194
-0.1496174932968274
-0.1634298837264865
-0.1256721047598733
-0.1244302914820464
0.4652103834596105
-0.2695986503893327
0.4321518105499347
-0.598997250146981
0.07108175088591141
-0.2032718454880852
-0.06607590683851047
-0.07469957680817518
-0.8798184570780374
-0.2186478969692098
-0.1906910048646289
-0.3469577955008925
-0.4580564118812584
0.5704859952955813
-0.208901038715395
0.0005208213750935205
-0.07022674059310008
0.3444310431527622
-0.0372332958905052
-0.1327774957389343
-0.1795500265572887
-0.06342875326899808
-0.01656242437345509
-0.1958944166847999
0.1952983079427844
-0.01291552926351356
-0.09625220657119413
-0.1700679007868061
-0.3166326786305943
-0.3128879260116271
-0.064545981028075
-0.01032568392018329
-0.0795955646590487
-0.6531705914801531
-0.6712978268193285
-0.338143918360481
-0.05761409918227277
-0.05170000863658433
-0.02555782112927494
-0.06769040146659307
-0.05755369893751334
-0.3589943496037377
-0.9587111004251028
-0.0106719349760103
-0.0829543459625703
-1.139152930635889
-1.033130691960837
-0.106080472729692
-0.03891033324579275
-0.0698207690398793
0.3897592355730171
-0.3435881506842007
-0.04967892099523753
-0.5992366782751374
-0.1217281843084176
-0.2526226932805046
-0.2108936395883148
0.473905041736197
-0.6284610556727774
0.07446418202160932
-0.02961409489051538
-0.5585069072263819
-0.05174729050766437
-0.3623254444456739
0.1077628197509011
-0.1901633882208658
-0.05974525006210234
-0.1388677762440687
-0.3610835072380165
-0.08677665481526432
0.5150008753964376
0.08562292289076572
0.4703797659833745
-0.1001944853449583
-0.2004746378389632
-0.5218165134231156
-0.1315983580972624
0.02659666031063384
-0.05354613251511121
0.1019616183947522
-0.3055823147252967
0.2362938156900828
0.007731894701731007
-0.003413418790729008
-0.5127734728066968
-0.185228704910549
-0.0804308066249306
0.5816184313625739
0.1386374081358588
0.3444901819683751
0.2257334877665127
-0.5622245339169863
-0.1964501093367907
-0.2236646266809222
-0.2311426392221049
-0.06028849473023574
-0.6937430323999011
-0.1927609409031113
0.3056725446555748
-0.1954198130350815
-0.01132387377223431
-0.1703845631870371
-0.009614109072075404
-0.157224726986779
-0.435306821214657
-0.07644592669771293
-0.2001908540562988
-0.07099434449475449
-0.08683738195832481
-0.1460481647987145
-0.07307056851721919
-0.4547586281634165
-0.4142085412797691
-0.02547436308748116
-0.07469687214606574
0.328477979544457
-0.2468830059805912
-0.1844117204471724
0.5248781392203404
-0.2077996968223699
0.01867351428853888
-0.4494725247968063
0.04846611541393807
-0.06188705476320753
-0.142874511494143
-0.5831194557357204
0.1604499434957343
-0.5800435532278618
-0.534476892851197
-0.1047960152648616
-0.5077684295909082
-0.03740790333460476
-0.1388455255286173
-0.4108033229401103
-0.01629730270739169
0.2871437186435324
0.4897018321413198
-0.1589285913427861
-0.007816821764846708
-0.0770837215264919
0.5252628257100653
-0.03345031461663299
-0.4387637627576729
-0.03289645259937338
0.4611504084661057
-0.01499443023585612
-0.5433424783919591
-0.2482446994700292
0.1765217465535193
-0.3100354268142735
-0.1787876625671312
0.05033683863141968
0.03347538158710179
0.05461721157363292
-0.2987975146170345
-0.1585218598179706
0.4127893892785922
)
;

boundaryField
{
    FrontBack
    {
        type            empty;
    }
    Top
    {
        type            zeroGradient;
    }
    In
    {
        type            zeroGradient;
    }
    Bottom
    {
        type            zeroGradient;
    }
    Out
    {
        type            fixedValue;
        value           uniform 0;
    }
    circle
    {
        type            zeroGradient;
    }
}


// ************************************************************************* //
