/*--------------------------------*- C++ -*----------------------------------*\
| =========                 |                                                 |
| \\      /  F ield         | OpenFOAM: The Open Source CFD Toolbox           |
|  \\    /   O peration     | Version:  2412                                  |
|   \\  /    A nd           | Website:  www.openfoam.com                      |
|    \\/     M anipulation  |                                                 |
\*---------------------------------------------------------------------------*/
FoamFile
{
    version     2.0;
    format      ascii;
    arch        "LSB;label=32;scalar=64";
    class       volScalarField;
    location    "553";
    object      p;
}
// * * * * * * * * * * * * * * * * * * * * * * * * * * * * * * * * * * * * * //

dimensions      [0 2 -2 0 0 0 0];

internalField   nonuniform List<scalar> 
808
(
-0.03598790743049145
0.04498421080853868
-0.01170015552033423
0.03494477189355805
-0.3039737828503918
-0.05473971182530911
-0.01462279446095779
-0.02396688349242843
-0.2002995456166318
-0.08578711028219123
-0.009733911521085456
-0.2579647628748012
-0.030598070184586
-0.01302978183511303
-0.1205587368752548
-0.01405826018743086
-0.138654840153457
-0.01358903222153703
-0.01236762450705099
-0.05703617455534503
-0.006029737911736091
0.1183043794102935
-0.06087883479205135
-0.07351628427903451
0.1765535978461214
-0.09953203167354054
-0.1554255820326193
-0.02030953570665716
-0.0173631571641212
-0.02594848959023319
-0.02018209282140899
-0.05995903499778834
-0.02290705286480604
-0.01682204781111147
-0.1013502452357807
0.3439146769476959
-0.03862365081747968
-0.01671330493934203
-0.02329485971799534
-0.0265645151760429
-0.09209123703951164
-0.1292229221110011
-0.05082601320706388
-0.02073414042273912
-0.05446332461870905
-0.03990680540578401
-0.01231500061075827
-0.1878058729150298
-0.02761399237601683
-0.2076744881537899
-0.01622479687707177
-0.06907695204872855
-0.05953762027842543
-0.01451906779080166
-0.1903522508851746
-0.02899858775638929
-0.01053414384975776
-0.01392945965275937
-0.1025496534674078
-0.04071333090229243
-0.09954822058170115
-0.1287668681738234
-0.01347295003101809
-0.130921578319279
-0.01705456374390533
-0.0506350423265933
-0.1679603857617949
-0.03564697616758655
-0.01483585481108673
-0.4463824907491627
-0.02698464467384682
-0.3079666163379315
-0.02202778126713264
-0.02049213084107474
-0.06761251774033747
-0.01736826611953949
-0.04357040454549363
-0.3587786464134427
-0.03553914297022039
0.04215774025784902
-0.09034031725462537
-0.0172797306208645
0.05682366489206136
0.04334016831610917
-0.01658707598853132
-0.05334886150828885
-0.5491740297411681
-0.2227844729687126
-0.05348576370446023
-0.1114791852441227
-0.05811893884796548
-0.1352009838560198
0.04072917603657069
-0.02383272886715644
-0.06058468636458191
-0.1210590992849909
-0.03848345688505516
-0.05184609030555021
-0.1184347082585171
-0.1411704345462329
-0.05217642570300429
-0.04844987610226437
-0.0557094276357983
-0.04582711417122625
-0.05798202298965523
-0.07326522271859316
-0.0410761750161091
-0.01112876080488325
-0.04111188941007402
-0.1268850195236282
-0.05128747422798869
0.0833733664936535
-0.04316341018256774
-0.007947947531754434
-0.02780933679650347
0.1800536220530015
-0.0399125868396132
-0.2737134645891863
-0.02036450901459385
-0.05495405185845116
-0.0288448307964993
-0.04788427970416957
0.01254759214957965
-0.05019341753056957
-0.03403632165930463
-0.2140695839937843
-0.04301696318194014
-0.004950869015119156
-0.07786727373317111
-0.06757658748683502
-0.1499409734542991
-0.02101887958457918
-0.07669155154875985
-0.0411191369514874
-0.02278540871897785
-0.01665058980917908
-0.006341287857153052
-0.007460270722069599
-0.05318348663359201
-0.05103304600601963
-0.2079130993350244
-0.05822348475951415
-0.008559063119542132
-0.02278370287727842
-0.1448366064977882
-0.00218507542364472
-0.07789605357460093
-0.02386373503990058
-0.001163036930311971
-0.01021981020981515
-0.03391768952267118
0.09561135042382761
-0.03987593662966885
0.2527402341055499
-0.2623811965067573
-0.1303460745927542
-0.03721733752492742
-0.09126209907060023
-0.009099634107866586
-0.1117695871304636
-0.1843513291832354
-0.2127210572522354
-0.1842502262742283
0.0553105152726593
-0.06186409920558458
-0.0203192188571242
-0.06800460544807901
-0.1744272303077649
-0.02391964746029406
-0.01861675611697811
-0.05341448442390961
-0.0180329850435841
-0.005977549519049644
-0.1107485378287121
-0.02285382865904995
-0.04677213658583049
-0.06881032547739316
-0.1641899944584132
-0.03373107455447678
-0.3960151206204795
-0.01780465974609321
-0.2224162426232543
-0.04552837415886851
0.03043121251995335
-0.1047881358779372
-0.01419291754045675
-0.04163535882539457
-0.1061994827632205
-0.01773898321625368
-0.09736676285288655
-0.2042338933586337
-0.07314583089521952
-0.02377306142963279
-0.04998867954674961
-0.04390555896936375
-0.203205547264341
-0.02190907003953221
-0.01899840857144944
-0.01137813482132592
-0.05463024157496667
-0.05215887588797738
-0.02248275026529258
-0.02081168679453723
-0.2468109549968185
0.1280197585359179
-0.2004712109655077
-0.2076935100771677
-0.0117697195419737
-0.01161526121338629
-0.06772164845354059
-0.00946273030299332
-0.5132830218734937
-0.1246495834789807
-0.01902400390574754
-0.001562527416892329
-0.024286592079369
-0.2871679472344905
-0.2735288427314015
-0.0072072595464053
-0.01783639683541409
-0.002298796496192396
-0.3439930067392163
-0.02831234506664452
-0.02920096258281143
-0.01253414599745365
-0.01975430316745697
0.05099758261870799
-0.11193263185072
-0.01375198850208434
-0.02075002575946065
-0.04295693858472682
-0.01822382694518225
-0.01618077468776615
-0.02337136853864711
-0.06681895752792862
-0.01182608754194641
-0.0190545134439256
-0.008598184057252677
-0.000985278084232882
-0.02953313651479815
-0.001607662962706097
-0.002268607841090755
-0.006094059207323434
-0.02560486410830403
-0.008043328437943293
0.00161376538836282
-0.004120216219759274
0.001117622289488915
0.002465308578559024
-0.008527670020528563
-0.1403317206930516
-0.00302636651517885
-0.0009839981340267509
-0.0482762005622247
-0.02146025638811181
-0.02490217548700585
-0.01432345416310479
-0.006089032932218306
-0.02091775146719748
-0.03733691136487186
-0.01418086382428844
-0.01273685083375699
-0.01200595092114003
0.006114582540006044
-0.01016954243071916
-0.01231795028752707
-0.01124834769574407
-0.01070504818294811
-0.01000972437099357
-0.01121361848969397
-0.01409151878665309
-0.3093191173762526
0.06108806088474471
-0.01523935350263865
-0.01677146793444406
-0.0129729136175586
-0.01250509300303623
-0.008657338072282422
-0.09874459238623252
0.008830753213037489
-0.01391758907653328
-0.01474370515684362
-0.01083506244240183
-0.05342503654008751
-0.009392900101671903
-0.01395006581937523
-0.009147897801566631
-0.001189697579189528
-0.009757322093013474
-0.01066483869923611
-0.02489097638625288
-0.01628588426605513
-0.01202038270517961
-0.0133089028579498
-0.008482789939464407
-0.01312651792658247
-0.01141409992232925
-0.05722866403018456
-0.01290086567642213
-0.01159086142720927
-0.008714996392690761
-0.01494170160400881
-0.01410119691156163
-0.01574934169858824
-1.381471720118852
-0.09823286261095064
-0.01282028570449222
0.02260759470806332
-0.166110111785729
-0.09329763072421841
-0.01135153532081607
-0.01409303458785322
-0.2572601901052828
-0.03099176074941404
-0.02065119451978299
-0.01096667130562003
-0.01975494121025807
-0.01118995707862495
-0.03068941822593433
-0.4163272745646034
-0.01222292503841383
-0.01409653306120677
-0.004877681522721187
-0.01044623476068658
-0.00936287977025649
-0.01434336617945564
-0.009605474745275629
-0.02622081485549332
-0.01128645443299644
-0.1605157270202894
0.01737736053848354
-0.007775115682249686
0.002887075197835042
0.01276911511294193
-0.04731242038937031
0.0299564718716368
-0.0127727299302194
-0.1362708334256998
0.2818922331251373
-0.007401987021837454
-0.01312486936095691
-0.008426794756642495
-0.03330965704317317
-0.1222536414422054
-0.01322316119671128
-0.01238183306362507
-0.01706788868324557
-0.01363512775260032
-0.04097447128222929
-0.2136674326297755
-0.01144914579556096
-0.04111960964532653
-0.03991022021366557
-0.1657433137703977
-0.1643468729294817
-0.1461837164905085
-0.2595032977346827
-0.006775007571999327
-0.02130148987494278
-0.01458766609972684
-0.01285877123485882
-0.03283603637901525
-0.02438183625074048
-0.01447712425095953
-0.01505201757026115
-1.084064907541636
-0.004872028821567221
-0.01376861169817203
-0.01843115988500395
-0.01825375083266026
0.003325296424924538
-0.01395681896958467
-0.02802166550764734
-0.166814257536563
-0.01357960710761822
-0.02206127942469036
-0.01397774743405516
0.001923698127860651
-0.1790926371161834
-0.01339876375354892
-0.1438155194566954
-0.0160576326975963
0.009681638221158119
-0.01451215850571712
-0.02313026671036931
-0.01579958823713683
0.00525777289669942
-0.2784461339540496
-0.02554323321382557
-0.01612925061520166
-0.007343222564568552
-0.009448685440371541
-0.03062025610427978
-0.0143758992924867
-0.02045795363605339
-0.0213738652429948
0.0106722931287727
-0.10136834858698
-0.02215899133417986
0.009207033019092961
-0.05065034385515127
0.1573550173191111
-0.1026533400584661
-0.3226671431751186
-0.03028006024821421
-0.02540784814495927
0.1487064130658501
0.08876841775377468
-0.003275890224538658
0.05017328036131489
-0.0157405211580475
-0.01457130249078348
0.002220266596524953
0.01197297566274493
-0.06729735309161973
-0.00543672238019935
-0.05773545824301045
-0.02233746264855397
-0.01570685152611982
-0.03652252981251505
-0.03292128473304031
-0.006647931051459373
-0.01491730486493673
-0.03950371689485824
0.03655037774949755
-0.03886796294554453
-0.01351404926626683
-0.1160409533869219
-0.03193435730653571
-0.03849821960554207
-0.6791885759039885
0.01765923054174174
-0.01109921668557535
-0.005264052516142165
0.1643633243823353
-0.08554389028258597
-0.0349981581031959
-0.2478417179770843
-0.01651410794490542
-0.0166185037622394
0.06084044508983624
-0.1858153256542235
-0.2253449574044268
-0.1980143529827164
-0.6881556181117627
0.007417228579256452
-0.01797418726059232
-0.01633686072807333
-0.08027045625742972
0.1175582692314972
-0.02130244384344769
-0.2499120598819879
-0.03496431082076034
-0.006449020811663968
0.2763242746804037
-0.01124350736017293
-0.09419815423517756
-0.1484738250461231
-0.004770233674764594
-0.04040901470966097
-0.04581868398059089
-0.205647365521811
-0.008925790798348709
-0.04245538602333802
-0.002720927323971935
-0.5526299854749221
-0.2011629885908011
-0.1751888621278772
-0.02277004838568463
-0.006974401782025652
-0.05979614181096303
-0.05844639434876617
-0.01524590948391377
-0.0673864259321526
0.003146720160828616
-0.01838575582853228
-0.0956031414198551
-0.2664638476735209
-0.007983520601644317
-0.0261983951064707
-0.02211525739223485
-0.07406294241657253
-0.09145078037487168
-0.08761486398497473
-0.01145131292706564
-0.9285596458543435
0.160352839152772
-0.08036588155867465
-0.2582849595351047
-0.04271899567639462
-0.0102934844663158
-0.2493542926550203
-0.1829205094377925
-0.03355002876819427
-0.1256205387432732
-0.01849686760686376
0.5623296749198575
-0.02385103983015775
-0.2283536560333021
-0.02626604914965928
-0.005174940190380044
-0.01184438086616602
-1.257016026040728
-0.1843946199752587
-0.2348137318609538
0.005419036401796336
-0.0369118709953399
-0.2512924487651891
-0.06526793425842972
-0.05087422670545107
-0.1413095979517439
-0.1933215759978759
-0.06761811087975936
-1.232488107776579
-0.1451796412809724
-0.5189667868867623
0.07832566800138983
-0.007092036918818445
-0.02204652570772123
-0.04239923019402147
-0.04102697411591052
-0.02881339335908004
-0.1322730142691687
0.07954252171464164
-0.003361288368521769
-0.009700368480234051
-0.5810415146806565
-0.8659136228203422
-0.18692246910609
-0.008112071256408664
-0.1357558532208493
0.001021359221281873
-0.0007799061877264089
-0.001959463000589569
-0.06009258420429815
-0.2399040407100739
-0.01345332016935691
-0.1229117000347556
-0.1545061883555497
-0.0132355901971583
-0.03602091770295156
0.02169503114576175
-0.05718859317349631
-0.0695050329687105
-0.5042577558525329
-0.2471533191723139
-0.08131359596197588
-0.07220213790364904
-0.01995271679197886
-0.1212121938232435
-0.1543527628663964
-0.07593639169811661
0.02497780738455998
-0.08413981939987566
-0.04784035091262974
-0.01492717252643634
-0.1091069205106546
-0.2717259590624852
-0.05650619457656433
-0.01856285686582492
0.001075860453183171
-0.01008467309577049
-0.01115861753310764
-0.2185621237829908
-0.01490320129812064
-0.2233627103509632
-0.01051965614937448
-0.06530026905623347
-0.003537717122298979
-0.02319043221107097
-0.3768663845774963
-0.9064315355461166
-0.01132301227632538
-1.052065653799211
-0.6151306059122257
-0.01076862027618166
-0.6528651065771329
-0.1754263054678511
-0.005550057007531052
-0.1305692632946837
-0.01712056917361384
-0.121188625588963
-0.06778492402183053
-0.07512653778834959
-0.005277365486673465
-0.002808297841308679
-1.333091814349937
-0.01107861166047691
-0.1878564078286745
0.0005053389961932286
-1.015786702388675
-1.229562456219637
-0.08213324057559185
0.020276785589846
0.1642388676994227
-0.004803046222162933
-0.0230250972954611
-0.004255167796316839
-0.252764477353398
0.3661913952618867
-0.04079037338839495
-0.2098960203171148
-0.01496620292531442
-0.6592747939372851
-0.07555340062172647
0.1916331976144817
-0.2844503955826369
-0.04973435099477135
-0.06862184142822418
-0.0158712574869934
-0.02173744468450014
-0.5737052836409992
-0.1445262135480429
-0.08650039841111891
-0.1273352947885961
-0.5583685417892423
-0.04410688073696075
-0.911460254756543
-0.0005697004046803226
-0.2370152015381242
-1.044700908966287
0.170131695466055
0.2927376207918784
-0.1811977215680572
-0.1942847194371834
-0.2059674860492899
-0.06844682253691597
0.02314114594588567
0.05061875574048425
0.004205432262098836
-0.164635443107666
0.02510301948478218
-1.351658187554365
-0.08491645208831279
-0.4715366589395729
-0.3284841899865669
-0.2039986240249449
-0.1752959805056374
-0.0169245794106167
-0.01544917295915444
-0.1050777231864732
0.1699499109620828
0.3858814276766604
-0.221119774735479
-0.1424380499698331
-0.2411996552468252
-0.06234343798243844
-0.1516729315814917
-0.1626625474788054
-0.1252569764448772
-0.1206242127903025
0.4673670042132969
-0.2686000558412069
0.4299291415075168
-0.6012898590042353
0.0700781842915532
-0.2043772778767725
-0.06590276360628014
-0.07352461275289578
-0.8754372689871095
-0.2232827817115791
-0.1890899983647278
-0.3455638552325656
-0.4561573411901321
0.5706666927476649
-0.2046488229871857
-0.0002294721279753195
-0.07132490800381223
0.3427893971247882
-0.03799377829131963
-0.1281077672771387
-0.178211332557601
-0.06385018610846892
-0.01651226428477095
-0.1931650687782093
0.1918990386944369
-0.01275381976262932
-0.09591426164621542
-0.1676133773363496
-0.3123494873839911
-0.3145880701891614
-0.06604541568011647
-0.01025129300423974
-0.07624579662020302
-0.6579731995922966
-0.6664202433452456
-0.3387593301168573
-0.05751500543330505
-0.05239041898977246
-0.02549896506332905
-0.06725964069328029
-0.05834761015603371
-0.3576492263235346
-0.9534649740869406
-0.01003467062109625
-0.08260150772704632
-1.133651136669285
-1.028157034160158
-0.1032968045391968
-0.03807691954651331
-0.07039961058746595
0.3913444674426697
-0.3458053723782527
-0.05117410392191429
-0.5960072657338688
-0.1242029207468903
-0.2542758045119712
-0.2088267108981196
0.4744551031040193
-0.6252888397409454
0.07211353962710897
-0.02963399961112908
-0.5557078290031047
-0.05106420298048796
-0.359073997312658
0.1059677908937692
-0.1894197625295017
-0.05960161233685909
-0.1366749740746472
-0.3643192642307924
-0.08967472014116928
0.5136588940878501
0.08493895625565437
0.4714669258106362
-0.1117499034454467
-0.1987718308057297
-0.52342772376332
-0.129431538454585
0.02726152432581961
-0.05324661953347236
0.1035503506570455
-0.3099271977842691
0.2361255934081134
0.009315254243779074
-0.003323882586579392
-0.5156142174837702
-0.1866232813305921
-0.08730311492915002
0.5813114092015482
0.1381063017679864
0.3470104479042925
0.2258023440040362
-0.5587013677044846
-0.2110127549703729
-0.2195937333541077
-0.2390263672184393
-0.06003026718991218
-0.6971392385224092
-0.195577597053815
0.3066695577720789
-0.2080644739730807
-0.01110247882672777
-0.1731122551965107
-0.009131246046294806
-0.157697740762008
-0.4331942557623995
-0.07701201083222144
-0.1965928136815292
-0.07201176046432223
-0.09226372337763385
-0.1445819529871891
-0.07368871838704349
-0.4557859782775228
-0.4172293545803591
-0.02707322531715984
-0.07386579239447738
0.3258665997738191
-0.2457837344686209
-0.1847466117811913
0.5260378353865991
-0.2074809539833146
0.01698191116539322
-0.4473962251153826
0.04496495464665335
-0.06259944985508824
-0.1535007204992537
-0.5802670776947211
0.1627878258099629
-0.5832475701405951
-0.5317489779703302
-0.1070193766076668
-0.5047312114975248
-0.03748456966770913
-0.1418573554281516
-0.4076912022325332
-0.0163575539196043
0.2859155494077265
0.4893313383002699
-0.1580836950832443
-0.008731433207940618
-0.07026458020715276
0.5253580760973726
-0.03354021755272736
-0.4368592480693861
-0.03282114808789154
0.4600065446700112
-0.01441702954688146
-0.5409007586072133
-0.2436862431456271
0.1751958275336394
-0.3085770198173717
-0.1774848610272667
0.05259202514011242
0.03398569577397531
0.05378020022479679
-0.2974557199592385
-0.1567784233443496
0.4126989221024082
)
;

boundaryField
{
    FrontBack
    {
        type            empty;
    }
    Top
    {
        type            zeroGradient;
    }
    In
    {
        type            zeroGradient;
    }
    Bottom
    {
        type            zeroGradient;
    }
    Out
    {
        type            fixedValue;
        value           uniform 0;
    }
    circle
    {
        type            zeroGradient;
    }
}


// ************************************************************************* //
