/*--------------------------------*- C++ -*----------------------------------*\
| =========                 |                                                 |
| \\      /  F ield         | OpenFOAM: The Open Source CFD Toolbox           |
|  \\    /   O peration     | Version:  2412                                  |
|   \\  /    A nd           | Website:  www.openfoam.com                      |
|    \\/     M anipulation  |                                                 |
\*---------------------------------------------------------------------------*/
FoamFile
{
    version     2.0;
    format      ascii;
    arch        "LSB;label=32;scalar=64";
    class       surfaceScalarField;
    location    "1947.5";
    object      phi;
}
// * * * * * * * * * * * * * * * * * * * * * * * * * * * * * * * * * * * * * //

dimensions      [0 3 -1 0 0 0 0];

oriented        oriented;

internalField   nonuniform List<scalar> 
1171
(
-0.92792575701201
0.9279257570631491
0.7872705777227016
-1.098745839390978
0.3114752615020407
-0.1949888251789572
-0.7669598301288961
0.96194865529942
0.07207424745033209
-0.117300751211991
-0.2117707537905029
0.329071505529094
-0.7872705880428703
0.06931170689286846
0.7179588811352888
0.8108586502272103
-0.1773896393357497
-0.6334690108288733
0.8742837119154766
-1.043490584916659
0.1692068729536853
-0.2847236889695367
-0.09780352990746669
0.3825272184722515
-0.03596835087805444
0.5483657195231292
-0.5123973685537114
-0.5057521369715363
0.8282241283977745
-0.3224719914291532
-0.4020244453916273
1.045734625687627
-0.171450913491695
0.3959468887471954
0.04836811988462249
-0.444315007471364
1.046411387833823
-0.0006767622865521935
0.4460875980406937
-0.05014070626734272
1.056983092699695
-0.01057170045165702
0.5778782762571626
-0.7728671080105831
-0.7243845191226027
0.5571681436160695
0.1672163755875712
0.2209473023129493
-0.7266994313174396
0.5502492163084233
-0.9226614905039815
0.3724122750614213
-1.094179112459023
0.6864064365821677
0.4077726757541535
-0.5953479945021677
0.5593796375036409
0.01801626416049713
-0.256724475095591
0.2387082120858864
-0.02449542417616791
-0.5229639638233748
0.5474593881651447
0.399882343083477
-0.4976858798750911
-0.9187455441414575
0.9414495198607014
-0.02270397573654099
1.067715809742814
-0.01073271479039823
0.9352105994812733
-1.116976494565719
0.181765895158697
1.067356202049064
0.0003596128337544034
-0.6643023168674245
-0.06008220184742446
1.262096805767125
-0.8644189637718546
-0.3976778419950603
0.148610663725014
-0.1089962378995878
-0.3257916112681261
0.434787848830773
-0.2857324433702808
0.1911795157580406
0.09455292708413486
-0.5833847561811447
-0.5153610786471197
1.014097803506455
-0.07888720268572694
0.009931865329154705
0.8254382141164106
-0.8353700794889982
0.5718159124254821
0.6902808913459226
0.4393694793034646
-0.03050401260600731
0.4303863557663303
-0.8076905721829793
-0.1026153727585121
0.9103059450185128
0.5027156465666879
0.2538386261942328
-0.7565542727426041
0.003717478685114474
0.5295968005422644
-0.5333142787499883
-0.4898811002438336
-0.6042980088673067
-0.4229089209439827
-0.6940675733832518
-0.02740010606886835
0.27031826528409
-0.2429181601200824
-0.9248864231545363
-0.005192222503028105
0.9300786456030614
0.3078925486435319
0.07463466179935463
0.7623604801723507
0.04849817402604322
-0.533046240566589
-0.06230175602682256
0.04633303425951395
-0.854023604715702
0.07637687576739563
0.8619292087892847
-0.9383060845697256
-0.3474126594895783
-0.04113226934381352
0.3885449287466919
-0.6824244584226746
-0.2424619676080767
-0.6314451623858358
0.7078220406974259
0.6092082770610986
0.2190158585024666
-0.5429013869391504
0.9462197261127065
-0.7794087509008767
-0.1668109752451806
0.02190405816391003
-0.01379721770141419
-0.008106839894328553
-0.4029416869254647
-0.09474419278450079
-0.2418906721353412
0.851098955258545
0.04677130550989957
0.3344923830622412
-0.3812636890367652
-0.460587051265219
0.9633027018369963
0.6800972930389227
-0.7827126624423254
0.3185091275102387
-0.01613207425365974
-0.302377053160493
0.9306678679242716
-0.930667867941034
-0.7830590311956449
0.1110734172529981
-0.3228441750826015
-0.7500500005490416
0.7599818650397228
-0.09070784389942416
-0.1427140517365935
0.2334218949990886
0.8649560904873239
-0.03951787831300665
1.054419566214637
-0.800580933574862
0.1860684730853907
-0.3156360487976187
0.1295675758667399
0.8592245774432187
-0.09686409669000785
-0.6117451278597308
-0.03940064155639535
0.6511457693881098
0.1238330813651606
-0.2310342848784329
0.1072012047051454
0.8056346018121837
-0.9830242384013501
-0.4351556179309234
0.3295100023506814
0.1056456160820786
0.5318680205443798
-0.556363441610343
1.022132058724585
-0.4562728168780487
-0.5658592418525465
0.5992231404497833
-0.7193132580046848
0.0666662496656607
0.6526470079573305
0.1026703100305709
0.5704976592475316
0.05468889911836712
-0.6251865582226215
0.1944102465905104
-0.08333682984660563
-0.493050481532108
0.1456378231254608
0.05037217339189493
-0.8868229273249915
0.8364507540008932
-0.4745958484673301
-0.7134308358578832
0.04912851750082985
0.4365302396565035
-0.006143887586923027
0.2999431068400038
-0.855266091797719
0.5553229851634347
0.4157201687539057
0.5842798313125739
0.5605918546952701
-0.5142588141882947
-0.3652804296938741
0.03557628526636607
0.3297041414947953
0.6813515306005147
0.2493163372170729
-0.5667048101384169
0.5704222883901313
0.1107386302426077
0.8749463158769076
0.01028056786129476
-0.622025696320504
-0.7493136347242375
0.7996858104041968
0.5310970147454858
0.07151262278613604
0.3010653145797317
-0.3725779371767402
-0.167617164301099
0.4422610234279675
0.08733576839345293
0.8754610459037132
-0.7976590478237023
-0.0778019979965488
0.6355158483193299
0.3107038781520419
-0.4303417916517033
0.5755146409666653
-0.5040020163337436
0.4171393470983089
0.1331098780166019
-0.04690861064044264
-0.5890956735725726
-0.1384468036321045
0.7275424771992607
-0.1496788354705373
-0.7809890354394289
-0.6110528387979179
0.3606098667713662
0.2504429708779924
0.622287631042813
-0.6120070620001639
0.2383636662609935
1.011560121849419
0.04285944492307532
-0.749313632040043
0.2208170052203786
-0.1989129532183465
0.6800972916923134
0.8021508335808488
-0.8021508336423047
0.8376944041517592
-0.833309442843712
-0.004384961227100472
-0.4453721966101209
0.8610923660188137
-0.1476419182779438
-0.3454085659353479
0.7347281530043194
-0.6684871084707358
-0.06624104460493158
-0.7319961523911567
0.1429004792701516
0.13879689577831
-0.6718431360892232
0.7827126468525361
-0.9503298112131587
-0.364827405728948
0.288125847723839
0.07670155693256574
0.1458818906079662
-1.009567161540665
0.863685270959465
0.4806967273646844
-0.04132724814298404
-0.3081654275818324
0.5864107410324011
-0.2782453133211467
-0.7383196177532798
0.8842015061785621
-0.1571211187854113
0.734734591284975
-0.8378490024725581
0.10311441124755
0.9781174011894925
-0.5417489780300772
-0.4363684232209297
0.755242225958437
-0.06485755369417329
-0.03524514193550047
0.1878145259982096
-0.1525693845489619
-0.775732588073295
-0.8449440203347803
0.07798418327620955
-0.7500500003940129
0.5141159223469448
-0.5552481947421796
0.09034489760215594
0.7184591624026593
-0.8088040598694364
0.7536985776671264
0.1742272001528223
0.5028806818039644
0.4971193181721175
-0.05286905254795711
-0.6057223816243273
0.658591434578133
0.8796931082694346
-0.004232058740485986
-0.7552422259421329
0.799685810614878
0.1911302185057478
-0.4478546900054506
0.01920764730981925
0.001141122708585419
-0.02034876598001751
0.5894005713378893
-0.4383358904321563
-0.1510646804591011
0.7179588872442239
0.01414511764430051
-0.1102094284336423
0.437736298137277
0.1516642754378926
-0.01350373732486384
-0.006512727071219848
0.02001646369501478
-0.03383008317811937
-0.001415067534614346
0.2436129809407343
-0.2597450417325446
-0.959271951970553
0.001992955921997997
-0.1595861413677883
-0.1212144264619472
0.09470856279188014
0.7214120362516846
0.7290137367414331
-0.1447339058242788
0.6610910714864559
-0.5707461753227719
-0.2118814511690996
0.3979499250692167
0.6954601747895789
0.02249871243127454
0.2416242404556694
-1.074933680142575
-0.950329812791765
0.3017486668219838
0.7599818637019699
-0.2087735722857884
0.06605952446500407
-0.7234049930247575
0.909463647350981
-0.1860586543069403
0.4163252781271915
-0.02778035619488833
0.7715932036254749
0.2806867445452563
0.3727103968522086
0.07337718970974849
-0.6586960771001091
0.6586960770793928
0.2147767095744533
0.6955292387046451
-0.05499537936150292
0.3894877666323968
0.3797924742002823
-0.01337037799181668
0.03257801361220117
0.4493131214502819
0.03138360338162315
-0.7383196185002118
0.5341083387971542
0.2006198179483425
0.3052741921630609
-0.1174596631803415
-0.695460175444553
0.1798053141468401
0.7296583333849999
-0.0102502931367312
-0.8136499344465944
0.8239002275654078
0.6962996964667464
-0.792059560605135
0.09575986418400266
-0.7536985861792527
-0.1504891648291016
0.2114754108306459
-0.06098624692088182
0.07733851380384624
-0.179366354805017
-0.1129487075773226
0.2923150632996213
-0.006410370803834185
-0.007093373281791312
0.7066086360430455
-0.7168589373543397
0.8849612013283366
0.07698744807593084
-0.3165354658587582
-0.5171477710003558
0.8336832366750155
0.1035857114844473
-0.103585709061227
0.3237021407439889
0.474035462400743
0.6166752197811146
-1.090710682090683
-0.1941226274071021
-0.5856717189175086
0.7797943463399992
0.01336488620319809
0.2200570180945504
0.3770741789860406
-0.2532410839945903
1.013384644962424
-0.5393491787219653
0.6650403012904735
0.994640765812224
-0.3779655422509942
0.2294322569269713
0.8842015039832368
0.7127505922025845
0.2137250965473296
0.7277244273980801
-0.7809890357141582
0.3413039382439622
-0.2761852378481718
0.2451928906415842
0.03099234624278667
0.8469047480370723
-0.009222735305130243
-0.8376820125090813
-0.7021788967643114
0.7025385123044557
0.55462780595802
-0.7021788946871348
-0.7127505922077438
0.7025385146093418
-0.0348367801583449
0.9062747715502062
-0.02131357403007629
-0.6813515199322963
0.6123588085044235
0.0689927114233562
0.5387423057852395
0.5369120040168268
-1.075654309792597
0.4913458032644556
0.5220388429283687
0.5428530909866066
0.4593030136944826
-1.002156104623503
0.4972455959665131
0.4973951712328373
0.6123588010336417
-0.5255392842946565
-0.4651326266025222
-0.5565806860345293
-0.5188411783861069
-0.1193898438451399
-0.0122182379369325
0.01221823694659482
0.5129847726760149
0.5230527142928374
-1.04189389255958
0.5749435976205112
-0.2738782830897076
-0.8854757836807184
0.3437268051027397
-0.6330680452461559
0.3906060768524516
0.002549909906533386
-0.8293166814371677
0.8267667714835806
0.4208483026093108
-0.01757623939420704
0.8644809863292128
-0.9479806230059326
-0.8340009947864364
0.05428963949831393
0.7797113552025058
0.5647853273241031
-0.4390450433056561
-0.1257402840093586
0.6500578931718091
-0.7289450961423011
0.8861086671786219
-0.8322895607020943
-0.053819106692639
-0.009606638100389085
-0.7880524063912943
-0.1096969325877895
0.7134851249870723
-0.6037881923901149
-0.9360838083204287
0.9264771705476301
-0.727024706038914
0.6918088476292145
0.03521585838571629
-0.8108149327265867
0.03912927409662716
0.7716856585396793
0.06172030012242315
0.04186540808267929
0.4330529850070798
0.06187194129999726
-0.8515673525931247
0.7896954114107826
-0.6430770513230967
0.5902080027707947
0.8898684698928316
0.07021644684488859
-0.9600849166737357
0.05586747242381178
-0.04753885355783611
0.3772430032429854
-0.3814144257536565
0.06577838108678051
0.8422953575798842
-0.8397454441475419
-0.7338274908988862
-0.812093061236019
0.0240406552098973
-0.1634613577325026
-0.8529709994642053
0.02068144556730829
0.6239102948480773
0.0371807750887802
0.03333903450016322
0.5314463008605587
-0.80663977596117
0.845769046121448
0.5658592395392928
-0.8468929159456386
-0.8658673631432547
0.04040740469783258
-0.03596553804872153
0.8380328367312875
-0.8020672987365829
-0.02620421955772906
-0.7697930315064113
0.5443486395229883
0.1519510536791274
-0.03139305868396709
0.8958740457128341
0.9807668085819717
0.8623000536601534
-0.8416186047766249
0.1475584245302704
-0.1475584228325322
-0.1186271450056345
-0.4821278137779973
0.04308277546130435
0.2705250517054654
0.0312236147801122
0.3868555214480168
0.8696698241485883
0.004759483561264635
-0.01116986483295533
0.6586065833272673
0.341393416652765
0.7835674161544143
-0.5833847540615686
-0.7780822233201591
-0.8112900387371264
-0.6798345442074607
0.6798345442026985
-0.1677705796449447
-0.1550735996106065
0.6018957756221975
-0.8122371436748838
0.2103413680260659
-0.4937547506425359
-0.5690115233280012
0.2781895120315426
-0.9722570846289628
-0.9018816907983571
0.8480625930555846
-0.8135571829081754
0.8375978373223052
0.6487355515377748
0.1342827382712722
-0.7830182897905182
-0.7760741795786338
-0.1459727343048688
0.7242233878978868
-0.5782506535691796
0.03221186353604225
-0.01463018670888006
0.01830341359106538
-0.003673228095569104
-0.3551867044340265
-0.1269411135575895
0.8800852859798869
0.7450678639171486
-0.246034863142871
-0.4990330003407258
0.6193275765020657
0.6853174940793988
-0.4705407827028176
-0.0005649739358512696
-0.2851674665709042
0.02492074993049549
0.7469140389245311
-0.7718347890092054
-0.3235215342823803
-0.07265476107050763
0.07578003353365796
-0.9604148604525918
0.1227328456740001
-0.6779544080892068
0.05171521645583266
0.6409873786307054
-0.6927025951063762
-0.7565942949704413
0.07863988688533491
0.5879858134756681
-0.6606405746305967
0.1569660215389816
-0.3363323739354507
-0.7705591318920963
-0.00551504764801974
0.3712112651076629
0.6013436463168693
-0.02582900828326619
0.02247965730935627
-0.02247965658365602
-0.01873097734913712
-0.05001741383083579
-0.2261678336031872
0.02431218493899102
-0.0195526698828401
-0.7333783535183191
0.2792843756949271
0.6803887180623759
-0.6894855610685711
0.009096842810402067
-0.5961967411183073
0.6479119618940775
0.6530723487365978
-0.06508653647598969
-0.6315029005178936
-0.1250913911551428
-1.050335438320232
0.0110720370717778
0.1364863848979836
-0.7084576016911407
-0.7411998273458992
-0.7631489694216661
0.3654711258654328
-0.4123774601880705
0.4655678804571109
-0.05319042040252512
-0.6705791908851672
-0.03787841090441151
0.5017275671671109
0.7306808232416913
-0.2336686621338685
0.1124542346536751
0.9659299047959061
0.446125414684888
0.1342443912918055
-0.5803698059081792
-0.6779512426564051
0.007372049834486432
-0.04463075145755516
0.03000057937097109
0.6365597167914862
-0.7750065191226024
-0.002001982204219912
0.002001982565299662
-0.6010451634456941
0.6481941819564757
-0.0471490184527832
-0.6446122052013087
-0.1130910817046156
-0.6715489677123337
0.05444199167586557
0.6041494491606603
-0.1371242720558501
-0.8175217024169492
-0.559878861651367
0.5654506354713715
-0.005571774075039154
0.6327020821374801
-0.6236052351633391
0.322364170615017
0.2141921593747711
-0.5365563299874048
-0.1046401113715552
-0.601948213620157
-0.09075438025201767
-0.1549197509520358
-0.505436863711927
0.4041044906434222
-0.4988486815235187
0.1268123441604974
0.6782747297682911
-0.8050870739675555
0.5992231404547006
-0.3685913369040359
-0.04378611651930108
0.08070353306702228
-0.5861403942766763
0.5518202596964256
-0.04053862505045294
-0.5112816344797725
-0.3124420736526003
0.3049724985412454
0.00746957406056474
0.4544320058551544
0.1205115929289761
0.05112413433577315
-0.31596967246693
0.1568759984364979
0.1590936738248163
0.2309378047387268
-0.01012079161709242
-0.2943340622067607
-0.3116413321025708
0.3607584815278798
-0.0491171518238603
0.7877731488643296
-0.6268032456340753
-0.01780895932113188
0.4992974351100287
0.2805907024255408
-0.5266255657149346
0.5775045866551971
-0.5775045866565189
-0.2897429085146871
-0.5864510351794262
-0.2955686554135346
-0.5864510349565234
-0.5946137952369112
-0.8385127659884202
0.1700256622486943
-0.5837204782669917
0.8211322442960699
-0.003427931249405774
0.1188117238601601
0.4825319213381052
0.09671253742230589
0.1855676775619607
-0.03636936488035021
-0.1491983139055466
-0.01826983224608433
0.5940952841718526
-0.946270978552454
0.4291232118384928
-0.002493831919647208
0.002909851147758792
-0.00041601975319919
-0.6433371897732162
-0.1317061784615142
-0.467356331670377
0.6016007216574019
-0.5037339133735016
-0.3251912822880541
-0.2609491271947316
-0.2711534335524132
-0.1119467255749759
0.1119467250635572
0.1524958324962488
0.05897957386936875
0.1966397111668432
0.4554470963464371
-0.5732437306556781
0.1058874035846217
0.242699060586138
0.4662856776611622
0.5337143215988214
0.6413321430238623
0.08620099419413398
-0.004954201412339125
-0.08124679469387423
-0.2768806996503782
-0.5406410027127425
-0.5508874784489114
0.1142152400907082
-0.126168927337053
0.01195368675879903
-0.1057644302132404
-0.385947188790264
-0.04513540621969402
0.6492848366811539
-0.4986607009989385
-0.1446764888131271
-0.3389885032825019
0.2919038134976008
0.123754291246178
-0.6086245873619605
-0.204139933975213
-0.2619019041316698
0.002156842502053107
-0.4222266139129812
0.3229315717006891
0.09929504186966369
-0.09399734150493883
0.2916337495925941
-0.8959317561542985
-0.4579701844352099
0.6310150071097893
-0.7729832907834522
0.6683431793661128
0.3419489145492793
-0.1252722511384858
0.2251495841836783
-0.09987733220357926
0.02430673099013105
-0.5862841061449703
0.02924650142780718
0.5570376049831963
-0.9007064790572885
0.5470494123412398
-0.6656765573879733
-0.09820838112874332
0.1095013273713832
-0.1095013244685483
-0.3165346432749649
0.363346133162758
0.01389687497991982
0.03040039491755922
0.05580061525490367
0.5052680058790628
0.6615874633688146
-0.7393894588799214
0.03154152777342226
0.02351355699377206
-0.0010338894717395
-0.007139521333562203
0.007139520589719591
-0.4168244772061132
0.5373360727992832
0.01530499232867393
-0.01530499245878102
-0.7922417752465751
-0.06077549912273209
0.1224958071431739
-0.4560679751661717
0.5619553816832745
0.4514054431227614
-0.4985544642301977
0.1499142594251542
-0.149914258158909
0.03404981759084599
-0.001471808666709599
-0.04184489803835764
-0.9765347505600083
0.5401663258126754
-0.4700148890231858
0.04186541146703686
0.5145082233875988
0.03106717544370399
-0.5455753986168969
-0.616021482362734
0.1173607808033979
-0.3295811921519471
0.01343247186695305
0.316148721118266
-0.1546526786537929
-0.07901597015693458
-0.5408191954783685
-0.04546491610843665
0.136486383200378
-0.0405072871419092
0.03850531150160437
0.08111540907985089
-0.08111541246158752
-0.5367151862750773
0.4875980460380138
-0.4144809983363705
0.1613380416731151
0.6222293744323668
-0.09783788232270883
-0.004176246195666916
0.004176246025158502
0.5329519402552357
-0.07717828935531039
0.005915618977150301
0.02698505572150391
0.03472587837195033
0.6850497632940914
-0.7622280525216136
-0.6553217380137918
0.6375127761392675
-0.106668780539641
0.3129983319055402
0.7461483620083792
-0.01873097926831242
-0.2671564890835949
0.1496968176612988
-0.7446572369321076
0.4843347951072204
-0.4244104760992031
-0.1015132658389867
0.003529441690029767
-0.01436332937907616
0.01935796319467886
0.4111760749705638
-0.1216220690082693
-0.3896595638476579
0.6288253012443862
0.01935778642957168
0.01072403615697278
-0.01072403606971665
-0.3546944772768357
-0.08126809341646607
-0.5605485217709947
0.557120590707139
-0.2382209614138971
0.4647886646199572
-0.151140182996701
0.7290184560187298
0.6727351748091621
-0.04050728649684403
-0.6159273714007093
0.5625257461285248
0.2892076848156738
-0.2866556324747028
-0.002552053448369095
0.5435154315567405
0.09338351147370051
-0.03899429911436003
0.1966789648665377
-0.1576846662907771
0.1201097074079912
-0.1201097103058964
-0.8587544332847338
0.002355839559027927
-0.1133028858709109
0.1402879429015959
-0.1319300253985698
0.1319300246043347
0.02351355128781297
-0.02290721483603885
0.670538566854497
0.05911976594343833
-0.323039556677684
-0.06290763253123338
-0.4712233205391194
-0.04978081838974284
-0.1516356917533766
0.1516356904951129
-0.04719698136160198
0.1433122680579113
-0.1433122670435823
0.1365516849231092
-0.1365516869891302
-0.3156938854210011
-0.114647906296747
0.2265040654433275
0.103005937585334
0.03485421275034031
-0.8211079398245434
-0.1978997645084993
0.1702649847986928
0.02086524065499073
-0.2652606044924967
0.1258147407745576
-0.1258147398870816
-0.4140836724868421
-0.08476501118007998
0.2364194913986683
0.00228872521641693
0.04060812155321222
-0.5432797986864166
0.5781165788492596
-0.02834917337362271
-0.01884780961957554
-0.02848466215870612
0.02701286345174598
0.006602007235983989
-0.1843599345610537
0.1777579272769022
-0.1083682503523676
-0.2279641241733934
-0.1447515580652558
0.1447515569965806
0.07290099446973138
-0.07290099494471654
-0.01939205612911191
-0.1086532821601267
0.1280453389963879
0.2417630929285089
-0.1828744976038299
-0.02786830536578731
0.02683442497267659
-0.1383760645728433
0.6259741110936867
-0.03904571985654102
0.4235793109607572
-0.04285787608586004
0.06287435203584808
-0.1533768016797493
0.1533768000510173
-0.636430063946382
0.3088075124702405
-0.07937525507468648
-0.2345967320592593
0.003562451215731582
-0.1215922191221591
0.1622003396496913
0.195323148010097
0.09699192027407789
0.096235443896058
-0.06150956535942441
0.07263886376053966
0.04157637704559906
0.06390042634374231
0.1063645541692839
-0.09602063954363593
0.208474853857682
0.01272601301128652
-0.115573318554964
-0.1008283280432394
0.09758436363195509
0.003243965641874994
0.01278952064230582
-0.02350008267578649
0.03780745576328766
-0.0378074558291169
0.07508674639347532
-0.05484903949721601
0.05484903918460649
-0.2245384274201388
-0.05269896648463194
0.01146219559169326
-0.1030771265419887
0.01644197965390547
0.1083791118057549
-0.1083791112181173
0.2946181902108574
-0.271502462915727
0.1631342176524606
-0.05086414922990954
-0.2206383134862946
-0.01748259796047159
0.01748259829424036
0.3673935272750976
0.2852534890484223
-0.5275753349364998
-0.09399243542177048
-0.03217649237133309
0.5287315762550709
0.2132784479772528
-0.1701645692523209
-0.3805470533923088
0.07647500735736547
-0.1477370410990981
0.1872774888768784
-0.0395404480710431
-0.06680272597935763
0.06680272634828313
0.8226233693636558
-0.5606500297717382
-0.005070594294651523
0.01786011401090939
-0.01998330650879847
-0.2867797748517874
-0.01749752751409032
-0.01282152665663635
-0.1318402391064885
-0.5720540488559752
0.5559883294903833
-0.5694007492867293
-0.006884137461375789
0.1030462560512927
-0.001741102722273678
0.01682511166889359
-0.1677203475763664
-0.3365255228758058
0.2334483964522757
-0.05448559075027201
0.03509353675677671
0.1317480114600396
0.173224487227142
0.3370747026201928
0.2765944078780435
-0.2783355100574549
-0.06232301255403139
-0.1550317656910483
-0.2211642537460972
0.07481044797302167
-0.01091002279016753
0.2140442806496649
-0.1972191684845993
-0.08628985496683347
0.1589287168463733
-0.3552085891290881
0.2085488129314969
-0.1921068331895602
0.08959116866982572
-0.4792507359696357
0.1744559636715785
0.1699909120847758
-0.2562807607161062
0.07273536736789558
-0.1943878916251039
0.1768903636599985
0.01743562760278086
0.1414930905724135
-0.03954406091417999
0.06609166821388826
0.4668602715334126
0.02032485772283139
-0.07836654512037897
0.05498502056993448
0.1259246187792988
-0.2607046995431447
-0.2308799131554964
0.5597237340659122
0.1576987678141864
0.07872072302118077
0.0754424069228677
-0.03091544803657098
-0.01107489489091922
0.008522836042342382
-0.03278758995153166
0.171134293964197
-0.1780184309472983
-0.05900857913190034
0.02176382716995816
-0.1468424739338184
-0.05289479590177566
0.1494662881674386
0.2770776671105572
-0.03859813875378425
0.01593796909862567
-0.2557444689128308
-0.1317149388104242
0.2357692943276364
0.1789519421750475
0.1298555716321221
0.02193745268875782
0.08899962382994576
0.05222153433910421
0.453046471506225
0.01596997043584244
0.0971870871485474
0.04369761107284856
0.07172055323708509
-0.1154181655571446
-0.2423218480490389
-0.2008893889589735
-0.01974892192883699
-0.2021730717072618
0.2754933955573198
)
;

boundaryField
{
    FrontBack
    {
        type            empty;
    }
    Top
    {
        type            calculated;
        value           uniform 0;
    }
    In
    {
        type            calculated;
        value           uniform -1;
    }
    Bottom
    {
        type            calculated;
        value           uniform 0;
    }
    Out
    {
        type            calculated;
        value           nonuniform List<scalar> 10(1.034198894028998 1.064281590534402 1.021713312641856 1.019284437779742 0.9962150190287278 1.016236349515684 1.036037486649578 1.062766273974318 0.8672474905543263 0.8820196905761939);
    }
    circle
    {
        type            calculated;
        value           uniform 0;
    }
}


// ************************************************************************* //
