/*--------------------------------*- C++ -*----------------------------------*\
| =========                 |                                                 |
| \\      /  F ield         | OpenFOAM: The Open Source CFD Toolbox           |
|  \\    /   O peration     | Version:  2412                                  |
|   \\  /    A nd           | Website:  www.openfoam.com                      |
|    \\/     M anipulation  |                                                 |
\*---------------------------------------------------------------------------*/
FoamFile
{
    version     2.0;
    format      ascii;
    arch        "LSB;label=32;scalar=64";
    class       volScalarField;
    location    "22.1";
    object      p;
}
// * * * * * * * * * * * * * * * * * * * * * * * * * * * * * * * * * * * * * //

dimensions      [0 2 -2 0 0 0 0];

internalField   nonuniform List<scalar> 
808
(
0.122494
0.015566
0.0233911
0.122733
-0.183908
0.0168244
0.00298121
0.0292811
-0.0965827
-0.0199437
0.0328882
-0.108331
0.0245183
0.0114658
-0.280635
0.0221477
-0.294447
0.0192402
0.0243773
0.00660815
0.0293718
0.387234
0.0723942
0.00169202
0.464237
-0.165781
-0.0387537
0.00626216
0.0157868
0.0119975
0.0110706
0.0189138
0.0206355
0.00869974
-0.0782659
0.63962
0.0137021
0.017044
0.019979
0.0176085
-0.0496434
-0.0427138
0.0359533
0.022561
-0.161864
0.089435
0.0165928
0.0326587
0.0137509
-0.13526
0.0054393
0.0220565
0.0448063
0.00591594
-0.0882463
0.0102377
0.00794409
0.0393855
-0.0113857
0.00423365
-0.25979
0.021174
0.035724
-0.170807
0.0301742
0.0467235
-0.226208
0.0216448
0.0191341
-0.232083
0.0222345
-0.258218
0.0218206
0.0198086
0.206507
0.00994457
-0.0145419
-0.0690431
0.00726271
0.319016
-0.115956
0.0154503
0.0323506
0.286459
0.0110185
-0.0329562
-0.300637
-0.108387
0.0271335
-0.194953
0.0409171
-0.0853445
0.259633
0.161142
0.0414946
-0.237774
0.0212163
-0.104976
-0.0964453
-0.207513
0.0131886
-0.00376373
0.0403382
-0.029159
-0.124585
0.0587961
-0.170216
0.0156644
0.00835269
0.0514269
-0.0867095
0.339988
0.0163399
0.0409955
0.0190416
0.464479
0.0107472
-0.216388
0.0185304
0.0582095
-0.275764
0.0361617
0.0120212
0.0601847
0.114634
-0.0518895
0.114794
0.0530591
0.037933
0.0684896
-0.228847
0.0267452
-0.050004
0.128426
0.0229061
0.00759663
0.00972589
0.00272801
0.0184738
0.00654365
-0.292737
0.0517892
0.0156997
0.0192725
-0.030224
0.0449439
0.0997253
0.163661
-0.0552441
0.0123746
0.0166328
0.350776
0.0296844
0.545301
-0.271649
-0.0998881
0.016609
-0.192409
0.0109246
-0.119065
-0.254088
-0.286679
-0.233299
0.0173332
0.061873
0.0212211
0.0205245
-0.233462
0.0146967
0.0347711
0.0401713
0.162556
0.0444043
0.143086
0.0163659
0.0744635
0.0713382
-0.128117
0.0225419
-0.281273
0.0318118
-0.143441
0.0150901
0.276089
-0.274386
0.118401
0.021717
-0.152525
0.0271199
-0.100117
-0.270653
-0.0755282
0.018584
0.0886991
0.014698
-0.282484
0.0167947
0.0337152
0.00692475
0.0814185
0.0683196
0.02952
0.0204166
-0.252025
0.384872
-0.277162
-0.255097
0.00913881
0.032084
0.0171912
0.0126211
-0.326763
-0.242163
0.0156781
0.0204212
0.0180939
-0.262798
-0.0367917
0.0173329
0.0390116
0.0220205
-0.0873994
0.0288965
0.0298618
0.00200336
0.0217353
0.126826
-0.262316
0.0735394
0.0125857
0.119237
0.017066
0.0203288
0.0103692
-0.0927657
0.0319521
0.0107427
0.00228802
0.0112494
0.0153619
0.0038129
0.00124822
0.00466317
0.00647197
-0.000826253
0.00355898
-0.00446518
0.000151446
0.00690537
0.0234158
-0.258464
0.00264251
-0.00660623
-0.152134
0.00488751
0.00809512
0.0227594
0.00132389
0.0234148
0.130271
0.0502088
0.0121707
0.0100398
0.0727084
0.0215928
0.0163233
0.0274534
0.036601
0.03468
0.0021566
0.0413
-0.322704
0.282351
0.00654225
-0.0296051
0.0194355
0.0107596
0.0116911
-0.22592
0.296176
0.0309716
0.0388056
0.0348811
0.0888498
-0.117406
0.0196552
0.0161172
0.0853598
0.019122
-0.00150454
0.0224886
0.0277558
0.0390208
0.0398331
0.0414753
0.0199706
0.0266645
0.0590232
0.0369813
0.0339282
0.0268367
0.0210278
0.0465906
0.0135338
-0.435525
-0.095793
0.00963084
0.0546547
-0.15188
-0.235768
0.0196917
0.0223509
-0.258596
0.135385
0.167209
0.0183692
0.0162574
0.0592179
0.00234914
-0.174082
0.0247915
0.00272586
0.0227585
-0.00362457
-0.000412443
0.024058
0.0545183
-0.00159798
0.00928917
-0.257664
-0.0111969
0.0267646
0.0557924
0.0979825
0.0115569
0.237134
0.00379924
-0.144779
0.560721
0.0473144
0.00238766
0.0233711
-0.0470461
-0.0485954
0.075425
0.0240738
-0.0117007
0.0275582
-0.0433781
-0.253105
0.067827
0.107734
-0.0640066
-0.256569
-0.256775
-0.255825
-0.254739
0.0664679
0.0239621
0.00932825
-0.0317808
-0.0303954
0.00741105
0.0260243
0.00361823
-0.429557
0.0717379
0.0348255
0.0215717
-0.350848
0.0471838
0.00591638
0.118112
-0.265271
0.0565928
-0.0373821
0.0725233
0.0179359
-0.255652
0.0311793
-0.303721
0.0106095
-0.00342467
0.0218536
0.00967163
0.0147875
-0.0655773
-0.27014
0.00676256
0.00353027
-0.01865
-0.00398569
-0.00571622
0.0310724
-0.0150462
-0.00691804
-0.0715509
0.0506941
0.0172505
0.0134571
-0.325722
-0.101306
0.0627841
0.0266641
-0.152032
-0.0301087
0.44111
-0.297969
0.00564842
-0.172866
0.0209303
0.0405768
0.0201354
-0.0579717
-0.00211174
0.0368789
-0.0683091
-0.00226772
-0.00465618
-0.00684358
-0.0121802
-0.011658
0.0224342
0.122854
-0.0323503
0.0153401
0.00981658
0.0212433
-0.0765506
0.0256016
-0.314877
-0.0493296
0.033203
0.00221971
-0.248932
-0.280326
-0.0128422
-0.0503398
-0.0507003
0.0241419
-0.0937213
-0.191609
0.234732
-0.244856
-0.381981
-0.342901
-0.066549
-0.101228
-0.268699
0.364423
-0.0334571
-0.261814
0.0103128
0.0247478
0.592317
0.00830899
0.0237199
0.0481932
-0.0293193
-0.00825417
-0.25063
-0.28182
0.0586304
0.0689477
0.0492368
-0.21065
-0.235274
-0.225483
0.0138953
0.00624141
0.094408
-0.017718
-0.0317977
0.0807465
-0.0128127
0.0259576
-0.181938
-0.300918
-0.0263358
-0.107569
0.0198851
0.00969888
0.0841412
-0.0477723
-0.0043017
-0.385488
0.467147
-0.265361
-0.259063
-0.0373327
-0.00433993
-0.265179
-0.25901
0.127903
-0.266148
-0.224025
0.876641
0.0156872
-0.283534
0.00427725
-0.125836
0.0135337
-0.388891
-0.272867
-0.240889
0.00413084
-0.284089
-0.287346
-0.00951877
-0.0197072
0.106397
-0.236577
0.032431
-0.423732
-0.319158
-0.379682
-0.21091
-0.00625013
0.00983477
0.107973
0.137408
-0.0443354
-0.252155
0.320604
0.0910629
0.0162993
-0.360327
-0.419844
-0.256719
0.0309008
-0.277327
0.107844
-0.0229866
-0.04209
-0.250479
-0.178485
0.0142419
-0.254432
-0.292816
0.00833908
-0.00898034
-0.096665
-0.00688846
0.0376677
-0.309406
-0.265026
-0.0954165
0.103065
0.0236459
-0.263206
-0.283504
-0.272733
-0.292351
0.0414828
0.102959
0.00638748
-0.263373
-0.295875
0.105556
0.0252187
-0.217383
0.0278024
0.0238412
-0.326998
0.0281399
-0.211531
0.0187826
-0.289804
-0.00344169
-0.00312278
-0.358575
-0.447883
0.00273575
-0.403102
-0.383243
0.0239863
-0.0634103
-0.266616
-0.00550649
-0.25243
0.0354998
0.0835968
0.0718157
-0.269089
0.0658681
0.0163268
-0.441242
0.00439312
-0.272576
0.0176479
-0.258592
-0.500237
0.119215
0.280574
0.456765
0.0136532
0.0023233
-0.00114565
-0.267982
0.657754
0.0196785
-0.210828
0.0302208
-0.0269745
0.095922
0.495318
-0.363636
-0.0372529
-0.0354987
0.0345175
0.012139
-0.444312
-0.252148
-0.263073
-0.295567
-0.22338
0.00500105
-0.299782
0.0979717
-0.262375
-0.301787
0.521125
0.599462
-0.315643
0.140732
-0.265653
-0.0198315
-0.116127
0.415667
-0.0781977
-0.255878
-0.0215531
-0.498303
-0.021085
-0.190473
-0.0132604
-0.308338
-0.274798
-0.00201835
0.00413538
-0.255525
0.47116
0.68755
-0.248559
-0.293776
-0.257471
-0.047846
-0.299713
-0.274126
-0.180091
-0.255192
0.764984
-0.334089
0.761951
-0.342914
0.348168
-0.245933
0.00554714
0.182876
-0.491266
0.253168
-0.273808
-0.305803
-0.332492
0.88331
-0.261086
0.226085
0.168866
0.661975
0.138938
-0.330431
-0.286749
-0.187814
0.011469
0.0947363
0.544307
0.0137349
-0.0196195
-0.276661
0.127045
-0.0842705
-0.313358
0.0257412
-0.314125
-0.113605
-0.146717
-0.294904
0.0069793
0.115328
-0.0046589
0.0800683
0.126243
-0.327777
-0.346558
-0.030478
0.0140278
-0.454559
-0.50249
0.18508
0.201222
0.0973854
0.680096
-0.0433822
-0.237631
-0.373256
-0.294979
-0.0255804
0.0902896
0.775413
-0.441179
0.400052
-0.0122367
-0.418404
0.160025
-0.0668452
0.407178
-0.152313
0.0177597
-0.262936
-0.0396845
0.223666
0.82995
0.351262
0.771723
-0.270252
-0.297879
-0.344689
0.175426
0.277267
0.0661288
0.391366
0.168189
0.512683
0.285167
-0.0161124
-0.143891
0.049865
-0.294732
0.897009
0.428014
0.660254
0.52586
-0.256997
-0.260128
-0.271088
-0.256309
0.0517986
-0.345894
0.133593
0.608138
-0.269718
0.014107
-0.254308
0.193712
-0.322571
-0.360383
-0.163611
-0.286052
-0.296587
-0.271038
-0.270991
-0.123574
-0.342581
-0.091924
-0.177737
0.153906
0.675301
-0.21348
-0.248379
0.838923
-0.250271
0.310268
-0.227661
0.414008
0.100533
-0.249345
-0.388137
0.453769
-0.225893
-0.312498
0.215877
-0.26601
-0.02726
-0.290291
-0.109813
0.0302763
0.588782
0.794833
-0.285307
0.245243
-0.285244
0.835248
-0.0136833
-0.305411
-0.0316169
0.78018
0.215401
-0.312604
-0.273199
0.475256
-0.204684
0.0439849
0.361044
0.262885
0.314818
-0.2447
-0.316613
0.703475
)
;

boundaryField
{
    FrontBack
    {
        type            empty;
    }
    Top
    {
        type            zeroGradient;
    }
    In
    {
        type            zeroGradient;
    }
    Bottom
    {
        type            zeroGradient;
    }
    Out
    {
        type            fixedValue;
        value           uniform 0;
    }
    circle
    {
        type            zeroGradient;
    }
}


// ************************************************************************* //
