/*--------------------------------*- C++ -*----------------------------------*\
| =========                 |                                                 |
| \\      /  F ield         | OpenFOAM: The Open Source CFD Toolbox           |
|  \\    /   O peration     | Version:  2412                                  |
|   \\  /    A nd           | Website:  www.openfoam.com                      |
|    \\/     M anipulation  |                                                 |
\*---------------------------------------------------------------------------*/
FoamFile
{
    version     2.0;
    format      ascii;
    arch        "LSB;label=32;scalar=64";
    class       surfaceScalarField;
    location    "85.5";
    object      phi;
}
// * * * * * * * * * * * * * * * * * * * * * * * * * * * * * * * * * * * * * //

dimensions      [0 3 -1 0 0 0 0];

oriented        oriented;

internalField   nonuniform List<scalar> 
1171
(
-0.9279041938605791
0.9279041938142725
0.7874003237094271
-1.099208351549774
0.3118080281075057
-0.1899481092068384
-0.7663815800591511
0.956329689176023
0.07209580536224559
-0.1174866060759252
-0.2123836477011899
0.3298702529126552
-0.7874003130016366
0.06938512558422194
0.7180151874352186
0.8112285779171911
-0.1779486227089368
-0.6332799553374275
0.8740026694268422
-1.044117928080374
0.1701152587001832
-0.2853504236072663
-0.09806927156360447
0.3834196956060572
-0.03651356610314235
0.5489201413202169
-0.5124065753183771
-0.507472532358675
0.8272112577642783
-0.3197387252752406
-0.4028370230332611
1.045712177116667
-0.1717095069950288
0.3922795196506353
0.05048382177675214
-0.4427633430052677
1.045949853570669
-0.0002376756554185332
0.4444159267943167
-0.05213640952369358
1.056451763108177
-0.01050191147242431
0.5804990583596884
-0.7704471620905224
-0.7240655656264201
0.5565912524480809
0.167474313073581
0.21393782491838
-0.7214103647493998
0.549877431994734
-0.9225386394611625
0.372661206492955
-1.094221309013939
0.6866245732389397
0.4075967358779999
-0.5955853231312747
0.5590717647709287
0.01717890200551717
-0.2557280522863732
0.2385491492882991
-0.0224871121792992
-0.5240078964526251
0.5464950079462273
0.4003083437488014
-0.4983776087280871
-0.9189542097094235
0.9416873053170801
-0.02273309556304608
1.067767484345727
-0.01131572234117129
0.9348942774184785
-1.116703580294455
0.1818093027735972
1.067233151786118
0.0005343297416919308
-0.6643780616289168
-0.05968750090470071
1.262188105392435
-0.8643517403880179
-0.3978363650148188
0.1482789389511825
-0.1099979901969573
-0.3255344444243615
0.4355324350109513
-0.2854945372224131
0.1919705598217483
0.09352397791089834
-0.583672574265495
-0.515535782417447
1.014098267950272
-0.07920399089048351
0.009872915506211962
0.825503557266639
-0.8353764727016326
0.5717167928986967
0.6904713151553059
0.4389221559093127
-0.03099269457614687
0.4313010380972887
-0.8080739348771385
-0.1025424085562961
0.9106163433229936
0.5021144022859299
0.2540507035784463
-0.7561651058585381
0.006494032131875937
0.5297504830479212
-0.5362445160526059
-0.4900127012358107
-0.6042086074251762
-0.4227611736084149
-0.6939424062223566
-0.02728310573556107
0.2707406497689203
-0.2434575429511752
-0.9247921111779861
-0.005115444813487123
0.9299075560707409
0.3084992849774658
0.07492041677456954
0.7615645404809427
0.04966403339195632
-0.532965960748267
-0.06261936078466493
0.0460010558372894
-0.8540749905786608
0.07635033326921492
0.8630176212161143
-0.939367954447713
-0.3468587221906121
-0.04080062988003205
0.3876593523886914
-0.6820862678724379
-0.2427058380165555
-0.6343804414383476
0.7107307736856937
0.6143484342656608
0.212862816993005
-0.5433992623724626
0.9456803697141247
-0.7789375697956222
-0.1667427998456481
0.01059046803153523
-0.006813220554250673
-0.003777247506583973
-0.4034848295720881
-0.09489277942944728
-0.2412126219335691
0.8555610519159659
0.04843348528952402
0.3340874064264377
-0.3825208911428535
-0.4615483255805714
0.9636627233051617
0.6804542653529344
-0.7829966740104493
0.3193112989364986
-0.0155130649559245
-0.3037982333373563
0.9307251920668944
-0.930725192044075
-0.7812870609034107
0.1111604404197291
-0.3235440839309988
-0.7499314288897071
0.759804347585986
-0.09078225587606302
-0.1432779939469482
0.2340602507045576
0.8648878777688782
-0.03938431575657133
1.054505439536196
-0.8004547426355874
0.1867495236903578
-0.3163626949738751
0.1296131709676469
0.858427049377375
-0.09686251025217164
-0.6113654274763243
-0.03913671971512636
0.6505021472415149
0.1234245011659856
-0.2304137875725661
0.1069892851945697
0.8055589756104644
-0.9835076016890074
-0.4342599372097907
0.3291088991849476
0.1051510372815317
0.5333964410406691
-0.5558835546098746
1.021930524983309
-0.456215719759699
-0.5657148051901707
0.5991693518556839
-0.7193060543791681
0.06653673698781556
0.6527693177566778
0.1022619379532684
0.5695669928487149
0.05524162833452623
-0.624808621356053
0.1947958994210292
-0.0836354624367366
-0.4921238623534249
0.1452651401194955
0.05025060697437296
-0.8864272789719077
0.8361766719033601
-0.473524068046215
-0.713192936129212
0.04881487564469596
0.4371066738072239
-0.005805632281322562
0.30005289347856
-0.8552875114874149
0.5552346178426435
0.4157588334766789
0.5842411664133026
0.5605425277053673
-0.5145414748451661
-0.3677447906207417
0.0395787539912978
0.3281660400675483
0.6812682771962901
0.2494569154477123
-0.5671198265731118
0.573613859550283
0.1115722325233989
0.8749440928678073
0.01021593907939885
-0.6215813634914442
-0.74906149659274
0.7993121029722301
0.5304302799785386
0.07019658886866824
0.3010505889933225
-0.3712471781429714
-0.167450416110059
0.4451263283148839
0.0846241665659678
0.8743195410586716
-0.8049896041005413
-0.06932993702397046
0.635356092315089
0.3103242793902166
-0.4307679351317735
0.573744824437733
-0.5035482349318886
0.4170810374583991
0.1327963924550145
-0.046730171920541
-0.5926680496796612
-0.138948529937294
0.7316165796150633
-0.149746533143382
-0.7809786557956114
-0.6110191578035027
0.3602190412018172
0.2508001178732139
0.6219319520914217
-0.6117160128263853
0.2390879940196691
1.011542679250407
0.04296275940511497
-0.7490614994315894
0.2303411235415904
-0.2197506539781033
0.6804542654478347
0.8017770415394327
-0.8017770414428405
0.837612403569809
-0.8330787576338513
-0.004533646019931261
-0.4453442860840077
0.8611031217985189
-0.1472991637052427
-0.3448246960778423
0.734760333128423
-0.6685619266896715
-0.06619840636711899
-0.7362358088483327
0.143567759402777
0.1391049603336284
-0.6720709208166129
0.7829966800645637
-0.9504470961155719
-0.3683968197133644
0.2882533104245227
0.08014351173684715
0.1457341456586203
-1.010107418462306
0.8643732727735742
0.4809721214409938
-0.04204996543812901
-0.3080760323702017
0.586266506838154
-0.2781904746332715
-0.7386047778651684
0.8843389253749199
-0.157005614745112
0.7313177104289748
-0.8402063138049265
0.1088886034396968
0.976583562924919
-0.539126507764193
-0.4374570550611163
0.7550468669249588
-0.06499010763619772
-0.03372591964248479
0.1845978510088127
-0.1508719308944881
-0.7758122998222435
-0.8393859647229979
0.07300439070268502
-0.7499314275150457
0.5137345792213045
-0.5545352053034226
0.1004932559257386
0.7168074586159533
-0.817300714699044
0.7535951574368215
0.1743090159761743
0.5029289542873898
0.4970710457402479
-0.05334044803329709
-0.612150283898659
0.6654907311505474
0.8816377848585354
-0.007318247060242408
-0.7550468669456887
0.7993121041313977
0.1916316442031833
-0.4473596982494152
0.01302581821559943
0.003818884354651417
-0.01684470694327909
0.5887929624313261
-0.4373790971254251
-0.1514138658912767
0.7180151804659729
0.01025048624486178
-0.1080682552752961
0.4383792406894823
0.1504137209907301
-0.01625179061903434
-0.00707549498500972
0.02332728619820219
-0.0311016336457251
-0.002624282830571666
0.2458328807630775
-0.261345953507666
-0.9587826553553699
0.001435264448695841
-0.1594705512119514
-0.1225639320356467
0.09453109174808272
0.722450094875058
0.7289536611712619
-0.1447124946984887
0.6743925787178627
-0.5738993212858242
-0.2118693626113049
0.3986188874262885
0.6956420177175719
0.02237316278143033
0.2418351733442984
-1.074913931152809
-0.9504470959342851
0.3026936523298944
0.7598043506608324
-0.209305663901419
0.06602766858186677
-0.723885358581828
0.9108701895889552
-0.1869848309935984
0.4156068631786552
-0.02794750406317397
0.7711865626683263
0.2806939476114654
0.3766048100137813
0.06781112476043748
-0.6587115091029863
0.6587115091232988
0.2147282618830898
0.6958880806146284
-0.05647900562507106
0.3905664060389971
0.3790534273982413
-0.01405118671058842
0.02707702032340831
0.4483065999027883
0.03266552514778132
-0.7386047770988162
0.5339771340872053
0.200783198430646
0.3001415565461145
-0.1155437041832015
-0.6956420166671897
0.1797446536954438
0.731125535239982
-0.01021182292893308
-0.813624723228252
0.8238365461656832
0.6964133255392391
-0.7919680662799505
0.09555474065592626
-0.7535951502901335
-0.1505853487380027
0.2120069652949783
-0.0614216156604117
0.07746135906263922
-0.1784631264768187
-0.1126679195727185
0.2911310447044425
-0.007587425375157679
-0.008664356872209292
0.7063374140210609
-0.7165492291987569
0.8870903663177007
0.06923932761544303
-0.311799410316665
-0.522970765558582
0.8347701759787193
0.1034491655054392
-0.1034491686331259
0.3278320619375626
0.4762357864944698
0.6110142690665576
-1.087250055588453
-0.1940895438074423
-0.5855387102498594
0.7796282540343217
0.01294755303166302
0.2211126917702593
0.3762217265845411
-0.2527972354875998
1.016008868884583
-0.5397730856060102
0.6685762195885046
0.9924469498778663
-0.381432684074278
0.2289225668096743
0.8843389271279848
0.7126294197449007
0.2139006409597607
0.7277866619425434
-0.7809786551511722
0.341288484128403
-0.2845330708059919
0.2605020897366508
0.02403098343041835
0.8503985096982309
-0.004202921676258813
-0.8461955882888604
-0.7021275059288692
0.7026618340433869
0.5546557136486626
-0.702127506666965
-0.7126294197296666
0.7026618332499177
-0.03372339370263076
0.9083294603751401
-0.02123909095660101
-0.6812682876301699
0.6122416117478802
0.06902667589604641
0.5385656802341634
0.5383525797551378
-1.07691826001531
0.487154277015856
0.5288545909037723
0.5482657218274372
0.4574621381572029
-1.005727860038832
0.4927056323736153
0.499741316168346
0.6122416189279141
-0.5256766066759173
-0.466665201195465
-0.5561471753386011
-0.5137063217243902
-0.1233988513091551
-0.01282747326399349
0.01282747421337031
0.5099183638474503
0.5245811064280397
-1.038287428263002
0.5719787188185597
-0.2709281287140753
-0.8830229327986067
0.343896425684197
-0.6328044200620797
0.3900985838691515
0.0001566412815512766
-0.8259909525772233
0.825834311397572
0.4208776386972978
-0.02507914409684749
0.875477653990014
-0.9461798558128733
-0.833645540938867
0.05618251828815719
0.7774630227889285
0.5560310030325075
-0.4381802975683592
-0.1178507054587185
0.6502258799914347
-0.7294298702758624
0.8869901755881359
-0.8267958926631851
-0.06019428265478512
-0.01474355367121726
-0.7902460535114807
-0.1112739279635985
0.7135761899450698
-0.6023022620020397
-0.9414186623748527
0.9266751086051069
-0.7311104856583245
0.6883209562762432
0.04278952944125606
-0.8022491059003383
0.02859606454484327
0.7736530414616732
0.06193324067741775
0.04151592788371204
0.4328492896686148
0.05918968929433264
-0.8502787104806458
0.7910890210868243
-0.6460933281363644
0.5927528802980898
0.8887076758429955
0.07366572497719601
-0.9623734008196856
0.05506213833864912
-0.05053035842500381
0.3786963983531139
-0.3819102676060667
0.06554757136088703
0.8405161472809882
-0.840359507522788
-0.7330097724781108
-0.8142295732072571
0.02398351970097331
-0.167023951953684
-0.848111871601922
0.02131597432379573
0.6222218827904951
0.05217069730087886
0.02085103290450884
0.5351799682384043
-0.8157574311643058
0.8443534992836658
0.5657148055861961
-0.8510700985630448
-0.8677529350813881
0.04057652959055505
-0.02831557496809083
0.8339653838984615
-0.805649808869728
-0.02227756421413234
-0.7613253460256815
0.5442818244498047
0.1521315077722717
-0.01820795426958046
0.8936856079397956
0.9828576288358306
0.8615944401108694
-0.84027846725763
0.147848172299082
-0.1478481738164593
-0.1175043098305314
-0.4644558475420603
0.02627554828559566
0.2709486653615363
0.03174498736365685
0.3868552946480653
0.8714080451613082
0.00861315324416438
-0.01620057451849032
0.6585897188516294
0.3414102811671708
0.7836229156423792
-0.5836725763306151
-0.778081578634313
-0.8098527276735887
-0.6799287347296196
0.6799287347437224
-0.1682545829464185
-0.1552894982024484
0.6021719819746527
-0.811322370077879
0.2091503881394226
-0.4940866689409817
-0.5688469423804414
0.2779817736594901
-0.9719241799427807
-0.8986912410348294
0.8384969524270219
-0.8170703008426087
0.8410538215102377
0.6485116439641946
0.1343240424576559
-0.7828356864476589
-0.7670631992018448
-0.1464688613097685
0.7252839934317366
-0.578815132187251
0.02728319840472191
-0.01174350265940127
0.01546893074991048
-0.00372542696284755
-0.3522958533413311
-0.112159988712766
0.8801537587238792
0.7426000242008179
-0.2408240803449519
-0.5017759445591211
0.6247493261560061
0.6857893405402076
-0.4710610792517743
2.600999679481467e-05
-0.2855205466958293
0.01132804823567404
0.7499624590485474
-0.7612905070221784
-0.323412533089981
-0.07247947027978335
0.07635548258093408
-0.9678081812598471
0.1216125940195836
-0.6769983229467461
0.05432106947881519
0.6397154497387642
-0.6940365192529228
-0.7561860141165516
0.07918769118293159
0.5892249343946468
-0.6617044045985326
0.1569120567403937
-0.3353751822802962
-0.7720461117199063
0.004982912434853665
0.3710904190086666
0.5996750662693721
-0.02593023851842982
0.01965561843506031
-0.01965561869769106
-0.01990295226136555
-0.05063921441769945
-0.2338938543453882
0.02507464344657504
-0.0164615131579752
-0.719875416302434
0.2793491665334029
0.679025127153066
-0.689379474808249
0.01035434788224358
-0.5948877792903314
0.6492088444306355
0.6546016942406994
-0.0653767571730996
-0.6306696030926657
-0.1255164145744363
-1.050233842736506
0.01116555810150829
0.1366826171975286
-0.7085473695068275
-0.7419435372290469
-0.7639538566820641
0.3661174937616801
-0.4051962517541279
0.4629396541424019
-0.05774340188639401
-0.6669360332304325
-0.04161133621294739
0.5002050998744182
0.730685534437002
-0.2357902372161532
0.1132263057866528
0.9628252709403544
0.4466318773989514
0.1321312521588376
-0.5787631296420022
-0.6766912610739613
0.009755229552842658
-0.04449751271776999
0.03275400489154327
0.6370686074506851
-0.7760171370645822
-0.00233299142442644
0.002332991342947898
-0.6004580325313191
0.6497282006524659
-0.04927016827404528
-0.655840230620835
-0.1137279704609184
-0.6716995834031902
0.0586497556017155
0.6068409720703587
-0.1376377944622785
-0.8181684439158722
-0.5715749620299282
0.5717340190047866
-0.0001590576636230473
0.6289764208513906
-0.6186220785339765
0.3224801326269253
0.2136013669044533
-0.5360814995217464
-0.104874927216051
-0.6020324840539035
-0.09200403663327521
-0.1538261503282615
-0.512925206882539
0.404294303528326
-0.4991870844454047
0.126288925118754
0.6787310811075864
-0.8050200061376062
0.5991693518521587
-0.371986117110741
-0.03321013652520003
0.06697682832215932
-0.5799020394246046
0.5513376976128896
-0.04046672056912205
-0.5108709771684277
-0.3131139734258043
0.3057525871542006
0.007361387095101309
0.4516606480488214
0.1203180716490452
0.05256921152061235
-0.3165340704199594
0.1575575507334649
0.1589765198631947
0.244543507341716
-0.01420238478512554
-0.294997087250554
-0.3115203434484407
0.3524549069586013
-0.04093456216324044
0.7901888129991589
-0.6276216267045188
-0.02821860435966503
0.4993842645768902
0.2853491869629779
-0.5261732634477726
0.5774578092314299
-0.57745780923065
-0.2897734233141269
-0.586487302605074
-0.2955514858214854
-0.5864873026835853
-0.596255901670067
-0.8384812977637535
0.1699193688517369
-0.6013460666013738
0.821173713805044
-0.00319750823867356
0.1179436390100337
0.4817314288276627
0.0967816894320301
0.1859379288001342
-0.03634552121939259
-0.1495924059135176
-0.02961205782148128
0.5901773348912097
-0.942603427659312
0.4196326591924162
-0.007541299505365542
0.001769370458985776
0.005771930221910622
-0.6441918888815278
-0.132096374043024
-0.467305128604632
0.5994363828328777
-0.5034865193163149
-0.3199325706697864
-0.2599694502839847
-0.2720532499887085
-0.1114499381007798
0.1114499382850008
0.1535180895769616
0.05848888040659351
0.1971034902103425
0.4487372588280793
-0.5696042912529202
0.1022991594104085
0.2529607963575951
0.466442206484446
0.5335577943486624
0.6453220861070779
0.08449883702815777
0.0001368746795498946
-0.08463570767001755
-0.2771339876210028
-0.5410344564219105
-0.5473526883819775
0.1148714074464013
-0.1266955437800801
0.01182413682293482
-0.1055599078977194
-0.3852914151178383
-0.05043430346969549
0.6572752951886695
-0.4994369984370181
-0.1447548903831859
-0.3267457913741914
0.2860903697900207
0.1293143126117821
-0.6155106566796084
-0.204600109893656
-0.2630678608683013
0.001721924136354855
-0.4211050660661068
0.3231103451835966
0.09799472132404323
-0.09243394990367015
0.2917355848769703
-0.8959441925215156
-0.4573343027518
0.6276632361833548
-0.7732621784879175
0.6683872513125966
0.3400360485603623
-0.1247709818600654
0.2239782980514474
-0.09920731710396967
0.03058676416668004
-0.586209832425302
0.0287091506907363
0.5575006814227849
-0.9006049119422349
0.5478826169521105
-0.6653869267223914
-0.1041064785307452
0.1095605545352494
-0.1095605577856164
-0.3165080601244721
0.3585733420894274
0.02012305001325224
0.02380074150193454
0.06069808719638815
0.5045000426594692
0.66761740193629
-0.7369473411769373
0.02761961625337377
0.01978042888361889
-0.0001248148007266504
-0.006611352236759229
0.006611352888320276
-0.4104096518451262
0.5307277237695668
0.01579305488717948
-0.01579305473173332
-0.7926697722108461
-0.06058157956704296
0.1225148147781953
-0.4534283248342066
0.5557274841778228
0.4508866240311801
-0.5001567875356875
0.1502673966694712
-0.1502673976350561
0.03952063696913762
-0.01244361514340742
-0.04195515992058921
-0.9755393812978211
0.5380823278440356
-0.4681530601037422
0.0415159258563966
0.5152168563753146
0.03049572050180299
-0.5457125771598587
-0.6164864385827377
0.1170494418259393
-0.3290749901396405
0.01359527586146225
0.3154797136067451
-0.1552400131172557
-0.08055023206187564
-0.5410230484106491
-0.04518677637859267
0.1366826185091173
-0.04061904841345024
0.03828605213346441
0.08099931432667563
-0.08099931036162239
-0.5260366719876653
0.4851020999102504
-0.414921416615338
0.1612962671952041
0.6223266485062428
-0.09703169965768986
-0.004186681761361105
0.004186681718262243
0.5329789367008041
-0.08033068654804909
0.006111386644739498
0.02712206419530715
0.03490458786060609
0.6879864035677271
-0.7683170903601312
-0.6582500029858965
0.6300314023196221
-0.1095796878259044
0.3140084092739417
0.7455334552854799
-0.01990295049342882
-0.2652816653931162
0.1497379676981826
-0.7445980339314469
0.4837593507996086
-0.4269934173397666
-0.1012695718206168
0.003258780106199336
-0.01450976024845016
0.02521153791547186
0.41171895549069
-0.1215602601796623
-0.3893107165634321
0.6290029374326287
0.01943881071266541
0.009056372747918076
-0.009056372461433216
-0.3518630521897202
-0.07729940535212788
-0.5602610072848213
0.557063498794418
-0.2374388948234273
0.4647062569188486
-0.1507238958716044
0.7312229574605228
0.669365022198964
-0.04061904925934339
-0.6174949901687932
0.5612967671557934
0.2822597527705706
-0.2771395722836134
-0.005120178698343807
0.537597456593092
0.09344143083159422
-0.03885667069142952
0.1961205732067834
-0.1572639018823702
0.1198559881449228
-0.1198559850740132
-0.8586203642456456
0.002419217430727739
-0.1134680258243082
0.1405900885635322
-0.1314876218714811
0.1314876222822093
0.01978043578322715
-0.02408963582604594
0.6702442499172262
0.06088128612782374
-0.3226089295910493
-0.06268248480429246
-0.4712877185686281
-0.04448604045405883
-0.151256758282601
0.1512567591431005
-0.04511506128937275
0.14371042016294
-0.1437104207610178
0.1362477146018702
-0.1362477126165945
-0.3162122519591112
-0.1145556830688695
0.2259501348076349
0.1031587647199906
0.03478381125245348
-0.8212280922506934
-0.1982193788596303
0.1698757207815946
0.02175591931482392
-0.2641929939757081
0.1262446955012346
-0.1262446960127296
-0.4143465570326996
-0.08484052515429924
0.2356787044839518
0.00287044257325551
0.04038026603343791
-0.5446549557730382
0.5783783494798085
-0.03428928074902207
-0.01082577786103576
-0.02462552213003448
0.01218189960978804
0.006556960354982318
-0.184802189778829
0.178245229584141
-0.1081489961446694
-0.2272261833017266
-0.1443474268388644
0.1443474274736157
0.07238898427215421
-0.07238898407183983
-0.01893184278870464
-0.1085479005974671
0.1274797427812564
0.2339539738888612
-0.183500800576145
-0.02389419088572029
0.023769365728985
-0.1288338322758812
0.6139359302457282
-0.03906096364165032
0.426893661524945
-0.04211176107798488
0.06543904074334925
-0.153019521744306
0.1530195230437294
-0.6366777647153908
0.3080623705890063
-0.07913980371937034
-0.2340639311234942
0.00365014125083705
-0.121303740570364
0.1616840077152116
0.1950306499263171
0.09610039361271117
0.0959977830287017
-0.06109319560554473
0.07321295847035869
0.04165844739574025
0.06419826620509722
0.1056774594913764
-0.1002410136813914
0.2134673329599719
0.01138937148053008
-0.1167025144399015
-0.1007627329689918
0.09607491080617347
0.004687821350391801
0.01072405833924121
-0.02267295918364966
0.03732326962163217
-0.03732326960937626
0.07481683364126604
-0.05538603574025659
0.05538603602559291
-0.2243527151679452
-0.05126347069244711
0.01178811925250182
-0.1031248556359877
0.01639172872197067
0.1088686138034132
-0.1088686141802666
0.2930253737544002
-0.2707710575963303
0.16262205817123
-0.05073572762511453
-0.2200353289466172
-0.01680264398002852
0.01680264376443143
0.3676059801662924
0.2851633327739995
-0.528081614905839
-0.09392420646934978
-0.03277133825832111
0.5289022423250839
0.2093284370225935
-0.1691812715151611
-0.3805078264268038
0.07657567987176336
-0.1471484159292967
0.1867499108880405
-0.03960149480868402
-0.06721017296609402
0.06721017279961479
0.8221091351636856
-0.5603222828901244
-0.004300381014840865
0.01502444106690516
-0.02003767577905066
-0.2873858724579998
-0.01746572660710734
-0.01285981289245672
-0.1321917088202502
-0.5723306497742046
0.5561282455770621
-0.5687475669317953
-0.006909326241346523
0.09927959979093823
-0.001762768347663295
0.01677181167089803
-0.167186091289296
-0.336101315778354
0.232976460104554
-0.05399755821311063
0.0350657140794234
0.1322245240759808
0.1735280635612235
0.3423692547371923
0.2758574113126488
-0.277620180023741
-0.06247668606478488
-0.1551613446375389
-0.2204686588277335
0.07451817737776548
-0.01031991014851492
0.2134894069220066
-0.1967175957184358
-0.0862467761030212
0.1594597369890816
-0.3551461979486122
0.2079996308435108
-0.1916079023358416
0.0896324620187168
-0.4789431740932141
0.1738900949917434
0.1707760957502818
-0.2570228747257217
0.07332482064743491
-0.1949065242948378
0.1774407981652668
0.01737607752621782
0.1420836593884269
-0.03959296814604051
0.06570794148073074
0.4672709957744265
0.0205206215746294
-0.08492852537655446
0.05479702235607876
0.1260803238227923
-0.2600701559793137
-0.2309502719012735
0.5597282440950243
0.1569113890831751
0.07876731600221729
0.07469849496595937
-0.03107204524748837
-0.003125505315017257
-0.001994665739135423
-0.03259569838643044
0.1706308983187375
-0.1775402249999957
-0.05971699071188814
0.01946899335968975
-0.1471731874201776
-0.0528228674923811
0.1537503328282307
0.2770441526571116
-0.04047177812837197
0.009056394758715282
-0.2551736961222156
-0.1318137027448459
0.2363236674728391
0.1784985159943602
0.1295638561870506
0.02188150284112066
0.08841877620160178
0.05232214641997177
0.4521778962991184
0.01607719616497794
0.09804635233511765
0.04291560586137749
0.07236430178792702
-0.1152799065735795
-0.2429182796793339
-0.2003800242731709
-0.01965530593004795
-0.2018990180218009
0.2748289974638795
)
;

boundaryField
{
    FrontBack
    {
        type            empty;
    }
    Top
    {
        type            calculated;
        value           uniform 0;
    }
    In
    {
        type            calculated;
        value           uniform -1;
    }
    Bottom
    {
        type            calculated;
        value           uniform 0;
    }
    Out
    {
        type            calculated;
        value           nonuniform List<scalar> 10(1.035419999468884 1.064242286855662 1.022812376533098 1.021560224353653 0.9958147174456283 1.013447638064307 1.034499470814438 1.06293361133987 0.867231236924325 0.8820387884286306);
    }
    circle
    {
        type            calculated;
        value           uniform 0;
    }
}


// ************************************************************************* //
