/*--------------------------------*- C++ -*----------------------------------*\
| =========                 |                                                 |
| \\      /  F ield         | OpenFOAM: The Open Source CFD Toolbox           |
|  \\    /   O peration     | Version:  2412                                  |
|   \\  /    A nd           | Website:  www.openfoam.com                      |
|    \\/     M anipulation  |                                                 |
\*---------------------------------------------------------------------------*/
FoamFile
{
    version     2.0;
    format      ascii;
    arch        "LSB;label=32;scalar=64";
    class       volScalarField;
    location    "42";
    object      p;
}
// * * * * * * * * * * * * * * * * * * * * * * * * * * * * * * * * * * * * * //

dimensions      [0 2 -2 0 0 0 0];

internalField   nonuniform List<scalar> 
808
(
0.131258
0.0361347
-0.0248873
0.130426
-0.228827
0.0351761
0.0329939
0.0300364
-0.111911
0.00145752
0.00421411
-0.133979
0.027828
0.0309108
-0.343729
0.0246535
-0.384325
0.031761
0.0241023
0.0319677
0.018234
0.375811
0.0763545
0.0153323
0.454817
-0.182802
-0.0479011
0.0127253
0.040942
0.0271481
0.0285399
0.0396183
0.0298829
0.0256087
-0.0451209
0.627813
0.0307615
0.0315024
0.0359389
0.0217614
-0.0187409
-0.0454861
0.0443482
0.0298158
-0.195953
0.0926565
0.0339285
0.0155126
0.0288771
-0.146935
0.0336535
0.034805
0.051935
0.0232191
-0.0901647
0.026352
0.00976982
0.0137267
-0.000312041
0.0270659
-0.351935
0.0120927
0.0409502
-0.120746
0.0251948
0.0538779
-0.21792
0.022197
0.0221894
-0.284304
0.0329523
-0.325989
0.0332597
0.0361947
0.188128
0.0325908
0.0208518
-0.0867035
0.0278754
0.309552
-0.124875
0.0283959
0.045319
0.278058
0.0395373
0.00152295
-0.365929
-0.112997
0.0453377
-0.229364
0.0563583
-0.0800919
0.254165
0.159752
0.0458065
-0.132415
0.0157641
-0.137419
-0.077943
-0.143543
0.0313113
0.026617
0.0571104
0.00831786
-0.0287549
0.0642643
-0.235265
0.00228155
0.0299785
0.0356342
-0.0314459
0.328111
0.0341763
0.0441307
0.025573
0.451691
0.0346072
-0.266905
0.029003
0.073247
-0.197654
0.0478247
0.033054
0.0738633
0.112223
-0.0570759
0.118839
0.0358893
0.0479352
0.0723003
-0.214643
0.0282089
-0.0126831
0.121391
0.0328236
0.0300239
0.0788705
0.0270823
0.0390313
0.0320836
-0.308877
0.0612864
0.00615115
0.0320568
-0.0367633
0.0959963
0.109407
0.166247
0.033703
0.0421695
0.0324235
0.340141
0.0492138
0.53495
-0.321582
-0.104034
0.0321027
-0.232773
0.0580034
-0.120797
-0.315196
-0.308447
-0.266945
0.0390016
0.0673115
0.0301719
0.0417733
-0.27715
0.0306713
0.0280016
0.0565871
0.159169
0.0549098
0.126463
0.0363995
0.0839516
0.0747154
-0.125353
0.036944
-0.359039
0.0274009
-0.152091
0.0370806
0.268209
-0.435021
0.121151
0.0302879
-0.0849331
0.035024
-0.0504859
-0.31955
-0.0261917
0.0301603
0.0944226
0.0380679
-0.30214
0.0308614
0.0328624
-0.000681765
0.0816064
0.0818487
0.0286757
0.029334
-0.343614
0.373731
-0.281614
-0.307843
0.0123759
-0.0407755
0.0339989
-0.0261218
-0.418506
-0.14753
0.0336257
-0.0639979
0.03321
-0.336142
-0.0485141
-0.0428918
0.0425803
-0.0446325
-0.0973173
0.035789
0.0331011
0.0105474
0.0317147
0.128545
-0.169788
0.0170627
0.0328845
0.119802
0.0322019
0.0340136
0.0258448
-0.117889
-0.0275814
0.00880597
-0.00433683
-0.0395041
0.0135886
-0.012368
-0.0111729
-0.0249182
0.00540653
-0.000515203
0.00966447
-0.00603507
-0.00339758
-0.00871521
0.102701
-0.319818
0.0175869
0.0348501
-0.0359734
0.0250209
0.0227561
0.0411994
0.00171339
0.032882
0.126031
0.0653387
-0.00830103
0.0173253
-0.0152147
0.0175346
0.0298378
0.0295884
0.0660666
0.0163573
-0.011623
-0.0577176
-0.417168
0.27274
0.0364764
0.00293901
0.0251654
0.010116
0.0241613
-0.0804474
0.278756
0.0415875
-0.0546801
-0.0326923
0.0999953
-0.111444
0.0382716
0.0240083
0.0127317
0.010978
0.0442707
0.0376026
0.035698
-4.15112e-05
-0.00630043
0.0240659
0.030886
-0.0344796
0.0594071
0.0710992
0.0331075
0.010263
0.0304323
-0.0298281
0.0190842
-0.503656
-0.0945297
-0.00662314
-0.101599
-0.140371
-0.41438
0.0760647
0.032934
-0.309395
0.13912
0.165066
0.035481
0.0379637
0.0341295
0.00788268
-0.217367
0.0611227
0.00752355
0.0367386
0.0347725
0.00261699
0.0482418
-0.0093165
0.0262048
0.0180865
-0.304328
-0.189773
0.0185411
-0.0985701
-0.0216135
0.0238891
0.231239
0.0589892
-0.115177
0.548742
-0.0489683
0.0106898
0.0383388
-0.0129692
-0.0510495
-0.0186171
0.0433347
0.050005
0.0609373
-0.0284799
-0.266706
-0.0162287
0.106961
-0.0198683
-0.303791
-0.310362
-0.211716
-0.308608
-0.0720594
0.0390739
0.0516584
0.0703092
0.00149099
0.0157739
0.0529748
0.0172024
-0.501277
-0.0962191
0.049573
0.0135578
-0.0561251
-0.0622327
0.0119114
0.124742
-0.341868
-0.0216051
-0.0202463
-0.0224643
-0.00432581
-0.303947
0.0235492
-0.32094
0.0160773
-0.0124392
0.0134836
0.0299862
0.0318096
0.035273
-0.356294
0.0239575
0.0491273
0.0139301
0.0807979
0.0172349
0.0377526
0.0408755
0.0115214
0.105093
0.0484913
0.0181003
0.0300449
-0.0476616
-0.148678
0.05954
-0.00111256
-0.0474709
0.0143311
0.428594
-0.178089
-0.0147196
-0.0728273
0.0223584
0.026572
0.0374401
0.108908
0.0162146
-0.087284
-0.0210688
0.032636
-0.00212552
-0.00498015
-0.00938137
-0.00867026
0.0205852
0.12673
0.0319817
0.0161244
0.0251269
0.0168435
-0.0283237
0.039244
-0.369848
0.0597201
0.0704643
-0.0188631
-0.214542
-0.304633
0.0131818
-0.075101
-0.0577504
0.0427359
-0.207933
-0.198508
0.203203
-0.335098
-0.451123
-0.101357
-0.188613
-0.0776581
-0.193495
0.353436
0.0283247
-0.314627
0.0241293
-0.0241756
0.58602
0.0240649
0.0292949
0.0421417
0.080423
0.0110946
-0.420476
-0.319501
0.0650302
0.0773574
0.0423426
-0.254715
-0.303853
-0.258612
0.0362992
0.0664514
0.0975816
0.00960215
0.0551779
0.0831205
0.126638
0.038761
-0.0822995
-0.299452
0.0678918
-0.0606135
0.0353481
0.012291
0.0927659
-0.0490728
0.00762457
-0.475742
0.454144
-0.0692185
-0.307994
0.00426977
-0.041379
-0.313001
-0.307459
0.131976
-0.343089
-0.0881653
0.87064
0.0277295
-0.37673
0.0259391
-0.134775
-0.0148489
-0.442532
-0.356664
-0.300974
0.0317876
-0.0593662
-0.377902
-0.00144298
-0.00831643
0.0934187
-0.322761
0.0314067
-0.503813
-0.332348
-0.394746
-0.194561
-0.0632716
0.016623
0.110415
0.136387
-0.0137864
-0.29708
0.312072
0.0531034
0.0163092
-0.451629
-0.503441
-0.341166
-0.00583007
-0.364369
0.0427204
0.132753
0.123288
-0.0535978
-0.216035
0.00865584
-0.302501
-0.309657
0.00626011
0.0192007
-0.2396
0.00243328
0.035966
-0.386672
-0.31284
-0.0306146
0.100669
0.043234
-0.333253
-0.316482
-0.0205494
-0.166333
0.0405561
0.10275
0.0183674
-0.0988624
-0.298752
0.101288
0.0463595
-0.10804
0.0247769
0.0640668
-0.336969
-0.00667119
-0.245712
0.0724918
-0.513631
0.0195546
0.000859112
-0.373148
-0.468207
0.00719491
-0.461087
-0.467298
0.0292461
-0.0992025
-0.3114
0.0352451
-0.29529
0.0252729
0.0764253
0.0790124
-0.505128
0.0806247
-0.000103525
-0.475571
-0.00652361
-0.333049
0.0319922
-0.294679
-0.525639
0.106541
0.267115
0.444488
-0.0358875
0.00419647
0.000269888
-0.358514
0.646644
0.0307841
-0.233334
0.0405635
-0.0473558
0.0916667
0.481933
-0.376809
-0.0256554
-0.0359837
0.0283968
0.0278919
-0.464467
-0.298775
-0.303996
-0.41609
-0.261741
0.019706
-0.342092
0.00549206
-0.275834
-0.338636
0.495146
0.581894
-0.359641
0.118052
-0.307992
0.00423614
-0.224274
0.388634
-0.132259
-0.329843
-0.202577
-0.52824
-0.0197176
-0.205744
-0.0326782
-0.314429
-0.279925
0.00331392
0.00292691
-0.342483
0.463588
0.67534
-0.313523
-0.319694
-0.331592
-0.0508749
-0.307084
-0.315404
-0.209582
-0.330317
0.745564
-0.343694
0.759082
-0.415906
0.33342
-0.315647
0.0118464
0.171782
-0.514878
0.244193
-0.29031
-0.317761
-0.347209
0.871698
-0.305015
0.218074
0.155729
0.653925
0.134678
-0.462085
-0.295801
-0.0449978
0.0119587
0.0696933
0.541314
0.0202127
-0.0177128
-0.311471
0.0954753
-0.116829
-0.149777
0.016219
-0.510735
-0.140609
-0.181228
-0.384934
0.0175543
0.117238
0.0161011
0.0790378
0.116681
-0.336456
-0.380645
-0.0585144
0.0152639
-0.485722
-0.530224
0.15899
0.193789
0.105068
0.661961
-0.0750045
-0.424565
-0.400467
-0.299495
-0.0543179
0.0741459
0.762512
-0.467747
0.388019
0.013126
-0.440706
0.156153
-0.0957025
0.393195
-0.164534
0.0256115
-0.353846
-0.0645951
0.209458
0.825828
0.339008
0.756092
-0.297767
-0.292708
-0.428497
0.157547
0.271322
0.0671715
0.374909
0.154767
0.501324
0.268813
-0.0973026
-0.183507
0.0306514
-0.472796
0.888421
0.414888
0.638594
0.515575
-0.286228
-0.308022
-0.310479
-0.307246
0.0540513
-0.398009
0.114357
0.59456
-0.332164
0.02411
-0.301323
0.187649
-0.327035
-0.376912
-0.0526702
-0.287783
-0.412274
-0.342867
-0.360891
-0.034
-0.43338
-0.123208
-0.342808
0.14627
0.671281
-0.228746
-0.340036
0.824013
-0.339949
0.293319
-0.243058
0.40804
0.103109
-0.252478
-0.410754
0.431366
-0.268765
-0.334842
0.197009
-0.29176
0.00907955
-0.304931
-0.136106
0.00477392
0.578131
0.785918
-0.308106
0.23361
-0.394455
0.825193
0.015298
-0.321819
0.00541923
0.773877
0.210922
-0.330875
-0.31008
0.463171
-0.217926
0.0326703
0.339847
0.258417
0.301246
-0.260672
-0.355505
0.692505
)
;

boundaryField
{
    FrontBack
    {
        type            empty;
    }
    Top
    {
        type            zeroGradient;
    }
    In
    {
        type            zeroGradient;
    }
    Bottom
    {
        type            zeroGradient;
    }
    Out
    {
        type            fixedValue;
        value           uniform 0;
    }
    circle
    {
        type            zeroGradient;
    }
}


// ************************************************************************* //
