/*--------------------------------*- C++ -*----------------------------------*\
| =========                 |                                                 |
| \\      /  F ield         | OpenFOAM: The Open Source CFD Toolbox           |
|  \\    /   O peration     | Version:  2412                                  |
|   \\  /    A nd           | Website:  www.openfoam.com                      |
|    \\/     M anipulation  |                                                 |
\*---------------------------------------------------------------------------*/
FoamFile
{
    version     2.0;
    format      ascii;
    arch        "LSB;label=32;scalar=64";
    class       surfaceScalarField;
    location    "42";
    object      phi;
}
// * * * * * * * * * * * * * * * * * * * * * * * * * * * * * * * * * * * * * //

dimensions      [0 3 -1 0 0 0 0];

oriented        oriented;

internalField   nonuniform List<scalar> 
1171
(
-0.945429
0.945429
0.765271
-1.06252
0.297249
-0.184911
-0.841845
1.02676
0.0545715
-0.0732176
-0.27087
0.344088
-0.765271
0.0716734
0.693598
0.892013
-0.184771
-0.707242
0.823358
-1.03294
0.209584
-0.344603
-0.0446679
0.389271
-0.00445921
0.594425
-0.589965
-0.647441
1.08159
-0.434152
-0.417821
0.989082
-0.165725
0.298192
0.082597
-0.380789
0.985222
0.00386019
0.37599
-0.077798
1.00277
-0.0175511
0.768134
-0.953045
-0.782121
0.610277
0.171845
0.233457
-0.880898
0.559464
-0.915511
0.356048
-1.0781
0.664344
0.413752
-0.640172
0.635713
0.0376443
-0.259478
0.221834
0.00115004
-0.651423
0.650273
0.457583
-0.502251
-0.865986
0.921994
-0.0560078
1.03032
-0.0275477
0.932627
-1.09167
0.159046
1.05392
-0.0236036
-0.695102
-0.0870199
1.27455
-0.871618
-0.402936
0.187938
-0.0749064
-0.398149
0.473055
-0.276436
0.181546
0.0948902
-0.590826
-0.471695
0.991312
-0.0586845
-0.018588
0.857092
-0.838504
0.504438
0.770117
0.519518
0.0165756
0.441007
-0.776591
-0.112491
0.889082
0.610476
0.244984
-0.85546
-0.0570285
0.699562
-0.642534
-0.506703
-0.571393
-0.392129
-0.699544
0.0190758
0.247515
-0.266591
-0.941661
-0.0354039
0.977065
0.361254
0.0280167
0.857868
0.0341448
-0.596688
-0.0434847
0.0463815
-0.822972
0.152589
0.979149
-1.13174
-0.407374
0.019635
0.387739
-0.715261
-0.2264
-0.806626
0.959215
0.639433
0.442159
-0.57339
0.996077
-0.818665
-0.177412
0.0784339
-0.131929
0.0534948
-0.450181
-0.0520698
-0.343454
0.982887
0.00157493
0.413358
-0.414933
-0.52647
1.13695
0.70098
-0.813471
0.369329
-0.051026
-0.318303
0.778551
-0.778551
-0.960622
0.0465957
-0.317466
-0.688954
0.670366
-0.0417836
-0.145527
0.18731
0.873575
-0.0164832
1.05988
-0.814893
0.217256
-0.315869
0.0986133
0.967788
-0.109921
-0.672993
-0.0569456
0.729938
0.152037
-0.236221
0.084185
0.802808
-0.987579
-0.446444
0.312579
0.133865
0.657594
-0.656444
0.891941
-0.403894
-0.488046
0.499812
-0.695389
0.0384712
0.656918
0.112329
0.666932
0.0387691
-0.705701
0.141844
-0.0952483
-0.518667
0.111293
0.0362782
-0.901846
0.865568
-0.568826
-0.755652
0.0605507
0.488519
-0.0475123
0.273461
-0.832198
0.558738
0.424206
0.575794
0.600017
-0.553635
-0.370904
0.00301731
0.367886
0.548577
0.229974
-0.695684
0.638656
0.0903709
0.874482
0.00640138
-0.679394
-0.763892
0.80017
0.609986
0.1316
0.320077
-0.451677
-0.158629
0.537509
0.162053
0.699908
-0.918859
0.218951
0.655263
0.340815
-0.431105
0.713503
-0.581903
0.4088
0.150664
-0.0599982
-0.572934
-0.255775
0.82871
-0.119693
-0.658858
-0.615055
0.367518
0.247537
0.659704
-0.653302
0.302304
1.048
0.0118782
-0.763892
-0.0350257
0.11346
0.70098
0.784357
-0.784357
0.841295
-0.82695
-0.0143454
-0.456507
0.880713
-0.195079
-0.323588
0.760343
-0.669225
-0.0911186
-0.8984
0.325466
0.111152
-0.70784
0.813471
-0.9721
-0.197163
0.141449
0.0557133
0.108545
-0.998016
0.889471
0.534355
-0.0148369
-0.293446
0.598424
-0.304978
-0.655144
0.763689
-0.158961
0.731381
-0.636394
-0.0949869
1.0268
-0.54529
-0.48151
0.724358
-0.0691171
-0.0376428
0.0353625
0.00228032
-0.799137
-0.667578
-0.174268
-0.688954
0.577818
-0.558183
0.167386
0.555289
-0.722676
0.778237
0.167191
0.493733
0.506267
-0.122822
-0.608922
0.731744
0.796033
-0.0961256
-0.724358
0.80017
0.178932
-0.43841
0.0141237
-0.0383303
0.0242066
0.680704
-0.447354
-0.23335
0.693598
0.0077392
0.0638036
0.550046
0.130658
-0.00137429
0.00447587
-0.00310158
-0.00265208
-0.0349907
0.161863
-0.212889
-0.943318
0.0499824
-0.143148
-0.0352996
0.138561
0.793492
0.743596
-0.167802
0.455638
-0.288252
-0.166588
0.383843
0.643266
0.0503319
0.231856
-1.05881
-0.9721
0.313742
0.670366
-0.167209
0.0216821
-0.843475
0.983364
-0.13989
0.490341
-0.102603
0.79645
0.304611
0.348252
0.0277379
-0.680498
0.680498
0.232442
0.65664
-0.0186593
0.432017
0.454396
0.0634244
-0.0493006
0.543134
-0.00877909
-0.655144
0.567281
0.193062
0.0231856
0.0121769
-0.643266
0.143471
0.839894
-0.00279204
-0.716957
0.719749
0.757681
-0.824161
0.0664796
-0.778237
-0.0457657
0.0602937
-0.0145281
0.0844887
-0.129275
-0.110255
0.23953
-0.0116288
0.0102546
0.721607
-0.724399
0.927892
0.0988647
-0.336317
-0.651704
0.988021
0.00108192
-0.00108192
0.144467
0.426871
0.60969
-1.03656
-0.18232
-0.56422
0.74654
-0.0133912
0.200701
0.388813
-0.236777
1.146
-0.719126
0.842997
0.984054
-0.374363
0.193735
0.763689
0.597964
0.260844
0.66115
-0.658858
0.319502
0.0385505
0.00554692
-0.0440974
0.82015
0.243582
-1.06373
-0.580413
0.55681
0.543493
-0.580413
-0.597964
0.55681
-0.0380903
1.10629
-0.178393
-0.548577
0.472222
0.0763554
0.521109
0.718884
-1.23999
0.37336
0.772637
0.794045
0.434066
-1.22811
0.309741
0.674313
0.472222
-0.533871
-0.598589
-0.613693
-0.268025
-0.0811052
-0.00354126
0.00354126
0.42821
0.612879
-0.880904
0.691885
-0.371808
-0.963903
0.418613
-0.689664
0.463263
-0.0149549
-0.832309
0.847264
0.45015
-0.107577
0.927727
-1.14294
-0.965708
0.127382
0.838326
0.593541
-0.239524
-0.354017
0.804178
-0.862862
1.11557
-0.82964
-0.285926
-0.204425
-0.714434
-0.152505
0.757179
-0.604674
-1.11391
0.909487
-0.426073
0.714303
-0.288231
-0.851373
0.086268
0.765105
0.00541523
-0.00433331
0.424125
0.0273767
-0.971177
0.9438
-0.750372
0.62755
0.951756
0.25034
-1.2021
-0.0139521
-0.00266632
0.370553
-0.358134
0.042265
0.891949
-0.906904
-0.752508
-1.00782
0.293383
-0.0714125
-0.932556
0.102916
0.52106
-0.0654215
0.364018
0.229523
-0.632281
0.718549
0.488046
-0.939887
-0.863573
0.242712
0.212472
0.533153
-0.745626
-0.0852913
-0.540036
0.581533
0.176148
0.0991276
0.8286
1.03687
0.998725
-0.895809
0.048647
-0.048647
-0.106398
-0.441484
0.20196
0.324562
-0.0108199
0.355991
0.743308
-0.0276237
0.0159949
0.657398
0.342602
0.798343
-0.590826
-0.764561
-0.502044
-0.500802
0.500802
-0.204113
-0.113353
0.730163
-0.91704
0.186877
-0.526527
-0.548745
0.343813
-1.04336
-0.933447
0.647521
-0.52841
0.821794
0.700711
0.139002
-0.839714
-0.790274
-0.17054
0.807429
-0.636889
0.190138
-0.0210371
0.0047354
0.0163017
-0.210507
-0.230978
1.07398
0.819396
-0.470655
-0.34874
0.465379
0.734083
-0.501642
0.00872049
-0.285156
0.078705
0.78292
-0.861625
-0.342646
-0.111716
0.130464
-1.01805
-0.0456847
-0.778038
0.0319959
0.729608
-0.761603
-0.804328
0.0262906
0.652563
-0.764279
0.239076
-0.368351
-0.583242
-0.207032
0.374011
0.726398
-0.0128945
0.0101256
-0.0101256
0.000934609
0.0787875
-0.040237
-0.0205181
-0.00710563
-0.648664
0.309355
0.848293
-0.763752
-0.0845407
-0.64854
0.680536
0.737812
-0.0852491
-0.66327
-0.141058
-1.14022
0.0203193
0.0283278
-0.569959
-0.815775
-0.912362
0.509426
-0.118713
0.0728568
0.0458558
-0.336483
-0.233476
0.42167
0.711969
-0.0511645
0.0158649
1.22508
0.519995
0.210922
-0.730917
-0.521325
0.184842
-0.0152381
-0.00579898
0.653241
-0.909016
0.00560844
-0.00560844
-0.737088
0.70108
0.0360081
-0.157307
-0.108184
-0.69033
0.174437
0.557307
-0.0591568
-0.860869
-0.230403
0.0708632
0.15954
0.653395
-0.737936
0.348849
0.264494
-0.613343
-0.162534
-0.661416
-0.100187
-0.217093
-0.0559664
0.462237
-0.514307
0.207936
0.711874
-0.91981
0.499812
-0.0724446
-0.0462681
0.404668
-0.460634
0.599292
-0.0935483
-0.505743
-0.283933
0.302386
-0.0184526
0.624187
0.0676976
0.0763955
-0.308396
0.165003
0.143393
-0.223987
0.188962
-0.268895
-0.180681
0.0509666
0.129714
0.797313
-0.312802
0.155495
0.548693
0.250722
-0.721378
0.428652
-0.428652
-0.214573
-0.405894
-0.222187
-0.405894
-0.69267
-0.848869
0.179645
-0.110841
0.734412
0.0411086
0.12261
0.603788
0.110154
0.122486
0.00672112
-0.129207
-0.0399781
0.676074
-0.967478
0.315774
-0.0727384
0.0995529
-0.0268145
-0.722139
-0.170306
-0.621731
0.832653
-0.530359
-0.111537
-0.349097
-0.329123
-0.082908
0.082908
0.0506096
0.00968416
0.142805
0.261818
-0.746797
0.125067
-0.0671915
0.469433
0.530567
0.703945
0.0471529
-0.0273661
-0.0197868
-0.2951
-0.56577
-0.628168
0.11124
-0.11687
0.00563076
-0.125576
-0.417136
-0.0554051
0.612712
-0.553825
-0.168314
-0.243466
0.0866099
0.224036
-0.521728
-0.197392
-0.2019
-0.0109892
-0.496068
0.438168
0.0578996
-0.227503
0.291602
-0.862994
-0.533856
0.572734
-0.850435
0.6879
0.429351
-0.03244
0.0588534
-0.0264133
-0.0573999
-0.638052
0.0107763
0.627276
-0.891614
0.630543
-0.736941
-0.319957
0.00954357
-0.00954357
-0.299676
0.398477
-0.0279247
0.0479097
-0.000756808
0.597092
0.720788
-0.501836
0.00957932
0.00963582
0.000489772
0.00470472
-0.00470472
-0.495816
0.563514
0.0122276
-0.0122276
-0.766795
-0.011963
0.0173783
-0.574786
0.699853
0.647678
-0.61167
0.0707941
-0.0707941
-0.0674245
0.0181239
-0.00119842
-0.940744
0.459234
-0.44996
-0.00433331
0.582211
0.0264626
-0.608674
-0.699188
0.145363
-0.319428
-0.0142801
0.333708
-0.0396203
-0.0115442
-0.601788
-0.0362642
0.0283278
0.00579375
-0.000185317
-0.00370628
0.00370628
-0.250546
0.38026
-0.456546
0.139266
0.659077
-0.127129
-0.00539019
0.00539019
0.507905
-0.292205
0.00846165
0.0187842
0.000371406
0.49864
-0.790845
-0.515334
0.670829
-0.0514829
0.330321
0.756164
0.000934609
-0.1021
0.114276
-0.640601
0.552526
-0.42051
-0.116977
-0.0202546
-0.0253649
-0.0478842
0.445617
-0.0900568
-0.415686
0.671417
-0.00116346
0.00712731
-0.00712731
-0.100369
0.0112726
-0.574847
0.615955
-0.142695
0.508367
-0.211113
0.979247
0.702365
0.00579375
-0.871063
0.766168
0.145931
-0.122439
-0.0234922
0.443326
0.0949082
-0.0125908
0.0691245
-0.0565337
0.00888449
-0.00888449
-0.763319
0.0221471
-0.0475568
0.066341
-0.0884887
0.0884887
0.00963582
-0.00445559
0.69732
0.142574
-0.320205
-0.096931
-0.514778
-0.0975347
-0.0683222
0.0683222
-0.0872112
0.0819038
-0.0819038
0.0272421
-0.0272421
-0.350196
-0.0809093
0.24357
0.069009
0.04357
-0.756058
-0.0711199
0.163896
0.0150355
-0.256992
0.0809666
-0.0809666
-0.461126
-0.0531807
0.236109
-0.0142751
0.00208748
-0.618915
0.657006
-0.0522354
-0.0349758
0.0858891
-0.0677652
-0.0111096
-0.157362
0.168472
-0.15339
-0.21496
-0.083249
0.083249
0.0569008
-0.0569008
-0.0315164
-0.0952945
0.126811
0.00881197
-0.18532
-0.025881
0.0263708
-0.199458
0.579718
-0.0260072
0.500395
0.00442354
-0.00752513
-0.0523678
0.0523678
-0.726165
0.324016
-0.130281
-0.21235
-0.0238711
-0.0175982
0.0196857
0.208613
0.0309169
0.00322159
-0.00285019
0.0813117
0.0299279
0.0543265
0.10957
0.0100091
0.00585584
0.00151887
0.00290346
0.00691297
0.010049
-0.016962
0.00250851
0.00326009
0.0294784
-0.0294784
0.0515263
-0.0407202
0.0407202
-0.193131
-0.00462167
0.018602
-0.0758579
0.0183576
0.0762788
-0.0762788
0.266513
-0.244559
0.0911689
-0.0689467
-0.175613
-0.0180747
0.0180747
0.40277
0.254149
-0.516783
-0.0817555
-0.0351148
0.542036
0.094701
-0.0711827
-0.42329
0.0938108
-0.157122
0.17371
-0.0165883
-0.046351
0.046351
0.849975
-0.595701
-0.0155867
0.0180952
-0.0055807
-0.283659
-0.000937192
0.00523965
-0.0494377
-0.618618
0.567959
-0.673639
0.0149268
0.220983
0.0159544
0.0251257
-0.162703
-0.336338
0.26048
-0.0589388
0.0274224
0.166406
0.135979
0.258457
0.270145
-0.254191
0.00672765
-0.117252
-0.22663
0.0703425
-0.0160159
0.16499
-0.139864
-0.0695983
0.15091
-0.409146
0.12548
-0.107123
0.0597253
-0.475412
0.17895
0.173585
-0.243183
0.00648168
-0.176752
0.175815
0.00468773
0.146222
-0.0284926
0.052139
0.455766
0.0114036
0.026552
-0.0123293
0.0409761
-0.243219
-0.202473
0.589899
0.17421
0.0618991
0.0823622
-0.0614123
0.00318815
-0.0266803
-0.0303023
0.170006
-0.155079
-0.0213322
0.0107841
-0.10706
-0.0305299
-0.0154763
0.25376
0.00606046
-0.064577
-0.317563
-0.0161658
0.21585
0.143774
0.180241
0.057867
0.100804
0.0608167
0.536275
-0.0154431
0.0997901
0.0463183
0.0636074
-0.109926
-0.262635
-0.201641
0.0260287
-0.221652
0.291535
)
;

boundaryField
{
    FrontBack
    {
        type            empty;
    }
    Top
    {
        type            calculated;
        value           uniform 0;
    }
    In
    {
        type            calculated;
        value           uniform -1;
    }
    Bottom
    {
        type            calculated;
        value           uniform 0;
    }
    Out
    {
        type            calculated;
        value           nonuniform List<scalar> 10(1.1674 1.05498 1.21228 1.08238 1.15295 0.942338 1.04109 1.07527 0.643225 0.628081);
    }
    circle
    {
        type            calculated;
        value           uniform 0;
    }
}


// ************************************************************************* //
