/*--------------------------------*- C++ -*----------------------------------*\
| =========                 |                                                 |
| \\      /  F ield         | OpenFOAM: The Open Source CFD Toolbox           |
|  \\    /   O peration     | Version:  2412                                  |
|   \\  /    A nd           | Website:  www.openfoam.com                      |
|    \\/     M anipulation  |                                                 |
\*---------------------------------------------------------------------------*/
FoamFile
{
    version     2.0;
    format      ascii;
    arch        "LSB;label=32;scalar=64";
    class       volVectorField;
    location    "42";
    object      U;
}
// * * * * * * * * * * * * * * * * * * * * * * * * * * * * * * * * * * * * * //

dimensions      [0 1 -1 0 0 0 0];

internalField   nonuniform List<vector> 
808
(
(0.897464 -0.0103088 0)
(1.00326 -0.0360569 0)
(1.20103 -0.0953974 0)
(1.06612 0.00997843 -2.75514e-21)
(1.46278 -0.259583 0)
(0.952206 -0.0275151 0)
(1.11568 -0.0196289 -7.15997e-21)
(1.10865 -0.0257027 0)
(1.32851 -0.201492 2.20178e-20)
(1.2111 -0.0764081 1.52498e-22)
(1.32687 -0.0356935 2.3669e-21)
(1.3635 -0.221861 0)
(0.973319 -0.0258348 0)
(0.728349 -0.0160486 0)
(1.15465 -0.0177294 2.32916e-20)
(1.06707 -0.00674013 0)
(1.02094 0.0475506 -8.88269e-21)
(0.974229 -0.00216265 -1.52443e-22)
(1.34888 -0.0145916 0)
(1.11388 -0.00113601 0)
(1.32788 -0.0155025 -3.30294e-21)
(0.924413 0.130834 1.08736e-19)
(1.07113 0.00361963 -1.41574e-20)
(1.1678 -0.0442293 0)
(0.9693 0.198064 0)
(1.34681 -0.0200951 -3.45986e-20)
(1.26219 -0.156616 4.87249e-21)
(1.00568 -0.032543 -7.62657e-21)
(1.08535 -0.0137568 0)
(1.06386 0.0311125 -2.70259e-22)
(1.01728 -0.0284018 8.47998e-24)
(1.11683 -0.0159439 0)
(1.04999 0.0604064 0)
(1.10872 -0.0446893 6.26184e-21)
(1.26655 -0.0669174 3.6767e-21)
(0.747112 -0.0984862 1.11783e-19)
(0.856001 -0.0242633 -1.25069e-20)
(1.04762 0.0590944 9.80557e-22)
(1.16939 0.0440246 -5.058e-21)
(1.10409 0.0371793 0)
(1.23779 -0.0767382 -5.46163e-21)
(1.25843 -0.119021 0)
(0.997144 -0.0180989 -9.08498e-21)
(1.16171 -0.0314845 9.34154e-21)
(1.24975 -0.26533 0)
(1.01 0.0167171 -1.98268e-20)
(1.01521 0.0413653 2.84942e-21)
(1.23968 -0.226802 2.57295e-21)
(1.16379 0.055253 -9.94209e-21)
(1.37661 -0.14531 -3.1804e-20)
(1.11617 -0.003201 1.23388e-20)
(1.1409 -0.0636682 0)
(1.11073 -0.0067719 8.18111e-21)
(1.22001 -0.0444753 0)
(1.33812 0.205879 5.08391e-21)
(1.0641 0.0515127 -3.80393e-21)
(1.28904 -0.0443687 0)
(1.29847 -0.165591 -3.55746e-22)
(1.218 -0.0873458 -1.63701e-22)
(1.14358 0.039179 -1.43759e-21)
(-0.0262455 -0.279359 0)
(1.20662 -0.19515 -4.00355e-21)
(1.18181 -0.132423 0)
(1.37048 -0.0858164 -1.92461e-20)
(1.17188 -0.0608207 -8.79157e-21)
(1.02991 -0.0289333 -9.49288e-21)
(1.31198 -0.0634616 1.83063e-20)
(0.654874 0.0122463 0)
(1.2088 -0.0528151 0)
(1.44366 -0.323689 0)
(0.891713 0.022146 -3.20757e-22)
(1.27223 -0.11268 -4.26415e-20)
(0.995104 0.0256867 0)
(1.05719 -0.050865 -6.09883e-21)
(1.11364 -0.317914 -5.7533e-20)
(1.14011 -0.0183528 -1.73755e-20)
(1.14681 0.0197745 -3.26767e-22)
(1.3486 0.50432 2.59541e-20)
(1.09056 -0.035641 0)
(1.01663 0.292664 -1.79179e-19)
(1.34868 -0.0342957 1.66567e-20)
(0.761006 0.0110755 0)
(0.860953 0.0325061 -1.33445e-20)
(0.969237 -0.105338 4.37708e-21)
(1.14635 -0.024691 1.3275e-20)
(1.18449 0.00159718 3.4816e-22)
(1.31143 -0.211359 0)
(1.36452 0.281802 0)
(1.08693 -0.00153395 -2.12908e-20)
(1.47558 0.0169521 3.60825e-20)
(1.07787 -0.0208867 1.71425e-20)
(1.29281 -0.105493 -1.12534e-21)
(0.966235 0.0252775 1.67434e-20)
(1.00381 -0.0282073 0)
(1.10652 0.00203801 1.72423e-21)
(1.19935 -0.0458257 -3.31497e-20)
(0.772758 0.0159242 -2.05394e-21)
(1.31496 -0.123961 0)
(1.29073 -0.0828332 0)
(1.37414 -0.0393948 -3.3244e-20)
(1.10521 -0.0182362 -6.58791e-21)
(1.1235 0.00521598 -2.33754e-22)
(0.946008 0.0246556 1.49675e-20)
(1.18118 -0.00951345 3.84171e-22)
(1.29576 -0.0149348 -6.69606e-21)
(0.997525 -0.00152837 1.39139e-20)
(1.45042 -0.166167 0)
(0.868312 0.250408 0)
(1.08965 0.0330941 9.11098e-21)
(1.19055 -0.203565 -8.1469e-21)
(1.26798 -0.0291037 4.64274e-21)
(1.04512 0.045372 -1.20022e-19)
(1.15522 0.0435975 -3.94142e-21)
(1.12626 0.184249 6.866e-21)
(0.809202 0.0242226 0)
(0.919658 -0.0409256 7.59154e-20)
(1.14187 0.0220638 -1.05761e-20)
(1.4343 -0.223454 -1.68702e-20)
(1.1442 -0.054407 -8.81599e-21)
(0.930006 0.0127122 2.30313e-21)
(-0.211561 -0.193292 0)
(0.843685 -0.0197178 1.49452e-21)
(0.79301 0.0256059 0)
(1.05882 -0.000627806 -1.16085e-22)
(1.01638 0.0288777 0)
(1.32969 0.312782 8.58443e-21)
(1.03272 -0.0491695 -3.52803e-20)
(1.24722 0.241405 1.05696e-21)
(1.13962 -0.0622111 0)
(1.08859 -0.0230545 0)
(0.602428 0.112257 0)
(1.13643 -0.0415017 -4.27418e-21)
(1.23 -0.0453103 2.52799e-21)
(1.07387 0.110963 -3.2046e-20)
(0.845041 -0.0264741 0)
(1.09911 0.023604 -2.5381e-21)
(0.845062 -0.178149 3.37662e-21)
(1.04139 -0.0826401 -4.88379e-21)
(0.989491 0.0351694 6.21119e-21)
(1.1263 0.0072461 1.95962e-22)
(0.0494577 0.19075 0)
(1.08926 -0.0212845 -1.89416e-20)
(0.993964 -0.203912 -1.32184e-24)
(0.705569 0.0248736 -5.25877e-21)
(1.27633 0.159232 2.35988e-21)
(0.886966 0.12779 4.75045e-21)
(1.04391 0.0196074 1.95072e-20)
(0.990193 0.028398 0)
(1.07859 -0.238511 6.20971e-21)
(0.958727 0.177353 0)
(0.934837 0.0279329 1.1223e-20)
(0.970257 0.292853 1.43402e-19)
(0.971237 0.035117 0)
(0.822194 0.116987 0)
(-0.053404 0.255927 -8.02707e-20)
(1.35344 0.108745 -1.38234e-20)
(0.687615 -0.0201988 0)
(1.49888 -0.0836438 0)
(0.974648 -0.252174 0)
(1.36684 0.041269 1.61506e-20)
(-0.0465748 0.0201737 0)
(-0.0248974 0.234375 3.69297e-20)
(1.03661 0.022638 7.69951e-20)
(1.00465 0.039374 2.04752e-21)
(0.85182 -0.00404664 0)
(1.03733 -0.0490284 1.27661e-20)
(0.886082 0.0222771 0)
(0.757839 0.0452217 -8.32262e-20)
(1.0139 0.0498929 1.66504e-20)
(1.1621 -0.0510922 2.6471e-21)
(1.08997 0.012615 9.46838e-21)
(1.01633 0.0738777 -1.16427e-20)
(0.617408 0.122131 -4.72937e-21)
(1.12704 -0.334244 6.25677e-22)
(0.918539 -0.0191535 0)
(1.06622 0.00359096 -1.61035e-20)
(0.870495 0.00778456 -1.11652e-20)
(1.3438 -0.136737 1.70863e-21)
(0.685883 0.0160884 0)
(1.09203 -0.119546 0)
(1.12126 -0.0761004 3.15435e-21)
(1.41223 0.204761 1.1165e-20)
(1.11084 0.0170144 7.4907e-21)
(1.03588 0.0178781 2.01345e-20)
(1.03045 -0.0320329 -1.10141e-19)
(0.81283 0.00490336 2.00324e-20)
(1.11963 -0.0165499 6.71301e-21)
(1.32249 -0.0638201 -2.60623e-21)
(1.12219 -0.0640028 -5.74274e-21)
(1.27511 -0.0509204 2.23317e-21)
(-0.0450565 0.23184 5.86846e-20)
(1.25212 -0.0579848 0)
(0.616706 -0.0185124 0)
(1.05527 -0.0263002 -7.83869e-21)
(1.09443 0.0117891 1.25156e-20)
(0.203618 0.156943 0)
(0.876387 -0.0212808 5.82907e-22)
(1.09993 -0.0751237 -3.49392e-21)
(0.978808 -0.00164956 5.35587e-22)
(1.07795 0.0312462 -7.35012e-21)
(1.00106 0.023811 2.49757e-21)
(1.03304 -0.0594643 3.08208e-21)
(1.07032 0.0317745 0)
(0.408027 -0.00345053 0)
(1.05185 -0.0657108 0)
(1.21747 0.0984122 -3.08749e-20)
(-0.0707845 0.0664569 4.97627e-20)
(1.07904 0.00225991 -9.53041e-24)
(1.20952 0.0843057 0)
(0.742367 0.0246722 -1.1438e-20)
(1.20097 0.0474716 -2.59431e-21)
(0.0117885 -0.0350203 -1.65431e-19)
(0.694385 0.0817327 -2.25804e-20)
(0.634345 -0.0249255 0)
(1.02488 -0.0145113 0)
(0.930328 0.0152072 1.18879e-20)
(1.06328 -0.0739176 6.33656e-21)
(1.29994 0.399113 2.10935e-21)
(1.14475 -0.120043 4.63953e-22)
(1.15126 -0.157108 -4.22459e-21)
(1.02825 0.0356922 0)
(1.38407 0.426169 -4.32166e-20)
(0.652276 -0.00487059 0)
(0.804501 -0.0190906 -4.9358e-21)
(1.09354 -0.0269203 -3.97766e-23)
(0.602806 0.0126327 0)
(1.10047 -0.00666891 0)
(-0.0212405 0.168363 -2.90253e-20)
(1.17467 -0.24973 -1.12925e-22)
(0.750134 -0.0163418 4.7008e-21)
(0.990295 -0.00573513 0)
(0.576777 -0.0127873 0)
(0.771704 -0.0158864 -5.38747e-21)
(0.556184 -0.0237607 -1.36188e-21)
(1.33354 -0.0545321 3.12012e-22)
(1.31716 0.175115 2.42277e-21)
(0.7197 0.0163138 -1.62935e-21)
(1.18897 -0.0613279 2.41904e-22)
(1.22324 -0.23672 -4.37211e-22)
(0.552968 0.014294 4.19764e-21)
(1.27297 -0.141059 -1.02831e-21)
(1.17013 -0.16858 0)
(0.966799 -0.233365 0)
(0.512259 0.016335 0)
(1.05744 -0.0333164 0)
(1.20803 -0.053416 -4.43677e-21)
(1.0798 -0.229322 0)
(1.15602 -0.0838693 0)
(0.945841 -0.239139 0)
(0.92124 -0.0543445 0)
(-0.0263577 -0.0198353 4.94541e-20)
(1.14561 -0.136259 2.38395e-21)
(0.800926 -0.185619 0)
(1.30589 -0.054063 6.15566e-21)
(1.13245 -0.0499377 2.35384e-21)
(1.10505 0.0605171 3.13849e-21)
(1.05945 -0.0109318 6.51187e-21)
(1.04623 -0.151464 0)
(0.581551 -0.0119251 1.05254e-20)
(1.05412 0.0383582 1.13237e-20)
(1.15745 -0.154636 0)
(1.29757 0.0473365 3.3217e-21)
(1.14064 0.046455 3.69373e-21)
(0.820933 0.362643 9.79895e-21)
(1.19583 0.0258843 2.07129e-21)
(1.14059 0.198253 -6.14478e-21)
(1.05696 0.249954 0)
(1.0594 0.0553872 -2.60117e-20)
(1.13097 0.167197 -2.3566e-21)
(0.652704 -0.380449 -1.87028e-21)
(1.02406 0.0700766 0)
(0.00173616 -0.0191815 0)
(0.971318 0.117144 -1.71172e-20)
(1.20304 -0.00137411 0)
(1.15106 -0.0993125 -1.77615e-21)
(1.17118 0.0975725 4.41058e-22)
(1.19918 0.110395 5.90741e-21)
(1.05702 0.0924421 -3.36016e-21)
(1.29366 -0.0154785 4.36056e-20)
(1.011 -0.310593 5.80752e-20)
(1.06103 -0.0237571 -6.61566e-22)
(0.97939 -0.0348811 0)
(1.05121 0.269226 0)
(0.907072 0.00214929 -3.36331e-20)
(1.23066 -0.293952 -3.82508e-20)
(1.08921 0.114957 0)
(0.627574 -0.121308 7.63779e-21)
(0.622332 0.425622 0)
(0.769267 0.0596119 4.06106e-21)
(0.651428 -0.198288 -1.04288e-20)
(0.829104 0.0202554 -7.35409e-21)
(1.02929 -0.0433318 0)
(1.2933 0.2258 -5.14513e-22)
(1.21484 0.220748 -2.55413e-21)
(0.73415 -0.261076 -5.50267e-21)
(1.04036 0.0834548 -5.7902e-21)
(0.79297 -0.245702 0)
(1.09257 0.0585077 0)
(0.974495 -0.101787 1.3455e-20)
(0.782189 -0.151074 -4.1024e-21)
(1.19141 0.0733445 3.99469e-21)
(1.10732 0.0555435 -5.37262e-21)
(1.0842 0.19485 -3.98641e-22)
(1.13493 0.0510455 0)
(0.434796 -0.139896 1.42227e-20)
(1.3347 0.0134277 -2.06967e-20)
(0.76825 -0.30473 1.7763e-21)
(0.549322 0.235647 -1.03603e-20)
(1.38152 -0.108416 1.89292e-20)
(1.1031 -0.133785 1.03043e-19)
(1.06162 0.0404246 -1.37775e-20)
(1.06772 -0.00249069 -9.81507e-22)
(-0.106866 0.0960972 -8.54338e-21)
(1.00023 -0.00735502 0)
(1.03542 -0.0836625 -1.63656e-20)
(0.832543 -0.0343714 1.38217e-20)
(1.10593 -0.0564145 7.24435e-21)
(0.812644 -0.319723 3.32126e-21)
(0.520871 -0.0170537 6.10282e-22)
(1.40806 -0.361644 -1.61057e-20)
(1.15978 -0.0126568 0)
(1.07214 0.000459039 -3.95106e-21)
(1.15639 0.016502 -3.2131e-21)
(1.09271 0.230539 0)
(0.769514 0.315361 -1.42501e-21)
(1.12797 0.00743884 4.87761e-21)
(0.81852 -0.322432 -1.58174e-22)
(1.1046 -0.0478662 -1.10355e-20)
(0.84877 0.164075 1.90732e-21)
(-0.0403426 0.165892 0)
(0.738127 0.173598 5.54471e-20)
(1.21995 0.0208789 0)
(1.11822 0.348383 2.84297e-20)
(1.08348 0.367261 0)
(1.11133 -0.0302401 5.36954e-21)
(1.01385 0.0245587 0)
(0.921277 0.199512 0)
(1.34716 -0.0895327 1.3028e-20)
(0.793026 -0.0737336 0)
(1.26838 -0.129085 -1.36045e-20)
(1.1615 -0.0319613 5.45628e-22)
(1.07799 0.00654457 3.86119e-21)
(1.19377 -0.155726 -1.02143e-21)
(1.25255 0.0976324 -6.52373e-21)
(1.28936 -0.233788 -3.37074e-21)
(1.14056 -0.0445343 0)
(1.10287 0.000179381 0)
(1.06313 -0.0165198 3.40657e-21)
(1.16798 -0.0579074 0)
(1.47069 0.206762 -2.91213e-20)
(0.925018 -0.222511 -6.62764e-21)
(1.02775 0.0110186 2.14516e-20)
(1.27708 -0.0215141 -5.01167e-23)
(-0.0129937 0.0791522 0)
(-0.0304762 -0.00180448 0)
(-0.0819412 0.216244 -3.61043e-20)
(-0.123938 0.0733707 0)
(0.847107 -0.124446 9.84968e-21)
(1.1558 0.0236867 -3.52218e-21)
(1.15857 0.0643127 -8.63571e-21)
(1.13357 0.00824768 -1.04866e-21)
(1.13287 -0.0516655 0)
(0.706307 -0.025976 -3.40855e-21)
(1.07457 0.00427535 0)
(1.13133 -0.0350452 3.89453e-21)
(0.535908 -0.10782 0)
(0.893406 -0.0242893 5.42686e-22)
(1.05051 0.0602018 0)
(1.20288 0.0339037 0)
(0.484192 -0.113372 9.76321e-21)
(0.66046 0.229741 3.09699e-22)
(0.717418 0.0323871 4.68677e-21)
(1.01065 0.0184777 -1.06401e-20)
(0.206068 0.0488671 0)
(1.26236 -0.232571 1.13463e-20)
(1.26144 0.100132 -1.12138e-21)
(1.27163 -0.274601 -3.06034e-22)
(0.686594 0.27637 -1.13032e-21)
(-0.0609478 0.147676 -1.04754e-19)
(1.09894 0.105879 0)
(-0.0304121 0.0414836 0)
(1.16119 0.146463 5.67053e-21)
(0.512611 0.472997 1.21606e-21)
(1.20179 0.0788527 -5.06819e-21)
(1.09177 -0.0290004 0)
(1.2207 0.00978238 7.03472e-21)
(1.09026 -0.202784 -5.92833e-21)
(0.613142 -0.0110849 -1.04932e-20)
(1.11423 -0.0224661 -4.43744e-21)
(1.12031 0.00794028 -7.12109e-22)
(0.131551 -0.212108 -2.0591e-21)
(1.21975 0.0863933 -2.66808e-20)
(1.14427 0.0368172 0)
(1.08791 0.0871983 0)
(1.10078 -0.0305106 -3.59067e-21)
(1.20451 0.0891289 1.01344e-21)
(0.371961 -0.293579 6.59904e-21)
(1.18305 -0.107309 -1.91477e-20)
(1.1169 0.0713007 8.33085e-21)
(0.532358 0.00294899 1.69519e-20)
(0.0215411 -0.0960236 -2.37676e-20)
(0.38386 -0.465247 4.16285e-21)
(1.1825 0.181574 -6.84829e-21)
(1.22779 -0.477006 5.29946e-21)
(1.39019 -0.00606312 -5.25858e-21)
(1.12222 -0.039321 4.25531e-21)
(0.93077 -0.220313 9.4543e-20)
(-0.145523 -0.384059 0)
(1.2571 -0.0953233 1.32005e-21)
(0.31909 -0.229438 -2.55306e-20)
(1.14209 0.141788 -4.90668e-21)
(1.07993 -0.145138 6.72758e-21)
(1.08908 0.0309668 0)
(0.406547 0.264332 0)
(1.16085 -0.0494288 0)
(1.40297 0.293369 -1.16576e-20)
(1.25026 -0.0337917 -8.77629e-21)
(1.09888 -0.0232159 7.5406e-21)
(0.488254 0.0154804 0)
(0.648675 0.00875305 0)
(0.633972 -0.00385576 3.82209e-22)
(0.449239 -0.0114283 0)
(1.19255 0.137531 0)
(1.0173 -0.0129485 2.77527e-20)
(0.312722 0.299458 0)
(0.92595 0.0452722 0)
(1.2017 0.000465783 0)
(1.18488 0.170402 -3.97178e-21)
(1.28014 0.0265215 4.30592e-21)
(0.94819 -0.0299237 9.14631e-21)
(1.30911 -0.387118 -1.13321e-19)
(0.241175 -0.021468 -6.41324e-21)
(1.08637 -0.0163705 8.96737e-21)
(1.14484 0.144233 0)
(-0.115312 -0.682921 0)
(-0.265756 0.172648 0)
(1.10938 -0.0436836 6.24452e-21)
(1.3092 -0.268828 -2.38844e-20)
(1.38831 0.111805 0)
(1.06706 0.0101817 -1.20457e-20)
(0.648787 -0.367381 0)
(1.47676 -0.128973 6.53704e-20)
(0.422451 0.538603 1.01854e-19)
(0.341314 -0.000280596 0)
(1.1227 -0.266336 1.2164e-19)
(0.150272 -0.360881 0)
(0.121053 -0.252123 -1.53202e-20)
(1.42789 0.082939 0)
(-0.2088 0.118681 1.27013e-21)
(0.984416 -0.0521448 0)
(1.13464 -0.101494 2.61601e-21)
(-0.174763 0.198976 -8.33143e-21)
(1.1019 -0.0385215 3.07348e-21)
(1.20259 0.0603616 5.45639e-21)
(0.566682 -0.491963 -9.34469e-20)
(1.03228 -0.00140003 -3.63221e-21)
(1.18203 -0.118077 6.09001e-21)
(1.19045 0.245822 -1.76478e-20)
(1.0743 -0.0926523 1.7454e-20)
(1.12219 -0.0394423 1.22449e-21)
(0.342673 -0.353163 -9.04241e-20)
(0.1706 0.234799 -8.79825e-21)
(1.12676 0.107414 5.25127e-21)
(1.05805 -0.0456711 0)
(0.573221 0.259346 -6.45884e-21)
(1.40375 -0.420539 8.47955e-20)
(0.979506 -0.0212297 -6.28993e-20)
(1.50591 0.124067 9.10206e-20)
(1.08583 -0.0331194 6.90542e-21)
(1.16501 0.102676 2.19781e-20)
(1.05868 -0.0113574 0)
(1.17278 -0.029921 0)
(1.10754 -0.011725 -9.8872e-21)
(1.08689 -0.022255 -4.43878e-21)
(0.937536 -0.0884758 -1.80074e-20)
(1.07006 0.0583345 -9.82669e-21)
(1.36101 -0.0615667 -1.91641e-20)
(0.477624 0.0344343 0)
(1.10713 0.106242 2.12135e-20)
(1.35643 -0.000378131 0)
(1.08222 0.0707693 -5.19542e-21)
(1.13806 0.000935396 0)
(1.04087 -0.00924655 1.55991e-20)
(1.22671 0.00850984 1.35902e-20)
(1.00323 0.27578 0)
(0.0748714 -0.0239681 1.70288e-19)
(0.881544 -0.198755 -7.41483e-20)
(1.11389 -0.0751872 -9.84075e-21)
(-0.145681 0.1936 4.56335e-20)
(1.19343 0.0314928 5.56232e-23)
(0.752567 0.30698 1.05067e-20)
(-0.105105 0.240063 -4.75399e-20)
(-0.0270236 0.137786 -3.05727e-20)
(1.01835 -0.0265868 0)
(-0.0325506 -0.0345332 0)
(1.18441 -0.10584 0)
(0.111694 -0.0843004 0)
(1.09413 -0.0296509 0)
(0.180773 0.044257 0)
(1.12091 0.0559236 0)
(1.26346 0.00732454 0)
(1.32563 0.162461 -1.82261e-21)
(0.586807 -0.286978 -2.17629e-20)
(-0.0634813 0.292176 0)
(1.16787 -0.0532009 6.5441e-20)
(1.06368 -0.0656541 6.08663e-21)
(1.16162 -0.0786129 0)
(-0.0329177 -0.0413986 0)
(1.14523 -0.0184111 -8.92579e-23)
(1.14018 -0.0346057 -2.62246e-22)
(1.18494 0.396151 0)
(0.293065 0.0196679 6.68602e-20)
(1.12095 0.044323 1.21877e-21)
(0.260306 -0.0499697 -5.67669e-20)
(-0.0639272 0.0430241 -3.40922e-20)
(-0.0406035 0.0521269 8.82385e-20)
(0.57785 -0.207763 4.64292e-20)
(0.988207 0.173143 -9.88464e-21)
(1.13657 0.0727712 -8.01733e-21)
(1.02199 -0.0094841 0)
(1.06974 -0.0619132 -2.30804e-20)
(1.27608 0.0376208 -4.62798e-21)
(-0.00842644 0.0461486 1.07579e-19)
(0.971002 -0.0686542 -5.98133e-20)
(0.691307 0.351596 8.4885e-21)
(1.05946 0.0537537 -2.62439e-21)
(0.103044 -0.0227068 3.79782e-20)
(0.279275 -0.0327327 -5.25835e-20)
(0.479836 0.0133843 -6.06666e-20)
(1.25684 0.240872 -1.52454e-21)
(-0.0470412 -0.0355466 0)
(1.04294 0.285329 1.53432e-21)
(0.930489 0.171391 4.13191e-20)
(1.01095 0.0605639 -3.98347e-20)
(1.19213 -0.0772329 0)
(1.49509 -0.192421 7.28853e-20)
(1.13524 0.0661438 -3.08037e-21)
(-0.013176 0.00949087 -3.56844e-20)
(0.395297 0.113196 0)
(0.904653 0.0186951 -9.70937e-22)
(1.13514 0.0214677 2.0941e-21)
(1.02594 -0.391814 6.42212e-21)
(1.14194 -0.0200506 3.65734e-22)
(1.11907 0.0355661 0)
(1.17665 -0.150004 -1.61186e-20)
(-0.178761 0.128639 -6.87536e-20)
(1.27054 -0.0342464 6.74407e-21)
(1.10796 0.166043 -8.8839e-21)
(1.05572 0.0478329 1.12386e-20)
(-0.0428855 -0.0365541 1.67999e-20)
(-0.0214279 0.0566892 -7.14219e-20)
(0.445736 0.0554762 0)
(0.68495 -0.165695 0)
(1.15446 0.0864956 -1.55976e-20)
(1.05349 0.0605433 1.24077e-20)
(1.09692 -0.0327922 0)
(0.356162 0.145441 2.17611e-20)
(0.771711 0.0967664 -1.20024e-20)
(1.10342 0.102042 0)
(1.05832 0.0173232 0)
(1.30907 0.00402598 0)
(1.29674 0.0390089 0)
(1.06597 -0.1051 4.551e-21)
(-0.0443235 0.0455931 3.72346e-20)
(1.29967 0.115358 2.12965e-22)
(1.4005 -0.139306 -7.95287e-20)
(1.17019 -0.126312 -7.82147e-21)
(0.303003 0.00549308 0)
(1.07838 0.263865 0)
(0.638888 -0.00727585 -7.78672e-22)
(0.564239 0.0112723 -6.30314e-20)
(0.0732546 0.0386505 5.11738e-20)
(0.962653 0.00871629 3.67624e-21)
(0.765827 -0.272466 0)
(0.715605 -0.0839555 0)
(1.19069 -0.138695 0)
(0.554227 0.531016 2.95506e-20)
(-0.017672 0.0772963 -3.42228e-20)
(0.929995 -0.0453656 -5.40157e-21)
(-0.0195232 0.058624 6.75783e-20)
(1.08475 -0.0735381 3.33192e-21)
(1.18701 0.313242 3.36575e-20)
(1.10653 -0.0822465 1.00997e-20)
(0.71653 -0.234089 1.17979e-19)
(1.00863 0.176931 4.77996e-21)
(1.10438 0.16135 0)
(0.575107 0.279936 0)
(0.881721 0.298381 -5.65756e-22)
(-0.265024 0.265783 0)
(0.624815 0.0330997 3.54957e-21)
(0.606175 -0.415625 -3.04142e-21)
(0.247956 0.0515354 -1.20005e-19)
(1.12427 -0.212224 3.386e-20)
(1.04961 0.378102 9.72936e-21)
(0.983299 0.0257705 0)
(1.29231 -0.123266 -8.78596e-22)
(0.666839 0.0121744 0)
(1.0088 -0.0108716 -4.72608e-22)
(0.493466 -0.00135115 0)
(0.71861 0.151118 0)
(0.98527 -0.0277892 -5.82416e-21)
(1.46796 0.147999 -1.66399e-20)
(1.05172 -0.0608833 5.74571e-21)
(0.520209 -0.48624 0)
(1.12834 -0.145576 3.10701e-21)
(0.816587 0.399307 6.8381e-20)
(-0.0459583 0.017723 1.242e-21)
(1.1741 -0.0769779 7.52414e-21)
(1.20248 -0.000545111 -1.02585e-20)
(1.09036 -0.141419 7.51583e-22)
(0.806795 0.0144653 -6.44407e-21)
(0.0603747 0.0211821 3.9856e-20)
(-0.018031 0.116833 -6.07091e-20)
(-0.229919 0.229551 0)
(-0.0573069 0.295665 0)
(1.18606 -0.602864 3.225e-20)
(1.12214 -0.0260507 -1.19482e-21)
(0.899373 -0.463458 -4.30691e-20)
(1.11233 0.287712 -5.35061e-21)
(1.40785 0.184554 3.72527e-20)
(0.61982 0.434189 0)
(0.252828 0.435022 -1.09377e-19)
(0.608292 0.509089 0)
(0.292777 0.132079 0)
(1.11454 -0.458997 0)
(-0.0478125 0.212764 -1.29504e-22)
(1.18583 -0.0265561 0)
(1.00769 0.0537096 -3.71005e-20)
(0.613271 0.719454 2.14109e-20)
(1.43951 0.169695 1.70486e-20)
(-0.0473455 0.0156613 -1.20711e-19)
(0.967819 0.249313 -5.10976e-20)
(0.467652 0.149234 -1.45088e-20)
(1.20493 0.0574719 0)
(1.39125 0.354513 3.96264e-20)
(1.24838 0.58151 1.15476e-20)
(0.164479 -0.0194318 -2.32477e-20)
(1.06528 0.139185 3.41672e-20)
(0.962268 -0.0241103 1.49433e-21)
(0.932716 0.00586965 -5.66185e-22)
(0.0235005 -0.00827238 0)
(0.638681 -0.630241 -3.14725e-20)
(0.618672 0.226961 0)
(0.0213701 0.0540476 0)
(-0.0475634 0.0767351 0)
(-0.0504027 0.0539332 -4.52465e-20)
(1.2149 -0.0437645 -8.72963e-21)
(-0.0228354 0.102125 0)
(-0.0331047 0.115912 0)
(1.46408 0.0929827 -8.62699e-20)
(-0.0323642 -0.027702 5.4791e-20)
(0.117984 0.251973 -9.88723e-20)
(0.404775 0.0203446 0)
(0.16722 -0.259799 8.26575e-20)
(1.12025 -0.22858 0)
(0.987716 -0.269126 0)
(-0.0200175 0.0269878 1.13143e-19)
(1.13869 0.0153833 -1.46401e-22)
(1.13602 0.352038 2.66399e-20)
(0.268822 0.0305914 4.95043e-20)
(0.399009 -0.506282 -4.0117e-20)
(1.40521 0.0408265 0)
(1.26908 0.198133 2.35621e-20)
(1.25685 0.208155 -2.89366e-20)
(0.104303 0.109861 -2.32888e-20)
(-0.0581903 0.220272 0)
(1.06679 -0.0533498 -1.90169e-20)
(1.0936 -0.207556 -1.66899e-20)
(0.578657 -0.380053 0)
(1.0943 -0.141257 -2.68933e-20)
(0.0834352 0.264376 0)
(0.664794 0.0672773 0)
(1.36828 -0.0518015 1.04908e-20)
(0.980337 0.00963765 5.09462e-22)
(1.10377 0.767983 -1.16985e-20)
(0.221537 -0.365612 1.36338e-19)
(1.07428 0.0437995 -2.27773e-21)
(1.20484 0.0568727 -5.70749e-23)
(-0.0456567 0.18037 3.35116e-20)
(0.809226 0.755904 2.26332e-20)
(1.33881 -0.341118 -1.44096e-20)
(-0.260081 -0.174208 3.71384e-20)
(1.20497 0.0365624 0)
(0.601057 -0.0178885 -1.28254e-20)
(0.899878 -0.629489 2.74351e-21)
(0.924034 0.659239 -2.68226e-20)
(0.603579 -0.0167126 -6.97187e-20)
(1.12702 -0.0216543 -7.6331e-21)
(1.07364 -0.0823761 8.0022e-21)
(1.16121 0.0725964 3.19188e-21)
(1.10916 0.114464 3.83304e-21)
(1.12914 -0.12004 0)
(0.951815 0.109724 1.51751e-20)
(0.910401 0.47036 0)
(1.36093 0.197858 4.71526e-21)
(1.17031 0.0936596 7.04122e-23)
(0.773288 0.270134 0)
(0.535975 0.11346 1.14476e-19)
(0.9153 0.736219 -3.91164e-22)
(1.08661 0.292226 -2.04588e-20)
(1.04078 -0.0092724 1.40189e-20)
(0.425204 0.522722 0)
(1.28823 -0.4505 0)
(1.04536 -0.292452 8.04003e-21)
(1.29285 0.514581 0)
(-0.0293776 0.0640957 -4.44024e-20)
(1.27462 -0.397428 -7.04715e-21)
(1.18853 0.523491 0)
(0.457667 0.247698 1.67149e-19)
(1.15438 0.324632 -1.288e-19)
(0.804628 -0.615791 -2.71089e-20)
(1.16913 0.069463 1.22569e-21)
(0.948078 0.157429 8.72038e-20)
(1.09402 0.166889 5.02092e-20)
(1.09622 0.723975 -1.49838e-21)
(0.895869 -0.418219 6.64265e-20)
(1.46533 0.14502 4.45392e-20)
(1.11813 -0.00878985 -1.18652e-21)
(0.0254231 -0.0141246 1.05274e-19)
(1.07667 -0.687107 2.44968e-20)
(0.8625 -0.701349 5.63155e-20)
(0.247601 -0.299706 0)
(0.970463 -0.140524 7.41459e-20)
(0.369659 0.340335 -4.33881e-19)
(-0.196466 0.284535 1.74867e-20)
(0.260957 0.0761273 2.31749e-20)
(0.724262 -0.0480683 -8.13096e-20)
(1.10142 0.54771 0)
(0.990985 0.225718 7.94103e-20)
(1.08738 0.0243051 3.60484e-21)
(0.931806 0.463114 -8.81584e-20)
(0.776261 -0.71274 -9.23988e-21)
(0.935193 0.0339491 -4.89688e-20)
(0.995474 0.50849 0)
(1.33622 0.221961 -1.86267e-20)
(1.37338 -0.493887 1.34655e-20)
(1.21674 -0.320066 9.96346e-21)
(-0.00165016 0.087259 5.03431e-20)
(0.195381 0.0400949 -1.81478e-20)
(0.969933 -0.110498 -5.80315e-20)
(0.365391 0.554978 0)
(0.92941 0.028383 3.90191e-20)
(1.18366 0.652391 8.87939e-20)
(-0.177742 0.13099 1.46477e-19)
(-0.0453443 0.231668 -2.84697e-20)
(-0.102639 0.150475 4.45436e-20)
(1.0953 0.00931729 -4.82236e-21)
(1.14153 -0.452748 0)
(1.05605 -0.713032 -4.50798e-20)
(0.710204 0.372735 0)
(-0.0402592 0.157527 -1.02034e-19)
(1.06973 0.0298942 6.68093e-21)
(-0.0358878 0.0914887 -3.03379e-20)
(1.05144 0.0503762 -1.25101e-20)
(0.101557 0.0322168 5.75956e-20)
(0.881581 0.134017 0)
(1.30276 -0.0668486 1.87334e-20)
(0.0780832 0.107283 -2.6313e-20)
(-0.136986 0.227415 -5.98116e-20)
(-0.285618 0.274103 0)
(0.120815 0.00865372 0)
(1.27239 -0.0477208 -4.20608e-21)
(0.423953 0.00013203 1.68415e-19)
(1.25994 -0.707947 -2.03571e-20)
(1.07313 -0.387156 3.71875e-20)
(1.07887 0.251124 -2.90559e-20)
(0.361381 -0.532841 1.4311e-19)
(1.59197 0.267811 -3.72692e-20)
(0.0869884 0.0202221 4.07498e-20)
(0.21361 0.339798 1.93416e-19)
(0.137878 0.0215848 -1.5282e-19)
(0.935983 -0.474082 -4.4058e-20)
(1.4877 0.390671 3.7935e-20)
(0.55846 -0.658134 5.09922e-20)
(1.10296 -0.0747809 -8.01166e-21)
(0.189346 0.221775 5.40088e-20)
(1.22025 0.298468 -5.12415e-20)
(0.677636 0.667523 -3.82476e-20)
(1.33812 -0.608298 0)
(1.45501 0.530492 3.62483e-20)
(1.04391 -0.510054 -1.22027e-20)
(1.42232 0.620685 -1.12168e-19)
(1.19175 0.0220168 0)
(-0.0507189 0.130262 0)
(1.28125 0.74887 0)
(1.33061 0.0601789 6.59042e-22)
(0.735344 -0.282245 -2.08365e-19)
(0.479693 -0.0577585 0)
(-0.0384837 0.188046 -2.83699e-20)
(1.0209 -0.235499 1.01229e-19)
(-0.20563 -0.029517 0)
(0.324257 0.0560263 1.22628e-20)
(1.15523 0.0334874 0)
(1.45627 0.274856 0)
(1.19741 0.0607774 -1.31253e-21)
(0.359546 -0.263921 0)
(1.01499 0.149914 3.69518e-20)
(1.34212 0.286312 0)
(-0.0360659 0.24739 1.26945e-22)
(0.808095 -0.375583 0)
(1.55091 0.330118 -5.64135e-20)
(1.25589 0.376718 -1.84128e-21)
(0.861316 0.672835 -9.32113e-21)
(1.01316 0.154083 -8.76055e-20)
(0.961751 -0.192385 -4.89356e-20)
(1.48747 0.28884 3.31617e-20)
(1.09476 0.12007 0)
(0.567131 -0.0495555 0)
)
;

boundaryField
{
    FrontBack
    {
        type            empty;
    }
    Top
    {
        type            noSlip;
    }
    In
    {
        type            fixedValue;
        value           uniform (1 0 0);
    }
    Bottom
    {
        type            noSlip;
    }
    Out
    {
        type            zeroGradient;
    }
    circle
    {
        type            noSlip;
    }
}


// ************************************************************************* //
