/*--------------------------------*- C++ -*----------------------------------*\
| =========                 |                                                 |
| \\      /  F ield         | OpenFOAM: The Open Source CFD Toolbox           |
|  \\    /   O peration     | Version:  2412                                  |
|   \\  /    A nd           | Website:  www.openfoam.com                      |
|    \\/     M anipulation  |                                                 |
\*---------------------------------------------------------------------------*/
FoamFile
{
    version     2.0;
    format      ascii;
    arch        "LSB;label=32;scalar=64";
    class       volScalarField;
    location    "1670";
    object      yPlus;
}
// * * * * * * * * * * * * * * * * * * * * * * * * * * * * * * * * * * * * * //

dimensions      [0 0 0 0 0 0 0];

internalField   uniform 0;

boundaryField
{
    FrontBack
    {
        type            empty;
    }
    Top
    {
        type            calculated;
        value           nonuniform List<scalar> 
15
(
142.2730061229155
133.5515336011727
138.0629558030608
144.3842242458471
159.7604444203318
131.3667696457298
140.1084113914089
135.3406684917085
153.4361429473917
135.737073151356
136.0802709022485
136.7798621806456
125.2384276400919
132.90134741016
123.9508586562484
)
;
    }
    In
    {
        type            calculated;
        value           uniform 0;
    }
    Bottom
    {
        type            calculated;
        value           nonuniform List<scalar> 
15
(
155.5670514731308
158.1117984454222
141.1070693892331
142.081101077023
141.1899572804286
148.4596584824159
142.7164826364051
143.1692409667828
143.4227241902994
134.0658498644656
125.7393961555077
141.5613631110629
122.4127102963958
123.4900960574863
124.1460837680902
)
;
    }
    Out
    {
        type            calculated;
        value           uniform 0;
    }
    circle
    {
        type            calculated;
        value           nonuniform List<scalar> 
32
(
56.18492050449276
21.71975786474393
65.22820534582068
25.71210063828007
19.97775038268193
56.28578266052875
56.68794668343627
24.06274061653113
22.10095206000035
65.45175223798785
40.00812047454122
62.9459002718817
50.51511086882731
15.93451637414769
22.86629546850279
19.45672306658478
39.13267348027028
59.75570591346968
61.10439962862215
26.56523652983815
65.81205752987708
63.73129139420249
63.07408565294647
59.8262806699591
64.18954398002347
46.09031034711261
66.4632951249293
32.25355430799694
37.84342838322431
55.64064608908923
21.43796815385228
43.03425706588046
)
;
    }
}


// ************************************************************************* //
