/*--------------------------------*- C++ -*----------------------------------*\
| =========                 |                                                 |
| \\      /  F ield         | OpenFOAM: The Open Source CFD Toolbox           |
|  \\    /   O peration     | Version:  2412                                  |
|   \\  /    A nd           | Website:  www.openfoam.com                      |
|    \\/     M anipulation  |                                                 |
\*---------------------------------------------------------------------------*/
FoamFile
{
    version     2.0;
    format      ascii;
    arch        "LSB;label=32;scalar=64";
    class       volScalarField;
    location    "1882.5";
    object      yPlus;
}
// * * * * * * * * * * * * * * * * * * * * * * * * * * * * * * * * * * * * * //

dimensions      [0 0 0 0 0 0 0];

internalField   uniform 0;

boundaryField
{
    FrontBack
    {
        type            empty;
    }
    Top
    {
        type            calculated;
        value           nonuniform List<scalar> 
15
(
142.2864899686237
133.5694661126079
138.0611148787804
144.3916210100393
159.7601294084651
131.3663855899685
140.121787863921
135.3433711315702
153.4530273744659
135.7244459141533
136.0813968568098
136.7772889909091
125.2584395600097
132.9108456382871
123.9569981732036
)
;
    }
    In
    {
        type            calculated;
        value           uniform 0;
    }
    Bottom
    {
        type            calculated;
        value           nonuniform List<scalar> 
15
(
155.5682009813187
158.1172293964682
141.0993353592311
142.0566018501491
141.1839997858561
148.4415401808093
142.7106293240422
143.1525006602906
143.4211445396425
134.0661682580781
125.7320394223632
141.5616746117405
122.4066225657573
123.4856095125894
124.1363576692772
)
;
    }
    Out
    {
        type            calculated;
        value           uniform 0;
    }
    circle
    {
        type            calculated;
        value           nonuniform List<scalar> 
32
(
55.98374870371871
21.82198293613686
65.20198188401228
26.21967149971539
20.37064113472328
56.26324304562119
56.58195632880724
23.77278293730674
22.11107289869372
65.44307661144012
39.76526634776219
62.88947308289465
50.67691886536066
17.80337933569492
22.59371431848969
18.37242434245733
39.37911704636576
59.85128931387717
61.09198872381656
25.71950612017608
65.81932385117231
63.73357683450751
63.12396008286065
59.83696124573881
64.18653318182569
46.05327029759304
66.48573583949089
32.19282664357182
37.87172699305638
55.65785452971551
21.31295937659965
43.05671544923259
)
;
    }
}


// ************************************************************************* //
