/*--------------------------------*- C++ -*----------------------------------*\
| =========                 |                                                 |
| \\      /  F ield         | OpenFOAM: The Open Source CFD Toolbox           |
|  \\    /   O peration     | Version:  2412                                  |
|   \\  /    A nd           | Website:  www.openfoam.com                      |
|    \\/     M anipulation  |                                                 |
\*---------------------------------------------------------------------------*/
FoamFile
{
    version     2.0;
    format      ascii;
    arch        "LSB;label=32;scalar=64";
    class       surfaceScalarField;
    location    "698.5";
    object      phi;
}
// * * * * * * * * * * * * * * * * * * * * * * * * * * * * * * * * * * * * * //

dimensions      [0 3 -1 0 0 0 0];

oriented        oriented;

internalField   nonuniform List<scalar> 
1171
(
-0.9278969145047169
0.9278969144969839
0.7873135787008102
-1.098992737169798
0.3116791584066132
-0.1920321280838134
-0.7675917401474965
0.9596238682879669
0.07210309839576896
-0.1178046351659637
-0.2121321155959946
0.3299367509588344
-0.7873135871381262
0.06928911553232216
0.7180244716049609
0.8107382605383237
-0.1776933159766982
-0.6330449445162191
0.8739580867771285
-1.043777518756486
0.1698194319808023
-0.2849818548975386
-0.09836909822880838
0.3833509531351375
-0.03647009506812234
0.5486262392658287
-0.5121561442013384
-0.509069336454873
0.8294348892045574
-0.3203655528423582
-0.402786495121851
1.045531301322097
-0.1715732213971969
0.393818363800361
0.0506356643114922
-0.4444540278525562
1.046147920614097
-0.0006166208053600883
0.44606268889042
-0.05224431686058317
1.056591613814052
-0.01044369732969226
0.5801345669910654
-0.7721666969933104
-0.724060802139564
0.5567554872694446
0.1673053148757614
0.2148455679512022
-0.7239149036330687
0.5496849145042861
-0.9224195705910092
0.3727346561072638
-1.094227480449914
0.6865994379431871
0.4076280425172982
-0.5954828754116085
0.5590127848539866
0.01714173359809213
-0.2556558196665453
0.2385140859145431
-0.02299300388279086
-0.5250245714706328
0.548017575808326
0.4000120335073429
-0.498381134479132
-0.9188854240090284
0.9416749556408359
-0.02278953165432152
1.067893880438981
-0.01130226846227635
0.9350565683737235
-1.116852700353968
0.1817961319855651
1.067441862709982
0.0004520156012779507
-0.6642813240990327
-0.05977946987526518
1.262040546933302
-0.8644580983521172
-0.3975824485740531
0.148556436737804
-0.1098466140157062
-0.3251467553790894
0.4349933693846167
-0.2855307493401392
0.1919841743620732
0.09354657502929542
-0.5835544022829811
-0.5154383283059405
1.014146195276025
-0.07908962581928244
0.009873224309744983
0.8254925297123584
-0.8353657540305701
0.5716844026844912
0.6903561395072492
0.4387796296166928
-0.0311509839491964
0.4311630164253139
-0.8079944914768907
-0.1026004221334504
0.9105949136288487
0.5023774159802248
0.2541333240587626
-0.7565107400594011
0.004974885903613547
0.5312409872418747
-0.5362158729302198
-0.490009372689977
-0.6042181137255984
-0.4228207573344764
-0.6940319443948209
-0.02750814161221353
0.2708661698329475
-0.2433580282756409
-0.9249001779279035
-0.005183598113643594
0.9300837760323097
0.3080411032685182
0.07530984800691459
0.7617370265028548
0.04900123637963979
-0.5328965858340053
-0.06258628542200885
0.04610789179356817
-0.854102389058219
0.07726325437528324
0.862215940938992
-0.9394791953299854
-0.3470932047568155
-0.04056222288899074
0.3876554275042978
-0.6822621758941289
-0.242638001717149
-0.6335727492008381
0.7108360029954232
0.6127463866164996
0.216688503391767
-0.5433071182407758
0.9459191943278576
-0.7790597523377966
-0.1668594420097526
0.01347774770546437
-0.005157966265877873
-0.008319781648286877
-0.4033219946161672
-0.09505913854303938
-0.2417975887279328
0.8545439793056993
0.04857216051835793
0.3333925096717511
-0.3819646702285887
-0.461645521685908
0.9640229381364046
0.6803436097122977
-0.7829440384869265
0.3180574411763257
-0.0145376804389777
-0.3035197613220203
0.9306903103442804
-0.9306903103462939
-0.7820110746433412
0.1115245059062664
-0.3236566253383228
-0.7499696319640364
0.7598428577323324
-0.09127592603052111
-0.1429177806257512
0.2341937065265982
0.864864119523635
-0.03937158870965154
1.054636621593858
-0.800503297457972
0.1866842074578779
-0.3163714952606714
0.1296872879005631
0.8584423919244307
-0.09670536590466709
-0.6113713244801738
-0.03936410899077394
0.6507354334633421
0.1235066568428969
-0.2304122062013353
0.1069055493211507
0.8055259561895741
-0.9832192714014338
-0.4341752186308667
0.3290450497151427
0.1051301690455157
0.5335099335384935
-0.5565029404205811
1.022026843329053
-0.4562612648967442
-0.5657655784457433
0.5992060947515945
-0.7192619672788877
0.06643123106118223
0.6528307362565625
0.1019316552902131
0.5698227109631138
0.05489401225434656
-0.6247167232034209
0.1950121339247551
-0.08348763175967472
-0.492140432246208
0.1450472266792907
0.05030789949031782
-0.8865051137490872
0.83619721426503
-0.4743889161208048
-0.7131899854722038
0.0489086643258325
0.4367125845026802
-0.00554956642608821
0.300116620661822
-0.8553078488778582
0.5551912281896182
0.4157576658318783
0.5842423341856627
0.560624406054872
-0.5145165171914302
-0.3666295948652888
0.0394544231029828
0.3271751714312914
0.6812622372323489
0.2494280691106921
-0.5677918270418852
0.5727667206889477
0.1115658280561014
0.8748150795330157
0.01028520966534818
-0.6216565296688127
-0.7491085405329584
0.799416444617473
0.5304586090237896
0.07104553807947123
0.3002764334677899
-0.3713219715017384
-0.1675029593883142
0.4450462239155663
0.08619474530285466
0.8737272225318959
-0.8029757667780623
-0.07075145576894493
0.6354773034494671
0.3104418926195515
-0.4308301340206512
0.5743523395579413
-0.5033068026221023
0.4170334843112659
0.1326514302111143
-0.04678487002808483
-0.5900383010294541
-0.1395708943840787
0.7296091954321855
-0.1496880900957366
-0.7810022242827278
-0.6110607029240879
0.360163118581058
0.2508975843047075
0.6220431802127798
-0.6117579679851411
0.2386608287027846
1.011737473269156
0.04289915136805354
-0.7491085422438694
0.2231339880681747
-0.2096562455214168
0.6803436087857934
0.8019381012023415
-0.8019381012161167
0.8375964309260532
-0.8331073258409328
-0.004489105093811462
-0.4453348880260411
0.8610925530228816
-0.1474289035870333
-0.3447115248555028
0.7347726544296684
-0.6685748658981469
-0.06619778852594649
-0.7358113438978625
0.1457730475865477
0.1391459840331095
-0.6720425657497674
0.7829440421616557
-0.9504470015499121
-0.3667132198209768
0.2859352990100165
0.08077792007413609
0.1457002296416257
-1.00998506484891
0.8642848352030388
0.4806015524154011
-0.04182192279915902
-0.3080701830304806
0.5862255425894559
-0.2781553595428293
-0.7385300510594209
0.8842302783966791
-0.1570165663680674
0.7326737616402215
-0.836719282494251
0.1040455207761053
0.9776085553912763
-0.5396703388634234
-0.4379382165510001
0.7551532275128774
-0.06490102971981246
-0.03576759449684286
0.1854729102930298
-0.1497053156114374
-0.7757762679646807
-0.8396075615706021
0.07201582052156366
-0.7499696305575249
0.5139653255561601
-0.5545275475105632
0.09792115119263707
0.715987734278601
-0.8139088854685156
0.7535976421251011
0.1742992672629355
0.50292426172654
0.4970757382724855
-0.05514567203181787
-0.6094919639720608
0.6646376362283962
0.8789108359480923
-0.005183614806364326
-0.7551532275123435
0.7994164485913823
0.1916279606620462
-0.4472837804626646
0.01303761586232822
0.002998443401772944
-0.01603605912153883
0.589275245271055
-0.4374982885438503
-0.1517769566469807
0.7180244770088177
0.01180170826734016
-0.1069337992840722
0.4387528301477615
0.150522415879483
-0.01493085968636412
-0.00776467081082559
0.02269553044769318
-0.03218140153773585
-0.003586177517938698
0.2457089381079031
-0.260246622639958
-0.9589546703611327
0.001752405872668833
-0.159538221767286
-0.1210042747339729
0.09471802279331955
0.7222253488591233
0.7289344844752822
-0.1446921497468821
0.6698446870830866
-0.5719235346838996
-0.2119693129500929
0.3986535167324217
0.6956308975675226
0.02239357943337734
0.2417959533485091
-1.074903269952884
-0.9504470026062146
0.3024915402863884
0.7598428576120747
-0.2093182100341557
0.06640043008547106
-0.7239777531729771
0.9100919751271775
-0.1861142219782815
0.4159525961854164
-0.02829717258999974
0.7712961895245268
0.2807380321418118
0.3763971126592425
0.06966556627031184
-0.6587148792052291
0.6587148792060528
0.2148331072041465
0.6957618003737989
-0.0562038949475625
0.3895963939262065
0.3787894767142894
-0.01234386945613713
0.02538148938144681
0.4484127882304299
0.03218876936064854
-0.7385300524193484
0.5339803142578823
0.2007923451604871
0.3004780121697526
-0.1150051090169818
-0.6956309012039705
0.1794926923348952
0.7305992818194721
-0.0102780591337482
-0.8135770838625189
0.8238551430004012
0.6964150872488084
-0.7919474768416932
0.09553238961241453
-0.7535976424190373
-0.1511564712522049
0.2123526632151245
-0.06119619191145426
0.07758043276891007
-0.1781689634039001
-0.113419353308781
0.2915883169810439
-0.005335636007883728
-0.009595216464861575
0.7064899458373582
-0.7167680057982545
0.886938712018097
0.07268515373050378
-0.315379348000536
-0.5205181520788047
0.8358975001346042
0.1040746848884249
-0.1040746845582553
0.3253897347497099
0.4731674752967732
0.6157920841972265
-1.088959559539775
-0.1940772894618994
-0.5855886116525165
0.7796659011156155
0.01370049806561305
0.2204932065949262
0.3762214534733124
-0.2527147958188619
1.015918040096109
-0.5427505661528367
0.6684297534862967
0.9933974814219741
-0.3776053973957266
0.2287925513490804
0.8842302777283582
0.7126570542750321
0.2139068772002994
0.7277680768506924
-0.7810022264361368
0.3412851201617421
-0.2815316265127583
0.2565113965566434
0.02502022917699083
0.8476523824259046
-0.001104337073606648
-0.8465480453369966
-0.7022133542291568
0.7026653688164035
0.5546651108898464
-0.7022133552501582
-0.712657054282564
0.7026653669856592
-0.03428189697016704
0.9096487391859531
-0.02271002773438259
-0.681262233680454
0.6122792477205591
0.06898298595268139
0.5384929498683942
0.5376298671818761
-1.076122817038189
0.4874399110688587
0.52847812859141
0.5465230306137279
0.4574599041140175
-1.003982934727609
0.4925197748210114
0.5008777057912137
0.6122792456076608
-0.5256044944633194
-0.4661680282258263
-0.5566198284248067
-0.5143089694526499
-0.1207315460110025
-0.01262907560534204
0.01262907558793538
0.5114405250375321
0.5242110145695185
-1.038519984037615
0.5721889282816758
-0.27191249446529
-0.8838522319078619
0.3441818917131277
-0.6330099019569437
0.3903719009428189
0.001408892552524636
-0.8255784788239806
0.8241695862393863
0.4208643013236029
-0.02299986798034273
0.870652251034759
-0.9489520982528798
-0.8328568385170557
0.05443316724392745
0.778423671243869
0.5639999542906733
-0.4398689321923685
-0.1241310220153252
0.6502741465577593
-0.729363774287567
0.8885743281847105
-0.8281011677926584
-0.06047316041080647
-0.01379878567735436
-0.7891769823534921
-0.1108079811283781
0.7120474165588062
-0.6012394354325982
-0.9397020023603032
0.9259032172324201
-0.725558207505241
0.6895678736097441
0.03599033388123456
-0.8070947028015448
0.0333203451823626
0.7737743576201255
0.06196012764273085
0.04211455357071764
0.4327680532819057
0.060377774654035
-0.8513005361470106
0.7909227614749611
-0.6459365135807877
0.590790843433567
0.888178906280094
0.0729519744161377
-0.9611308807378516
0.05532206468177684
-0.04973928839769157
0.3769144642928514
-0.3819594018502889
0.0655879070373639
0.8410570416308371
-0.8396481515413572
-0.7344095470267689
-0.8166730671657095
0.02749608417120097
-0.1644457381465608
-0.8502635711158518
0.02216240112230601
0.6215126826580736
0.04833200299489702
0.02912466494625863
0.5348752861976434
-0.8130130560232347
0.846333401608857
0.5657655722285444
-0.8485783514445903
-0.8667500310621484
0.04289870784567105
-0.02717414736756901
0.8353276451026731
-0.8081534977474709
-0.02609398975232385
-0.7615836936306302
0.5442986339698175
0.1521164469584079
-0.02231458929895248
0.892966839113229
0.9803363814430686
0.8626028118105882
-0.8404404122107906
0.1479648384644597
-0.1479648386879274
-0.1177501268347582
-0.4699637513252595
0.03009481654729695
0.2703988550802924
0.03209268519929961
0.3881988357091359
0.8668728495669853
0.009388186542651559
-0.01472383611931244
0.6585827064962269
0.341417293506596
0.783662313107529
-0.5835544045418902
-0.7781097141843351
-0.8092578349430858
-0.6798758331950329
0.6798758331877454
-0.1681621431552643
-0.1554944871734427
0.602382459591331
-0.8116750426312251
0.2092925830346833
-0.4940520075052876
-0.5689007366612273
0.2779959678306826
-0.9720279096274502
-0.8998241694855885
0.8393510067987284
-0.8133820813618066
0.8408781665298884
0.6486232632435464
0.1341609354490497
-0.7827841986877392
-0.7732675003230826
-0.1464145277653721
0.7248178934614159
-0.5784033656700612
0.03295132099404185
-0.01194196993870645
0.01621726110834494
-0.004275291088307976
-0.3533990364278014
-0.1165647132242839
0.8803784278283765
0.7472134029758963
-0.2448053028388023
-0.5024081000035855
0.6230823812590158
0.685733018366703
-0.4708999136744192
8.324408216699598e-05
-0.2856139946646825
0.01399793769129596
0.7514361761738247
-0.7654341139072653
-0.3234046455471509
-0.07316980564561379
0.07646702958211779
-0.965926093660436
0.1193780476973913
-0.6775141066419291
0.05344542171819543
0.6397504001109151
-0.6931958218228034
-0.7560061521233264
0.07849204547530475
0.5885173699079648
-0.6616871755534123
0.1575172167648456
-0.3356861828316154
-0.7710689070866453
-0.002198593221124844
0.3710831820252737
0.5999145892841145
-0.02556224994590555
0.01895682708085818
-0.01895682740875189
-0.02039376502561082
-0.04860731731568124
-0.2329243108382503
0.02854432555098125
-0.01915612462260326
-0.7227369015129783
0.2792755141888411
0.6800794215866337
-0.6887516333459635
0.008672211760795825
-0.5937239998690322
0.6471694195493255
0.6541433543429733
-0.06562598658744487
-0.6306571492298824
-0.1253490047939218
-1.050671836165462
0.01106694848387965
0.1368978920591206
-0.7087389607102333
-0.7414651306805392
-0.7636383811170688
0.3660559280718443
-0.4067216312465169
0.4601134088428122
-0.05339177780801514
-0.6624709001369152
-0.04626806056725987
0.5013054372817478
0.7306858194265334
-0.2358516507214664
0.1148473764943883
0.9681246844910505
0.4468287236815537
0.1326968352214714
-0.5795255588939049
-0.6766653152522204
0.01419441353076924
-0.04467051754778188
0.0327285647570566
0.6364360741546685
-0.7760069672919171
-0.001815269752963128
0.001815269563445157
-0.6010569733159213
0.649260109932892
-0.04820313654405008
-0.647540650250169
-0.1133642355830185
-0.6715401070921718
0.06110463089931272
0.6035330045173432
-0.1374559784072224
-0.8179546327685445
-0.5726334118912193
0.568592901230493
0.004040511094763402
0.6284064391285594
-0.6197342288484623
0.3225680047917671
0.213764067767072
-0.5363320725657387
-0.1050290523725012
-0.6014228747568477
-0.09177294810414079
-0.1542282492607877
-0.5115287731364399
0.4041611363113974
-0.4992202745998813
0.1267468479422726
0.6785402927928612
-0.8052871407661741
0.5992060947495335
-0.3681899845915164
-0.03853163880856966
0.07822454525793916
-0.589753317329075
0.5514274369935175
-0.04061431796016353
-0.5108131190635395
-0.3131745407984114
0.3057630880255122
0.007411452988960328
0.4535146331358935
0.1186742913914431
0.05272048184202536
-0.3165906702278666
0.1575929874573682
0.1589976828026711
0.2317570965762173
-0.008623096256095471
-0.2931469324050588
-0.3099816272459862
0.3493585299810353
-0.03937690201424863
0.7878078040504441
-0.6257396611178448
-0.0218009890170088
0.4992333215955658
0.2836890660051034
-0.5284943726468847
0.5774873490335898
-0.5774873490322108
-0.2897463016084098
-0.5864539637215728
-0.295585450924322
-0.5864539637622426
-0.5950749557260224
-0.8384930198502043
0.1699181563703503
-0.5956448330254605
0.8211124686440699
-0.003100115065021046
0.1174498944535932
0.4824646942946439
0.09678920418040646
0.186108091396106
-0.03649924498359221
-0.1496088466398371
-0.02705194576983258
0.5913158702264821
-0.9440118052930349
0.4234936514791262
-0.008323490461213454
0.003855117795829048
0.004468372294527464
-0.6440293538106511
-0.1319203249600912
-0.4684684178976077
0.6011652509759873
-0.5035086836144869
-0.326146710378193
-0.2636065937734334
-0.2714270756700937
-0.111477768139104
0.1114777683710827
0.1530430719944366
0.05930960070465613
0.197175046271498
0.4514903062970865
-0.5709645306310998
0.1024961125802963
0.2481878934663164
0.4665197328539718
0.5334802671299518
0.64351131607814
0.08810231397461006
-0.004680980782346781
-0.08342133473913543
-0.2771126704213947
-0.5408419623015627
-0.5505885417957067
0.1148417612506411
-0.1266754996427396
0.01183373841593793
-0.10542856373221
-0.3853258475851002
-0.04978732070386295
0.6533203286252162
-0.4991383055889101
-0.1448910482328666
-0.3313046944250058
0.288134130891742
0.1283697627722692
-0.6181915924224564
-0.2046613808017543
-0.2630368180092088
0.002790197881319751
-0.4216928478809827
0.3238664854611834
0.09782636232518886
-0.09550846422000271
0.2917321158513427
-0.8959502305580757
-0.4574113987238548
0.6262683827561141
-0.7732583238511354
0.6682292714800089
0.3398571011150365
-0.1240614280422071
0.2237081587556426
-0.09964673069383954
0.02743519066037059
-0.586270063252445
0.02878720483078391
0.5574828584414915
-0.9006039879142889
0.5479000664972292
-0.6656501933746976
-0.1046607995737114
0.1098972962849906
-0.109897296231908
-0.3165074304580794
0.3591344393175038
0.01778002127983267
0.0287079569643455
0.05939438153832694
0.504896357870413
0.6654659099029987
-0.7362173668679595
0.03170640167446902
0.02071515585818244
-0.001758329475616635
-0.007083306638458006
0.007083306796435334
-0.4133435478917127
0.5320178396005169
0.0157741209896327
-0.01577412100061503
-0.792551001877175
-0.06114899759590685
0.1231091202103631
-0.4565072977859229
0.5590034106342168
0.4521222803142961
-0.5003254145522845
0.1503253826247554
-0.1503253828995392
0.03325236619181018
-0.007870874457487846
-0.04254360244152261
-0.9751527656790943
0.537214547571861
-0.4667353289118728
0.0421145542006881
0.5150886649220483
0.03069937367901182
-0.5457880385739824
-0.6165079513612781
0.1173696444863506
-0.3290030991385732
0.0135340847898097
0.3154690142081937
-0.1558332556125491
-0.08001839261941582
-0.541042114001687
-0.04522795519563697
0.1368978909187206
-0.0399757993741004
0.03816053653109876
0.08050340111538484
-0.08050340141892691
-0.527000854592876
0.4876239461509648
-0.4149152315619991
0.1613119346089905
0.6223503784939375
-0.09706086932830175
-0.002739572264624514
0.002739572393834233
0.5329509572811234
-0.08331630877388262
0.005822615375138699
0.02700059162240694
0.03503123183389122
0.6855391220284333
-0.768855430765048
-0.6537035773612138
0.6319025899418949
-0.1076008782518874
0.3139706783015784
0.7456782018772451
-0.0203937651415242
-0.2657606758162346
0.1507555681605063
-0.7445941005518691
0.4838759947647261
-0.4280523380452187
-0.101419295610553
0.003256513457471249
-0.01430607541773589
0.02386334787454609
0.4109782458916192
-0.1215183467306604
-0.3892947789073686
0.6288576880047038
0.01971240367745898
0.009580442830072016
-0.009580442948089922
-0.3504099639484056
-0.07551054622307511
-0.5602395747750919
0.5571394597394925
-0.2374807873986697
0.4647071947973246
-0.1510146517348519
0.7311492181055488
0.6698079144945682
-0.03997579852291704
-0.617784982155225
0.562874115226036
0.2849634418050203
-0.2801740789837486
-0.004789363108940098
0.5363941311239965
0.09342186846081914
-0.03900553144204143
0.1958557057649981
-0.1568501743768485
0.119508917722387
-0.1195089177355351
-0.8586470385789817
0.002360543469952408
-0.1136874132457679
0.1406880048879376
-0.1314921929943571
0.1314921932796309
0.02071516739158783
-0.02313333835021476
0.669828728897273
0.06077055115451951
-0.3225716282807908
-0.0627542194719586
-0.4712502150661906
-0.04634124244529642
-0.1512017690967352
0.1512017694130023
-0.05016896579299746
0.1437327750039487
-0.1437327753360417
0.1360467306953119
-0.1360467305660648
-0.3161759402324889
-0.1146541938064731
0.2259354137165161
0.1031096383161786
0.03479189675179511
-0.8211899452455553
-0.1986049771416999
0.16987373466587
0.02175422770183767
-0.2641756336348121
0.1262434989544791
-0.1262434992478705
-0.4143178964986037
-0.08490237717753327
0.2356701938708203
0.002843893389097852
0.04052759477319286
-0.5443175350834379
0.5785994320548886
-0.03744417062856525
-0.01272479593439003
-0.02538131636056579
0.01751045504419818
0.006592613179970834
-0.1848585324711241
0.178265919218915
-0.1086262918326582
-0.2270598839683978
-0.1443260118418078
0.1443260121713944
0.0724363862421897
-0.07243638604371955
-0.01895691071316773
-0.1085277527433925
0.127484663351985
0.2358898226085177
-0.1834872590015276
-0.02743111740921448
0.02567278853021736
-0.1313488753727974
0.6189728210180881
-0.03904138132378397
0.4276545386257626
-0.04319042353466049
0.06588595628015974
-0.1529073722165858
0.1529073725004837
-0.636862999041905
0.3080516484164907
-0.07925909743050087
-0.2340202187125144
0.003608006705565689
-0.120600623719673
0.1611282184226918
0.1958721019430073
0.09571621679213711
0.09694416168399023
-0.06191292967701023
0.07318129318958981
0.04166046680210498
0.06418987161719367
0.1056838609144003
-0.09948716166324471
0.2143345248787362
0.01139572834709862
-0.1186433021697843
-0.09964203731732997
0.09604159789893094
0.003600439151828517
0.01113473186836122
-0.02347802160424897
0.03738032442147289
-0.03738032438385707
0.07525507897734202
-0.0553576557027345
0.05535765573036327
-0.2243664247513061
-0.05275734404070647
0.01169480871762502
-0.1030676825460626
0.01653780317371036
0.1088518639821786
-0.10885186415258
0.2936984599654082
-0.2708520002241896
0.1622257069006441
-0.05103586104153043
-0.219816139696782
-0.01687286841509472
0.01687286831982592
0.3676601625244537
0.2851705710076231
-0.5281452553143089
-0.09393578086003369
-0.03273971648411003
0.5289720933272816
0.210508491309684
-0.1700444549328235
-0.3795133744737689
0.07651836809784382
-0.1471596376551981
0.1867225998062669
-0.03956296204159191
-0.06719139826647691
0.06719139811582846
0.8221965699729673
-0.5603959694080226
-0.006050525989391172
0.01718525728802079
-0.02001440671718959
-0.2874148057845839
-0.01748928258649893
-0.01283381508894878
-0.1322045445844627
-0.5723192104237108
0.5561525943130062
-0.5691434808331025
-0.006875740837871429
0.1008398338636454
-0.001705609474218344
0.0168606523864023
-0.167174037163217
-0.3360548541529648
0.2329871715528535
-0.05401296872368939
0.03505606038123327
0.1321193185864484
0.1736437643567221
0.341857593489846
0.2758210039910643
-0.2775266136042522
-0.06148148719048548
-0.1552954900615727
-0.2204861252464046
0.07452042752156997
-0.01033055787834653
0.2134225481649242
-0.1965618958134384
-0.08627934785919408
0.1594606434277712
-0.355379412075879
0.2078860383619395
-0.1913482351058171
0.08958445617186367
-0.4788792367766125
0.173888786707338
0.1707667184497177
-0.2570460681634007
0.07346613844140054
-0.194936368397034
0.1774470858229466
0.01739163399938307
0.1420690115695469
-0.03958353317246372
0.06560984643718945
0.4673411108438197
0.02050745633887347
-0.08605148273896164
0.05366370285294576
0.1263819290893738
-0.2600490742581906
-0.2309246842452353
0.5597444821397686
0.1569394357849309
0.07873075581943399
0.07454912438735152
-0.03101761321067451
-0.008640752871189039
0.00385138848380831
-0.03264699470795032
0.1706210545412142
-0.1774967954266038
-0.06218813501848746
0.01962227122175381
-0.1472483000768317
-0.05286736078272858
0.1521464109354284
0.2770358663048341
-0.03965627324403508
0.008869691362540257
-0.2553570535524543
-0.1327757374517913
0.2363546195891077
0.1783399992125894
0.1297116535617137
0.02207431550438775
0.08844327884800453
0.05245607636423778
0.4524402814954593
0.01499614917881979
0.09804839316826518
0.0429775559032272
0.07232324673799881
-0.1153008024600053
-0.242974686353452
-0.2004143200755984
-0.01940182035563995
-0.2018433689770521
0.2747588761888079
)
;

boundaryField
{
    FrontBack
    {
        type            empty;
    }
    Top
    {
        type            calculated;
        value           uniform 0;
    }
    In
    {
        type            calculated;
        value           uniform -1;
    }
    Bottom
    {
        type            calculated;
        value           uniform 0;
    }
    Out
    {
        type            calculated;
        value           nonuniform List<scalar> 10(1.033962941671564 1.064097444480245 1.022787856648676 1.020997903439919 0.9950897710040935 1.015186675184483 1.035651539252149 1.062952744150564 0.8672336506549219 0.8820394146518411);
    }
    circle
    {
        type            calculated;
        value           uniform 0;
    }
}


// ************************************************************************* //
