/*--------------------------------*- C++ -*----------------------------------*\
| =========                 |                                                 |
| \\      /  F ield         | OpenFOAM: The Open Source CFD Toolbox           |
|  \\    /   O peration     | Version:  2412                                  |
|   \\  /    A nd           | Website:  www.openfoam.com                      |
|    \\/     M anipulation  |                                                 |
\*---------------------------------------------------------------------------*/
FoamFile
{
    version     2.0;
    format      ascii;
    arch        "LSB;label=32;scalar=64";
    class       surfaceScalarField;
    location    "619.5";
    object      phi;
}
// * * * * * * * * * * * * * * * * * * * * * * * * * * * * * * * * * * * * * //

dimensions      [0 3 -1 0 0 0 0];

oriented        oriented;

internalField   nonuniform List<scalar> 
1171
(
-0.9279371374720247
0.927937137522117
0.7873188035457312
-1.098827720350184
0.3115089163879849
-0.1943688159973857
-0.7659188776324681
0.9602876938429104
0.07206286370067369
-0.1169445502676459
-0.2118470193435147
0.3287915710857151
-0.7873188132534148
0.0693844206289726
0.7179343926034167
0.8112281670372153
-0.1774832302688397
-0.6337449365564826
0.8744048590439125
-1.043649693689961
0.1692448345821854
-0.2849052289673116
-0.09744320484244788
0.3823484332511399
-0.0358639878712086
0.548493905025299
-0.5126299170512932
-0.5037592672000309
0.8263791518279925
-0.3226198849038066
-0.4018497857759392
1.045915808555899
-0.1715109511558777
0.395443255740593
0.04766053619507528
-0.443103789338733
1.04634381858693
-0.000428011331072815
0.4449834214970749
-0.04954016270126154
1.056991918514206
-0.01064809946803986
0.577495792738991
-0.7718646143243382
-0.7244715599734338
0.5571636819765616
0.1673078781569059
0.2219189566497748
-0.7256782173893255
0.5505441229162862
-0.9228149612027065
0.3722708395879342
-1.094163079429536
0.6863717459542028
0.4077913333510106
-0.595379251662897
0.5595152538100161
0.01828651933201432
-0.2570733112812733
0.238786793040705
-0.02457411055595119
-0.5217313682539396
0.5463054804348461
0.4000496956027252
-0.4974929064899467
-0.9187569709796203
0.9413955561775669
-0.02263858527842946
1.067581470546377
-0.01058955150305644
0.9351405298647676
-1.116907010226332
0.1817664805206063
1.06719114092116
0.0003903313234646225
-0.6643713646496939
-0.06010019936256645
1.262214785037773
-0.8643338403853539
-0.3978809446237167
0.1484341722074428
-0.1088708958153722
-0.3262277310572353
0.435098626332225
-0.2857633865344713
0.1909467190703594
0.09481666688167682
-0.5834203144744949
-0.5154074006494147
1.014050452477798
-0.07890992154261618
0.009948839114161839
0.8254309167133251
-0.8353797559389031
0.5718741166450879
0.6903406660191076
0.4396230031415499
-0.03022263239355917
0.430272328846546
-0.807662043716699
-0.1025795709743024
0.9102416148603124
0.5026256663240799
0.2536998463814008
-0.7563255127473585
0.004376159010665299
0.5281398542569921
-0.5325160120382327
-0.4898497997946372
-0.6043132821686648
-0.4228924261894046
-0.6940145837575575
-0.02721681380774651
0.2700815819996466
-0.2428647696800089
-0.9248076147735204
-0.005145790071764537
0.9299534047289042
0.3081660581849547
0.07418237103739864
0.7624119919168042
0.04881617885952087
-0.5331307617329516
-0.06224849063843199
0.04632222396329727
-0.8539842693415438
0.07549184120142653
0.8624111622197052
-0.9379030034992947
-0.3473400917256358
-0.0414530539032331
0.3887931449813478
-0.6823449106246073
-0.242462711142497
-0.6314150497055306
0.7069068914734075
0.6093287203092577
0.2170504375625011
-0.5428525593595089
0.9461333140703475
-0.7794160135940684
-0.1667173005967528
0.02254194021050943
-0.01739387494542259
-0.005148064003403943
-0.4029471903117116
-0.09454571575447604
-0.2415151045825248
0.8508438280563477
0.04620243109606716
0.3352585378689207
-0.3814609698017067
-0.4602248562181617
0.9628505273466782
0.680106465066331
-0.7826860392473973
0.3195044952514618
-0.0172483521832172
-0.3022561447450385
0.9306858241776417
-0.9306858242108227
-0.7828447319201171
0.1106955787904739
-0.3225426027356486
-0.750045465189204
0.7599942997940344
-0.09021069611701904
-0.1429099110009477
0.2331206057987198
0.8649990103754532
-0.03956810030510059
1.054268284076151
-0.8005684310513607
0.1859428570439665
-0.3154264914768861
0.129483634987777
0.859429947435291
-0.0970179541660913
-0.611839982569627
-0.0392538805057004
0.6510938630193532
0.1238669938508247
-0.2312079975043711
0.1073410052152412
0.805687268835017
-0.9831704956895753
-0.4354884204004029
0.3296834796556984
0.1058049419493943
0.5313322926568711
-0.5559064038693258
1.022095167297242
-0.4562445768308091
-0.5658505905355951
0.59920274011604
-0.7193629062668642
0.06681026025310197
0.6525526455931988
0.1031044399728319
0.5705018651931725
0.05487177919952125
-0.6253736441132961
0.1940937322883764
-0.08339814589170468
-0.4932914993617192
0.1459514072123552
0.05034935250572475
-0.8868523706481616
0.836503018258212
-0.4740708446544271
-0.7134941239023612
0.04912275873123075
0.4367496024097987
-0.006477277238208901
0.2998473909479795
-0.8552384582127497
0.5553910674584455
0.4157122059692166
0.5842877942033077
0.5605279643418913
-0.5142057397256923
-0.3657069179473977
0.0346668588188576
0.3310400550747648
0.6813803342014767
0.2493054900300435
-0.5659514626094423
0.5703276232498194
0.1105218646865006
0.8750716981301727
0.01023126743311852
-0.6220712531712282
-0.7493346545539469
0.7996840080019184
0.5312479774744325
0.07105883813560493
0.3018058016489607
-0.3728646393675928
-0.1676125273040885
0.4414850695873399
0.08665476926489241
0.8763596291315825
-0.7975838747847752
-0.07877575427014952
0.6354414747999632
0.3106918371118375
-0.4301640038630803
0.5754119245739959
-0.5043530876550633
0.4172018991285136
0.1333422242238371
-0.0469034410474345
-0.5906666081101623
-0.13769309122721
0.7283596993902451
-0.1497166068913078
-0.7809692202331809
-0.6110213410653255
0.360775143154409
0.2502461961918395
0.6222746824830361
-0.6120434155711333
0.2385808783563775
1.011374676142366
0.04289360886599038
-0.7493346508259767
0.2250538114892755
-0.2025118717126077
0.6801064693735389
0.8020947023190378
-0.8020947024661932
0.8377296097187543
-0.833341880232515
-0.004387729396372507
-0.4453881561485212
0.8611003559961968
-0.1476117518596843
-0.3456797515228802
0.7347052485499287
-0.6684545477677559
-0.06625070086253869
-0.731246312739867
0.1405797053027093
0.1386750418731865
-0.6718058034434166
0.782686047799014
-0.9502985751846859
-0.3654808811306994
0.2902491160827825
0.07523176109946397
0.1459566822480132
-1.00953512804206
0.8635784458437011
0.4809722819422557
-0.04134927893032325
-0.3081938025875703
0.5864916038691474
-0.2782978010323992
-0.7383133244397491
0.8842700046973209
-0.1571413340917449
0.7343768979754727
-0.8405794817088988
0.1062025834974103
0.9775358602074107
-0.5419491716172674
-0.4355866887606434
0.7551912645522826
-0.06490757432997589
-0.03371083166529643
0.1878127250909435
-0.1541018935927043
-0.775742611340888
-0.8463030878197259
0.08038420418354049
-0.7500454674132336
0.5140007678760725
-0.5554538270157073
0.08996818479956598
0.7197232796243823
-0.8096914642289652
0.7537223697257871
0.1742147855346186
0.5028763902536898
0.4971236097103771
-0.05092033597295904
-0.6064103410604574
0.657330678281933
0.8818166032559636
-0.005456970653433358
-0.7551912645249808
0.7996840079768411
0.1909947754202068
-0.4480680839696515
0.02064972308365971
0.001527371156784543
-0.02217708810700161
0.5891067693904904
-0.4384861239400331
-0.1506206445462162
0.717934400010001
0.01378947526212724
-0.111926187996621
0.4372023531344235
0.1519044156390691
-0.01397622153045731
-0.005724082373047213
0.01970030344119051
-0.03341546500834528
-0.0002953718939229786
0.2431370953877286
-0.2603854420900652
-0.9592360373322915
0.001839544668420836
-0.1595520293584151
-0.1223437949533812
0.09457363721884146
0.7213354293231178
0.7290493277560003
-0.1447615312316142
0.6617766205616542
-0.5718084367962916
-0.2117888331626201
0.3977316883086515
0.6954197158554577
0.0225146841082026
0.2416048389613585
-1.074946718167246
-0.950298570432634
0.3016887771450577
0.7599942955535527
-0.2086149260167672
0.06570501352144614
-0.7231749747813998
0.9098315358605957
-0.1866565611432376
0.4161909529604266
-0.02739781578854696
0.7715954463309226
0.280637091091263
0.3717869890248227
0.0731964261429723
-0.6586888338776785
0.6586888338557925
0.2146885777170097
0.6955530366036673
-0.05485858021784971
0.3901171285513549
0.3802400481316068
-0.01472888323111977
0.0353785883804452
0.4494813157351025
0.03149096192016267
-0.7383133251093138
0.534137765499884
0.2005674836914156
0.3062872457705855
-0.11847452865107
-0.6954197169774669
0.1800712508461506
0.7297602857375739
-0.01019646934951495
-0.8137020082829479
0.8238984776349817
0.6962689980815109
-0.7921060700730482
0.09583707213348577
-0.7537223757356182
-0.1498982570931731
0.210981287247054
-0.0610830312383802
0.07718503916286107
-0.1798908284726751
-0.1122940466656382
0.2921848773673842
-0.008236167171424428
-0.005740065289159543
0.7065339937319913
-0.716730471476892
0.8845170099187631
0.0757706794865686
-0.3143626453633585
-0.5179213966129558
0.8322840419119095
0.1030146128272329
-0.1030146082381497
0.324915974483978
0.4764067688436005
0.6135945599080653
-1.090001328790027
-0.1941437063709743
-0.5856612371121015
0.779804943516369
0.01273909558554638
0.2203815142442968
0.3773112681680726
-0.2534442655283178
1.012736753458983
-0.536329981156228
0.6641872681888195
0.9943358708883167
-0.3807413072915155
0.2296995136876643
0.8842700031618905
0.712759051518628
0.2136676190417526
0.7277279391104732
-0.7809692205676022
0.3413111598769517
-0.2767148480538568
0.2448219238210206
0.03189291972513175
0.8485960854608711
-0.01368094268441073
-0.8349151423633727
-0.7021109530291482
0.7025012856796663
0.554611840811715
-0.7021109530052204
-0.7127590515472558
0.7025012855952254
-0.03461916043398564
0.9044108828615505
-0.01989387627339503
-0.6813803230947603
0.612354538740277
0.06902578433286571
0.5388636174218052
0.5372151655693208
-1.076078782944494
0.4922390411169676
0.5204977135137074
0.5430379276303172
0.4598230286853578
-1.002860956250054
0.4987008630914277
0.4956350092851349
0.6123545311224995
-0.5255731822158923
-0.4651844616277477
-0.5562398249913549
-0.5196859840246467
-0.1208562059415921
-0.01223089157784599
0.01223089011870816
0.5123513962136524
0.5229858561900583
-1.042671840093125
0.5755534815350047
-0.2737476809933369
-0.8853507796705786
0.34340160735
-0.6329395548555079
0.3904768415172331
0.001990425608547284
-0.8306515295851937
0.8286611037930794
0.4208555130702311
-0.01748249578729972
0.8660785811104011
-0.9457776907591976
-0.8348682544955252
0.05546801375919363
0.7794002405072091
0.5594192353449817
-0.4376999970600532
-0.1217192379997721
0.649962496937585
-0.7288724188199057
0.8843220694847582
-0.8325530064479991
-0.05176906341537718
-0.009082707286886591
-0.7885011641054683
-0.1097080610081772
0.7149394081879625
-0.6052313471734092
-0.9362549003635783
0.9271721929877598
-0.7312671335659089
0.6915752476173406
0.03969188581111444
-0.8084850760728677
0.03747961376832167
0.7710054621908636
0.06163466593150982
0.04137994339754137
0.4331896090374691
0.06145561416340296
-0.8509244409589263
0.7894688268998408
-0.6423592302950479
0.5914388915800164
0.8907052468462797
0.06995478063191397
-0.9606600275311533
0.05583698835876082
-0.04748590030472612
0.3785259506853136
-0.3812299392674477
0.06580344824630799
0.8422640275972055
-0.8402736016602065
-0.7327144032564761
-0.8091162145622779
0.02061505023687421
-0.1649252796468035
-0.852230972554135
0.0196779700455981
0.62506454894856
0.03671207024830433
0.02876877616463078
0.5306504576031837
-0.8067495695809934
0.8442291792281434
0.5658505901621071
-0.84813402549015
-0.8663001223864226
0.03811075540712568
-0.03924504896050373
0.8378641515258927
-0.7986191026351375
-0.02356986712614558
-0.7719594536002125
0.5443524370697886
0.1519165507982564
-0.03111457984579658
0.8971931608821814
0.9826402045721515
0.861513988192346
-0.8418360175691152
0.1473646783857586
-0.1473646767537858
-0.1187040564327039
-0.4817867647646848
0.04408676693002982
0.2709390950686592
0.03074968161512722
0.3855764612773054
0.8736232922329278
0.003000166375701885
-0.01123634360470914
0.6586160695934965
0.3413839303901752
0.7835134685647259
-0.5834203127421553
-0.7780537477532211
-0.812300048477315
-0.6798627028420526
0.6798627028173103
-0.1677261637472492
-0.1548164400982738
0.6016120851537134
-0.8121436976026236
0.2105316124001325
-0.4936957710914429
-0.5690043976345903
0.2782369278163568
-0.9722515114584545
-0.901664653322336
0.8498955950168076
-0.8161878202524673
0.8368028692356966
0.6486911471140108
0.1344274120074929
-0.7831185590792717
-0.7726081608762392
-0.1458894492147318
0.724388188578625
-0.5784987392532734
0.02804135859082837
-0.01527771085010079
0.01859606527288335
-0.003318355784731406
-0.3552315824706078
-0.1265551898729752
0.8798490098801531
0.7412606355907163
-0.2435569096928275
-0.4977037247549778
0.6195413860250735
0.6852407482380825
-0.4705521717389894
-0.0007854920040861269
-0.2849778963646925
0.02596531828690587
0.7446833517480584
-0.770648670419621
-0.323560367303882
-0.07203160505310416
0.07551464368210883
-0.9601303844402699
0.1252152409772242
-0.6777162902943843
0.05188533261714946
0.6412972246033268
-0.6931825571629452
-0.7568922742893859
0.07917598396809442
0.5883214111582445
-0.660353016329334
0.1564006685908066
-0.3362914989084812
-0.7710047508937695
-0.001603409855691077
0.3712505662279756
0.601568365369391
-0.02615644407053741
0.02405429273419489
-0.02405429215382957
-0.01795497987080499
-0.05157823724530008
-0.2251366089971573
0.02063011365472368
-0.01762992077652418
-0.7342926794431915
0.2793377735453962
0.6797402881294389
-0.6901134104887349
0.01037312214957287
-0.5977211285386393
0.6496064656483108
0.6530782737228593
-0.06475686725908826
-0.6317546443067911
-0.1251376252140848
-1.049935597653278
0.01114197428239195
0.1362227011270414
-0.7083273614641775
-0.7414626965764027
-0.7632307592286353
0.3653498128510649
-0.4130678436184545
0.4690977582266578
-0.05602991619876609
-0.6759273624824327
-0.03239999906848794
0.5010752968645044
0.730678923801702
-0.2330323287842954
0.110688533692137
0.9617337926245111
0.4457910171619132
0.1342755944940064
-0.5800666115300366
-0.6784161992030873
0.002488834909639491
-0.04443097968893282
0.02915327480387746
0.6370388696210755
-0.7747319611956605
-0.00245071429264579
0.002450713867549319
-0.6006175873285515
0.6482251157555855
-0.04760752809475675
-0.6496474202353945
-0.1132682691484107
-0.6716615697626038
0.05069801515919175
0.6066326660493677
-0.1371591674899461
-0.8175510208914162
-0.5555812531519383
0.5666107890858249
-0.01102953465549828
0.6342275327297755
-0.6238544053981142
0.3222477270456856
0.2141934697955477
-0.5364411968629429
-0.1044238298955501
-0.6025393054167971
-0.09064325106062174
-0.1548265745569882
-0.5048832394443945
0.4041775141286995
-0.498723227631554
0.1265068576214261
0.6783367087234728
-0.8048435665077581
0.5992027401187925
-0.3712360628670755
-0.04183178034393187
0.07360263363453957
-0.5784858655005596
0.5518696287482653
-0.04041711791660341
-0.511452510718347
-0.3121975901128596
0.3047462936786186
0.007451295696898182
0.4533949611355961
0.1221585191702314
0.05053896560903307
-0.3157578594193109
0.1566521111970511
0.1591057480398955
0.239493042020802
-0.0144392285306219
-0.2959540639984167
-0.3130956674989433
0.366261121171241
-0.05316545470591805
0.7894025089422083
-0.6281344024628476
-0.02151301708326927
0.4994150547118758
0.2808973821500246
-0.5244542985016326
0.5774883536985012
-0.5774883537018172
-0.2897602466377199
-0.5864760801682379
-0.2955413807989095
-0.586476080094159
-0.5953102207084144
-0.8385075638369327
0.1700530190193076
-0.5840476516171139
0.8211796009492676
-0.003584197424765112
0.1195288014946459
0.4820395628011671
0.09668615612811775
0.1852998331644292
-0.03622696310460249
-0.1490728725689198
-0.01743685072666251
0.5940832080516411
-0.9459182795436163
0.4279968857456675
-0.0004782647947032295
0.001652720736018426
-0.001174459270586952
-0.6432556085671258
-0.1317682021709883
-0.4662357618760897
0.6005113554014566
-0.5037807861192384
-0.320669284340854
-0.2578166044650427
-0.2715064580646681
-0.1120580288189805
0.1120580289195378
0.1526632689014913
0.05831801146394732
0.1964418043069199
0.4546585418114638
-0.5729237579262658
0.1066879992236789
0.2443436458580977
0.4661636895364605
0.5338363093684775
0.6419778644745977
0.08289620806921119
-0.001291221707843334
-0.0816049932145438
-0.2768317901934412
-0.5407192304736445
-0.5487297085344786
0.114061285178727
-0.1260419273634558
0.01198064158955259
-0.1059505415239291
-0.386096870015797
-0.04425673784003629
0.6508893784164832
-0.4987341007312571
-0.144521507929076
-0.3380631572517865
0.2915583735630134
0.1231283594810523
-0.6042084371165131
-0.2039531216136818
-0.2616382965693148
0.001252839767757496
-0.4219709578945239
0.3221664309328865
0.09980452616393985
-0.09145067849681006
0.291609710811521
-0.8959229957544154
-0.4580657716486537
0.6334525276480023
-0.7729103390604218
0.668486509115973
0.3426312272424473
-0.126095776660878
0.2257161673796421
-0.09962038951815004
0.02575206081284091
-0.5862482882307675
0.029321202965309
0.5569270857139511
-0.9007319347995388
0.5468034618705276
-0.6655075184896765
-0.09602268140357349
0.1091572899886531
-0.1091572856606017
-0.3165433526153478
0.3640987706177184
0.01442718950631207
0.02722887952515595
0.05566732997047597
0.5050915323923997
0.6620044374286267
-0.7407801893794294
0.02875627022740564
0.02356808273859236
0.0004862206480874063
-0.006830897565458142
0.00683089706989794
-0.4158187486196457
0.5379772669259077
0.01518691677645137
-0.01518691699621643
-0.7922391895956331
-0.06027640462989236
0.1219110745835116
-0.4538028684960541
0.5604908671358915
0.4503489306671468
-0.4979564638072498
0.1497598213121378
-0.1497598204692704
0.038345479609478
-0.002966890712599815
-0.04125679023506709
-0.977183234322508
0.5415965438083996
-0.4718486569236156
0.04137994505042809
0.5144350174301556
0.03103045576839818
-0.5454654727792915
-0.6158723855117247
0.1171382824818199
-0.3297917723882808
0.01344622063772334
0.3163455524223292
-0.1539161083738051
-0.07911621558007094
-0.5407461676974322
-0.04550213016043642
0.1362227005962822
-0.04111628444256087
0.03866557661622438
0.08163329334199308
-0.08163329911639024
-0.5388329197932664
0.4856674767741899
-0.4143667322439001
0.161337519623294
0.6221759488631587
-0.0980270503007768
-0.005458254941320475
0.005458256017751949
0.5329739537807784
-0.07355798182637553
0.006142677015456086
0.02706541018618101
0.03454904229922018
0.6865631046796861
-0.7601210861944678
-0.6592045837319253
0.6376915610705773
-0.1077499238423453
0.3127632494278043
0.7461776526826924
-0.01795498214633496
-0.2671810688631682
0.14870653194828
-0.7446762384391479
0.4843765590337114
-0.4227418627853913
-0.1014373825795689
0.003606265202117606
-0.01452119825741123
0.01933887206945057
0.4117310071475304
-0.1216790287221199
-0.3897734811484954
0.6289184062733084
0.01906178882930815
0.01053699444306978
-0.01053699477049003
-0.3568088863827373
-0.08417438823354591
-0.5606496215165176
0.5570654244666183
-0.2383898342942671
0.4648125620860022
-0.1509765829226897
0.7284723723755641
0.6732591971198422
-0.04111628449028606
-0.6152040998741056
0.5613330088293702
0.2885737839249772
-0.2865676341242342
-0.002006151652536431
0.5462408762031784
0.09338662367881059
-0.03888469304648796
0.1970884238503051
-0.1582037317440877
0.1205179787221932
-0.1205179827909624
-0.8587646458594366
0.002395148702923922
-0.1130436599743934
0.1401090721033612
-0.1320486141001305
0.132048613998495
0.02356807281005286
-0.02341322570974237
0.6710287682129092
0.05873151647234424
-0.3231955914350113
-0.06290127978510159
-0.4712383233044889
-0.0494893728886218
-0.1517942101780411
0.1517942095288278
-0.04325952876766787
0.143179834748538
-0.1431798344854641
0.1368311770591572
-0.1368311794608863
-0.315584152828164
-0.1145798511881822
0.2266730609029205
0.1030104188313735
0.03486617567506808
-0.8211145632986875
-0.1974355690172472
0.1703753353482893
0.020619443684758
-0.265570308716749
0.1256963228946349
-0.1256963226698378
-0.4140363043187381
-0.08468692560521196
0.2366334241735964
0.002153371388301537
0.04051700571444991
-0.5432147428854918
0.5778339033091423
-0.02425539571610354
-0.01900413848806352
-0.028646991469364
0.0256801022919214
0.006580001175793135
-0.1841822875081695
0.1776022860203286
-0.1079649498104202
-0.2283265516871092
-0.144884576406452
0.1448845760732685
0.0729975679263995
-0.07299756790570262
-0.01949573447494209
-0.1087025864276851
0.1281983215379019
0.2420181958120045
-0.1827139574451031
-0.02543790993718418
0.02592414236554339
-0.1385914399983741
0.6242589204044878
-0.03906045268927694
0.4218994150699127
-0.04200618813060989
0.06170649041754863
-0.1535846700769882
0.153584668809527
-0.6361863299438215
0.3090244404681527
-0.07932492741399412
-0.2347866931925967
0.00357869667366646
-0.122357465958655
0.1628744700427444
0.194592744573504
0.09759213395145906
0.09537709150997765
-0.06082804838830603
0.07250976791881009
0.04155152052676146
0.0638261160444495
0.1065492134696544
-0.0957110516573878
0.2063995764625263
0.01298769753883532
-0.11334098807977
-0.1019196673909977
0.09797465589446103
0.003945011998154696
0.01303108505839515
-0.02294439067297194
0.03788714668671536
-0.03788714665828424
0.07473095539482005
-0.05472716370642863
0.05472716337273976
-0.2245778298148278
-0.05163449864668009
0.01146159500460927
-0.1031187101672062
0.01631318998834303
0.1082593313141756
-0.1082593310823791
0.2943972660546382
-0.2716238291861854
0.1636588812717777
-0.05060690273908494
-0.2210169275803145
-0.01760372302377934
0.01760372316592314
0.367278626101389
0.2852740228044534
-0.527372984582072
-0.09400021168037999
-0.0320417128214988
0.5286161518084064
0.2133712234598599
-0.1695889342723725
-0.3814975939582973
0.07650336252479853
-0.1478901666513435
0.1874506599997325
-0.03956049338520463
-0.06670780696759583
0.06670780696701145
0.8226810151932616
-0.5606716851747028
-0.003451666686109684
0.0164827486381761
-0.01999059042984171
-0.2865846434487271
-0.01748351312812931
-0.01283595784741243
-0.1317305581164907
-0.5719895560334118
0.5559252457544939
-0.5691933068335477
-0.006909635684780108
0.1025548861962062
-0.001790459875916703
0.01675349090295898
-0.1678807561266379
-0.3366889061442171
0.2335701959536749
-0.05460615631788349
0.03511042333683759
0.1317177281627651
0.1730285650741775
0.336087088336978
0.2768343243037671
-0.2786247838989774
-0.06325408520430766
-0.1548669196624251
-0.2213404684226064
0.07488958748931801
-0.01106347214602869
0.2142628936054291
-0.1975094021309598
-0.08627000357299103
0.158779769797595
-0.3549998402288993
0.2088106370491985
-0.1924974466611817
0.08962540167022677
-0.479398887495405
0.1746147053664471
0.1697822472185074
-0.2560522501441121
0.0724327005923167
-0.1942145112083284
0.1767309974935956
0.01743699491735427
0.1413427744255341
-0.0395402581961906
0.06629715937282311
0.4666767936957863
0.02028342854928662
-0.07583360077324414
0.05612723621027986
0.1255878787532302
-0.2609009587163877
-0.2308839697466525
0.5597078798065196
0.1578905401931449
0.07874288367512218
0.07579724243310997
-0.03092455745301773
-0.008328666401151995
0.006322504595540223
-0.03279064255750611
0.1712837748499719
-0.1781934100275017
-0.056494725137825
0.02247245702905113
-0.146677725130334
-0.05287173737640689
0.1499048555377759
0.2770932521373735
-0.03886636611874369
0.01735143546055732
-0.2557243576396516
-0.1307507111563811
0.2355856953051819
0.1792311089248551
0.129793329978147
0.02176545131551105
0.08913787129190809
0.052064640085125
0.453026892223853
0.01693270689501246
0.0969465053637561
0.04385412084423021
0.07158197731389343
-0.1154360993120593
-0.2420989634338058
-0.2009965532661115
-0.02002037120665979
-0.2023056388607749
0.2757447347175991
)
;

boundaryField
{
    FrontBack
    {
        type            empty;
    }
    Top
    {
        type            calculated;
        value           uniform 0;
    }
    In
    {
        type            calculated;
        value           uniform -1;
    }
    Bottom
    {
        type            calculated;
        value           uniform 0;
    }
    Out
    {
        type            calculated;
        value           nonuniform List<scalar> 10(1.035276968003616 1.064436799670532 1.021424286620661 1.019198575475559 0.9970381946916401 1.015320993083338 1.035337251701677 1.062700168682563 0.8672485955746394 0.8820174609829964);
    }
    circle
    {
        type            calculated;
        value           uniform 0;
    }
}


// ************************************************************************* //
