/*--------------------------------*- C++ -*----------------------------------*\
| =========                 |                                                 |
| \\      /  F ield         | OpenFOAM: The Open Source CFD Toolbox           |
|  \\    /   O peration     | Version:  2412                                  |
|   \\  /    A nd           | Website:  www.openfoam.com                      |
|    \\/     M anipulation  |                                                 |
\*---------------------------------------------------------------------------*/
FoamFile
{
    version     2.0;
    format      ascii;
    arch        "LSB;label=32;scalar=64";
    class       volScalarField;
    location    "1374.5";
    object      p;
}
// * * * * * * * * * * * * * * * * * * * * * * * * * * * * * * * * * * * * * //

dimensions      [0 2 -2 0 0 0 0];

internalField   nonuniform List<scalar> 
808
(
-0.03424073908860685
0.0445651380882193
-0.01179983251462129
0.03672110435204852
-0.2989480884984263
-0.05498623681980008
-0.01493489553840505
-0.02385010800914794
-0.1966132654263914
-0.08374287155032641
-0.009570567005498435
-0.2537417871774663
-0.03058251702645669
-0.01337204491641069
-0.1243084959072847
-0.01403646702693994
-0.1425383105953101
-0.01360517635760915
-0.01288672236294778
-0.05561468008888454
-0.006700447549132699
0.1173169188455058
-0.06222115099767211
-0.0715910203754892
0.1750822878256089
-0.09965625053969326
-0.1522623246886038
-0.02038331341044535
-0.0175108253665815
-0.02593146453345675
-0.02024522463720123
-0.05839107812143437
-0.0229622253866469
-0.01691065312131531
-0.09912191870509401
0.3448330501064836
-0.03916141011653835
-0.01679254100602904
-0.02288796898875727
-0.02657453447811644
-0.08999916841477734
-0.1263488161454184
-0.05176934758738755
-0.02084967348345297
-0.05548707882594841
-0.04130181887537936
-0.01223109228947763
-0.1841035838234612
-0.02701141396508039
-0.2037535710396421
-0.01641355789967385
-0.06714403675998383
-0.06064439272012967
-0.01519130857475796
-0.193361685454385
-0.02834774874160438
-0.0109032940387302
-0.01518143765156756
-0.1001589733460527
-0.03978266453393682
-0.09890972766361002
-0.1258428973203879
-0.01382063442942772
-0.1274646465993899
-0.0170443743420209
-0.05157226728155292
-0.1626786750620371
-0.03558540861588599
-0.0151282464863804
-0.4403458270474268
-0.0265955260220871
-0.302536955259576
-0.02167838178812167
-0.02048915362753959
-0.06420465911674314
-0.01771857537104812
-0.04254445045350177
-0.3645680683830839
-0.03583904414515342
0.03978102749710644
-0.09171549818232233
-0.01707099495246871
0.056975841100836
0.04519504723301276
-0.01697872769404703
-0.05217188725234095
-0.5421233514977326
-0.2263968908680148
-0.05212449338495805
-0.1127904036272524
-0.05649931816897677
-0.1321853173716286
0.03930635057207161
-0.02537868005386361
-0.06172822550351697
-0.1163113801907307
-0.03840056694945285
-0.05236965528354189
-0.1157069148096705
-0.1368265183080253
-0.05245247285135005
-0.04736174659395763
-0.05433434745802898
-0.04479615818255769
-0.0572896156754899
-0.07447286195685054
-0.04147778848731198
-0.01122823695500763
-0.04031103260072857
-0.1237940948000899
-0.05040843397822328
0.08203982765895809
-0.04242564741356662
-0.008269494893213753
-0.02775908481359975
0.1807595680432551
-0.03880114792050777
-0.2686917425470591
-0.02040926101335665
-0.05347300044777401
-0.03052345018758001
-0.04866455851643267
0.01349428924681347
-0.04856530388107224
-0.03552975264822972
-0.217790075040931
-0.04104374095362264
-0.004986807146307213
-0.07573545762125689
-0.06874221768735767
-0.1424196667366481
-0.0208880092061347
-0.07498487458495397
-0.04296807629869746
-0.02279514356178531
-0.01562775445421492
-0.006389082414866552
-0.007274620919499689
-0.05241953930715128
-0.04972048520688165
-0.2169054628271438
-0.05642510542018453
-0.008426394451024631
-0.02230403303565646
-0.1472871766101092
-0.002797413557907435
-0.07615842141098225
-0.02189072444988942
-0.0009765140972879376
-0.0110271239926505
-0.03335831676525346
0.09399663012285581
-0.03864022704633071
0.2519590268814856
-0.2694031972639625
-0.1323410686448215
-0.03744187612465461
-0.09100803350233048
-0.009411392311250289
-0.1134422428588064
-0.1794216269411138
-0.2195577780748219
-0.1769451270197471
0.05639096991480218
-0.06290519414830305
-0.02039541437303846
-0.06686028333896332
-0.1656945086899049
-0.02345790857102996
-0.01836518607992345
-0.05188505403232833
-0.01965231545163294
-0.006797600457250952
-0.1073505858769722
-0.02303109119630356
-0.04502148261186655
-0.07002343907746675
-0.1606608316040228
-0.03341617716825098
-0.3899448477359751
-0.01784893068550261
-0.2255818270030987
-0.04424056188593171
0.0322602389299979
-0.1063515662453054
-0.01551031673676661
-0.04246231283642096
-0.1039073514593437
-0.01767200716504146
-0.09516679541916989
-0.2079154407491516
-0.07160180631075524
-0.02381522403027956
-0.0480445681391125
-0.04271927555482638
-0.2047306374257121
-0.02201977908536445
-0.01906319941951685
-0.01129867066939617
-0.05618256812433566
-0.0505590771645422
-0.02236894934984898
-0.02081470411310805
-0.2418536331655121
0.127300273199637
-0.2046041508285997
-0.1969376370162313
-0.01179125946848624
-0.0114254804621873
-0.06704525238336413
-0.01011763833657306
-0.5053471949603308
-0.1200366068400502
-0.01915376612940541
-0.0001828614742306065
-0.02400460572749242
-0.2815260556576312
-0.2781285255348717
-0.007074723668693965
-0.01718512077326969
-0.001273007370496792
-0.3489990966537279
-0.02832126728346351
-0.02916557402443243
-0.01251906002847441
-0.01966060537520928
0.04964067335606474
-0.1104435668381673
-0.01421480685060245
-0.02081015756107877
-0.04439740943176693
-0.01823801206012189
-0.01617203799467965
-0.02344464762284134
-0.06759547149188648
-0.01149144660771374
-0.01903486822967227
-0.008601849916904086
-0.0007140235283338643
-0.02950305292534059
-0.001747520778853834
-0.002166749205768109
-0.005844951846509109
-0.0255994831543609
-0.007958111267537199
0.001472130744709032
-0.00427912176247539
0.001361238054477802
0.002538419617942477
-0.008891985405569786
-0.140086689102086
-0.002978458971642613
-0.001451716481849533
-0.04822240949365483
-0.02158474835195097
-0.0242881661180438
-0.0143171340124513
-0.00617492019527402
-0.02090019981664877
-0.0390420124302734
-0.01418276073434668
-0.01290800947018441
-0.01146424638716893
0.008672613249005055
-0.01016210049095507
-0.01183974789565323
-0.01150101730036081
-0.01060945982220002
-0.01034179962444409
-0.01212887667578746
-0.01392735805430481
-0.3042482633544873
0.05967001567067332
-0.01584711613047754
-0.01535828051415676
-0.01292358840662581
-0.01185405218581085
-0.008735060724999336
-0.09647568354430677
0.01196421017166557
-0.01364627628915436
-0.01419766806898082
-0.01062984311380029
-0.05175145878154739
-0.01028744377623357
-0.01356136876392217
-0.01008678577736401
-0.0002373539418643582
-0.01079658052999633
-0.0121367596200868
-0.02460601158797903
-0.01569328477560021
-0.01188209870081151
-0.01352496967356678
-0.007403455184760558
-0.0121435612360364
-0.01174952296479242
-0.05869555334112283
-0.01337431408077496
-0.01128373201681702
-0.008884029151708094
-0.01498437690194294
-0.01366882370648721
-0.01563276567237249
-1.368321638466671
-0.09958688435279719
-0.01332856943208474
0.02603163535190459
-0.1622587502322768
-0.09155715223958853
-0.01192968827717874
-0.01405372878443119
-0.2378561687323711
-0.02911335571494316
-0.0186117236176456
-0.01153645508401112
-0.0198575150001607
-0.01025013777173126
-0.03076271258408406
-0.410578269791489
-0.01242282141470806
-0.01410480732927342
-0.004708417684799524
-0.01123146041088794
-0.01067434809779225
-0.01412823313718826
-0.006907353480585818
-0.02651056632000105
-0.01164314245295821
-0.1693573058576089
0.01843783765653858
-0.007495088695071184
0.003976249058082445
0.0136131644597273
-0.04810002402400849
0.02853131492258435
-0.01333171375526383
-0.1329527012039391
0.282686196043743
-0.007360184720029643
-0.01357428227350017
-0.00821201745082297
-0.03266049420783118
-0.124336079715378
-0.0122557939970295
-0.01216270183031944
-0.01682307402457734
-0.01354618723854846
-0.04129663817984098
-0.2177217973234151
-0.01031486887817205
-0.04260318732621241
-0.03923059760376035
-0.1721112871937626
-0.1604242068884363
-0.134521053139338
-0.2315849650814832
-0.005871540288156338
-0.02101699511607748
-0.01420868026343116
-0.01291157689876506
-0.03329295246002968
-0.0244874790344167
-0.01428175803039829
-0.0149070290915551
-1.072788078337757
-0.00612292272375244
-0.01330556576062275
-0.01834569122830191
-0.02414982075368777
-2.021926511742948e-05
-0.01480568421459906
-0.0261909864906984
-0.1514946171602963
-0.01360067614058881
-0.02196563927828092
-0.01391023321986523
-0.001156939004390223
-0.1781620586033062
-0.01287396779629874
-0.1452687238090115
-0.01588328021630173
0.00365231355305119
-0.01451366848717059
-0.02356651641250671
-0.01562926966498054
0.005014964841468945
-0.2730981149094827
-0.02596008745559187
-0.01610193771581224
-0.003584586879759987
-0.009924449682543612
-0.02992273193770213
-0.01414178602279822
-0.02055038953686555
-0.02101478943378911
0.01483442979160917
-0.09877539248863189
-0.02167725420805071
0.009322093981278074
-0.05509726318407272
0.1716851505853609
-0.105016159233997
-0.3169541639531855
-0.03094333273880743
-0.02562608095710234
0.1509215933610359
0.07777837667407125
-0.00363703450340359
0.04996699280138671
-0.01530329140658987
-0.01408476611385623
0.002427177449122324
0.009653073215908541
-0.06560851097565734
-0.005817248913469012
-0.05668675790538517
-0.02235752040277134
-0.01572946214355123
-0.03653750746533349
-0.03291402677348156
-0.006652063968071286
-0.0150670937529266
-0.03756992661655304
0.03625443644088474
-0.03881886782340756
-0.01388572893518022
-0.11821073992109
-0.03167450414171771
-0.03920088791546229
-0.6710746295135838
0.02014148160025143
-0.01038703074462348
-0.005784080779477166
0.1636232083780599
-0.08921888513442443
-0.0353089197815285
-0.2436500607434414
-0.0163019282264399
-0.01637409634260309
0.07347218422728753
-0.1811353496745524
-0.2339662644997291
-0.1930556821191416
-0.6798313229368111
0.001976391273185107
-0.01832097248958178
-0.0168369424398651
-0.08427696493680428
0.1184614281846689
-0.02088159885267776
-0.2303531248382105
-0.03551298687182772
-0.006656337006427046
0.2803518696424583
-0.01117261677231767
-0.09182726996169001
-0.1515255024450864
-0.003509012976814579
-0.04093084300774657
-0.0522135576553994
-0.2020868964942163
-0.008234656273854677
-0.04062651003065798
-0.002595578550379336
-0.5457245228574611
-0.1946405923206549
-0.1778469537712783
-0.02296826634248413
-0.007720091918954391
-0.06116648060603853
-0.05712369810996168
-0.01382662141484739
-0.0686765722197301
0.004515599535603446
-0.0180473842170533
-0.09350804369787469
-0.2725016042754132
-0.007602349854241401
-0.02598896097158411
-0.0217572505326213
-0.0753929397032912
-0.0896765508334684
-0.0888874947075779
-0.01204918588402319
-0.9170866442864201
0.1619888814829371
-0.07908882787557214
-0.2505369679516353
-0.04185175215395773
-0.01012713092289415
-0.2553679196796561
-0.1929075167660081
-0.03162568101261624
-0.1254849902602247
-0.01964544366322395
0.5637054239184539
-0.02444597604669007
-0.2239247770273631
-0.02555241833558063
-0.005559329694396945
-0.01172069289488934
-1.244643210752982
-0.1803558239298947
-0.2288526123419312
0.00526167687722463
-0.03843767406341581
-0.2479995691681566
-0.06632682437217641
-0.05156052647152013
-0.1450948912988322
-0.1827734776387966
-0.06900059055469979
-1.219700352686261
-0.1474294042610284
-0.5304214044167178
0.07945956638083489
-0.00615505173224009
-0.0214797504778336
-0.04378150818307888
-0.03891172775676633
-0.02838588505417622
-0.1291796388868244
0.08110450531162364
-0.002042234067944529
-0.009947802382925548
-0.572403852080978
-0.8555466546557566
-0.179634298309361
-0.008252550891212625
-0.1349639593783735
0.0007858435982236886
-0.0001594063169777519
-0.002083668487969036
-0.06040233401471375
-0.2351641388652687
-0.01329740326575435
-0.1209703352392861
-0.157466492390333
-0.01318244190545849
-0.03511032346190759
0.0258912385398866
-0.05805949665927507
-0.07101185800505505
-0.4974050157643085
-0.2162721402238679
-0.07968587203024821
-0.07439798014999432
-0.01967863854989234
-0.1222005590648608
-0.1553832782311482
-0.07611749123577201
0.02280620579691098
-0.0859932682907409
-0.0494050319507546
-0.01487726729207364
-0.107216445460754
-0.2768728315788307
-0.05838672667655055
-0.01825714724671339
-0.0006169350845817635
-0.01000828166634381
-0.0108877025775445
-0.2241139788290921
-0.01518444997991352
-0.2183049486435735
-0.0102844564582476
-0.07167189335785105
-0.004349161802733851
-0.02324675515788774
-0.3852541127644029
-0.9210555242413548
-0.0113206220116952
-1.041239815558145
-0.6069971505162675
-0.01049173135724871
-0.6632662021194624
-0.1832361004474601
-0.005986447531145157
-0.1280335957083638
-0.01669597012179884
-0.1241847108739822
-0.06569938097865674
-0.08081740653957296
-0.005075525369595932
-0.002286391380086594
-1.346674769605096
-0.01143795094415455
-0.1783209602364317
0.0007447992782574054
-1.004277861414208
-1.244818412810072
-0.07935296679398651
0.01717748675362198
0.1645694580350777
-0.004485924584038471
-0.02304066695382321
-0.004185029656999743
-0.2475687572070207
0.3657544735438183
-0.04152144154392795
-0.212911035962432
-0.01492459488015511
-0.6489070644612636
-0.07312461067864834
0.1889812706422606
-0.2919256779205736
-0.05025095419991957
-0.06953656556128428
-0.0158602983744222
-0.02164500607166838
-0.5851448922388017
-0.1479447346298129
-0.088597885343376
-0.1245866879808699
-0.5507588470818349
-0.04469264046414916
-0.9012440303111231
0.0006340019473102205
-0.2413646040124436
-1.056720741648229
0.1636186106944496
0.289350282731917
-0.1819569388865813
-0.1894881071011146
-0.2138831189605663
-0.06678096872114832
0.02262048027030599
0.04403079047650548
0.003131336245896335
-0.164743944191381
0.02601393181044464
-1.366118623974687
-0.08622736654433086
-0.4777510092638899
-0.3344292386837072
-0.2100600466355314
-0.1791914912942627
-0.01691421351814423
-0.01545325492425794
-0.1039474283822578
0.174462970690741
0.384494542807145
-0.2016367123682771
-0.1422398307946527
-0.2235087862588311
-0.06305289354323708
-0.1528874578988022
-0.1671803307705025
-0.1268653605199918
-0.1219093943807701
0.4634811876408004
-0.275452625333838
0.4338542118464435
-0.5935982791072552
0.07259124797961532
-0.1968095267902792
-0.06703327304182305
-0.07673883888320798
-0.888461316639606
-0.2148853550088826
-0.1926710725198356
-0.3511044573747972
-0.4627266442077157
0.5700544538018802
-0.2132453707576651
0.001932243685769489
-0.06834067227437342
0.3458687580460741
-0.03573591653576579
-0.1311709361307618
-0.1814111907123993
-0.06337321304598043
-0.01650156171898745
-0.1990149557402759
0.1979736996486768
-0.0129062920325291
-0.09756824972259134
-0.174049820834283
-0.3204706347865806
-0.309710279355109
-0.06932434632076379
-0.01010373826858327
-0.0819513047737695
-0.6485634645049712
-0.6760407862444699
-0.3327720717362332
-0.05843903724625727
-0.05028916168991808
-0.02502178029583222
-0.06904634382192125
-0.05592363923267279
-0.3635991703897269
-0.9643906656115491
-0.01021872652004498
-0.08424058080865757
-1.145927258176
-1.040726738883876
-0.1090435435634349
-0.04060990888688742
-0.06855834179900229
0.3882698240331221
-0.3403243268774049
-0.0490874357658059
-0.6040892833366764
-0.1255843783672229
-0.2497341186203539
-0.2136949417778933
0.4732881513233925
-0.6341359898855963
0.07681432405895625
-0.02900228109991055
-0.564974274147799
-0.05333613530866765
-0.3660395327293919
0.1097337569912932
-0.1921489280913561
-0.06064776704837043
-0.1354369916273136
-0.3574617842145019
-0.08386561153032195
0.5160188102793895
0.08668780273481531
0.4693275277280886
-0.1007722734696768
-0.2041782004236317
-0.515893164214669
-0.1342871494728279
0.02517911388570109
-0.05465786222717517
0.1000134213780555
-0.3017790399150747
0.2364666985289161
0.005601799234185047
-0.002975180612282884
-0.5087485309228755
-0.1827617882376968
-0.08278382925343801
0.5816617127239159
0.1394317517416621
0.3424543085613342
0.22544966658643
-0.5666447226831107
-0.1917185542946129
-0.2256076007159198
-0.2233657982621848
-0.06135435402761535
-0.6888134030795287
-0.1896742080210188
0.3044913844233887
-0.1895761981725478
-0.0114359901779012
-0.1649193768524439
-0.01087478566421186
-0.1617574106579308
-0.4413956509459999
-0.07591456730533137
-0.2051165516676819
-0.07179248685726707
-0.09088322581094928
-0.1419120458285615
-0.07229947103940527
-0.4486210791065827
-0.41050029857868
-0.02386176669478216
-0.07647362290652879
0.330542021867419
-0.2498398128920571
-0.1793734448780172
0.5238250108874087
-0.2027829820732636
0.02075351810443711
-0.4534387419857654
0.05136966953284899
-0.06039273334893706
-0.1391835995825506
-0.5888384208185419
0.1581868669497272
-0.5757062808144537
-0.5391268763766982
-0.1021626839911984
-0.5120729865263035
-0.0366950642143332
-0.1428510686247853
-0.4146149238509308
-0.01614743988605863
0.2883679940533812
0.4900026899863578
-0.1624790243016411
-0.006261219996025146
-0.08340358660829687
0.5251041830962695
-0.03273914473179167
-0.4430487349925922
-0.03232454089973408
0.4620893969829755
-0.01638423954017054
-0.5480881486648805
-0.248647368147785
0.1780209654901299
-0.3133442450720282
-0.1812268331638458
0.04793291442795319
0.03221423429403171
0.05598000510475312
-0.3021458790673059
-0.1599759128864083
0.4128586406832551
)
;

boundaryField
{
    FrontBack
    {
        type            empty;
    }
    Top
    {
        type            zeroGradient;
    }
    In
    {
        type            zeroGradient;
    }
    Bottom
    {
        type            zeroGradient;
    }
    Out
    {
        type            fixedValue;
        value           uniform 0;
    }
    circle
    {
        type            zeroGradient;
    }
}


// ************************************************************************* //
