/*--------------------------------*- C++ -*----------------------------------*\
| =========                 |                                                 |
| \\      /  F ield         | OpenFOAM: The Open Source CFD Toolbox           |
|  \\    /   O peration     | Version:  2412                                  |
|   \\  /    A nd           | Website:  www.openfoam.com                      |
|    \\/     M anipulation  |                                                 |
\*---------------------------------------------------------------------------*/
FoamFile
{
    version     2.0;
    format      ascii;
    arch        "LSB;label=32;scalar=64";
    class       volVectorField;
    location    "1660";
    object      U;
}
// * * * * * * * * * * * * * * * * * * * * * * * * * * * * * * * * * * * * * //

dimensions      [0 1 -1 0 0 0 0];

internalField   nonuniform List<vector> 
808
(
(0.7562762266696877 -0.0175236510953319 0)
(1.031437460646487 -0.01254455511276224 0)
(1.113089876551776 -0.001741677223688363 -1.734092973271136e-20)
(1.085130391986509 0.01257133246287296 0)
(1.360762065185764 0.01279731980338948 -3.812587879809359e-19)
(1.038708962789134 -0.009434851748068589 -7.305238532761632e-20)
(1.014507765976738 -0.0205523407433645 -2.426760358800146e-20)
(1.07907450352568 -0.004908493298347588 9.013936948516326e-21)
(1.2526503218051 -0.02189677496893987 6.25233134325367e-20)
(1.085160136141383 0.008880080386265539 0)
(1.008064957654598 -0.01172843968801236 0)
(1.303670442013738 -0.05458591642720216 -3.456294476638915e-19)
(1.086370770697805 -0.00179669115249771 2.042208299322807e-20)
(0.6751507187438981 0.006371738043949434 0)
(1.276114000439821 -0.1223708359058616 0)
(1.08192585077085 -0.0003538485007792653 -3.864160648127611e-20)
(1.225742541916762 -0.1511701589157523 -9.677913863572975e-20)
(1.074379123792391 -0.0003908015002535778 3.202849234529125e-20)
(0.9888751201025104 0.005246245718913889 0)
(1.026921294570893 0.009415496266427275 0)
(1.035103858473355 -0.01563164763947448 0)
(0.98759537927481 0.045442047131326 0)
(1.051038506468438 -0.006171828803126667 5.809259618058686e-20)
(1.053821195723759 0.008382592459089649 0)
(0.9338296239912404 0.1997494302660048 4.562943122269392e-19)
(1.160801611016806 -0.08953639452804436 0)
(1.184651902605391 -0.02013665348449332 1.53726534863079e-19)
(1.077171564298966 0.009665088813171399 5.239448394085385e-20)
(1.083865751925309 0.001890467591404387 5.126709197012022e-21)
(1.07185552912404 0.03095958374775219 0)
(1.075350402724357 0.00264659028777035 -1.184311207266954e-20)
(1.033444690932418 0.006437645587249095 -1.871634230055417e-19)
(1.06004609765219 0.01452141762926619 -2.360377706723582e-20)
(1.088717969663256 0.005498403466751746 -2.937672541170477e-20)
(1.121453568414832 0.03659989532909608 0)
(0.7548425474094898 -0.1202562052250124 -4.551731316483479e-19)
(0.9546069774228997 -0.005753117208840574 0)
(1.068824971993242 0.02231212912818305 0)
(1.068812883462456 0.007203511041677006 0)
(1.073772511415173 0.008621065558777934 -2.817451631139104e-20)
(1.093248174452744 0.02288204030766348 1.076337928696029e-19)
(1.1501658155715 0.001849905385195541 2.109750436647992e-19)
(1.095633906640544 -0.002356757855474347 0)
(1.01525070107539 -0.009432324329846409 0)
(1.127341115434685 -0.09491826383718725 -1.643383214738016e-19)
(1.044057381737631 -0.01177823277803098 -8.37883170620266e-20)
(1.058265200617907 0.02668113200731832 -2.697976176327823e-20)
(1.229274821473654 -0.1124656444810339 -5.562937678534438e-20)
(1.067537488001854 0.01208870996372285 -4.074730895807426e-20)
(1.256326484802725 0.01463155721423493 0)
(0.9973335221030231 -0.01877207812891866 2.187377094205964e-21)
(1.044701873063972 -0.0025100289509069 0)
(1.0873253269132 -0.002260380430784879 0)
(0.998144095334574 0.008002828543195799 -1.912099453139839e-20)
(1.252378402083184 0.03242805636047903 -2.393156610880758e-19)
(1.06352785210695 0.01824059870481271 5.878127837281779e-20)
(0.988987165625287 0.01124282606525365 0)
(1.014278515335123 -0.00832701428417505 2.561760344617039e-20)
(1.107211480554146 -0.001728111609012803 -1.152640260972016e-19)
(1.061470770191703 0.03131947008835198 0)
(-0.07532666645539202 -0.02317980982257266 7.772473575132605e-20)
(1.153759230147752 -0.05247145684136504 -1.843214564317756e-19)
(1.002578336592281 -0.006517607335925855 -2.814294575422655e-20)
(1.187406735248967 0.06456075889732646 -1.198320912748349e-19)
(0.9970488929551259 -0.01036179408106818 3.090362161187618e-20)
(1.083965506407397 -0.005475385938883471 0)
(1.246929137305941 0.09090348540948501 0)
(0.696057115883986 0.003159379724079238 -7.435854945379634e-20)
(0.9885678451259823 -0.01577243517555494 -3.21909670139137e-20)
(1.456507837335674 -0.01991563178959189 4.391407877876196e-19)
(1.060627160999252 0.007585623022711399 -6.543452298875541e-20)
(1.364674706818243 0.09294225058646594 2.839245534137644e-19)
(1.054876914209627 0.006745665278663566 -1.91891739076383e-22)
(1.080933396493938 -0.01410562453130729 -2.824470054929253e-22)
(1.162689111411171 -0.2351179408774223 0)
(1.022531107662821 -0.01500274527137598 0)
(1.017727534610589 0.01803161583565458 -2.994339637749833e-20)
(1.389579808749597 0.349436135837598 4.23929974640641e-19)
(1.097384840971386 -0.0422713065326247 9.562892590873136e-20)
(1.046878964071091 0.2111648643314676 2.399303325417889e-19)
(1.122411866100545 -0.06242396380494535 1.180639291180526e-19)
(0.9220489313294685 0.00519924169489007 0)
(0.975408866142547 0.01856506765190295 0)
(1.003969225085984 -0.04841759922501362 3.191080308238494e-21)
(1.010358904335996 -0.0137842563474992 7.758087304700216e-21)
(1.031107393868673 0.02649988648316477 1.351860745110769e-20)
(1.525276165524984 0.03374032742620706 3.211377012253502e-19)
(1.291623927526452 0.06990855552288494 5.639505268902892e-19)
(1.072649245649244 0.003001058282871376 -8.807953052691303e-20)
(1.194296622516265 -0.09855324056787862 0)
(1.03397224664713 0.001608725044028478 1.28671701498852e-19)
(1.164459254273087 0.019959332775456 -3.118152253383316e-19)
(1.001528744778314 0.03256026462075685 0)
(0.999629358400313 0.00197989028817328 0)
(1.044163955312966 -0.0002497170824611423 8.004484202103201e-20)
(1.217328176246496 0.1025596785385095 4.016079311594788e-19)
(1.011157019785924 0.006948008873169841 0)
(1.087846758499805 -0.06912839896871312 -1.069111704420127e-19)
(1.150890836818178 0.0349988510766461 0)
(1.21452441856272 0.08872019024846679 -1.883940442036236e-19)
(1.108295069459522 -0.02883613044584629 -7.802059659864605e-20)
(1.027866463566725 0.01184239388267338 0)
(1.085358580737428 -0.004615024275614479 0)
(1.020011185314466 0.02630221457743509 7.83639596280903e-20)
(1.0751856749525 0.05579193292284999 -9.349005918320997e-21)
(1.103643077721441 -0.004319988369819157 6.439132154475484e-20)
(1.103999670923212 -0.09320791669211616 1.520363917264557e-19)
(0.9620214812106017 -0.001315459860230441 0)
(1.066260219305173 0.03142176876816391 3.689291323621816e-20)
(1.167464575475077 -0.07678631720862029 2.252610775139621e-19)
(1.053572065090867 0.04675912982599157 -2.849530273356728e-20)
(1.023066130050909 0.0681849297130043 3.638255045642558e-20)
(1.090410989769842 0.02619806089153769 0)
(1.015305258536087 0.01361200572104453 0)
(1.028966506376241 0.009373631232976009 7.852505203266582e-20)
(0.9485435780001106 -0.03203023897165667 0)
(1.053169390199998 -0.00544918225343803 -7.396978192188058e-21)
(1.339233545089952 0.0556523249421273 -1.540792917020519e-19)
(1.079635213903007 -0.01325458789868022 2.64907815376861e-20)
(0.7441632324930526 -0.001760589880810822 0)
(0.5652415543141848 0.1752208046899158 -1.087878265625612e-19)
(0.7059371444896068 -0.002480551203641707 0)
(0.6989745054658856 0.01465894184670541 0)
(1.077815192554013 0.003520752107076564 -6.440597141166703e-22)
(0.9906471493057405 0.01443889737189718 0)
(1.281039696405265 0.1220448566964517 2.555276129056075e-19)
(1.012208998281175 -0.0279556647392803 -7.355680012697098e-21)
(1.0408943297601 0.01652098164212588 1.318133909941648e-21)
(1.058478025554237 -0.01237904610899075 0)
(1.126408680364661 -0.009213483561670845 -5.132464119884169e-20)
(1.265896594862551 0.1226831931212486 -2.196013157929655e-19)
(1.088879916793437 -0.010858772805291 -8.580524672681955e-20)
(1.071167569156117 0.02550203242312981 -1.066841124338273e-19)
(1.041118347793372 0.04679464059268729 7.447673681637961e-20)
(1.022448335437611 -0.003560420902002882 -3.472923089214891e-20)
(1.061202762973054 0.02371433637096931 5.697444574977681e-21)
(1.139354001571117 0.002634379408502602 1.044693013479042e-20)
(1.040164934999893 -0.01283146292980281 -4.707562578017925e-22)
(1.087548318462299 0.03478251225229065 0)
(1.028649485107681 0.01355615685780485 0)
(0.7898724865292561 -0.08047326390638372 -1.83379134779522e-19)
(1.030314881536941 -0.002050856780940196 -6.520730953660944e-20)
(1.13560989821948 0.002066411252466105 -1.270057375009601e-20)
(0.7035129245198676 0.00654553037527203 7.135697096208843e-20)
(1.175918764519897 0.01863128072240274 -1.97329466428733e-19)
(1.133190178410625 -0.0007200956918039532 5.549410689748855e-21)
(1.129048072300532 -0.01009412816500352 3.359780269978933e-20)
(1.000934265581507 -0.002986271888477189 -6.657968946201977e-20)
(1.09736886168162 -0.05653039097228996 0)
(0.9892102940834346 0.002574681287008 0)
(1.057903615260708 0.007023521092449803 0)
(1.006258834012923 0.1897571011692376 -2.354903399744155e-19)
(0.7794155150165912 0.01243733074069848 0)
(0.8570648836691189 0.1035090959054596 -8.188269152353075e-20)
(0.1036697553070746 0.03104359939181657 -2.996335348830499e-19)
(1.172341976833518 -0.032585457055351 -2.292749457190108e-20)
(0.671236482311003 -0.007365558318878174 2.45170522475644e-20)
(1.162317437830299 -0.1039775049336974 6.973079145972576e-20)
(1.128736608952815 0.001305785018336627 -6.007582060613495e-21)
(1.153834463599615 -0.05085061461252842 2.227981303696067e-20)
(0.07230250510449146 -0.1928945583345228 0)
(0.2524423821587958 0.0619548838405836 0)
(1.258444479454236 0.1032275660036468 1.84124390020975e-19)
(1.021384413252101 0.01987399262200915 0)
(0.7375951715293428 -0.006284630784748911 0)
(1.07481430599511 -0.01151385801252564 2.731535533453018e-20)
(0.9750835998213845 0.002888107088063772 0)
(1.292302114116815 0.1173921007424196 -1.440134902677376e-19)
(1.057352199913556 0.01099357447627467 0)
(0.9924229789271204 -0.007682183308309374 0)
(1.06529823166969 0.0081362164065211 0)
(1.00626139895052 0.02091875015033917 2.203985738561766e-20)
(0.9277778179192298 0.004947759596606151 1.300122709648266e-20)
(1.175147818814536 -0.1990869693718501 0)
(1.004994567700133 -0.005217277408564267 8.016473179479465e-20)
(1.059230995180057 0.006198056656063321 0)
(0.7745426893392725 -0.003335696310131262 0)
(1.216831506755841 0.02547264010091357 1.614205039045682e-20)
(0.7050981635019278 0.001357849195307471 0)
(1.431346019635742 0.08403744095941107 -5.101613210394218e-20)
(0.9941500383962102 -0.005308413011133808 1.660013351854667e-20)
(1.27526823522331 -0.004562595732572063 -3.008095899155765e-19)
(1.059942255493364 0.008941633804176251 1.325349506119419e-19)
(1.00090176310967 -0.01354591224627766 0)
(1.210536147178177 -0.1503135387315782 2.047810104724487e-19)
(0.7331657367896053 0.01378641854615312 0)
(1.098090350369147 -0.004954850436727173 0)
(1.156246085729992 0.06476893528465923 1.884080868126787e-20)
(1.006266629922482 -0.006823370150253733 -3.044267101314793e-20)
(1.123032756214977 0.05014369300022312 -1.710568078787887e-19)
(0.1515668441770429 -0.09290784729550336 0)
(1.074044242831036 0.03796572047123507 0)
(0.6615783967985539 -0.00286985587865257 -5.065516126303352e-22)
(1.012071831652546 -0.01970314259928609 8.999170941502666e-20)
(1.061688623257478 0.0008367233901642344 0)
(1.084626580026413 -0.1412446955441387 3.791418787492755e-19)
(1.002539683546903 -0.00613027476579615 -3.305779812751292e-21)
(1.002640978264694 -0.00384231426244335 1.246963996104756e-21)
(1.094034338302615 -0.009170322719626029 0)
(1.020801849883429 0.0201659307686813 -6.657525816594929e-20)
(1.106775738359532 -0.001642929576975438 6.318762164793349e-22)
(1.074144146750148 -0.0106178472707347 6.616145208626416e-20)
(1.085621548059852 0.02220393166515631 0)
(1.324028690494339 0.1561239964225104 0)
(1.002096109333556 0.0005862517753538175 4.407315961940685e-20)
(1.321037202191049 -0.1343573212384325 1.604374304756603e-19)
(0.00530166051705722 -0.14040686381582 -2.311119283251846e-19)
(1.071123789094082 -0.005410307961734511 0)
(1.112098230274592 -0.002641911850680699 1.181960413945905e-20)
(0.7268325162773337 0.01782056608140938 0)
(1.058195734629953 0.008686185458887694 0)
(0.8611087323021988 0.1615472895100153 4.606125237732903e-19)
(1.283368240742603 0.1186974311047031 1.848890084201645e-19)
(0.6541327197140201 -0.003110970977842611 -6.50193732247985e-20)
(1.040427296615086 0.003013587737201737 -2.611646086341082e-21)
(1.054907643428099 -0.0002112009296729781 6.456556941942732e-20)
(1.360242325581176 0.1169151467385024 6.552609162436958e-19)
(1.337976455743136 0.2523578146960945 0)
(1.057145566521421 0.01002749365415638 0)
(0.9968450379846967 -0.004415973228463467 1.373302244040778e-20)
(0.9940410256562485 -0.003156528623216533 1.481019013764072e-21)
(1.385969951126559 0.1994735964041664 4.33276211751746e-19)
(0.6818101386721884 0.0005744895205245757 9.945140251104749e-20)
(1.005724146296415 -0.002139154932084801 -6.011731734731225e-20)
(1.098058048388975 0.01314706069755806 2.556674985391039e-20)
(0.6694510351730821 0.004962815554313881 0)
(1.066081975536882 -0.0120335707598944 0)
(0.9996783349230315 0.1280640657956852 -1.372658638673057e-19)
(1.08444767627908 0.005438641223267165 -2.572085773834959e-20)
(0.9818823455880085 5.232480867299637e-05 3.310782624116727e-20)
(0.9912115413419074 0.00598846427386843 0)
(0.6381389816944222 -0.00113164177971931 0)
(0.9767732850864339 -0.00129984624196441 0)
(0.6419698087278084 -0.001423291332511025 2.668122497979184e-21)
(1.086876047438313 -0.05647401547976012 1.217109976189726e-19)
(1.109052033791389 -0.005335844730250651 1.163666507493233e-21)
(0.9580502725125462 -0.0008694207248499251 3.884998396272638e-20)
(1.016935360673054 0.01067693918977711 1.717498084080646e-20)
(1.064382887259888 0.01030462547551919 -2.258784477960261e-21)
(0.6348216519386167 0.008856204148200972 -3.62021458913282e-20)
(1.004511624192397 0.01230988033885059 -6.135720241990879e-22)
(1.037454292259208 0.01053827724247396 5.162988783233868e-21)
(0.9863559792902339 -0.003300407920750137 0)
(0.610039110516498 -0.000443317626589341 0)
(1.069017167305291 0.0225935745998929 0)
(1.015749126029158 -0.01653671169370938 1.041154729894025e-20)
(1.022175453221201 -0.003337583730297787 0)
(0.9933096801673839 0.01426396598065905 -9.603170890638626e-21)
(1.010186461351751 0.006035069784930814 0)
(1.134002172746805 -0.0005219075650932862 -1.260014415307678e-20)
(0.0304079239272482 -0.1388977324590143 -4.165484990284831e-20)
(1.034593028865769 -0.0168044964172812 -6.663200809709133e-22)
(1.044944578977487 0.009078559871074641 0)
(1.086920038893103 0.06916699378377848 8.417225435745125e-20)
(0.9682493295578949 -0.0008174198256600835 3.113724213161671e-20)
(1.020181460394876 0.01697344127588991 -2.242724509220401e-20)
(1.007046563197245 -0.0009733377514479029 2.398087269731484e-20)
(1.039465026339912 -0.006676415930697413 0)
(0.6409740328412328 -0.004076127317180062 0)
(1.026022572935477 0.02448062349818873 -7.973565023395664e-20)
(1.084288412973535 0.003499580179116978 5.071053847359101e-20)
(1.011515295762917 0.006069740833223817 0)
(0.9816442412964916 -0.0006357435984326259 -1.91732612969319e-21)
(0.8584529529556664 0.01398246077882597 -1.300672128366643e-20)
(1.013944038932058 0.002928953046239222 -9.632787273819734e-21)
(1.024061972799693 -0.0003834963935642582 1.823550465384807e-20)
(0.979868006959296 -0.001038054621978498 0)
(1.007857898985828 0.009513973852317949 3.22238638411119e-20)
(1.109111223280448 -0.00349877650222342 0)
(0.9349539193416488 0.01021961689372107 -3.33116586705943e-20)
(0.9545927507061566 0.002948232761153645 0)
(0.9009710941315384 0.202746419875302 4.970596086006278e-20)
(1.011233712700287 0.06762593848991355 0)
(0.9905737816197374 0.00438495210165142 -2.303380126421627e-20)
(1.05534827140629 -0.04884214254645095 -2.734688189079718e-20)
(0.993647898209998 -0.00081694586099684 3.285740822742044e-20)
(1.007019459138656 0.004002516594670229 0)
(0.9807096121666783 1.167675340436017e-05 -3.050502935418705e-20)
(1.178628202889123 0.09712340044975863 -3.337197619223117e-19)
(1.06770703985931 -0.2632939984209346 0)
(0.994946409571044 0.001088569155836392 -2.241835416943383e-20)
(0.9769051384678288 0.006727514689036965 4.75127667063959e-21)
(0.9580318708233556 -0.002637258299735533 1.051197172079871e-21)
(0.746033398740588 -0.001084519775598043 0)
(1.11499321269099 -0.06916321653768095 0)
(1.006007568916175 -0.0009445444675044742 -2.200835266500701e-20)
(0.9041199563142005 0.002107358916384841 -1.095759282894756e-20)
(0.841638500186498 0.003326715283125084 4.894747968146611e-21)
(1.010682842511202 -0.001503550113079322 0)
(0.9605325168747366 0.01032263697433113 1.56776106340271e-20)
(1.005737643650574 -0.0001899950122338121 -2.245835562499211e-20)
(1.026272162445064 0.000302077681860623 -2.480422182310609e-20)
(1.112604149008197 -0.005635366467803528 -4.896863553683253e-21)
(1.114528186296124 -0.005766968304680934 0)
(1.009395622623927 0.005131588415305845 0)
(1.024928165339129 -0.00251168614799409 0)
(0.9485940218420176 0.01016236846728743 -2.054586614154297e-20)
(1.017877164697698 0.01319444218601374 5.628596817686917e-20)
(1.086025739605183 0.001702514214045352 -2.346767554607046e-20)
(1.037254835813543 0.002815304307252519 0)
(1.108691155166875 -0.003762604121755927 1.817336469812591e-21)
(0.9950562522083027 0.0008544592152117497 -2.23630877717891e-20)
(0.9792158323322068 -0.0001365796196446732 0)
(1.010284810463332 0.001971878349129409 4.702646223357092e-20)
(1.361900457622344 -0.3135973331211083 -1.118485863258328e-18)
(1.120655178548766 -0.0455399675483676 -1.111808428664038e-19)
(0.975451528051239 0.01260545859713551 4.63746146258525e-20)
(0.7741954918239543 0.01804574241823306 -3.651404113526282e-20)
(1.222607047469927 0.04839482483145688 0)
(1.213675816815576 -0.132949078777245 -1.481162042229169e-19)
(1.085758299763855 -0.001954238452186491 0)
(1.009291510920246 0.0007015807673209334 2.266205023345847e-20)
(-0.1950748793165841 -0.08203344373577799 0)
(0.9939712166950636 -0.004676881913478916 0)
(1.012320434843371 -0.02304041262625754 3.860078659962981e-20)
(0.7062805019401043 -0.01941493269902653 0)
(1.096798217306659 -0.01500722196421366 2.370433042358431e-21)
(1.038841376504658 0.004763258093362302 1.41870660961023e-20)
(0.6331844441466594 0.004165881596096457 0)
(1.44486443114734 -0.1239174373494654 0)
(0.9859456626224598 0.002214548056303674 -1.070101785616793e-20)
(1.069604562688964 -0.01502699258276969 0)
(1.037943642750777 0.0005797172194063453 2.061863540802882e-20)
(1.086727380939155 -0.003872169932720774 0)
(1.010938523748416 -0.006285285312411604 -1.265320012287161e-21)
(1.006172472554528 0.003295944050546754 0)
(1.009870499225425 0.0004132103408873583 -9.202099758279123e-22)
(1.003892099828694 -0.02005415474610089 0)
(1.035223184295639 -0.005338242117035464 1.852323852210163e-20)
(-0.2084612995786823 0.04982275004003293 2.815887673966353e-19)
(0.8146428559783355 0.03671529599072264 6.034848960397191e-20)
(1.005040193437496 0.002329803000882301 0)
(1.121586669523833 0.01578704724357841 -1.271493356485075e-20)
(1.108380042152939 0.006612263888190138 9.644972170961994e-21)
(1.053943919010259 -0.0128602315212788 -1.326957025990833e-19)
(0.9987724439388972 0.01040357962542603 -3.621473543738245e-22)
(1.085298519701724 -0.005325645085256674 0)
(1.188017579518844 0.04932615023386068 0)
(0.8350060230010885 -0.07375145476206471 4.609683343343013e-19)
(1.092854324294862 -0.01045010817466943 0)
(1.033353430474532 0.008043288233910451 -7.719021645320774e-21)
(1.042693132748624 0.005403481212104228 5.67973531995223e-21)
(1.051292494641472 -0.05878496267960273 -7.55753490424779e-21)
(1.13976598533691 -0.002596259310644517 1.723842967633858e-19)
(1.077773530874967 0.003057274719871855 0)
(0.9946999882557626 0.001937727955390804 0)
(0.9983029445070336 -0.02523743817227227 -2.393832790997224e-21)
(0.9912646450945442 0.003379666124196046 0)
(1.029532196428296 -0.03652911402910737 6.509433504306147e-20)
(1.292929721205276 -0.0992332094999315 0)
(1.042959353595416 -0.004404752695330291 -2.818075110150897e-21)
(0.9861828416831501 0.0168161774567382 -9.086287158688019e-20)
(1.034760481869802 0.04303609673710759 -2.324749743228565e-21)
(-0.0844653732615922 0.197184673583562 -1.72682581116774e-19)
(-0.06697052859079777 -0.279907965637459 -1.321162072055087e-19)
(0.8649020544246581 0.1109905750280764 0)
(0.2757973015061289 -0.01512465981940486 -2.898884259091801e-19)
(1.011432969908762 -0.01367874396987494 -9.9638699327299e-21)
(1.064013767667151 0.002677949722176682 -2.066265758375769e-20)
(0.9930104339557836 -0.02165307251407527 3.038230646037341e-20)
(1.027189152862435 -0.02807762756890956 2.642902862714881e-21)
(1.009109913274409 -0.03021685627435403 -6.704859696959574e-20)
(0.9887544023128138 0.004916841202239818 -3.494308160327628e-20)
(0.9939204629624655 0.004626131070481388 0)
(1.024314419178525 -0.001969046635736721 -3.516099758634535e-21)
(1.929486664783214 -0.1562159765967797 1.064524983134201e-18)
(1.051320572710905 -0.01717350649676867 0)
(0.9967716434288628 0.00739641718740663 1.486060552380392e-20)
(1.003406578471542 -0.0005046922162733505 4.009956174668304e-20)
(1.176071349797 0.1534108017585022 0)
(1.008422985828378 -0.022731917836705 8.335290192145508e-22)
(0.9536227345657122 0.002423460125030914 0)
(1.037849750879615 0.04171004689823641 0)
(1.294201122003481 0.1493386511683794 2.16061904514411e-19)
(1.076513700798771 -0.004776033383816735 2.32441646103928e-20)
(1.01644848772374 0.03170307662593985 4.498537429291535e-20)
(1.07715688096002 0.00151525427551208 -2.238855408592653e-20)
(1.059205203521317 -0.02335435996327136 -6.94436296452242e-22)
(-0.3885524930544179 -0.03818948443275621 0)
(0.9989182410592085 0.01251477795628981 0)
(0.126909597674264 0.05543824109918219 -9.319803695132258e-20)
(1.005495931266992 0.02120666856745324 -4.002117917327338e-20)
(1.005223953810033 -0.01995165425301933 0)
(1.000570326236184 0.005428419806288536 -4.909507322483433e-21)
(1.081873934289181 -0.04220694743820363 0)
(0.9947233251113181 -0.01926532627076234 -8.068952052397272e-21)
(1.095485362008288 -0.04620036486901354 0)
(1.440920440295388 0.1697672749603386 0)
(1.054557006382389 -0.01172732294917269 0)
(0.9919497841443106 -0.02408366285562641 -4.085596438306532e-20)
(0.984763322738908 -0.01916031937520985 -3.058029615275658e-21)
(1.019097276986407 -0.02097710438020797 -2.126657559756379e-20)
(0.9969277657574521 0.01720625185412365 -5.396592121347055e-20)
(0.9957962692997602 0.009302959561041444 -1.448270390811745e-20)
(0.9951243038034118 -0.02666084269135872 0)
(1.001632536585721 0.02500598958433899 1.882059061231405e-20)
(1.036657622131046 -0.02268915855666452 0)
(1.11050973006399 -0.036523879187233 2.517875953648569e-19)
(0.9951237917531436 0.01678254953426231 4.473679464781436e-20)
(0.6150660413923004 -0.008688561122704302 0)
(1.156601937460381 0.1515055833886886 9.801070494263566e-23)
(0.8228321758755267 -0.08587374467387335 0)
(1.139153409111064 0.07252404384187727 -2.802379051954627e-19)
(1.313213554481385 -0.3877860511763671 1.273299833866588e-19)
(1.074094631212429 0.06684228006349416 -1.294993943641735e-20)
(1.011088638461408 -0.02951909990202677 0)
(0.9547585087768974 -0.2138771877144779 0)
(0.5450975574103889 0.1729036822005439 0)
(1.013443191556592 0.01405735576704193 1.004470966415488e-21)
(0.7146469531160459 -0.01075871170608943 0)
(0.9982171740790114 0.01663324995640097 3.445761571440285e-20)
(1.024127759326095 0.0002417970776114195 -2.655075958751402e-20)
(1.079107103342892 -0.008003149400631663 2.644669075798465e-21)
(1.051188010993077 -0.01806610250795614 2.621497154044942e-20)
(1.043004207885064 0.01107278209639023 0)
(1.053271264450617 0.02366069663815936 -9.31471433457951e-21)
(1.05149673390712 0.03557541484802158 -1.765284077032446e-20)
(0.9836187419993291 -0.02183275252408473 0)
(0.6248887669814589 0.005129999906185167 9.17634558644164e-20)
(0.8941709938570621 -0.00594085552650709 -8.851625054799036e-20)
(0.9093522426727516 0.00523784428783378 1.4478046822923e-20)
(0.6296439365643303 -0.006421892261599043 1.411237173227849e-20)
(0.9800649139535925 -0.0004909299441011928 2.519893239585769e-20)
(1.00441525332715 -0.01760925793183092 -3.284488668846528e-20)
(0.9743407884011261 -0.01762909420962067 -2.826981112062021e-20)
(1.085616586258603 0.00149332340105829 0)
(1.018702927676282 0.005109122982497282 1.078654058949409e-20)
(1.133229694214473 0.04807273977373864 1.3510673027306e-19)
(1.032747088871294 0.04302636158341713 0)
(1.022347714108087 0.002636043717224888 0)
(1.580267250477903 -0.1678132675203545 4.351205601730469e-19)
(1.046497563992987 -0.02899538791081905 0)
(1.02262037647407 0.009442856583822738 -3.575987595826632e-20)
(1.085321593992415 -1.144699614064954e-05 0)
(0.4912935170466214 -0.002809831873875323 0)
(-0.03068525468935653 0.001119581237987343 0)
(0.9905292964396927 -0.02339694492015916 1.251277182013175e-20)
(1.299444951667328 -0.09663166131489201 3.657846313700862e-19)
(1.031598830795854 0.03863042680999806 0)
(1.022653899683476 0.003486062316225241 -2.183070669601408e-20)
(0.9314768671874586 -0.164460723138844 -5.017648749284047e-21)
(1.254403725215072 0.07279297473946035 0)
(0.5990701589405356 0.7322477702193326 0)
(1.304709929417664 0.1417326652473715 1.044030947507801e-19)
(1.67289742357372 -0.02645514105530536 0)
(1.071170510424056 0.1325068515045985 0)
(0.732446009940232 0.003404578161053262 3.578629323578393e-21)
(1.048064525925413 0.04917549031540605 0)
(0.7285573488923993 0.1039370795776355 1.340260036861633e-19)
(0.9968274270179264 -0.01624490175730574 3.587360595203614e-19)
(1.036912073680416 -0.03814468915933251 2.643691723413861e-20)
(-0.3695723609392274 -0.0528323193681718 0)
(1.071844757116047 -0.01611489561665914 0)
(1.089681688818437 -0.01626238304105723 0)
(0.64721674533201 -0.5006534154424013 -2.50766342678034e-19)
(0.9914802350525015 0.0001365356970100417 0)
(1.09191981919826 -0.02222120440443329 6.870907570908155e-22)
(1.189199799938665 0.1207969735017796 -2.050641673428208e-19)
(1.09720349697473 -0.0388687853616571 0)
(1.005227141864572 -0.02074768738237706 0)
(0.793805960311204 -0.1979370916354157 -1.720881026534514e-19)
(0.8959707133423176 -0.144283111416083 1.471004018614128e-19)
(1.032743093709569 0.01071585988724831 -2.062321736244104e-20)
(1.02313448987484 -0.009222576256081872 -4.259357382156121e-20)
(0.8677106674870466 -0.00234399160130766 -1.7136234653953e-22)
(1.502045223932321 -0.1943744996343873 0)
(1.304501138049678 0.1097191134441904 3.069608134174704e-20)
(1.242036129874292 -0.07973434875481125 -3.169251062123495e-21)
(1.095901115914054 -0.01882992041124583 -3.989422262402701e-20)
(1.041126853823725 -0.01867108117151429 3.029388240995636e-20)
(1.092800914366205 -0.03918086211939188 9.567919287671716e-20)
(1.032703182443973 0.02012872214441323 0)
(1.050431793040824 -0.03220608808972212 0)
(1.115857450739594 -0.009038827327860531 0)
(1.098757471777654 -0.03170915284058952 0)
(0.9981418179395387 0.01069906640330743 0)
(1.154512340600023 0.07699652322763775 9.330579259991716e-20)
(1.345026883115923 -0.1604775522369832 0)
(1.042895446653461 -0.0247136736441644 -2.419897874477227e-22)
(1.050795485271663 0.05529398081647666 0)
(1.009956753053535 0.01422537481211842 -3.808490712056209e-20)
(1.033480691262401 -0.008037022404338786 9.376420135991174e-21)
(1.088994162425436 0.01332480902445849 -3.160529833472264e-20)
(1.084129308727722 -0.02943411625236877 0)
(1.075299531667521 -0.004545852281649423 0)
(1.100402233398973 0.09248999454745631 -1.39736968832386e-18)
(0.9348581465299493 -0.1480814467209854 -7.115040506930577e-20)
(1.180634748285454 0.1110105247849803 1.128720079603476e-19)
(-0.4535085799047917 -0.02418198258671634 -2.928196602852515e-19)
(1.019022291195569 0.02972205207940172 -8.550669584119436e-20)
(1.007268583160482 -0.004439364383837135 0)
(-0.2520772372386778 0.009684282974249808 3.575659812090859e-19)
(-0.04139592594164163 0.3370533805155159 7.778479915408453e-21)
(0.9952135671406694 -0.006325086409838337 8.877549311538581e-20)
(0.1843727769563465 -0.04283400190268932 1.316518967063153e-19)
(1.09360196471895 0.09146229407381681 1.472760564230149e-20)
(0.09331996147446522 -0.1070640632193892 -5.353911793226797e-20)
(1.108089684311832 0.003158970950846017 0)
(1.093269996387499 0.2494872225854355 0)
(1.021288042243617 0.02189493104071684 -1.674569473763218e-20)
(1.065648276269919 0.06071772582425346 0)
(1.024035847364863 0.02515517029339107 -8.622065072466248e-21)
(1.260114254678661 -0.5475442377393579 7.976587328658044e-19)
(-0.086487830382051 -0.2265372446385606 2.077720011854966e-19)
(1.297446190177322 0.110592279184669 -6.102653520846923e-19)
(1.124846443295606 0.0008402308869124254 0)
(1.13346446723868 0.106370063711526 0)
(0.5200056586170219 0.07673264520332515 2.422195004122621e-19)
(1.022927166550296 -0.02077168258134587 9.598731911555835e-20)
(1.005457285554846 -0.02330296115782953 0)
(1.213275623703057 0.2714396709319251 -9.8458421734531e-20)
(1.250551168991984 0.1268612509883418 -1.493978244306826e-19)
(1.026480805740336 0.002752827603306267 1.593930861512018e-20)
(1.295272970630206 -0.08501345129645846 -4.945079245522143e-19)
(0.310243924173245 -0.02377837329761429 2.866385313441898e-19)
(0.8358817951446651 -0.1507899385052264 6.925085201265154e-19)
(1.053722398918834 0.07044109250309379 1.092913581636035e-19)
(1.040027726191755 -0.00288480260037976 1.27337827943189e-21)
(1.000727185283225 0.01968924476885634 2.846171422749089e-20)
(1.066481225381207 -0.03687883742773554 0)