/*--------------------------------*- C++ -*----------------------------------*\
| =========                 |                                                 |
| \\      /  F ield         | OpenFOAM: The Open Source CFD Toolbox           |
|  \\    /   O peration     | Version:  2412                                  |
|   \\  /    A nd           | Website:  www.openfoam.com                      |
|    \\/     M anipulation  |                                                 |
\*---------------------------------------------------------------------------*/
FoamFile
{
    version     2.0;
    format      ascii;
    arch        "LSB;label=32;scalar=64";
    class       volScalarField;
    location    "12";
    object      p;
}
// * * * * * * * * * * * * * * * * * * * * * * * * * * * * * * * * * * * * * //

dimensions      [0 2 -2 0 0 0 0];

internalField   nonuniform List<scalar> 
808
(
0.0948231
-0.00577205
0.0219728
0.0945619
-0.23153
0.00233996
-0.0130898
0.00896275
-0.135333
-0.0451318
0.0196598
-0.14986
0.0053964
-0.00800256
-0.311235
0.00777653
-0.325575
0.00619934
0.0223936
-0.0132463
0.0244977
0.363208
0.0507377
-0.0254541
0.44182
-0.212393
-0.0741096
0.00545062
0.00810139
-0.00697007
0.00830259
-0.00298223
0.0103175
0.00600733
-0.10337
0.611794
-0.00663877
0.00270954
-0.00216057
0.011969
-0.0729539
-0.0768102
0.0129279
0.00407589
-0.241791
0.0675881
-0.00498106
-0.00350316
-0.00778675
-0.174072
-0.00559559
-0.0048346
0.0227696
0.00478352
-0.104123
-0.0105699
0.0046671
0.0213723
-0.0399604
-0.0153639
-0.325727
-0.0126944
0.0176663
-0.194367
0.0100499
0.0233743
-0.266292
0.0123348
0.0145677
-0.281214
-0.00255621
-0.312688
-0.00177065
0.000936213
0.171649
-0.00120435
-0.0299258
-0.0842381
-0.00895325
0.298208
-0.153249
-0.00802253
0.00955095
0.25648
0.00298085
-0.0513165
-0.354163
-0.122873
0.00393219
-0.230502
0.015861
-0.118448
0.237706
0.138289
0.017683
-0.254489
0.0149084
-0.165478
-0.126382
-0.233267
-0.00326292
-0.0218734
0.0181315
-0.0444307
-0.123012
0.0371795
-0.275045
0.0123757
-0.0114568
0.0159279
-0.0981949
0.317031
-0.00337692
0.0136205
0.00257447
0.436519
-0.00904457
-0.266538
0.00129294
0.0347766
-0.296809
0.0138038
-0.00812161
0.0356439
0.0930835
-0.0675954
0.0867252
0.0129876
0.0103582
0.0464301
-0.276227
0.00575598
-0.0705749
0.107389
0.0053434
-0.0119334
0.0473952
0.00225624
-0.00170786
-0.013511
-0.298548
0.0243273
0.0326333
-0.00270209
-0.0496016
0.0560517
0.0739996
0.137156
-0.104442
0.00748806
-0.00218453
0.32892
0.00841605
0.521318
-0.291901
-0.122633
-0.00174352
-0.260808
0.0336457
-0.145515
-0.302081
-0.296053
-0.285566
-0.00288678
0.0396975
0.00695024
0.000228857
-0.29098
-0.0070747
0.0136706
0.0158517
0.139932
0.0641808
0.108274
-0.000901463
0.0479399
0.0494376
-0.163097
-0.0058703
-0.338262
0.0144869
-0.158926
-0.00576935
0.245826
-0.343729
0.0961454
-0.00303241
-0.170853
0.0137112
-0.120999
-0.289781
-0.0921621
0.000525346
0.0610564
-0.00539631
-0.286766
-0.000544955
0.0129027
0.00630443
0.0587735
0.0431229
0.00849308
0.00630025
-0.312148
0.360147
-0.279841
-0.299921
0.00661698
0.0187879
-0.00289239
0.00489334
-0.38634
-0.274182
-0.00241791
0.00904324
-0.00546376
-0.319374
-0.0516454
0.0051724
0.0181777
0.0129603
-0.101096
0.0108305
0.00800462
0.00365682
0.0039972
0.104542
-0.28475
0.0303515
0.00657323
0.0983133
0.00736593
0.00497248
0.00635642
-0.136762
0.0159761
0.00699325
0.00222682
0.00308894
0.0118107
0.00191821
0.000724871
0.00406364
0.00570052
0.00057538
0.00173961
0.00170748
0.00119399
0.00241567
0.045791
-0.308692
0.0027793
0.00336118
-0.141951
0.00539061
-0.0143372
0.0170112
0.000744109
0.00547404
0.1073
0.0269519
0.00592332
0.00945823
0.0286375
0.00827293
0.0101448
0.0138774
0.022354
0.0158348
0.041175
0.0206067
-0.383878
0.25987
0.00935789
-0.0858274
0.0148061
0.00882357
0.0116935
-0.225867
0.262411
0.0129328
0.0209583
0.0190902
0.0633759
-0.217432
0.013058
0.0584504
0.0594821
0.0262662
0.0485476
-0.000946533
0.0206806
0.0161022
0.0190992
0.0352634
0.016935
0.0257047
0.0359968
0.0281491
0.0301464
0.0122344
0.011521
0.0175604
0.0100661
-0.490748
-0.125778
0.0322634
0.0366665
-0.185334
-0.341618
0.0232096
0.00996405
-0.303638
0.107524
0.138672
-0.00219673
-0.00266882
0.0369325
0.00426924
-0.220012
0.0145204
0.000637116
0.00410762
0.0207791
0.0170403
0.00876254
0.039059
-0.0245449
0.0200848
-0.288686
-0.0291015
0.00915184
-0.0257412
0.0279789
-0.0128578
0.214771
0.0250232
-0.172817
0.532769
0.0362281
0.00374842
0.00579934
-0.103041
-0.0700458
0.0243455
0.00909349
-0.0180243
0.01535
-0.080354
-0.262377
0.035727
0.0867517
-0.0762844
-0.28274
-0.304043
-0.285698
-0.302024
0.0418038
0.00359765
0.00737452
-0.0108493
-0.0548204
0.00434231
0.00907834
0.000851099
-0.485576
0.0336612
0.00766683
0.0121414
-0.238127
0.0458755
0.00797711
0.0916755
-0.325644
0.0277209
-0.0559426
0.0314168
0.0480437
-0.290948
0.00347462
-0.30829
-0.0148578
0.0634702
0.0106804
-0.00839907
0.00807411
-0.103348
-0.329125
-0.0159465
-0.00351795
0.00340005
0.0134096
-0.0254559
0.00366815
-0.0271596
-0.0265622
-0.126685
0.0191644
-0.00777777
-0.010922
-0.270647
-0.189655
0.0445625
-0.0133139
-0.137253
-0.0485689
0.410283
-0.294317
0.00406946
-0.0864206
-0.00403482
0.0209593
0.00172502
0.0542305
-0.0276844
-0.0329571
-0.0839806
-0.0248806
-0.00231647
-0.00581049
-0.0059932
-0.00258686
0.0163753
0.0949877
0.0762456
0.015145
0.00534781
0.0021343
-0.0841375
0.00346963
-0.365464
0.0517756
0.0315532
0.0109366
-0.237874
-0.310042
-0.0372413
-0.0902972
-0.0725104
0.00588813
-0.280418
-0.232774
0.21412
-0.304906
-0.437253
-0.228518
-0.0741768
-0.0982844
-0.275797
0.336235
-0.0579309
-0.301588
-0.0138719
0.0306097
0.561704
0.00871055
-0.00587582
0.0296029
-0.038207
-0.034041
-0.378923
-0.289079
0.0276419
0.0414122
0.0653911
-0.257014
-0.293844
-0.245779
-0.00226507
0.0223603
0.0720622
-0.0396834
-0.0460445
0.0578386
0.0249023
0.0029249
-0.192179
-0.298605
0.0146982
-0.10576
-0.000540303
-0.0147355
0.0585135
-0.0758327
0.0175342
-0.446307
0.437498
-0.247065
-0.293175
-0.0514719
0.0102459
-0.29287
-0.280351
0.100273
-0.321175
-0.205453
0.850312
-0.00739835
-0.342978
-0.0169295
-0.118497
-0.0282659
-0.440041
-0.304323
-0.29539
0.00574536
-0.228555
-0.346301
-0.0361585
-0.0472377
0.0885665
-0.297826
0.00872839
-0.48204
-0.322211
-0.380405
-0.154498
0.0101603
-0.0128999
0.0863015
0.108535
-0.0576264
-0.286546
0.29126
0.0639332
0.0100927
-0.421057
-0.478952
-0.317356
-0.017758
-0.3354
0.0526087
0.0555484
0.0305947
-0.219948
-0.225959
0.00710605
-0.297155
-0.295155
0.00531434
-0.0273734
-0.293481
-0.0333457
0.0147091
-0.366343
-0.313399
-0.108945
0.084111
0.00484417
-0.316093
-0.293738
-0.259197
-0.243002
0.019303
0.0808898
0.00321229
-0.278198
-0.294866
0.0847884
0.00620048
-0.210329
0.0161837
0.0230281
-0.328513
0.0200552
-0.259249
0.0313684
-0.371001
0.0347987
0.00231234
-0.359024
-0.449205
0.00179542
-0.455326
-0.442506
0.0222992
-0.0812703
-0.284108
0.00529404
-0.291114
0.0126369
0.0649133
0.0442493
-0.390043
0.0418891
0.0523045
-0.451617
0.0137318
-0.310433
-0.00400048
-0.304172
-0.504025
0.0851317
0.26028
0.429355
0.00660563
0.0013807
0.000447747
-0.327494
0.632995
-0.00500551
-0.22691
0.0124523
-0.0668377
0.0640746
0.473331
-0.364195
-0.0712602
-0.0665747
0.0195978
-0.0121259
-0.445471
-0.281534
-0.306897
-0.331032
-0.268715
-0.0207395
-0.347119
0.0240432
-0.271165
-0.316091
0.498576
0.576892
-0.318957
0.103355
-0.286788
-0.0439935
-0.101916
0.393925
-0.075818
-0.307748
-0.0588711
-0.50499
-0.0459917
-0.202448
-0.0296537
-0.308657
-0.278001
0.00195204
0.00310584
-0.31096
0.439072
0.66366
-0.304304
-0.301367
-0.31155
-0.083953
-0.302319
-0.287895
-0.2056
-0.30913
0.741131
-0.335726
0.73352
-0.39903
0.316001
-0.299456
-0.0195994
0.16396
-0.494521
0.218316
-0.28786
-0.310359
-0.337768
0.858486
-0.286881
0.195728
0.135112
0.632343
0.109003
-0.362121
-0.284099
-0.182222
0.00902842
0.0763634
0.513242
0.00953261
-0.0436085
-0.28967
0.107549
-0.126468
-0.263634
0.0108335
-0.3619
-0.155671
-0.163257
-0.354834
-0.0182651
0.0865896
-0.0224669
0.0588332
0.0931073
-0.328396
-0.359512
-0.0591961
-0.00954077
-0.463597
-0.508222
0.165528
0.18185
0.0716255
0.656835
-0.0849189
-0.374736
-0.384274
-0.296265
-0.0661027
0.0728805
0.751007
-0.447651
0.366548
-0.0297302
-0.420676
0.140626
-0.0838022
0.374235
-0.170395
-0.00729961
-0.320735
-0.0799913
0.188019
0.802595
0.321017
0.747722
-0.321623
-0.29514
-0.403359
0.156754
0.257115
0.0434677
0.370486
0.131726
0.485654
0.265221
-0.0610486
-0.188699
0.0131373
-0.34956
0.871531
0.398663
0.637026
0.500626
-0.271285
-0.312032
-0.287763
-0.294119
0.029082
-0.395926
0.0963051
0.585257
-0.326927
0.0076199
-0.29368
0.173158
-0.322548
-0.362605
-0.16858
-0.28603
-0.33014
-0.317159
-0.329646
-0.129696
-0.4031
-0.134219
-0.348657
0.134444
0.645533
-0.225912
-0.306958
0.814631
-0.308145
0.276034
-0.238784
0.381292
0.0721005
-0.294591
-0.393183
0.432033
-0.272407
-0.322933
0.179931
-0.279202
-0.0411436
-0.295387
-0.125588
0.0152334
0.558945
0.768321
-0.294094
0.213152
-0.329068
0.809815
-0.0308744
-0.313356
-0.0433001
0.752406
0.195339
-0.320786
-0.287085
0.443746
-0.216949
0.0270049
0.340334
0.242447
0.283125
-0.256177
-0.338234
0.676885
)
;

boundaryField
{
    FrontBack
    {
        type            empty;
    }
    Top
    {
        type            zeroGradient;
    }
    In
    {
        type            zeroGradient;
    }
    Bottom
    {
        type            zeroGradient;
    }
    Out
    {
        type            fixedValue;
        value           uniform 0;
    }
    circle
    {
        type            zeroGradient;
    }
}


// ************************************************************************* //
