/*--------------------------------*- C++ -*----------------------------------*\
| =========                 |                                                 |
| \\      /  F ield         | OpenFOAM: The Open Source CFD Toolbox           |
|  \\    /   O peration     | Version:  2412                                  |
|   \\  /    A nd           | Website:  www.openfoam.com                      |
|    \\/     M anipulation  |                                                 |
\*---------------------------------------------------------------------------*/
FoamFile
{
    version     2.0;
    format      ascii;
    arch        "LSB;label=32;scalar=64";
    class       surfaceScalarField;
    location    "12";
    object      phi;
}
// * * * * * * * * * * * * * * * * * * * * * * * * * * * * * * * * * * * * * //

dimensions      [0 3 -1 0 0 0 0];

oriented        oriented;

internalField   nonuniform List<scalar> 
1171
(
-0.946201
0.946201
0.768336
-1.07728
0.308949
-0.244891
-0.780905
1.0258
0.0537987
-0.0666438
-0.275982
0.342626
-0.768336
0.0879424
0.680393
0.919269
-0.207006
-0.712263
0.825742
-1.02182
0.196075
-0.354981
-0.0375744
0.392556
-0.00219289
0.603323
-0.60113
-0.544415
0.964337
-0.419922
-0.421625
0.981909
-0.156166
0.24669
0.0958627
-0.342553
0.97772
0.00418867
0.299207
-0.0525174
0.982113
-0.00439285
0.667092
-0.911983
-0.784656
0.608533
0.176123
0.281419
-0.825834
0.559037
-0.914789
0.355752
-1.07853
0.669459
0.409074
-0.64413
0.641937
0.0334815
-0.252887
0.219406
0.0268096
-0.646675
0.619865
0.46668
-0.504254
-0.842858
0.868883
-0.0260253
0.9925
-0.010387
0.876516
-1.04801
0.171496
0.992784
-0.000284261
-0.696684
-0.0879721
1.2325
-0.793098
-0.4394
0.149926
-0.0745359
-0.412785
0.487321
-0.273941
0.184348
0.0895937
-0.601057
-0.476227
0.958328
-0.0818121
-0.02701
0.863789
-0.836779
0.536047
0.69645
0.528787
0.0228277
0.443852
-0.785914
-0.107763
0.893677
0.583216
0.232498
-0.815714
0.020243
0.635289
-0.655532
-0.508185
-0.570348
-0.375302
-0.67271
0.0268594
0.245649
-0.272509
-0.940158
-0.0408488
0.981006
0.373247
0.019309
0.840952
0.0783165
-0.603616
-0.0405139
0.040369
-0.826283
0.0804936
0.901985
-0.982479
-0.407085
0.0279466
0.379138
-0.709967
-0.23019
-0.678935
0.759429
0.653864
0.310473
-0.578303
0.994337
-0.820918
-0.17342
-0.0994247
-0.0189561
0.118381
-0.458202
-0.0460524
-0.302558
0.956422
-0.0104984
0.435249
-0.424751
-0.49576
1.07898
0.7109
-0.818663
0.388763
-0.0716389
-0.317124
0.811795
-0.811795
-0.915682
0.0406515
-0.316633
-0.682365
0.655355
-0.0337822
-0.144067
0.177849
0.867582
-0.0037929
1.03601
-0.803516
0.223189
-0.319738
0.0965491
0.96965
-0.128698
-0.678752
-0.0486672
0.727419
0.149858
-0.231902
0.0820434
0.788822
-0.995827
-0.442297
0.310368
0.131929
0.67327
-0.64646
0.850371
-0.387666
-0.462705
0.475069
-0.693662
0.0361908
0.657471
0.153936
0.666589
0.0461917
-0.712781
0.135792
-0.0951404
-0.513066
0.105982
0.0365193
-0.908096
0.871577
-0.550812
-0.759858
0.0631736
0.499568
-0.0557165
0.275248
-0.832859
0.557611
0.424473
0.575527
0.601624
-0.561255
-0.378264
-0.0196598
0.397924
0.604709
0.207086
-0.679539
0.699782
0.0867831
0.876764
0.00255597
-0.681308
-0.763672
0.800192
0.617922
0.113239
0.350822
-0.46406
-0.156824
0.550477
0.0848125
0.93148
-0.872056
-0.0594242
0.652549
0.341788
-0.431342
0.707241
-0.594002
0.408816
0.150221
-0.0574183
-0.6409
-0.229023
0.869922
-0.16523
-0.646565
-0.612959
0.363541
0.249418
0.660836
-0.65828
0.308843
1.01436
0.0216504
-0.763672
-0.169747
0.0703219
0.7109
0.780632
-0.780632
0.844923
-0.830099
-0.0148238
-0.454166
0.878639
-0.193949
-0.319117
0.761661
-0.668192
-0.0934693
-0.889134
0.248234
0.108909
-0.712524
0.818663
-0.975487
-0.187346
0.174484
0.0128627
0.123813
-0.987297
0.863483
0.546094
-0.0173072
-0.289682
0.595216
-0.305534
-0.646593
0.770407
-0.160082
0.714501
-0.826246
0.111745
1.01865
-0.590285
-0.428364
0.723214
-0.0727747
-0.0129553
0.0116888
0.00126649
-0.800372
-0.855615
0.0747108
-0.682365
0.577045
-0.549099
0.138487
0.661513
-0.799999
0.778496
0.167705
0.492098
0.507902
-0.0983824
-0.675768
0.77415
0.958817
-0.0273365
-0.723214
0.800192
0.180127
-0.433015
-0.0273565
0.00507844
0.0222781
0.677687
-0.435697
-0.24199
0.680393
-0.0356673
-0.141114
0.562501
0.115186
-0.012898
0.00137912
0.0115188
0.00407957
-0.0170349
0.136562
-0.208201
-0.940714
0.0270671
-0.140523
-0.0507842
0.144228
0.776418
0.742667
-0.167141
0.553974
-0.415487
-0.163731
0.38692
0.624943
0.0554506
0.231116
-1.06121
-0.975487
0.31753
0.655355
-0.161626
0.0175595
-0.803485
0.975417
-0.171931
0.485146
-0.106008
0.798802
0.306338
0.296676
0.00253115
-0.680926
0.680926
0.22698
0.666697
-0.0167262
0.451975
0.470595
0.0230551
-0.0504116
0.547811
-0.00171611
-0.646593
0.569256
0.192405
-0.000324467
0.0120133
-0.624943
0.158335
0.817082
-0.00151223
-0.736741
0.738254
0.760609
-0.823439
0.0628303
-0.778496
-0.0351608
0.0484861
-0.0133253
0.0852112
-0.119931
-0.105299
0.22523
-0.00658585
-0.00631211
0.725368
-0.72688
0.929533
0.096263
-0.332579
-0.54031
0.872889
-0.000973275
0.000973275
0.154824
0.48141
0.637963
-1.11937
-0.19265
-0.546425
0.739075
-0.018642
0.196491
0.383342
-0.233484
1.04221
-0.560795
0.784491
1.06902
-0.431056
0.189393
0.770407
0.61424
0.206406
0.662478
-0.646565
0.319074
-0.0163528
-0.00494096
0.0212938
0.894871
0.061669
-0.95654
-0.609847
0.609563
0.545834
-0.609847
-0.61424
0.609563
-0.00626896
0.967412
-0.0378793
-0.604709
0.533688
0.0710214
0.535325
0.573066
-1.10839
0.500846
0.54136
0.57406
0.497463
-1.07152
0.531695
0.537324
0.533688
-0.508992
-0.481804
-0.603375
-0.534157
-0.164733
-0.00541923
0.00541923
0.536845
0.536425
-1.07058
0.717636
-0.366814
-0.966592
0.376307
-0.6875
0.45731
-0.0167268
-0.883203
0.89993
0.452985
-0.0605066
0.955378
-1.01151
-0.931712
0.0767308
0.854981
0.411444
-0.202554
-0.20889
0.70849
-0.790303
0.941903
-0.896974
-0.0449284
-0.0546864
-0.81737
-0.176901
0.833191
-0.65629
-0.976476
0.92179
-0.641617
0.651769
-0.0101515
-0.822342
0.0402816
0.78206
0.00377686
-0.00475013
0.425469
0.0696118
-0.902164
0.832552
-0.794164
0.695781
0.996339
0.0938553
-1.09019
0.0646276
-0.0025135
0.400438
-0.359836
0.0400987
0.897672
-0.914399
-0.726079
-0.866851
0.0494818
-0.125291
-0.907664
0.0106899
0.529872
0.0241017
0.0853753
0.326069
-0.743686
0.783967
0.462705
-0.94371
-0.882621
0.0847911
-0.000400361
0.726629
-0.726229
-0.00773385
-0.726479
0.579787
0.180822
0.0170565
0.938321
0.99852
0.912551
-0.901861
0.04643
-0.04643
-0.0839596
-0.230884
0.0283297
0.337968
-0.0204373
0.261009
0.930587
0.00444691
-0.0110328
0.658522
0.341478
0.798435
-0.601057
-0.748066
-0.66456
-0.583538
0.583538
-0.207267
-0.109366
0.642714
-0.913872
0.271158
-0.498299
-0.545284
0.33948
-1.01219
-0.936814
0.891885
-0.777741
0.827223
0.660781
0.178022
-0.838803
-0.674711
-0.188749
0.845375
-0.656626
0.00622636
0.00215939
0.00291401
-0.0050734
-0.072715
-0.158169
0.982194
0.707364
-0.36868
-0.338684
0.498474
0.745797
-0.518818
0.0123368
-0.286278
0.0640211
0.77768
-0.841701
-0.351409
-0.0943815
0.141348
-1.017
0.0604606
-0.73585
0.0913417
0.735203
-0.826545
-0.849332
0.113482
0.690865
-0.785247
0.236916
-0.356847
-0.603559
-0.0711528
0.370454
0.735145
-0.027904
0.000427805
-0.000427805
-0.00404011
0.016053
-0.0324059
-0.0144445
0.0188914
-0.579457
0.321156
0.761746
-0.81352
0.0517733
-0.677081
0.768423
0.782236
-0.0913704
-0.679463
-0.169869
-1.10167
0.0207433
0.0256867
-0.515436
-0.856364
-0.841696
0.402296
-0.168711
0.183779
-0.0150686
-0.444512
-0.0709235
0.527761
0.71232
-0.0430236
-0.00776061
1.08815
0.512485
0.203594
-0.716079
-0.422835
-0.0216774
-0.00570663
0.00786602
0.68597
-0.914992
0.00584489
-0.00584489
-0.726806
0.722586
0.00421909
-0.33746
-0.133205
-0.686879
0.16541
0.60874
-0.0538028
-0.875627
-0.293909
0.180485
0.113425
0.756435
-0.704662
0.345712
0.262129
-0.607841
-0.170394
-0.693433
-0.133112
-0.21432
-0.1285
0.469394
-0.515446
0.192406
0.717475
-0.909881
0.475069
-0.14999
-0.0187213
0.125032
-0.253532
0.597152
-0.0951645
-0.501988
-0.284886
0.305232
-0.0203464
0.588662
0.128974
0.0888025
-0.311299
0.169139
0.14216
-0.200163
0.0304167
-0.312094
0.0751312
-0.0407097
-0.0344215
0.844952
-0.290545
-0.0469142
0.553965
0.278113
-0.646794
0.490934
-0.490934
-0.235724
-0.494172
-0.242851
-0.494172
-0.687899
-0.849381
0.181189
-0.262216
0.743133
0.0480536
0.150481
0.584664
0.109843
0.118687
0.00966439
-0.128352
-0.081731
0.668457
-0.989097
0.448787
-0.0466596
0.0791683
-0.0325086
-0.747996
-0.175976
-0.584919
0.788512
-0.517646
-0.0460632
-0.207468
-0.337561
-0.0806299
0.0806299
0.0463675
0.00211856
0.139431
0.214196
-0.739143
0.154224
-0.0516006
0.472252
0.527748
0.784584
0.024468
0.0115639
-0.0360319
-0.300313
-0.575315
-0.560283
0.113659
-0.118612
0.00495312
-0.111611
-0.414282
-0.107503
0.716243
-0.577514
-0.170482
-0.0650193
0.0227306
0.213632
-0.486411
-0.197603
-0.187082
-0.0211193
-0.480073
0.435626
0.0444463
-0.0693984
0.294561
-0.864909
-0.536658
0.634512
-0.861702
0.691308
0.449462
-0.0292799
0.0540488
-0.0247689
0.0637608
-0.636116
-0.00435877
0.640475
-0.893509
0.645749
-0.729708
-0.0972122
0.00741422
-0.00741422
-0.298962
0.426566
-0.0261281
0.00772862
0.0167394
0.590018
0.670586
-0.730011
0.0128071
0.00383813
-0.00341032
0.0045459
-0.0045459
-0.498964
0.627937
0.0142905
-0.0142905
-0.77654
-0.0088728
0.0126497
-0.51993
0.674154
0.611021
-0.606802
0.069321
-0.069321
-0.0150042
-0.0354074
0.00940888
-0.971184
0.54282
-0.514032
-0.00475013
0.600834
0.0122218
-0.613056
-0.711059
0.133545
-0.31614
-0.0138058
0.329946
-0.0252482
-0.0177754
-0.607475
-0.0286417
0.0256867
0.00566183
0.000183065
-0.00332053
0.00332053
-0.322204
0.287782
-0.452571
0.13562
0.662816
-0.131415
0.00248621
-0.00248621
0.508443
-0.160342
0.0083875
0.0182725
-0.000204238
0.586367
-0.746708
-0.698272
0.651358
-0.0874662
0.328152
0.761078
-0.00404011
-0.0881864
0.1002
-0.66572
0.553999
-0.332759
-0.110225
-0.027688
-0.0258341
-0.00288053
0.468879
-0.0856933
-0.416294
0.687515
0.00087333
0.00561956
-0.00561956
-0.176118
-0.108007
-0.572353
0.620407
-0.134579
0.509523
-0.191891
0.858983
0.781939
0.00566183
-0.725778
0.640825
0.051957
-0.0242183
-0.0277387
0.58196
0.0893654
-0.011817
0.0652021
-0.0533851
0.00849649
-0.00849649
-0.781008
0.022891
-0.0442902
0.0625627
-0.0862555
0.0862555
0.00383813
-0.0015539
0.718324
0.0987582
-0.31782
-0.0964621
-0.520119
-0.0130623
-0.0664292
0.0664292
-0.0510362
0.0812619
-0.0812619
0.0261138
-0.0261138
-0.355728
-0.0756145
0.240779
0.0695893
0.0427543
-0.751843
-0.0626756
0.160939
0.019188
-0.243157
0.0810338
-0.0810338
-0.466219
-0.049227
0.230879
-0.0114731
0.00234131
-0.651701
0.65797
-0.00061567
-0.0504205
0.0514739
-0.0868813
-0.0119409
-0.156821
0.168762
-0.150795
-0.206053
-0.0811534
0.0811534
0.0549279
-0.0549279
-0.0291228
-0.0940372
0.12316
-0.0297868
-0.188337
-0.00773366
0.00432334
-0.209071
0.496853
-0.0257021
0.465083
0.00723084
0.004288
-0.0505858
0.0505858
-0.734067
0.317922
-0.12853
-0.20854
-0.023362
-0.0161529
0.0184942
0.197907
0.0273235
-0.000879853
0.000675615
0.0838494
0.0298099
0.055429
0.10551
-0.0147469
0.00698628
-0.000225338
0.00414448
0.00609167
0.00554766
-0.0116393
-0.00178143
0.00810417
0.027978
-0.027978
0.0490493
-0.0422896
0.0422896
-0.190697
0.00843248
0.0274191
-0.0753616
0.0176174
0.0770527
-0.0770527
0.242353
-0.236324
0.0855295
-0.0671385
-0.169186
-0.016002
0.016002
0.406214
0.251257
-0.519459
-0.080742
-0.0378705
0.541834
0.0216872
-0.0608629
-0.45428
0.0774129
-0.153277
0.169955
-0.0166783
-0.0472427
0.0472427
0.838491
-0.592719
-0.00956653
0.0077851
-0.0056256
-0.285342
-0.000228157
0.00510215
-0.0451161
-0.629043
0.569346
-0.666891
0.0147242
0.181711
0.0158433
0.024472
-0.158902
-0.334697
0.259336
-0.0560727
0.0269498
0.17093
0.134302
0.247947
0.264306
-0.248463
0.00627474
-0.114411
-0.222345
0.0680487
-0.0126197
0.160249
-0.135777
-0.0685591
0.152409
-0.404762
0.120524
-0.102906
0.058484
-0.474778
0.175057
0.177206
-0.245765
0.00722432
-0.177395
0.177167
0.0039811
0.148427
-0.0279991
0.0495439
0.458899
0.011976
0.0154374
-0.00681415
0.0367286
-0.239024
-0.202768
0.589896
0.169434
0.0614445
0.0772628
-0.0633009
0.0581335
-0.0858722
-0.0302925
0.166419
-0.151695
0.0125568
-0.00524319
-0.105461
-0.0289678
0.0195431
0.252077
-0.00481844
-0.0287478
-0.312061
-0.00934288
0.217305
0.139401
0.178521
0.0573424
0.097458
0.0538415
0.536176
-0.0118647
0.103606
0.0429121
0.0658696
-0.108782
-0.268202
-0.196744
0.0275579
-0.222701
0.284503
)
;

boundaryField
{
    FrontBack
    {
        type            empty;
    }
    Top
    {
        type            calculated;
        value           uniform 0;
    }
    In
    {
        type            calculated;
        value           uniform -1;
    }
    Bottom
    {
        type            calculated;
        value           uniform 0;
    }
    Out
    {
        type            calculated;
        value           nonuniform List<scalar> 10(1.07491 1.04432 1.08518 1.07305 1.07053 1.07148 1.07327 1.04358 0.726657 0.737024);
    }
    circle
    {
        type            calculated;
        value           uniform 0;
    }
}


// ************************************************************************* //
