/*--------------------------------*- C++ -*----------------------------------*\
| =========                 |                                                 |
| \\      /  F ield         | OpenFOAM: The Open Source CFD Toolbox           |
|  \\    /   O peration     | Version:  2412                                  |
|   \\  /    A nd           | Website:  www.openfoam.com                      |
|    \\/     M anipulation  |                                                 |
\*---------------------------------------------------------------------------*/
FoamFile
{
    version     2.0;
    format      ascii;
    arch        "LSB;label=32;scalar=64";
    class       volVectorField;
    location    "12";
    object      U;
}
// * * * * * * * * * * * * * * * * * * * * * * * * * * * * * * * * * * * * * //

dimensions      [0 1 -1 0 0 0 0];

internalField   nonuniform List<vector> 
808
(
(0.894148 -0.0140283 0)
(1.01989 -0.0384875 0)
(1.16668 0.0126217 0)
(1.06822 0.0104029 -2.01343e-21)
(1.47074 -0.287932 0)
(0.956996 -0.0318179 0)
(1.12966 -0.0531388 1.97053e-21)
(1.08418 -0.021286 0)
(1.34516 -0.2259 2.62685e-20)
(1.22773 -0.0922794 -1.19721e-20)
(1.18118 -0.0665163 4.29695e-21)
(1.37507 -0.256139 0)
(0.986567 -0.0163799 0)
(0.726504 -0.0234638 0)
(0.987591 0.0497856 2.19157e-20)
(1.04393 0.00231597 0)
(0.874468 0.0477448 -7.27871e-21)
(0.967224 0.00329754 -2.56787e-23)
(1.1866 0.0406418 0)
(1.11514 0.00257187 0)
(1.20446 -0.0677222 -5.99692e-21)
(0.928915 0.124671 1.05076e-19)
(1.07261 0.0123018 -8.74018e-21)
(1.17752 -0.0382208 0)
(0.953714 0.187231 0)
(1.34712 0.0411591 -3.65754e-20)
(1.27838 -0.178057 1.08511e-20)
(0.947197 0.000551141 -2.41891e-21)
(1.04601 0.00732055 0)
(1.02942 0.0233853 -3.47114e-22)
(0.958334 0.00335577 2.02862e-24)
(1.12259 -0.013904 0)
(1.00579 -0.0216186 0)
(1.04923 0.00584119 1.85931e-21)
(1.30499 -0.0812334 9.84192e-21)
(0.741971 -0.111524 1.08386e-19)
(0.860339 -0.0301594 1.62077e-21)
(0.988541 0.00121888 2.45094e-22)
(1.18194 0.0513652 7.48235e-22)
(1.06914 -0.0253177 0)
(1.26285 -0.0741317 -1.95691e-20)
(1.27432 -0.13378 0)
(1.00126 -0.00442682 -3.37808e-21)
(1.10831 -0.0433502 1.85155e-21)
(1.25475 -0.082843 0)
(1.00998 0.0183809 -1.52496e-20)
(0.976935 0.0373396 -5.53639e-22)
(1.25058 -0.250159 1.02471e-20)
(1.16374 0.0611208 2.47427e-21)
(1.40049 -0.184433 -3.79482e-20)
(1.1249 -0.0485995 -2.64319e-21)
(1.15082 -0.0741184 0)
(1.11992 -0.00634851 2.99862e-21)
(1.06495 0.011354 0)
(1.32434 0.228944 6.07044e-21)
(1.06144 0.0476546 8.98163e-22)
(1.06622 0.0102717 0)
(1.16486 -0.0741582 2.34301e-21)
(1.23516 -0.0979158 1.28512e-20)
(1.13403 0.0386961 1.44229e-21)
(-0.255156 0.0666995 0)
(1.2138 -0.211865 -8.91624e-21)
(1.14237 -0.0590295 0)
(1.42713 -0.0975893 -2.97362e-20)
(1.12114 -0.0466498 -2.80757e-21)
(1.03748 -0.0301788 -3.47684e-21)
(1.33321 -0.131251 2.87563e-20)
(0.654026 -0.000863238 0)
(1.12697 -0.0655458 0)
(1.43503 -0.351632 0)
(0.850712 0.0293006 2.18336e-23)
(1.23853 -0.142065 -4.14709e-20)
(0.974921 0.0477477 0)
(1.05281 -0.0470293 1.6754e-22)
(1.11999 -0.3335 -5.34807e-20)
(1.11879 -0.0443724 -2.00532e-23)
(1.14883 0.031721 8.76137e-22)
(1.32278 0.49787 2.49817e-20)
(1.10277 -0.0383624 0)
(1.01396 0.284253 -1.729e-19)
(1.36019 0.0133302 2.11504e-20)
(0.715999 0.0254581 0)
(0.832662 0.0227738 3.59038e-22)
(0.966927 -0.109507 3.97701e-21)
(1.10958 -0.0625091 3.17951e-22)
(1.1923 0.015705 2.14694e-21)
(1.27898 -0.235073 0)
(1.3502 0.286935 0)
(1.09738 0.000432004 -2.00581e-21)
(1.41953 0.0820846 4.03643e-20)
(1.07732 -0.0227572 5.83815e-21)
(1.31881 -0.126999 -1.52317e-21)
(0.966019 0.0261704 1.55449e-20)
(1.00412 -0.0246312 0)
(1.1159 0.0131862 7.04894e-22)
(1.28364 -0.0810478 -7.46039e-20)
(0.844431 0.00307588 -1.86381e-21)
(1.3646 -0.0685368 0)
(1.32395 -0.0947195 0)
(1.41228 -0.0994296 -4.52299e-20)
(1.07639 -0.0481399 5.35407e-22)
(1.12648 0.0149156 1.45079e-22)
(0.956385 0.022986 5.70718e-21)
(1.18674 0.00752193 -1.03007e-21)
(1.33573 0.0253126 -2.8002e-20)
(0.999943 0.00416061 8.75044e-21)
(1.46765 -0.0790432 0)
(1.03848 0.032139 0)
(1.09701 0.036407 -2.23426e-21)
(1.2001 -0.219606 -5.7054e-21)
(1.28335 0.00726898 1.57978e-20)
(1.04679 0.0472561 -1.16172e-19)
(1.14177 0.0427911 9.98698e-22)
(1.16738 0.120787 2.60502e-21)
(0.847482 -0.0116516 0)
(0.91701 -0.0462881 7.31302e-20)
(1.14164 0.0295461 2.35152e-21)
(1.42783 -0.263199 -1.84091e-20)
(1.09552 -0.0371756 -1.17235e-21)
(0.919625 0.0109238 2.32869e-21)
(-0.41565 -0.00437035 0)
(0.863304 -0.0166139 2.01065e-21)
(0.804404 0.0294235 0)
(1.06841 0.000819127 -5.868e-23)
(1.01218 0.0298662 0)
(1.31363 0.320282 9.23394e-21)
(1.03101 -0.0551579 -2.60623e-20)
(1.28445 0.151015 1.5786e-21)
(1.14886 -0.063079 0)
(1.09315 -0.0250053 0)
(0.58058 -0.0222302 0)
(1.09678 -0.0302082 -9.29855e-22)
(1.24832 -0.0508785 1.15031e-20)
(1.06626 0.112795 -2.91584e-20)
(0.873122 -0.0090021 0)
(1.1065 0.0259972 5.96676e-22)
(1.12081 0.0333097 2.61837e-21)
(1.08789 -0.0060975 -6.89477e-22)
(0.969217 0.0324828 -3.89006e-22)
(1.12884 0.0132803 -1.21626e-22)
(0.00445838 0.0821927 0)
(1.09598 -0.02153 -6.58595e-21)
(1.16131 0.0232798 1.6735e-21)
(0.722921 0.0324972 3.97427e-22)
(1.26141 0.170951 2.09924e-21)
(1.09703 0.0914655 3.78196e-21)
(1.04907 0.0198037 1.28134e-20)
(0.992118 0.0283434 0)
(1.14081 -0.15815 -1.87128e-20)
(1.05947 0.0302278 0)
(0.907722 0.0329908 -8.51933e-22)
(0.967684 0.283429 1.3842e-19)
(0.957869 0.0387182 0)
(0.818594 0.102142 0)
(-0.135929 0.0497412 -7.29925e-20)
(1.34173 0.133934 -1.48446e-20)
(0.655801 -0.0256568 0)
(1.46443 0.0141418 0)
(1.12215 0.00982387 0)
(1.36272 0.0857886 1.68827e-20)
(-0.036618 -0.0874509 0)
(-0.0662492 0.101445 3.48999e-20)
(0.98175 -0.0505058 8.15417e-20)
(0.992122 0.0406711 -5.21583e-22)
(0.859831 0.00370611 0)
(1.04025 -0.0303168 2.12024e-21)
(0.893515 0.0262627 0)
(0.724244 -0.0314473 -8.813e-20)
(1.00901 0.0613711 -3.5119e-21)
(1.10305 -0.0327354 1.17572e-21)
(1.09118 0.00762712 1.70058e-21)
(1.01386 0.0700775 -1.00948e-20)
(0.787472 0.0497361 -3.76503e-21)
(1.13565 -0.34795 4.57838e-22)
(0.914467 -0.0240956 0)
(1.06515 0.00381508 -9.69332e-21)
(0.873018 0.0109013 -7.62095e-21)
(1.37469 -0.171977 2.31259e-21)
(0.695712 0.0348392 0)
(1.04199 -0.142417 0)
(1.08474 -0.0470159 1.42153e-21)
(1.39407 0.216881 1.1813e-20)
(1.11125 0.0235223 2.64149e-22)
(1.03706 0.0182389 1.77866e-20)
(0.760961 0.0537424 -8.91816e-20)
(0.81203 0.00420425 1.50962e-20)
(1.13539 -0.0184519 -9.04033e-22)
(1.38339 -0.0839812 -5.58061e-21)
(1.09045 -0.0371902 -2.64118e-21)
(1.3207 -0.0495021 4.78202e-21)
(-0.150606 0.0808392 5.33083e-20)
(1.27937 -0.0354437 0)
(0.583438 -0.0137123 0)
(1.06123 -0.0250773 -4.71644e-21)
(1.10394 0.0183506 -2.24689e-21)
(0.0628147 0.101163 0)
(0.883996 -0.0170279 6.33827e-24)
(1.08876 -0.0505282 -1.22525e-21)
(1.01145 0.00436894 1.01847e-21)
(1.07998 0.0331843 -5.68819e-21)
(1.00994 0.0234206 2.60693e-21)
(1.03123 -0.0366756 1.08081e-21)
(1.036 -0.0197114 0)
(0.335117 -0.0354609 0)
(1.04791 -0.0632906 0)
(1.14944 0.110161 -3.06652e-20)
(-0.0372449 -0.0905505 4.84416e-20)
(1.08337 -0.00131318 -9.90688e-24)
(1.19909 0.0333767 0)
(0.762076 0.0286958 7.90423e-22)
(1.10995 0.000995193 9.09811e-22)
(-0.00427225 -0.0387614 -1.53111e-19)
(0.792238 0.00421268 -5.04079e-20)
(0.59328 -0.0218537 0)
(1.06565 -0.00708151 0)
(0.918896 0.0465294 -5.55771e-22)
(1.01074 -0.110042 5.91284e-21)
(1.28036 0.39758 2.94639e-21)
(1.09055 0.00228235 -4.68171e-23)
(1.11773 -0.0695149 -2.64906e-21)
(1.06469 -0.000456461 0)
(1.36406 0.423812 -4.42711e-20)
(0.633094 -0.0110457 0)
(0.831445 -0.0025237 -1.00293e-21)
(1.04481 0.0128672 -1.42201e-23)
(0.563355 0.000882434 0)
(1.10119 -0.00597778 0)
(0.045677 0.00493827 -4.48664e-20)
(1.17678 -0.0888947 -5.40858e-21)
(0.812822 -0.0024324 1.03469e-21)
(0.991617 -0.00326676 0)
(0.588876 -0.00409215 0)
(0.818844 0.00497558 -8.37877e-22)
(0.603018 -0.00509337 -1.76899e-22)
(1.32995 0.0175013 4.05651e-22)
(1.17795 0.0253598 -2.62691e-21)
(0.802614 0.00429638 -1.37237e-21)
(1.06313 0.0143242 2.14973e-22)
(1.08818 0.00169724 4.4114e-23)
(0.603786 0.00591793 3.68376e-21)
(1.07793 0.0176908 2.34947e-22)
(1.07606 0.00786783 0)
(1.0661 -0.00635522 0)
(0.58612 0.0112239 0)
(1.0437 0.0081292 0)
(1.0844 -0.00421097 -5.90116e-22)
(1.07367 -0.00091452 0)
(1.06989 0.0122514 0)
(1.07075 -0.00283679 0)
(1.09201 0.0363494 0)
(-0.0218915 -0.0398242 4.78781e-20)
(1.07894 -0.00344634 3.94736e-22)
(1.07274 0.00080937 0)
(1.34284 0.0130733 2.08345e-20)
(1.07703 -0.00983838 6.79085e-22)
(1.10684 0.0536135 -2.16468e-21)
(1.08824 -0.0211431 3.06219e-21)
(1.07353 -0.000754937 0)
(0.57875 0.000100025 1.88815e-21)
(1.05211 0.0415727 9.81818e-21)
(1.17691 -0.0550535 0)
(1.08196 0.0109662 -1.04009e-21)
(1.08775 0.00292778 1.96102e-21)
(0.690605 0.119411 -5.38632e-21)
(1.10291 0.0122356 1.80819e-21)
(1.09205 -0.00309438 -2.89252e-21)
(1.04291 0.0476029 0)
(1.14646 0.0816741 -1.00454e-20)
(1.12794 0.040611 -2.47195e-21)
(0.822231 -0.0334223 7.4975e-21)
(0.980497 0.0290154 0)
(-0.0163049 -0.0212223 0)
(0.976344 0.114045 -1.66574e-20)
(1.05943 -0.000899597 0)
(1.28552 -0.0960142 2.95019e-20)
(1.10527 -0.00424639 5.89681e-22)
(1.08292 0.00449735 2.78048e-21)
(1.10067 0.000924431 -1.71397e-21)
(1.3483 -0.0439008 1.08157e-19)
(1.01634 -0.32246 5.3992e-20)
(1.07634 -0.0168203 -2.1404e-22)
(0.982085 0.0116464 0)
(1.0185 0.0490266 0)
(0.899557 -0.00149807 -2.09528e-20)
(1.29869 -0.15055 -5.55103e-20)
(1.08216 -0.0127835 0)
(0.715226 0.00799245 1.21219e-20)
(0.478862 0.11025 0)
(0.933667 -0.0104693 5.18519e-21)
(0.851578 -0.0029906 -1.38954e-20)
(0.782685 0.0227996 5.99085e-22)
(1.10373 -0.0295766 0)
(1.14404 0.0329447 -6.87824e-22)
(1.17224 0.0454954 2.80795e-21)
(0.896048 -0.0475378 -6.81183e-21)
(1.09772 -0.00730036 -2.77948e-21)
(0.91445 -0.0177797 0)
(1.09349 0.0711108 0)
(1.14386 -0.0524752 4.70201e-21)
(0.924112 -0.03642 -5.2379e-21)
(1.11557 0.0251623 3.75903e-21)
(1.06905 -0.0068746 -1.81678e-21)
(1.01666 0.0433026 4.0822e-22)
(1.0623 -0.0032667 0)
(0.414076 -0.137861 1.38581e-20)
(1.33138 0.0777033 -2.69238e-20)
(0.921502 -0.0208523 -8.68303e-21)
(0.164355 0.0233545 5.69545e-21)
(1.42087 -0.145655 2.63826e-20)
(0.931673 -0.022028 8.29304e-20)
(1.16159 -0.0274987 -4.82998e-21)
(1.07476 -0.0102303 -1.27221e-22)
(-0.0553348 -0.0919783 -8.29025e-21)
(0.998004 -0.00522231 0)
(1.03532 -0.0877838 -1.50503e-20)
(0.85546 -0.0343433 -1.79118e-21)
(1.07885 -0.0597415 -1.99006e-22)
(0.897253 -0.0691568 -3.69338e-22)
(0.611233 -0.0109836 5.13763e-22)
(1.40997 -0.383928 -1.53039e-20)
(1.07994 0.0484433 0)
(1.04408 -0.00431115 -4.95211e-22)
(1.12466 0.0387476 -4.29818e-22)
(1.16059 -0.0215475 0)
(0.980949 0.00571214 -6.06301e-21)
(1.11429 0.0312439 7.71765e-22)
(0.852808 -0.0694654 1.51058e-20)
(1.14272 -0.0565381 1.34393e-20)
(0.970307 -0.0104406 3.39833e-21)
(-0.0408134 -0.0246371 0)
(0.541456 0.113975 1.44499e-20)
(1.11684 0.0391168 0)
(1.01339 0.169695 8.00663e-21)
(1.00437 0.201943 0)
(1.12201 -0.0116493 -4.36796e-21)
(1.01544 0.0272992 0)
(1.11919 -0.0351104 0)
(1.39295 -0.126285 2.25257e-20)
(0.795034 -0.0846533 0)
(1.19504 -0.0917842 1.20176e-20)
(1.05131 0.0117458 5.19977e-23)
(1.03548 0.0491981 5.1652e-22)
(1.27124 -0.098174 -1.81473e-20)
(1.24823 0.119037 -8.88122e-21)
(1.19374 -0.0903509 9.35589e-21)
(1.11887 0.0311646 0)
(1.15878 -0.0509298 0)
(1.07643 0.0370486 1.05753e-21)
(1.22236 -0.0441198 0)
(1.41386 0.217159 -2.84852e-20)
(0.872826 -0.0657121 1.99828e-22)
(1.027 0.0120054 1.66627e-20)
(1.26688 0.0251465 -4.41133e-22)
(-0.0141633 0.00142668 0)
(-0.0285631 -0.0627454 0)
(0.0653939 0.0544532 -4.25905e-20)
(-0.0460762 -0.0929975 0)
(0.786288 -0.0411372 -8.53284e-21)
(1.16389 0.03676 7.48131e-22)
(1.13595 -0.0592759 -1.60652e-21)
(1.19605 -0.0928953 -4.81576e-21)
(1.19593 -0.0611913 0)
(0.800879 -0.0035683 -8.87734e-22)
(1.11963 0.0561352 0)
(1.09344 -0.00264783 3.12174e-22)
(0.502636 -0.108984 0)
(0.823785 -0.0322484 -2.61392e-22)
(1.10629 0.0737516 0)
(1.11268 -0.0177544 0)
(0.67687 0.0487927 4.85407e-20)
(0.668483 0.021575 -1.76914e-21)
(1.04854 0.0219763 1.25579e-21)
(1.01621 0.0163287 -7.48767e-21)
(0.170008 -0.0718017 0)
(1.18756 -0.0869817 -1.38417e-20)
(1.23152 0.08382 -9.12993e-21)
(1.18542 -0.109833 3.67048e-22)
(0.725341 0.00513508 7.42283e-21)
(-0.0542486 -0.0533472 -1.00794e-19)
(1.1285 0.0861267 0)
(-0.0341597 0.0421373 0)
(1.17122 0.102218 -2.93817e-21)
(0.496431 0.0740765 -7.9881e-21)
(1.09663 -0.00223491 -3.72902e-21)
(1.08797 -0.0493019 0)
(1.15339 -0.0617478 1.3589e-21)
(1.24512 -0.202897 1.78715e-20)
(0.539631 -0.0458402 -9.78934e-21)
(1.13826 -0.0480807 3.0412e-21)
(1.15736 -0.0562108 7.60539e-23)
(0.179564 -0.143476 1.73147e-20)
(1.19983 -0.0680184 -6.17415e-21)
(1.13265 0.0436701 0)
(1.13438 0.088287 0)
(1.17291 -0.0703469 5.25855e-21)
(1.18519 0.0890836 8.25123e-21)
(0.717578 -0.215477 -3.98872e-20)
(1.1925 -0.120215 -8.42523e-21)
(1.1089 0.0635139 -2.36333e-21)
(0.472953 -0.00706723 -1.48123e-21)
(0.27115 -0.0237729 -9.00353e-20)
(0.0787449 -0.26444 2.91837e-20)
(1.17348 0.186069 -6.69388e-21)
(1.23059 -0.49245 6.04685e-21)
(1.40786 0.0664151 -1.81546e-20)
(1.18822 -0.0644655 -6.23172e-21)
(0.934985 -0.231449 9.07605e-20)
(-0.354346 -0.136438 0)
(1.07861 0.011068 -3.01631e-22)
(0.0772187 0.131287 -1.49668e-20)
(1.1556 0.106154 2.54245e-21)
(1.12029 -0.0671621 3.68764e-21)
(1.07891 0.0339498 0)
(0.625669 -0.00283221 0)
(1.172 -0.0527298 0)
(1.30606 0.190603 -6.00285e-21)
(1.26218 -0.0197307 -3.21049e-20)
(1.14331 -0.0548885 -6.34127e-21)
(0.583111 0.0123389 0)
(0.731972 0.00327158 0)
(0.742568 -0.00200663 2.29657e-22)
(0.583638 -0.0110737 0)
(1.12827 -0.00589299 0)
(1.02109 -0.0128626 2.04948e-20)
(0.282583 0.0312084 0)
(0.935597 0.00407701 0)
(1.0569 0.00343349 0)
(1.17829 0.183501 2.12017e-22)
(1.27057 0.0473099 1.45797e-20)
(0.958116 -0.0295579 2.1111e-21)
(1.28893 -0.399898 -1.10751e-19)
(0.580316 -0.105353 -4.7687e-21)
(1.18901 0.0584144 3.54225e-21)
(1.15256 -0.0112868 0)
(-0.367953 -0.144241 0)
(-0.238748 0.119405 0)
(1.15433 -0.0464467 -1.04143e-20)
(1.31769 -0.289249 -3.0244e-20)
(1.32242 0.118925 0)
(1.05742 0.0304442 -1.67725e-21)
(0.510785 -0.10799 0)
(1.50343 -0.170329 7.50036e-20)
(0.413155 0.521789 1.05823e-19)
(0.276935 -0.0402463 0)
(1.0958 -0.276722 1.1888e-19)
(0.236789 -0.0106073 0)
(-0.246789 -0.176459 4.89932e-21)
(1.36856 0.105889 0)
(-0.128863 0.0428914 1.56288e-21)
(0.983474 -0.0500023 0)
(1.22725 -0.105062 -1.2269e-20)
(-0.149207 -0.0175347 -8.18388e-21)
(1.11275 -0.0394342 -1.90212e-21)
(1.16766 -0.0616678 -5.16133e-21)
(0.570817 -0.510714 -8.9768e-20)
(1.07966 -0.00158536 -1.10584e-21)
(1.19154 -0.128447 1.15707e-21)
(1.18346 0.249226 -1.44109e-20)
(1.13389 -0.160046 -7.3682e-22)
(1.15654 -0.0289485 -2.19212e-21)
(-0.0796554 -0.0778496 -7.42692e-20)
(0.0554538 0.110561 -7.97478e-21)
(1.22301 0.112271 1.56014e-21)
(1.05681 -0.0471618 0)
(0.609501 0.0793865 -6.49473e-21)
(1.39762 -0.441258 8.55315e-20)
(0.926379 -0.073322 -6.12743e-20)
(1.4429 0.154725 8.74948e-20)
(1.08279 -0.0550784 -5.61209e-22)
(1.18128 -0.0590214 5.5513e-21)
(1.06222 -0.0076823 0)
(1.18278 -0.020745 0)
(1.23804 -0.091833 4.50975e-21)
(1.08937 -0.0207458 -4.46563e-21)
(1.15094 -0.131559 1.1866e-21)
(1.07731 0.0672932 -9.43108e-22)
(1.43372 -0.0378007 -5.11315e-20)
(0.431754 0.0361499 0)
(1.18658 -0.0605094 2.33441e-21)
(1.32051 0.083532 0)
(1.09749 0.070487 9.00848e-22)
(1.1441 0.0201778 0)
(1.04688 -0.0102127 9.38969e-21)
(1.23704 0.0297852 2.16453e-20)
(1.10707 -0.0115988 0)
(0.054789 -0.028718 1.60386e-19)
(0.882359 -0.210167 -7.11856e-20)
(1.26899 -0.0338817 -3.08262e-20)
(-0.121321 -0.0238967 4.306e-20)
(1.19489 0.0420305 4.89601e-22)
(1.00043 0.00324332 -2.06143e-21)
(-0.111015 0.0101879 -4.48915e-20)
(-0.0279244 0.0245921 -2.81449e-20)
(1.0159 -0.03013 0)
(-0.0285295 -0.0335551 0)
(1.22453 0.0374877 0)
(0.111637 -0.100192 0)
(1.11245 -0.0306343 0)
(0.139413 0.0316424 0)
(1.11546 0.0536473 0)
(1.18176 0.123694 0)
(1.31103 0.123358 3.97585e-23)
(0.574145 -0.284354 -2.18238e-20)
(-0.190959 0.112875 0)
(1.12634 -0.0948906 6.37608e-20)
(1.10176 0.00966493 8.59343e-22)
(1.31793 0.0193843 0)
(-0.0364404 -0.040238 0)
(1.16054 0.00492762 8.51935e-21)
(1.1667 -0.0202803 -3.89291e-21)
(1.17052 0.390639 0)
(0.241554 -0.06256 6.19488e-20)
(1.12263 0.0592635 5.41783e-22)
(0.234497 -0.0512208 -5.41587e-20)
(-0.0607959 0.0482144 -3.31488e-20)
(-0.036338 0.0494244 8.50311e-20)
(0.481849 -0.0284159 2.75628e-20)
(1.06786 -0.00505795 1.93984e-21)
(1.12306 0.0683343 6.39378e-21)
(1.02322 -0.00764953 0)
(1.07153 -0.0681071 -1.87095e-20)
(1.24434 0.0628161 -1.567e-20)
(-0.0101221 -0.0209703 1.03428e-19)
(0.979538 -0.0719971 -5.63584e-20)
(0.731541 0.103447 1.12096e-20)
(1.10005 0.0189672 -2.13494e-21)
(0.0756722 -0.0299918 3.48963e-20)
(0.246729 -0.0372769 -4.91446e-20)
(0.398123 -0.0491929 -5.61654e-20)
(1.2277 0.153267 -5.01554e-21)
(-0.0529598 -0.0335 0)
(1.0685 0.159712 3.22566e-21)
(1.13794 -0.0922261 1.3963e-20)
(1.11458 -0.0799705 -1.34626e-20)
(1.26647 0.00491318 0)
(1.51164 -0.227375 7.53514e-20)
(1.07681 -0.00585525 -1.73283e-21)
(-0.013244 -0.0333859 -3.51658e-20)
(0.286998 0.101753 0)
(0.936865 0.0106951 -1.45296e-21)
(1.13102 0.0296909 -2.10097e-21)
(0.826047 -0.184705 2.10111e-20)
(1.16504 0.00237819 -3.17608e-21)
(1.11855 0.0479467 0)
(1.13772 -0.170256 -1.52052e-20)
(-0.0791093 -0.0681572 -6.95088e-20)
(1.31658 -0.028183 2.49929e-20)
(1.10621 0.174557 -8.85117e-21)
(1.07659 0.0584232 1.07862e-21)
(-0.0388091 -0.0517611 1.60719e-20)
(-0.0259294 0.0410877 -6.62899e-20)
(0.69883 0.0434945 0)
(0.804124 0.132593 0)
(1.15438 0.100369 -9.97798e-21)
(1.05255 0.0697932 9.3902e-21)
(1.06935 -0.000707103 0)
(0.473747 -0.015828 4.85819e-20)
(0.720432 0.0941211 -1.17722e-20)
(1.09932 0.110037 0)
(1.06206 0.032395 0)
(1.37848 0.113225 0)
(1.15073 0.0292201 0)
(1.13799 0.0268012 2.14163e-21)
(-0.0425144 0.0447647 3.62058e-20)
(1.1423 0.00467146 3.35167e-21)
(1.40191 -0.193419 -8.56319e-20)
(1.18618 0.033356 -3.10476e-21)
(-0.0151701 0.0886895 0)
(1.14585 -0.0598377 0)
(0.749725 -0.00338823 -6.33262e-22)
(0.530966 0.00973085 -6.05284e-20)
(0.0688097 0.0369207 4.90893e-20)
(0.996618 -0.00193956 8.32134e-22)
(0.740434 -0.271539 0)
(0.676062 -0.0900872 0)
(1.13885 0.0320256 0)
(0.541349 0.51558 2.57019e-20)
(-0.0189353 0.0269462 -3.12202e-20)
(1.07234 0.00522188 -1.4471e-21)
(-0.0198781 -0.0503884 6.66801e-20)
(1.08145 -0.0417856 1.10626e-21)
(1.17686 0.315728 2.74858e-20)
(1.1132 -0.0895977 6.07682e-21)
(0.339052 -0.0288848 9.69255e-20)
(1.07415 0.107039 2.2813e-21)
(1.15873 -0.0811587 0)
(0.558613 0.271628 0)
(1.0174 0.0046759 3.45209e-21)
(-0.2122 0.0493679 0)
(0.593907 0.020802 -2.49966e-22)
(0.600925 -0.414957 -3.20694e-21)
(0.236475 0.0495782 -1.15049e-19)
(1.12351 -0.225379 2.74428e-20)
(1.03966 0.367349 9.44088e-21)
(0.978765 0.0205361 0)
(1.11683 0.00739987 1.62836e-22)
(0.748013 0.00444908 0)
(1.0145 0.00529272 -2.84196e-22)
(0.436174 -0.0178029 0)
(0.712222 0.134575 0)
(0.998365 -0.0246566 1.0493e-21)
(1.44471 0.175712 -1.69666e-20)
(1.07733 -0.0285549 1.48249e-21)
(0.51956 -0.488595 0)
(1.13211 -0.154152 9.55359e-22)
(0.805472 0.382815 6.73623e-20)
(-0.0414551 0.0201048 1.19847e-21)
(1.21978 -0.0340919 1.50458e-20)
(1.21823 0.0288684 -1.72411e-20)
(1.10178 -0.0524204 4.46566e-22)
(0.797938 -0.012015 2.44998e-21)
(0.0594861 0.018998 3.83183e-20)
(-0.0198048 -0.0170759 -5.79521e-20)
(-0.223514 0.0542613 0)
(-0.263642 0.195483 0)
(1.18043 -0.612256 3.24781e-20)
(1.14836 -0.0302731 2.13905e-21)
(0.884198 -0.462595 -4.42142e-20)
(1.05899 0.157438 -7.61962e-21)
(1.37028 0.201866 3.67238e-20)
(0.604425 0.421536 0)
(0.247182 0.418647 -1.10152e-19)
(0.597089 0.486701 0)
(0.0275543 0.0929195 0)
(1.1185 -0.476214 0)
(-0.0543141 0.0348227 -3.26506e-22)
(1.19801 -0.0146842 0)
(0.880596 0.120869 -2.41055e-20)
(0.596954 0.696709 2.05157e-20)
(1.3291 0.183029 1.12382e-20)
(-0.032073 -0.0817551 -1.13131e-19)
(0.779762 0.152995 -1.32785e-20)
(0.450467 0.144618 -1.38702e-20)
(1.20775 0.091208 0)
(1.36328 0.358167 3.95394e-20)
(1.22526 0.569348 1.10065e-20)
(0.152774 -0.0131967 -2.28707e-20)
(1.001 0.142013 3.39464e-20)
(0.951157 0.00324624 5.4532e-22)
(0.947393 0.00830376 -2.7923e-22)
(-0.00393508 -0.0276256 0)
(0.642907 -0.64638 -2.95668e-20)
(0.613709 0.206984 0)
(0.0679609 -0.0976123 0)
(-0.0499711 0.0664882 0)
(-0.00021107 -0.0918783 -4.27278e-20)
(1.23878 -0.0148167 -1.72536e-20)
(-0.0274474 0.0722854 0)
(-0.038313 0.0593364 0)
(1.46164 0.120112 -8.48611e-20)
(-0.0347556 -0.0688784 5.12101e-20)
(0.115295 0.237761 -9.82832e-20)
(0.380628 0.0188996 0)
(0.168328 -0.273097 7.98744e-20)
(1.08313 -0.238586 0)
(0.993593 -0.282246 0)
(0.00447875 -0.0774841 1.06576e-19)
(1.15097 0.0355948 1.06527e-22)
(1.12738 0.345688 2.52275e-20)
(0.258333 0.0286374 4.74427e-20)
(0.400994 -0.512926 -3.60224e-20)
(1.30168 0.0788704 0)
(1.21741 0.200962 2.29623e-20)
(1.21938 0.21425 -2.82068e-20)
(0.102654 0.0933024 -2.29313e-20)
(-0.0709884 0.00695229 0)
(1.06932 -0.058041 -1.90284e-20)
(1.10061 -0.220993 -1.35161e-20)
(0.580322 -0.397914 0)
(1.09444 -0.148117 -2.41691e-20)
(-0.108154 0.159892 0)
(0.596449 0.0538164 0)
(1.44032 0.0165446 4.20661e-20)
(1.0078 0.0079782 2.9449e-22)
(1.08029 0.748659 -1.29411e-20)
(0.22365 -0.374357 1.29269e-19)
(1.07539 -0.00361104 -3.30053e-22)
(1.21053 0.073356 2.88014e-21)
(-0.0579839 0.0782507 3.1544e-20)
(0.789099 0.736068 2.44679e-20)
(1.34327 -0.368963 -1.31822e-20)
(-0.205887 -0.0431988 7.2363e-20)
(1.08898 0.0392619 0)
(0.233442 0.00508068 -9.48404e-21)
(0.893379 -0.631525 2.89257e-21)
(0.901296 0.643418 -2.33298e-20)
(0.545011 -0.034497 -6.46062e-20)
(1.14952 -0.0100554 6.49595e-21)
(1.07836 -0.0843417 5.69051e-21)
(1.14868 0.0680295 -3.57987e-21)
(1.10577 0.121973 1.62772e-21)
(1.13239 -0.129582 0)
(0.904396 0.11343 1.48815e-20)
(0.886715 0.459893 0)
(1.30296 0.12863 5.48931e-21)
(1.17115 0.114217 -3.5533e-21)
(0.750251 0.264632 0)
(0.517075 0.110489 1.0975e-19)
(0.895792 0.716492 -8.09346e-22)
(1.08026 0.292214 -1.93743e-20)
(1.03766 -0.0129572 9.97007e-21)
(0.416667 0.497885 0)
(1.2903 -0.471058 0)
(0.726691 -0.0718271 6.6197e-21)
(1.26495 0.505903 0)
(-0.0256897 0.0587641 -4.38594e-20)
(1.27851 -0.41355 -1.219e-20)
(1.16805 0.513539 0)
(0.452895 0.224209 1.6504e-19)
(1.12282 0.317793 -1.23386e-19)
(0.810289 -0.633829 -2.50737e-20)
(1.16059 0.0635166 -4.9255e-21)
(0.913044 0.152908 8.32609e-20)
(1.09011 0.170175 4.4778e-20)
(1.07296 0.707179 -8.49164e-22)
(0.899469 -0.433111 6.29177e-20)
(1.43809 0.182607 4.55744e-20)
(1.13156 0.00355227 6.6135e-22)
(0.00540398 -0.0449922 9.54255e-20)
(1.07651 -0.697731 2.80024e-20)
(0.865863 -0.713893 5.11779e-20)
(0.249513 -0.324056 0)
(0.971372 -0.146039 6.94397e-20)
(0.363238 0.314935 -4.28528e-19)
(-0.10446 0.044988 2.41902e-20)
(0.23398 0.0507829 2.31966e-20)
(0.673471 -0.0580717 -7.59557e-20)
(1.08186 0.533465 0)
(0.991919 0.223354 7.49419e-20)
(1.08578 0.0302619 2.15808e-21)
(0.913005 0.447184 -8.68501e-20)
(0.776261 -0.719462 -8.12098e-21)
(0.92828 0.0248931 -4.74889e-20)
(0.979883 0.494197 0)
(1.20858 0.164319 -1.21952e-20)
(1.37467 -0.512474 1.37055e-20)
(1.22416 -0.338866 9.20575e-21)
(-0.304043 0.137752 3.88213e-20)
(0.194135 0.012222 -1.7805e-20)
(0.972473 -0.116727 -5.6244e-20)
(0.354702 0.530931 0)
(0.917507 0.0193745 3.78386e-20)
(1.1579 0.638767 8.45194e-20)
(-0.0610403 -0.0547319 1.4828e-19)
(-0.0783655 0.0625217 -2.63233e-20)
(-0.0845831 -0.06275 4.27129e-20)
(1.09599 0.0217423 -2.69264e-21)
(1.12549 -0.458686 0)
(1.06084 -0.729245 -3.97215e-20)
(0.699862 0.354704 0)
(0.0295599 -0.0573152 -1.05488e-19)
(1.06602 -0.00305127 2.5239e-21)
(-0.0332365 -0.0677933 -3.01998e-20)
(1.04689 0.0560573 -1.2276e-20)
(0.0993105 0.0334336 5.68217e-20)
(0.840518 0.129331 0)
(1.37016 -0.0423428 4.99821e-20)
(0.0506498 0.0621242 -2.63368e-20)
(-0.282434 0.117048 -4.60988e-20)
(-0.251981 0.141432 0)
(0.0819754 -0.0125301 0)
(1.32902 -0.0198909 -1.44043e-20)
(0.378312 -0.0100664 1.56949e-19)
(1.25997 -0.72226 -2.44712e-20)
(0.958056 -0.1186 4.07709e-20)
(1.07426 0.252103 -2.64905e-20)
(0.364868 -0.550071 1.37444e-19)
(1.55188 0.284934 -3.65428e-20)
(0.0656581 -0.054862 3.68927e-20)
(0.208937 0.312698 1.91225e-19)
(0.093585 -0.0308936 -1.38427e-19)
(0.939096 -0.488706 -4.21861e-20)
(1.4552 0.391548 3.74542e-20)
(0.562167 -0.669677 4.79111e-20)
(1.10756 -0.0829757 -5.86565e-21)
(0.197267 0.0182814 5.68533e-20)
(1.17883 0.293852 -4.88995e-20)
(0.663866 0.645211 -3.86591e-20)
(1.33049 -0.620341 0)
(1.41746 0.522617 3.47697e-20)
(1.04832 -0.524529 -1.22688e-20)
(1.38993 0.609612 -1.07141e-19)
(1.18521 0.0391483 0)
(-0.0557067 0.0878629 0)
(1.25357 0.733014 0)
(1.16201 0.00962005 -4.13135e-21)
(0.738079 -0.297086 -2.0204e-19)
(0.476092 -0.0769814 0)
(-0.0588251 0.0975034 -2.67294e-20)
(1.02023 -0.244557 9.2766e-20)
(-0.349002 0.0727287 0)
(0.321468 0.0325657 1.20296e-20)
(1.14876 0.041898 0)
(1.41385 0.279772 0)
(1.18735 0.0630035 5.27431e-21)
(0.3599 -0.285045 0)
(1.01623 0.151868 3.4174e-20)
(1.30756 0.289411 0)
(-0.108868 0.0768357 -4.88605e-22)
(0.809844 -0.391589 0)
(1.519 0.342158 -5.57084e-20)
(1.24307 0.372039 -2.57171e-21)
(0.843351 0.65147 -9.3346e-21)
(1.01329 0.15911 -8.26568e-20)
(0.968038 -0.203024 -4.5467e-20)
(1.45454 0.298428 3.27674e-20)
(1.00941 0.116761 0)
(0.563794 -0.0660853 0)
)
;

boundaryField
{
    FrontBack
    {
        type            empty;
    }
    Top
    {
        type            noSlip;
    }
    In
    {
        type            fixedValue;
        value           uniform (1 0 0);
    }
    Bottom
    {
        type            noSlip;
    }
    Out
    {
        type            zeroGradient;
    }
    circle
    {
        type            noSlip;
    }
}


// ************************************************************************* //
