/*--------------------------------*- C++ -*----------------------------------*\
| =========                 |                                                 |
| \\      /  F ield         | OpenFOAM: The Open Source CFD Toolbox           |
|  \\    /   O peration     | Version:  2412                                  |
|   \\  /    A nd           | Website:  www.openfoam.com                      |
|    \\/     M anipulation  |                                                 |
\*---------------------------------------------------------------------------*/
FoamFile
{
    version     2.0;
    format      ascii;
    arch        "LSB;label=32;scalar=64";
    class       volVectorField;
    location    "286";
    object      U;
}
// * * * * * * * * * * * * * * * * * * * * * * * * * * * * * * * * * * * * * //

dimensions      [0 1 -1 0 0 0 0];

internalField   nonuniform List<vector> 
808
(
(0.7562650195977884 -0.01750671089847707 0)
(1.031564601159225 -0.01262421910492983 0)
(1.111068254456605 -0.006080608304529892 -1.723621070998836e-20)
(1.085122114389072 0.01259561016186715 0)
(1.363596846337637 0.01363478499863368 -3.841476304918096e-19)
(1.038754724539904 -0.009396592973102715 -7.301379012060098e-20)
(1.014314699130497 -0.0210816288330952 -2.420925223665763e-20)
(1.07921750599901 -0.005365382100520325 9.059416833994827e-21)
(1.254499244593451 -0.0209674191730099 6.286499976998088e-20)
(1.085245425494171 0.00995639660111078 0)
(1.008561211706265 -0.008463343953188684 0)
(1.305928665665846 -0.0540345578355142 -3.489216876659119e-19)
(1.086342816976969 -0.002023989327788928 2.044382654957455e-20)
(0.6752104895908575 0.006358026367822964 0)
(1.276675321104621 -0.1161966273191399 0)
(1.08160895964016 -0.0003959710718965008 -3.867215183938261e-20)
(1.224592554050478 -0.1444230879609434 -9.475477625786306e-20)
(1.074050903564323 -0.000241946588049277 3.207493717517231e-20)
(0.9898396959607617 0.003522806487572567 0)
(1.026468060738867 0.009706823212212371 0)
(1.032719777321369 -0.01179770385537806 0)
(0.9875509311358259 0.04488766161494816 0)
(1.051103684904777 -0.005968510865189087 5.736103617166521e-20)
(1.053718516856635 0.009107799061268839 0)
(0.9330303654924584 0.1978177961351792 4.581127262406321e-19)
(1.163247113604687 -0.0852222805579289 0)
(1.185926568821823 -0.0193007168161438 1.554212592572977e-19)
(1.077329140144029 0.009611803271367044 5.223787457157904e-20)
(1.083624605890755 0.002233581457007651 5.110122269814556e-21)
(1.071744240307649 0.03089111496865181 0)
(1.07526517727655 0.002818642247996729 -1.180978328194483e-20)
(1.033151877103694 0.006830176673334061 -1.900312568686689e-19)
(1.060040553211821 0.01458991251837092 -2.354069425502461e-20)
(1.088871103080945 0.005651455070782255 -2.937608109136987e-20)
(1.121397044333525 0.03864057900021119 0)
(0.7549888425880206 -0.1229639767708136 -4.544723590090198e-19)
(0.9548214881559164 -0.00584980643477188 0)
(1.068764068283539 0.02221686528242513 0)
(1.068799308659391 0.007264022778708392 0)
(1.07376534943596 0.008823704670984808 -2.823047629306077e-20)
(1.092996723441223 0.02432741413227436 1.090800228356482e-19)
(1.151031652615367 0.003045926617805533 2.137872988777639e-19)
(1.095946205447527 -0.002249659328277178 0)
(1.015281034552986 -0.009203021155720519 0)
(1.131845539380864 -0.09282744141054687 -1.622920847341619e-19)
(1.044084829958899 -0.01163368431801452 -8.262276093819217e-20)
(1.058109964199063 0.02663146233219986 -2.696831165372416e-20)
(1.231068570173371 -0.1125319272919239 -5.574660509519418e-20)
(1.067507501116684 0.01202943024633683 -4.115518540864353e-20)
(1.258272989433844 0.01623409335166662 0)
(0.9967146933532577 -0.01927777924222636 2.203409267018654e-21)
(1.044744129107503 -0.002013019197582927 0)
(1.087552962375136 -0.002074364957390528 0)
(0.9993471129118229 0.007440228347989267 -1.859060030159806e-20)
(1.250752160226242 0.03350634144491856 -2.3717476822611e-19)
(1.063441771216301 0.01806421941998545 5.936958400757808e-20)
(0.9916208177634456 0.01093401538847317 0)
(1.017453456889212 -0.006300307358102487 2.474298928183898e-20)
(1.107626867715039 -0.0007132205602472085 -1.169166094740813e-19)
(1.061086875619486 0.0311378636815655 0)
(-0.08992594091057439 0.004135660756773871 7.582925672211727e-20)
(1.154862100975572 -0.05212374650855872 -1.868804052844161e-19)
(1.006153574116468 -0.005709537664544676 -2.717312870679232e-20)
(1.187690643027744 0.06851988995062948 -1.217612155882898e-19)
(0.997424211587285 -0.009442992169155041 3.090664759121994e-20)
(1.08429632228765 -0.005461888090220562 0)
(1.24939060723519 0.09543621350750989 0)
(0.6960866210065754 0.003174313993257511 -7.430979281444529e-20)
(0.9884844755508791 -0.01402001809167851 -3.220125248857722e-20)
(1.459733636418616 -0.01942611527130817 4.424355421228572e-19)
(1.060492130243877 0.007612173626379687 -6.586265400371316e-20)
(1.367941718097749 0.09436140501932366 2.858864401637673e-19)
(1.054829510819225 0.006851427921765172 -1.960163840345698e-22)
(1.08102720405644 -0.01389755796207865 -2.763577758956291e-22)
(1.164580345087855 -0.2362221121961031 0)
(1.021867304126562 -0.01502721457976064 0)
(1.01704500194088 0.01800231576591565 -3.029931878574636e-20)
(1.386478204213327 0.3484893817618279 4.20388024332637e-19)
(1.097377837150437 -0.04249447286076485 9.548365499054236e-20)
(1.045860720814166 0.2097836561762269 2.452397088903116e-19)
(1.123981564921355 -0.06034075848010369 1.17091123042934e-19)
(0.9219382556992944 0.005152771441277221 0)
(0.9753285319464479 0.01851214819404097 0)
(1.004053329364282 -0.04870791266981896 3.003001411475022e-21)
(1.009822362997428 -0.01348760858053451 7.787288473801083e-21)
(1.030112423050898 0.02685684432985078 1.365238385580594e-20)
(1.528860180478798 0.0344084175029961 3.230393449681681e-19)
(1.289446773265366 0.07062454857778094 5.593907620134112e-19)
(1.072359697526698 0.003121301659768697 -8.938352490042184e-20)
(1.195625283070587 -0.09360373614243837 0)
(1.033784437846397 0.001899804755644705 1.306389607113679e-19)
(1.165373163482736 0.02159302849982034 -3.160311010067686e-19)
(1.001470638378963 0.03244356459407593 0)
(0.9996265489902725 0.002021176385178047 0)
(1.044386438588152 3.862641193993319e-05 7.934845493146771e-20)
(1.216817287840923 0.1098675051987709 4.119420520710308e-19)
(1.011117037730263 0.006983531639429356 0)
(1.091205801573283 -0.0679590111587675 -1.060974940482505e-19)
(1.151340639175497 0.03715995730022591 0)
(1.216132476596766 0.09380949124939836 -1.931449843685647e-19)
(1.108258373355667 -0.02887635663742645 -7.792513151257781e-20)
(1.027314500306048 0.01190245081519528 0)
(1.085045250598125 -0.004592120243502169 0)
(1.019058483528933 0.02638622800943332 7.919757194446285e-20)
(1.0724404888175 0.05648649597588776 -9.606930068824015e-21)
(1.103787246376236 -0.004150659860313331 6.385107591995628e-20)
(1.109289895107417 -0.09210599942587837 1.493783545396095e-19)
(0.9640893576162459 0.004121941833391755 0)
(1.065949690539247 0.03119303400132176 3.728550309807437e-20)
(1.168760396954885 -0.07673980800737051 2.283975894996321e-19)
(1.05157980964 0.04710633377862975 -2.868024597020818e-20)
(1.022794996923046 0.06766939595413389 3.676303006922228e-20)
(1.090176883258988 0.02604000130312175 0)
(1.017959697275303 0.01552285395145657 0)
(1.028995382616076 0.00937187389862862 7.847355490178033e-20)
(0.9485765164178455 -0.03297577360561424 0)
(1.052763638783283 -0.005486199549898047 -7.537873078629526e-21)
(1.342193637048078 0.05689437598309639 -1.554364369006043e-19)
(1.079787664038259 -0.01312584177067241 2.660945503639712e-20)
(0.7439793633464162 -0.001723869681306078 0)
(0.5933714807542649 0.1943110366750087 -1.102644402833751e-19)
(0.7061849958618738 -0.002494863256110404 0)
(0.6987627115679086 0.01462639336808526 0)
(1.077673463721119 0.003659974990968766 -6.558565047895068e-22)
(0.9906522587713555 0.0144994653329146 0)
(1.278898351395427 0.1222343366446056 2.530389767772906e-19)
(1.012280118819124 -0.02784322830664774 -7.547182023166838e-21)
(1.045617903693614 0.01782513802173265 1.574302871198328e-21)
(1.058681705125946 -0.01191053395077611 0)
(1.126612922628872 -0.009117817995113384 -5.089391824494361e-20)
(1.27221160667963 0.1332092446250169 -2.284833053823261e-19)
(1.089268012292472 -0.01100657477228125 -8.625576405031217e-20)
(1.070562603508841 0.02668045430151533 -1.081300322520397e-19)
(1.040897606633786 0.04677792377485517 7.273120039435841e-20)
(1.022622800221103 -0.003720226609008409 -3.47707881680515e-20)
(1.060858236640129 0.02361822231849431 5.806001395806904e-21)
(1.13591799228576 0.003144742222939762 1.035158639500517e-20)
(1.039040412000289 -0.01497876090895215 -4.80455147774136e-22)
(1.087362258388783 0.0347168247160264 0)
(1.028136858119777 0.01373257027405108 0)
(0.7737314430163874 -0.0743401202361316 -1.811232949372127e-19)
(1.030251078401685 -0.00169513441310118 -6.656960908456858e-20)
(1.13018433775654 -0.003571760374327443 -1.244995648384511e-20)
(0.7034279379479186 0.006566908513022772 7.182353241398296e-20)
(1.174891553574899 0.01960936391755502 -1.956251815641224e-19)
(1.137238155819181 0.006738566923538178 5.029748897005213e-21)
(1.128989868025079 -0.01002702278429644 3.400092728961841e-20)
(1.000934482758715 -0.002948318918453794 -6.997962106718032e-20)
(1.10311442615729 -0.06093472900563365 0)
(0.989208896358625 0.005324798743364355 0)
(1.05781675456527 0.0070356841240856 0)
(1.005642448913688 0.1884420330784974 -2.39947453040221e-19)
(0.7791844095824476 0.01243042576311248 0)
(0.8569804347963053 0.1013770596994753 -8.288141058830517e-20)
(0.08551997346237461 0.03445169986410039 -2.972918476060383e-19)
(1.171780974031523 -0.03073538101208373 -2.274849616931883e-20)
(0.6712892321593638 -0.007316145047383654 2.450516857145833e-20)
(1.166624161398783 -0.1000055543319541 6.893305771034004e-20)
(1.124511209871437 -0.001659255272528581 -5.718949740159507e-21)
(1.153970440230672 -0.04866401992369068 2.210582467919466e-20)
(0.09111787999548561 -0.21471208025701 0)
(0.2374882379664806 0.06966484194211314 0)
(1.261773566173459 0.107796944323235 1.883907506907747e-19)
(1.021086309891669 0.01980768757339743 0)
(0.7377965708141129 -0.006247287768491111 0)
(1.075167197016799 -0.01146981439890458 2.740538156068899e-20)
(0.9747738048015895 0.002854151379934391 0)
(1.298106898352836 0.1233665536897047 -1.523386566866107e-19)
(1.057384467918716 0.01099533607318893 0)
(0.9933675829901436 -0.006950247054955651 0)
(1.06507616682165 0.008329773179422783 0)
(1.0062139603025 0.02087705824372521 2.07884271362341e-20)
(0.9375455293714692 0.01381385818679174 1.217239880525828e-20)
(1.176826274306689 -0.1998995033166953 0)
(1.005147077735598 -0.005185044348543565 8.014298594608027e-20)
(1.059158358195976 0.006382838760045618 0)
(0.7746316665486295 -0.003285613857972641 0)
(1.218326136030393 0.02735273440043236 1.63584758102975e-20)
(0.7049712503226062 0.001366103484498486 0)
(1.434819136004329 0.0850896340249596 -5.162315612490757e-20)
(0.9952016986442308 -0.005634742082581164 1.692264692986141e-20)
(1.273423830275291 -0.002870597376754079 -2.985140648240484e-19)
(1.059570394118641 0.009035954455370875 1.344980330764981e-19)
(1.000911252115721 -0.013541364332393 0)
(1.21038956006616 -0.1415154994653219 2.053335462226482e-19)
(0.7331826815701344 0.01378532970070945 0)
(1.09846536074571 -0.004939473037949096 0)
(1.155409082956749 0.06850155936283275 1.923864830186288e-20)
(1.006646695654673 -0.006397135224378154 -3.046243232048519e-20)
(1.12223144724513 0.05269442006083904 -1.73470242888753e-19)
(0.1119619191998449 -0.09260506710998578 0)
(1.072819528460269 0.03926296005049743 0)
(0.6617575160138707 -0.002889694490771413 -5.315911827237779e-22)
(1.012136508391795 -0.01947506267033142 9.236418540538371e-20)
(1.061342648534394 0.0008594428049502512 0)
(1.076330579449659 -0.1339469026894913 3.746384450427757e-19)
(1.002780323981577 -0.006152827259848523 -3.324822163687032e-21)
(1.003315108767051 -0.004541050561706951 8.51789493485915e-22)
(1.093965387105502 -0.009247884746555284 0)
(1.020713461385037 0.02044268461995424 -6.555348859902302e-20)
(1.106580805477795 -0.00157147120024877 6.434501037854206e-22)
(1.074617875103918 -0.01101981848218985 6.658270621636352e-20)
(1.085686862696135 0.02219070598953345 0)
(1.328311185933922 0.1575325695866082 0)
(1.002049776175891 0.0003995004568385081 4.409116786629963e-20)
(1.318689782075859 -0.1303478856647348 1.590502011483488e-19)
(0.01962625496756876 -0.1740207744981314 -2.361427530725934e-19)
(1.071142777115571 -0.005363740663063019 0)
(1.112098143959865 -0.005445090779747917 1.164742057826586e-20)
(0.7267343106077387 0.01779581275511292 0)
(1.0591995422623 0.01106228323512556 0)
(0.8638755540465476 0.1624498517344282 4.625343395485284e-19)
(1.282062474274084 0.1292402796277192 1.924252134945615e-19)
(0.6542905785645885 -0.00309824402302366 -6.503397456911557e-20)
(1.039680541913098 0.00496497424300198 -5.453179839844804e-21)
(1.054755192063688 -0.0002209371464902867 6.479968847119165e-20)
(1.363782418599897 0.1184344450942296 6.619351525784178e-19)
(1.335318985348322 0.2518467714669452 0)
(1.059041706808382 0.007225392757787234 0)
(1.000293083353643 -0.00464263887474911 1.417144759527893e-20)
(0.9928177817011357 -0.003423405002089899 3.974640110269251e-21)
(1.383189867073031 0.1993593399937004 4.300962669756041e-19)
(0.6818531925097095 0.0004678538601462211 9.959242129051317e-20)
(1.005662374774044 -0.002204587657592935 -6.01972717609244e-20)
(1.098220919244866 0.01312553733277584 2.560945669159694e-20)
(0.6694559027532735 0.00495617410155371 0)
(1.066088187468076 -0.01201936847516559 0)
(1.0170749048425 0.1474115536639149 -1.414108746536444e-19)
(1.091205703209289 -0.002988220056081753 -2.563506329311363e-20)
(0.9819920381432464 9.580499041094941e-05 3.305260639149259e-20)
(0.9912116903583518 0.006014916473743878 0)
(0.6381577698169159 -0.001076267018858222 0)
(0.9767033996909028 -0.001214077260450085 0)
(0.6420901392404346 -0.001430930248458452 2.634562544605019e-21)
(1.088804924012494 -0.05520832329312889 1.208250161197382e-19)
(1.111046884662514 -0.004870565074246417 1.146761435708457e-21)
(0.9579328537259274 -0.000858526302044053 3.881380176858851e-20)
(1.017090712980097 0.01013671540234236 1.740530423247258e-20)
(1.066621561147094 0.004497523709143519 -2.516287041522659e-21)
(0.6347431398677668 0.008875480563181225 -3.616840701980022e-20)
(1.005941302880214 0.009260170449571673 -7.051174609687093e-22)
(1.037554449628532 0.00674876188226589 5.419637562453636e-21)
(0.9856655538762814 -0.007527985187657377 0)
(0.6099553683461333 -0.0004524811176794755 0)
(1.068919467963321 0.0224876501653026 0)
(1.016586440568406 -0.01682808225518664 1.030799170488084e-20)
(1.023583625516351 -0.00891458885417022 0)
(0.9926269638797025 0.01338923671521742 -9.910173036972529e-21)
(1.009062069326216 0.0019422035320068 0)
(1.133498071280265 0.003437634836901699 -1.172506631822233e-20)
(0.03369451907039676 -0.1429636743796892 -3.806623734288173e-20)
(1.034610716442028 -0.01853637465815339 -5.77855263855576e-22)
(1.041722901503402 0.005854846752914232 0)
(1.082346459617523 0.07016833913488429 8.449654264158609e-20)
(0.9671259294056942 -0.001851830129420589 3.10783866265626e-20)
(1.020122115979317 0.01668021711149575 -2.264745306646061e-20)
(1.004001347489094 -0.002878339361415455 2.422301788708866e-20)
(1.038937655289016 -0.008100927643790863 0)
(0.6408979104719408 -0.004076039205799875 0)
(1.025894568965384 0.02452425232192468 -7.772328455831259e-20)
(1.088098969861786 -0.004436363467735316 5.045695720522482e-20)
(1.014177252231269 0.007659782966454915 0)
(0.979855957226877 -0.0008392404644851872 -1.948540609308323e-21)
(0.8564690187040964 0.008550786281125744 -9.764976511552432e-21)
(1.01400044880183 0.002608466577570872 -9.569626300086106e-21)
(1.022194814669942 0.004417141599276639 1.883067930101362e-20)
(0.9840854463374799 0.003263249335137555 0)
(1.006362787928716 0.01182672429990754 3.271404756778306e-20)
(1.111158817343891 0.0001871030634284852 0)
(0.9317576455705727 0.01050806720406928 -3.100855878653614e-20)
(0.9541021036848724 -0.001230308462928163 0)
(0.9045530441424545 0.2036688759628179 4.987154175616995e-20)
(1.011004379398209 0.06718790551597395 0)
(0.9914667995224158 0.005005622244393825 -2.271741356648924e-20)
(1.059121214387023 -0.05045634314679528 -2.848886212754218e-20)
(0.9936358546770924 0.0007047672477863202 3.254607157553199e-20)
(1.007812292329172 0.007060658100343125 0)
(0.9794962406570552 0.0008794635150509363 -3.015742408623246e-20)
(1.176211067747487 0.103918708385993 -3.419498955840845e-19)
(1.069213358374631 -0.264847455062365 0)
(0.9937436651359088 0.0003410516814908826 -2.271460754563934e-20)
(0.9732207038951297 0.001363635806879447 4.829400215714312e-21)
(0.9618040913533603 0.0006694979444008405 1.000864148776454e-21)
(0.7459579854325886 -0.001049580463578674 0)
(1.122928985004185 -0.07257076531938209 0)
(1.00279661465832 0.001155517863078417 -2.270869632408023e-20)
(0.9098864681100306 0.01213497411634228 -1.033296413646071e-20)
(0.8432255067160427 -0.000420733072099105 2.875778077976667e-21)
(1.013597282015781 -0.008859990368480397 0)
(0.9605824419228977 0.01413654053876741 1.434826130704418e-20)
(1.005567547857137 -0.000214509902638096 -2.253739435530983e-20)
(1.025250114748815 -0.003361434338512974 -2.504027606603912e-20)
(1.114946108398783 -0.002281216938305468 -4.920600673554083e-21)
(1.118112925617587 -0.002941402581181035 0)
(1.011122138352969 -0.004593320339182499 0)
(1.020990789861427 -0.001902295658359992 0)
(0.9425469835365685 0.002835179307176762 -1.966760747304836e-20)
(1.017854503758282 0.01351496233631404 5.554589851732933e-20)
(1.087777336338843 -0.006109566631996508 -2.335000783308224e-20)
(1.039801628698623 -0.007347092556444321 0)
(1.108611272532807 -0.002390401412554792 1.84676074177521e-21)
(0.9940896725698269 0.001570411558247838 -2.242848400870132e-20)
(0.9822003800722673 0.0003463886884867578 0)
(1.010118984766776 0.002894386397431739 4.678132401786102e-20)
(1.365039881965154 -0.3143792530585114 -1.123934257412065e-18)
(1.121186811962888 -0.0436309630218711 -1.102648339997971e-19)
(0.9683477703344743 0.008165395398254009 4.410278271695886e-20)
(0.7645232129872678 0.003223287667414211 -3.418592794628527e-20)
(1.224078893248757 0.05116759315089457 0)
(1.219673273321045 -0.1265255464435567 -1.478061419325355e-19)
(1.083750690604896 -0.004301745745403361 0)
(1.008284576810033 0.0005155351958255767 2.296210833832494e-20)
(-0.1973666278578847 -0.1283331339655411 0)
(0.993967596986701 -0.004661142256149599 0)
(1.012364300018507 -0.02306589088400339 4.103805040894104e-20)
(0.7064366194796927 -0.01944656082681548 0)
(1.096787731590204 -0.01482650093828079 2.257931748073536e-21)
(1.040323249126083 -0.001478690206315021 1.660227475378869e-20)
(0.6332322905684149 0.004123772306655996 0)
(1.447931996776986 -0.1239235024899372 0)
(0.9858896444465511 0.001716403398822925 -1.067846897512117e-20)
(1.069735553308317 -0.01509623503854688 0)
(1.037777086484558 0.0004589089952277695 2.057248616672151e-20)
(1.08217706897602 0.002063704621793005 0)
(1.01230378000174 -0.003206323726608791 -1.142530641557423e-21)
(1.00586069569533 0.003236597980652755 0)
(1.007913349948965 0.00206048139353811 -1.141266248836638e-21)
(1.004480078734127 -0.02056937463796145 0)
(1.036460938001835 -0.006792132255818112 1.742260660268631e-20)
(-0.1818317176740167 0.03364958216117548 2.764603387167991e-19)
(0.7987953607850318 0.02341438776279038 5.732119413610615e-20)
(1.005237808453453 0.001944772648958077 0)
(1.124345045087421 0.00991604490029829 -1.170063207770548e-20)
(1.113975394885751 0.005287570450408729 8.949405987276015e-21)
(1.054448399422745 -0.01275701595423056 -1.317020694134023e-19)
(0.998774944019968 0.01038762420707211 8.522870689358931e-23)
(1.081561826445713 -0.003430155735361437 0)
(1.188851973091227 0.05213692305001002 0)
(0.8351934589001588 -0.07572150166706532 4.60127221218339e-19)
(1.089457853522191 -0.0001479524196185467 0)
(1.033928698050927 0.007633510519930119 -7.632056030821447e-21)
(1.04245831251131 0.005289505475130755 5.721657275578041e-21)
(1.054993186135009 -0.0588237461694775 -7.60119928269111e-21)
(1.139248166588023 -0.001431452496471971 1.70861177770414e-19)
(1.084498221062397 -0.0005338139023112047 0)
(0.9941628147582819 0.00180472345776163 0)
(0.997455691816396 -0.02679093215030351 -2.432264530364896e-21)
(0.9902221163567932 0.00357008234561543 0)
(1.031263819955826 -0.03710609221867176 6.486445534765143e-20)
(1.29068825485437 -0.09616505614180819 0)
(1.040431672581137 0.002580291607016588 -4.629250876147514e-21)
(0.9861827523592669 0.01696406512633673 -8.929608310365763e-20)
(1.03293189943084 0.04272917741966933 -2.343368777837938e-21)
(-0.07364799969748871 0.1733945208708809 -1.726823669873488e-19)
(-0.07110782602407092 -0.2935210677270327 -1.300562659507243e-19)
(0.8914355395537413 0.1274518191111536 0)
(0.2810598368451446 -0.03465770419221888 -3.149190499799708e-19)
(1.005946400710751 -0.0005737169477233635 -1.061075531553384e-20)
(1.063889559622985 0.002726900065451816 -2.073329080570734e-20)
(0.991551268002548 -0.02109331956860659 3.102046632577463e-20)
(1.025336515745595 -0.03147157349295544 2.685847812098904e-21)
(1.01019171535639 -0.03114697130578923 -6.673579188967066e-20)
(0.9888695591322881 0.004847643847770059 -3.485630271223035e-20)
(0.9933559848934127 0.005197257042635614 0)
(1.024739311915394 -0.002337572125961616 -3.467439364007705e-21)
(1.934183047161467 -0.1564234393829372 1.069786272579424e-18)
(1.044541224038899 -0.004506469340723524 0)
(0.9963054471822418 0.008341247899418144 1.503682483711773e-20)
(1.003626796561864 -0.0004913536377104152 3.998027524774812e-20)
(1.164044566603042 0.1581253078734531 0)
(1.002766939606063 -0.01310772039868833 7.448260649016954e-21)
(0.9520164498381736 0.003251088048521904 0)
(1.037840075585281 0.04174340157105091 0)
(1.306514968946044 0.1534582853613815 2.284227000389453e-19)
(1.078705147771887 0.0007084026509469814 2.329515806700687e-20)
(1.016257620736902 0.02996081171214905 4.486877686110727e-20)
(1.081908648661691 0.003007300830379377 -2.243594452742072e-20)
(1.053881942741997 -0.01908073687512226 -8.042938965698303e-21)
(-0.3879321103268542 -0.0497480095983252 0)
(0.999794968929332 0.01299033475391318 0)
(0.118860657328675 0.05335370009325551 -9.391662702861748e-20)
(1.006490334751686 0.02020948763812886 -4.022484982878527e-20)
(1.005312043914036 -0.02659652049742025 0)
(1.001388361191315 0.005338303491302503 -4.882953525497936e-21)
(1.082039618581004 -0.04246510093458972 0)
(0.9938625897934353 -0.01802818253035043 -8.099698549110418e-21)
(1.101901204707761 -0.05528135635969529 0)
(1.444541630328635 0.171288463279295 0)
(1.054910709477546 -0.01208812405957253 0)
(0.9910306583369588 -0.0250047414065494 -4.167754876114418e-20)
(0.9980194105312202 -0.03275550952325739 -3.522286784477628e-21)
(1.0149944396711 -0.02143898386338723 -2.095213799709521e-20)
(0.9965922370351376 0.01672416330552908 -5.45574624242324e-20)
(0.9961104535186197 0.009949531895368889 -1.465445864828871e-20)
(0.9952936671317291 -0.02830893077914341 0)
(1.001962829431961 0.02373841781358414 1.890404539296231e-20)
(1.050804077939844 -0.0291030776291181 0)
(1.111208033909551 -0.03612013699760989 2.5578414881905e-19)
(0.9955119078081166 0.01656234923149318 4.501209228682732e-20)
(0.6150342005732674 -0.008694256292888194 0)
(1.150086507501204 0.1631076400198564 6.782174578051983e-23)
(0.8353031992651072 -0.08070309719576271 0)
(1.138130864164215 0.07275720130690387 -2.768228345269912e-19)
(1.315950505453535 -0.3892517313160371 1.286286504527487e-19)
(1.069177096151209 0.06568635298743165 -1.237949574134274e-20)
(1.011790469626237 -0.03141485650497745 0)
(0.9557580665361062 -0.2157564391183817 0)
(0.5415264289450806 0.1742825617821159 0)
(1.016266596746925 0.0117412651972523 1.163441878879849e-21)
(0.701921970766939 -0.02128659008800668 0)
(0.9992866541320665 0.01638018821161734 3.463447199419515e-20)
(1.027447120629242 -0.002618564850624887 -2.713412518602869e-20)
(1.078973668403792 -0.008047729054541692 2.662733665805009e-21)
(1.053962872751841 -0.02803146655513284 2.65851070881733e-20)
(1.042725296243913 0.0117137730135227 0)
(1.06025924976989 0.02043908756508851 -8.617171693152845e-21)
(1.050051891318807 0.03637329286816851 -1.782938073597744e-20)
(0.983780686047231 -0.02261875338686817 0)
(0.6248871046471522 0.005102647585982725 9.168639111653486e-20)
(0.8941536633737812 -0.005940024221602187 -8.844184253504314e-20)
(0.9093710805857055 0.005240188123986604 1.451827014179479e-20)
(0.6296316474816581 -0.006442407771445315 1.409420067835769e-20)
(0.9810023358997194 0.0004527002690485799 2.46463406640113e-20)
(1.004415226256284 -0.01749431654396248 -3.393187331281597e-20)
(0.9842225831220613 -0.03515294384359283 -2.867223001018341e-20)
(1.085627139586817 0.001632956752106905 0)
(1.019676034821713 0.005277889501913283 1.028217512599743e-20)
(1.132438380151993 0.04853098459030483 1.33641551742503e-19)
(1.03104468868747 0.0417579496904545 0)
(1.022656822482343 0.002578398014895505 0)
(1.584058372891119 -0.1681354375526997 4.378294182094259e-19)
(1.05853795576615 -0.04330500827909532 0)
(1.019291314908643 0.01058979190397791 -3.668089849199992e-20)
(1.082205714206968 0.006288332263431998 0)
(0.491342656528285 -0.000602471634291564 0)
(0.00757605162083441 0.01635715954273491 0)
(0.9913437050583862 -0.0238386906689641 1.245819577365383e-20)
(1.301659477368655 -0.09653498461650878 3.695170081915284e-19)
(1.031403327723885 0.03544122403057792 0)
(1.022415399445245 0.00357603709758696 -2.19187285689004e-20)
(0.9369104698025503 -0.1605099694802757 -4.825762970096145e-21)
(1.256955548265936 0.07556179626120867 0)
(0.5973254121166427 0.7290858101914824 0)
(1.310026059403787 0.1424521559813774 1.051412874282398e-19)
(1.676959971154935 -0.026313199787163 0)
(1.056945420617984 0.127811688798184 0)
(0.7193092536990402 -0.01177307139100871 4.136317617027629e-21)
(1.046444683468932 0.04527859275950928 0)
(0.7577111359015943 0.1218414366450463 1.375582592206281e-19)
(0.9967957077102828 -0.01638160009399871 3.579592361399525e-19)
(1.039120298048591 -0.040508803032206 2.754429405091944e-20)
(-0.378570258316665 -0.04464896131752561 0)
(1.072297394356696 -0.01629245070397244 0)
(1.084014590136565 -0.007570246582081295 0)
(0.6488086187143518 -0.504459863990798 -2.477548255080075e-19)
(0.9896307823136787 -0.0005847842594587987 0)
(1.092406318320952 -0.02169490174037407 6.15262048151198e-22)
(1.187598103444724 0.1208185630682996 -2.030118862523943e-19)
(1.098918693385239 -0.04715059422700339 0)
(1.006082747354121 -0.02087323009138633 0)
(0.7722510313576949 -0.1854809152552017 -1.623321805130221e-19)
(0.881851536690528 -0.1370130644769044 1.465232350685805e-19)
(1.033502081142445 0.01398682067088722 -2.086579042050794e-20)
(1.023126573433472 -0.008991846282239188 -4.381376633145756e-20)
(0.8766510653264036 0.005844587164355045 2.722774440238144e-22)
(1.505399522637446 -0.1947484798345785 0)
(1.308808875612627 0.1125563312528231 2.971844467132526e-20)
(1.241210572423249 -0.07587102595289552 -3.29477879803109e-21)
(1.095747939115503 -0.01864095710145724 -3.995627689677651e-20)
(1.035374306891939 -0.01645574826280267 2.974137442638067e-20)
(1.092825762065581 -0.0390889547016253 9.434847242534219e-20)
(1.032017771350604 0.02064624536263305 0)
(1.050595864525772 -0.03647564251399987 0)
(1.115926328266809 -0.008964025192911495 0)
(1.099178999256017 -0.0413685145387886 0)
(0.9982882548243529 0.0109527760346046 0)
(1.152190647928712 0.0814743685681879 9.480507623800476e-20)
(1.33973249880454 -0.1571784627740783 0)
(1.038323622182173 -0.02754404239880899 -2.565001207999784e-22)
(1.047713816384422 0.05309895352157878 0)
(1.010202284984999 0.01423375545391944 -3.831893207141521e-20)
(1.033700838489048 -0.007451954947124969 9.298990398641663e-21)
(1.088945641331815 0.0134413050100086 -3.1984511778618e-20)
(1.084733877982176 -0.02817809254126081 0)
(1.071201768172089 0.003519994915803687 0)
(1.10337075857909 0.09297451835667074 -1.404290959251485e-18)
(0.935350460558646 -0.1497646840499492 -7.090440691273846e-20)
(1.174721582057142 0.1175310228854259 1.149196157289778e-19)
(-0.4622285837372382 -0.02562902068643828 -2.907630020900423e-19)
(1.01792879120794 0.02938421467045698 -8.642380794473725e-20)
(1.006449342088357 0.002998305718637584 0)
(-0.2464819328902585 -0.005411408424460012 3.569660904668988e-19)
(-0.03285568688296633 0.2999725832908672 7.445683385691773e-21)
(0.9952086399438254 -0.006271850691139999 9.222722145654609e-20)
(0.1835571703710672 -0.04507785951685313 1.29179657516894e-19)
(1.085213075644148 0.0889905814636482 1.409259726665185e-20)
(0.09360640939689548 -0.1105525538203144 -5.453363070054723e-20)
(1.108413700922304 0.003037904788029728 0)
(1.097186910993459 0.2508999194167994 0)
(1.021064018891658 0.02150718179550763 -1.691788076946825e-20)
(1.06243106133873 0.05385592008851035 0)
(1.025619471167357 0.02343686564390268 -8.324966497337152e-21)
(1.263045716645314 -0.5489937806321495 8.019925129167503e-19)
(-0.1098193487677897 -0.2413329674909999 2.105274570166744e-19)
(1.300854678177903 0.1126424387874285 -6.183305438584198e-19)
(1.122720157324804 -0.00136607559049183 0)
(1.12378899913287 0.1065339876682434 0)
(0.5220814480117575 0.07695443794530281 2.422270349685279e-19)
(1.023516527543113 -0.02025679086418356 9.526627398793418e-20)
(1.006359219145064 -0.02319664442745144 0)
(1.211189529455487 0.2704438635367432 -9.702528196282844e-20)
(1.259494564114034 0.127468130326079 -1.517851989899184e-19)
(1.026538939143954 0.003215463306712139 1.576984325708039e-20)
(1.29840518584669 -0.08515158487985353 -4.969343860747375e-19)
(0.3052984559412306 -0.02190160033568935 2.892329575051209e-19)
(0.831830393254505 -0.1490606483330108 6.873080101803872e-19)
(1.040946340876171 0.05565161069661871 1.099110155094479e-19)
(1.038261333792951 0.003450117293066876 1.60639396601625e-21)
(1.000896928087769 0.01917697411460818 2.875259006824661e-20)