/*--------------------------------*- C++ -*----------------------------------*\
| =========                 |                                                 |
| \\      /  F ield         | OpenFOAM: The Open Source CFD Toolbox           |
|  \\    /   O peration     | Version:  2412                                  |
|   \\  /    A nd           | Website:  www.openfoam.com                      |
|    \\/     M anipulation  |                                                 |
\*---------------------------------------------------------------------------*/
FoamFile
{
    version     2.0;
    format      ascii;
    arch        "LSB;label=32;scalar=64";
    class       volVectorField;
    location    "611.5";
    object      U;
}
// * * * * * * * * * * * * * * * * * * * * * * * * * * * * * * * * * * * * * //

dimensions      [0 1 -1 0 0 0 0];

internalField   nonuniform List<vector> 
808
(
(0.7562512193454255 -0.01750738352681156 0)
(1.031229778171743 -0.01251694932301372 0)
(1.116224235878575 -0.001670220067062351 -1.815217233789255e-20)
(1.08512290393049 0.01259614840583521 0)
(1.363166606991148 0.01647440342168873 -3.914401796328336e-19)
(1.038651348877962 -0.009326185546740369 -7.147040739595118e-20)
(1.013509662289792 -0.02047743471080089 -2.317921555455078e-20)
(1.078527727577822 -0.004936125221738539 8.945766090693475e-21)
(1.253261975078355 -0.01911851250777859 6.370652855281073e-20)
(1.084368802988456 0.009793410153423299 0)
(1.013860398741411 -0.01028592440169759 0)
(1.305170829364468 -0.05192423190252149 -3.563283349264537e-19)
(1.085920034524728 -0.001607980924477033 2.030557081277583e-20)
(0.6750416369671203 0.006420127471436778 0)
(1.286084187322349 -0.1173543801253506 0)
(1.081564930000867 0.0001865567849978853 -3.807482854988122e-20)
(1.233942076416243 -0.1496767454925712 -1.002455413722217e-19)
(1.074144215836215 2.817792123743047e-05 3.156081526246885e-20)
(0.9930353251478579 0.006258773853665089 0)
(1.026582285035036 0.009163965223405421 0)
(1.040971551609385 -0.01220614855365917 0)
(0.9874591809204804 0.04455561116600171 0)
(1.051103380882809 -0.006082137672993797 5.516102700899665e-20)
(1.05335601358421 0.008715843539122263 0)
(0.9329358093012232 0.1980160662858469 4.609150300877592e-19)
(1.166679503415731 -0.08865847720773798 0)
(1.185052153188879 -0.01812256027667289 1.590527247068633e-19)
(1.077363227442758 0.00938873692825409 5.194979381400695e-20)
(1.084186199792324 0.002059814203717922 5.049977943818644e-21)
(1.072053682794502 0.03094866735849402 0)
(1.07564565339103 0.002545678466529462 -1.172674523469256e-20)
(1.03310967322324 0.006405249610152668 -1.965229053443983e-19)
(1.059825619163224 0.0148821643275768 -2.40228332314924e-20)
(1.089110424838086 0.005200125880853185 -2.926641323063005e-20)
(1.11938639233934 0.03809667259436077 0)
(0.7551588471937568 -0.1225871240452335 -4.535951989999477e-19)
(0.9544184315872918 -0.005803178958046031 0)
(1.069000723553394 0.02247631271552681 0)
(1.068842937911157 0.007337029895279565 0)
(1.07359043571259 0.008907615666296102 -2.836394555755591e-20)
(1.091895572486919 0.02358499398033159 1.116354489465918e-19)
(1.149856985236652 0.003701231609034938 2.188102936952168e-19)
(1.095765662769985 -0.002460980846711437 0)
(1.015955826668806 -0.0090581355484747 0)
(1.131752169293391 -0.0985229834749152 -1.65887654695419e-19)
(1.044087684716285 -0.01168844706196651 -7.920993823041232e-20)
(1.058401765994222 0.02665881121465645 -2.850598523380343e-20)
(1.230700280402478 -0.1113392521403836 -5.636163366793658e-20)
(1.067780331899359 0.01228198260919698 -4.268716921898285e-20)
(1.256199402186182 0.01854594132044898 0)
(0.996523668065845 -0.01808856187814886 2.066104418813943e-21)
(1.044529675673674 -0.002152305238434222 0)
(1.087485141084909 -0.002307033871955328 0)
(0.9981190296873688 0.006730049938798181 -1.866306040489565e-20)
(1.25165181277334 0.03469222309673653 -2.316483908655116e-19)
(1.063866709734246 0.01838991242684358 6.15798933951896e-20)
(0.9898715933738056 0.008321771168175734 0)
(1.019599711401131 -0.01084797657233948 2.384763770134125e-20)
(1.106801487086726 -0.000458197678278325 -1.202226295021582e-19)
(1.061655298264109 0.03107247648745745 0)
(-0.06755731947455028 -0.009141688737219504 6.984717711090913e-20)
(1.154516439676169 -0.05131589693567291 -1.92224391505139e-19)
(1.004255285215052 -0.00872888885931717 -2.621184913287494e-20)
(1.182973268029705 0.06805128632720621 -1.230128499857121e-19)
(0.9983107567695803 -0.01018837879992503 2.98580353083495e-20)
(1.08396581849779 -0.005554956605254669 0)
(1.243088764622448 0.09824007191978623 0)
(0.6960211310404129 0.003202080145262411 -7.50530795442787e-20)
(0.9901800527657613 -0.01451570043739001 -3.110441864503195e-20)
(1.460106735927802 -0.0165470734270134 4.507757276578802e-19)
(1.06060482257071 0.007560077622169418 -6.822093820480128e-20)
(1.367049147556722 0.09934515311136501 2.933261666602905e-19)
(1.054725611318674 0.006818670511691497 -1.84883993851292e-22)
(1.08125802484487 -0.01401609279269261 -5.342007441549415e-22)
(1.164507354243396 -0.2356405755971945 0)
(1.022253858110861 -0.01430202701709455 0)
(1.017656223597498 0.01750450014606647 -3.149077802089347e-20)
(1.38642325966299 0.3497375946618355 4.151640617270257e-19)
(1.096957387692628 -0.04204758524797417 9.286162104113266e-20)
(1.045632071219391 0.2098881392982694 2.542051662992273e-19)
(1.125606603798902 -0.0625063026933063 1.150011838284821e-19)
(0.9221162024148563 0.005151065916201014 0)
(0.9755175712510091 0.01857027396272528 0)
(1.00411318727372 -0.04892563630974413 2.664095707281627e-21)
(1.010813503902263 -0.01298436959631946 7.396309151999172e-21)
(1.030472966358792 0.02572166937430805 1.405979907515484e-20)
(1.529424222033006 0.03776906539417854 3.285866743358662e-19)
(1.289893674699517 0.0721087173414356 5.468703743229305e-19)
(1.072538276709604 0.002913262265367142 -9.273855899759859e-20)
(1.200423017839432 -0.09557957446698072 0)
(1.033776399891243 0.001617144737912871 1.351024937605068e-19)
(1.163549400467804 0.02238195505508538 -3.235502281578081e-19)
(1.001451449363691 0.03231287577127843 0)
(0.9996283167736489 0.002011940225759745 0)
(1.044385626476282 -0.0002337961593554742 7.684919777948919e-20)
(1.207883823346647 0.106594340595942 4.07086062146301e-19)
(1.011066994477141 0.00696542339301183 0)
(1.090478233913788 -0.07170983641755879 -1.053900475968573e-19)
(1.149048207511202 0.03724817156068834 0)
(1.20891409481466 0.09509178394957885 -1.926344321510216e-19)
(1.108023108362545 -0.02852525965687755 -7.611484205130762e-20)
(1.027692542907667 0.01152978947629694 0)
(1.085328670478086 -0.004681759512219211 0)
(1.019667596368238 0.02547699260630468 8.17419338762588e-20)
(1.073262436940949 0.05322043175216428 -9.249309730146526e-21)
(1.103743785358654 -0.004303859230629378 6.207732941343501e-20)
(1.10897327165369 -0.09752660184398107 1.54313089897221e-19)
(0.9596176603575217 -0.0008391747511338131 0)
(1.066496033255392 0.0312885669472041 3.874718026955867e-20)
(1.168518134746912 -0.07576351690651334 2.349131332593011e-19)
(1.052786174844885 0.04454638187130028 -2.925688226012045e-20)
(1.022575754743856 0.06735459800802751 3.752286854757588e-20)
(1.090673010805681 0.02618123131273824 0)
(1.01238675165848 0.01748901738102027 0)
(1.02898450134638 0.009444834161265925 7.925851584099424e-20)
(0.9487294649344227 -0.03336582687615081 0)
(1.053175697612854 -0.005705657945156389 -7.947412778889042e-21)
(1.341184732157427 0.06076628111516371 -1.597972034580428e-19)
(1.079994024533016 -0.01330310071875576 2.57251001078589e-20)
(0.7440935732692334 -0.001780289019927437 0)
(0.5344749734748132 0.1560707616017814 -8.159581618094063e-20)
(0.705928541341421 -0.002541100541278853 0)
(0.6990855222575701 0.01466403573439202 0)
(1.077730063756447 0.00352506774655874 -6.820175981935571e-22)
(0.9906329019730794 0.01449240507915314 0)
(1.279135105574878 0.1233138132703065 2.47291062536141e-19)
(1.012332441743345 -0.02788209291714005 -7.932504482107932e-21)
(1.040834058011574 0.0221765590310458 1.522674632726139e-21)
(1.058459864365944 -0.0118997145081069 0)
(1.126488956920797 -0.009219069395092547 -4.948045629395177e-20)
(1.256068752629527 0.1365727391382689 -2.199798555720661e-19)
(1.089041496978931 -0.01120277037115233 -8.48178917255497e-20)
(1.069871258145917 0.02562634423054977 -1.106666309391229e-19)
(1.040794131252879 0.04671516169472907 6.84226710207401e-20)
(1.022344032114137 -0.003656893008198365 -3.442085488913727e-20)
(1.061304929908357 0.02352955302471644 6.12150129318672e-21)
(1.130566595590296 -0.006020079405443702 1.08146203174923e-20)
(1.041035174220048 -0.01423858146382022 -4.722013701502519e-22)
(1.087768401735851 0.03482139281003331 0)
(1.02843111316184 0.0132819604065361 0)
(0.7750201316742036 -0.05844800515485907 -1.839809000773159e-19)
(1.030166349358582 -0.00189992192210191 -6.950318992763347e-20)
(1.134898825165505 -0.003124625220752077 -1.317018037393911e-20)
(0.7035074325805737 0.006568399551253012 7.439524787147646e-20)
(1.175587270762296 0.02034362686075607 -1.906760573747809e-19)
(1.126571644052769 -0.001056494157338778 5.647508708718593e-21)
(1.129000990181534 -0.01006035035782112 3.485580734173245e-20)
(1.000941633819604 -0.002956403755132056 -7.657617416056393e-20)
(1.095677323341814 -0.06782158709256821 0)
(0.9845940726715875 -0.0008588055770464449 0)
(1.05800393568537 0.00708713972328074 0)
(1.005509524999901 0.1883840384346342 -2.476900670279869e-19)
(0.7794427848523476 0.01240640800438956 0)
(0.8568656471526213 0.1013789187780791 -8.45587244012292e-20)
(0.08337855807269179 0.04212628181878725 -3.070271523263522e-19)
(1.173487945283595 -0.03028145619084764 -2.220330772476128e-20)
(0.6713126977190151 -0.007328655860507995 2.432961233665724e-20)
(1.169034485424114 -0.1053951991596202 6.97454318011979e-20)
(1.125168614871371 -0.005888544388482473 -6.099076549322829e-21)
(1.15608153449807 -0.04903391744331632 2.157628064216841e-20)
(0.1001229064787058 -0.2080500669763218 0)
(0.264138884019105 0.08829555668586193 0)
(1.252392182495216 0.1127852177657039 1.930559272744312e-19)
(1.021532994041878 0.01983346260860179 0)
(0.7376903277096537 -0.006330029094134989 0)
(1.075240481216302 -0.01193208445995743 2.692337386611578e-20)
(0.9751365560943259 0.002788152067664015 0)
(1.286994922747346 0.1311331040536199 -1.547057548285433e-19)
(1.057476354678441 0.01127011906017878 0)
(0.9932759512393258 -0.008077536376857162 0)
(1.065156988469238 0.008091879945758162 0)
(1.006175637791814 0.02081745258051332 1.759773089726234e-20)
(0.9264765164321347 0.009837436492320354 1.092509717245547e-20)
(1.17674200171932 -0.1993426877339207 0)
(1.005121395994309 -0.005213697949804225 7.760607552055597e-20)
(1.059169667812377 0.006265786431010703 0)
(0.7746328415033624 -0.003325806145565292 0)
(1.215739827740912 0.02907730163130669 1.673082862554081e-20)
(0.7050488840227547 0.00131811314136045 0)
(1.434930332872595 0.09022255623369717 -5.344020238586652e-20)
(0.9938785368878011 -0.006893810878544256 1.691114769582741e-20)
(1.274934563555704 -0.001063487928087446 -2.91990874956289e-19)
(1.059837900366312 0.008755417483611661 1.395479507536553e-19)
(1.000901195349017 -0.01361327801390102 0)
(1.218739706252361 -0.1516651529915641 2.034724549281491e-19)
(0.733187534341458 0.01379276451007934 0)
(1.098189748705829 -0.005159150935747984 0)
(1.151293456426552 0.06678005751871921 2.033788206447436e-20)
(1.006980668058888 -0.007258458345636484 -3.021334676722088e-20)
(1.119821933097704 0.05096149976534465 -1.758372597168205e-19)
(0.1245723214748317 -0.0825817445798844 0)
(1.072372649629807 0.03722471050438438 0)
(0.6615907346693223 -0.002924418888981303 -6.857641520399608e-22)
(1.012121442692781 -0.01953639831661155 9.740576768826219e-20)
(1.061675641352974 0.0006610855046502472 0)
(1.08322930284279 -0.1272596618300102 3.746676653726383e-19)
(1.002638233530297 -0.006215975236886466 -3.484958112283691e-21)
(1.001969751934461 -0.005100867461382745 9.843422216945936e-22)
(1.093951540345766 -0.009305848131880477 0)
(1.020706472471561 0.02042704453452747 -6.257042088036197e-20)
(1.106699137225398 -0.001652524193469966 6.691135050746582e-22)
(1.073898079373508 -0.01118444072075384 6.546653256482394e-20)
(1.08581047791118 0.02238940828606555 0)
(1.329938709001895 0.1664183666757463 0)
(1.002013568377775 0.0001591452837890091 4.415577570988768e-20)
(1.323365134931385 -0.1250958633743998 1.538517505090877e-19)
(0.04910153195615764 -0.1732299446071731 -2.56227924594754e-19)
(1.071345031902424 -0.005578056423799592 0)
(1.118044367658751 0.00159935492318676 1.230091024668982e-20)
(0.7269583594909886 0.01787391005645204 0)
(1.062887978901196 0.002466784115547301 0)
(0.87130694178571 0.1672615271453481 4.793005616585474e-19)
(1.268442404034171 0.1274756535032764 1.853774935156377e-19)
(0.6542541348113189 -0.003110362265383278 -6.284425251668809e-20)
(1.042414009030929 -0.005450943352245711 -5.674196402466545e-21)
(1.054873970272719 -0.0002913569769932407 6.646962832494539e-20)
(1.361312364502685 0.1258782209023192 6.817502492253632e-19)
(1.335286475943611 0.2529076310863826 0)
(1.059476125610567 0.0008605304389063085 0)
(0.9968226347458603 -0.007513831411411485 1.529534894155713e-20)
(0.9943212136260647 -0.01185093841021236 4.079335940586763e-21)
(1.383196570245605 0.2006160762955081 4.240939277104236e-19)
(0.6816596757689799 0.0006160675850839526 9.832145998907427e-20)
(1.005591044795966 -0.002034896135984095 -5.963377672033836e-20)
(1.098050262015928 0.01301073273718651 2.539799242522525e-20)
(0.669472424610551 0.005014893852102295 0)
(1.066087146217882 -0.01201911488144148 0)
(0.9936282187870795 0.1376021437557098 -1.189891149159519e-19)
(1.085362717526534 -0.004821659191569527 -2.437487426383926e-20)
(0.9820894519238189 -3.087809433117088e-05 3.279392139809648e-20)
(0.9912102161774115 0.006028074705550216 0)
(0.6383143021940557 -0.001133178461725545 0)
(0.9768860509426422 -0.00122180061664287 0)
(0.6420734787532227 -0.001502634542428867 2.713859677163815e-21)
(1.089673830947295 -0.05745046229722903 1.1989875514544e-19)
(1.112804541030411 -0.000277306461992735 1.244681505162478e-21)
(0.9580020210226885 -0.0009264623233697846 3.916707346438397e-20)
(1.015615335028611 0.01046257276181252 1.665485448091409e-20)
(1.065200630254991 0.00412058864793604 -2.286379945534413e-21)
(0.6347404760227781 0.008854358926013261 -3.649760227189756e-20)
(1.001794367092688 0.01043305697175242 -9.058437867112157e-22)
(1.035115750707017 0.01120109181012375 5.076187142695771e-21)
(0.9881478671505143 -0.01112759497493411 0)
(0.6100498560944801 -0.0004941457652206753 0)
(1.068645355980495 0.02274613456375689 0)
(1.01650824685194 -0.01548416117743502 1.05910413705601e-20)
(1.022476524316207 -0.005315720822629024 0)
(0.9914162388781523 0.01492201827891592 -9.389587851505256e-21)
(1.012136717255991 0.004076933982237033 0)
(1.126926873623007 -0.005456259987175001 -1.199400613318821e-20)
(0.03839313597265849 -0.1402070168020671 -4.47060839127413e-20)
(1.036636982654183 -0.01616695452350836 -7.461948021726012e-22)
(1.043906126249376 0.006204350960330994 0)
(1.084438246302829 0.06449563900664414 8.412879101977962e-20)
(0.9696240365981805 -0.001838199882864649 3.116683950961071e-20)
(1.020689731408397 0.01706945172629336 -2.375759914052669e-20)
(1.002881310531647 0.001515796826549351 2.496162847703808e-20)
(1.040946259086185 -0.004935336750351094 0)
(0.6409363981316147 -0.003995065154860674 0)
(1.025855207743086 0.02451571365614618 -7.27185821240192e-20)
(1.079597569502288 0.0008543046906575833 4.792156450305818e-20)
(1.01600580822412 0.002298852082648546 0)
(0.9800781070345435 -0.003120853386385944 -1.927157745452095e-21)
(0.8755326021867071 0.0245720278834987 -1.279811815800491e-20)
(1.014001012114455 0.002896855586865859 -1.023928985040794e-20)
(1.027399802110547 0.002432153791212277 1.78919494713191e-20)
(0.9801868875559723 0.002224498469008021 0)
(1.002650860106554 0.009511254006236682 3.507243967751828e-20)
(1.106599205904313 -0.003556446942605828 0)
(0.925412263359416 -0.001352413908741722 -3.358963375203838e-20)
(0.9608368380368628 0.008060035733337707 0)
(0.9161463036423936 0.2117453903219137 5.212209819447824e-20)
(1.010821321721431 0.06693078636332386 0)
(0.9927450941737047 0.003764712686573682 -2.29933588707592e-20)
(1.054361850055356 -0.05386663852568854 -2.832697428702897e-20)
(0.9910386622847095 -0.0006779482708470225 3.42829331874443e-20)
(1.012102465765603 0.002997068743792562 0)
(0.9783349450657193 -0.0006594745350509478 -3.200194841236385e-20)
(1.16899963642868 0.09851317102815534 -3.350351709363437e-19)
(1.06925040982173 -0.2644273856086968 0)
(0.9936389914136824 0.001977289387369352 -2.202218243997339e-20)
(0.9817448021272532 0.007425842951954332 5.04847053108254e-21)
(0.9618195944563516 0.004753202911713505 1.036293743641475e-21)
(0.7459568889455702 -0.001082329124018333 0)
(1.11727372520345 -0.08163082982381002 0)
(1.007055167639376 0.003539245921749858 -2.161138562207496e-20)
(0.8986464397316427 0.001961482831764372 -9.934395364413597e-21)
(0.8557621832214805 0.01901536937299916 4.749589150054188e-21)
(1.012124143195544 0.003697980798483541 0)
(0.9488316289383962 0.003170579651640156 1.521832833901225e-20)
(1.005739994712042 -0.0002583956564189311 -2.312184670158666e-20)
(1.020519623990953 0.001051860331479607 -2.581829857493768e-20)
(1.112184833020558 -0.00350125394890715 -4.924522450538002e-21)
(1.117385461003982 -0.0002565242601490152 0)
(1.014024643053798 -0.005782840093152973 0)
(1.022314390171766 0.003343962953567455 0)
(0.9472718276069125 0.003527543867690764 -2.171987044494542e-20)
(1.01787402468713 0.01342048413113443 5.331325003165094e-20)
(1.079224306564751 0.005099386051947924 -2.211077130100581e-20)
(1.038636959565286 0.001206306256160775 0)
(1.105825043097824 -0.006667337641728974 1.827125076199619e-21)
(0.9961493280129418 0.002460029301925168 -2.206469812917731e-20)
(0.985864226924418 0.006770552312889925 0)
(1.012044043286136 0.002687510678572022 4.667667483694066e-20)
(1.366512988150804 -0.3142160161985308 -1.132840237310847e-18)
(1.122823886948631 -0.04457723484401193 -1.082993107739523e-19)
(0.9690098455999823 0.004081181286345787 4.843918164518546e-20)
(0.7804125576832558 0.01778277721722983 -3.172259534328219e-20)
(1.220455755921649 0.0529519821523641 0)
(1.222743177467693 -0.1362888444340659 -1.465539714112296e-19)
(1.078521908912484 0.006586684917029506 0)
(1.008965858319425 0.001797512380543544 2.226156989214939e-20)
(-0.160960917632299 -0.1025701032653672 0)
(0.9939687890690984 -0.004653496985392276 0)
(1.012441678969023 -0.02317578111785587 4.56751135706504e-20)
(0.7061369732575814 -0.01943895330071531 0)
(1.096799878609723 -0.01491783130149481 2.15733302436766e-21)
(1.043586230918439 -0.01026070053675476 1.694009907711343e-20)
(0.6331153029412729 0.004160587876655513 0)
(1.448323244503564 -0.1221459719651857 0)
(0.9869145090626449 0.001494582098338932 -1.086434192380917e-20)
(1.069752183196935 -0.01495374858999951 0)
(1.038063923048205 0.0004420028582382582 2.166492759868339e-20)
(1.084730134826669 0.003795373170348113 0)
(1.008726082590661 0.004952269717354919 -1.062586835007551e-21)
(1.006030850476589 0.002959784799819273 0)
(1.014400518308161 -0.01483306550977523 6.300880854096386e-22)
(1.003250093029511 -0.02061734799135266 0)
(1.033695385612927 0.005962835511714683 1.754573382294479e-20)
(-0.1992092051743956 0.03984106187323245 2.6482871835103e-19)
(0.8153095600014629 0.03140770615193549 5.314920718727326e-20)
(1.005697980678872 0.002060086657411973 0)
(1.132315403187917 0.02432721367719663 -1.240060341677827e-20)
(1.120766718670978 0.02003891971039418 8.673541535036415e-21)
(1.054166633560014 -0.01312834853130657 -1.276270751285467e-19)
(0.9987854757428221 0.01035127531342683 1.234058866339457e-21)
(1.078760131512795 0.006755126834914641 0)
(1.185165643607194 0.05293656164474364 0)
(0.8354010797707053 -0.07574448505807409 4.59082245583963e-19)
(1.101765199518224 -0.01031441712913789 0)
(1.032503037853752 0.007531862381703353 -7.403085766687079e-21)
(1.042660362369706 0.005198330048874277 6.143038135878569e-21)
(1.052955883940527 -0.06181834484042806 -7.497095895351148e-21)
(1.140142145582383 -0.001170933319047447 1.66517769476376e-19)
(1.082152914775956 -0.007794688925608865 0)
(0.9950731878094835 0.001245741489272118 0)
(0.9961330228258679 -0.02431285592119731 -2.261599456870166e-21)
(0.9910415046410515 0.002562403293072515 0)
(1.029754863542766 -0.03869735462780483 6.358615612312761e-20)
(1.29396411129424 -0.09291457747628032 0)
(1.047356968205543 -0.01476256264734305 -9.711614667484764e-22)
(0.9861536986159373 0.01693494846240877 -8.483024863451352e-20)
(1.034691423786756 0.04079987542618579 -2.425339217131063e-21)
(-0.08951836764203719 0.1561107750053219 -1.627326398115483e-19)
(-0.06353464186777852 -0.2970148729367788 -1.402443691561207e-19)
(0.8736615464389366 0.133453035620775 0)
(0.2954284477064086 -0.01066246220428603 -3.200712795681237e-19)
(1.010848909742765 -0.01276805732022446 -1.62581546165696e-20)
(1.063883511100625 0.00262580598174412 -2.120346412515089e-20)
(0.992635073877828 -0.0184792179840135 2.880850569697409e-20)
(1.021413434836835 -0.02828144887670307 2.498520559743072e-21)
(1.00862586550191 -0.03207605512472654 -6.529688896174031e-20)
(0.9887377810283713 0.004838732708205808 -3.46814285343898e-20)
(0.9930874356025357 0.0044637292778676 0)
(1.025203248373 -0.001962408492191594 -3.585824905822206e-21)
(1.93752541372492 -0.1551922958677554 1.078297093459867e-18)
(1.048909631139482 -0.009149838848975139 0)
(0.995326480500228 0.007855260247694815 1.552410989986383e-20)
(1.002818216503547 -0.0001216498371614751 4.087098907840212e-20)
(1.168526084588324 0.1324679650793377 0)
(0.9994453729244455 -0.003434335335804359 2.182455902635217e-21)
(0.9489620518576167 -0.003345767525567269 0)
(1.037841006777728 0.04175715273867421 0)
(1.302387160721966 0.1660201478974997 2.307821582884865e-19)
(1.086192421510958 -0.01019407390715567 2.258843818202203e-20)
(1.018707556159746 0.03137499682681261 4.727298159477004e-20)
(1.086223213543744 -0.01094358025359071 -2.180123507793728e-20)
(1.047920104390426 -0.003903854771778112 -2.0798042138255e-21)
(-0.3840961383511688 -0.04309507340908639 0)
(0.9982557853612954 0.01446252201765534 0)
(0.1086764047054057 0.05909574143777244 -8.492090334433497e-20)
(1.006700938887348 0.02279528061028827 -4.177300098584312e-20)
(0.9926012853335271 -0.002469138828885551 0)
(1.000672094051467 0.005874877367409987 -5.077803276589641e-21)
(1.081520586169166 -0.04221144177362587 0)
(0.9957687094525611 -0.01705505796040648 -7.691532588588575e-21)
(1.091530907948305 -0.0550194434963865 0)
(1.44312049217114 0.1796064337241312 0)
(1.054194514188234 -0.0119499454011085 0)
(0.9905743177514904 -0.02257347515405245 -3.870878131652777e-20)
(0.987737395289333 -0.04475707009845462 -2.247918954894375e-21)
(1.017541754764365 -0.01675906922131733 -1.685301558788251e-20)
(0.9975271711153527 0.01689460361825262 -5.69227006793509e-20)
(0.9950310654438945 0.01041289161143546 -1.51292928629767e-20)
(0.9935704980675991 -0.02729370664005588 0)
(1.003237831972596 0.02525037555331025 1.976785504498466e-20)
(1.047852574630219 -0.04305013436796391 0)
(1.110950707693539 -0.03563395716719983 2.639795584544468e-19)
(0.995563387796139 0.01735442225313471 4.695007443300902e-20)
(0.6151134801187792 -0.00866760677517733 0)
(1.135217437283189 0.1343288633811386 -5.37250184919021e-21)
(0.8571956820286567 -0.1047621487431544 0)
(1.13833931549345 0.07328894839835873 -2.678227577384601e-19)
(1.316074251444964 -0.3883885157079233 1.300749112456164e-19)
(1.074401981486 0.06072416691557862 -1.32290942699368e-20)
(1.009458506640771 -0.03109680187145166 0)
(0.9557938858064774 -0.2156292871528158 0)
(0.49926369562921 0.1408662547440811 0)
(1.013253351224262 0.009641301381265791 1.243016790820246e-21)
(0.6912820368356632 -0.02679074762318026 0)
(0.9987859835931089 0.0183209172781904 3.596112810655248e-20)
(1.021994405991325 -0.004213149424897601 -2.791236863252341e-20)
(1.07912261577949 -0.008093581638298805 2.8187323456729e-21)
(1.038688909347893 -0.008423812863128946 3.391449057150613e-20)
(1.042452436600945 0.01118375071844924 0)
(1.061750816752611 0.02975322252906424 -1.000927843657238e-20)
(1.050358921929949 0.03448206582851115 -1.836332528846605e-20)
(0.982538046049317 -0.02217786216111598 0)
(0.6249448358359185 0.005123853297742603 9.182654891088065e-20)
(0.8941644453432175 -0.005869569573981337 -8.857761392151583e-20)
(0.9093726752146299 0.005338863607661309 1.442627345011759e-20)
(0.6295527926064045 -0.006382658630127188 1.404781824859252e-20)
(0.9783107882064446 0.001061077142005449 2.631991336669925e-20)
(1.00446185803569 -0.01753419483019594 -3.614235057214836e-20)
(0.9690789510786534 -0.0214552760539118 -3.645149309582678e-20)
(1.085489010521415 0.001526486003078138 0)
(1.019702235523261 0.004329488737573447 1.047400873670682e-20)
(1.13269353249998 0.04892328337870831 1.296232970983898e-19)
(1.033830682743076 0.04066622257044025 0)
(1.022209472605884 0.002561177651547211 0)
(1.584722501466721 -0.1665954745114679 4.423316348788748e-19)
(1.044005295297799 -0.03842963239466056 0)
(1.018040647411524 0.00650495351242086 -3.802719664801526e-20)
(1.088266244732245 -0.002367779346565591 0)
(0.4793250040750801 -0.03570618386392621 0)
(-0.02685703192133439 0.01964723340047024 0)
(0.9902300019609508 -0.02430497265838122 1.211777259975709e-20)
(1.301237826754276 -0.09494137454258222 3.77202090957937e-19)
(1.035923587702617 0.03753719412361502 0)
(1.022327681250648 0.003307832960507885 -2.262767890922239e-20)
(0.962891932100464 -0.1638335233164818 3.333843029738168e-21)
(1.253026062235539 0.07854580653144431 0)
(0.5976435517380106 0.7301950482011099 0)
(1.31228856826593 0.1524205367561199 1.124286923872229e-19)
(1.67835206505281 -0.02430253932453916 0)
(1.057242483189773 0.1072748233700181 0)
(0.7126126045755451 -0.01840145573297864 2.638887351975897e-21)
(1.052938889860281 0.04569889715027631 0)
(0.7252506186339929 0.1094081216634784 1.159763227091969e-19)
(0.9967718969406054 -0.01651977097321296 3.567757630594745e-19)
(1.033603682166159 -0.04169615153293296 2.740541159700221e-20)
(-0.3784075980588734 -0.002701794522377391 0)
(1.071726228029712 -0.01641923311133695 0)
(1.095005216771984 -0.008679640802620701 0)
(0.6485304000251618 -0.5033059850801742 -2.472630865719139e-19)
(0.9915207577957591 -0.00146679614606027 0)
(1.092000514372731 -0.02143615030138524 3.809311442424738e-22)
(1.187761128380527 0.1215383442771973 -1.984069390859044e-19)
(1.08883662215747 -0.0432280971726332 0)
(1.005414137915242 -0.02141570656528515 0)
(0.8108280822575248 -0.1825193211852634 -1.711562310977394e-19)
(0.8935905510486887 -0.1290842985549042 1.564374966262229e-19)
(1.027348221725508 0.0122480302418403 -2.275301061368722e-20)
(1.023110299587202 -0.009113205208915771 -4.635048240192246e-20)
(0.875445184874899 0.0122694772247336 -1.919081740569354e-22)
(1.505942274460007 -0.1929518456580885 0)
(1.302553463396662 0.1215893532825932 3.169320222163335e-20)
(1.245667851139314 -0.07490374919787214 -3.033625049864207e-21)
(1.095787960803446 -0.01848251747695268 -3.827363644653704e-20)
(1.041536210821556 -0.01165066317509439 2.408794242876982e-20)
(1.092827549865406 -0.0391126334300326 9.045122559187058e-20)
(1.032055594691204 0.01973230523978579 0)
(1.044223682790917 -0.03513910963652377 0)
(1.115917123980805 -0.008988312637744919 0)
(1.08752161796578 -0.02918505664751076 0)
(0.9978968964062793 0.01115476254361411 0)
(1.148050021678518 0.07714071157228156 9.519499514430579e-20)
(1.340742284293246 -0.1483089666697188 0)
(1.037125574448096 -0.02158990225216169 -1.839621956161969e-22)
(1.052913664992867 0.05081762528786291 0)
(1.010108186767974 0.01472646244838752 -3.997199753680117e-20)
(1.033856553731813 -0.007851672646895316 9.040250135621458e-21)
(1.08895023762284 0.01339437586438946 -3.278870577308535e-20)
(1.085342620442357 -0.0290797626851679 0)
(1.074517749736491 0.0006595381979264629 0)
(1.108578079486931 0.09496154016173521 -1.429436662410703e-18)
(0.9354719789640622 -0.1498479021467563 -7.060452897308431e-20)
(1.169380455050831 0.1063156603841503 1.105997973464321e-19)
(-0.4847456374467722 0.01207959212754261 -2.921794946932289e-19)
(1.019098355450941 0.02858113637106583 -8.920288618129356e-20)
(1.004100074481558 -0.0011921255717133 0)
(-0.2968267515273088 0.03706218174502101 3.55842394757597e-19)
(-0.05178809509206418 0.3075422398194597 7.735659453761136e-21)
(0.9952292793767081 -0.006287236984691023 9.912160511651477e-20)
(0.1912050091468978 -0.03956342260304656 1.440152897782128e-19)
(1.094158833944135 0.08069512702524528 1.504640406580377e-20)
(0.09413693981270202 -0.1097710657694012 -5.513531382951948e-20)
(1.107964909471342 0.003032602546369741 0)
(1.104302990727418 0.2593845965349122 0)
(1.021785073469965 0.02179090276624822 -1.746412611568504e-20)
(1.074396127360605 0.05455942556114175 0)
(1.026444274209336 0.02681411538263649 -9.65482647846168e-21)
(1.263528821327853 -0.5488917092388187 8.061410943819358e-19)
(-0.1046679075097815 -0.1966164813829547 2.221333342252611e-19)
(1.296665663695613 0.1185833576583719 -6.363072844831994e-19)
(1.122470776568304 -0.002877204032415247 0)
(1.128350534363671 0.09454896177505827 0)
(0.5295502986152892 0.08362649155144777 2.573249063405087e-19)
(1.023513292770085 -0.02095558245813348 9.269985825097534e-20)
(1.005922113037406 -0.0240116683769638 0)
(1.21110763574174 0.2710468833528715 -9.510567656558127e-20)
(1.259765825095956 0.1402613457871839 -1.615893844009667e-19)
(1.026645672313149 0.003002230917945813 1.523574334520034e-20)
(1.301435145214999 -0.08449428878937548 -5.031930233973937e-19)
(0.2923998870445276 -0.01323935217623416 2.591367962534666e-19)
(0.8254148812362527 -0.144753580075927 6.62961024704285e-19)
(1.052237611034568 0.05628249871641702 1.049491218158826e-19)
(1.040711295904825 -0.006248289280295662 1.739473583809768e-21)
(1.001512577493588 0.01997106002904493 3.014531219459965e-20)