/*--------------------------------*- C++ -*----------------------------------*\
| =========                 |                                                 |
| \\      /  F ield         | OpenFOAM: The Open Source CFD Toolbox           |
|  \\    /   O peration     | Version:  2412                                  |
|   \\  /    A nd           | Website:  www.openfoam.com                      |
|    \\/     M anipulation  |                                                 |
\*---------------------------------------------------------------------------*/
FoamFile
{
    version     2.0;
    format      ascii;
    arch        "LSB;label=32;scalar=64";
    class       volVectorField;
    location    "625.5";
    object      U;
}
// * * * * * * * * * * * * * * * * * * * * * * * * * * * * * * * * * * * * * //

dimensions      [0 1 -1 0 0 0 0];

internalField   nonuniform List<vector> 
808
(
(0.7562472659482944 -0.01750109899409278 0)
(1.031286854020216 -0.01254995853177827 0)
(1.115311572473456 -0.003335828252784577 -1.805956310068727e-20)
(1.085119770510508 0.01260513216857478 0)
(1.364175535261276 0.01665152512301197 -3.921155627511507e-19)
(1.038670064806297 -0.009316526801399938 -7.154109712763614e-20)
(1.013471031335802 -0.02069132762781614 -2.321767219920049e-20)
(1.078605191082978 -0.005110134505481782 8.969036190415235e-21)
(1.253953125831172 -0.01886415117922687 6.378923374892029e-20)
(1.084427312452566 0.01018048813058563 0)
(1.013817900833999 -0.00908554756746268 0)
(1.305987456565675 -0.05181167225131732 -3.571258158122462e-19)
(1.085926969681094 -0.0017033812884174 2.032516338222592e-20)
(0.6750680515082855 0.006412925239828188 0)
(1.285908512514956 -0.1150778010365149 0)
(1.081453952326057 0.0001524424107933167 -3.813816392158286e-20)
(1.233127350669119 -0.1470393451530865 -9.932670547968913e-20)
(1.074021940232866 6.857512929224611e-05 3.162331346567783e-20)
(0.9932387828671732 0.005555648529510242 0)
(1.02641613391756 0.009286139612363744 0)
(1.039764817978651 -0.0107839475488551 0)
(0.9874483728054532 0.04438082862101245 0)
(1.051127816194275 -0.0060059624761281 5.500215178014351e-20)
(1.053330197792385 0.008985806648757623 0)
(0.9326640598827266 0.1973426856190847 4.614452819743348e-19)
(1.167502087502747 -0.08700320527726159 0)
(1.185529359963688 -0.01787599698312344 1.594696531212988e-19)
(1.077414542226256 0.009380075600873141 5.191621736588191e-20)
(1.084078522702849 0.002184906091833732 5.048577336442396e-21)
(1.072004361727574 0.03092344511683315 0)
(1.07560247229154 0.002614471560246984 -1.172191173917958e-20)
(1.033005294240698 0.00655878149119685 -1.971479741996677e-19)
(1.059833740494161 0.01489452655561148 -2.397109897213991e-20)
(1.089153826423514 0.0052705163436845 -2.927455350159222e-20)
(1.119433476203704 0.03884075749129153 0)
(0.7552027561861153 -0.1235380515133959 -4.534122295490198e-19)
(0.9545091552779791 -0.005839135663315273 0)
(1.068971508984779 0.02243320766791479 0)
(1.068839137782731 0.007354560495277405 0)
(1.073596836304757 0.008974814051546367 -2.836731345031241e-20)
(1.091842847797978 0.02412062609117024 1.119970447821663e-19)
(1.150205617031108 0.004097332859607611 2.195501954770063e-19)
(1.095882926919058 -0.002415761758818998 0)
(1.015935974747035 -0.008985426553916882 0)
(1.133295833583448 -0.09763299099150789 -1.651831700570761e-19)
(1.044098371019541 -0.01163463849791307 -7.895255251249416e-20)
(1.05833833589726 0.02664172469492702 -2.839296865429237e-20)
(1.231337441081066 -0.1114067433687807 -5.637796928033455e-20)
(1.067761159431672 0.01224979329386541 -4.271776843116426e-20)
(1.256958629052194 0.01902081274953488 0)
(0.9963099161936951 -0.01831308559925804 2.079606105781272e-21)
(1.04454980431421 -0.001971582412380645 0)
(1.087568762177517 -0.002233606127815475 0)
(0.9985828650689487 0.006564824187039301 -1.847684552672568e-20)
(1.25105324959892 0.03502680740420948 -2.311327038160609e-19)
(1.063821288008557 0.01831270315419582 6.162397765994063e-20)
(0.9908493404597838 0.008318208387833141 0)
(1.020642125171469 -0.01000157452559561 2.357798693586622e-20)
(1.106975141794169 -0.0001087903986316929 -1.206287143955541e-19)
(1.061497567820736 0.03100993764991279 0)
(-0.07343169654043923 -0.0002134105596891074 6.959377275955603e-20)
(1.154912876480814 -0.05122298882489094 -1.928536824458464e-19)
(1.005577261803111 -0.008334826965261536 -2.591168175368122e-20)
(1.1832610919458 0.06947076245077972 -1.236179552166651e-19)
(0.9984040726490728 -0.009838681294580435 2.989695908701154e-20)
(1.084095165860949 -0.005546737736047376 0)
(1.244187558605954 0.09974277712520246 0)
(0.6960354238460918 0.003206308252144367 -7.498376190703847e-20)
(0.9900793053136242 -0.01388255231297298 -3.114755233840482e-20)
(1.461213691042045 -0.01649686885215323 4.515456743052809e-19)
(1.060556088192732 0.007570665924236995 -6.820011200566719e-20)
(1.368232158134973 0.09963879254876609 2.936688331316952e-19)
(1.054716295270854 0.006856677518043234 -1.870972142008455e-22)
(1.081278047141533 -0.01393845020288789 -5.204321883592274e-22)
(1.165165475206384 -0.2360445922664097 0)
(1.022004450975445 -0.01433765990094761 0)
(1.017391573454333 0.01751223685676928 -3.153655739266285e-20)
(1.38534833558729 0.3493626462585059 4.141531093893983e-19)
(1.096970214968676 -0.04214463238258267 9.295932798648371e-20)
(1.04528906192833 0.2094096660340508 2.556952078395929e-19)
(1.126109598778912 -0.06173866085204606 1.14743456107369e-19)
(0.9220734287575464 0.005135460983538623 0)
(0.9754847064724461 0.01854969158700758 0)
(1.004140094019131 -0.04901326278855489 2.616566498943521e-21)
(1.010586844010761 -0.01290361483279259 7.427431365203162e-21)
(1.030107133019945 0.02588879137954914 1.408097411683353e-20)
(1.530643657641332 0.03785901825774482 3.289976328002376e-19)
(1.289119415179803 0.07230453563332416 5.457958515536085e-19)
(1.072428119509065 0.002963516778405174 -9.299060507683115e-20)
(1.200768080833688 -0.09370163865899468 0)
(1.033708262275608 0.001730113106386035 1.355305783691868e-19)
(1.163939349816513 0.02292469568138873 -3.246627850339753e-19)
(1.001431663071419 0.03228077178876386 0)
(0.9996272190933321 0.002027789470264622 0)
(1.044465600834391 -0.0001229544863889505 7.672058165257941e-20)
(1.208051852621541 0.1093170129338304 4.110089124063975e-19)
(1.01105664522435 0.006978738379280805 0)
(1.091655825605574 -0.07118679496148879 -1.051232433396906e-19)
(1.14929076915096 0.03801001493700402 0)
(1.209780233983579 0.09686182119789669 -1.943658105694152e-19)
(1.108017519802806 -0.02855289555791985 -7.618346238069298e-20)
(1.027482050861384 0.01156489236273717 0)
(1.085206507531754 -0.004670256506452497 0)
(1.019307492778576 0.02553925102022142 8.185477879690185e-20)
(1.072262698512695 0.05358065422272412 -9.358625797721006e-21)
(1.103797379229945 -0.004238635748325729 6.196858474226882e-20)
(1.110723371539396 -0.09699662999623984 1.53342590309642e-19)
(0.9605093230684314 0.001234649236239349 0)
(1.06636516941149 0.03120298534134309 3.87795424209156e-20)
(1.168976948530936 -0.07578391402641708 2.356861728437537e-19)
(1.0520389304889 0.04475985451775136 -2.927850733225754e-20)
(1.022491943121778 0.06719275795067285 3.762571904282327e-20)
(1.090571835292561 0.02611919432268841 0)
(1.0135424958323 0.01806390514323519 0)
(1.028996578549541 0.009441561666346328 7.918530956350196e-20)
(0.9487339889379958 -0.03367216236220025 0)
(1.053016165430039 -0.005710973480654893 -7.970357417597978e-21)
(1.342266360734305 0.06104202236865285 -1.600773087623983e-19)
(1.080036411051258 -0.01324959868273047 2.58135864300693e-20)
(0.744023529000844 -0.001765220475513478 0)
(0.5460350183140368 0.1635944440968495 -8.262199102214456e-20)
(0.7060257793590858 -0.002544264514504473 0)
(0.6989984535570406 0.01465125988900619 0)
(1.077676580450674 0.003578933229391537 -6.846258529987894e-22)
(0.990635999490701 0.01451569645425605 0)
(1.278382508207653 0.1233418836667317 2.466629686657894e-19)
(1.012354124707563 -0.02783929265790555 -7.97864769996638e-21)
(1.042690641968562 0.02245962969609699 1.603350407990866e-21)
(1.058536613802608 -0.01173453218054077 0)
(1.126566245495999 -0.009181651999217099 -4.9393732165737e-20)
(1.258879509991761 0.1402536790607567 -2.234498597094803e-19)
(1.089182533459173 -0.01124544167840589 -8.506197935565481e-20)
(1.069680729501352 0.02607751366426847 -1.110294796788908e-19)
(1.04072318043798 0.04671609730950484 6.799541550613453e-20)
(1.022413834967676 -0.003714027620497651 -3.445996720952143e-20)
(1.061165501366076 0.023498195642199 6.139185480854822e-21)
(1.129617053145699 -0.005500512237763051 1.074803602737751e-20)
(1.040566723671577 -0.01500748730752896 -4.754485025081402e-22)
(1.087687541197279 0.03479322259034297 0)
(1.028238154565852 0.01336136049693213 0)
(0.7688789927713066 -0.05677453226533216 -1.82962658596736e-19)
(1.030144494391798 -0.001766634583564355 -6.981553656249638e-20)
(1.13284584985102 -0.00505493963889424 -1.304575481479575e-20)
(0.7034767373323894 0.006575557948883762 7.437242611246382e-20)
(1.175206718361635 0.02066139168622605 -1.902850626925329e-19)
(1.128348278549374 0.001826871362323175 5.460073890504228e-21)
(1.12897914863262 -0.01003505819187639 3.494835052659505e-20)
(1.000941372246662 -0.002941216990924232 -7.740507364135689e-20)
(1.097900935019163 -0.06899396541613102 0)
(0.9847745012109539 0.0003422860248841646 0)
(1.057967788577169 0.007088251389912816 0)
(1.005301736891301 0.1879344261058192 -2.489333006874658e-19)
(0.779350646790744 0.01240495473407483 0)
(0.8568421624441717 0.1006444364101506 -8.483924583938654e-20)
(0.07657488138823967 0.04116799869533464 -3.05262395623189e-19)
(1.173235381267449 -0.0296455879175829 -2.216332232617107e-20)
(0.6713285321811271 -0.007311668940098119 2.433413052769379e-20)
(1.1705366981948 -0.1038358513648814 6.950508168979011e-20)
(1.123707668281254 -0.006724958476284644 -5.978436299613024e-21)
(1.156063798409487 -0.04825658471697456 2.153740069556832e-20)
(0.1063867112735169 -0.2160477532959081 0)
(0.2571418539743411 0.09040460094398708 0)
(1.253983514823701 0.1141350010143586 1.944012076841827e-19)
(1.021410336323972 0.01980861488364367 0)
(0.7377657440346707 -0.006313845581401563 0)
(1.075357717909442 -0.0118975957030725 2.698503485026946e-20)
(0.9750126498140855 0.002778492220627777 0)
(1.289493767902977 0.1329454986338673 -1.576012132698491e-19)
(1.057486158317982 0.01125827922164359 0)
(0.9935990152899178 -0.007779523598361822 0)
(1.065074244693397 0.008168698329270281 0)
(1.006160871126562 0.02080840026752254 1.729420164517768e-20)
(0.9303050521953059 0.01303210211933383 1.062438932960506e-20)
(1.177326936442768 -0.1996443177248246 0)
(1.005172516465355 -0.005201379663711357 7.773842855486302e-20)
(1.059142089396652 0.006335401917593413 0)
(0.774664822781465 -0.003306598691726143 0)
(1.21636375857039 0.02967907721167805 1.678872521902811e-20)
(0.705004325047215 0.001322637261942718 0)
(1.436131047160347 0.09036690327239046 -5.357190296226808e-20)
(0.9942901631912541 -0.006949972925684016 1.703088789107409e-20)
(1.274233910374648 -0.0005357493757926022 -2.914562165664441e-19)
(1.0596956014045 0.008799060645362919 1.39927510003924e-19)
(1.000905125159079 -0.01360691085518841 0)
(1.218435893575761 -0.148310907441835 2.034948364569815e-19)
(0.7331935470517156 0.01379218162990387 0)
(1.098332259248542 -0.005145679743263935 0)
(1.151139695235333 0.06816475274021001 2.045370244376768e-20)
(1.007092034601814 -0.007077949170945503 -3.024587285254436e-20)
(1.119620367072202 0.05192754476180827 -1.765286054509503e-19)
(0.1092675254777773 -0.0823811955741976 0)
(1.071954863105514 0.03775362002838558 0)
(0.6616575955887404 -0.00293009528106619 -6.875800126466904e-22)
(1.012142801958993 -0.01945271196572429 9.795575236646066e-20)
(1.06153996296566 0.0006761307927984949 0)
(1.079978802032125 -0.1248721946334381 3.728767560313397e-19)
(1.002724713117081 -0.006220924175881907 -3.484021106016615e-21)
(1.002255315943232 -0.005313277579712348 8.448057204526107e-22)
(1.093929194861374 -0.009330273028481776 0)
(1.020678282563789 0.02052644442292062 -6.23411916861889e-20)
(1.106624851124955 -0.001624278161097876 6.716725821610146e-22)
(1.074089762057607 -0.01131461106049466 6.56789168820496e-20)
(1.085829461015404 0.02237684885403041 0)
(1.331328381896585 0.1664988309073498 0)
(1.001999437883722 0.0001064716343039764 4.4162948019785e-20)
(1.322323797388123 -0.1238834829343455 1.53565436349513e-19)
(0.0530485581129556 -0.1847519523496474 -2.569672423590935e-19)
(1.071344046843962 -0.005553781205344616 0)
(1.117802539283944 0.0003367169549535649 1.220259573195164e-20)
(0.7269159666475482 0.0178621035836735 0)
(1.063092292353619 0.003629543692324392 0)
(0.8719522478808893 0.1673700589912923 4.792249673707318e-19)
(1.268409810432845 0.1314366663099171 1.883188182582478e-19)
(0.6543075535764374 -0.003105071691935985 -6.297075807454254e-20)
(1.042048109701031 -0.004363637945321771 -6.673060009258483e-21)
(1.054819402215976 -0.0002923674923378637 6.64265414300346e-20)
(1.362668354921585 0.1260643237711863 6.832523283042125e-19)
(1.334365695816081 0.252692104473021 0)
(1.06011210241334 0.0001382416244945996 0)
(0.9981531728907672 -0.007470666694139088 1.541593915799853e-20)
(0.9938450800923992 -0.01160707556751062 4.959965224127565e-21)
(1.382231358734857 0.2005309193242517 4.232405948260043e-19)
(0.6816812012090635 0.000573218540563224 9.845418777264563e-20)
(1.005571095067706 -0.00206401113048596 -5.970288625927698e-20)
(1.09811155291487 0.01300918013689739 2.542248864910138e-20)
(0.6694750789874709 0.005010184607763549 0)
(1.066089449481983 -0.01201396187262897 0)
(1.000383644645561 0.1451140781169696 -1.205569876578457e-19)
(1.087896888449881 -0.007640866825501313 -2.436820401347196e-20)
(0.9821215215585752 -1.057996693318431e-05 3.279205009602247e-20)
(0.9912103315835126 0.00603739245129445 0)
(0.6383134386000279 -0.00111208841148542 0)
(0.9768538229119745 -0.001191637394808431 0)
(0.6421133177699332 -0.001501858497019728 2.697352714851579e-21)
(1.090310817811733 -0.05696464553138374 1.196135055997043e-19)
(1.113427935069365 -0.0003043218179623198 1.233807433800207e-21)
(0.9579599996084888 -0.0009199857904877418 3.913168490553765e-20)
(1.01572624191386 0.01026377181004695 1.676361143254209e-20)
(1.066025519030333 0.00212919381572322 -2.381067650122245e-21)
(0.634714617487952 0.008861859047705612 -3.646461797935495e-20)
(1.002450295699745 0.009334819250684405 -9.295005781526206e-22)
(1.035246033507633 0.009721806647980207 5.172485279652802e-21)
(0.9878124080930287 -0.01244245456458641 0)
(0.6100183209644362 -0.0004956043165542925 0)
(1.068621880365287 0.02269891310235908 0)
(1.016800741887956 -0.01563757214593092 1.054112753760157e-20)
(1.023003671056416 -0.007378475271839034 0)
(0.9912290219444171 0.01456008568380904 -9.515731356294168e-21)
(1.011627339333517 0.002576174058011384 0)
(1.127008597723488 -0.003775670938938054 -1.16256366266681e-20)
(0.03970023100051863 -0.1418475111924107 -4.302686554603492e-20)
(1.036562132137716 -0.01685764178570581 -7.073170178323956e-22)
(1.042709110856108 0.005079885464952042 0)
(1.082757276924578 0.06503626004747125 8.420112696792354e-20)
(0.9691380521235387 -0.002195556053445577 3.11356920522287e-20)
(1.020646542928167 0.0169485285716177 -2.375038090714722e-20)
(1.001878594423788 0.0006793028564994698 2.502556407079209e-20)
(1.040686148221548 -0.005554382862988108 0)
(0.6409075785353612 -0.003997559559678794 0)
(1.025813654800904 0.02453461014599058 -7.222751360104859e-20)
(1.081240292488826 -0.002050504712741759 4.790683649771087e-20)
(1.016850316473869 0.003062950500642785 0)
(0.9794534682724318 -0.003099070795063841 -1.93731944475678e-21)
(0.8740509219199508 0.02195928982321448 -1.165493188771058e-20)
(1.01402134310327 0.002775902717632127 -1.017943752797618e-20)
(1.026544243372816 0.004178927330828152 1.813271684642858e-20)
(0.9818039281046474 0.003744879356970922 0)
(1.002272814970496 0.01039367582303657 3.510181987892926e-20)
(1.107484256858571 -0.002137154036818082 0)
(0.9245540411652083 -0.0007576141253269806 -3.26943375263234e-20)
(0.96038303280952 0.006251521646749815 0)
(0.91689999589369 0.211723186440391 5.2079491210018e-20)
(1.010749589353084 0.06679373877291703 0)
(0.9929995325104922 0.004024704421686203 -2.286957376695444e-20)
(1.055847360962492 -0.05427689780562695 -2.879179475899045e-20)
(0.9911398472614873 -9.797827400391426e-05 3.408556099729541e-20)
(1.012202375749708 0.004220755829075967 0)
(0.9779621483227605 -0.0002991003071446717 -3.178920867221402e-20)
(1.168398890040425 0.1010961872848447 -3.382640481983326e-19)
(1.069770211431915 -0.2649807016417842 0)
(0.9932276180488241 0.001648065979900821 -2.214692907728377e-20)
(0.9801388222914428 0.005321775706570187 5.060431462687195e-21)
(0.9631239049945532 0.005731614571457674 1.0178177765267e-21)
(0.7459293365733335 -0.001068770759271892 0)
(1.120121757923779 -0.08238405017104687 0)
(1.005779233821794 0.0041638648696959 -2.189449444958754e-20)
(0.9010316023690076 0.005776296002087194 -9.699582827442666e-21)
(0.8557781874617976 0.01709301271086949 4.062287987436033e-21)
(1.013177006143793 0.0006687753433893066 0)
(0.9492721596377496 0.004907540601751805 1.472262859965588e-20)
(1.005677230433971 -0.000264705214105616 -2.310617135262814e-20)
(1.02034996684834 -0.0003737096212883621 -2.587851221905828e-20)
(1.113098146204757 -0.002287353571542923 -4.929689922874276e-21)
(1.11865249298217 0.0006192772404196259 0)
(1.014506238285334 -0.009077582641086405 0)
(1.020908414367933 0.003323389306028245 0)
(0.9450223269727439 0.0009732232525766665 -2.132879684056413e-20)
(1.017868210082342 0.01353771578656554 5.315197191037198e-20)
(1.080171512699347 0.001991494767724647 -2.211770072229537e-20)
(1.039556262681338 -0.002619840293877571 0)
(1.105912235697688 -0.006030330686861185 1.836677797650616e-21)
(0.9957331598242218 0.002679385174560093 -2.21055774214389e-20)
(0.9867338439063309 0.006688129876546107 0)
(1.011905076335915 0.003019008123152348 4.659636908760355e-20)
(1.367537072259326 -0.3144928169720939 -1.134326667238756e-18)
(1.122956811582241 -0.04387269343599125 -1.080565491981424e-19)
(0.9665536479487467 0.002742935398467153 4.748025151844787e-20)
(0.7765292221735722 0.01202325680989482 -3.137176042116589e-20)
(1.221111338160917 0.05385627060281043 0)
(1.224857876895861 -0.1338371375590243 -1.462491177523388e-19)
(1.078043585402153 0.00533315531591022 0)
(1.008591990630883 0.00168457045933492 2.238768504877318e-20)
(-0.1635052834599197 -0.1202696845576022 0)
(0.9939673449459966 -0.004647691405873503 0)
(1.012453532694602 -0.0231763289135637 4.627570995631765e-20)
(0.7062037646364014 -0.01945032929069148 0)
(1.09679331216092 -0.01485442634311867 2.12555075010989e-21)
(1.043967772054361 -0.01204874381445537 1.775966908818203e-20)
(0.6331355350759673 0.004144707844077433 0)
(1.449372166950479 -0.1222187093172283 0)
(0.9868535837186053 0.001331795263218123 -1.083608092546068e-20)
(1.069797571269704 -0.01498300101271815 0)
(1.037998404836656 0.0004030949893617563 2.157215235009467e-20)
(1.083059747943735 0.005763186896687925 0)
(1.009349697612895 0.005683642958737296 -1.039693498470612e-21)
(1.005918705468724 0.002949634506566657 0)
(1.013487918989059 -0.01360871068440057 5.014583775090095e-22)
(1.003506833076889 -0.02079459871155049 0)
(1.034239896103675 0.004945757510654348 1.717549801338876e-20)
(-0.1903286944701889 0.0333672142228156 2.632958054405011e-19)
(0.8095225702727084 0.02635253419157046 5.285657496198197e-20)
(1.005750771114189 0.001924625238306171 0)
(1.132919438319238 0.02153619848409807 -1.199176371212746e-20)
(1.122534045283718 0.0188312808930126 8.472866853293827e-21)
(1.054354198231647 -0.01307851624542009 -1.274752685410595e-19)
(0.9987856874091872 0.01034853986040597 1.342689085850363e-21)
(1.077593036144317 0.006978458642236167 0)
(1.185609713842924 0.05389181669497042 0)
(0.8354572969304636 -0.07642238644291649 4.588599659202906e-19)
(1.100084222584749 -0.006250530883886628 0)
(1.032757084962811 0.007396466288787228 -7.382112662194803e-21)
(1.042575131425183 0.005162714268924267 6.126875734744053e-21)
(1.054317533899471 -0.06171299627848387 -7.521284317774481e-21)
(1.139933416276811 -0.0007722398284843762 1.661653853181768e-19)
(1.084562557395885 -0.008791403340374969 0)
(0.994849867774423 0.001221215705632452 0)
(0.9959073406227282 -0.02497535926377133 -2.286826590314482e-21)
(0.9906552651328019 0.002670293210901303 0)
(1.030404360812586 -0.0388374223162077 6.359857567504982e-20)
(1.29304052679392 -0.09195205030314704 0)
(1.046205787035265 -0.01171118662151122 -1.770371222821252e-21)
(0.9861557950293379 0.01698973081324976 -8.447495869583709e-20)
(1.033983531540954 0.04076279524193472 -2.426087361282205e-21)
(-0.08705503666866386 0.1486603409876798 -1.632485369114619e-19)
(-0.06533787427667759 -0.3021290542499595 -1.389359238126012e-19)
(0.8839240023631758 0.1397617143972135 0)
(0.2960650695833354 -0.01871298561232589 -3.283983713725881e-19)
(1.008709025140248 -0.007767603145306207 -1.62473794314841e-20)
(1.063843706749208 0.002646503943297443 -2.119390792764057e-20)
(0.9920668410721397 -0.01838450873894771 2.916233938805837e-20)
(1.020963930580695 -0.02963643593152256 2.526498358300364e-21)
(1.00905524918412 -0.03235821733632574 -6.528896820580157e-20)
(0.9887811989360804 0.0048163775505176 -3.466343169056433e-20)
(0.9929156656443365 0.004693224488910192 0)
(1.025332568387543 -0.002104148102880683 -3.564167338303012e-21)
(1.939011140498748 -0.1553151508068361 1.079736900597607e-18)
(1.046400839830778 -0.004508537959937981 0)
(0.99521488608467 0.008205571616187877 1.553370583990773e-20)
(1.002927580692522 -0.0001325410317228912 4.077529994260427e-20)
(1.164278399469243 0.1347901574089482 0)
(0.9976861463371002 -0.0004073435909761636 4.394484494700743e-21)
(0.9485277164965044 -0.002794331964668194 0)
(1.03783727256318 0.04176947502480526 0)
(1.3069254041983 0.1670496864173782 2.351063362892145e-19)
(1.086669923681856 -0.007860587419678832 2.266988291084662e-20)
(1.018539676489044 0.03070776402048227 4.704009870796274e-20)
(1.087722772580686 -0.009928114646644434 -2.188150069166481e-20)
(1.046344262868354 -0.003086762901515117 -4.558543332948495e-21)
(-0.3841025560069086 -0.04718622284948583 0)
(0.9986260363851316 0.01456564018196101 0)
(0.1065945248268903 0.05784764454095269 -8.554455329287955e-20)
(1.007037874194644 0.02233876275520641 -4.167166365120155e-20)
(0.9931754206344349 -0.005739248026298524 0)
(1.000983743788373 0.005821468708930209 -5.057615194854932e-21)
(1.081598560381905 -0.04231337686617671 0)
(0.9953814945113911 -0.01666150411191565 -7.724086580881911e-21)
(1.094065116096323 -0.05812844889906324 0)
(1.444428823444383 0.1797543855086353 0)
(1.054347013084334 -0.01208377752077401 0)
(0.9902692410854758 -0.02299947026158866 -3.917094640133249e-20)
(0.9927195907290087 -0.04790245985637812 -2.433414401087589e-21)
(1.015981970544127 -0.01714967525687725 -1.692093224181535e-20)
(0.9973719592579985 0.01671557122777413 -5.695445815590955e-20)
(0.9951887193693872 0.01061706957377744 -1.513865339945595e-20)
(0.9937148601409868 -0.02791290934724501 0)
(1.003297448393124 0.02474554847359251 1.972433966055489e-20)
(1.053179307852029 -0.04466278486303606 0)
(1.111202152322399 -0.03550913095931893 2.649565895798752e-19)
(0.9956980165895001 0.01724229332404988 4.689772358851337e-20)
(0.6151009873057716 -0.008670798218646516 0)
(1.133706722858349 0.1390703173372204 -5.414840416557292e-21)
(0.8607625619148438 -0.1019497251492014 0)
(1.137978606612011 0.07335396410587589 -2.670084610885328e-19)
(1.317016948505975 -0.3889300395457475 1.304554766651658e-19)
(1.072489524507938 0.06050054420697924 -1.297209596028568e-20)
(1.009800027456194 -0.03176088166661617 0)
(0.9561377296913177 -0.2162821550529281 0)
(0.4995777802444052 0.1420888306023463 0)
(1.014344364526512 0.008924507786660851 1.296546030742027e-21)
(0.6870143203925442 -0.02988494658691736 0)
(0.9991809474722236 0.01814935261344258 3.587470617975726e-20)
(1.023344335333213 -0.005126393829701151 -2.809923475869932e-20)
(1.07907320808123 -0.008106690801472952 2.813318083758698e-21)
(1.040164196834023 -0.01291631344955784 3.355309750290192e-20)
(1.042360776553038 0.01142866851132116 0)
(1.064094978887309 0.02824621060557628 -9.647374410742287e-21)
(1.049835219446287 0.03483060255786039 -1.839158963227718e-20)
(0.9826474251743729 -0.02247672898173255 0)
(0.624942795522974 0.005113771532137754 9.179108525259049e-20)
(0.8941591410273947 -0.005872067418451886 -8.854335577933673e-20)
(0.9093780678996 0.005335694697503101 1.444421136537313e-20)
(0.6295509679714325 -0.006392062396523993 1.404415946053929e-20)
(0.9787455171016536 0.001362060053485812 2.603856471155523e-20)
(1.004459044405324 -0.01749007024257805 -3.640081264310949e-20)
(0.9727547064204382 -0.02801814094127167 -3.607516803110503e-20)
(1.085499422101107 0.001579345315532607 0)
(1.020037478042753 0.004423349537696277 1.029036217461529e-20)
(1.132412184724596 0.04907097307452172 1.292806107169029e-19)
(1.033128109431204 0.04025758557855311 0)
(1.022335554976398 0.00254146364447937 0)
(1.586005719640772 -0.1667698211063784 4.430631667876375e-19)
(1.048378713612359 -0.04330144235176742 0)
(1.016943017941095 0.007071997077226753 -3.823565793488916e-20)
(1.086947065807966 0.0001579319346724955 0)
(0.480087407469636 -0.03339682533129354 0)
(-0.01287231610981841 0.02449075622474519 0)
(0.9905587596626387 -0.02443781758775614 1.212114745130222e-20)
(1.30202416831141 -0.09497002531213716 3.781336875345158e-19)
(1.035674510050367 0.03633690884614414 0)
(1.022250388755027 0.00334992092166693 -2.260423521935917e-20)
(0.9637705846901431 -0.1624370974386772 2.871380088501701e-21)
(1.254056917853326 0.07941916699588338 0)
(0.5970280220438878 0.7290594322334488 0)
(1.313997960332088 0.1522467384511083 1.123487679269951e-19)
(1.679699789639238 -0.02433644238092113 0)
(1.052385383078079 0.1064153224620041 0)
(0.7086538287320904 -0.02239823706579739 2.859719821837802e-21)
(1.052109246183242 0.04433224368850759 0)
(0.7357995345828748 0.1168263586685066 1.173378339755333e-19)
(0.9967621336920847 -0.01655994116440756 3.565944684385718e-19)
(1.034591311406171 -0.04242140779568304 2.785553980725747e-20)
(-0.3809170410145123 -0.001295336890253521 0)
(1.071907109254719 -0.01647666290104126 0)
(1.09254804656187 -0.005534777415286417 0)
(0.6490916858214797 -0.5046668978881633 -2.462590585139659e-19)
(0.9908084541377861 -0.001679265102665726 0)
(1.092183502510804 -0.02126045189180893 3.657268602046209e-22)
(1.187200040758644 0.121523119751353 -1.978839300697841e-19)
(1.089744657101704 -0.04616629379552332 0)
(1.00573939056567 -0.02143730033946614 0)
(0.8024250745530381 -0.1787617864031706 -1.673036037510929e-19)
(0.888005996831793 -0.1263971298213231 1.559505291001166e-19)
(1.027852372111221 0.01342890284061317 -2.273534685424943e-20)
(1.023106117908224 -0.009026887807350179 -4.663935202574407e-20)
(0.8786680997655526 0.01493008920967812 -2.317601067916114e-23)
(1.50708232368372 -0.1931550253540504 0)
(1.304374871719406 0.1221479651005993 3.127094187844115e-20)
(1.245221893551816 -0.07354454315221921 -3.098594486705023e-21)
(1.095731683504133 -0.018425604075905 -3.838448458279088e-20)
(1.039225562420184 -0.01101036241951083 2.40987787924465e-20)
(1.092836735804665 -0.03907888385435107 9.015740729350422e-20)
(1.031809803493472 0.01994750287048352 0)
(1.044578366966019 -0.03665388660046942 0)
(1.115942327039322 -0.008960753002042654 0)
(1.088217741618763 -0.03301796910029409 0)
(0.9979686671362969 0.01123211895388388 0)
(1.147368768141725 0.07888930955679151 9.567159368216764e-20)
(1.338795347835402 -0.147551548735754 0)
(1.035599368904768 -0.02291088952188547 -1.936323879694315e-22)
(1.05162480407688 0.05015361821507964 0)
(1.010200909223085 0.01470624041397022 -3.992716562100257e-20)
(1.033931193633504 -0.007633023430461663 9.024442690232494e-21)
(1.08893157273623 0.01343794246473487 -3.287576141536371e-20)
(1.085538622906925 -0.02860949869029813 0)
(1.07296658075978 0.003563005488103512 0)
(1.109387695979042 0.0950458315606612 -1.430720609071767e-18)
(0.9356366545469706 -0.1504230615112243 -7.053753197222083e-20)
(1.167452036698068 0.1090765009927832 1.115061236847552e-19)
(-0.4860881314982298 0.010039586123927 -2.914173169432894e-19)
(1.018668754200392 0.0284929073758756 -8.93288236171419e-20)
(1.003906477846059 0.001544906087233096 0)
(-0.2927741665109348 0.02850496921283237 3.554865283624242e-19)
(-0.04855054593231144 0.2958866892062984 7.953196476171172e-21)
(0.9952258302718501 -0.006265287363540687 9.994990389404402e-20)
(0.1905912776273581 -0.04059249357219853 1.424593878118188e-19)
(1.090976662831143 0.08012096028546424 1.475940330506785e-20)
(0.09421165694206535 -0.1110018393420804 -5.545042442098537e-20)
(1.108096197310832 0.002989642360071954 0)
(1.105360156715076 0.2595141473793497 0)
(1.021678151957048 0.0216415939246837 -1.748861307713621e-20)
(1.07283273570531 0.05217135920475147 0)
(1.02697097136799 0.02607062424533607 -9.449194177268484e-21)
(1.264521350597421 -0.5493964812508513 8.074487827205652e-19)
(-0.1131871437409748 -0.2031035552755006 2.223213697159781e-19)
(1.298088675492727 0.1190725830406228 -6.384318704546565e-19)
(1.121750771729139 -0.003576007556795543 0)
(1.1247864665376 0.0950319232429286 0)
(0.5299482800646133 0.08342055995970578 2.566573740287022e-19)
(1.023721797373224 -0.02075226361339083 9.257009024821068e-20)
(1.006253040028837 -0.02394386326631393 0)
(1.210388128016699 0.2706818956762401 -9.468840889806066e-20)
(1.26292043615606 0.1399165682277791 -1.620067241029705e-19)
(1.026664891792084 0.003172379940021818 1.520002772666131e-20)
(1.302392338079267 -0.08456966274810621 -5.037554996846277e-19)
(0.2912697039590013 -0.01305399781284877 2.613603699375856e-19)
(0.8242795991529236 -0.1443382749126421 6.622528289761029e-19)
(1.047311946639891 0.05139727879071317 1.057411599985047e-19)
(1.039999092149529 -0.003668348540132232 1.851742562689573e-21)
(1.001548390578814 0.01975724367965136 3.014210070086051e-20)