/*--------------------------------*- C++ -*----------------------------------*\
| =========                 |                                                 |
| \\      /  F ield         | OpenFOAM: The Open Source CFD Toolbox           |
|  \\    /   O peration     | Version:  2412                                  |
|   \\  /    A nd           | Website:  www.openfoam.com                      |
|    \\/     M anipulation  |                                                 |
\*---------------------------------------------------------------------------*/
FoamFile
{
    version     2.0;
    format      ascii;
    arch        "LSB;label=32;scalar=64";
    class       surfaceScalarField;
    location    "1677";
    object      phi;
}
// * * * * * * * * * * * * * * * * * * * * * * * * * * * * * * * * * * * * * //

dimensions      [0 3 -1 0 0 0 0];

oriented        oriented;

internalField   nonuniform List<scalar> 
1171
(
-0.9279118718177388
0.9279118717767404
0.7874329003059626
-1.099256963516562
0.3118240633448447
-0.1896311633286438
-0.7656820570139962
0.955313220349726
0.07208812421119977
-0.1172477621280241
-0.2124181497226412
0.3296659114340753
-0.7874328936270591
0.06943403990525752
0.7179988537341648
0.8114715343847443
-0.1779997877944783
-0.6334717466377789
0.8740908094317648
-1.044213662889449
0.1701228534942996
-0.285454961860545
-0.09782593211151605
0.3832808943017221
-0.03643164216413541
0.548991389874668
-0.5125597477858468
-0.5060541118317788
0.8259722082086418
-0.3199180963768684
-0.4027027174689377
1.045833992286538
-0.1717431829085836
0.3920739357134337
0.04992749422020715
-0.4420014308316048
1.045925181050593
-9.118853558128453e-05
0.4437532720306087
-0.05167933788181354
1.056479622837502
-0.01055444585381432
0.580182993284574
-0.7698141501487007
-0.7241295171050643
0.5565990693579788
0.1675304476816757
0.2148040528558366
-0.7208581705531961
0.5500821549923494
-0.9226429979085605
0.372560842222333
-1.094210123972024
0.6865970331932985
0.4076130908837345
-0.5955994929919604
0.5591678577727264
0.01737877250646918
-0.255982904380861
0.2386041309507974
-0.02258102998821989
-0.5231140682684687
0.5456950982288039
0.400406746958271
-0.4982326721994514
-0.9189638452505348
0.9416524800086851
-0.02268863474551712
1.067681202990674
-0.01120158220394869
0.9348512143101745
-1.116659223309382
0.1818080089411218
1.067127487128941
0.0005537112385296434
-0.6644221539459739
-0.05970736204619877
1.262261265212049
-0.8642934203399801
-0.3979678448712012
0.1481636370473323
-0.1098905505891353
-0.3258314276498913
0.4357219785115437
-0.2855203386747799
0.1917969799201265
0.09372335918007108
-0.5836922689607722
-0.5155646971907706
1.014062844130924
-0.07921162986894054
0.009885584274928857
0.8254962371314383
-0.8353818213770787
0.5717558152402307
0.6905054526150179
0.4391008452229525
-0.03079458844563947
0.4312013357735998
-0.808048329869039
-0.1025190656507003
0.9105673954546012
0.5020648250034213
0.2539525900701799
-0.7560174150888654
0.006919387360606502
0.5286867045988389
-0.5356060923328415
-0.4899894683988352
-0.6042206576913397
-0.4227520928932701
-0.6939071295420903
-0.02716632155410902
0.2705755128666945
-0.2434091905868385
-0.9247393067117468
-0.005085527882340376
0.9298248346333163
0.3086649415581111
0.07461596080031346
0.7616200406379947
0.04985149079143278
-0.5330222128191355
-0.06257727722268668
0.04599935494568087
-0.854047685527269
0.07574513170674331
0.8633287430759703
-0.9390738747726314
-0.3468218647557335
-0.04102393012295703
0.3878457949415286
-0.6820386266350754
-0.2427006763638015
-0.6343045909782264
0.7100497208520383
0.6143199487670642
0.2116522539884453
-0.5433543280668606
0.9456320454894395
-0.7789514670049614
-0.1666805784577329
0.01122139097429417
-0.009375487599789368
-0.00184590348935099
-0.4034740529321291
-0.09475861868078013
-0.2409588356933985
0.85527877936158
0.04800370961799378
0.3346131467854355
-0.3826168560259207
-0.461274671915197
0.9633394942159098
0.6804546613289443
-0.7829737289905963
0.3199455801028505
-0.01626553742708686
-0.3036800429467907
0.9307324890555103
-0.9307324890420751
-0.781192777294515
0.1109111299995679
-0.3233292748568368
-0.749929553966223
0.7598151401864196
-0.09045399919373576
-0.1433929222001291
0.2338469218927774
0.8649173581868054
-0.0394211182076904
1.054401450242566
-0.8004488650147084
0.186649730440415
-0.31620731968417
0.1295575891191837
0.8585892680547228
-0.09696922751198235
-0.6114365033862108
-0.03904254632182252
0.6504790497307152
0.1234559763247502
-0.230543136351575
0.1070871590740181
0.8055980543115507
-0.9835978440051348
-0.4345023445431011
0.3292335622975588
0.1052687818488198
0.5329996206827909
-0.5555806529668459
1.021907140071916
-0.4561964050681219
-0.5657107350014888
0.5991550462527159
-0.7193403169715344
0.0666361154549986
0.6527042018302623
0.1025718497898412
0.5695883038907129
0.0553533574449044
-0.6249416614498596
0.1945797378525513
-0.08366860628545419
-0.4923052372556875
0.1454833718182755
0.05023736381894595
-0.8864542474204827
0.8362168835470343
-0.4731865679749195
-0.7132389787449978
0.04881682690008882
0.4372371912177452
-0.006035851308056808
0.2999862882540521
-0.855268061433786
0.5552817730024168
0.4157534102289549
0.5842465897230261
0.5604998594847838
-0.5145005094187216
-0.3679492969148563
0.0388348833190341
0.3291144158220554
0.6812868470345277
0.2494456429054842
-0.5665876216325245
0.5735070097412949
0.1114057639904644
0.875032089652055
0.01018391740674057
-0.6216204189796021
-0.7490803294356305
0.7993176931630063
0.5305457622616446
0.06991630301837326
0.3015554808253736
-0.3714717840008488
-0.1674506545231096
0.444553594863357
0.0841331180282784
0.8749610494351333
-0.8047959883285328
-0.07016506117637293
0.635308019319145
0.3103240279194646
-0.4306403734761302
0.5737110953351647
-0.5037947915595021
0.4171235744917032
0.1329585767990707
-0.04673060549629205
-0.593646048398622
-0.1384229847729714
0.7320690331888671
-0.1497694291887141
-0.7809630566860818
-0.610999101955943
0.3603379503549723
0.2506611525200355
0.6219297487742304
-0.6117458318740604
0.2392119120334355
1.011417942508739
0.04298350765469359
-0.749080330634858
0.233030137570146
-0.2218087409983364
0.6804546624002539
0.801745684263187
-0.8017456842135424
0.8376374208759604
-0.8331046277047588
-0.004532793235887383
-0.4453549393032376
0.8611083500994662
-0.1472863238361979
-0.3450189108576122
0.7347433473718286
-0.6685382019894189
-0.06620514532393323
-0.7356387863342373
0.1419927396069592
0.1390178111777714
-0.6720400232945216
0.7829737397998405
-0.9504243942726889
-0.3687195395506611
0.2896992040735399
0.07902033666217556
0.1457890907287598
-1.010076402817214
0.8642873120655088
0.4811501369139489
-0.04204929162502008
-0.3080962638106617
0.5863232472523464
-0.2782269835471226
-0.7385963567647065
0.8843854499109918
-0.1570217159950413
0.7311164686378311
-0.842030882090543
0.1109144133977186
0.9762050412031148
-0.5393148007934773
-0.4368902403610887
0.7550150775472445
-0.06502134608856552
-0.03275396547397054
0.1847144313783845
-0.1519604653960963
-0.7758162569109905
-0.840403022529229
0.07472097240045929
-0.7499295536146511
0.5136644417072366
-0.5546883689494848
0.09999497863030078
0.7177125965960029
-0.8177075753461404
0.7536131334978935
0.1742987232081839
0.5029260323614582
0.4970739676582149
-0.05202781121782811
-0.6125653589939174
0.6645931699469281
0.8830598048496822
-0.008098758478225063
-0.7550150775599582
0.7993176933483249
0.1915295681130865
-0.4475124746508087
0.01427089487742798
0.003767568131276423
-0.0180384660717952
0.5886046891900629
-0.4375000482664443
-0.1511046412800681
0.7179988493806592
0.01008900201386322
-0.109286553145769
0.4379999817341179
0.1506047065729067
-0.01650213699164539
-0.006541706847596671
0.02304384393264513
-0.03092445290214182
-0.001829508222740433
0.2454488431636409
-0.2617143910456988
-0.9587673997139429
0.001341544482683886
-0.1594497063578565
-0.1232706951804596
0.09444301841400513
0.7223806536002553
0.7289785341786781
-0.1447319436295114
0.6745604676577037
-0.5745654864751253
-0.2118097462393775
0.3984594782318228
0.6956128461776209
0.0223860032200393
0.2418179725472471
-1.074922601537064
-0.9504243930153998
0.3026290864843332
0.7598151418072119
-0.209189507185962
0.06579658216883548
-0.7237221976656836
0.9110950826489714
-0.187372885002892
0.4155323319925937
-0.02768653107675572
0.7711955367393122
0.2806596813938994
0.375838486015854
0.06791479695609143
-0.6587065750677162
0.6587065750857249
0.21466914894949
0.6958982444160691
-0.05635056628387691
0.3909637123300166
0.379371410542243
-0.01495245924693801
0.0292233643852646
0.4484414272492053
0.03270871269081566
-0.7385963557330631
0.5339982891477433
0.2007450568213234
0.3010040347932568
-0.1162896065105503
-0.6956128460925071
0.1799263498833646
0.7311687332056361
-0.01017524241743764
-0.8136572825570278
0.8238325249901522
0.6963900373042404
-0.7920011685837492
0.09561113124435867
-0.7536131275918648
-0.1501979030414762
0.2116706257756578
-0.06147272202163478
0.07735700159462057
-0.1788403539768226
-0.1122408641502872
0.2910812173984784
-0.008737642680061206
-0.007764488270860576
0.7062892072661696
-0.7164644423221499
0.8867208694850482
0.06859235686658106
-0.3104174666664112
-0.5233733243793369
0.8337907911928227
0.1030787013290666
-0.1030787032591322
0.3285340826691202
0.4778140929519729
0.6090258408257958
-1.086839933850226
-0.1941044038304004
-0.5855331043417995
0.7796375081609147
0.01254942352786046
0.2212974920582703
0.3763984435631421
-0.252942479133162
1.015512131253979
-0.5376980413413979
0.6679058947161149
0.9922890438767318
-0.3832632059713519
0.2291121247189311
0.8843854523166782
0.7126422678319196
0.2138600597275009
0.7277924168609043
-0.7809630559413958
0.3412934142274524
-0.2846905813445219
0.2598368499238157
0.02485373269666437
0.851484815137058
-0.007363864022500036
-0.8441209513013338
-0.702087817522159
0.7026415264774772
0.5546450593876155
-0.702087819310494
-0.7126422678281753
0.7026415243693546
-0.03358800665150441
0.907000996667263
-0.02028012365560314
-0.6812868569481579
0.6122383353304865
0.06904852162218374
0.5386552192936702
0.5385335803461797
-1.077188799648008
0.4878514375528438
0.5276606928744357
0.5482850380127579
0.4578574281748196
-1.00614246623473
0.4937980029022281
0.498491039985421
0.6122383422260406
-0.525699767518686
-0.466663589589857
-0.5559196594673222
-0.5143872933816446
-0.1243182797956222
-0.01281333879495465
0.01281333953744343
0.5095414536044458
0.5245006907688937
-1.038887984251359
0.5724585534198539
-0.2709030700541707
-0.8829841321985581
0.3436693321457699
-0.6327218917586356
0.390021216730906
-0.0001692834683643175
-0.8269783984004494
0.827147681905952
0.4208822781494841
-0.02486756305414576
0.8763523799597402
-0.9447220616969099
-0.8342420452024446
0.05694894332872409
0.7772931019444216
0.5526924636615105
-0.4372245346620852
-0.115467928981729
0.6501551058934925
-0.7293667350699613
0.8857574129549741
-0.8270878872804517
-0.05866952549019248
-0.01428001832719114
-0.7905159727142429
-0.1112542159860054
0.7145744321982372
-0.6033202162171885
-0.9414114568158752
0.92713143822275
-0.7339655664524873
0.6882550818782619
0.04571048459843743
-0.8008518034580911
0.02767999008828587
0.7731718134529609
0.06187103867105061
0.04120766554176741
0.4329448667663588
0.05896466144203476
-0.8498749071585263
0.7909102456195026
-0.6455640034079262
0.5935361888913155
0.8892993420475518
0.07341113467297364
-0.9627104767714225
0.05505729966773241
-0.05041547477769001
0.3795298850683737
-0.3817777637204995
0.06557044242989025
0.8405405786592767
-0.8407098652210199
-0.7322594406884938
-0.8121724954185519
0.02165652241853548
-0.1680117642136442
-0.8477150160797599
0.02062712288072674
0.6230511509467311
0.05150931886500126
0.01810167695022584
0.5345907796993142
-0.8156547109335716
0.8433347046952302
0.5657107361524474
-0.8518459657466865
-0.8680003202764678
0.03900067991469843
-0.03071661758550271
0.833926312608271
-0.8032096949902077
-0.02056734165681143
-0.7629760552275355
0.5442856056104813
0.1521044362538751
-0.01827160442063877
0.8946239837519873
0.9840803831036059
0.8610765015489963
-0.8404493815472927
0.1477146014085914
-0.1477146027713645
-0.1175806697277794
-0.4645826062512379
0.02735806845698265
0.2712110962199979
0.03141799054736168
0.3859274807333641
0.874056644201141
0.007436495040844768
-0.01617412842602374
0.6585957174290755
0.3414042825883106
0.7835857214598189
-0.5836922703318093
-0.7780628590993212
-0.8105735535567211
-0.679952885326601
0.6799528853307237
-0.1682135635637443
-0.1551157061146845
0.6019694269926207
-0.8112789901468828
0.2093095631769629
-0.4940388841132217
-0.5688426568686935
0.2780176235141381
-0.9719247533808245
-0.8986117555131018
0.8399422221600465
-0.8187795907787196
0.8404361139780807
0.648483649851293
0.1344244212919868
-0.7829080711573937
-0.7648630688195776
-0.1464032506782791
0.7253749108048247
-0.5789716601454369
0.02455511403488373
-0.01225575332357223
0.01564481806377747
-0.003389063873967412
-0.3524463587468321
-0.1121362444478707
0.8799870537697758
0.7401645521749128
-0.2392726979498838
-0.500891854610941
0.6246966273259049
0.685728948518699
-0.4710598005283261
-0.0001340301714223393
-0.285386309622717
0.01244057081411702
0.7483333984512464
-0.7607739691086871
-0.3234411004766261
-0.07205699309997596
0.07616439340168943
-0.967479303386113
0.1233583547971115
-0.6768545640882848
0.05438212249678254
0.6399484143806348
-0.6943305368844794
-0.7563895482803772
0.07953498418976221
0.5894354430447319
-0.6614924360716372
0.1565327453996975
-0.3353731002680239
-0.7723567272819887
0.00749365842852468
0.3711188828975364
0.5998616942498446
-0.02615059552909718
0.02073319340848307
-0.02073319433992984
-0.01935503277638588
-0.0517735983019614
-0.2329169716321992
0.02285062554884487
-0.01541415449764574
-0.7208474104353402
0.2793842517072268
0.678620929638261
-0.6897998994400365
0.0111789699681353
-0.5959114846081209
0.6502936039051576
0.6545848173815308
-0.0651493730140196
-0.6308531306916362
-0.1255364199079784
-1.049958542086597
0.01120910275405104
0.136505503392705
-0.7084068402438543
-0.7421073497397486
-0.7639893394830596
0.3660214967162774
-0.4058088253035643
0.4654446374273997
-0.05963581193887998
-0.6706509345513094
-0.03775590563207195
0.4997965981673308
0.7306838473210318
-0.235304623916424
0.1120339296926739
0.9599856472254213
0.4463937224113149
0.1321928446637722
-0.578586567128742
-0.6770841979745906
0.006433265944685155
-0.04446366806033719
0.03220790042633305
0.6373835316206226
-0.775806515963694
-0.002600844437507133
0.002600844198702436
-0.6001799141726556
0.6497146767260371
-0.04953476259503582
-0.6589825220206803
-0.1138342280064541
-0.6717737869634338
0.0560505568923253
0.6085426090512606
-0.1376484863821887
-0.8181770370831163
-0.568445833641659
0.5722219493632988
-0.00377611549718387
0.630089391399562
-0.6189104240062875
0.3223978577259126
0.2136141897183413
-0.5360120474459837
-0.1047238166947488
-0.6024273745785467
-0.09190316246722326
-0.1537861865565762
-0.5123952810499466
0.4043365147840727
-0.4990951348245099
0.1260918296716909
0.6787621528233557
-0.8048539824660695
0.5991550462484571
-0.3736871456814518
-0.03212168391906088
0.062270381530139
-0.5746656643075746
0.5513805731935439
-0.0403866142241671
-0.510993959111505
-0.3129374129850102
0.3055851152397234
0.007352298594433405
0.4510133729084887
0.121445179744938
0.05215744370480439
-0.3163815827381183
0.1573936630412979
0.1589879198642426
0.2502392708204193
-0.01720913887434623
-0.2960927465537592
-0.3125096598713192
0.356222469066814
-0.04371280715167357
0.7912642483247549
-0.6286149472243653
-0.03036757500306905
0.4994604982991466
0.2854600309697606
-0.5247327285913433
0.5774450900818749
-0.5774450900813448
-0.2897831294069437
-0.5865096177700301
-0.2955359144544962
-0.5865096179186157
-0.5966889755814515
-0.8384782296228277
0.1699400261485068
-0.6012568716785431
0.8212014632894488
-0.003307795742499277
0.1184519673728867
0.4814097286554275
0.09676239224312078
0.1857539637802688
-0.03625300326188439
-0.1495009595523389
-0.02903492987909642
0.590256151156712
-0.9424379315281075
0.4190646038350783
-0.005906416892546695
0.0005500217444048721
0.005356395642211936
-0.644121032903048
-0.1321272053313028
-0.4665451636184274
0.5987380112282547
-0.5035238188358582
-0.3169334995298452
-0.2577321505023731
-0.2722620539038594
-0.1115342100787861
0.1115342104901118
0.1535976776588159
0.05807295069144757
0.1969630707594308
0.4482354947948431
-0.5694653422793285
0.1029201756305171
0.253930432642941
0.4663578989867293
0.5336421016039358
0.6456936293080965
0.08261645910161144
0.001987243018916325
-0.0846037013234965
-0.2770959391420987
-0.5410810979848474
-0.545969922789778
0.1147542906020473
-0.1265990868447901
0.01184479663528345
-0.1056910284491946
-0.3854055246987212
-0.04978214034817553
0.6583247661656766
-0.4994731789293847
-0.144647853941144
-0.3263089811420506
0.2860515786956311
0.1287488138269574
-0.6123213897700424
-0.2044665748269737
-0.2628633202444971
0.001148945640479555
-0.4209604431674167
0.3225818604213505
0.09837858298585304
-0.09076878546732835
0.2917178064238189
-0.8959384652834042
-0.4574112096100073
0.6292898334502993
-0.7732051747940252
0.6684813581366987
0.3405482359031094
-0.1253328251489183
0.224392792970776
-0.09905996848094462
0.03138317642511254
-0.5861868099489415
0.02876972127715456
0.557417088448968
-0.9006238783350697
0.5476964381429178
-0.6652771078564733
-0.1024957130554128
0.1093340037402657
-0.1093340060673031
-0.3165156142419287
0.3592305756529233
0.02029930497024833
0.02197865040976227
0.06063779260002049
0.5043951681539274
0.6677753355878064
-0.7379403987886914
0.02574621398410195
0.0198568712709917
0.0008763150882257992
-0.006422918989962632
0.006422919644141907
-0.4098482818143386
0.5312934598248105
0.01570391593254077
-0.01570391582826786
-0.7926606378787125
-0.06025958142001596
0.1221306136141814
-0.4518984702186464
0.5548186438195587
0.4501787592657885
-0.4997135179039695
0.1501580196690044
-0.1501580206891068
0.04237788579077616
-0.01315451452510061
-0.04156581618939149
-0.975981624316494
0.5390913855095522
-0.4694840976821878
0.04120766434527628
0.5151552050180026
0.03048008570074381
-0.5456352909009737
-0.6163770825360223
0.1169039044597612
-0.329226443794858
0.01360095874703345
0.3156254843705892
-0.1547466242046488
-0.08055801156447455
-0.5409697846146312
-0.04521701948669235
0.1365055047940981
-0.04101221498154276
0.03841136802936482
0.08134382467386501
-0.08134382198748952
-0.527630493073281
0.4839176777655162
-0.4148327626213951
0.1612978460520856
0.6222878754477239
-0.09717683765234675
-0.005088368755216715
0.005088368660248288
0.5329940058560174
-0.07773060663404513
0.006255299450490998
0.02717150128602222
0.03478475915103462
0.6889587644381879
-0.766689371203466
-0.6606730096652953
0.6303054362573904
-0.1102535000995348
0.3138278698427761
0.7455627540861525
-0.0193550317302259
-0.2653638532605191
0.1490742565429942
-0.7446087482531997
0.4837984729547941
-0.425743919112688
-0.1012218703577905
0.003315823615733667
-0.01460976506664178
0.0248378909004843
0.4120801262125379
-0.1215994410728538
-0.3893945172774529
0.6290602409091868
0.01923623722108649
0.009034589443843159
-0.009034589409767911
-0.3533878257240086
-0.07939499484238546
-0.5603349544610599
0.5570271585672005
-0.2375736864332355
0.4647238149200719
-0.1506203254990175
0.7308033222488489
0.6697911327061332
-0.04101221575383587
-0.6169690972765529
0.5605045797386239
0.2819923046174149
-0.2773744650498461
-0.004617838368576169
0.5395366531897793
0.09344326557748542
-0.03878866595105245
0.1964065298514696
-0.1576178634772495
0.1201324921302352
-0.1201324898095057
-0.8586257849546681
0.002443412799714063
-0.1132944620520894
0.1404659622893442
-0.1315757514060377
0.1315757520418114
0.01985687765461158
-0.02444340749554031
0.6705870154264427
0.06058171847718866
-0.322722512525727
-0.06268301184203032
-0.4712949627527483
-0.04431667598029299
-0.151370361129542
0.1513703621412765
-0.04222581075027066
0.1436142404814
-0.143614241302921
0.1364401467356209
-0.1364401450774115
-0.3161261394893479
-0.1145142339326498
0.226075001914388
0.1031585604225293
0.03479325359157678
-0.8212356818314224
-0.1979080733927022
0.1699574246395246
0.02157213842825507
-0.2644276860799161
0.1261567938921006
-0.1261567946077714
-0.4143073629511942
-0.08478776921536582
0.2358377475174206
0.002766380131509233
0.04033161160967057
-0.5445885267131845
0.5781765333624598
-0.03102508147233114
-0.01120072787988926
-0.02491257460825701
0.01175805081152135
0.006543759176935067
-0.1846753800855795
0.1781316209438561
-0.1078861075276746
-0.227486991988057
-0.1444444953344351
0.1444444961945887
0.07246374266126358
-0.0724637422761209
-0.01901116062179919
-0.1085826227019527
0.1275937827506231
0.2343722512869361
-0.1833798213315385
-0.02235714205645911
0.02323344984980187
-0.1291104198328727
0.6130280991354885
-0.03907047025441272
0.4257082311910472
-0.04157106822614383
0.06461490062751118
-0.1531655489526723
0.1531655502646889
-0.6365073781861306
0.3082235340760385
-0.07911140973622091
-0.2342023271377921
0.003659187502868463
-0.1218171269178065
0.1621487393106335
0.1945485889571313
0.09653262523636374
0.09544264793746579
-0.06065788890794143
0.07311418969211321
0.04164010089650236
0.06414118555536123
0.105816243165188
-0.09982350945127642
0.2118574569147448
0.01163543812941067
-0.1152376564052264
-0.1015001337511966
0.09639890105226022
0.005101231778387004
0.01082228631715099
-0.02233483564464952
0.03738632297055564
-0.03738632291418916
0.0745894030523496
-0.0552934204391027
0.05529342068501376
-0.2243840984096339
-0.05062275428994637
0.01178180920111032
-0.1031514391868634
0.01630765600152245
0.1087783139490314
-0.1087783144265857
0.2929271724143635
-0.270870391209077
0.1629842802180912
-0.05056846134403369
-0.2203019294144842
-0.01689861807832528
0.01689861780666149
0.3675237543837254
0.2851804412659932
-0.5279358855363326
-0.09393070221120176
-0.03266838374389817
0.5288215964376688
0.2094596641682607
-0.1688312263088859
-0.3811565792065231
0.07659271504239119
-0.1472629808079206
0.1868767140283777
-0.03961373298690998
-0.06713822617506265
0.06713822587595382
0.8221554691298024
-0.5603429853118187
-0.003365484483695077
0.01418777141462634
-0.02004153943865814
-0.2872429129970794
-0.01745745096467164
-0.0128687438089743
-0.1321114915002415
-0.5722816702763655
0.5560827328924954
-0.5686189491783238
-0.006925865594197136
0.09902449602129829
-0.001795189939217914
0.01672540477759638
-0.1673045201727996
-0.3362196688334578
0.2330682295488055
-0.05408858608705758
0.03507742448844364
0.1321926215280793
0.1733924952110848
0.3416108050955793
0.2760332374241021
-0.2778284277993425
-0.06308876684491226
-0.1550502885106302
-0.2206013727454477
0.07457628367015348
-0.01043509624793277
0.2136472208022967
-0.1969218164219552
-0.08623492878899321
0.159349123273505
-0.3550047587650719
0.2081863233206438
-0.1918786673889246
0.08965427377863011
-0.4790487870323876
0.1740079714511113
0.1706192620089158
-0.2568541967661209
0.0731078069781535
-0.1947805268900125
0.1773230762887681
0.01737847255646969
0.141970650072263
-0.03958949391914377
0.06585446365274507
0.4671395426130241
0.02048770026954093
-0.0827987131004624
0.05556156222958649
0.1258561931280849
-0.2602151067296329
-0.2309508796774485
0.5597175245374885
0.1570565393761992
0.07878120959867045
0.07495163686862706
-0.03107407845202935
-0.001107356761581672
-0.00351047388894248
-0.03260253231796929
0.1707412802351692
-0.1776671462133952
-0.05796082469336505
0.01986797081757375
-0.1470575464137918
-0.05280988367071818
0.1538966213325734
0.2770547966923934
-0.04060834337380035
0.0106506966013071
-0.2551735307451525
-0.1311807618050367
0.2361897043410602
0.178694819000825
0.1295287127956218
0.02176854794465578
0.08852331035720894
0.05221357248030051
0.4521815957008389
0.01673667558907439
0.09786627432932637
0.04303762878096248
0.07225787630497528
-0.1152955040740115
-0.2427554414864954
-0.2004633725415519
-0.01983855932348413
-0.2019939871976521
0.2750120851444519
)
;

boundaryField
{
    FrontBack
    {
        type            empty;
    }
    Top
    {
        type            calculated;
        value           uniform 0;
    }
    In
    {
        type            calculated;
        value           uniform -1;
    }
    Bottom
    {
        type            calculated;
        value           uniform 0;
    }
    Out
    {
        type            calculated;
        value           nonuniform List<scalar> 10(1.036136476115752 1.064354986725616 1.022583249054772 1.021458696871752 0.9963910079221899 1.012878333481151 1.034042144828072 1.062881540979333 0.8672282236388138 0.8820455322381719);
    }
    circle
    {
        type            calculated;
        value           uniform 0;
    }
}


// ************************************************************************* //
