/*--------------------------------*- C++ -*----------------------------------*\
| =========                 |                                                 |
| \\      /  F ield         | OpenFOAM: The Open Source CFD Toolbox           |
|  \\    /   O peration     | Version:  2412                                  |
|   \\  /    A nd           | Website:  www.openfoam.com                      |
|    \\/     M anipulation  |                                                 |
\*---------------------------------------------------------------------------*/
FoamFile
{
    version     2.0;
    format      ascii;
    arch        "LSB;label=32;scalar=64";
    class       volScalarField;
    location    "48";
    object      p;
}
// * * * * * * * * * * * * * * * * * * * * * * * * * * * * * * * * * * * * * //

dimensions      [0 2 -2 0 0 0 0];

internalField   nonuniform List<scalar> 
808
(
0.12838
0.0414048
-0.024879
0.12728
-0.251787
0.0399962
0.0380844
0.0315984
-0.126674
-0.00101563
0.00847876
-0.151696
0.0286376
0.0362814
-0.337332
0.022043
-0.380873
0.0323152
0.032657
0.0336009
0.0297878
0.372123
0.078786
0.0130575
0.451443
-0.177174
-0.0587592
0.0136034
0.0455968
0.032155
0.0292363
0.0398253
0.035562
0.0269556
-0.0456766
0.620857
0.0349016
0.0374774
0.0406311
0.0268555
-0.0193241
-0.0540549
0.0479598
0.0354542
-0.194542
0.0950238
0.0389686
0.00258085
0.0332651
-0.161346
0.0380962
0.0317722
0.0555123
0.0257811
-0.0887063
0.0307604
0.0132053
0.0175393
-0.00564045
0.0314531
-0.374082
0.0018007
0.04459
-0.121787
0.0307495
0.0569541
-0.232282
0.0261278
0.0270124
-0.309759
0.0370384
-0.356299
0.0371147
0.0411537
0.175651
0.0392689
0.0260614
-0.0873923
0.0323572
0.30786
-0.12288
0.0326573
0.0495602
0.269965
0.0477941
0.00739013
-0.396259
-0.111817
0.0463952
-0.224967
0.0552113
-0.0876356
0.252968
0.160844
0.048804
-0.12732
0.0189511
-0.138799
-0.0825535
-0.146078
0.0359601
0.0305301
0.0576636
0.0149075
-0.0165381
0.0671953
-0.239912
-0.00319754
0.0347539
0.0229381
-0.0203218
0.325253
0.0384562
0.0454744
0.0303278
0.444769
0.0377062
-0.291659
0.0329485
0.0728818
-0.206581
0.0515582
0.0369803
0.0726785
0.113104
-0.0557696
0.113949
0.0331777
0.0433386
0.0749656
-0.233274
0.0307344
-0.0109832
0.121304
0.0352341
0.0338136
0.0755982
0.0297096
0.0433777
0.0344507
-0.30713
0.0584976
0.0102314
0.0362982
-0.0345338
0.0838585
0.106913
0.161379
0.0340975
0.0306083
0.0372884
0.337346
0.0509796
0.530556
-0.328861
-0.099925
0.0366744
-0.22657
0.0622158
-0.116306
-0.343754
-0.3089
-0.29399
0.0423419
0.0701455
0.0345118
0.0443413
-0.30746
0.0356127
0.032514
0.0564689
0.159784
0.0393974
0.11431
0.0410272
0.0813425
0.0771825
-0.135625
0.0412684
-0.392571
0.0318835
-0.149836
0.039253
0.260573
-0.437733
0.123441
0.0337783
-0.0804988
0.0394267
-0.0483097
-0.322618
-0.0223773
0.03328
0.0898594
0.040805
-0.298019
0.0349033
0.0365549
0.00127028
0.083669
0.0807314
0.0307301
0.0343735
-0.380631
0.369107
-0.278295
-0.332609
0.0147317
-0.0430791
0.0386278
-0.0306207
-0.457197
-0.145235
0.0377498
-0.0689257
0.0377618
-0.36846
-0.048534
-0.0471875
0.0417114
-0.0523603
-0.096949
0.0374152
0.0336748
0.0125719
0.0364936
0.130542
-0.17025
0.00970949
0.0352666
0.12139
0.0334784
0.0352477
0.0276078
-0.117285
-0.0284666
0.0117367
-0.00568237
-0.0406183
0.0167468
-0.0152487
-0.0108251
-0.0333211
0.00785647
-0.000774904
0.0107044
-0.00514799
-0.00352023
-0.019656
0.0997978
-0.350096
0.0215773
0.0290403
-0.0208126
0.0292909
0.0279018
0.0431816
0.00227886
0.0341065
0.126677
0.0569303
-0.0120717
0.0217991
-0.0288522
0.0217127
0.028965
0.0222603
0.0667393
0.0137916
-0.0188749
-0.060902
-0.45527
0.27062
0.0447475
0.00414937
0.0289962
0.0069431
0.0279066
-0.0698239
0.267074
0.0442899
-0.0519237
-0.0370065
0.0980229
-0.114446
0.0401294
0.0112615
0.00456833
-0.00049794
0.0290341
0.0420065
0.0365249
-0.000543517
-0.00964027
0.0163405
0.0296141
-0.0303878
0.0615269
0.0570573
0.0218028
0.0111254
0.032255
-0.0323761
0.0216748
-0.53701
-0.0908191
-0.00641943
-0.107665
-0.149289
-0.423269
0.066597
0.0391639
-0.334213
0.134652
0.158504
0.0401014
0.0431887
0.0238875
0.00913474
-0.240109
0.0698681
0.00917634
0.0420479
0.0335868
-0.00855709
0.0540647
-0.0232271
0.0308575
0.00277418
-0.318704
-0.182358
0.0194801
-0.100194
-0.0301384
0.0276117
0.230206
0.0500428
-0.11962
0.541707
-0.0557435
0.0117191
0.0432778
-0.00928082
-0.0476298
-0.0220172
0.0494801
0.0582706
0.0635303
-0.0246538
-0.263737
-0.0328951
0.108356
-0.00749087
-0.315424
-0.337992
-0.224457
-0.337577
-0.083046
0.0441675
0.0572205
0.0802777
0.00629238
0.0173628
0.0571618
0.0204509
-0.535208
-0.102122
0.052388
0.0177904
-0.0311758
-0.060949
0.0059898
0.121037
-0.378099
-0.0231665
-0.00888714
-0.0275504
0.00965335
-0.321954
0.0267534
-0.321582
0.0213719
-0.00736645
0.0175663
0.035067
0.0363275
0.0312851
-0.392004
0.027733
0.0558728
0.0154802
0.0957252
0.0237116
0.0408097
0.0495339
0.0180723
0.103643
0.0407542
0.0233441
0.034731
-0.0137883
-0.147214
0.060637
-0.0186764
-0.0312381
0.0198934
0.419421
-0.17305
-0.0168607
-0.0416648
0.0277395
0.022644
0.0426798
0.105838
0.0160288
-0.084524
-0.0137915
0.0382668
-0.000823585
-0.00411207
-0.00902389
-0.00834995
0.0237501
0.122208
0.0309915
0.0201723
0.0285138
0.0186441
-0.012832
0.0434218
-0.397799
0.0592504
0.0694831
-0.0180042
-0.205793
-0.329012
0.0175966
-0.0915729
-0.0449182
0.0475237
-0.218486
-0.214394
0.200844
-0.371584
-0.483752
-0.0667293
-0.189716
-0.057562
-0.205416
0.346624
0.0333558
-0.333724
0.0277024
-0.021611
0.576239
0.0307799
0.0231624
0.0437796
0.083787
0.0154382
-0.434083
-0.317863
0.0649455
0.0739784
0.0316981
-0.278339
-0.336602
-0.254974
0.0423409
0.0824551
0.0998899
0.0132239
0.0622441
0.0853369
0.125157
0.0432563
-0.0723966
-0.297231
0.0743519
-0.044018
0.0406747
0.0148513
0.0898352
-0.0461782
0.00877587
-0.513884
0.445852
-0.0477569
-0.324169
0.0123845
-0.0481368
-0.323797
-0.316594
0.127387
-0.378172
-0.0530606
0.86516
0.0312766
-0.414173
0.0316152
-0.114806
-0.00791595
-0.472229
-0.367997
-0.33056
0.0311119
-0.0228264
-0.415295
0.00223814
-0.00385529
0.0927959
-0.362711
0.033275
-0.539854
-0.332164
-0.396086
-0.159928
-0.0683531
0.0218385
0.112527
0.129825
-0.00282258
-0.313597
0.303895
0.0403672
0.0150942
-0.489632
-0.5403
-0.37766
-0.00312587
-0.40078
0.0312999
0.145316
0.136864
-0.0241897
-0.237182
0.0123137
-0.326502
-0.304795
0.00948149
0.0247142
-0.256457
0.00673257
0.0379139
-0.420532
-0.338166
-0.0255506
0.101396
0.0477373
-0.367052
-0.319607
0.0124535
-0.118409
0.042798
0.104293
0.0213712
-0.0880932
-0.297232
0.10212
0.0500391
-0.0677697
0.0289641
0.069625
-0.337094
-0.00464444
-0.267751
0.0778888
-0.531257
0.0326116
0.000894692
-0.374469
-0.470161
0.00892893
-0.49154
-0.503952
0.0310737
-0.101837
-0.318364
0.0307304
-0.31446
0.027089
0.0774316
0.0738974
-0.522104
0.072825
0.0133948
-0.47847
-0.0143093
-0.350673
0.0361828
-0.319293
-0.527951
0.0956815
0.26546
0.437994
-0.0417998
0.00659597
0.00047976
-0.395314
0.642063
0.0345529
-0.229822
0.0426072
-0.0665472
0.084056
0.479225
-0.377858
-0.0221133
-0.033392
0.0295789
0.0325379
-0.466455
-0.312621
-0.324589
-0.428487
-0.28544
0.0237126
-0.368135
-0.00248771
-0.273967
-0.341542
0.492763
0.579322
-0.358498
0.103016
-0.31621
0.0059842
-0.213966
0.386361
-0.112301
-0.364443
-0.200488
-0.530894
-0.015739
-0.205916
-0.0336971
-0.314493
-0.275396
0.00425068
0.00471804
-0.378868
0.452354
0.671707
-0.352643
-0.321629
-0.369625
-0.0480507
-0.30652
-0.320603
-0.205528
-0.364671
0.742808
-0.343878
0.751275
-0.449094
0.32313
-0.350176
0.0151341
0.17094
-0.516972
0.229754
-0.284445
-0.3172
-0.347301
0.867924
-0.315687
0.209622
0.144877
0.645355
0.126655
-0.466866
-0.292501
-0.02308
0.0151511
0.0677737
0.530655
0.0248756
-0.0139094
-0.315512
0.0931615
-0.13579
-0.148949
0.0185566
-0.521303
-0.161663
-0.183772
-0.422135
0.0216805
0.111302
0.0226496
0.0807542
0.107603
-0.336166
-0.383288
-0.0463899
0.0182103
-0.488291
-0.532613
0.156932
0.193376
0.101703
0.659252
-0.0938024
-0.435112
-0.402327
-0.298865
-0.071774
0.0732113
0.758768
-0.469903
0.37575
0.020267
-0.44287
0.156318
-0.0977278
0.381647
-0.16131
0.0294008
-0.390025
-0.0837724
0.194833
0.819195
0.33038
0.752919
-0.321719
-0.288743
-0.464641
0.156118
0.270311
0.0688625
0.37269
0.13897
0.495021
0.266936
-0.0871943
-0.205729
0.0169948
-0.491893
0.883882
0.406888
0.636051
0.510356
-0.288172
-0.335578
-0.31633
-0.327769
0.0560998
-0.425981
0.0983541
0.591672
-0.369098
0.0285637
-0.321764
0.187005
-0.326839
-0.378158
-0.0381742
-0.284381
-0.432217
-0.361979
-0.396882
-0.0251582
-0.471498
-0.143877
-0.354482
0.146387
0.662183
-0.227255
-0.377811
0.820826
-0.377399
0.280761
-0.243076
0.395808
0.0971676
-0.276359
-0.412466
0.429092
-0.293181
-0.336102
0.182864
-0.293329
0.0163608
-0.305232
-0.137831
0.00636548
0.569422
0.780251
-0.309907
0.224343
-0.420842
0.820606
0.0214671
-0.321824
0.0139931
0.766994
0.210638
-0.331387
-0.313706
0.453062
-0.217352
0.0326544
0.337718
0.257753
0.291738
-0.260008
-0.349452
0.686639
)
;

boundaryField
{
    FrontBack
    {
        type            empty;
    }
    Top
    {
        type            zeroGradient;
    }
    In
    {
        type            zeroGradient;
    }
    Bottom
    {
        type            zeroGradient;
    }
    Out
    {
        type            fixedValue;
        value           uniform 0;
    }
    circle
    {
        type            zeroGradient;
    }
}


// ************************************************************************* //
