/*--------------------------------*- C++ -*----------------------------------*\
| =========                 |                                                 |
| \\      /  F ield         | OpenFOAM: The Open Source CFD Toolbox           |
|  \\    /   O peration     | Version:  2412                                  |
|   \\  /    A nd           | Website:  www.openfoam.com                      |
|    \\/     M anipulation  |                                                 |
\*---------------------------------------------------------------------------*/
FoamFile
{
    version     2.0;
    format      ascii;
    arch        "LSB;label=32;scalar=64";
    class       surfaceScalarField;
    location    "48";
    object      phi;
}
// * * * * * * * * * * * * * * * * * * * * * * * * * * * * * * * * * * * * * //

dimensions      [0 3 -1 0 0 0 0];

oriented        oriented;

internalField   nonuniform List<scalar> 
1171
(
-0.945302
0.945302
0.758044
-1.05471
0.296669
-0.148196
-0.850874
0.99907
0.0546979
-0.076694
-0.270192
0.346886
-0.758044
0.0691113
0.688932
0.881572
-0.182664
-0.698908
0.817693
-1.02874
0.211052
-0.341997
-0.0487807
0.390778
-0.00803543
0.593403
-0.585367
-0.662023
1.08339
-0.421366
-0.418691
0.981
-0.163307
0.304794
0.0811647
-0.385959
0.981014
-1.34398e-05
0.386547
-0.0817529
0.996423
-0.0154092
0.776248
-0.924444
-0.778614
0.606653
0.171961
0.20191
-0.863933
0.557823
-0.914899
0.357077
-1.07759
0.662859
0.414735
-0.639526
0.631491
0.0372279
-0.259608
0.22238
-0.00231362
-0.652796
0.655109
0.454616
-0.503397
-0.872869
0.926878
-0.0540092
1.03589
-0.0394636
0.928819
-1.08887
0.16005
1.05788
-0.0219969
-0.694043
-0.0845704
1.27527
-0.869387
-0.40588
0.185015
-0.0790491
-0.391705
0.470754
-0.27695
0.182097
0.0948527
-0.587219
-0.467494
0.991264
-0.0624449
-0.0188479
0.852683
-0.833835
0.506582
0.768685
0.514354
0.0118809
0.442736
-0.773357
-0.114069
0.887426
0.606997
0.247634
-0.854631
-0.07185
0.715602
-0.643752
-0.506069
-0.571526
-0.390687
-0.698181
0.0155065
0.249811
-0.265318
-0.93828
-0.0359355
0.974215
0.357977
0.0328001
0.84981
0.0317621
-0.593476
-0.0460498
0.0486019
-0.821959
0.149653
0.987078
-1.13673
-0.406617
0.0180717
0.388545
-0.713134
-0.225146
-0.806143
0.955797
0.646816
0.436573
-0.573486
0.991907
-0.815558
-0.176349
0.102692
-0.129163
0.0264704
-0.448057
-0.0553405
-0.341882
0.988698
0.00999781
0.404205
-0.414203
-0.529894
1.13689
0.698139
-0.812208
0.366075
-0.0432838
-0.322791
0.780703
-0.780703
-0.95126
0.0495119
-0.319703
-0.684824
0.665976
-0.0457346
-0.147337
0.193072
0.867196
-0.0145124
1.05758
-0.809942
0.216382
-0.316033
0.0996514
0.956958
-0.107148
-0.670464
-0.0560623
0.726526
0.152026
-0.236534
0.0845078
0.797944
-0.980608
-0.445521
0.312334
0.133187
0.65469
-0.657003
0.889463
-0.402966
-0.486498
0.498776
-0.695562
0.0384336
0.657129
0.102327
0.661793
0.0394229
-0.701216
0.14549
-0.0959777
-0.51876
0.112143
0.0354571
-0.898454
0.862997
-0.571631
-0.752772
0.0587288
0.485837
-0.0431013
0.27352
-0.832277
0.558757
0.424157
0.575843
0.60045
-0.551849
-0.376073
0.0134309
0.362642
0.551746
0.228957
-0.700461
0.628611
0.0941322
0.867055
0.00595641
-0.67642
-0.762438
0.797895
0.605731
0.129231
0.314734
-0.443965
-0.1591
0.54409
0.171513
0.701579
-0.944872
0.243292
0.652371
0.339537
-0.43255
0.7058
-0.576569
0.408293
0.14953
-0.0607632
-0.564929
-0.262786
0.827714
-0.121877
-0.658826
-0.615868
0.367856
0.248012
0.657089
-0.651133
0.301151
1.04433
0.0132433
-0.762438
-0.0111876
0.11388
0.698139
0.781523
-0.781523
0.839725
-0.824667
-0.0150581
-0.457167
0.881324
-0.194723
-0.324037
0.759711
-0.669768
-0.089943
-0.902741
0.337812
0.113867
-0.707343
0.812208
-0.971307
-0.211282
0.143353
0.0679291
0.108333
-0.995784
0.88745
0.532019
-0.0176651
-0.294378
0.598697
-0.304319
-0.65214
0.760473
-0.158469
0.713967
-0.626393
-0.0875736
0.986312
-0.52516
-0.461152
0.720759
-0.0697677
-0.0404684
0.0376492
0.00281917
-0.798822
-0.629127
-0.221746
-0.684824
0.576918
-0.558846
0.208293
0.526994
-0.735287
0.777496
0.167806
0.494459
0.505541
-0.137184
-0.607091
0.744276
0.820567
-0.118988
-0.720759
0.797895
0.179495
-0.439103
0.0186778
-0.0434444
0.0247666
0.680582
-0.449115
-0.231467
0.688932
0.0113572
0.0848397
0.546895
0.133687
-0.00208071
0.0048553
-0.00277458
-0.00336938
-0.037099
0.176071
-0.219355
-0.939991
0.0485496
-0.142096
-0.0352115
0.14038
0.795009
0.743567
-0.167723
0.504036
-0.295743
-0.167871
0.384253
0.638897
0.0500358
0.233609
-1.05828
-0.971307
0.314876
0.665976
-0.170873
0.0235361
-0.843559
0.981572
-0.138013
0.490357
-0.101812
0.793229
0.304438
0.358939
0.0276082
-0.680462
0.680462
0.234454
0.652972
-0.0241074
0.428313
0.446646
0.0696803
-0.0510025
0.537146
-0.00512718
-0.65214
0.565213
0.194498
0.0256236
0.0120256
-0.638897
0.141295
0.840277
-0.0102001
-0.717109
0.727309
0.756593
-0.824443
0.0678503
-0.777496
-0.0503505
0.0659315
-0.015581
0.0851006
-0.130907
-0.11085
0.241757
-0.0131897
0.011109
0.712514
-0.722714
0.930274
0.0687955
-0.314954
-0.673811
0.988765
0.00178187
-0.00178187
0.156784
0.431992
0.621581
-1.05357
-0.179478
-0.56181
0.741288
-0.0117289
0.204801
0.389007
-0.236981
1.1505
-0.718512
0.850685
1.01257
-0.390986
0.194284
0.760473
0.597166
0.261587
0.665292
-0.658826
0.319538
0.0476078
0.0176366
-0.0652444
0.806832
0.27299
-1.07982
-0.581757
0.55976
0.542833
-0.581757
-0.597166
0.55976
-0.0457713
1.10579
-0.175519
-0.551746
0.477138
0.0746075
0.524948
0.723717
-1.24866
0.352581
0.797922
0.800553
0.425496
-1.22605
0.294581
0.717986
0.477138
-0.533831
-0.60337
-0.595642
-0.237622
-0.0993992
-0.00437105
0.00437105
0.382942
0.629003
-0.866625
0.680258
-0.365524
-0.946435
0.421275
-0.687681
0.462536
-0.0214298
-0.801939
0.823368
0.449188
-0.128022
0.934854
-1.1211
-0.961128
0.137274
0.823854
0.635839
-0.264458
-0.371382
0.805763
-0.868208
1.11453
-0.788968
-0.32556
-0.233953
-0.710919
-0.164184
0.750552
-0.586368
-1.11386
0.879909
-0.453918
0.754505
-0.300587
-0.852316
0.0757724
0.776543
0.0060867
-0.00430483
0.423049
0.0065697
-0.958287
0.951717
-0.748385
0.6112
0.944701
0.260252
-1.20495
-0.0164276
-0.0100372
0.372679
-0.358665
0.042632
0.880817
-0.902247
-0.78352
-1.02873
0.317808
-0.0630017
-0.905915
0.116947
0.541492
-0.0374558
0.377769
0.25807
-0.688252
0.764024
0.486498
-0.929961
-0.85361
0.252184
0.250761
0.563762
-0.814524
-0.0825461
-0.532759
0.581461
0.175132
0.124489
0.810365
1.01718
0.99775
-0.880803
0.0498977
-0.0498977
-0.110108
-0.456347
0.191889
0.320071
-0.00519481
0.370296
0.727819
-0.0315402
0.0183505
0.657157
0.342843
0.798897
-0.587219
-0.759906
-0.541534
-0.505751
0.505751
-0.204017
-0.115687
0.732977
-0.897363
0.164386
-0.538147
-0.548546
0.339572
-1.03775
-0.931117
0.605557
-0.560726
0.878534
0.699431
0.131066
-0.830497
-0.842121
-0.173297
0.801485
-0.628187
0.203298
-0.0225715
0.00491106
0.0176604
-0.246299
-0.210048
1.07255
0.843363
-0.475291
-0.368072
0.471982
0.73184
-0.497386
0.00888014
-0.28583
0.0508536
0.794476
-0.845329
-0.338322
-0.119774
0.127803
-1.01002
-0.0698061
-0.766297
0.0348621
0.714466
-0.749329
-0.790363
0.0240665
0.64208
-0.761853
0.238956
-0.369863
-0.621088
-0.221033
0.375255
0.717139
-0.0113397
0.0103524
-0.0103524
0.000484249
0.0969754
-0.0493676
-0.021714
-0.00982618
-0.658544
0.305386
0.848933
-0.746228
-0.102704
-0.62759
0.662452
0.732166
-0.0900865
-0.649357
-0.141006
-1.13379
0.0203049
0.0295928
-0.60769
-0.81354
-0.918981
0.513101
-0.108955
0.0628198
0.0461351
-0.32951
-0.27818
0.429581
0.711855
-0.059024
0.0238124
1.23105
0.521057
0.205815
-0.726872
-0.561319
0.231809
-0.0164196
-0.00615187
0.646067
-0.908853
0.00532408
-0.00532408
-0.737366
0.698767
0.0385983
-0.18355
-0.113218
-0.683939
0.197719
0.546557
-0.0620794
-0.857236
-0.287556
0.0918753
0.195681
0.616566
-0.71927
0.348145
0.263307
-0.611452
-0.167473
-0.646752
-0.102577
-0.216308
-0.0898375
0.459619
-0.51496
0.210085
0.707723
-0.917808
0.498776
-0.0726258
-0.0363291
0.427323
-0.51716
0.598299
-0.0922602
-0.506039
-0.285131
0.303065
-0.0179344
0.619919
0.0603395
0.0854145
-0.308828
0.165079
0.14375
-0.206147
0.19496
-0.270253
-0.221176
0.0506176
0.170558
0.780879
-0.347789
0.164239
0.54692
0.254211
-0.729502
0.435916
-0.435916
-0.219985
-0.411457
-0.225754
-0.411457
-0.691852
-0.848383
0.178615
-0.1559
0.735539
0.0394528
0.11511
0.602029
0.110921
0.124889
0.0055199
-0.130409
-0.0640251
0.651152
-0.962348
0.288537
-0.0951875
0.102166
-0.00697813
-0.718274
-0.16888
-0.623364
0.829179
-0.525111
-0.140187
-0.376974
-0.327986
-0.0830505
0.0830505
0.0544452
0.0114862
0.145194
0.257779
-0.735029
0.111665
-0.0775509
0.469233
0.530767
0.696615
0.0513238
-0.0353774
-0.0159464
-0.296399
-0.560837
-0.64342
0.111667
-0.117314
0.00564699
-0.122581
-0.416297
-0.0690252
0.615582
-0.547272
-0.171002
-0.26935
0.0953039
0.241346
-0.573923
-0.198497
-0.210766
-0.00858879
-0.497846
0.437944
0.0599016
-0.247367
0.290845
-0.862371
-0.529255
0.551557
-0.848103
0.68063
0.418276
-0.0332363
0.0596422
-0.026406
-0.0568186
-0.638386
0.0139226
0.624464
-0.89047
0.627368
-0.737476
-0.356791
0.0104124
-0.0104124
-0.299948
0.391593
-0.0189138
0.0532546
-0.00193087
0.594391
0.765036
-0.521744
0.00981027
0.00960292
0.000749491
0.00508568
-0.00508568
-0.488033
0.548373
0.01238
-0.01238
-0.763893
-0.0131002
0.0191869
-0.577778
0.689442
0.64853
-0.609931
0.071906
-0.071906
-0.0792578
0.0282553
-0.00596517
-0.898195
0.437043
-0.441898
-0.00430483
0.577785
0.0304378
-0.608223
-0.697091
0.149819
-0.319311
-0.0141197
0.333431
-0.0458565
-0.0131675
-0.600368
-0.0380184
0.0295928
0.00586558
-0.000541503
-0.00380705
0.00380705
-0.228375
0.398933
-0.455273
0.140676
0.65822
-0.124843
-0.00544136
0.00544136
0.507666
-0.315853
0.00863052
0.0191804
0.000780853
0.493941
-0.809794
-0.494738
0.658977
-0.0503054
0.333951
0.752257
0.000484249
-0.103913
0.115939
-0.642501
0.550177
-0.439975
-0.119306
-0.0189071
-0.0253836
-0.0570914
0.441519
-0.0913429
-0.414696
0.666117
-0.000714634
0.00677758
-0.00677758
-0.0915396
0.0294048
-0.575205
0.614657
-0.144087
0.507354
-0.204341
0.980589
0.675219
0.00586558
-0.867371
0.760059
0.167516
-0.135976
-0.0315404
0.41161
0.0942937
-0.0127348
0.0697983
-0.0570635
0.00892774
-0.00892774
-0.768531
0.0220083
-0.0492162
0.0683966
-0.0886856
0.0886856
0.00960292
-0.00495711
0.691195
0.149082
-0.319847
-0.0964504
-0.512845
-0.101833
-0.0685623
0.0685623
-0.0952042
0.0827759
-0.0827759
0.0274054
-0.0274054
-0.349354
-0.0831962
0.24318
0.069154
0.041222
-0.759585
-0.0751796
0.164145
0.0153507
-0.25889
0.0816044
-0.0816044
-0.459527
-0.0554327
0.236496
-0.0141167
0.00205853
-0.612034
0.657806
-0.0716481
-0.023556
0.0948168
-0.0665616
-0.0108699
-0.158594
0.169463
-0.153593
-0.216269
-0.0834779
0.0834779
0.0569644
-0.0569644
-0.0314731
-0.0954897
0.126963
0.013551
-0.185479
-0.0274707
0.0282202
-0.179188
0.57812
-0.0260861
0.510255
0.0042264
-0.00700098
-0.0526162
0.0526162
-0.723553
0.324675
-0.130391
-0.212711
-0.0238229
-0.0179049
0.0199634
0.210119
0.0316384
0.00438684
-0.00360598
0.0815437
0.0301232
0.0545383
0.109606
0.0106098
0.0132026
0.0014535
0.000783654
0.00698407
0.00981318
-0.0167973
0.00282535
0.00351177
0.0294822
-0.0294822
0.0518935
-0.0409742
0.0409742
-0.193587
-0.00621733
0.0162412
-0.0761318
0.0184777
0.0767444
-0.0767444
0.27002
-0.245787
0.0921932
-0.0691798
-0.176607
-0.0180145
0.0180145
0.402047
0.255082
-0.517225
-0.0819839
-0.03533
0.542723
0.108368
-0.0722746
-0.41583
0.0930375
-0.157358
0.174061
-0.0167035
-0.0466212
0.0466212
0.845295
-0.59575
-0.0158878
0.0187131
-0.00563507
-0.284567
-0.00117152
0.00520773
-0.0516435
-0.616692
0.568277
-0.671581
0.0149156
0.219248
0.0159461
0.0252107
-0.162993
-0.335658
0.259526
-0.0589553
0.0274822
0.165631
0.137434
0.268463
0.270816
-0.25487
0.00644257
-0.118935
-0.226831
0.070423
-0.0158847
0.165636
-0.140425
-0.069976
0.15152
-0.408274
0.126243
-0.107766
0.0603206
-0.475017
0.179269
0.173887
-0.243863
0.00789861
-0.177699
0.176528
0.00486
0.14666
-0.0285941
0.0519365
0.45573
0.0114677
0.0253272
-0.0126324
0.043013
-0.243534
-0.202471
0.589867
0.17438
0.0621164
0.0820262
-0.0610629
-0.0120481
-0.0194923
-0.0303945
0.170362
-0.155446
-0.0317641
0.0123324
-0.108401
-0.0310397
-0.0185615
0.254438
0.00244594
-0.0786096
-0.318081
-0.0193849
0.216519
0.144394
0.180281
0.0578703
0.100877
0.0612745
0.533117
-0.0153438
0.100114
0.0462793
0.0639242
-0.110203
-0.262143
-0.202264
0.0256573
-0.220578
0.292424
)
;

boundaryField
{
    FrontBack
    {
        type            empty;
    }
    Top
    {
        type            calculated;
        value           uniform 0;
    }
    In
    {
        type            calculated;
        value           uniform -1;
    }
    Bottom
    {
        type            calculated;
        value           uniform 0;
    }
    Out
    {
        type            calculated;
        value           nonuniform List<scalar> 10(1.15313 1.05878 1.19901 1.0925 1.14921 0.955608 1.01194 1.08669 0.655901 0.637211);
    }
    circle
    {
        type            calculated;
        value           uniform 0;
    }
}


// ************************************************************************* //
