/*--------------------------------*- C++ -*----------------------------------*\
| =========                 |                                                 |
| \\      /  F ield         | OpenFOAM: The Open Source CFD Toolbox           |
|  \\    /   O peration     | Version:  2412                                  |
|   \\  /    A nd           | Website:  www.openfoam.com                      |
|    \\/     M anipulation  |                                                 |
\*---------------------------------------------------------------------------*/
FoamFile
{
    version     2.0;
    format      ascii;
    arch        "LSB;label=32;scalar=64";
    class       volVectorField;
    location    "48";
    object      U;
}
// * * * * * * * * * * * * * * * * * * * * * * * * * * * * * * * * * * * * * //

dimensions      [0 1 -1 0 0 0 0];

internalField   nonuniform List<vector> 
808
(
(0.897428 -0.0105408 0)
(0.996268 -0.0365049 0)
(1.16855 -0.137369 0)
(1.06596 0.0104502 -2.67972e-21)
(1.46635 -0.247083 0)
(0.946591 -0.0264973 0)
(1.10558 -0.0174894 -8.18057e-21)
(1.10248 -0.0253483 0)
(1.32992 -0.191056 2.44366e-20)
(1.20567 -0.0661815 -9.62124e-22)
(1.32166 -0.0164787 3.99377e-21)
(1.36716 -0.207625 0)
(0.965177 -0.0250679 0)
(0.718778 -0.0148833 0)
(1.18071 -0.0266957 2.28523e-20)
(1.05798 -0.00284026 0)
(1.03574 0.0486631 -8.86885e-21)
(0.966856 0.00156409 -1.5667e-22)
(1.33329 -0.0376316 0)
(1.10878 0.000495028 0)
(1.31292 0.00846891 -5.57306e-21)
(0.923364 0.131407 1.07731e-19)
(1.07038 0.00192485 -1.47104e-20)
(1.16336 -0.0396221 0)
(0.972117 0.197138 0)
(1.35879 -0.0286214 -3.38016e-20)
(1.2614 -0.145223 7.35232e-21)
(1.01309 -0.0294451 -8.19479e-21)
(1.08272 -0.00927825 0)
(1.06172 0.0290342 -2.8975e-22)
(1.02165 -0.025638 8.91822e-24)
(1.11208 -0.0124921 0)
(1.04687 0.0612273 0)
(1.11364 -0.0434246 6.62425e-21)
(1.25579 -0.0527097 3.73886e-21)
(0.748758 -0.0991746 1.10264e-19)
(0.849521 -0.0253186 -1.41598e-20)
(1.04501 0.0574324 1.18679e-21)
(1.16335 0.045184 -5.79946e-21)
(1.10723 0.0336126 0)
(1.22987 -0.0695678 -5.41984e-21)
(1.2555 -0.108365 0)
(0.994852 -0.0221698 -9.76246e-21)
(1.16292 -0.0265035 1.12324e-20)
(1.26364 -0.295377 0)
(1.00965 0.0166184 -2.02091e-20)
(1.01173 0.0419565 3.31687e-21)
(1.24059 -0.216991 8.75413e-21)
(1.15974 0.055856 -1.15014e-20)
(1.37568 -0.125362 -3.52974e-20)
(1.10255 0.00016622 1.41789e-20)
(1.13791 -0.0582183 0)
(1.10813 -0.00842145 8.80016e-21)
(1.23143 -0.0428804 0)
(1.33722 0.202256 4.95598e-21)
(1.06069 0.0522016 -4.353e-21)
(1.28291 -0.0417257 0)
(1.3158 -0.156747 -2.44964e-22)
(1.21434 -0.0788972 1.03282e-21)
(1.13894 0.0393796 -1.76191e-21)
(0.0589714 -0.276281 0)
(1.20667 -0.18846 -6.04101e-21)
(1.18135 -0.130718 0)
(1.35696 -0.064955 -1.97528e-20)
(1.16987 -0.0565554 -1.05446e-20)
(1.02663 -0.0291967 -1.01275e-20)
(1.32813 -0.0338892 1.86428e-20)
(0.654005 0.0110101 0)
(1.20793 -0.043492 0)
(1.45719 -0.31393 0)
(0.885201 0.021295 -3.61677e-22)
(1.29858 -0.0994047 -4.6606e-20)
(0.988399 0.0247168 0)
(1.05262 -0.0493348 -6.93655e-21)
(1.11622 -0.314755 -5.45576e-20)
(1.12982 -0.0145974 -2.08364e-20)
(1.14129 0.019878 -4.64943e-22)
(1.3512 0.503881 2.6013e-20)
(1.08234 -0.0368266 0)
(1.01483 0.2911 -1.77994e-19)
(1.34677 -0.0416229 1.62308e-20)
(0.757282 0.0087876 0)
(0.860037 0.0304013 -1.49378e-20)
(0.969621 -0.105623 4.22626e-21)
(1.13873 -0.021804 1.5996e-20)
(1.1754 0.00263192 1.43332e-22)
(1.33467 -0.20254 0)
(1.36558 0.278465 0)
(1.08326 -0.00020638 -2.17962e-20)
(1.48015 0.00887574 3.51707e-20)
(1.07541 -0.0189533 1.65879e-20)
(1.28808 -0.0917478 -1.2217e-21)
(0.966551 0.0247784 1.66762e-20)
(1.00372 -0.0294598 0)
(1.10527 -0.000938322 1.83966e-21)
(1.20718 -0.0166663 -3.07229e-20)
(0.778045 0.013876 -2.50025e-21)
(1.30889 -0.14248 0)
(1.2825 -0.0704537 0)
(1.3684 -0.00701469 -3.48834e-20)
(1.09681 -0.0145545 -7.63094e-21)
(1.11818 0.00690046 -2.59527e-22)
(0.943868 0.0251604 1.50186e-20)
(1.17293 -0.0077087 5.4662e-22)
(1.2749 -0.0143258 -4.09009e-21)
(0.996262 -0.00295669 1.44363e-20)
(1.46167 -0.184118 0)
(0.896365 0.278578 0)
(1.08471 0.0327288 1.04123e-20)
(1.19178 -0.197007 -6.73612e-21)
(1.25341 -0.02689 3.10546e-21)
(1.0421 0.042946 -1.18898e-19)
(1.15098 0.0448323 -4.49909e-21)
(1.12358 0.196419 6.94255e-21)
(0.813095 0.0236611 0)
(0.920728 -0.0414723 7.45842e-20)
(1.13737 0.0220752 -1.14694e-20)
(1.44793 -0.208553 -1.85253e-20)
(1.14212 -0.0532319 -1.00473e-20)
(0.928149 0.0122391 2.1486e-21)
(-0.157964 -0.226025 0)
(0.840373 -0.0196111 1.38535e-21)
(0.790317 0.0259644 0)
(1.05647 -0.000170387 -1.14367e-22)
(1.01766 0.0289023 0)
(1.32949 0.310158 8.51048e-21)
(1.03284 -0.0469522 -3.39312e-20)
(1.24797 0.252989 6.34094e-22)
(1.13711 -0.057987 0)
(1.08703 -0.0227636 0)
(0.64785 0.144678 0)
(1.13383 -0.0408546 -4.77603e-21)
(1.22125 -0.0373664 2.44246e-21)
(1.07459 0.110159 -3.19654e-20)
(0.843841 -0.0266661 0)
(1.09437 0.0238854 -2.81646e-21)
(0.828518 -0.167399 2.87653e-21)
(1.00553 -0.0883323 -5.01462e-21)
(0.9853 0.0353342 6.9732e-21)
(1.12144 0.00978305 2.17566e-22)
(0.0502504 0.20397 0)
(1.08676 -0.0177987 -1.82829e-20)
(0.963979 -0.254622 1.12423e-22)
(0.701466 0.0256067 -6.00261e-21)
(1.27633 0.155497 2.3068e-21)
(0.896276 0.172514 3.88079e-21)
(1.04345 0.0208107 1.909e-20)
(0.990211 0.0297884 0)
(1.07517 -0.267969 5.89594e-21)
(0.966327 0.205679 0)
(0.929412 0.0281526 1.28197e-20)
(0.969454 0.292385 1.424e-19)
(0.968147 0.0347349 0)
(0.823468 0.116751 0)
(-0.0509329 0.284237 -8.16859e-20)
(1.35246 0.102888 -1.34791e-20)
(0.681268 -0.0198681 0)
(1.50194 -0.0957347 0)
(0.928109 -0.270099 0)
(1.36678 0.0343523 1.57556e-20)
(-0.0520998 0.0163888 0)
(-0.0194965 0.248511 3.71629e-20)
(1.08187 0.0510276 8.51246e-20)
(1.00091 0.0390824 2.2693e-21)
(0.850815 -0.00543391 0)
(1.03394 -0.048978 1.44588e-20)
(0.883034 0.0225762 0)
(0.807349 0.0707423 -9.20041e-20)
(1.00978 0.0525267 1.91934e-20)
(1.16435 -0.0487572 3.15114e-21)
(1.08675 0.0147773 9.58868e-21)
(1.01646 0.0745125 -1.16941e-20)
(0.653648 0.173977 -3.86348e-21)
(1.12798 -0.330816 5.01959e-22)
(0.914714 -0.018754 0)
(1.06518 0.0055969 -1.55988e-20)
(0.87031 0.00710008 -1.14905e-20)
(1.33914 -0.120028 1.85494e-21)
(0.681877 0.0149578 0)
(1.12203 -0.111221 0)
(1.12163 -0.0783473 3.99499e-21)
(1.41378 0.200022 1.09317e-20)
(1.10674 0.0180364 7.67119e-21)
(1.03573 0.0190001 1.94627e-20)
(1.07614 -0.0411493 -1.11636e-19)
(0.813311 0.00533706 2.04747e-20)
(1.11511 -0.0171143 7.51328e-21)
(1.30277 -0.0424396 -2.47826e-21)
(1.12173 -0.0614614 -6.57317e-21)
(1.26056 -0.0400461 2.12352e-21)
(-0.0273543 0.255836 5.95516e-20)
(1.24057 -0.0527914 0)
(0.611525 -0.0179411 0)
(1.05356 -0.024341 -7.39317e-21)
(1.08995 0.0130026 1.34362e-20)
(0.221649 0.164032 0)
(0.873358 -0.0194438 6.60605e-22)
(1.09765 -0.0796038 -3.82465e-21)
(0.983475 -0.00784169 9.97863e-22)
(1.07708 0.0291138 -7.47506e-21)
(0.999744 0.0249351 2.35254e-21)
(1.03054 -0.0598555 3.37382e-21)
(1.07054 0.0286172 0)
(0.444042 0.00563497 0)
(1.05226 -0.0672473 0)
(1.22797 0.0956612 -3.04409e-20)
(-0.0818369 0.0723641 5.34491e-20)
(1.0794 -0.00523118 -1.28464e-23)
(1.20881 0.059978 0)
(0.738809 0.0259734 -1.29523e-20)
(1.20457 0.071064 -3.27095e-21)
(0.0168885 -0.0335894 -1.80368e-19)
(0.72041 0.112082 -2.14027e-20)
(0.627735 -0.0262808 0)
(1.04724 -0.0204398 0)
(0.923197 0.0125999 1.34477e-20)
(1.09566 -0.0614535 6.9622e-21)
(1.30102 0.397845 2.11285e-21)
(1.15626 -0.120133 4.94911e-22)
(1.16216 -0.162513 -3.48478e-21)
(1.04445 0.0390556 0)
(1.38545 0.424753 -4.30808e-20)
(0.645905 -0.00176976 0)
(0.805099 -0.016729 -5.07171e-21)
(1.09947 -0.0277254 -1.70911e-22)
(0.600141 0.0115247 0)
(1.1002 -0.00687746 0)
(-0.0146226 0.241217 -2.99918e-20)
(1.19044 -0.275824 9.71065e-22)
(0.75501 -0.0155078 5.03277e-21)
(0.9903 -0.006471 0)
(0.576069 -0.0131529 0)
(0.773982 -0.0151087 -5.58695e-21)
(0.55665 -0.0231323 -1.42529e-21)
(1.33387 -0.0689665 3.05922e-22)
(1.30034 0.166375 2.7802e-21)
(0.72663 0.0151531 -2.02934e-21)
(1.20232 -0.0635055 2.3297e-22)
(1.22017 -0.26017 -4.66383e-22)
(0.554359 0.0136544 5.21215e-21)
(1.27283 -0.15022 -1.21346e-21)
(1.1557 -0.185235 0)
(1.00799 -0.258175 0)
(0.516603 0.0156107 0)
(1.06166 -0.0320492 0)
(1.19484 -0.0722147 -5.20098e-21)
(1.08738 -0.264414 0)
(1.1519 -0.0881311 0)
(0.96393 -0.27876 0)
(0.895246 -0.0199239 0)
(-0.0302949 -0.0263549 5.40792e-20)
(1.09373 -0.162309 2.82714e-21)
(0.782041 -0.221564 0)
(1.28445 -0.0556808 4.16964e-21)
(1.11329 -0.0560249 2.8828e-21)
(1.10192 0.0609947 3.96063e-21)
(1.03107 -0.0221592 6.57894e-21)
(1.01572 -0.182824 0)
(0.578307 -0.0118475 1.0864e-20)
(1.05418 0.0368627 1.13737e-20)
(1.1359 -0.181557 0)
(1.28949 0.0683862 4.11769e-21)
(1.13486 0.0538257 4.4258e-21)
(0.864707 0.379429 1.14006e-20)
(1.20364 0.020108 2.71042e-21)
(1.10545 0.238124 -5.53587e-21)
(1.05808 0.28988 0)
(1.0468 0.0772573 -2.60675e-20)
(1.12781 0.18965 -2.19198e-21)
(0.708527 -0.39885 -2.60742e-21)
(1.05114 0.0564377 0)
(0.0065049 -0.0187904 0)
(0.969486 0.116705 -1.69221e-20)
(1.20406 0.00427131 0)
(1.1358 -0.114658 -2.76282e-21)
(1.17187 0.103778 4.98049e-22)
(1.18239 0.143511 5.32191e-21)
(1.04654 0.0964595 -4.02701e-21)
(1.28942 0.0111791 3.88807e-20)
(1.01276 -0.309918 5.50708e-20)
(1.05007 -0.026596 -2.84301e-22)
(0.974649 -0.0641954 0)
(1.07986 0.294458 0)
(0.906265 0.00183648 -3.2984e-20)
(1.24591 -0.322771 -4.04224e-20)
(1.05514 0.127895 0)
(0.695301 -0.0813586 4.48595e-21)
(0.703128 0.435221 0)
(0.84102 0.0464828 1.96797e-21)
(0.67615 -0.195578 -6.99106e-21)
(0.824654 0.0187659 -8.27388e-21)
(1.0004 -0.0635484 0)
(1.27451 0.241079 -5.80998e-22)
(1.22668 0.228896 -2.88863e-21)
(0.805091 -0.304907 -3.80453e-21)
(1.00266 0.0822234 -5.91556e-21)
(0.818086 -0.289067 0)
(1.0923 0.0556973 0)
(0.981614 -0.127493 1.13004e-20)
(0.825859 -0.181308 -1.988e-21)
(1.14255 0.0890029 3.7486e-21)
(1.09538 0.0715736 -6.06368e-21)
(1.08498 0.208021 -4.64281e-22)
(1.12245 0.0711955 0)
(0.446615 -0.141993 1.51647e-20)
(1.33266 0.00366934 -2.00661e-20)
(0.764986 -0.354528 2.36942e-21)
(0.607291 0.230976 -1.20539e-20)
(1.37475 -0.0841878 1.99398e-20)
(1.12424 -0.138914 1.04371e-19)
(1.0301 0.037686 -1.1607e-20)
(1.05346 0.00211342 -1.05217e-21)
(-0.11858 0.111172 -9.20153e-21)
(1.0001 -0.00706792 0)
(1.03629 -0.083818 -1.59156e-20)
(0.827059 -0.033309 1.56482e-20)
(1.09908 -0.0562869 8.23944e-21)
(0.863879 -0.360065 3.92368e-21)
(0.523833 -0.0143245 6.97218e-22)
(1.41467 -0.353673 -1.6637e-20)
(1.1478 -0.0229393 0)
(1.08304 -0.00650433 -4.806e-21)
(1.15236 0.0147282 -3.64938e-21)
(1.05849 0.267215 0)
(0.844373 0.33851 2.62287e-21)
(1.11923 0.00556461 5.44383e-21)
(0.899939 -0.339114 -5.65444e-21)
(1.09459 -0.0569877 -1.32919e-20)
(0.883231 0.179234 -5.18929e-22)
(-0.0417975 0.176301 0)
(0.737531 0.140452 5.44226e-20)
(1.22059 0.0123987 0)
(1.14404 0.35021 2.83697e-20)
(1.12403 0.385165 0)
(1.10774 -0.0355892 6.43948e-21)
(1.01314 0.0236554 0)
(0.922752 0.213858 0)
(1.33527 -0.0687066 1.29428e-20)
(0.794126 -0.0742692 0)
(1.27921 -0.095638 -1.49089e-20)
(1.16454 -0.0292789 6.74784e-22)
(1.07292 0.000264617 4.3855e-21)
(1.18439 -0.171112 -5.42905e-22)
(1.2521 0.0922972 -6.10607e-21)
(1.27406 -0.260456 -5.01979e-21)
(1.11655 -0.0560109 0)
(1.07811 -0.000867755 0)
(1.0417 -0.0209495 3.6335e-21)
(1.15834 -0.0700259 0)
(1.4779 0.204635 -2.87124e-20)
(0.966599 -0.233493 -6.26388e-21)
(1.02797 0.0100172 2.18441e-20)
(1.26347 -0.0252654 2.0592e-23)
(-0.0125091 0.0798343 0)
(-0.0351003 -0.00868891 0)
(-0.099614 0.26836 -3.8742e-20)
(-0.137333 0.0923304 0)
(0.899869 -0.10496 1.28716e-20)
(1.14794 0.022756 -4.05502e-21)
(1.14101 0.0867526 -9.67122e-21)
(1.10842 -0.000858066 -1.01767e-21)
(1.12124 -0.0622597 0)
(0.713939 -0.0246852 -3.68335e-21)
(1.05651 0.00992955 0)
(1.12824 -0.0486828 4.58516e-21)
(0.55293 -0.108098 0)
(0.907483 0.00790957 5.90094e-22)
(1.04042 0.0713797 0)
(1.21372 0.0316572 0)
(0.4626 -0.125652 4.10072e-21)
(0.705859 0.28194 4.59155e-22)
(0.756837 0.0365288 3.6944e-21)
(1.0104 0.0184667 -1.02994e-20)
(0.248371 0.0780428 0)
(1.25465 -0.227187 1.26862e-20)
(1.25791 0.0968991 8.51989e-22)
(1.29113 -0.295022 -1.63137e-22)
(0.68936 0.32949 1.10135e-22)
(-0.0643435 0.160515 -1.11375e-19)
(1.095 0.112147 0)
(-0.0291674 0.0386857 0)
(1.16047 0.147986 7.26359e-21)
(0.590154 0.493795 -1.1848e-22)
(1.20796 0.0762215 -6.46624e-21)
(1.08127 -0.0320139 0)
(1.21093 0.0293271 7.77457e-21)
(1.0998 -0.226755 -5.62875e-21)
(0.649883 0.000654063 -1.15305e-20)
(1.10761 -0.0226995 -5.13898e-21)
(1.0982 0.0089709 -8.08502e-22)
(0.23503 -0.270506 -1.96947e-21)
(1.19409 0.101233 -3.16966e-20)
(1.14123 0.035765 0)
(1.08131 0.0959487 0)
(1.0816 -0.0395213 -4.5372e-21)
(1.20634 0.0853124 -7.69977e-22)
(0.410384 -0.336964 6.61536e-21)
(1.18218 -0.0994941 -1.65509e-20)
(1.11384 0.0734691 1.02339e-20)
(0.529606 0.0038708 1.90915e-20)
(0.00349672 -0.0602891 -1.50027e-20)
(0.503929 -0.460477 4.15939e-21)
(1.18216 0.178694 -6.76148e-21)
(1.23366 -0.474478 6.58274e-21)
(1.36874 -0.017186 -3.23821e-21)
(1.10635 -0.0467108 5.37707e-21)
(0.93256 -0.220727 9.26548e-20)
(-0.115192 -0.402472 0)
(1.25449 -0.0933919 1.55773e-21)
(0.30684 -0.301335 -2.28865e-20)
(1.14062 0.146326 -6.28512e-21)
(1.06788 -0.163862 6.30311e-21)
(1.08279 0.029557 0)
(0.434001 0.27821 0)
(1.15511 -0.0443936 0)
(1.42717 0.293365 -1.0826e-20)
(1.23782 -0.0307458 -5.59585e-21)
(1.08564 -0.0240017 8.85875e-21)
(0.497199 0.0153617 0)
(0.661291 0.00750113 0)
(0.642904 -0.00299375 3.56156e-22)
(0.457085 -0.0110754 0)
(1.19401 0.143184 0)
(1.0163 -0.0121171 2.66775e-20)
(0.406066 0.265833 0)
(0.927874 0.0451555 0)
(1.20553 0.00704907 0)
(1.18431 0.16742 -4.47899e-21)
(1.26903 0.0225033 1.58353e-21)
(0.94291 -0.0304106 9.95555e-21)
(1.32614 -0.38435 -1.2168e-19)
(0.261867 -0.0614899 -6.51389e-21)
(1.06296 0.00471051 8.94676e-21)
(1.12245 0.17841 0)
(-0.00163834 -0.722823 0)
(-0.250334 0.228863 0)
(1.09932 -0.0489034 7.73378e-21)
(1.31302 -0.260815 -3.0561e-20)
(1.38592 0.0988642 0)
(1.05549 0.00704439 -1.34654e-20)
(0.704867 -0.40717 0)
(1.47448 -0.10713 7.05927e-20)
(0.423044 0.539447 1.00888e-19)
(0.375422 0.00774883 0)
(1.14142 -0.263712 1.3062e-19)
(0.139781 -0.369419 0)
(0.206916 -0.305828 -1.80048e-20)
(1.41731 0.0730921 0)
(-0.23893 0.173053 1.28699e-21)
(0.984751 -0.0527438 0)
(1.11852 -0.121938 3.14035e-21)
(-0.182458 0.2409 -8.92813e-21)
(1.09613 -0.0429415 3.54279e-21)
(1.18752 0.115723 5.68924e-21)
(0.569038 -0.493891 -9.2081e-20)
(1.01238 0.000875567 -4.45182e-21)
(1.18063 -0.111444 5.01396e-21)
(1.18918 0.242413 -1.79818e-20)
(1.06096 -0.117951 1.75649e-20)
(1.11605 -0.0462899 1.55781e-21)
(0.451358 -0.382754 -9.33967e-20)
(0.181432 0.252719 -8.82658e-21)
(1.11667 0.125463 5.5071e-21)
(1.05744 -0.0429635 0)
(0.641716 0.309946 -5.10531e-21)
(1.41539 -0.414449 9.28799e-20)
(1.01711 -0.00512813 -6.937e-20)
(1.51089 0.12048 8.95699e-20)
(1.07863 -0.032022 7.99876e-21)
(1.1227 0.139713 2.66624e-20)
(1.05789 -0.012296 0)
(1.16477 -0.02661 0)
(1.07801 -0.028472 -1.12696e-20)
(1.08618 -0.0227002 -4.42539e-21)
(0.923083 -0.117816 -1.81739e-20)
(1.06484 0.0629672 -1.09012e-20)
(1.33805 -0.0460689 -1.57162e-20)
(0.485356 0.0318935 0)
(1.06731 0.113645 2.39638e-20)
(1.33853 -0.0174291 0)
(1.07719 0.0729113 -6.25389e-21)
(1.13616 -0.00267823 0)
(1.04002 -0.00874214 1.51102e-20)
(1.22393 0.00382251 1.27921e-20)
(0.999618 0.321441 0)
(0.0830323 -0.0225171 1.83629e-19)
(0.882326 -0.199401 -7.26673e-20)
(1.10745 -0.0574885 -7.79299e-21)
(-0.151201 0.223882 4.76103e-20)
(1.18495 0.0300574 -2.2854e-23)
(0.819857 0.334934 1.1708e-20)
(-0.110268 0.266049 -4.95924e-20)
(-0.026139 0.140938 -3.14395e-20)
(1.01841 -0.0259585 0)
(-0.0341211 -0.0385656 0)
(1.16566 -0.114776 0)
(0.112138 -0.0856465 0)
(1.0872 -0.0323498 0)
(0.197994 0.0477775 0)
(1.11761 0.0560096 0)
(1.25407 -0.0281478 0)
(1.31545 0.166589 -1.7952e-21)
(0.5964 -0.290576 -2.33044e-20)
(-0.0547113 0.330543 0)
(1.20103 -0.034754 7.21774e-20)
(0.996186 -0.0635569 6.24958e-21)
(1.1352 -0.0737037 0)
(-0.0324308 -0.0428367 0)
(1.14245 -0.0245642 -1.05975e-21)
(1.13398 -0.0423628 1.64024e-22)
(1.1848 0.395112 0)
(0.336474 0.0326794 7.45563e-20)
(1.12102 0.040769 1.27442e-21)
(0.272859 -0.0500493 -6.08765e-20)
(-0.0646783 0.040588 -3.40916e-20)
(-0.0416063 0.0527393 8.85385e-20)
(0.571627 -0.263631 4.18866e-20)
(1.0014 0.20914 -1.10147e-20)
(1.13446 0.072758 -1.04771e-20)
(1.0213 -0.00995042 0)
(1.07012 -0.0579609 -2.19413e-20)
(1.27027 0.0335023 -1.70197e-21)
(-0.00967371 0.0452832 1.13418e-19)
(0.969449 -0.0683542 -5.82755e-20)
(0.738859 0.392984 6.39875e-21)
(1.03871 0.0816919 -2.5701e-21)
(0.114253 -0.0200534 4.16056e-20)
(0.293763 -0.0315424 -5.68634e-20)
(0.525963 0.0302011 -6.76845e-20)
(1.26301 0.245339 -5.10871e-22)
(-0.045895 -0.0388896 0)
(1.07238 0.300683 6.04525e-22)
(0.893595 0.183892 4.55311e-20)
(0.979425 0.0495517 -4.38964e-20)
(1.17748 -0.0754003 0)
(1.49487 -0.175357 7.97476e-20)
(1.13018 0.0669639 -3.9448e-21)
(-0.0166505 0.00478983 -3.80236e-20)
(0.410541 0.113987 0)
(0.905205 0.0160708 -1.64731e-21)
(1.1298 0.0220827 2.5665e-21)
(1.0755 -0.432567 7.07437e-21)
(1.13808 -0.0262775 7.46415e-22)
(1.11792 0.0333192 0)
(1.20227 -0.142108 -1.74982e-20)
(-0.197256 0.172437 -7.47275e-20)
(1.25464 -0.024365 5.26168e-21)
(1.10719 0.163313 -8.79783e-21)
(1.04682 0.0523084 1.24675e-20)
(-0.0452112 -0.0444296 1.84472e-20)
(-0.0192086 0.053852 -7.21273e-20)
(0.424121 0.0780971 0)
(0.648037 -0.20189 0)
(1.1537 0.0826747 -1.61404e-20)
(1.05402 0.0583525 1.26519e-20)
(1.08694 -0.0450859 0)
(0.375802 0.203865 2.06256e-20)
(0.780887 0.0959772 -1.19707e-20)
(1.1035 0.0993728 0)
(1.04628 0.0175283 0)
(1.28159 -0.0237096 0)
(1.29253 0.0270876 0)
(1.03371 -0.100647 4.97074e-21)
(-0.0454599 0.0457166 3.72324e-20)
(1.30035 0.117198 5.72016e-22)
(1.41448 -0.117813 -8.66573e-20)
(1.12616 -0.144184 -8.45088e-21)
(0.377122 0.00977179 0)
(1.04774 0.298463 0)
(0.646812 -0.00532669 -8.77712e-22)
(0.569786 0.0116849 -6.32833e-20)
(0.0738468 0.0390229 5.13901e-20)
(0.972513 0.0037152 4.594e-21)
(0.781394 -0.274628 0)
(0.73686 -0.0825749 0)
(1.15642 -0.168171 0)
(0.555342 0.532198 3.01063e-20)
(-0.0160147 0.0767056 -3.49881e-20)
(0.917336 -0.0549133 -4.25795e-21)
(-0.0235165 0.0579022 7.26901e-20)
(1.08086 -0.0789351 3.53098e-21)
(1.18568 0.310634 3.42943e-20)
(1.10569 -0.0780016 9.52562e-21)
(0.770644 -0.23125 1.21884e-19)
(1.00543 0.20585 4.52161e-21)
(1.07851 0.223555 0)
(0.577169 0.280903 0)
(0.907174 0.347576 -2.67479e-21)
(-0.270597 0.318561 0)
(0.624512 0.0345066 3.9876e-21)
(0.612803 -0.419687 -3.35521e-21)
(0.249641 0.0518553 -1.20539e-19)
(1.12701 -0.208476 3.04168e-20)
(1.04901 0.377566 9.67157e-21)
(0.984704 0.0249809 0)
(1.29125 -0.118717 -1.02588e-21)
(0.676552 0.0112999 0)
(1.01364 -0.00708214 -4.40419e-22)
(0.521726 0.00382609 0)
(0.720495 0.150443 0)
(0.981193 -0.0303456 -6.53196e-21)
(1.47145 0.140728 -1.6252e-20)
(1.04405 -0.0668997 6.06278e-21)
(0.524357 -0.490118 0)
(1.12828 -0.141705 2.44973e-21)
(0.818078 0.39921 6.79884e-20)
(-0.0471941 0.0178081 1.24587e-21)
(1.16802 -0.0857439 6.91392e-21)
(1.2003 -0.00900085 -9.59402e-21)
(1.07652 -0.155494 7.94338e-22)
(0.807291 0.013063 -7.52511e-21)
(0.0602421 0.021787 4.0005e-20)
(-0.0183342 0.120997 -6.38308e-20)
(-0.212818 0.2967 0)
(-0.00738471 0.322219 0)
(1.1959 -0.603449 3.44073e-20)
(1.11636 -0.0286647 -1.52005e-21)
(0.91179 -0.467093 -4.67867e-20)
(1.12573 0.308804 -3.34203e-21)
(1.41299 0.180838 3.70309e-20)
(0.621461 0.435434 0)
(0.253061 0.435388 -1.0885e-19)
(0.609463 0.509177 0)
(0.330214 0.142416 0)
(1.11902 -0.456323 0)
(-0.0474321 0.226405 1.18995e-23)
(1.17825 -0.0225584 0)
(1.00921 0.00502355 -3.28072e-20)
(0.614573 0.720471 2.14194e-20)
(1.44345 0.147551 1.43797e-20)
(-0.0443453 0.0147461 -1.33492e-19)
(1.00468 0.220512 -5.05569e-20)
(0.470036 0.149851 -1.45818e-20)
(1.20274 0.0498366 0)
(1.39427 0.353258 3.96137e-20)
(1.25038 0.581723 1.17161e-20)
(0.167032 -0.0207439 -2.32439e-20)
(1.07491 0.136952 3.36851e-20)
(0.967346 -0.0228983 1.81896e-21)
(0.938648 -0.00076114 -7.65691e-22)
(0.0327316 -0.0077613 0)
(0.641532 -0.63267 -3.06031e-20)
(0.619809 0.226523 0)
(0.0478175 0.0882901 0)
(-0.0460424 0.0722979 0)
(-0.0420309 0.068324 -5.03039e-20)
(1.21165 -0.0543052 -8.03951e-21)
(-0.0249784 0.0999699 0)
(-0.030694 0.114502 0)
(1.46733 0.0851113 -8.4699e-20)
(-0.0297495 -0.0316659 6.05081e-20)
(0.118067 0.251842 -9.85069e-20)
(0.409243 0.0203989 0)
(0.168191 -0.261624 8.18018e-20)
(1.14373 -0.226142 0)
(0.988898 -0.267764 0)
(-0.00926079 0.0352531 1.2549e-19)
(1.13697 0.0113845 -1.74193e-22)
(1.13483 0.350572 2.65436e-20)
(0.270275 0.0310276 4.97204e-20)
(0.401376 -0.509601 -3.79023e-20)
(1.42126 0.0345209 0)
(1.27725 0.196706 2.35479e-20)
(1.26211 0.206752 -2.89179e-20)
(0.104405 0.109095 -2.31879e-20)
(-0.0594594 0.239098 0)
(1.06693 -0.0510676 -1.86197e-20)
(1.09427 -0.204332 -1.50289e-20)
(0.580677 -0.381702 0)
(1.09477 -0.140121 -2.57599e-20)
(0.115607 0.293537 0)
(0.672483 0.0677845 0)
(1.33857 -0.05259 5.64154e-21)
(0.981431 0.0042165 6.33929e-22)
(1.10605 0.768835 -1.13729e-20)
(0.222692 -0.367996 1.33654e-19)
(1.07215 0.0478027 -2.48789e-21)
(1.2026 0.0530931 -4.43819e-22)
(-0.0431477 0.185767 3.38375e-20)
(0.811144 0.757257 2.22208e-20)
(1.34504 -0.331741 -1.50297e-20)
(-0.26945 -0.170453 3.57682e-20)
(1.20846 0.0295392 0)
(0.647739 -0.00455551 -1.30197e-20)
(0.90905 -0.633641 3.02661e-21)
(0.926541 0.660639 -2.73271e-20)
(0.633005 -0.0100702 -7.61049e-20)
(1.12393 -0.0258706 -9.17559e-21)
(1.07376 -0.080768 7.54371e-21)
(1.15811 0.0739974 4.35891e-21)
(1.10913 0.112287 4.06766e-21)
(1.12994 -0.115154 0)
(0.959421 0.108417 1.51353e-20)
(0.913349 0.471457 0)
(1.36186 0.196926 3.52871e-21)
(1.16917 0.0899211 5.47525e-22)
(0.776413 0.2708 0)
(0.538687 0.113889 1.14985e-19)
(0.917121 0.737093 -3.63299e-22)
(1.08505 0.289802 -2.03848e-20)
(1.03991 -0.00796555 1.3588e-20)
(0.42602 0.522862 0)
(1.29518 -0.445398 0)
(1.10913 -0.318368 8.27763e-21)
(1.29602 0.515111 0)
(-0.030501 0.0624081 -4.43426e-20)
(1.27993 -0.392985 -1.28291e-20)
(1.19029 0.523155 0)
(0.45878 0.247143 1.66407e-19)
(1.15848 0.325391 -1.29369e-19)
(0.807612 -0.616799 -2.58209e-20)
(1.16557 0.0680708 2.28222e-21)
(0.953207 0.158082 8.76094e-20)
(1.09321 0.164933 5.03206e-20)
(1.09854 0.725005 -1.63255e-21)
(0.899162 -0.418778 6.40928e-20)
(1.46555 0.140515 4.36077e-20)
(1.11543 -0.0136414 -1.40064e-21)
(0.0343074 -0.0164952 1.16436e-19)
(1.08374 -0.688603 2.97494e-20)
(0.866983 -0.703577 5.27409e-20)
(0.24885 -0.301906 0)
(0.970964 -0.14131 7.21081e-20)
(0.37033 0.339989 -4.3202e-19)
(-0.217698 0.362697 1.84332e-20)
(0.264009 0.0774211 2.28816e-20)
(0.750862 -0.0448262 -8.8304e-20)
(1.103 0.54797 0)
(0.988729 0.224084 7.91518e-20)
(1.0876 0.0229721 3.71598e-21)
(0.933956 0.463219 -8.76507e-20)
(0.782448 -0.716763 -8.55454e-21)
(0.937189 0.0330352 -4.84074e-20)
(0.996886 0.508411 0)
(1.34787 0.212873 -1.54689e-20)
(1.38095 -0.489336 1.48964e-20)
(1.21936 -0.314998 1.08326e-20)
(0.0753817 0.103134 5.25698e-20)
(0.195984 0.038984 -1.80522e-20)
(0.971135 -0.111064 -5.7196e-20)
(0.366033 0.555428 0)
(0.932815 0.0269785 3.85719e-20)
(1.18654 0.653439 8.93419e-20)
(-0.181219 0.190501 1.59549e-19)
(-0.0428424 0.24591 -2.87429e-20)
(-0.110898 0.169453 4.73796e-20)
(1.0949 0.00653848 -4.98975e-21)
(1.15544 -0.453566 0)
(1.06112 -0.713422 -4.06538e-20)
(0.711505 0.372469 0)
(-0.0293078 0.210667 -1.12579e-19)
(1.05828 0.0255979 8.08944e-21)
(-0.0408595 0.0967931 -3.29198e-20)
(1.05187 0.0484958 -1.24475e-20)
(0.101895 0.0295691 5.75398e-20)
(0.888284 0.134552 0)
(1.27744 -0.0512128 1.5363e-20)
(0.0775193 0.109553 -2.59811e-20)
(-0.109669 0.278247 -6.24685e-20)
(-0.272151 0.318771 0)
(0.136122 0.0123854 0)
(1.25212 -0.0429711 -3.70852e-21)
(0.445935 0.00356608 1.83328e-19)
(1.26818 -0.707827 -2.62648e-20)
(1.1076 -0.411275 3.89671e-20)
(1.0773 0.248595 -2.90824e-20)
(0.363406 -0.536014 1.41001e-19)
(1.59654 0.265184 -3.70411e-20)
(0.109549 0.0250146 4.52466e-20)
(0.214067 0.339463 1.92643e-19)
(0.162518 0.0255594 -1.69247e-19)
(0.938957 -0.474237 -4.30168e-20)
(1.49165 0.389455 3.78986e-20)
(0.562084 -0.661665 4.95837e-20)
(1.10223 -0.0698563 -7.67961e-21)
(0.229946 0.274233 5.96816e-20)
(1.22637 0.298807 -5.14849e-20)
(0.678801 0.668007 -3.80339e-20)
(1.34992 -0.607649 0)
(1.46012 0.530935 3.64066e-20)
(1.04804 -0.509576 -1.24443e-20)
(1.42619 0.621288 -1.12845e-19)
(1.18618 0.0199069 0)
(-0.0494018 0.129129 0)
(1.28417 0.749734 0)
(1.33412 0.0481496 3.44282e-22)
(0.737395 -0.283432 -2.05536e-19)
(0.481092 -0.058799 0)
(-0.0354727 0.192985 -2.86437e-20)
(1.02222 -0.234152 9.75395e-20)
(-0.136489 0.00947178 0)
(0.324922 0.0549293 1.21981e-20)
(1.15118 0.0321529 0)
(1.46228 0.273307 0)
(1.19215 0.0577354 -2.44391e-21)
(0.360956 -0.265702 0)
(1.01391 0.147721 3.68727e-20)
(1.34654 0.28525 0)
(-0.0273908 0.26808 4.79002e-22)
(0.810097 -0.376586 0)
(1.55435 0.327938 -5.63148e-20)
(1.25534 0.37513 -1.84435e-21)
(0.863074 0.673393 -9.26874e-21)
(1.01121 0.151835 -8.72903e-20)
(0.960878 -0.19184 -4.72365e-20)
(1.4914 0.286212 3.30762e-20)
(1.10434 0.11896 0)
(0.568128 -0.0507651 0)
)
;

boundaryField
{
    FrontBack
    {
        type            empty;
    }
    Top
    {
        type            noSlip;
    }
    In
    {
        type            fixedValue;
        value           uniform (1 0 0);
    }
    Bottom
    {
        type            noSlip;
    }
    Out
    {
        type            zeroGradient;
    }
    circle
    {
        type            noSlip;
    }
}


// ************************************************************************* //
