/*--------------------------------*- C++ -*----------------------------------*\
| =========                 |                                                 |
| \\      /  F ield         | OpenFOAM: The Open Source CFD Toolbox           |
|  \\    /   O peration     | Version:  2412                                  |
|   \\  /    A nd           | Website:  www.openfoam.com                      |
|    \\/     M anipulation  |                                                 |
\*---------------------------------------------------------------------------*/
FoamFile
{
    version     2.0;
    format      ascii;
    arch        "LSB;label=32;scalar=64";
    class       volVectorField;
    location    "27.5";
    object      U;
}
// * * * * * * * * * * * * * * * * * * * * * * * * * * * * * * * * * * * * * //

dimensions      [0 1 -1 0 0 0 0];

internalField   nonuniform List<vector> 
808
(
(0.895961 -0.00975536 0)
(1.02402 -0.0337529 0)
(1.22069 0.152396 0)
(1.06776 0.00999128 -2.6574e-21)
(1.4742 -0.299783 0)
(0.958839 -0.0296035 0)
(1.16106 -0.0565216 -6.63767e-22)
(1.14308 -0.0269368 0)
(1.35502 -0.236104 2.08314e-20)
(1.23943 -0.0980261 -4.88761e-21)
(1.11438 -0.117522 6.63215e-21)
(1.38041 -0.270153 0)
(1.01571 -0.0368623 0)
(0.75271 -0.0244276 0)
(0.946899 0.0198146 1.7635e-20)
(1.10625 -0.0413022 0)
(0.833914 -0.000259806 -5.35118e-21)
(1.01121 -0.0489705 -8.63255e-23)
(1.15873 0.101845 0)
(1.12258 0.0023668 0)
(1.15976 -0.135825 -9.25686e-21)
(0.930918 0.124353 1.13134e-19)
(1.0741 0.0120987 -1.403e-20)
(1.17768 -0.0285651 0)
(0.950016 0.18111 0)
(1.29714 0.0387856 -2.70095e-20)
(1.2815 -0.183939 3.03644e-21)
(0.94998 -0.0280663 -2.8887e-21)
(1.10242 -0.0373798 0)
(1.04064 0.0456621 -2.86584e-22)
(0.992672 -0.0360989 3.11361e-24)
(1.12722 -0.0102917 0)
(1.04482 0.0211405 0)
(1.07566 -0.0281529 2.19735e-21)
(1.31171 -0.0776883 7.51479e-21)
(0.740492 -0.116264 1.13714e-19)
(0.884223 -0.030641 -7.01535e-21)
(1.02501 0.0257479 1.11942e-21)
(1.20196 0.040269 -3.77491e-21)
(1.08512 0.0102965 0)
(1.27266 -0.0638067 -1.42075e-20)
(1.28048 -0.137573 0)
(1.01055 0.00407447 -8.41511e-21)
(1.10982 -0.0508376 7.79726e-21)
(1.14173 0.0161554 0)
(1.0106 0.0164377 -2.03579e-20)
(1.00032 0.0304066 1.86506e-21)
(1.25339 -0.258811 -5.14992e-21)
(1.17211 0.0381935 -7.62931e-21)
(1.41153 -0.198567 -3.00952e-20)
(1.14902 -0.0607576 1.80194e-21)
(1.15065 -0.0772337 0)
(1.11984 -0.00221981 7.51806e-21)
(1.10852 -0.0318571 0)
(1.31267 0.225724 4.57541e-21)
(1.06363 0.0351922 -2.84252e-21)
(1.17287 -0.0371591 0)
(1.10341 -0.00842547 5.87195e-21)
(1.24152 -0.0988814 5.24641e-21)
(1.13427 0.0372159 -4.04204e-22)
(-0.279338 -0.0368319 0)
(1.21662 -0.219981 -2.49502e-21)
(1.1107 -0.00929883 0)
(1.45259 -0.0886464 -2.70215e-20)
(1.09228 -0.0592486 -1.00364e-20)
(1.04403 -0.0296222 -8.47415e-21)
(1.35376 -0.162041 2.90912e-20)
(0.652684 0.0151112 0)
(1.11901 -0.083735 0)
(1.43446 -0.364114 0)
(0.905384 0.0277869 -2.64674e-22)
(1.22865 -0.154439 -3.4648e-20)
(1.01688 0.0469482 0)
(1.04594 -0.0430458 -3.08297e-21)
(1.12321 -0.339637 -6.16478e-20)
(1.13453 -0.0675658 -6.60945e-21)
(1.1413 0.0294568 3.43216e-22)
(1.31948 0.488437 2.53383e-20)
(1.11193 -0.0488194 0)
(1.01433 0.278886 -1.85974e-19)
(1.32074 0.0327694 1.40586e-20)
(0.746694 0.0253835 0)
(0.842361 0.0340252 -9.95643e-21)
(0.9682 -0.111947 4.51812e-21)
(1.10554 -0.067341 4.90384e-21)
(1.19073 0.0178816 1.38886e-21)
(1.26773 -0.245786 0)
(1.34768 0.274756 0)
(1.08736 0.00320085 -1.52624e-20)
(1.38012 0.063186 2.86243e-20)
(1.08414 -0.0172754 1.431e-20)
(1.32492 -0.132652 -1.21939e-21)
(0.965413 0.0264961 1.73981e-20)
(1.00448 -0.0221579 0)
(1.11104 0.0203362 1.68486e-21)
(1.35128 -0.0893924 -8.30602e-20)
(0.757842 0.0219604 -3.51207e-21)
(1.31356 -0.016792 0)
(1.33954 -0.093784 0)
(1.43442 -0.130768 -4.31682e-20)
(1.11406 -0.0608157 -2.82555e-21)
(1.12635 0.0124909 -5.71914e-23)
(0.947395 0.0236154 1.21889e-20)
(1.18277 0.0249628 -4.03519e-22)
(1.33666 0.0471778 -3.02601e-20)
(1.00376 0.00624575 1.38196e-20)
(1.4305 0.020065 0)
(0.768522 -0.140796 0)
(1.08926 0.0293059 6.00714e-21)
(1.20246 -0.224078 -9.6889e-21)
(1.27053 0.0386571 1.01451e-20)
(1.04717 0.0471823 -1.24742e-19)
(1.14945 0.0389296 -2.28825e-21)
(1.18325 -0.0465801 5.48347e-21)
(0.78841 0.015618 0)
(0.916676 -0.047917 7.8298e-20)
(1.13972 0.0274653 -5.59264e-21)
(1.42813 -0.280591 -1.48457e-20)
(1.1207 -0.0395812 -7.05587e-21)
(0.930473 0.0170912 2.50373e-21)
(-0.242198 0.0229618 0)
(0.862029 -0.0152964 2.1982e-21)
(0.79186 0.0235477 0)
(1.06092 0.00304194 -1.01232e-22)
(1.01173 0.0279667 0)
(1.30767 0.314711 7.52577e-21)
(1.0348 -0.0566022 -3.46794e-20)
(1.24731 0.00244527 3.91582e-21)
(1.15205 -0.0591809 0)
(1.09385 -0.0229449 0)
(0.576776 -0.10345 0)
(1.1234 -0.0322371 -4.32584e-21)
(1.25824 -0.0520337 8.08009e-21)
(1.06611 0.112995 -3.39912e-20)
(0.851742 -0.0119981 0)
(1.09838 0.0257498 -1.48938e-21)
(1.18825 0.135938 -5.72708e-22)
(1.25961 0.0600168 1.08096e-21)
(0.990057 0.0296939 4.41603e-21)
(1.12574 0.00889001 4.79457e-23)
(-0.0124005 0.00874985 0)
(1.09787 -0.0207438 -1.59293e-20)
(1.19655 0.184989 1.34396e-21)
(0.722503 0.0224073 -4.34654e-21)
(1.25614 0.158235 2.67849e-21)
(1.07796 -0.0245241 -4.45023e-22)
(1.04626 0.0157018 1.81688e-20)
(0.991128 0.0272573 0)
(1.16856 0.057426 -1.62468e-20)
(0.946089 -0.0965612 0)
(0.94414 0.0297037 8.99257e-21)
(0.969596 0.280614 1.48852e-19)
(0.969564 0.0328458 0)
(0.818122 0.0969188 0)
(-0.136228 -0.0537433 -6.76268e-20)
(1.3301 0.122529 -1.21941e-20)
(0.679641 -0.0189267 0)
(1.41163 0.03185 0)
(1.22905 0.176682 0)
(1.33221 0.0843393 1.32091e-20)
(-0.0374392 -0.127458 0)
(-0.064377 0.0270463 3.35303e-20)
(0.962766 -0.0901288 7.04062e-20)
(1.0018 0.0377633 1.16817e-21)
(0.85965 0.00178069 0)
(1.02815 -0.0232061 1.11818e-20)
(0.886509 0.0239934 0)
(0.722184 -0.0760672 -7.60865e-20)
(1.02692 0.0363932 1.26821e-20)
(1.09717 -0.0458097 3.68098e-21)
(1.09353 0.0115433 7.22928e-21)
(1.01404 0.0687583 -1.22708e-20)
(0.766265 -0.0962562 4.43036e-22)
(1.13786 -0.352367 7.8259e-22)
(0.911699 -0.0274238 0)
(1.06803 0.000740722 -1.49086e-20)
(0.873636 0.00940782 -1.13599e-20)
(1.39139 -0.186954 1.85137e-21)
(0.702078 0.03093 0)
(1.02261 -0.152551 0)
(1.10821 -0.0126633 3.23308e-21)
(1.38788 0.202211 9.93942e-21)
(1.11109 0.0219512 5.36586e-21)
(1.037 0.0203222 2.06416e-20)
(0.66036 -0.0609243 -5.08616e-20)
(0.812928 0.00217516 2.03426e-20)
(1.13963 -0.0191877 5.45776e-21)
(1.41514 -0.0885254 -5.10037e-21)
(1.0967 -0.0389695 -6.27153e-21)
(1.34697 -0.0415253 4.37063e-21)
(-0.138618 -0.0356309 4.95431e-20)
(1.28537 -0.00917462 0)
(0.622594 -0.0173995 0)
(1.06589 -0.0242498 -7.33729e-21)
(1.09691 0.0152464 6.87303e-21)
(0.0463583 0.0246055 0)
(0.876114 -0.0220774 3.88977e-22)
(1.1145 -0.0076338 -4.11617e-21)
(0.982811 0.0397148 2.28101e-21)
(1.07722 0.0387665 -7.59289e-21)
(1.00437 0.0188331 2.77497e-21)
(1.04593 -0.0184223 3.63093e-21)
(1.04208 0.0262151 0)
(0.30252 -0.0490914 0)
(1.04572 -0.0623788 0)
(1.15446 0.092832 -3.03451e-20)
(-0.0338533 -0.146706 4.23872e-20)
(1.11457 0.0341794 -1.84971e-23)
(1.10698 0.0981386 0)
(0.747921 0.0165963 -8.49005e-21)
(1.12726 -0.109538 2.45379e-21)
(-0.0131881 -0.0392689 -1.31407e-19)
(0.864415 -0.046417 -5.70593e-20)
(0.62945 -0.0171627 0)
(0.865432 -0.106067 0)
(0.944425 0.0488931 8.8493e-21)
(0.990676 -0.125485 4.9162e-21)
(1.27855 0.390362 -5.96188e-22)
(1.06062 -0.028278 -3.18757e-22)
(1.12317 0.00467805 -5.76477e-21)
(0.977194 -0.11702 0)
(1.36198 0.413753 -3.87906e-20)
(0.679525 -0.0217437 0)
(0.806597 -0.0236406 -4.28708e-21)
(1.03725 -0.0255095 3.01838e-22)
(0.592746 0.0150206 0)
(1.10082 -0.00579933 0)
(0.157525 -0.0950049 -5.2915e-20)
(1.02355 0.121067 -1.37233e-20)
(0.71505 -0.0223575 1.78992e-21)
(0.990371 -0.00204857 0)
(0.556466 -0.0190953 0)
(0.760299 -0.0227998 -3.55567e-21)
(0.532252 -0.0190466 -4.2252e-22)
(1.31056 0.0489307 2.12056e-22)
(1.18832 0.0261132 -7.49885e-21)
(0.704623 0.017827 -2.69096e-21)
(1.08863 -0.0157581 3.70963e-22)
(1.01143 0.0302462 3.00374e-22)
(0.556582 0.0150702 7.175e-21)
(1.17948 0.0176405 8.8733e-22)
(1.13207 0.0521721 0)
(0.879137 0.0118544 0)
(0.501667 0.0184958 0)
(1.04026 -0.0155502 0)
(1.19336 0.067871 -7.03516e-22)
(0.954303 0.0665472 0)
(1.16781 0.00970985 0)
(1.0622 0.0889932 0)
(1.16919 0.0570272 0)
(-0.0187622 -0.0424279 4.09727e-20)
(1.28685 0.0892647 4.04175e-22)
(1.19256 0.0752818 0)
(1.37734 0.0832379 2.04738e-20)
(1.26155 0.0332129 2.88577e-22)
(1.10188 0.0371461 3.49031e-21)
(1.23417 0.0036292 3.11594e-21)
(1.22609 0.10983 0)
(0.593789 -0.015523 8.02123e-21)
(1.05048 0.0412734 1.19346e-20)
(1.19346 0.091839 0)
(1.13723 -0.0657837 -2.96441e-21)
(1.24022 -0.0142654 2.67083e-21)
(0.344391 -0.00367876 -1.12566e-20)
(1.11127 0.0493801 5.42956e-21)
(1.19355 -0.124438 -2.55905e-21)
(0.923774 -0.104138 0)
(1.27433 -0.000287774 -1.27511e-20)
(1.06615 -0.0869281 -5.32315e-21)
(0.819542 0.174781 2.8353e-21)
(0.740899 0.0842999 0)
(-0.0265744 -0.0211732 0)
(0.977682 0.112899 -1.80571e-20)
(1.14253 -0.0580146 0)
(1.30275 -0.0299505 1.44393e-20)
(1.17063 -0.0271296 1.36522e-21)
(1.18883 -0.109517 2.46018e-21)
(1.18835 -0.0253675 -2.21559e-21)
(1.39322 -0.0669156 1.23162e-19)
(1.01846 -0.326788 6.22405e-20)
(1.18277 -0.0318565 -8.4583e-22)
(0.938279 0.130194 0)
(0.718394 -0.0978615 0)
(0.907056 0.00531778 -3.08661e-20)
(1.17219 0.0459453 -1.74836e-20)
(1.2267 -0.0866091 0)
(0.651315 -0.0378175 -3.6885e-21)
(0.30867 -0.259085 0)
(0.724296 0.0803407 -1.72742e-22)
(0.948367 0.0893974 4.01086e-21)
(0.824045 0.0293744 -5.49036e-21)
(1.23377 0.0149989 0)
(1.19251 -0.0794209 -1.59244e-21)
(1.05025 -0.0288585 7.95412e-21)
(0.666847 0.210484 -7.02943e-21)
(1.2506 -0.0648162 -3.02533e-21)
(0.808442 0.220496 0)
(1.09083 0.0705773 0)
(1.12654 0.0504691 -2.79399e-22)
(0.856387 0.123941 1.74497e-22)
(1.27535 -0.0413046 7.04387e-21)
(1.18222 -0.0405202 -2.90747e-21)
(0.899677 -0.0132857 1.14685e-21)
(1.14003 -0.0577365 0)
(0.40528 -0.137239 1.25097e-20)
(1.31717 0.0822194 -1.76192e-20)
(0.988801 0.185979 -3.94953e-21)
(0.124589 -0.00610661 1.19021e-20)
(1.43974 -0.155235 2.31399e-20)
(0.7991 -0.0673659 4.87616e-20)
(1.2755 -0.028834 2.44312e-22)
(1.16396 -0.0343642 -9.60156e-22)
(-0.05082 -0.167787 -7.24117e-21)
(1.00102 -0.00672407 0)
(1.03473 -0.0881324 -1.68759e-20)
(0.856765 -0.0314962 7.7531e-21)
(1.1058 -0.0487295 3.66197e-21)
(0.729506 0.160387 -1.66329e-21)
(0.50804 -0.0183768 2.23149e-22)
(1.41169 -0.39373 -1.49937e-20)
(1.12622 0.0651879 0)
(1.02499 0.0377885 -8.39565e-22)
(1.13593 0.0421136 -2.36066e-21)
(1.34311 -0.137273 0)
(0.739352 -0.0926667 4.81929e-21)
(1.14685 0.0525025 3.12406e-21)
(0.612539 0.163544 1.98362e-20)
(1.16865 -0.0275614 2.54455e-21)
(0.940589 -0.0302127 -3.19565e-21)
(-0.0394313 -0.08681 0)
(0.162607 0.290357 -4.65753e-21)
(1.12755 0.060048 0)
(0.872029 0.0864091 -1.74149e-20)
(0.698598 -0.0124811 0)
(1.13161 -2.72626e-05 3.64615e-21)
(1.01671 0.0259808 0)
(1.18889 -0.0827523 0)
(1.41781 -0.141414 2.11675e-20)
(0.796763 -0.0878765 0)
(1.10967 -0.146299 2.34165e-20)
(1.08895 -0.0184979 -9.06423e-23)
(1.06353 0.0571092 2.83679e-21)
(1.27015 0.00764008 -7.87396e-21)
(1.2344 0.118792 -5.14461e-21)
(1.13647 0.0715433 2.67734e-20)
(1.19026 0.0707724 0)
(1.22101 -0.0935579 0)
(1.16621 0.0559591 1.32043e-21)
(1.23036 -0.00167604 0)
(1.41438 0.189086 -2.6225e-20)
(0.614441 0.0173272 1.36661e-21)
(1.02666 0.0174955 2.20722e-20)
(1.2428 0.0703547 -2.49158e-22)
(-0.0124025 -0.0169747 0)
(-0.0283639 -0.0768123 0)
(0.161753 -0.115467 -4.19846e-20)
(-0.0391313 -0.177129 0)
(0.528713 -0.0628973 -1.338e-20)
(1.19346 0.0432432 -2.76786e-21)
(1.1682 -0.107235 -2.46553e-21)
(1.32678 -0.094853 4.01825e-22)
(1.23155 -0.01398 0)
(0.67791 -0.0134651 -1.41103e-21)
(1.21211 0.0568289 0)
(1.16591 0.0502253 5.15401e-22)
(0.488096 -0.109675 0)
(0.592586 -0.151494 -5.15716e-22)
(1.1865 0.0359165 0)
(1.11304 0.0214125 0)
(0.921495 0.153025 7.43234e-20)
(0.506775 -0.223724 -9.47212e-22)
(0.858354 -0.0600389 -3.47553e-21)
(1.01041 0.0181227 -1.01731e-20)
(0.154544 -0.137062 0)
(1.15753 -0.0478476 -3.57621e-20)
(1.18226 0.049853 -2.59498e-22)
(1.00708 -0.00781899 3.65456e-22)
(0.728694 -0.202198 3.74937e-21)
(-0.0505195 -0.121658 -8.95396e-20)
(1.16716 0.0193656 0)
(-0.037402 0.0433526 0)
(1.1624 0.0257418 8.26884e-21)
(0.576148 -0.26441 -4.03553e-21)
(1.08634 0.0248607 -1.17001e-20)
(1.1282 -0.0440151 0)
(1.14354 -0.096105 1.74224e-21)
(1.21182 -0.0324762 1.55156e-20)
(0.507454 -0.0610998 -8.13862e-21)
(1.15377 -0.0370642 -1.57312e-21)
(1.18238 -0.0987225 -4.99923e-23)
(0.197234 0.299916 -1.1234e-21)
(1.26326 -0.132435 2.61598e-21)
(1.11905 0.0424372 0)
(1.19243 0.0211554 0)
(1.22949 -0.0409207 3.70302e-21)
(1.14402 0.0615954 2.34534e-22)
(0.540789 0.0488265 -3.74195e-20)
(1.19446 -0.124864 -1.93609e-20)
(1.1112 0.0386953 1.05304e-20)
(0.519163 -0.0027318 1.22357e-20)
(0.533684 -0.00947257 -1.35469e-19)
(-0.244542 0.223848 1.96965e-20)
(1.17283 0.177987 -6.65499e-21)
(1.23262 -0.499175 3.67003e-21)
(1.3799 0.0955144 -1.87282e-20)
(1.24093 -0.0340362 -4.3882e-21)
(0.938265 -0.23503 9.71821e-20)
(0.0154881 0.183983 0)
(1.12824 -0.0108559 -1.13917e-21)
(0.151099 0.364493 -1.27127e-20)
(1.1596 0.0108612 -7.15541e-21)
(1.16892 0.0417402 8.44712e-21)
(1.10045 0.0424842 0)
(0.787093 -0.21847 0)
(1.17138 -0.0485543 0)
(1.14112 0.0592109 7.36161e-21)
(1.26197 -0.00350536 -2.33347e-20)
(1.17455 -0.0556434 -4.81499e-22)
(0.456817 0.0174377 0)
(0.60604 0.0134324 0)
(0.606055 -0.00518486 3.87789e-22)
(0.430247 -0.015987 0)
(1.13305 -0.0062245 0)
(1.02285 -0.0123327 2.72851e-20)
(0.524496 -0.0496531 0)
(0.936901 0.0240061 0)
(1.09505 -0.0620578 0)
(1.17162 0.184861 -6.23539e-21)
(1.23126 0.0599113 7.85112e-21)
(0.971928 -0.0305626 7.21994e-21)
(1.28203 -0.406187 -9.79216e-20)
(0.671753 0.0215038 1.97459e-20)
(1.36155 0.054845 2.68066e-21)
(1.30199 -0.13284 0)
(-0.370784 0.110206 0)
(-0.268569 -0.126498 0)
(1.17678 -0.0255076 -2.29185e-21)
(1.32227 -0.2975 -1.50142e-20)
(1.27244 0.119178 0)
(1.10817 0.0516452 -8.1217e-21)
(0.235281 -0.0570931 0)
(1.51721 -0.187525 6.57892e-20)
(0.412144 0.51858 1.17205e-19)
(0.247212 -0.0576752 0)
(1.08557 -0.281882 1.0511e-19)
(0.597333 0.185739 0)
(-0.145364 0.189825 1.34337e-20)
(1.27738 0.116509 0)
(0.00329111 -0.0977986 -4.1549e-21)
(0.983656 -0.049364 0)
(1.3 -0.0382057 -6.90001e-21)
(-0.139901 -0.131971 -7.22107e-21)
(1.13241 -0.0211952 1.43781e-21)
(1.2047 -0.149189 -7.53683e-21)
(0.572751 -0.518299 -9.36965e-20)
(1.22588 0.0139875 -8.69545e-22)
(1.19876 -0.131302 5.77147e-21)
(1.18036 0.24179 -2.03992e-20)
(1.18646 -0.0174723 -1.0531e-20)
(1.16602 -0.00404718 1.83145e-22)
(-0.243079 -0.157953 -4.06704e-20)
(0.0293709 0.0136247 -7.49414e-21)
(1.31984 -0.00981265 1.75072e-21)
(1.06017 -0.0482125 0)
(0.433383 -0.259747 -3.72694e-21)
(1.3973 -0.450767 7.10685e-20)
(0.905849 -0.0970273 -5.08287e-20)
(1.41923 0.128558 7.38932e-20)
(1.08205 -0.05045 2.96169e-21)
(1.19723 -0.187272 1.48244e-21)
(1.06251 -0.00741462 0)
(1.18124 -0.00684877 0)
(1.33344 -0.0658754 8.11186e-21)
(1.08819 -0.0194088 -4.47662e-21)
(1.23303 -0.149875 1.10615e-20)
(1.11323 0.028842 -7.27464e-21)
(1.46356 -0.00447356 -5.19145e-20)
(0.473033 0.0235859 0)
(1.32328 -0.153744 -1.27172e-20)
(1.32256 0.135162 0)
(1.12536 0.0321545 -5.98706e-21)
(1.14051 0.0278669 0)
(1.04156 -0.00873276 1.44417e-20)
(1.22609 0.0422055 1.12312e-20)
(1.1811 -0.136407 0)
(0.0453189 -0.0311008 1.40869e-19)
(0.883903 -0.213541 -7.6224e-20)
(1.38052 0.0214875 -3.66956e-20)
(-0.109728 -0.121218 3.89946e-20)
(1.18772 0.0330059 2.76526e-22)
(0.654299 -0.162472 5.68101e-22)
(-0.106853 -0.0839089 -4.06643e-20)
(-0.0249353 -0.00768241 -2.59664e-20)
(1.0188 -0.0296791 0)
(-0.025905 -0.0309033 0)
(1.23743 0.18957 0)
(0.111668 -0.105879 0)
(1.12197 -0.0266361 0)
(0.120279 0.0267104 0)
(1.10268 0.0468746 0)
(1.13801 0.23332 0)
(1.2576 0.0576894 -8.21701e-21)
(0.56911 -0.283569 -1.95667e-20)
(-0.219659 -0.0367645 0)
(1.11345 -0.113226 5.28971e-20)
(1.33922 0.0524694 -1.34739e-21)
(1.42416 0.162011 0)
(-0.0379003 -0.0389771 0)
(1.15672 0.0204485 2.07214e-22)
(1.1678 0.00575003 -5.40204e-22)
(1.16859 0.385511 0)
(0.218059 -0.104899 5.03491e-20)
(1.11899 0.0611744 1.32349e-21)
(0.223084 -0.0520667 -4.82176e-20)
(-0.0605555 0.0505188 -3.32944e-20)
(-0.0297115 0.0488527 8.58656e-20)
(0.566674 0.320418 1.39238e-20)
(1.08639 -0.166347 -5.34642e-22)
(1.11833 0.0408592 -9.93436e-21)
(1.02375 -0.00795926 0)
(1.07045 -0.0712646 -2.34997e-20)
(1.19735 0.0913718 -8.43821e-21)
(-0.00923919 -0.0352208 9.25799e-20)
(0.981189 -0.0718381 -6.17066e-20)
(0.567145 -0.188849 7.57445e-21)
(1.12981 -0.0488774 -3.24534e-21)
(0.0632509 -0.0323771 2.96259e-20)
(0.231711 -0.0397917 -4.28688e-20)
(0.359842 -0.0806055 -4.56316e-20)
(1.13058 0.0204246 1.55695e-20)
(-0.0539504 -0.0323088 0)
(0.875969 -0.143639 9.88496e-21)
(1.24315 -0.237739 -1.69039e-20)
(1.23501 -0.179234 1.6299e-20)
(1.32733 0.0376353 0)
(1.51854 -0.241288 6.24343e-20)
(1.14693 0.0155696 -4.0645e-21)
(-0.0123231 -0.0414552 -3.11527e-20)
(0.330093 0.0397298 0)
(0.921847 0.0323751 -3.31636e-21)
(1.12373 0.028755 5.88788e-22)
(0.427278 0.0593044 8.4641e-21)
(1.16083 0.0163783 4.11545e-22)
(1.11582 0.0512983 0)
(1.12368 -0.179491 -1.31233e-20)
(-0.0701367 -0.172081 -6.11531e-20)
(1.32635 -0.0165712 2.46091e-20)
(1.10326 0.174446 -8.98737e-21)
(1.1303 0.0301977 8.31989e-21)
(-0.0369412 -0.0532439 1.36787e-20)
(-0.027748 0.0360336 -6.37492e-20)
(0.856752 0.00510487 0)
(0.929861 0.283134 0)
(1.149 0.0949085 -1.71072e-20)
(1.05132 0.0678969 1.29394e-20)
(1.14685 0.0451616 0)
(0.557657 -0.112795 5.4993e-20)
(0.759058 0.0751726 -1.19345e-20)
(1.09802 0.103686 0)
(1.1186 0.0416523 0)
(1.33603 0.233888 0)
(1.14751 0.0651074 0)
(1.30398 0.0912779 1.0586e-21)
(-0.0426552 0.0471556 3.63654e-20)
(1.13935 0.00672441 8.08726e-21)
(1.40708 -0.217537 -7.24828e-20)
(1.29583 0.119169 -2.37588e-21)
(-0.11041 -0.0589958 0)
(1.20431 -0.233017 0)
(0.619005 -0.0155116 -3.29135e-22)
(0.554133 0.00607435 -6.10269e-20)
(0.0802268 0.0340947 4.93725e-20)
(0.943807 0.0298089 1.43733e-21)
(0.729924 -0.271426 0)
(0.659241 -0.0932851 0)
(1.2298 0.134494 0)
(0.541086 0.513951 2.07116e-20)
(-0.0187305 0.0139952 -2.91243e-20)
(1.1135 0.0234097 4.00435e-21)
(-0.0195605 -0.0767879 5.86089e-20)
(1.14608 -0.00782864 3.20643e-21)
(1.17258 0.310624 3.89074e-20)
(1.11532 -0.0940229 9.45361e-21)
(0.125806 -0.0927303 5.34165e-20)
(1.03739 -0.116242 2.65571e-21)
(1.18502 -0.216391 0)
(0.564478 0.272519 0)
(0.963455 -0.151034 -2.13049e-21)
(-0.1829 -0.10523 0)
(0.605811 0.0274567 2.65113e-21)
(0.599048 -0.415025 -2.72162e-21)
(0.248708 0.0487026 -1.1424e-19)
(1.12195 -0.231487 3.76223e-20)
(1.03898 0.361762 1.02456e-20)
(0.977911 0.0190176 0)
(1.1713 -0.0298528 6.244e-22)
(0.636983 0.0182799 0)
(0.97392 -0.0229403 -4.7943e-22)
(0.411515 -0.0248143 0)
(0.71053 0.12871 0)
(1.00653 -0.0178377 -4.87267e-21)
(1.43483 0.158669 -1.34697e-20)
(1.14596 -0.0162488 2.39772e-21)
(0.519434 -0.489729 0)
(1.1341 -0.158408 3.48585e-21)
(0.802857 0.375273 7.13449e-20)
(-0.0328743 0.0220987 1.21134e-21)
(1.22055 0.00478163 6.5752e-21)
(1.2094 0.0408678 -8.26794e-21)
(1.18526 0.0512864 1.04012e-21)
(0.789164 0.010004 -3.88218e-21)
(0.0717078 0.0171839 3.8751e-20)
(-0.0183639 -0.0533092 -5.20213e-20)
(-0.213235 -0.122164 0)
(-0.25627 0.0154898 0)
(1.17911 -0.616892 2.93638e-20)
(1.15585 -0.0217384 -1.78712e-22)
(0.878377 -0.462609 -3.83374e-20)
(0.909683 -0.103366 -2.12891e-20)
(1.37056 0.188772 3.46592e-20)
(0.606358 0.421508 0)
(0.246161 0.414484 -1.16518e-19)
(0.594733 0.477963 0)
(-0.00723052 -0.0483138 0)
(1.12152 -0.48363 0)
(-0.0508255 -0.0243136 -5.42591e-22)
(1.19689 -0.00494326 0)
(0.919739 0.284007 -1.5871e-20)
(0.594714 0.691002 2.04965e-20)
(1.21971 0.173829 -4.37836e-21)
(-0.0310956 -0.122231 -9.4994e-20)
(0.555419 0.201206 2.40913e-20)
(0.460547 0.145216 -1.3679e-20)
(1.19822 0.0896336 0)
(1.36248 0.348803 3.59867e-20)
(1.22294 0.561746 7.27862e-21)
(0.17809 -0.0184322 -2.32662e-20)
(1.02754 0.104064 3.35929e-20)
(0.926191 -0.0207923 5.01511e-22)
(0.916483 0.038991 -5.435e-22)
(-0.0167454 -0.0341744 0)
(0.645028 -0.652936 -3.15809e-20)
(0.612925 0.199181 0)
(0.090463 -0.17937 0)
(-0.0502701 0.0607512 0)
(0.0116801 -0.169578 -3.59036e-20)
(1.23006 0.0130585 -7.57222e-21)
(-0.0237313 0.0465382 0)
(-0.0374631 0.0380081 0)
(1.43701 0.102405 -7.01723e-20)
(-0.0370913 -0.0839182 4.29563e-20)
(0.114696 0.233434 -1.0209e-19)
(0.407626 0.0131373 0)
(0.168538 -0.278023 8.27017e-20)
(1.06852 -0.243536 0)
(0.99703 -0.286822 0)
(0.0101926 -0.129425 8.95731e-20)
(1.1453 0.0399186 -1.3671e-22)
(1.12661 0.338714 2.84078e-20)
(0.275248 0.0262083 4.74083e-20)
(0.401784 -0.515574 -4.03557e-20)
(1.28622 0.0607618 0)
(1.23339 0.181832 2.27066e-20)
(1.22866 0.203806 -2.78878e-20)
(0.10238 0.0875588 -2.36575e-20)
(-0.0688646 -0.0691674 0)
(1.07127 -0.0557072 -2.01822e-20)
(1.10136 -0.225676 -1.84722e-20)
(0.581374 -0.404965 0)
(1.09724 -0.15337 -2.79397e-20)
(-0.182578 -0.00155074 0)
(0.624664 0.0280928 0)
(1.46807 0.0720278 4.52231e-20)
(1.00251 0.0304943 5.55757e-22)
(1.07643 0.740614 -1.68019e-20)
(0.224415 -0.377669 1.35848e-19)
(1.12263 0.0153307 2.67822e-22)
(1.20158 0.0736249 -6.26159e-22)
(-0.053666 0.0361853 3.03178e-20)
(0.788333 0.732623 2.92287e-20)
(1.34718 -0.381082 -1.26538e-20)
(0.113234 -0.0848233 1.00544e-19)
(1.09466 0.0494195 0)
(0.110568 -0.119182 -6.56947e-21)
(0.891317 -0.632796 2.45475e-21)
(0.903462 0.641965 -1.88009e-20)
(0.520208 -0.0424153 -5.5067e-20)
(1.14321 0.000909649 -5.01649e-21)
(1.0776 -0.0858787 7.8726e-21)
(1.13666 0.0472387 3.22978e-21)
(1.10504 0.120281 4.56177e-21)
(1.13106 -0.131191 0)
(0.924276 0.101339 1.50867e-20)
(0.893416 0.459604 0)
(1.17686 0.0851074 -3.78858e-21)
(1.16443 0.110606 7.72499e-22)
(0.762079 0.264581 0)
(0.533013 0.109775 1.08952e-19)
(0.89334 0.710261 -9.87179e-22)
(1.07824 0.288539 -2.18169e-20)
(1.04333 -0.0112922 1.34361e-20)
(0.414762 0.489114 0)
(1.29295 -0.480077 0)
(0.469097 -0.104587 3.26655e-21)
(1.26801 0.50071 0)
(-0.017153 0.0512627 -4.44568e-20)
(1.28078 -0.420159 1.00252e-21)
(1.16462 0.505206 0)
(0.452154 0.215221 1.71072e-19)
(1.13212 0.31396 -1.21374e-19)
(0.813745 -0.641487 -2.79291e-20)
(1.14022 0.0495511 -1.11637e-21)
(0.929069 0.149082 8.28663e-20)
(1.0891 0.166882 5.26727e-20)
(1.07222 0.701886 6.7448e-22)
(0.902298 -0.439069 6.89705e-20)
(1.4156 0.172765 3.87547e-20)
(1.12827 0.0105972 -9.53005e-22)
(-0.00818684 -0.058248 7.80658e-20)
(1.0774 -0.702753 1.8739e-20)
(0.868092 -0.719392 5.8797e-20)
(0.250428 -0.333615 0)
(0.971617 -0.147408 7.6433e-20)
(0.361855 0.305384 -4.43976e-19)
(-0.10724 -0.153751 2.61521e-20)
(0.266551 0.0303863 2.36243e-20)
(0.652016 -0.0628404 -6.56327e-20)
(1.07902 0.525862 0)
(0.993639 0.22168 8.1571e-20)
(1.08481 0.0320248 3.75349e-21)
(0.908803 0.439721 -9.19862e-20)
(0.776841 -0.722499 -9.43526e-21)
(0.92463 0.0229306 -5.00792e-20)
(0.976529 0.48642 0)
(1.08136 0.145281 -3.80858e-21)
(1.37661 -0.520882 1.11621e-20)
(1.22707 -0.346337 8.256e-21)
(-0.308282 -0.0542459 3.17568e-20)
(0.193983 0.00164928 -1.83671e-20)
(0.9757 -0.118299 -5.97499e-20)
(0.352408 0.523584 0)
(0.912784 0.0163121 3.9902e-20)
(1.15977 0.634474 7.91577e-20)
(-0.042816 -0.177297 1.31072e-19)
(-0.0752387 -0.00223816 -2.50208e-20)
(-0.0780264 -0.143462 3.79518e-20)
(1.09587 0.0238342 -5.07751e-21)
(1.11971 -0.461871 0)
(1.06422 -0.73658 -4.90606e-20)
(0.697747 0.347569 0)
(0.0560874 -0.185152 -9.44695e-20)
(1.14591 0.0303391 4.60747e-21)
(-0.0335595 -0.116593 -2.60663e-20)
(1.04816 0.0550654 -1.20881e-20)
(0.118661 0.02904 5.76603e-20)
(0.863305 0.122501 0)
(1.40883 -0.0153679 5.07475e-20)
(0.0505504 0.0266366 -2.68235e-20)
(-0.339116 -0.081516 -3.76893e-20)
(-0.230689 -0.102727 0)
(0.064599 -0.0170745 0)
(1.36625 0.00563842 -1.35635e-20)
(0.35834 -0.0147752 1.34722e-19)
(1.26151 -0.729058 -1.37211e-20)
(0.785072 -0.0896595 1.07612e-20)
(1.07275 0.24975 -3.07737e-20)
(0.366422 -0.556765 1.4348e-19)
(1.54285 0.266906 -3.49331e-20)
(0.0549972 -0.0930653 2.99853e-20)
(0.207857 0.303321 1.97972e-19)
(0.0724256 -0.0554692 -1.12988e-19)
(0.941558 -0.494697 -4.51323e-20)
(1.45527 0.380866 3.52636e-20)
(0.563968 -0.674426 5.11777e-20)
(1.10744 -0.082902 -7.67848e-21)
(0.238432 -0.0988519 5.14649e-20)
(1.1926 0.286293 -4.9182e-20)
(0.661493 0.637861 -4.12729e-20)
(1.32887 -0.626257 0)
(1.42177 0.514538 3.40419e-20)
(1.05125 -0.530681 -1.2254e-20)
(1.39013 0.602382 -9.92381e-20)
(1.17047 0.043131 0)
(-0.0526089 0.0629133 0)
(1.2511 0.726052 0)
(1.11074 0.060622 -9.58873e-21)
(0.739846 -0.302426 -2.11975e-19)
(0.475028 -0.0848657 0)
(-0.0584046 0.0500788 -2.56998e-20)
(1.01875 -0.247473 1.0558e-19)
(-0.392876 0.00769847 0)
(0.321034 0.0236038 1.24088e-20)
(1.1292 0.0412083 0)
(1.41974 0.264956 0)
(1.17506 0.0455806 1.1954e-21)
(0.360004 -0.293384 0)
(1.01497 0.15051 3.83526e-20)
(1.31361 0.280025 0)
(-0.106105 -0.00399411 -1.08328e-21)
(0.811501 -0.397413 0)
(1.51254 0.329537 -5.24257e-20)
(1.24148 0.363107 5.20347e-22)
(0.839384 0.642613 -9.95895e-21)
(1.01197 0.1582 -9.01199e-20)
(0.96793 -0.205765 -5.11955e-20)
(1.45215 0.285963 3.08206e-20)
(1.00815 0.0637083 0)
(0.563334 -0.0724405 0)
)
;

boundaryField
{
    FrontBack
    {
        type            empty;
    }
    Top
    {
        type            noSlip;
    }
    In
    {
        type            fixedValue;
        value           uniform (1 0 0);
    }
    Bottom
    {
        type            noSlip;
    }
    Out
    {
        type            zeroGradient;
    }
    circle
    {
        type            noSlip;
    }
}


// ************************************************************************* //
