/*--------------------------------*- C++ -*----------------------------------*\
| =========                 |                                                 |
| \\      /  F ield         | OpenFOAM: The Open Source CFD Toolbox           |
|  \\    /   O peration     | Version:  2412                                  |
|   \\  /    A nd           | Website:  www.openfoam.com                      |
|    \\/     M anipulation  |                                                 |
\*---------------------------------------------------------------------------*/
FoamFile
{
    version     2.0;
    format      ascii;
    arch        "LSB;label=32;scalar=64";
    class       volVectorField;
    location    "1984.5";
    object      U;
}
// * * * * * * * * * * * * * * * * * * * * * * * * * * * * * * * * * * * * * //

dimensions      [0 1 -1 0 0 0 0];

internalField   nonuniform List<vector> 
808
(
(0.7562504639573906 -0.01750637947213705 0)
(1.031235996022712 -0.01252127086360893 0)
(1.116122749859314 -0.001904622646648226 -1.814056283038473e-20)
(1.085122407191425 0.01259759936179413 0)
(1.363329806157876 0.0165311616771324 -3.916127191595971e-19)
(1.038653612842859 -0.009323839661000043 -7.14331288416235e-20)
(1.013495516302053 -0.0205064951125704 -2.315195627366229e-20)
(1.078534074486529 -0.00496100346936681 8.944136714386258e-21)
(1.253364543091147 -0.01905871605642752 6.372740931006847e-20)
(1.084370342527529 0.009855519208347381 0)
(1.013906415668191 -0.01010608226959178 0)
(1.305298942954357 -0.05188533875017112 -3.56518953367037e-19)
(1.085917162317407 -0.001619808971326008 2.030072304512158e-20)
(0.6750444535810418 0.006419561254680869 0)
(1.286149904715848 -0.116992131382602 0)
(1.081546240333437 0.0001863076844672057 -3.805869557870917e-20)
(1.233905879128935 -0.149295335972125 -1.001383885898642e-19)
(1.074125196252269 3.744776526360416e-05 3.15482045847543e-20)
(0.9930997770410082 0.006168562307539243 0)
(1.026556278297617 0.009178955503261317 0)
(1.040854294403698 -0.01197738563377676 0)
(0.9874564585222593 0.04452310355953748 0)
(1.051107313261792 -0.006070730445968775 5.508716854457125e-20)
(1.053348552374206 0.008756470097579671 0)
(0.9328895182871358 0.1979057900563953 4.610755905461331e-19)
(1.166846400800972 -0.08842006152256189 0)
(1.185122871404161 -0.01807058640159399 1.591500547928453e-19)
(1.077372161564923 0.009385142393493364 5.193134439144234e-20)
(1.084174109562349 0.00207869874036175 5.047096463715077e-21)
(1.072048259623429 0.03094496282781129 0)
(1.075642323262533 0.002554421105835686 -1.17223154088394e-20)
(1.03309232713275 0.006426454535888263 -1.966777136812696e-19)
(1.059824739453961 0.01488699238714055 -2.401726326080639e-20)
(1.089120003656404 0.005207421996030089 -2.926223152135833e-20)
(1.119375016213474 0.0382139688690494 0)
(0.7551677353042675 -0.1227418517835827 -4.535819497045536e-19)
(0.9544294838449314 -0.005808627721121342 0)
(1.068997965998835 0.02247157660701269 0)
(1.06884246807703 0.007340717856252084 0)
(1.073589635300166 0.008919530408754371 -2.836413991008218e-20)
(1.091876608985758 0.02366598384369065 1.117160333052754e-19)
(1.149903489846368 0.003772775173621484 2.189714294929745e-19)
(1.095783142891159 -0.002455560732046274 0)
(1.015959337110584 -0.009044597314040243 0)
(1.132002979043598 -0.09843295604676738 -1.657083375376591e-19)
(1.044089405504253 -0.01168020369708485 -7.909275648717414e-20)
(1.058393805199529 0.0266561657921176 -2.850014056055592e-20)
(1.230802451139613 -0.1113391958684745 -5.637137907776895e-20)
(1.067779605857735 0.01227927568622103 -4.270921635578017e-20)
(1.256305087681907 0.0186468032028241 0)
(0.9964867621580425 -0.01811369967528689 2.063819640139963e-21)
(1.044531200602241 -0.002123962831191199 0)
(1.087498164985481 -0.002297178543498339 0)
(0.9981840757874958 0.00669581706545771 -1.862862865535348e-20)
(1.251561363825576 0.03475898844451246 -2.314825637567972e-19)
(1.063863219438022 0.01838055173321645 6.161169321280994e-20)
(0.9900168496455605 0.008295834631038881 0)
(1.019793225360625 -0.0107512907546931 2.37684789755117e-20)
(1.106822478639108 -0.0003982777821840864 -1.20314637035265e-19)
(1.061634909277927 0.03106167928488262 0)
(-0.06828673218717336 -0.007774457752775047 6.972629179281618e-20)
(1.154578955901981 -0.05129297447757419 -1.923670133881952e-19)
(1.004455631610281 -0.008692189019590433 -2.612442584369214e-20)
(1.182974977826609 0.06828070095658903 -1.231207143053335e-19)
(0.9983349460543361 -0.01013794767178393 2.982033572773816e-20)
(1.083983883449831 -0.005554496800438834 0)
(1.243208359830694 0.09851551401614594 0)
(0.6960227023514832 0.003203045669676657 -7.504677405043521e-20)
(0.9901807487671457 -0.01441600017609548 -3.106552669092504e-20)
(1.460294035595844 -0.01651096183237339 4.509725457523168e-19)
(1.060597561177279 0.007561369700382637 -6.82433931893997e-20)
(1.36723681767815 0.09944216033462754 2.934470384830977e-19)
(1.054722721001703 0.006824653010853401 -1.850892956391028e-22)
(1.081263887775273 -0.01400429652652031 -5.367983140988211e-22)
(1.164615949661442 -0.2357023766083857 0)
(1.022216819003537 -0.01430075539661631 0)
(1.017618753189782 0.01750106853372312 -3.151001409450334e-20)
(1.386244145796783 0.3496874092708788 4.149229883068866e-19)
(1.096955527148449 -0.04205907515983417 9.279278371515224e-20)
(1.045572731896063 0.2098093768766382 2.546290504706446e-19)
(1.125704879284754 -0.06240008798931757 1.149048840937554e-19)
(0.9221105438821431 0.005148422593284695 0)
(0.9755136512166187 0.01856740141108746 0)
(1.004118209792653 -0.04894263452041376 2.654743489837779e-21)
(1.010786055720832 -0.01296609380029199 7.388101234323122e-21)
(1.030416576026814 0.02573836107616874 1.406715079179187e-20)
(1.529631965003666 0.0378164795129389 3.287025497809713e-19)
(1.289769584583278 0.07215552725919586 5.465070356527665e-19)
(1.072522016871265 0.002919534176319565 -9.280795240520546e-20)
(1.200526264072526 -0.09529162429281413 0)
(1.033765313204999 0.001633008548123604 1.352086602491682e-19)
(1.163596365082164 0.02247907266143976 -3.237924861769921e-19)
(1.001448004171485 0.03230609524224743 0)
(0.9996281545551804 0.002014407501740608 0)
(1.044398660352783 -0.0002181807027366487 7.676879635330634e-20)
(1.207823719553863 0.1070102207773464 4.07672295686941e-19)
(1.011064608278834 0.006967428706315749 0)
(1.090665297240491 -0.07165898814350906 -1.052878074849819e-19)
(1.149066237955094 0.03737452427544278 0)
(1.208986993452988 0.0953965373579562 -1.92908548100843e-19)
(1.108020109579313 -0.02852633278982407 -7.606775983084385e-20)
(1.027661745040038 0.01153201485278618 0)
(1.085311411105812 -0.004680725433208319 0)
(1.019614446022885 0.02547860727621205 8.178652306487329e-20)
(1.073106255644075 0.05324836781603424 -9.263217385905342e-21)
(1.103752107861964 -0.004294604583798583 6.201865444230863e-20)
(1.109256688406168 -0.09749308694359635 1.540843743631878e-19)
(0.9597218163563893 -0.0005432285825552559 0)
(1.066479802413318 0.03127554117471121 3.876818022398372e-20)
(1.168591988432382 -0.07575773753537443 2.350879339988425e-19)
(1.052675269382874 0.04455700419535222 -2.92665355224304e-20)
(1.022559619533469 0.06732431676255687 3.755624391319966e-20)
(1.090661112521 0.02617247685571676 0)
(1.012522587389135 0.01760302495075449 0)
(1.0289861877971 0.009444982803565993 7.925185663368645e-20)
(0.9487317152517246 -0.0334209371167157 0)
(1.053153527611777 -0.005708561623463212 -7.954993635945108e-21)
(1.341354288029094 0.06084946345343459 -1.598809328528221e-19)
(1.080003370390642 -0.01329598150774211 2.570867895212933e-20)
(0.7440832396519117 -0.001778357259768032 0)
(0.5358412492625929 0.1569596629722685 -8.151876932550333e-20)
(0.7059420447398168 -0.002542070577581289 0)
(0.6990743026222133 0.01466229799961851 0)
(1.077721929817778 0.003532628139993012 -6.826425537013632e-22)
(0.9906332070948595 0.01449606183585728 0)
(1.279012499178364 0.1233288227717458 2.470996886427712e-19)
(1.012336629093554 -0.02787563163965972 -7.94266874322199e-21)
(1.041093171466958 0.02226489307077352 1.53575885886735e-21)
(1.058470656642283 -0.01187253292571825 0)
(1.126500413876268 -0.009213889245029567 -4.943368327473718e-20)
(1.25637290700896 0.1372160728964926 -2.204568072795609e-19)
(1.089062940649717 -0.01121180902112348 -8.479205769275882e-20)
(1.069833522702352 0.02569047653024456 -1.107472714630716e-19)
(1.04078127216473 0.04671436805198839 6.826757999189778e-20)
(1.022353173125008 -0.003665783637900555 -3.441041547905792e-20)
(1.061286385303069 0.02352363012060458 6.127342724967571e-21)
(1.130357735742757 -0.006021700161111344 1.080276116719217e-20)
(1.040976698099996 -0.01435890530113161 -4.726103239669779e-22)
(1.08775896131782 0.03481784863597465 0)
(1.028402363524883 0.01329073964707799 0)
(0.7740164105773715 -0.05800712695685691 -1.838262115121784e-19)
(1.030162153498072 -0.001880013649404323 -6.957650881926195e-20)
(1.134603167365015 -0.003441276775912709 -1.315004603570177e-20)
(0.7035029343346488 0.006569617446293882 7.441971633821784e-20)
(1.175530888351364 0.02040316068956715 -1.905271121155929e-19)
(1.126762502629339 -0.0006563243867586152 5.620524336117066e-21)
(1.128997569889766 -0.01005655290672564 3.487715229031319e-20)
(1.000941665024802 -0.002954095697588441 -7.675326338289873e-20)
(1.095964980209246 -0.0680819123158147 0)
(0.9845791769414651 -0.0007196432535921677 0)
(1.057999600933874 0.00708789592576888 0)
(1.005473600279087 0.1883084899616572 -2.480512970141031e-19)
(0.7794301949320704 0.01240593616452031 0)
(0.8568605291464162 0.1012564102866891 -8.464103867183604e-20)
(0.08221923914592953 0.04206654910528619 -3.06814848657904e-19)
(1.173462629650407 -0.03017224749979949 -2.218658888048092e-20)
(0.6713157194886362 -0.00732593683023635 2.432657200859136e-20)
(1.169302997169535 -0.1051941676317474 6.968254663834782e-20)
(1.124931909353007 -0.006067803450042065 -6.07954976211927e-21)
(1.156098859121059 -0.04890948858555758 2.156003236268437e-20)
(0.1012664988745402 -0.2093138742310975 0)
(0.2632299709069016 0.08884780852316038 0)
(1.25256233111371 0.1130566230849228 1.933176742495353e-19)
(1.021517162350637 0.01982968405332083 0)
(0.7377016694906093 -0.006328161078835007 0)
(1.075260952915261 -0.0119309120343644 2.691023279454533e-20)
(0.9751197518661293 0.002785954931946463 0)
(1.287296847259469 0.1315090168050361 -1.552016274909563e-19)
(1.057478628251625 0.01127098292468492 0)
(0.9933288223888967 -0.008039249967286503 0)
(1.065144293784964 0.008102242692039324 0)
(1.006172816533436 0.02081518473264255 1.748265528981367e-20)
(0.9270014025894667 0.01032534107549357 1.08532427466063e-20)
(1.176838308860989 -0.1993876797125597 0)
(1.005129896467817 -0.005211889981474337 7.754279955342048e-20)
(1.059165365902939 0.006276070961788457 0)
(0.7746380604960557 -0.00332303424731378 0)
(1.215818090036666 0.02919340042829502 1.674330995743305e-20)
(0.7050420004944153 0.001318428064819906 0)
(1.435130625303773 0.09029614200549142 -5.347716641745147e-20)
(0.993934398218018 -0.006915455836703163 1.691452866829789e-20)
(1.274833297188548 -0.0009585150516052098 -2.91804541913187e-19)
(1.059817200846914 0.008759917969930069 1.396524321493073e-19)
(1.000901727811085 -0.01361306156884024 0)
(1.218778200799949 -0.1512132083929793 2.03420962375407e-19)
(0.7331885752719258 0.01379273623064195 0)
(1.098210496867319 -0.005159012156836082 0)
(1.15122809375636 0.06699137760441187 2.036643877770399e-20)
(1.00700291877972 -0.007236847761222803 -3.019224117518928e-20)
(1.11976575046189 0.05110351400220728 -1.759701476485909e-19)
(0.1221754094168809 -0.08245398408661149 0)
(1.072299907454972 0.03729220231755474 0)
(0.6616004558897089 -0.002925689005874962 -6.898916221051936e-22)
(1.012124977998242 -0.01952335291185978 9.753254414041182e-20)
(1.061656634727979 0.0006617075445476909 0)
(1.082764878742177 -0.1267965822401834 3.743360961454761e-19)
(1.002651504948197 -0.006217431944858852 -3.488674905170325e-21)
(1.002004501725154 -0.005141737314744012 9.598918389488251e-22)
(1.093947595597026 -0.009310466163630718 0)
(1.020701608672613 0.02044314120976766 -6.247233486041651e-20)
(1.106688164222999 -0.001648666923724249 6.697266397917541e-22)
(1.073923175071639 -0.01120773654670443 6.545198188476203e-20)
(1.085814648803741 0.02238919730754509 0)
(1.330184198987518 0.1665175435813433 0)
(1.002010835495044 0.000147883504505059 4.416303373816995e-20)
(1.32323966306797 -0.1248431194346022 1.537388151731856e-19)
(0.05005798731372935 -0.1751783928710408 -2.565450666241018e-19)
(1.071346722789447 -0.005576119619413963 0)
(1.118061927742713 0.001457953429664752 1.228751825105693e-20)
(0.7269534551400044 0.01787274533408691 0)
(1.062957393865239 0.00257610015930153 0)
(0.8714861739509601 0.1673263160587342 4.794406274414254e-19)
(1.268300477109503 0.1281145341473716 1.857833638659514e-19)
(0.65426289983337 -0.00310960306477288 -6.278816718397175e-20)
(1.042379901193694 -0.005371559108914107 -5.836230271077464e-21)
(1.054865771913128 -0.0002921737751380787 6.647994475433802e-20)
(1.36151347648238 0.125980816264363 6.821706179973855e-19)
(1.335133213378217 0.2528820856304327 0)
(1.059585625442772 0.0006794071284777613 0)
(0.9970094635511789 -0.007534440833630036 1.531436255580407e-20)
(0.9942569831102823 -0.01189220116324359 4.221559588413049e-21)
(1.383036373102503 0.200614092236622 4.238698301534252e-19)
(0.6816615804299841 0.0006103988964520616 9.828658936158629e-20)
(1.005587294585865 -0.002038081189654809 -5.961806228774308e-20)
(1.098058886963557 0.01300931867071492 2.539664462510828e-20)
(0.6694728331276295 0.005014685673122897 0)
(1.066087518829051 -0.01201826954766299 0)
(0.9945114090710178 0.1387422875014582 -1.190124056942983e-19)
(1.085726234399257 -0.005305532768774157 -2.434648642400588e-20)
(0.9820958715339652 -2.873044258667565e-05 3.278438370657323e-20)
(0.9912102239742024 0.006029697505177943 0)
(0.638315810892585 -0.001130245402801881 0)
(0.9768826898993754 -0.00121692380884029 0)
(0.6420800641202581 -0.00150319769108282 2.713124492538928e-21)
(1.089787483430926 -0.05739138936472694 1.19784351346164e-19)
(1.11292477837215 -0.0002371758298599151 1.243594227357854e-21)
(0.9579955773586887 -0.0009260546566838372 3.91635434517782e-20)
(1.015619521128974 0.01043272102703104 1.66623544368079e-20)
(1.065323736997042 0.003787104875746402 -2.298789030097173e-21)
(0.6347360316885297 0.008855387872271015 -3.649431152945101e-20)
(1.001863070632128 0.01026246150847328 -9.118000999004937e-22)
(1.035113935371452 0.01099888122118849 5.086769936013635e-21)
(0.9881162228000192 -0.01138039377842938 0)
(0.610045430212491 -0.0004947880054506904 0)
(1.068638887891957 0.02274079285927115 0)
(1.016555879610812 -0.01549660640445829 1.058477908639536e-20)
(1.022553188851481 -0.005622736912148171 0)
(0.9913735487741944 0.01487678777367925 -9.403284442634446e-21)
(1.012081907534401 0.003848811314658046 0)
(1.1268774934637 -0.005264055099809073 -1.192719683510805e-20)
(0.03865022339175381 -0.1404512558108062 -4.44867520816398e-20)
(1.036644103678419 -0.01625858877217558 -7.410321274402865e-22)
(1.04372876220783 0.006021134997460285 0)
(1.084182035130198 0.06453103870623882 8.41397438741584e-20)
(0.9695675405765029 -0.00189732486692547 3.116137580883412e-20)
(1.020688046890826 0.01705353009560202 -2.376929061727369e-20)
(1.002704678655314 0.001419247506377431 2.496533796638863e-20)
(1.040922538010031 -0.005007391720990326 0)
(0.6409322011489738 -0.003994707672253807 0)
(1.025847863261084 0.02451849531937786 -7.253844634650133e-20)
(1.079788479213504 0.0004238597956803342 4.786685430418788e-20)
(1.016163615640782 0.002373447575874584 0)
(0.9799766300702035 -0.00313929808370314 -1.928346534691925e-21)
(0.8754629767903281 0.02429792920296853 -1.263715197005551e-20)
(1.014004172891715 0.002879436742291067 -1.023454521392029e-20)
(1.027308455773369 0.002702610307844482 1.791523400110601e-20)
(0.9804170508264483 0.002466207716084075 0)
(1.002552070006187 0.009635531391882751 3.509750684227811e-20)
(1.106701930777437 -0.003357810976537545 0)
(0.9252099338941884 -0.001368570387645713 -3.344802320443051e-20)
(0.9608267288735166 0.007850012292133311 0)
(0.9163840307532443 0.2118202113259738 5.213547311586681e-20)
(1.01080758668822 0.06690521088064962 0)
(0.9927998055020738 0.003795662899581938 -2.296848267903939e-20)
(1.054559700495367 -0.05396204047019557 -2.834944249900503e-20)
(0.9910301704002058 -0.0005952740461198706 3.426193159126185e-20)
(1.012160706804226 0.003160298878729864 0)
(0.9782618208293943 -0.0006146247108865754 -3.197986535078228e-20)
(1.168829021363969 0.09888382578416895 -3.354890128330126e-19)
(1.069337155468165 -0.2645155262471115 0)
(0.9935700599170739 0.001938628355258792 -2.202372918527474e-20)
(0.9815602052982406 0.007135612292553442 5.051093202126887e-21)
(0.9620360721674278 0.004954432053895725 1.033152586858733e-21)
(0.7459524175128457 -0.001080422448260246 0)
(1.117684598455882 -0.08184678756828763 0)
(1.006884671833297 0.003666367012290176 -2.163856939879617e-20)
(0.8989321589302299 0.002495257300000372 -9.883126706991215e-21)
(0.8558875086455835 0.01888091837418985 4.653939326047629e-21)
(1.012284989151463 0.003316661900790252 0)
(0.9487916025721249 0.0033536937781852 1.51363062144887e-20)
(1.005730920442043 -0.0002598954520388678 -2.312531065968411e-20)
(1.020446375254343 0.0008575317162193384 -2.582130194074141e-20)
(1.112309477382248 -0.003312155917622947 -4.924593111314699e-21)
(1.117588273106128 -8.542482362161678e-05 0)
(1.01413162900713 -0.006340739786028458 0)
(1.022094031155978 0.003391531057680791 0)
(0.9469438391274093 0.003110130786267594 -2.166475537608205e-20)
(1.017873087998972 0.01343880811994294 5.323947035788381e-20)
(1.07929946960957 0.004691012430788751 -2.208807185371725e-20)
(1.038778325132403 0.0006538264003147064 0)
(1.105812663317589 -0.006603109264686889 1.828244775979316e-21)
(0.9961002566566952 0.002504940067571791 -2.205974268717849e-20)
(0.9860441455266497 0.006818824493543929 0)
(1.012039822928442 0.002740110893151969 4.664647192506702e-20)
(1.366697378450801 -0.3142603860630805 -1.133162467045418e-18)
(1.122861580277983 -0.04447058108421247 -1.082086388353323e-19)
(0.9686094427971466 0.003818664450085768 4.829783423973352e-20)
(0.7798982375345767 0.01696315693959405 -3.162006953181941e-20)
(1.22052902201715 0.05311839709900059 0)
(1.223125707548872 -0.1359782905579657 -1.464688714876868e-19)
(1.078392052265301 0.006483049171525384 0)
(1.008910540644082 0.001791090217239131 2.226313518289518e-20)
(-0.1609836997889608 -0.1052806936543084 0)
(0.9939685714768444 -0.004652496822026991 0)
(1.012444405514521 -0.02317724882250367 4.580132930562471e-20)
(0.7061450598096368 -0.01944074747518973 0)
(1.096799163211132 -0.01490810427492361 2.148500046910751e-21)
(1.043680783903418 -0.01064139966966461 1.706411501159022e-20)
(0.6331176344860471 0.004158292095608526 0)
(1.448501104496994 -0.1221409740464995 0)
(0.9869140793473807 0.001465325108201807 -1.085981084014369e-20)
(1.069759757695427 -0.01495723756528877 0)
(1.038055537613042 0.0004352911580406008 2.165861144729375e-20)
(1.084477875401947 0.00413885352389205 0)
(1.00879478786177 0.005151985805794199 -1.055941005519096e-21)
(1.006013618845774 0.002955365708361714 0)
(1.014312780592203 -0.01479316749907073 6.248864065697231e-22)
(1.003280505334525 -0.02064702677692441 0)
(1.033758819146676 0.005917315293789788 1.747681365740896e-20)
(-0.1979300585790326 0.03882581546435276 2.644586290448848e-19)
(0.8144745074456889 0.03063834258183144 5.302529824927947e-20)
(1.005710964450227 0.002038632329830078 0)
(1.13249723192611 0.02400853060664569 -1.233406437544836e-20)
(1.121126013620595 0.019990015738435 8.630065835644016e-21)
(1.054194689777674 -0.01312367714441905 -1.274971893497588e-19)
(0.9987856380839689 0.01035038077570043 1.275638645869127e-21)
(1.078539210047361 0.006890705843861884 0)
(1.185203415361045 0.05310176518709707 0)
(0.8354124219759175 -0.0758578101011097 4.590625440506292e-19)
(1.101608606157436 -0.009742727800131201 0)
(1.032531409630433 0.007508386134408417 -7.396301030225198e-21)
(1.042647885150425 0.005191516055708212 6.144003175224881e-21)
(1.053159176432821 -0.06182956744752943 -7.493484355500234e-21)
(1.140116112407745 -0.001102664330472092 1.663856862409524e-19)
(1.082529049494136 -0.008029302264647894 0)
(0.9950445881727159 0.001236134961864521 0)
(0.9960823873139609 -0.02439736352716894 -2.25958632877695e-21)
(0.9909847512061448 0.002570233939037319 0)
(1.029846944351565 -0.03873516351808221 6.352270570982805e-20)
(1.293843986380308 -0.09272344213008372 0)
(1.047233752195983 -0.01442486421224958 -1.068865524513031e-21)
(0.9861537106116581 0.01694353902704436 -8.467972068072678e-20)
(1.034592340813872 0.04077533497041917 -2.426351080101187e-21)
(-0.08917476010777591 0.1547257220367161 -1.626990381727618e-19)
(-0.06375264394984551 -0.2979036886266577 -1.401130970446025e-19)
(0.8751932169878509 0.1345557272283222 0)
(0.2956801705568431 -0.01173651594310445 -3.214726895336434e-19)
(1.010542241622179 -0.0120593932386913 -1.629454549505624e-20)
(1.063876537249754 0.002628244413934955 -2.120680377931517e-20)
(0.9925520584098464 -0.01843744773772427 2.879916038525839e-20)
(1.021299354785969 -0.02847600746118835 2.496325553913476e-21)
(1.008681615659679 -0.03213110444306806 -6.522690172475212e-20)
(0.9887438547129122 0.004834905228788438 -3.467139670742259e-20)
(0.9930556412546861 0.004494536818359125 0)
(1.025229044029352 -0.001982257016134151 -3.583213150821072e-21)
(1.93780449467394 -0.1552007551124244 1.078608279893383e-18)
(1.048536033909043 -0.008429211423951954 0)
(0.9952979852522044 0.007908556607657258 1.553136023473424e-20)
(1.002828371879323 -0.0001199119866814112 4.086083096556629e-20)
(1.167876701082752 0.1326169181674496 0)
(0.999119790826031 -0.002840858754805696 2.530700953773411e-21)
(0.9488606781883445 -0.003318426670226707 0)
(1.037840409749245 0.04175924218010328 0)
(1.303099536309994 0.1663147865609731 2.315108443724299e-19)
(1.086344780302879 -0.009915130903889412 2.257418543316508e-20)
(1.018703557400232 0.03127940770079214 4.726433003647118e-20)
(1.086512736303894 -0.01091072758872311 -2.178803360968703e-20)
(1.047603556142031 -0.003616956654924372 -2.469761129363654e-21)
(-0.3840939844314129 -0.0437060731328197 0)
(0.9983015789617504 0.01449429630857234 0)
(0.1082242222635302 0.05894179105191011 -8.49237644405093e-20)
(1.006758378349513 0.02274560333099249 -4.177898385002578e-20)
(0.9925812396472211 -0.002777862744224151 0)
(1.000716658872524 0.005871099041519985 -5.075866325358694e-21)
(1.081528447528363 -0.04222564032924157 0)
(0.9957243658281801 -0.01698038534747892 -7.68301299894272e-21)
(1.091847335162246 -0.05551717630077799 0)
(1.443323285768224 0.1797112662083212 0)
(1.054212676680241 -0.01197049566234263 0)
(0.9905190961342345 -0.02261939061486202 -3.869404553000092e-20)
(0.9884459640590059 -0.04544655732405008 -2.265867301210716e-21)
(1.017308990369146 -0.01677519577305085 -1.677862511666712e-20)
(0.9975107023291205 0.01686705835453754 -5.695407129300462e-20)
(0.9950463792924654 0.01045138436431635 -1.513635963098597e-20)
(0.9935778219124044 -0.02738613374129121 0)
(1.003259971131027 0.02518223740256124 1.977157715156854e-20)
(1.048671188557124 -0.04342309302622385 0)
(1.110990047526895 -0.03560890015569489 2.642000372602111e-19)
(0.9955858732652263 0.0173438901712473 4.696436654959752e-20)
(0.6151119778969352 -0.008667862298857134 0)
(1.134833347793404 0.1348323377285479 -5.421409730231543e-21)
(0.8579814080909854 -0.10453431391692 0)
(1.138281405987457 0.07330464949270092 -2.675336353656422e-19)
(1.31623201076202 -0.3884701349503993 1.30147835506065e-19)
(1.074137509302198 0.06064126161656008 -1.319762736870246e-20)
(1.009492653754331 -0.03120381680741476 0)
(0.9558514171936695 -0.2157369772648753 0)
(0.4989105674817778 0.1407661808836967 0)
(1.013405108194681 0.009502229100206164 1.25209394917323e-21)
(0.6905218317852714 -0.02734800872358238 0)
(0.9988459163740291 0.01831187389029021 3.596635034731085e-20)
(1.022165715726564 -0.004380027909894771 -2.792955763589222e-20)
(1.079115584138916 -0.008096217204856322 2.819402721990123e-21)
(1.038799753971503 -0.008979354842410634 3.395138498669333e-20)
(1.042435020048709 0.01121896655380503 0)
(1.062154230926761 0.02959593133024184 -9.966946452254853e-21)
(1.050276149997783 0.03452140892199235 -1.837304462349868e-20)
(0.9825438781681373 -0.02222251547090987 0)
(0.6249449629950715 0.005122366582144371 9.182139503849334e-20)
(0.8941635523829837 -0.005869315196078865 -8.857264032094927e-20)
(0.9093736769992133 0.00533928746823849 1.442776849155729e-20)
(0.629551803689919 -0.006383653672125742 1.404545955452833e-20)
(0.9783566111979606 0.001116752094883699 2.628588865316841e-20)
(1.004461907624207 -0.01752752671128832 -3.619975918620795e-20)
(0.9695654971518892 -0.02243133069752206 -3.649130482173499e-20)
(1.085489251675325 0.00153417825685834 0)
(1.019758147136602 0.00433586905656942 1.044327952256183e-20)
(1.132649246965364 0.04895133532878644 1.294980776287029e-19)
(1.033742257668763 0.04058882741567109 0)
(1.022225877608553 0.00255778350809721 0)
(1.584941942563455 -0.1666095667742027 4.424888803257397e-19)
(1.044616128958079 -0.03921843284281645 0)
(1.017846472397199 0.006559506712178788 -3.806877607726691e-20)
(1.088106144032889 -0.002032934570658449 0)
(0.479355061579616 -0.03566437123773061 0)
(-0.02494807064915022 0.02045927962012806 0)
(0.9902734164745863 -0.02433128727138352 1.210442723290655e-20)
(1.30136425600083 -0.09493088442913133 3.77414049703818e-19)
(1.035926888680135 0.03735980659784002 0)
(1.022313701893009 0.003312128576712008 -2.263111697725393e-20)
(0.9632724498340216 -0.1636491887011113 3.319706061830997e-21)
(1.253157937349918 0.07871945413978551 0)
(0.5975441359772652 0.7300168660107867 0)
(1.312592887799622 0.1524897054081837 1.124804745857114e-19)
(1.678589319689842 -0.02428867101154794 0)
(1.056447143424117 0.1069452502281679 0)
(0.7118769030624094 -0.01919457468153843 2.660413049517493e-21)
(1.052865257101708 0.04547740304519451 0)
(0.7266579363597661 0.1104713114144907 1.159743684600899e-19)
(0.9967700181913218 -0.01652791423985661 3.567755657606656e-19)
(1.033714999994243 -0.04182551093273076 2.742737534126157e-20)
(-0.3788097971878415 -0.002056919997759977 0)
(1.071750500724018 -0.01642988308583216 0)
(1.094706980266796 -0.008169184896928309 0)
(0.6486210169136856 -0.5035210089819955 -2.471046517117828e-19)
(0.9914208623982983 -0.001510605394178606 0)
(1.092027107935316 -0.02140482153050451 3.773610050922052e-22)
(1.187669574078569 0.1215425331967656 -1.982502974915878e-19)
(1.088906554368136 -0.04367279341822836 0)
(1.005461109912264 -0.02142433727472273 0)
(0.8098163683581849 -0.1818816765004152 -1.705452349899694e-19)
(0.8927896008144126 -0.1285576099910822 1.564447578995363e-19)
(1.027371241198723 0.01242685022075918 -2.276723396225574e-20)
(1.023109628139367 -0.009100250547921841 -4.641552601045582e-20)
(0.875965155266536 0.01276729766422673 -1.655788316554394e-22)
(1.506136722775935 -0.1929682997941513 0)
(1.302794585859846 0.1217684270464992 3.164282989148918e-20)
(1.245638222478471 -0.07467075474680665 -3.041445989036159e-21)
(1.095779293957224 -0.01847147472363193 -3.823795416698195e-20)
(1.041214299131056 -0.01149672435264432 2.39667243521094e-20)
(1.09282906411933 -0.03910735526191187 9.031742780435536e-20)
(1.032015846876372 0.01975898177993995 0)
(1.044222292096192 -0.03538046933353092 0)
(1.115921151936283 -0.008984038781749831 0)
(1.08753890524702 -0.02970469864136729 0)
(0.9979045554471018 0.01116972610640233 0)
(1.147897678240566 0.07738549921985544 9.527468701956084e-20)
(1.340430043887979 -0.1480954561821284 0)
(1.036859605264828 -0.02174824920299704 -1.836785356575601e-22)
(1.052751931787621 0.05068701062067929 0)
(1.010122298970228 0.0147281426943765 -3.99841540557453e-20)
(1.033870172515638 -0.00781957537523148 9.032038505715959e-21)
(1.088947306503531 0.01340100071698328 -3.280878490203264e-20)
(1.085380585137846 -0.02901104021474119 0)
(1.074292544711823 0.001113531832841936 0)
(1.108763050100078 0.09499480805841959 -1.429875274117857e-18)
(0.9355005656024327 -0.1499447883582461 -7.059593978960241e-20)
(1.169011827260238 0.1066567693618037 1.107033090152888e-19)
(-0.4852172339748643 0.01211600709838251 -2.920690022435003e-19)
(1.019039127455502 0.02855912766824449 -8.925196902094604e-20)
(1.004045379212395 -0.0007788524984827729 0)
(-0.2966510553136711 0.03606715147804435 3.55782100127505e-19)
(-0.05136727717858987 0.3056451003643983 7.781099678639451e-21)
(0.9952289760673134 -0.006283952280979246 9.930294063207024e-20)
(0.1911812226305946 -0.03968088276712989 1.438856597030537e-19)
(1.09372193049947 0.08052175267911035 1.501137309896179e-20)
(0.09415492057924943 -0.1099681987892852 -5.519487478277123e-20)
(1.107982160582232 0.003025536521910553 0)
(1.104547256715911 0.259488419141918 0)
(1.021774423489852 0.02176930481407872 -1.747353531132822e-20)
(1.074249768321244 0.05417391905646325 0)
(1.026538817681543 0.02672485032676061 -9.638328291502912e-21)
(1.263698278361958 -0.5489745363891921 8.063901272328849e-19)
(-0.1060562803838395 -0.1971897986467768 2.222672475671737e-19)
(1.296861756440148 0.1187226328348873 -6.368147243663245e-19)
(1.122348701407195 -0.003007670102537105 0)
(1.127813395157325 0.09451435261555106 0)
(0.5296888935960238 0.08365719902341849 2.573505986905589e-19)
(1.023547423770025 -0.02092877614363054 9.261027691615964e-20)
(1.005972225837938 -0.02400814334273588 0)
(1.21098725526784 0.270991965651606 -9.500565203933892e-20)
(1.260292669409064 0.140332431143955 -1.617467793921287e-19)
(1.026649690472206 0.003028156400126562 1.521826879438803e-20)
(1.301623547472274 -0.08450046055453832 -5.033416629659164e-19)
(0.2920829226087471 -0.01312226701570791 2.591682806228092e-19)
(0.8251628251270243 -0.1446418496605242 6.625711804138988e-19)
(1.051530983522249 0.05547952552372949 1.049905010605238e-19)
(1.040617257203714 -0.005914721066407135 1.758447890056225e-21)