/*--------------------------------*- C++ -*----------------------------------*\
| =========                 |                                                 |
| \\      /  F ield         | OpenFOAM: The Open Source CFD Toolbox           |
|  \\    /   O peration     | Version:  2412                                  |
|   \\  /    A nd           | Website:  www.openfoam.com                      |
|    \\/     M anipulation  |                                                 |
\*---------------------------------------------------------------------------*/
FoamFile
{
    version     2.0;
    format      ascii;
    arch        "LSB;label=32;scalar=64";
    class       surfaceScalarField;
    location    "47.5";
    object      phi;
}
// * * * * * * * * * * * * * * * * * * * * * * * * * * * * * * * * * * * * * //

dimensions      [0 3 -1 0 0 0 0];

oriented        oriented;

internalField   nonuniform List<scalar> 
1171
(
-0.945484
0.945484
0.762334
-1.06014
0.297806
-0.282702
-0.8254
1.1081
0.0545164
-0.0718155
-0.269306
0.341121
-0.762334
0.0716939
0.69064
0.895073
-0.179715
-0.715358
0.82412
-1.0145
0.190377
-0.34328
-0.0436962
0.386976
-0.00381843
0.59433
-0.590511
-0.596605
1.06351
-0.466901
-0.415096
0.983419
-0.159298
0.337859
0.0673308
-0.405189
1.006
-0.0225862
0.402498
-0.0646393
1.02392
-0.0179178
0.728668
-1.01137
-0.783464
0.608972
0.174492
0.319771
-0.916376
0.562079
-0.91701
0.354932
-1.07739
0.661947
0.415441
-0.638689
0.634871
0.0404887
-0.263263
0.222774
-0.0190933
-0.641032
0.660125
0.455913
-0.499609
-0.874303
0.921707
-0.0474037
1.03648
-0.0125597
0.92746
-1.08655
0.159094
1.06918
-0.0326947
-0.69756
-0.0859035
1.25716
-0.862134
-0.395029
0.194874
-0.0733746
-0.399448
0.472823
-0.276858
0.178809
0.0980486
-0.588709
-0.471431
0.98325
-0.0557902
-0.00957028
0.843684
-0.834114
0.505594
0.751569
0.520955
0.0171626
0.43875
-0.77207
-0.111624
0.883694
0.606536
0.242003
-0.848539
-0.060608
0.675104
-0.614496
-0.505378
-0.57201
-0.394947
-0.691607
0.0191982
0.245826
-0.265025
-0.932079
-0.0340814
0.96616
0.360961
0.0260153
0.86548
0.0295933
-0.595614
-0.0430752
0.0498902
-0.82196
0.189553
0.950138
-1.13969
-0.405962
0.0125688
0.393393
-0.709391
-0.222687
-0.768505
0.958058
0.578245
0.485262
-0.573349
0.989523
-0.816957
-0.172566
0.183345
-0.223497
0.040152
-0.44786
-0.0517488
-0.345959
0.924203
-0.00465252
0.418605
-0.413953
-0.511267
1.1178
0.699146
-0.810771
0.369157
-0.0555207
-0.313636
0.776184
-0.776184
-0.978168
0.0456797
-0.314985
-0.682965
0.673395
-0.0404287
-0.144038
0.184466
0.870245
-0.0265611
1.0526
-0.8106
0.21496
-0.313432
0.0984718
0.990332
-0.124853
-0.675907
-0.0504686
0.726375
0.152296
-0.238523
0.0862277
0.807119
-0.986834
-0.449797
0.314483
0.135314
0.63144
-0.650533
0.890921
-0.404089
-0.486832
0.495974
-0.695999
0.0393946
0.656604
0.141793
0.664811
0.0429499
-0.707761
0.140089
-0.0944091
-0.522549
0.116588
0.0348405
-0.89936
0.864519
-0.573701
-0.756448
0.0588877
0.487616
-0.048866
0.272527
-0.831834
0.559307
0.424083
0.575917
0.598886
-0.548996
-0.364505
-0.00867833
0.373183
0.553738
0.222446
-0.678992
0.618384
0.0881676
0.878813
0.0042686
-0.680175
-0.763803
0.798644
0.614343
0.126338
0.332043
-0.458382
-0.160013
0.499367
0.175738
0.717009
-0.838661
0.121652
0.647166
0.342357
-0.428662
0.714215
-0.587877
0.409308
0.152771
-0.0622251
-0.558531
-0.227555
0.786086
-0.121116
-0.655068
-0.614746
0.368893
0.245852
0.656354
-0.652085
0.300693
1.03763
0.0149772
-0.763803
0.0265936
0.156752
0.699146
0.779272
-0.779272
0.840472
-0.82586
-0.014612
-0.457207
0.88129
-0.194498
-0.328051
0.759554
-0.668291
-0.0912631
-0.843139
0.284608
0.111396
-0.70701
0.810771
-0.970784
-0.181951
0.13445
0.0475016
0.113633
-0.983947
0.870314
0.536653
-0.0156977
-0.295416
0.599567
-0.304152
-0.648977
0.76261
-0.160603
0.7876
-0.592108
-0.195492
1.03933
-0.510432
-0.528903
0.717047
-0.0712031
-0.0449543
0.0457312
-0.000776946
-0.799523
-0.71877
-0.10663
-0.682965
0.575877
-0.563308
0.0489957
0.589943
-0.638938
0.778415
0.167068
0.494607
0.505393
-0.0921973
-0.577843
0.67004
0.738975
-0.0219664
-0.717047
0.798644
0.177446
-0.440709
0.0212361
-0.0469305
0.0256944
0.677001
-0.453331
-0.22367
0.69064
0.0456284
0.06883
0.534273
0.142727
0.00503892
0.00492258
-0.0099615
-0.00464866
-0.0403056
0.151475
-0.206996
-0.939874
0.0536787
-0.141231
-0.030476
0.132047
0.771845
0.744082
-0.168166
0.430587
-0.381591
-0.166779
0.381739
0.634
0.0566399
0.232828
-1.05869
-0.970784
0.312095
0.673395
-0.165241
0.0212035
-0.825523
0.954326
-0.128803
0.490472
-0.0970794
0.793316
0.304001
0.327741
0.0747568
-0.68051
0.68051
0.230914
0.65278
-0.0147694
0.433375
0.458054
0.0644087
-0.0431725
0.544927
-0.00827449
-0.648977
0.566696
0.192858
0.0480221
-0.00229089
-0.634
0.144184
0.810142
-0.0173689
-0.720232
0.737601
0.755314
-0.824579
0.0692644
-0.778415
-0.044465
0.0576283
-0.0131634
0.0829896
-0.140129
-0.113515
0.253644
-0.0111752
0.0162141
0.723628
-0.740997
0.884303
0.2238
-0.446199
-0.551296
0.997496
0.00112328
-0.00112328
0.125771
0.355299
0.786451
-1.14175
-0.186563
-0.561642
0.748205
-0.0131836
0.19765
0.392146
-0.239851
1.13866
-0.783361
0.795401
1.01363
-0.227174
0.197648
0.76261
0.603312
0.265067
0.65664
-0.655068
0.31949
0.0350407
-0.0279303
-0.0071104
0.76636
0.232578
-0.998938
-0.585394
0.5527
0.542793
-0.585394
-0.603312
0.5527
-0.0475523
1.10354
-0.219239
-0.553738
0.481521
0.0722166
0.511641
0.703564
-1.2152
0.332068
0.806592
0.768038
0.404155
-1.17219
0.238597
0.775029
0.481521
-0.525443
-0.609303
-0.635192
-0.215862
-0.00216537
-0.000555733
0.000555733
0.430032
0.656455
-0.872317
0.710245
-0.378202
-0.954412
0.443981
-0.678709
0.456022
0.0378276
-0.834399
0.796571
0.448666
-0.0499712
0.816331
-1.2147
-0.935173
0.0672867
0.867886
0.563938
-0.199953
-0.363985
0.802274
-0.858064
1.13655
-0.841636
-0.294914
-0.179055
-0.659606
-0.114356
0.725547
-0.611191
-1.02315
0.844098
-0.432492
0.759762
-0.32727
-0.964279
0.237389
0.72689
0.00509884
-0.00397556
0.425298
0.0781548
-1.02297
0.944817
-0.718683
0.626486
0.931102
0.21146
-1.14256
-0.00407137
0.00618641
0.366997
-0.356574
0.0431414
0.919605
-0.881777
-0.740479
-1.01874
0.359133
-0.0784761
-0.980149
0.138513
0.627985
-0.197398
0.351858
0.21208
-0.595748
0.833137
0.486832
-0.88437
-0.811692
0.291849
0.0873471
0.637033
-0.72438
-0.183578
-0.653132
0.581654
0.173661
-0.041285
0.857616
0.911385
1.03553
-0.897018
0.0480742
-0.0480742
-0.11626
-0.532965
0.333012
0.325785
-0.0136901
0.37337
0.674039
-0.0346469
0.0234717
0.657824
0.342176
0.798608
-0.588709
-0.75396
-0.491802
-0.505296
0.505296
-0.202634
-0.112351
0.725251
-0.95016
0.224909
-0.532416
-0.565461
0.358701
-1.05031
-0.99239
0.697476
-0.514785
0.873919
0.706191
0.143986
-0.850177
-0.819072
-0.165671
0.800815
-0.635144
0.318352
-0.0284829
0.00516803
0.0233148
-0.195638
-0.337327
1.08395
0.810304
-0.485005
-0.325299
0.446319
0.727864
-0.49695
0.00625806
-0.283116
0.187986
0.739236
-0.927223
-0.344116
-0.100299
0.122546
-0.969165
-0.0297731
-0.806174
0.000288771
0.750128
-0.750417
-0.800423
-0.00575056
0.64864
-0.748939
0.236375
-0.376504
-0.563739
-0.255333
0.375912
0.737202
-0.0229867
0.0143602
-0.0143602
0.00436685
0.0629321
-0.0278914
-0.0220995
-0.0125474
-0.761137
0.308603
0.836374
-0.779722
-0.0566528
-0.667087
0.667376
0.7246
-0.0759598
-0.680794
-0.119629
-1.16761
0.0201525
0.0279217
-0.573151
-0.79515
-0.896038
0.501009
-0.1877
0.137631
0.0500689
-0.475779
-0.0973722
0.511801
0.71234
-0.0428245
0.0123485
1.2245
0.493288
0.236978
-0.730267
-0.564159
0.0883799
-0.0170941
-0.0113888
0.649022
-0.876577
0.00631343
-0.00631343
-0.716808
0.677187
0.0396214
-0.2123
-0.0937641
-0.689028
0.13608
0.53396
-0.0576486
-0.854699
-0.149388
0.151014
-0.00162604
0.713882
-0.770534
0.336352
0.269955
-0.606307
-0.146128
-0.66496
-0.0854573
-0.22352
-0.0133078
0.461953
-0.513702
0.19939
0.701847
-0.901237
0.495974
-0.0678694
-0.11983
0.369338
-0.382646
0.599971
-0.0908912
-0.50908
-0.281815
0.299876
-0.0180603
0.616678
0.0935675
0.0596406
-0.306331
0.1625
0.14383
-0.172451
0.199044
-0.214134
-0.196888
0.197264
-0.000376632
0.765628
-0.429295
0.216995
0.548967
0.218788
-0.703793
0.43743
-0.43743
-0.216231
-0.41311
-0.223382
-0.41311
-0.641553
-0.847569
0.179279
-0.0962832
0.72804
0.0366628
0.147013
0.590189
0.110437
0.121185
0.00682142
-0.128006
0.0547306
0.723381
-0.998742
0.447445
-0.0089912
0.0808014
-0.0718102
-0.711104
-0.169269
-0.586965
0.823944
-0.541575
-0.0594746
-0.323171
-0.327327
-0.0843046
0.0843046
0.0464973
0.011131
0.141337
0.336675
-0.763691
0.176725
-0.0369215
0.468244
0.531756
0.686126
0.0487733
-0.0297777
-0.0189956
-0.291786
-0.562913
-0.607452
0.109092
-0.115077
0.00598499
-0.0865261
-0.418942
-0.0190391
0.552999
-0.546153
-0.164951
-0.282972
0.112431
0.174895
-0.478963
-0.195813
-0.197031
-0.00996486
-0.503177
0.430973
0.0722038
-0.202495
0.290273
-0.862283
-0.53327
0.60773
-0.833894
0.687765
0.439561
-0.0387747
0.0687761
-0.0300014
-0.103158
-0.638086
0.0171589
0.620927
-0.891619
0.619781
-0.736041
-0.301265
0.00937903
-0.00937903
-0.300073
0.417788
-0.0507915
0.0551509
-0.00637763
0.591356
0.694305
-0.572653
0.00822044
0.012678
0.00168219
0.00366585
-0.00366585
-0.520614
0.614181
0.0108
-0.0108
-0.763217
-0.0121294
0.0172282
-0.576781
0.753507
0.624351
-0.584729
0.0700135
-0.0700135
-0.0612652
0.0180926
0.000618712
-0.889418
0.360516
-0.470545
-0.00397556
0.573515
0.0318246
-0.60534
-0.691039
0.144886
-0.322357
-0.0138656
0.336222
-0.0365324
-0.0062921
-0.597981
-0.040105
0.0279217
0.00597972
0.00033371
-0.00336484
0.00336484
-0.374075
0.373698
-0.445215
0.139252
0.659356
-0.140078
-0.00919219
0.00919219
0.507639
-0.266883
0.00825575
0.0185427
-0.000309708
0.464043
-0.730926
-0.504572
0.721567
-0.0527567
0.326708
0.747498
0.00436685
-0.120407
0.118116
-0.648015
0.553809
-0.401647
-0.117524
-0.0163273
-0.0251522
-0.0518772
0.449779
-0.0928312
-0.416248
0.661204
-0.00311012
0.00890002
-0.00890002
-0.118661
-0.0373997
-0.576001
0.612663
-0.15229
0.506736
-0.225888
0.954556
0.717631
0.00597972
-0.860792
0.786461
0.135512
-0.176387
0.0408751
0.519072
0.0921856
-0.013566
0.0744763
-0.0609103
0.0102012
-0.0102012
-0.781692
0.0219392
-0.0469282
0.065471
-0.0900076
0.0900076
0.012678
-0.00482534
0.6914
0.118742
-0.32257
-0.0963719
-0.514152
-0.14746
-0.0702335
0.0702335
-0.0802608
0.080982
-0.080982
0.0291372
-0.0291372
-0.347474
-0.0811882
0.245408
0.0690745
0.0440913
-0.748825
-0.069778
0.165404
0.0120426
-0.266803
0.0799397
-0.0799397
-0.459761
-0.0539411
0.238817
-0.0160423
0.00261488
-0.604053
0.651605
-0.0259886
-0.0542721
0.0538388
-0.0357461
-0.0109685
-0.155941
0.16691
-0.153811
-0.222693
-0.0849411
0.0849411
0.0580544
-0.0580544
-0.0329109
-0.0959409
0.128852
0.0477915
-0.183343
-0.0315353
0.0332175
-0.288928
0.662626
-0.0262503
0.464579
0.00276927
-0.0127308
-0.0545778
0.0545778
-0.718882
0.327885
-0.130237
-0.21487
-0.0236534
-0.0203637
0.0229786
0.21487
0.0387746
0.00375515
-0.00406486
0.0794078
0.029684
0.0534205
0.111983
0.017025
-0.00467645
0.00258659
0.00447753
0.00668909
0.0136331
-0.0203221
0.003778
-0.000340846
0.0303707
-0.0303707
0.0541125
-0.0393918
0.0393918
-0.194073
-0.00825325
0.0155873
-0.0769487
0.018936
0.0750608
-0.0750608
0.287074
-0.251988
0.0981772
-0.0699533
-0.182035
-0.0193612
0.0193612
0.401697
0.254908
-0.514253
-0.0819222
-0.0331546
0.540949
0.10163
-0.0816322
-0.430959
0.080025
-0.159134
0.176054
-0.0169201
-0.0453768
0.0453768
0.827523
-0.596336
-0.0186062
0.0223842
-0.00570292
-0.28162
-0.0010423
0.00506646
-0.0485745
-0.614474
0.568093
-0.668735
0.0147076
0.239215
0.0156557
0.0254406
-0.164837
-0.338511
0.261562
-0.0605946
0.0276837
0.164905
0.13497
0.22591
0.274058
-0.258403
0.0070228
-0.116715
-0.228736
0.0716041
-0.0181836
0.169261
-0.143821
-0.0697189
0.149127
-0.39878
0.130864
-0.111928
0.0610083
-0.477257
0.181121
0.170998
-0.240717
0.0034143
-0.175044
0.174002
0.0048789
0.144248
-0.0285918
0.0542201
0.453418
0.0110095
0.0369435
-0.0128561
0.0403188
-0.245656
-0.203197
0.589101
0.176581
0.0622355
0.0857776
-0.0608428
0.00921687
0.0316582
-0.0301612
0.172175
-0.157467
-0.0149337
0.0146113
-0.106067
-0.0307961
-0.0196102
0.255156
0.00860245
-0.0265293
-0.319772
-0.0145453
0.21414
0.147998
0.179887
0.0573339
0.102602
0.0524982
0.538858
-0.0177355
0.0968867
0.0483449
0.0617464
-0.110091
-0.259345
-0.205332
0.0232973
-0.222101
0.296475
)
;

boundaryField
{
    FrontBack
    {
        type            empty;
    }
    Top
    {
        type            calculated;
        value           uniform 0;
    }
    In
    {
        type            calculated;
        value           uniform -1;
    }
    Bottom
    {
        type            calculated;
        value           uniform 0;
    }
    Out
    {
        type            calculated;
        value           nonuniform List<scalar> 10(1.10011 1.03708 1.2445 1.04519 1.10772 0.990891 1.08649 1.09788 0.653661 0.636493);
    }
    circle
    {
        type            calculated;
        value           uniform 0;
    }
}


// ************************************************************************* //
