/*--------------------------------*- C++ -*----------------------------------*\
| =========                 |                                                 |
| \\      /  F ield         | OpenFOAM: The Open Source CFD Toolbox           |
|  \\    /   O peration     | Version:  2412                                  |
|   \\  /    A nd           | Website:  www.openfoam.com                      |
|    \\/     M anipulation  |                                                 |
\*---------------------------------------------------------------------------*/
FoamFile
{
    version     2.0;
    format      ascii;
    arch        "LSB;label=32;scalar=64";
    class       volVectorField;
    location    "47.5";
    object      U;
}
// * * * * * * * * * * * * * * * * * * * * * * * * * * * * * * * * * * * * * //

dimensions      [0 1 -1 0 0 0 0];

internalField   nonuniform List<vector> 
808
(
(0.897957 -0.00917719 0)
(0.998699 -0.0347535 0)
(1.24173 0.0265028 0)
(1.06612 0.00982207 -2.77533e-21)
(1.45323 -0.261728 0)
(0.950977 -0.0278094 0)
(1.12268 -0.0125039 -8.6865e-21)
(1.08931 -0.0122647 0)
(1.32123 -0.200896 1.98473e-20)
(1.21242 -0.0803952 1.11099e-21)
(1.31473 -0.117577 1.40404e-21)
(1.35457 -0.224569 0)
(0.963632 -0.012764 0)
(0.724615 -0.0141645 0)
(1.23197 -0.0801833 2.56864e-20)
(1.072 0.00533753 0)
(1.09541 -0.0115354 -9.45542e-21)
(0.993171 -0.00238559 -1.71164e-22)
(1.38007 0.0505648 0)
(1.11772 0.00178559 0)
(1.38161 -0.0834615 -1.95947e-21)
(0.924791 0.135182 1.0448e-19)
(1.06985 -0.000698169 -1.29326e-20)
(1.1651 -0.042613 0)
(0.975627 0.204658 0)
(1.31747 -0.0822297 -3.6082e-20)
(1.25425 -0.159626 2.88132e-21)
(1.01229 -0.023913 -5.92305e-21)
(1.10832 -0.0212521 0)
(1.06145 0.0330925 -1.91774e-22)
(1.03108 -0.0455265 8.60373e-24)
(1.11699 -0.0119051 0)
(1.03469 0.0545903 0)
(1.1181 -0.0410155 4.80907e-21)
(1.26266 -0.0723967 3.42023e-21)
(0.747064 -0.0898142 1.11555e-19)
(0.857408 -0.0232292 -1.3498e-20)
(1.0405 0.0507425 7.81271e-22)
(1.16279 0.0305966 -4.95038e-21)
(1.09176 0.0326416 0)
(1.23997 -0.0769496 -5.14999e-21)
(1.25633 -0.119538 0)
(0.991426 -0.0169022 -8.72897e-21)
(1.15197 -0.0398324 1.10795e-20)
(1.20417 -0.280617 0)
(1.00978 0.0157923 -1.81691e-20)
(1.01167 0.0428151 2.41971e-21)
(1.23343 -0.227052 -1.68996e-21)
(1.15413 0.0547882 -9.53526e-21)
(1.36986 -0.153142 -2.8668e-20)
(1.12021 -0.0162096 1.43198e-20)
(1.1405 -0.0649451 0)
(1.1076 -0.0120789 7.86917e-21)
(1.20281 -0.0681458 0)
(1.34242 0.187698 6.72107e-21)
(1.05166 0.0515864 -3.66745e-21)
(1.2488 -0.0952046 0)
(1.23251 -0.213344 2.0379e-22)
(1.21732 -0.088115 -1.19261e-21)
(1.13442 0.0458139 -1.27158e-21)
(-0.0390376 -0.496342 0)
(1.20297 -0.193165 -2.3675e-21)
(1.11388 -0.139797 0)
(1.37589 -0.0970827 -1.83256e-20)
(1.1473 -0.0663509 -1.08028e-20)
(1.02679 -0.0286227 -9.31746e-21)
(1.29429 -0.0828927 1.62425e-20)
(0.64847 0.00725597 0)
(1.20227 -0.0646286 0)
(1.4313 -0.323037 0)
(0.887764 0.0188019 -3.10276e-22)
(1.2558 -0.116234 -3.97638e-20)
(0.990513 0.0203241 0)
(1.05146 -0.0476884 -6.58575e-21)
(1.10697 -0.313193 -5.89816e-20)
(1.16263 -0.0264627 -1.59945e-20)
(1.14514 0.0285979 -2.02235e-22)
(1.36494 0.501981 2.69606e-20)
(1.09502 -0.0284619 0)
(1.02079 0.297552 -1.70066e-19)
(1.31987 -0.0591067 1.63323e-20)
(0.759292 0.00950831 0)
(0.861352 0.0412612 -1.13177e-20)
(0.967612 -0.104117 4.41277e-21)
(1.15291 -0.0322328 1.1505e-20)
(1.1859 0.00876922 5.09889e-22)
(1.29772 -0.211918 0)
(1.37639 0.270372 0)
(1.08568 -0.00110577 -2.09142e-20)
(1.48354 -0.0343057 3.64847e-20)
(1.08007 -0.0196889 1.74227e-20)
(1.28658 -0.111003 -1.02189e-21)
(0.967673 0.0267714 1.5682e-20)
(1.004 -0.0298813 0)
(1.10188 -0.00151531 1.64402e-21)
(1.19279 -0.0782839 -3.07737e-20)
(0.777475 0.0184884 -2.34818e-21)
(1.26693 -0.112552 0)
(1.29246 -0.0859758 0)
(1.36515 -0.0616729 -2.95632e-20)
(1.10516 -0.0175023 -6.91107e-21)
(1.12528 0.00818998 -2.0835e-22)
(0.945111 0.0277426 1.49923e-20)
(1.18301 0.00487165 2.37766e-22)
(1.3148 -0.000651301 -9.97423e-21)
(0.99507 -0.00238038 1.27124e-20)
(1.34823 -0.180566 0)
(0.840702 0.168219 0)
(1.08271 0.0392735 8.5585e-21)
(1.18308 -0.201765 -9.01113e-21)
(1.2764 -0.0191292 5.99515e-21)
(1.04667 0.0469297 -1.15503e-19)
(1.14752 0.0479644 -3.61506e-21)
(1.08065 0.137437 7.03007e-21)
(0.807696 0.0239532 0)
(0.919224 -0.0372069 7.53353e-20)
(1.13611 0.0284634 -1.0065e-20)
(1.42098 -0.225344 -1.51589e-20)
(1.13504 -0.0547812 -9.21721e-21)
(0.92951 0.0113798 2.3857e-21)
(-0.173345 -0.418619 0)
(0.84079 -0.0190651 1.16307e-21)
(0.787096 0.0272153 0)
(1.05705 -0.000554477 -1.17406e-22)
(1.01774 0.028787 0)
(1.33975 0.303628 1.1608e-20)
(1.03069 -0.0497413 -3.60752e-20)
(1.16899 0.200105 1.94407e-21)
(1.13807 -0.0587479 0)
(1.08642 -0.0253764 0)
(0.540222 0.0985435 0)
(1.12211 -0.0416552 -4.66966e-21)
(1.23462 -0.0452325 2.41801e-21)
(1.0763 0.111749 -2.91823e-20)
(0.840455 -0.0158384 0)
(1.09394 0.029347 -2.39727e-21)
(0.868298 -0.280631 2.00007e-21)
(1.03824 -0.135025 -2.9342e-21)
(0.981646 0.0355735 5.86599e-21)
(1.12641 0.010559 1.74667e-22)
(0.074523 0.218988 0)
(1.08871 -0.0207668 -1.92732e-20)
(1.09132 -0.127185 -1.60108e-21)
(0.699472 0.0243861 -5.0201e-21)
(1.28089 0.146255 9.98785e-22)
(0.817403 -0.0101479 3.67705e-21)
(1.04371 0.0189404 1.96332e-20)
(0.989754 0.0298346 0)
(1.05472 -0.146624 1.45768e-20)
(0.897077 0.0620879 0)
(0.926618 0.025651 1.06974e-20)
(0.973106 0.300014 1.36339e-19)
(0.968852 0.0331238 0)
(0.822946 0.126841 0)
(-0.033105 0.293901 -9.35067e-20)
(1.35013 0.0857904 -1.59529e-20)
(0.681861 -0.0202863 0)
(1.47569 -0.136145 0)
(0.99837 -0.2773 0)
(1.35328 0.0102686 1.75697e-20)
(-0.037357 0.0749476 0)
(-0.016305 0.278706 4.31509e-20)
(0.996325 0.00534285 6.60407e-20)
(1.00012 0.0401252 1.93175e-21)
(0.848916 -0.0050483 0)
(1.02346 -0.046676 1.35328e-20)
(0.883431 0.0246711 0)
(0.713967 0.0368436 -7.13994e-20)
(1.00061 0.0475224 1.60815e-20)
(1.14327 -0.0755722 3.09709e-21)
(1.08823 0.0157852 9.37811e-21)
(1.01742 0.0760444 -1.07231e-20)
(0.621408 -0.0268662 -3.66069e-21)
(1.12114 -0.329903 7.05747e-22)
(0.912108 -0.0247947 0)
(1.06552 0.00313845 -1.62543e-20)
(0.869699 0.00840486 -1.03582e-20)
(1.34026 -0.142263 1.55158e-21)
(0.691812 0.0156468 0)
(1.07747 -0.119742 0)
(1.09507 -0.0778767 3.4276e-21)
(1.42291 0.18742 1.30954e-20)
(1.10718 0.0224758 7.30869e-21)
(1.03678 0.0198706 2.02711e-20)
(1.0992 -0.163103 -1.03067e-19)
(0.81327 0.00510136 1.88166e-20)
(1.1147 -0.0161926 7.17477e-21)
(1.33351 -0.0823982 -2.60192e-21)
(1.09998 -0.0717453 -6.68845e-21)
(1.28395 -0.054534 2.22947e-21)
(-0.0245624 0.231296 6.88731e-20)
(1.25852 -0.0557767 0)
(0.608837 -0.0214418 0)
(1.05524 -0.0247297 -8.05478e-21)
(1.09105 0.0130729 1.19641e-20)
(0.293384 0.125986 0)
(0.869796 -0.014281 6.22987e-22)
(1.06011 -0.072409 -4.55258e-21)
(0.997415 -0.0081178 1.57194e-21)
(1.07701 0.0262541 -6.80602e-21)
(1.00084 0.0243485 2.51784e-21)
(1.01233 -0.0450401 4.01595e-21)
(1.06183 0.0283267 0)
(0.38983 0.0018557 0)
(1.05202 -0.0651978 0)
(1.26752 0.0766602 -3.64775e-20)
(-0.0649431 0.124349 4.97934e-20)
(1.09854 -0.0190921 -1.81294e-23)
(1.24635 0.196001 0)
(0.733774 0.023821 -1.08423e-20)
(1.24591 -0.107537 -3.69183e-21)
(0.0116379 -0.0336805 -1.57144e-19)
(0.667766 0.0554146 -1.76773e-20)
(0.622146 -0.0261777 0)
(1.10632 -0.159126 0)
(0.928485 0.0203198 1.18919e-20)
(1.04687 -0.0735507 5.91643e-21)
(1.31449 0.395038 7.62769e-21)
(1.1568 -0.207397 3.4146e-22)
(1.08392 -0.161161 -5.44741e-21)
(1.0813 -0.14025 0)
(1.39937 0.420962 -5.46486e-20)
(0.647984 0.00182316 0)
(0.809374 -0.0195803 -5.61883e-21)
(1.08571 -0.0288821 -2.21904e-22)
(0.596383 0.0126622 0)
(1.10031 -0.00676528 0)
(-0.0525 0.0488771 -2.71975e-20)
(1.07754 -0.234302 -6.09594e-21)
(0.751778 -0.0185452 4.57317e-21)
(0.990743 -0.00610189 0)
(0.580784 -0.0149829 0)
(0.779965 -0.0152893 -6.19143e-21)
(0.548644 -0.0252293 -1.34164e-21)
(1.29199 -0.0880122 2.69007e-22)
(1.30104 0.222538 1.34736e-21)
(0.729827 0.0144001 -2.06907e-21)
(1.16089 -0.0753111 9.68807e-23)
(1.19816 -0.317766 -3.21801e-22)
(0.558439 0.0133297 5.15621e-21)
(1.21042 -0.173213 -9.29222e-22)
(1.10714 -0.149482 0)
(0.99252 -0.395357 0)
(0.523794 0.0159412 0)
(1.04283 -0.0251173 0)
(1.23613 -0.0344846 -5.12026e-21)
(1.04976 -0.237396 0)
(1.1147 -0.0680062 0)
(0.988254 -0.285125 0)
(0.863155 -0.180899 0)
(-0.0187042 0.00505519 4.7099e-20)
(1.16848 -0.160955 2.32386e-21)
(0.808842 -0.28726 0)
(1.33424 -0.0393169 1.01855e-20)
(1.14764 -0.0883164 2.7272e-21)
(1.09006 0.0593207 3.72905e-21)
(1.04453 0.0607249 7.7345e-21)
(1.08319 -0.1428 0)
(0.587462 -0.0118349 1.20351e-20)
(1.05515 0.0329868 1.04294e-20)
(1.05817 -0.0783407 0)
(1.31161 -0.0233453 4.19694e-21)
(1.13053 -0.0170729 2.95445e-21)
(0.761994 0.415136 3.61715e-21)
(1.19574 0.0370332 1.09948e-21)
(1.17593 0.180712 -3.80416e-21)
(0.957763 0.244926 0)
(1.03431 -0.00291066 -2.74759e-20)
(1.02344 0.114111 -4.26078e-21)
(0.702304 -0.412627 -6.42606e-21)
(1.0853 0.202121 0)
(0.00240655 -0.0168781 0)
(0.973852 0.120224 -1.63567e-20)
(1.24226 -0.0201427 0)
(1.11106 -0.093664 -1.1459e-20)
(1.11511 0.0646226 9.09148e-22)
(1.26503 0.0368422 3.65737e-21)
(1.03183 0.0680726 -2.57649e-21)
(1.28937 -0.0516696 4.15587e-20)
(1.00574 -0.304243 5.95344e-20)
(1.06407 0.0163582 -7.60815e-22)
(1.05436 0.0961022 0)
(1.0234 0.323364 0)
(0.907396 0.0025137 -3.38797e-20)
(1.14336 -0.261183 -1.75e-20)
(1.1252 0.176417 0)
(0.673672 -0.297149 1.76313e-21)
(0.590272 0.415543 0)
(0.836019 0.245694 8.28792e-23)
(0.677432 -0.322726 -3.59034e-21)
(0.82867 0.0249996 -7.04982e-21)
(0.987614 0.00726369 0)
(1.21455 0.198462 -1.06053e-21)
(1.17788 0.241494 -1.5965e-21)
(0.799736 -0.14873 -4.66996e-21)
(1.02758 0.144686 -7.0522e-21)
(0.90577 -0.0975994 0)
(1.09277 0.0512129 0)
(0.926189 0.0398861 1.11887e-20)
(0.826158 0.00983985 -8.37216e-23)
(1.09136 0.0280418 6.41599e-21)
(1.13903 0.0717114 -6.46212e-21)
(1.06492 0.289348 -5.86729e-23)
(1.18631 0.0273105 0)
(0.429257 -0.138168 1.35651e-20)
(1.31665 -0.0165318 -2.05838e-20)
(0.85708 -0.251896 7.59833e-21)
(0.61438 0.398406 -3.82387e-21)
(1.37916 -0.120663 1.7592e-20)
(1.12712 -0.244712 9.81868e-20)
(1.02174 0.188255 -1.14933e-20)
(1.08006 0.0409054 -1.05919e-21)
(-0.113352 0.14892 -8.5395e-21)
(1.00082 -0.00722321 0)
(1.03668 -0.0831676 -1.64406e-20)
(0.828854 -0.030775 1.4917e-20)
(1.09867 -0.0630754 7.82273e-21)
(0.782336 -0.300407 3.00308e-23)
(0.520493 -0.00949656 4.47548e-22)
(1.39809 -0.36078 -1.56875e-20)
(1.18192 0.0082462 0)
(1.09332 0.010938 -5.58419e-21)
(1.15515 0.0293684 -2.83287e-21)
(1.11581 0.266293 0)
(0.808999 0.383598 4.67317e-21)
(1.14029 0.00161567 4.48471e-21)
(0.825047 -0.376292 7.57311e-21)
(1.10024 -0.0410659 -1.47785e-20)
(0.895936 0.306319 -1.00874e-21)
(-0.0372373 0.232847 0)
(0.804926 0.345072 5.0097e-20)
(1.22955 0.0461001 0)
(1.08505 0.387366 2.14607e-20)
(1.06738 0.359999 0)
(1.10253 -0.0291678 5.69367e-21)
(1.01265 0.0229199 0)
(0.955093 0.321446 0)
(1.34934 -0.102529 1.27662e-20)
(0.790017 -0.0665655 0)
(1.30608 -0.263055 -1.27012e-20)
(1.14441 -0.0454409 5.64753e-22)
(1.08588 0.00887997 3.40423e-21)
(1.14907 -0.132919 4.95497e-21)
(1.25076 0.0836836 -9.23384e-21)
(1.2194 -0.228753 5.97615e-21)
(1.1872 -0.0367833 0)
(1.10634 0.010576 0)
(1.08379 -0.0326774 3.03564e-21)
(1.15071 -0.0478832 0)
(1.51115 0.176046 -3.35067e-20)
(0.904386 -0.315746 -6.76043e-21)
(1.02774 0.00869581 1.96621e-20)
(1.28401 0.00700667 -1.16594e-22)
(-0.0137787 0.116273 0)
(-0.0199981 0.0434521 0)
(-0.0960022 0.141539 -3.35474e-20)
(-0.132769 0.112007 0)
(0.930286 -0.248909 4.18484e-21)
(1.15092 0.021496 -3.71631e-21)
(1.19159 0.0350316 -1.08584e-20)
(1.13329 0.0843464 -9.82494e-22)
(1.11455 -0.0281337 0)
(0.709256 -0.017606 -3.28498e-21)
(1.08039 -0.0360159 0)
(1.16334 -0.0361224 5.16976e-21)
(0.52948 -0.106968 0)
(0.959139 -0.156464 4.54678e-22)
(1.04003 0.0269391 0)
(1.17609 0.0363309 0)
(0.614586 -0.156973 2.03892e-20)
(0.780262 0.0470247 1.09907e-21)
(0.738973 -0.137297 3.24695e-22)
(1.01096 0.0183637 -1.07283e-20)
(0.160988 0.0527964 0)
(1.25112 -0.291526 7.56291e-21)
(1.2308 0.115751 -1.70865e-21)
(1.25328 -0.288454 -2.66842e-21)
(0.816877 0.16758 -8.96126e-21)
(-0.055507 0.213065 -1.0865e-19)
(1.0709 0.092465 0)
(-0.0322804 0.0486433 0)
(1.11845 0.155192 7.56051e-21)
(0.58424 0.443004 9.64235e-21)
(1.18724 0.0764847 -3.54298e-21)
(1.08986 -0.0323645 0)
(1.22495 -0.0567694 9.09684e-21)
(1.00564 -0.184543 -1.39138e-20)
(0.596668 -0.0106916 -9.79711e-21)
(1.10696 -0.0166744 -5.57746e-21)
(1.14951 0.0354038 -7.96077e-22)
(0.170691 0.0367009 1.29985e-22)
(1.24765 0.0622398 -2.32819e-20)
(1.12873 0.0538462 0)
(1.06876 0.0630945 0)
(1.09659 -0.00759751 -4.73687e-21)
(1.15569 0.118426 1.54424e-21)
(0.275231 -0.193604 1.62654e-20)
(1.18097 -0.109226 -2.08981e-20)
(1.09006 0.0756827 9.80863e-21)
(0.5297 0.00303517 1.43581e-20)
(0.104951 -0.258117 -3.85382e-20)
(0.226227 -0.448176 -2.09317e-21)
(1.188 0.174816 -7.05759e-21)
(1.21801 -0.471241 4.28886e-21)
(1.42687 0.0324712 -8.30624e-21)
(1.11401 -0.0385875 5.61368e-21)
(0.927221 -0.212763 9.4582e-20)
(0.0105176 -0.344613 0)
(1.21923 -0.124402 1.1929e-21)
(0.523624 -0.0814013 -3.84899e-20)
(1.10646 0.121839 -6.54189e-21)
(1.02352 -0.109504 8.45769e-21)
(1.0929 0.0323181 0)
(0.539076 0.356173 0)
(1.16065 -0.0478325 0)
(1.28754 0.334438 -8.3605e-21)
(1.25831 -0.0247165 -1.17738e-20)
(1.10032 -0.00759893 9.01613e-21)
(0.499019 0.0158547 0)
(0.659357 0.0108293 0)
(0.641778 -0.00411151 4.47232e-22)
(0.460066 -0.0133142 0)
(1.13336 0.150953 0)
(1.01639 -0.0113016 2.83756e-20)
(0.421051 0.469324 0)
(0.916366 0.0320032 0)
(1.21022 -0.0196191 0)
(1.19097 0.164128 1.70014e-21)
(1.27605 0.0494324 7.06791e-21)
(0.944858 -0.028705 9.23038e-21)
(1.29669 -0.384527 -1.07485e-19)
(0.260579 0.113162 -1.20935e-20)
(1.07318 -0.0891725 9.4718e-21)
(1.18643 0.0292803 0)
(-0.128904 -0.619953 0)
(-0.310045 -0.0288449 0)
(1.09735 -0.0409975 9.57742e-21)
(1.30054 -0.267034 -1.91057e-20)
(1.34403 0.202254 0)
(1.08392 0.00404972 -1.14358e-20)
(0.531353 -0.38769 0)
(1.46719 -0.13709 5.86023e-20)
(0.428434 0.548865 8.86321e-20)
(0.320251 0.0111216 0)
(1.11121 -0.264837 1.15365e-19)
(0.390559 -0.351058 0)
(0.278029 -0.0398401 1.59769e-21)
(1.42417 0.130275 0)
(-0.196526 -0.00585132 -5.11732e-22)
(0.984639 -0.0525236 0)
(1.12619 -0.0527619 6.62475e-21)
(-0.169069 0.215542 -8.48858e-21)
(1.09777 -0.034906 3.86608e-21)
(1.23011 -0.0902423 6.32624e-21)
(0.560002 -0.477827 -9.41882e-20)
(1.01924 -0.0671852 -4.44241e-21)
(1.18048 -0.119037 6.80932e-21)
(1.19799 0.239313 -1.2078e-20)
(1.01517 -0.0426949 2.53112e-20)
(1.10498 -0.0364729 1.86063e-21)
(0.292836 -0.498527 -7.53437e-20)
(0.225755 0.235071 -1.06272e-20)
(1.07757 0.0679909 5.47864e-21)
(1.05892 -0.0432067 0)
(0.620356 0.106248 -4.67773e-21)
(1.39191 -0.41802 7.89959e-20)
(0.956685 -0.020186 -5.71808e-20)
(1.52987 0.0815004 1.01192e-19)
(1.08117 -0.0557121 7.24416e-21)
(1.2349 0.0230429 1.79107e-20)
(1.05879 -0.0122736 0)
(1.17408 -0.0229001 0)
(1.10664 0.0421008 -1.19943e-20)
(1.08561 -0.0241392 -4.35216e-21)
(0.905951 0.058998 -2.61392e-20)
(1.05374 0.0471475 -1.0314e-20)
(1.37869 -0.0695038 -2.15738e-20)
(0.547493 0.0287364 0)
(1.1504 0.128526 2.31164e-20)
(1.36709 0.0596021 0)
(1.06993 0.0608892 -5.85437e-21)
(1.13326 -0.00351432 0)
(1.04095 -0.00875098 1.57452e-20)
(1.21528 -0.000687103 1.39776e-20)
(1.06833 0.207517 0)
(0.073405 -0.0237455 1.62316e-19)
(0.880463 -0.190655 -7.41765e-20)
(1.13717 -0.10891 -1.00683e-20)
(-0.140254 0.229429 5.00778e-20)
(1.19317 0.0398089 1.29405e-22)
(0.850756 0.200013 1.55843e-20)
(-0.101033 0.290669 -5.21701e-20)
(-0.0292121 0.185575 -3.45307e-20)
(1.01649 -0.0272828 0)
(-0.0293818 -0.0242854 0)
(1.24959 -0.0664631 0)
(0.110938 -0.0729232 0)
(1.08814 -0.0278586 0)
(0.17753 0.0475965 0)
(1.10369 0.0685172 0)
(1.32697 0.129814 0)
(1.27593 0.155913 -2.91809e-21)
(0.579978 -0.283254 -2.05233e-20)
(-0.0498227 0.262268 0)
(1.14438 -0.0600181 5.94832e-20)
(0.979546 -0.164702 3.65663e-21)
(1.25249 -0.0604936 0)
(-0.0313692 -0.0378762 0)
(1.13491 -0.0246873 -2.00928e-22)
(1.12643 -0.0384384 2.52096e-22)
(1.19637 0.397337 0)
(0.24865 0.0343135 6.0071e-20)
(1.1185 0.0354579 1.04288e-21)
(0.256178 -0.0494694 -5.41859e-20)
(-0.0657575 0.0478439 -3.95275e-20)
(-0.037956 0.0534073 1.0121e-19)
(0.793044 0.0223025 5.6701e-20)
(1.08456 0.00532167 -1.46619e-20)
(1.11418 0.076601 -9.79564e-21)
(1.02053 -0.0101681 0)
(1.06881 -0.0617742 -2.34266e-20)
(1.26949 0.0738317 -7.59632e-21)
(-0.00458874 0.0812694 1.13681e-19)
(0.968426 -0.0668225 -5.98217e-20)
(0.612695 0.30903 5.79567e-21)
(0.959417 -0.0199489 -3.55249e-21)
(0.101419 -0.0217517 3.60194e-20)
(0.275342 -0.0324984 -5.0098e-20)
(0.447236 0.016956 -5.44838e-20)
(1.18675 0.240797 1.08852e-22)
(-0.0438103 -0.0264958 0)
(0.934848 0.258562 4.66421e-21)
(1.03207 0.243846 2.71933e-20)
(1.00769 0.170899 -2.62136e-20)
(1.2229 -0.104452 0)
(1.48593 -0.196868 6.66164e-20)
(1.11125 0.0634475 -4.80714e-21)
(-0.00535613 0.0407064 -3.63589e-20)
(0.508685 0.0781376 0)
(0.911101 0.0106718 -2.3975e-21)
(1.13236 0.0276098 1.85228e-21)
(0.958449 -0.323843 -1.61064e-21)
(1.12764 -0.0225976 -1.00935e-22)
(1.11641 0.0304416 0)
(1.16283 -0.151057 -1.52765e-20)
(-0.205346 0.139115 -6.61913e-20)
(1.27334 -0.0341214 7.61433e-21)
(1.11272 0.163505 -9.08619e-21)
(1.04726 0.0285537 1.17959e-20)
(-0.0382173 -0.00808802 1.58618e-20)
(-0.0250837 0.0727878 -8.2817e-20)
(0.495136 -0.0123245 0)
(0.838114 -0.104361 0)
(1.15351 0.0752324 -1.22526e-20)
(1.05407 0.0585232 1.11356e-20)
(1.11532 -0.0455295 0)
(0.306713 0.0420976 1.70355e-20)
(0.840076 0.0860486 -1.40404e-20)
(1.1045 0.0946342 0)
(1.05998 0.000708339 0)
(1.40365 0.0918594 0)
(1.28398 0.0848905 0)
(1.09406 -0.163645 2.99186e-21)
(-0.0452956 0.0495848 4.31736e-20)
(1.21923 0.144984 1.80359e-21)
(1.38518 -0.146838 -7.19607e-20)
(1.22245 -0.122867 -5.98189e-21)
(0.398184 -0.180333 0)
(1.13998 0.241434 0)
(0.649653 -0.00731052 -5.86194e-22)
(0.606238 0.00980933 -7.18177e-20)
(0.0862334 0.0376002 5.7807e-20)
(0.984186 0.0141172 5.66638e-21)
(0.757601 -0.269967 0)
(0.706524 -0.0831662 0)
(1.26136 -0.097404 0)
(0.563219 0.541011 3.84073e-20)
(-0.0215918 0.104843 -3.91414e-20)
(0.896359 -0.175296 -3.7417e-22)
(-0.0108628 0.11386 6.72219e-20)
(1.05718 -0.0631107 4.34533e-21)
(1.19527 0.309729 2.30338e-20)
(1.10601 -0.085251 1.03781e-20)
(0.71892 -0.392926 9.83727e-20)
(0.910799 0.111521 5.35095e-21)
(1.23595 0.0284692 0)
(0.591788 0.286625 0)
(0.935427 0.303099 -4.66111e-21)
(-0.262101 0.240359 0)
(0.624328 0.0332874 3.35112e-21)
(0.599286 -0.409892 -2.75767e-21)
(0.266772 0.052311 -1.33317e-19)
(1.11903 -0.209067 3.58589e-20)
(1.05755 0.383764 9.05096e-21)
(0.983144 0.0304155 0)
(1.25867 -0.210254 -6.32592e-22)
(0.679306 0.0108404 0)
(1.00219 -0.00742773 -5.5305e-22)
(0.483176 0.000632055 0)
(0.719846 0.162438 0)
(0.979695 -0.0314153 -6.23654e-21)
(1.47971 0.120614 -1.89696e-20)
(1.03463 -0.0341675 6.17927e-21)
(0.514071 -0.478669 0)
(1.12528 -0.144409 3.59913e-21)
(0.82176 0.4083 6.5055e-20)
(-0.0417711 0.0175644 1.42686e-21)
(1.14807 -0.0775654 6.05021e-21)
(1.18782 -0.0155728 -1.05165e-20)
(1.04326 -0.0931549 1.11993e-21)
(0.801727 0.011222 -5.49455e-21)
(0.0711543 0.0211028 4.58884e-20)
(-0.0156079 0.17336 -6.47514e-20)
(-0.259643 0.120983 0)
(-0.00178971 0.191127 0)
(1.17524 -0.596562 3.04446e-20)
(1.11374 -0.0244764 -1.81553e-21)
(0.889986 -0.458588 -3.99635e-20)
(1.04901 0.248897 -1.04474e-20)
(1.43619 0.165101 4.3116e-20)
(0.63234 0.443249 0)
(0.25628 0.444855 -1.03552e-19)
(0.614207 0.521651 0)
(0.406127 0.0607346 0)
(1.10683 -0.452881 0)
(-0.0488732 0.27043 -3.74507e-22)
(1.1858 -0.0233625 0)
(1.06914 0.249357 -4.82886e-20)
(0.62346 0.732528 2.21133e-20)
(1.46177 0.268027 1.75462e-20)
(-0.0530695 0.0619889 -1.12731e-19)
(1.03925 0.386506 -3.95756e-20)
(0.488501 0.153072 -1.60862e-20)
(1.19886 0.0387586 0)
(1.41153 0.344605 4.83228e-20)
(1.26399 0.584942 1.79864e-20)
(0.193433 -0.0259106 -2.69704e-20)
(1.13647 0.107972 4.03577e-20)
(0.952028 -0.0176117 1.46417e-21)
(0.95324 0.00679036 -1.01717e-21)
(0.0244787 0.00573589 0)
(0.631351 -0.616638 -3.22199e-20)
(0.620433 0.23964 0)
(-0.0294876 0.0487223 0)
(-0.0515659 0.0939032 0)
(-0.0738409 0.0844871 -4.16653e-20)
(1.1963 -0.04275 -7.03638e-21)
(-0.0144542 0.121073 0)
(-0.0379865 0.148755 0)
(1.44838 0.053838 -9.53533e-20)
(-0.0314671 0.00281894 5.12003e-20)
(0.119567 0.260737 -9.62473e-20)
(0.444315 0.0191772 0)
(0.164769 -0.249119 8.29145e-20)
(1.10772 -0.227087 0)
(0.983497 -0.263281 0)
(-0.0378578 0.0596717 1.04899e-19)
(1.13148 0.00824791 -1.26069e-22)
(1.1454 0.352959 2.36326e-20)
(0.290717 0.0302249 5.55829e-20)
(0.393849 -0.496858 -4.23602e-20)
(1.46465 -0.00285964 0)
(1.31816 0.181004 2.70296e-20)
(1.29131 0.196321 -3.31851e-20)
(0.105185 0.120644 -2.29577e-20)
(-0.0512401 0.280657 0)
(1.06671 -0.0508599 -1.91654e-20)
(1.08758 -0.202876 -1.76514e-20)
(0.574058 -0.366716 0)
(1.09282 -0.140613 -2.72937e-20)
(0.158877 0.146484 0)
(0.743413 0.0613826 0)
(1.40333 -0.0368064 1.57418e-20)
(0.981044 -0.00183591 7.1152e-22)
(1.11751 0.776384 -6.28121e-21)
(0.218265 -0.356563 1.38614e-19)
(1.05382 0.0208718 -3.15693e-21)
(1.19821 0.0441442 8.96956e-22)
(-0.0488596 0.22405 3.87844e-20)
(0.823187 0.767805 1.63726e-20)
(1.32923 -0.33966 -1.40234e-20)
(-0.195355 -0.31989 3.93098e-20)
(1.19933 0.0380028 0)
(0.698881 -0.152431 -1.37062e-20)
(0.890117 -0.621918 2.48761e-21)
(0.942196 0.669394 -3.48623e-20)
(0.592457 -0.0172024 -6.60357e-20)
(1.1212 -0.0263613 -8.17838e-21)
(1.07385 -0.0826074 8.1757e-21)
(1.14754 0.077891 3.66774e-21)
(1.10943 0.110815 2.3602e-21)
(1.12668 -0.120358 0)
(0.999742 0.0987871 1.77538e-20)
(0.933043 0.477527 0)
(1.3091 0.207453 4.67036e-21)
(1.16767 0.0815878 -1.10653e-21)
(0.79988 0.27401 0)
(0.563225 0.115047 1.2718e-19)
(0.927462 0.746853 -1.81318e-22)
(1.09403 0.291649 -1.81492e-20)
(1.0413 -0.00960882 1.41314e-20)
(0.429591 0.536943 0)
(1.27827 -0.446209 0)
(1.03373 -0.390311 6.59554e-21)
(1.31557 0.516364 0)
(-0.022953 0.0708892 -5.14273e-20)
(1.26516 -0.393496 -2.9948e-21)
(1.20105 0.525446 0)
(0.459223 0.262237 1.63713e-19)
(1.18447 0.326074 -1.44749e-19)
(0.797053 -0.603207 -2.81465e-20)
(1.15567 0.0825802 4.44822e-22)
(0.985887 0.157411 9.95084e-20)
(1.09872 0.163579 4.41039e-20)
(1.11256 0.732334 -3.90059e-21)
(0.889371 -0.408249 6.76535e-20)
(1.46896 0.111747 5.0954e-20)
(1.11117 -0.0129986 -1.19347e-21)
(0.0204514 0.00987235 9.87424e-20)
(1.06654 -0.678576 2.00769e-20)
(0.853937 -0.690339 5.92602e-20)
(0.244393 -0.282229 0)
(0.968532 -0.135691 7.42582e-20)
(0.37287 0.355531 -4.25031e-19)
(-0.221836 0.208949 1.5712e-20)
(0.318668 0.0846172 2.73514e-20)
(0.713795 -0.0478898 -7.72293e-20)
(1.11383 0.553503 0)
(0.995385 0.228287 7.49606e-20)
(1.08683 0.0218875 3.2226e-21)
(0.941787 0.471444 -8.38701e-20)
(0.766917 -0.702254 -9.91919e-21)
(0.934662 0.0404663 -4.82605e-20)
(1.00417 0.515009 0)
(1.3198 0.298101 -2.45405e-20)
(1.36247 -0.489786 1.24154e-20)
(1.20942 -0.315802 9.25375e-21)
(0.0880689 -0.130834 5.54174e-20)
(0.19514 0.0576636 -1.79543e-20)
(0.968278 -0.105795 -5.73795e-20)
(0.371566 0.568797 0)
(0.93199 0.0358119 3.84553e-20)
(1.20382 0.65859 1.01859e-19)
(-0.223853 0.0981014 1.3965e-19)
(-0.0430111 0.287512 -3.3219e-20)
(-0.0953892 0.208633 4.63082e-20)
(1.09146 0.00371565 -4.2628e-21)
(1.13077 -0.448306 0)
(1.04634 -0.702724 -4.85639e-20)
(0.715335 0.383906 0)
(-0.0803655 0.137855 -9.13123e-20)
(1.06369 -0.00338393 9.83132e-21)
(-0.0278244 0.154789 -2.91177e-20)
(1.05291 0.0456537 -1.25364e-20)
(0.118742 0.0349451 6.67308e-20)
(0.929045 0.132294 0)
(1.32456 -0.08302 2.10888e-20)
(0.114702 0.117742 -3.10544e-20)
(-0.125535 0.070873 -6.5818e-20)
(-0.274058 0.147628 0)
(0.117831 0.0191199 0)
(1.29212 -0.0461508 -4.00792e-21)
(0.416748 0.000380771 1.59709e-19)
(1.24842 -0.699768 -1.54796e-20)
(1.02305 -0.458681 2.21768e-20)
(1.08571 0.250628 -2.55882e-20)
(0.355892 -0.517588 1.44273e-19)
(1.61331 0.241257 -4.3026e-20)
(0.0646872 0.0518609 3.76712e-20)
(0.215942 0.356016 1.89476e-19)
(0.119439 0.0459855 -1.42672e-19)
(0.930568 -0.465049 -4.44794e-20)
(1.51202 0.381796 4.41273e-20)
(0.55048 -0.645496 5.21983e-20)
(1.10167 -0.0711956 -8.05451e-21)
(0.140923 0.186816 4.7513e-20)
(1.26071 0.295464 -5.88041e-20)
(0.685673 0.680233 -3.56761e-20)
(1.32595 -0.602499 0)
(1.48502 0.52919 4.07084e-20)
(1.03584 -0.501853 -1.17623e-20)
(1.44556 0.622619 -1.30667e-19)
(1.18653 0.0420941 0)
(-0.0513074 0.15752 0)
(1.29906 0.754846 0)
(1.29191 0.100343 -1.61854e-21)
(0.729625 -0.271049 -2.07933e-19)
(0.479209 -0.0448223 0)
(-0.0347492 0.227841 -3.28219e-20)
(1.01661 -0.230487 1.02487e-19)
(-0.150069 -0.176689 0)
(0.324853 0.0713665 1.21331e-20)
(1.14951 0.0415738 0)
(1.49133 0.259821 0)
(1.18682 0.0771825 -4.7631e-22)
(0.356721 -0.248768 0)
(1.01828 0.150405 3.42688e-20)
(1.37234 0.276949 0)
(-0.0272945 0.289246 -4.5961e-22)
(0.804432 -0.364032 0)
(1.56912 0.311536 -6.54115e-20)
(1.26806 0.374617 -6.65852e-21)
(0.870928 0.683271 -8.7134e-21)
(1.01685 0.152338 -8.27528e-20)
(0.957318 -0.187225 -4.94949e-20)
(1.51022 0.273286 3.83174e-20)
(1.16525 0.0733594 0)
(0.567689 -0.0377935 0)
)
;

boundaryField
{
    FrontBack
    {
        type            empty;
    }
    Top
    {
        type            noSlip;
    }
    In
    {
        type            fixedValue;
        value           uniform (1 0 0);
    }
    Bottom
    {
        type            noSlip;
    }
    Out
    {
        type            zeroGradient;
    }
    circle
    {
        type            noSlip;
    }
}


// ************************************************************************* //
