/*--------------------------------*- C++ -*----------------------------------*\
| =========                 |                                                 |
| \\      /  F ield         | OpenFOAM: The Open Source CFD Toolbox           |
|  \\    /   O peration     | Version:  2412                                  |
|   \\  /    A nd           | Website:  www.openfoam.com                      |
|    \\/     M anipulation  |                                                 |
\*---------------------------------------------------------------------------*/
FoamFile
{
    version     2.0;
    format      ascii;
    arch        "LSB;label=32;scalar=64";
    class       surfaceScalarField;
    location    "1851";
    object      phi;
}
// * * * * * * * * * * * * * * * * * * * * * * * * * * * * * * * * * * * * * //

dimensions      [0 3 -1 0 0 0 0];

oriented        oriented;

internalField   nonuniform List<scalar> 
1171
(
-0.9279400196958465
0.927940019630172
0.7873839505590314
-1.098995451399452
0.3116115002628585
-0.1927456904269445
-0.7650696729758334
0.9578153641388117
0.07205998469660005
-0.1167552467596081
-0.2120442129731036
0.3287994619845935
-0.7873839492907506
0.069451979980735
0.7179319693178193
0.8115661482203347
-0.1776795646263185
-0.6338865831855408
0.8744194813944395
-1.04391059085986
0.1694911094892035
-0.2851736193755045
-0.09726857133305704
0.3824421907374401
-0.03592273270018348
0.5487089158702773
-0.5127861832208307
-0.5028063480590546
0.8248974207183378
-0.3220910737259228
-0.4019288654054571
1.046031381591114
-0.1716119014684077
0.394259691249617
0.04769508802661346
-0.4419547764249558
1.046196258508519
-0.0001648770488905744
0.4439048135854232
-0.04964511232019556
1.056880187247139
-0.01068392729180892
0.5778572200055822
-0.7706029106417069
-0.7244549006058388
0.5570243435205844
0.1674305571949632
0.2209113917164269
-0.723717741418142
0.5506471001518467
-0.9228842926444585
0.3722371927309795
-1.094162636802954
0.686400859044433
0.4077617779250933
-0.5954561271718529
0.5595333854061362
0.01826633073692184
-0.2570650559228282
0.238798723550003
-0.02416321278089823
-0.5211720860639939
0.5453353033463464
0.400260743075719
-0.4975293115697992
-0.9188178707663522
0.9414191624087378
-0.02260129182112364
1.067507000062226
-0.01062681123780611
0.9350155294142162
-1.116792280943961
0.1817767517497823
1.067053669847202
0.0004533325424111139
-0.6644361140471219
-0.06001879564535272
1.262313565900806
-0.8642587583228826
-0.3980548074840454
0.1482358043973745
-0.1090214325817519
-0.3264565852686198
0.4354780176677133
-0.2857271006727743
0.1909816735377205
0.09474542763744462
-0.5835142331051114
-0.5154812204574777
1.014016263300657
-0.07900074204063473
0.009945831285421718
0.8254414994701499
-0.8353873309258456
0.5718886903221575
0.6904248741586291
0.4396874775790423
-0.03015151767004156
0.4304122597395446
-0.8077354152782686
-0.1025376011123943
0.9102730165810722
0.5024188842857515
0.2536576242828006
-0.7560765087800553
0.005492553567718255
0.5271197489252218
-0.5326123000198996
-0.4898609237657339
-0.6043017114682262
-0.4228455412096536
-0.6939467466366627
-0.02706890842088533
0.2700268906037868
-0.2429579829221153
-0.9247317486633956
-0.005096369103908752
0.9298281176162739
0.3084885110589088
0.07395368402987719
0.7622607307801533
0.04930541146391311
-0.5331681125417735
-0.06228801988394564
0.04623494630719818
-0.8539703588528991
0.07488404434325999
0.8629996570631403
-0.9378837016082551
-0.3471607228775448
-0.04158522208054898
0.3887459432644823
-0.6822110942671223
-0.2425206502768592
-0.6320939413569469
0.706977989845712
0.6106391251592381
0.2142582951159058
-0.5429377118331585
0.9459472256031077
-0.7793096050684466
-0.1666376207996469
0.02036469748831213
-0.01876308861809126
-0.001601609742258743
-0.4030795435527491
-0.09444976970696643
-0.2410848944430442
0.8517240208691947
0.04621106427183148
0.3356732047000596
-0.3818842695425361
-0.4601996800856325
0.9626185628038758
0.6801989314581208
-0.7827365280012435
0.3203423235261031
-0.01784120659908681
-0.3025011229171704
0.9307089400897315
-0.9307089401235062
-0.7822907569517424
0.1104676778590693
-0.3225118930506354
-0.7500140789226564
0.7599599124182351
-0.08990250826810738
-0.1431743497993869
0.2330768565536173
0.8650111916730675
-0.039569685745661
1.054187197492077
-0.8005295741241832
0.1860217448991407
-0.3154616593721788
0.1294399155189823
0.8593850110921261
-0.09712427939289811
-0.6118145724235099
-0.03909199871104757
0.6509065710117793
0.1237919630062416
-0.2311738800127265
0.1073819168042823
0.8057065149590088
-0.9833860840802132
-0.4354945972345178
0.3297018568820844
0.1057927418587806
0.531326005556035
-0.5554892283943339
1.022020240050984
-0.4562107419895138
-0.5658094982494958
0.5991746908209926
-0.7193920274986966
0.06687162442697857
0.6525204033410298
0.1033084987335304
0.5702854573479172
0.05512521801448666
-0.6254106751659477
0.1939777199208222
-0.08351003268286442
-0.4932289478412369
0.1460682174518562
0.0503050002151136
-0.8867787355493048
0.8364737354565296
-0.4734770238468569
-0.7134805002667963
0.0490443824231019
0.4370293252048543
-0.006617075499177586
0.2998117758177954
-0.8552260410555749
0.5554142649645427
0.4157157440858396
0.5842842561512163
0.560473145889318
-0.5142381984353052
-0.3665533760082251
0.03496815843747596
0.3315852142949814
0.6813782171116606
0.2493307213989032
-0.5655394262282535
0.5710319907830212
0.1105727396386912
0.8751584926660305
0.01018266378838276
-0.6219972431260515
-0.7492895318313594
0.7995945284606333
0.5311934458504834
0.07044418120126912
0.3023026230429525
-0.3727468036572752
-0.1675694993075806
0.4415633616886977
0.08555636779824742
0.8766931066768255
-0.7992762640770836
-0.077416842727622
0.6353531478375638
0.310594069544784
-0.4301484547639398
0.5749277392273406
-0.5044835613130485
0.417228283830028
0.1334188134704323
-0.04685794912511423
-0.5925786889773847
-0.137295604350317
0.7298742934987325
-0.1497575022510614
-0.7809514358178976
-0.6109927922638342
0.3607899450446342
0.2502028468398607
0.6221820394487932
-0.6119993789404493
0.238896958568634
1.011245375947043
0.04294181997201142
-0.7492895340851594
0.2303963541664577
-0.210031664724192
0.6801989288027305
0.8019683951010066
-0.8019683953078519
0.8377343553957993
-0.8333095798747524
-0.004424775569306523
-0.4453922273626937
0.8611079748334445
-0.1475105537166163
-0.3457183973029087
0.734697998613856
-0.6684507809144525
-0.06624721766900901
-0.7317519953716458
0.1391733001838693
0.138666917219048
-0.6718350298034037
0.7827365249893788
-0.9503060242638486
-0.3666966231077423
0.2916569185629226
0.07503969435872453
0.1459735757715172
-1.009644635455627
0.863671059754328
0.4812219276219633
-0.04153445008667757
-0.3081906030119218
0.5865098274421727
-0.2783192242107476
-0.7383784177371675
0.8843519900096184
-0.1571275750967116
0.7333017895563032
-0.843022830683671
0.109721040098934
0.9767700773476085
-0.5414611445397393
-0.4353089331021799
0.7551104425036964
-0.06497290823150907
-0.0323490425028506
0.1870416308841165
-0.1546925870904593
-0.7757685242925394
-0.8458944060916058
0.08082473686258465
-0.7500140752347726
0.5138346923398517
-0.555419924211665
0.09206137262064884
0.7202161261587902
-0.8122774986697926
0.7537143124235808
0.1742257008602087
0.5028835781641248
0.4971164218181815
-0.04968392667875713
-0.6083892310506075
0.6580731601921485
0.8837267738473988
-0.007033666982231556
-0.7551104424870092
0.7995945290474223
0.1910246542414492
-0.4480897176461249
0.02005888222000323
0.002446341626267031
-0.02250522316518842
0.5887703376310619
-0.4383593666675166
-0.1504109699968823
0.717931968702926
0.01272300977210844
-0.1125926202897169
0.4370000190237037
0.1517703218934439
-0.01497996482202018
-0.005380713263480603
0.02036068008086102
-0.03248970797503359
0.0001406663310794109
0.2433215100868014
-0.2611627227289708
-0.9590959704235011
0.001600734478712892
-0.1595014413582971
-0.1233751107716726
0.09444079272724624
0.7215336667312631
0.7290582164467779
-0.1447739631271922
0.6653506119660636
-0.5732892399575501
-0.2117260731995707
0.3977478186030215
0.6954366027626721
0.02249536590555961
0.2416417419983746
-1.074951320712788
-0.9503060273543624
0.3018714353639687
0.7599599170636975
-0.2086379349813909
0.06546358101239728
-0.7231343990769571
0.9104236106504021
-0.1872892118545141
0.4159324559994929
-0.02718652543469008
0.7715008249361716
0.2806079696748853
0.3721465793837741
0.07175822676591505
-0.6586876862765417
0.6586876862922674
0.2146172237524539
0.6956557960735641
-0.05511040309167377
0.3907836115193464
0.3803676150637751
-0.0156731775492624
0.03573204524528641
0.4493583539720167
0.03186356947047086
-0.7383784186245907
0.5341267853261704
0.2005712132872925
0.3057131482191355
-0.1186715515915102
-0.6954366009641186
0.1802395351090308
0.7301840717585619
-0.01015047587861458
-0.8137295428755685
0.8238800188489357
0.6962758882044786
-0.792114660004978
0.09583877206316113
-0.7537143110205996
-0.149524970424898
0.2107732532000145
-0.06124828225580996
0.07711570608392666
-0.1800200414009479
-0.1117984671590552
0.2918185117070908
-0.009665665400749261
-0.005314285251818846
0.7064173496547124
-0.716567820218457
0.8847136434365821
0.07310172193007798
-0.3117642957559407
-0.5198251983626838
0.8315894947111041
0.1026070004951607
-0.1026069963274008
0.3266250730479847
0.4785420675555066
0.6101580532177822
-1.088700121262384
-0.1941504093899714
-0.5856214547798539
0.779771864207124
0.01222105720143736
0.2208557929574483
0.3772634752045944
-0.2534715126438057
1.012918190997741
-0.5343761234283354
0.664434804322553
0.9936112408467428
-0.3834531858540038
0.2297529191064555
0.8843519869919069
0.7127400865057606
0.2136717341528618
0.7277474316220691
-0.7809514371509659
0.3413123118894173
-0.2788937321862613
0.2478383069804072
0.03105541565712639
0.8505974234481155
-0.01554198023055565
-0.8350554428452176
-0.7020561628413261
0.7025094972369795
0.554607772543192
-0.7020561610400838
-0.7127400865680593
0.7025094993214958
-0.03421341093035445
0.9036273999652202
-0.01891375580895181
-0.6813782235810336
0.6123219414092643
0.06905628211880258
0.538905085287939
0.5377663121491936
-1.076671397330659
0.4918542929587845
0.5210638994971108
0.5444509745698316
0.4597403910679143
-1.004191365688389
0.4986156707501114
0.4949955708501081
0.6123219459537074
-0.5256310904144396
-0.4655820446956098
-0.5559032973110786
-0.5190375938259063
-0.12280670296549
-0.01239055430124956
0.01239055427429477
0.5111880370634283
0.5233050364393497
-1.042342630380712
0.5752668400787297
-0.2729642182532171
-0.8846806124869513
0.3432194717291199
-0.632790107696565
0.39026945728866
0.001037749065492049
-0.8307787683516797
0.8297410188906917
0.4208676200605744
-0.01920509292198365
0.8698025168415852
-0.9438582340588617
-0.8353712112087065
0.05671843844758811
0.7786527723850595
0.5537695044233732
-0.4365715937813792
-0.1171979099634733
0.6499351990726278
-0.7289359422824895
0.8833191196438831
-0.8314220756138186
-0.05189704432706684
-0.009939965314169083
-0.7893362977952588
-0.1100983543555959
0.7159538978417711
-0.6058555434787827
-0.9376331602660463
0.9276931945960971
-0.7351491307827088
0.6905974769449987
0.04455165367147942
-0.8048531953318921
0.0338404106685181
0.7710127846589671
0.0616293215329245
0.04097768817099984
0.4332305948911103
0.06053910967601197
-0.8501870009309545
0.7896478910835564
-0.6425816812146539
0.5928977542985483
0.8909958255947702
0.07059527184514852
-0.9615910978998294
0.05562461682262503
-0.04813030398204125
0.3797155107976178
-0.381227207786605
0.06576554595139147
0.8418256958209085
-0.8407879457061272
-0.7317514701922764
-0.8076022977157763
0.01826599897355623
-0.166825871599287
-0.8505750573580638
0.01915298235057019
0.625428093778472
0.0399225232825226
0.02276296639142888
0.5310065325153216
-0.8090024668926444
0.8428428781714918
0.5658095050835107
-0.8499838590814129
-0.8670378871596484
0.03658951261264939
-0.03967074046020448
0.8367643049882086
-0.7970935645972573
-0.02083403503945207
-0.7714222090573805
0.5443391500855784
0.1519367393609383
-0.02776183965241438
0.8975643578428603
0.9844116351192791
0.8608138058480549
-0.8416608232659292
0.1473068542238024
-0.1473068564153734
-0.1184892172764803
-0.4772102267662103
0.04063863334224892
0.2713115293129676
0.03055990605766129
0.3848695899023917
0.876730323526095
0.00305015161127973
-0.0127158164680703
0.6586189631968098
0.3413810368226386
0.7834915529678035
-0.583514231927365
-0.7780342122160961
-0.8126355431616356
-0.6799082123578265
0.6799082122992053
-0.1678127489597271
-0.154699138543867
0.6014824633430624
-0.8118612153788288
0.210378751996306
-0.4937335299131393
-0.5689589886371232
0.2782207165834498
-0.9721674667235369
-0.900759237653494
0.8488621961401164
-0.8188139638924643
0.8370799632792928
0.6486063536579298
0.1345368916366826
-0.7831432452266213
-0.7680838915915509
-0.1459519835197207
0.7247534655526789
-0.5788014817876925
0.02402891410949616
-0.01507751835925198
0.01812634472026595
-0.003048825465742063
-0.3545754719595687
-0.1226347566994179
0.8797031796380198
0.738156963047688
-0.2406172045865311
-0.4975397566606954
0.6209590580135956
0.6853025631352879
-0.4706853380930509
-0.0007896804798014747
-0.2849374191734714
0.02353089567579655
0.7438391087609799
-0.7673700049041972
-0.3235611146004375
-0.07154968403778525
0.0754753252579818
-0.9617172608549063
0.1266618189904441
-0.6773243245617389
0.05263079429576491
0.6411976623575859
-0.693828456348904
-0.756993923565201
0.07966959889842815
0.5888537305570977
-0.6604034147188735
0.1560174765932096
-0.3360375153576441
-0.7717037465832461
0.003619855250030394
0.3712470375049272
0.6013303460536004
-0.02640260917394727
0.02443144827265799
-0.02443145108278598
-0.01777128433487667
-0.05266426118614054
-0.2262294457115721
0.01893530509214969
-0.01588514985920564
-0.7317812257800388
0.2793897317755389
0.6789822580566925
-0.690503073057096
0.01152081491108757
-0.5984244527005754
0.6510552485940706
0.6534600095725791
-0.06460627345905566
-0.631724669142061
-0.1252692603530259
-1.04963682465477
0.01121033839285256
0.1360965144550881
-0.7082503278952856
-0.7418230377255441
-0.763475371034523
0.3654205630249425
-0.4118466450310637
0.47089600353261
-0.0590493620079473
-0.6786594256533977
-0.02959090217547245
0.5002735891263214
0.7306789516516848
-0.2331264755286086
0.1097513690595689
0.9580974061857147
0.4456826760012342
0.1337958196051582
-0.579478495466078
-0.6785026038880644
-0.0001568159412717763
-0.04446820271357017
0.02939067822251831
0.6374879743662634
-0.7747835840140331
-0.002813253240300133
0.002813250610113618
-0.6001881309193972
0.6486083498158871
-0.04842021805579878
-0.6557396316447436
-0.1135401710837893
-0.6717745828442605
0.04898179911775467
0.6090913633180053
-0.1373039059025989
-0.8177265675137118
-0.5554015548355274
0.5687950286995205
-0.01339346873833132
0.6343451002322208
-0.6228242839424144
0.3221960415157102
0.2140546593797008
-0.5362507009802827
-0.1043350653277058
-0.6029615810177685
-0.09086687400712597
-0.1545054554952604
-0.5064197448019732
0.4042707986018924
-0.4987205691708396
0.1261752390163931
0.6784867522893662
-0.8046619916748116
0.5991746908134749
-0.3738707482425795
-0.03797589084783527
0.06511096549097185
-0.5715306977737479
0.5517878531817049
-0.04032112219345871
-0.5114667313309812
-0.3121974935126823
0.3047838435576398
0.007413652205362402
0.45203870752383
0.1232281273195489
0.05049842725341631
-0.3157533858164147
0.1566670957483368
0.1590862904031199
0.2488448215833079
-0.01844846599127064
-0.2972133737593954
-0.3139557577290077
0.3679689446705126
-0.05401317962131849
0.7910966227711754
-0.6292201000549104
-0.02651953040208559
0.4995145829114007
0.2822440426921047
-0.5228612462578139
0.5774644580321534
-0.5774644580378128
-0.2897785252446182
-0.5865047611478837
-0.2955197971463402
-0.5865047610289895
-0.5961705345832601
-0.8384974411297959
0.170046659578985
-0.588581467477411
0.821219415158205
-0.003632077497957528
0.1198175663637003
0.4815127746661527
0.09668469625879318
0.1852123851985801
-0.03612767376774859
-0.1490847141246735
-0.01978643978730528
0.5931471848547951
-0.944804345129771
0.4249791489035905
0.0001692553437582652
0.0003499185255749187
-0.000519178813623121
-0.6434077588564534
-0.1319019765908922
-0.4654630790753406
0.5992588971178362
-0.5037535147996398
-0.3162569458369898
-0.2552737600311679
-0.2719412166395923
-0.1120115157037078
0.1120115182943418
0.1529973017481565
0.05777596007941004
0.1964227230086127
0.4524475457303324
-0.5718562682865777
0.1063931930424357
0.2480075629104911
0.4661229145622047
0.5338770852084451
0.643396185637459
0.08062894942279308
0.001787425816289889
-0.08241638486728045
-0.2768592752363606
-0.5408672917977495
-0.5464586114419806
0.1141162952926649
-0.1260837443978304
0.01196744937309705
-0.1060278371900278
-0.3860395249757571
-0.04497173198156922
0.6540630924553367
-0.4989724828989848
-0.1444352760737829
-0.335020061091738
0.2900399921042125
0.1240187344158626
-0.6028801327361032
-0.2039404282099626
-0.2617652199623484
0.0006025013338745223
-0.4215389590725824
0.3217066889354165
0.09983226920743458
-0.08937264196502918
0.2916183714788898
-0.895920083008754
-0.4579801287693068
0.6342766519623058
-0.7729275371443459
0.6685924718612013
0.3426533038077282
-0.1265163138693419
0.2258051096119389
-0.09928879555550051
0.02823096283972806
-0.586206782628407
0.02924214554225379
0.5569646373566498
-0.9007256145689821
0.5468368299695949
-0.6653260475943789
-0.09594214869252746
0.1089455126613006
-0.1089455115254329
-0.3165430613575019
0.3635252577863585
0.01619025154925474
0.02344491023074735
0.05718404517559696
0.5047908317633795
0.6637209719982361
-0.7411378140089236
0.02589126200074297
0.02262644554839228
0.001804997602483714
-0.00649968992133513
0.006499691353996717
-0.4136493648814117
0.5368774860723989
0.01522533197659012
-0.01522533209368833
-0.7923404936588614
-0.05990167682981016
0.121530990919959
-0.4515973453486721
0.5579905318606757
0.4495079490295747
-0.4979281691388345
0.1497429642556251
-0.149742967097018
0.04225601146833063
-0.006523960901929813
-0.0409094210115336
-0.9773779690048169
0.5420690398835853
-0.4726987188077702
0.04097768123344819
0.5145546406963983
0.03087081058661611
-0.5454254509235639
-0.6158816538562163
0.1169091712429767
-0.3298092589429161
0.01349369904556939
0.3163155584250228
-0.1535998116412237
-0.07952667605441881
-0.5407464578961949
-0.0454603219342281
0.1360965142653971
-0.0415390023544991
0.03872573008821761
0.0819437711944498
-0.08194377500683378
-0.5377276777305867
0.4837144940603765
-0.4143925398057712
0.1613272301757603
0.6221643227523278
-0.09796572628341481
-0.006305103479239692
0.006305106840375769
0.5329945316568877
-0.07187359801378401
0.0063385221762917
0.02715100495988276
0.03447797693958191
0.6882587635821765
-0.7601323611244305
-0.6625076071958578
0.6359880740300671
-0.1091734623297432
0.3128506396776339
0.7460494923355026
-0.01777128357571666
-0.2667486617989659
0.1480771034492393
-0.7446732519998317
0.4842689382790352
-0.4220996282117466
-0.101327005311077
0.003592694968925347
-0.01466021764266778
0.02072274076518998
0.412231182578036
-0.1217006556106695
-0.3897660855665772
0.6290227828599578
0.018890255405841
0.01002292882352339
-0.01002293055592626
-0.3576805035945956
-0.0852801430435933
-0.5606479534852944
0.5570158763915495
-0.2383147823575641
0.4648091764989836
-0.1507672384565341
0.7286244601213259
0.6728167765310309
-0.04153900008600683
-0.6150842896925274
0.5602241563433035
0.2866937119655172
-0.2842858635892105
-0.002407854521431118
0.5466154268863069
0.09340345379092947
-0.03878014778017664
0.1972222554222879
-0.1584421083199324
0.1207239141494679
-0.1207239146656686
-0.8587375125886633
0.002436102661670419
-0.1129126926469762
0.1400636980353177
-0.1320198477487487
0.1320198508629883
0.02262645404247593
-0.02407639239713071
0.6712968346617748
0.05888723633448392
-0.3231954950012618
-0.06284403200911988
-0.4712638195084267
-0.04832633562066629
-0.1518068411004009
0.1518068445020008
-0.04016038105447561
0.1431881123776521
-0.143188115915926
0.13694088339792
-0.136940882195168
-0.3156345598776144
-0.1145138950789066
0.226652485446018
0.1030493653508147
0.03485748872789016
-0.8211508872824315
-0.1972055844610343
0.1703545769579324
0.02067007836346227
-0.2655214848355008
0.1257213179017898
-0.1257213210164433
-0.4140672929236733
-0.0846532800123911
0.2365973364438976
0.002201384235980689
0.04040475633716473
-0.5434942368440372
0.5777076476378181
-0.0229958425401324
-0.01716454807035585
-0.02786724793653588
0.02134329573945299
0.006554838941895645
-0.1841713150077986
0.177616475286229
-0.107648703762246
-0.2283888087840881
-0.1448744281252429
0.1448744317226864
0.07293809342701357
-0.0729380912647275
-0.01945460837385378
-0.108708951988342
0.1281635592849285
0.2403948785653323
-0.1827575764744492
-0.02284241395630141
0.02464743264822206
-0.1364600154048767
0.6201745127614354
-0.03907343472106723
0.421530519569
-0.04127034134901773
0.06163102200944475
-0.1536347481462434
0.1536347511325777
-0.6360838966970146
0.3089888264275117
-0.07923591141989883
-0.2347840792981942
0.003610197455919501
-0.122788526266356
0.1631932818396999
0.1940454124668568
0.09777310397394524
0.0947606901610074
-0.0602827112062757
0.07256151576650893
0.04155477512183611
0.06384700271176638
0.1065075736169118
-0.09637573345608813
0.2061271056444059
0.01283618961157079
-0.1122608968589651
-0.1026302150867989
0.09786303323398361
0.00476717845425135
0.01260351173747206
-0.0223800873186343
0.03782385936808461
-0.03782385896198035
0.07443372261649514
-0.05477536081741843
0.05477536112907647
-0.2245601049376366
-0.05062988538859838
0.011539195786035
-0.1031567871858479
0.01621694785895081
0.1082975733371562
-0.1082975751928065
0.2938776821555565
-0.2715297589016009
0.1638810541371842
-0.05040829937005924
-0.2211214615377812
-0.01752229232486602
0.01752229128969198
0.3672539691762546
0.2852664308293617
-0.527360639958655
-0.09398929082521573
-0.03209445660456308
0.5285811955486235
0.2125276284520102
-0.168975549807157
-0.3821376804348122
0.07654616323814954
-0.1478499680346738
0.187438077481838
-0.03958810826292701
-0.06674280564160541
0.06674280405374718
0.8225956555329775
-0.5606085707784911
-0.002282841988097975
0.01488634730416852
-0.0200083341439732
-0.286601117790324
-0.0174667970550374
-0.01285459713994523
-0.1317420044441719
-0.5720123429211007
0.5559171033639794
-0.568897995391718
-0.006932403499324417
0.1013307255243092
-0.001827919156272959
0.01669387984518719
-0.1678583109256166
-0.3366954992555448
0.2335387114568961
-0.05456884224999534
0.03511423032406123
0.1318112887447207
0.1729725613904347
0.3365432574704049
0.2768152568624502
-0.2786431775100337
-0.06390448477774861
-0.1547898318901739
-0.2212903860145836
0.07487039741165803
-0.01102339459416842
0.2142732144368639
-0.1975793349283742
-0.08624693038537699
0.1588084486641354
-0.3548433397656873
0.2088504214706592
-0.1926334726643078
0.08965678782618811
-0.4794228720852352
0.1745834667011695
0.1698317432067576
-0.2560786763148117
0.07238059961712223
-0.1942244484966355
0.1767576515315367
0.01742372547102695
0.1413847254959797
-0.03955003395856087
0.06634021484492299
0.4666543167866623
0.02030156072383527
-0.07566009557859812
0.05682956133321081
0.1254034806932701
-0.2608784996477981
-0.2309027694155079
0.5596985169092702
0.157829141884156
0.07876819305362349
0.07585252618452881
-0.03096786564651767
-0.004528638722021196
0.002120779754055441
-0.03274763019255297
0.171261253344753
-0.1781936572727639
-0.05493735540468096
0.0223645824445829
-0.1466486126326691
-0.05283971862005392
0.1511897561231742
0.2770950491433254
-0.03948437523645409
0.01681463294718844
-0.2555753248910378
-0.1301565555924281
0.2355972930632786
0.1793057518718273
0.1296830807674302
0.02163974729440694
0.08909012321102844
0.05198176253370285
0.4528090690874947
0.01760334678083235
0.0969923793357559
0.04377102638580962
0.07164448611403726
-0.115415510567426
-0.2420942118555091
-0.2009454980257721
-0.02017596320738522
-0.2023278247720955
0.2757512903455423
)
;

boundaryField
{
    FrontBack
    {
        type            empty;
    }
    Top
    {
        type            calculated;
        value           uniform 0;
    }
    In
    {
        type            calculated;
        value           uniform -1;
    }
    Bottom
    {
        type            calculated;
        value           uniform 0;
    }
    Out
    {
        type            calculated;
        value           nonuniform List<scalar> 10(1.036305269392936 1.064536177909792 1.021485341990581 1.019679570932999 0.9975067072445845 1.014033164752823 1.034493073962025 1.062692518388773 0.8672429862875488 0.8820245584178947);
    }
    circle
    {
        type            calculated;
        value           uniform 0;
    }
}


// ************************************************************************* //
