/*--------------------------------*- C++ -*----------------------------------*\
| =========                 |                                                 |
| \\      /  F ield         | OpenFOAM: The Open Source CFD Toolbox           |
|  \\    /   O peration     | Version:  2412                                  |
|   \\  /    A nd           | Website:  www.openfoam.com                      |
|    \\/     M anipulation  |                                                 |
\*---------------------------------------------------------------------------*/
FoamFile
{
    version     2.0;
    format      ascii;
    arch        "LSB;label=32;scalar=64";
    class       volScalarField;
    location    "786.5";
    object      p;
}
// * * * * * * * * * * * * * * * * * * * * * * * * * * * * * * * * * * * * * //

dimensions      [0 2 -2 0 0 0 0];

internalField   nonuniform List<scalar> 
808
(
-0.03292739330892402
0.04367499537584443
-0.01104421065631896
0.0380460623802478
-0.2947988702990778
-0.05584915676439086
-0.01579713948074717
-0.02412422615781496
-0.1938072476741443
-0.0823507944296487
-0.01074849430148852
-0.2504862035923069
-0.03071207357191995
-0.01423721696533688
-0.1229105087098097
-0.01425320715580416
-0.1391753157376042
-0.01377741801226611
-0.01279998554283143
-0.05443220460453069
-0.008118580820571901
0.1164471356269778
-0.06374070076502673
-0.0701575854062956
0.1741234727919104
-0.1007091112892207
-0.1498801062191578
-0.02049110263139474
-0.01762785921425634
-0.02552881972388175
-0.02041161167322267
-0.057149465124687
-0.02271800681054876
-0.01694847570203676
-0.098004036090131
0.3450519499661185
-0.04014197982576977
-0.01636737845065399
-0.02236808759671702
-0.02646934506156082
-0.08880666910922436
-0.1244653539730683
-0.05306979721890501
-0.02152514287055166
-0.0546319874590266
-0.04282633781157186
-0.01184461532630873
-0.1815399605911761
-0.02638423392916397
-0.2009844476112948
-0.01735195828728493
-0.06569760196355263
-0.06205243078243195
-0.01471792175818569
-0.1964008417765078
-0.02760357198134043
-0.01074137180791092
-0.01478975000763519
-0.09847814633173207
-0.03882358563354129
-0.1119707271323957
-0.1236439007310555
-0.01462407072328388
-0.1271687265226517
-0.01764707303256881
-0.05284388733083929
-0.161385459911844
-0.03534968716903147
-0.01541873235187967
-0.4353778171855684
-0.02600659493201107
-0.2965202392808629
-0.02122341712255959
-0.02122774751861144
-0.06245887139999352
-0.01826560888430659
-0.04152919279450323
-0.3671701403019524
-0.03669070827036876
0.03834003327833305
-0.09256314443453169
-0.01669507398803214
0.05732617714003399
0.04631507768396803
-0.01762018897003384
-0.05114508532688852
-0.5356000918704164
-0.2297074121089952
-0.0509438221556885
-0.1139652534057574
-0.05523799176158969
-0.1304184956038938
0.03793295147792803
-0.02694289326371572
-0.06317155506983807
-0.1191609737116722
-0.03818084132926256
-0.05215150746389504
-0.1142096774917581
-0.1376317985970681
-0.05326529475875174
-0.04626425505597693
-0.05319937291102688
-0.04379359655382242
-0.05669216461568723
-0.07592059576463511
-0.03970354186998573
-0.01064014561110685
-0.03939805454640679
-0.1215349507562086
-0.04942648721688659
0.08094467903113899
-0.04157705811327398
-0.007688269263788775
-0.02749728905958048
0.1810682366638903
-0.03775252321171652
-0.2641220065776664
-0.02084558769726776
-0.05229582837069668
-0.04335884276493876
-0.04984662045891772
0.01438531880895302
-0.04731262995087365
-0.03710679971395349
-0.2207795410120933
-0.03960778810264395
-0.004234138351023425
-0.07415776655618575
-0.07016171613328427
-0.1489494122544867
-0.02128949757398605
-0.07389416369516942
-0.04466829238984747
-0.0231193846260078
-0.01463675577477306
-0.005999609351176494
-0.007571520935590395
-0.05157600782359031
-0.0485560192095669
-0.2165962734162411
-0.05505465934620186
-0.008108486334973432
-0.02167702603003142
-0.1498633546398927
-0.002287203293978828
-0.07486196498093288
-0.02054957237208617
-2.831125047070849e-06
-0.01049568797033945
-0.03265017395362977
0.09277812483654928
-0.03758659990328235
0.2513190394332596
-0.2612441449175883
-0.1345761404883844
-0.03817817811630934
-0.09089536226229969
-0.009125181430540736
-0.1153400163896196
-0.1660431868696446
-0.2165184535972712
-0.1764499279035911
0.05729487888175112
-0.06424524900606178
-0.02065986383533843
-0.06582340185535071
-0.1693915609432385
-0.02284663237808183
-0.01869415197651711
-0.05064511915283539
-0.02121241339790006
-0.007757202601903559
-0.1053547515495335
-0.02371521292273093
-0.04370854806990745
-0.07148603256826953
-0.1586225953034258
-0.03291127188063071
-0.3824006138242755
-0.01792984648544994
-0.228712710875107
-0.04311067791861649
0.03344994785438599
-0.106448495136775
-0.01701907559453804
-0.04366001791059121
-0.1038744192906021
-0.01788404444594718
-0.09462571811466101
-0.2040301895432447
-0.07070375768604589
-0.02423942558972401
-0.04659839613865414
-0.04164013248191022
-0.2015751201013211
-0.02250744603075081
-0.01939374642168351
-0.01124216924533088
-0.05791642648063963
-0.04932348064405301
-0.02268264172001119
-0.02056907187816884
-0.2317831455516738
0.1266624032240113
-0.2085391031115684
-0.1866481929196378
-0.01171377891565976
-0.0112113950844818
-0.06626312333359002
-0.01044108679003258
-0.4895306464595229
-0.1258726873083121
-0.01974225746987623
-0.0004393228179552907
-0.0235593382353395
-0.2755316505757856
-0.2809686209970098
-0.007538477087906282
-0.01762339343878021
-0.001590687494315314
-0.3521543278664883
-0.02862958916669551
-0.02942131108648489
-0.0126906634977327
-0.01938201072657989
0.04812701272509125
-0.1251717131633022
-0.01433882588289435
-0.02096976904064202
-0.04593960718152227
-0.01842543176931617
-0.01643724571990963
-0.02356197252558969
-0.06826371588010097
-0.0109251864188002
-0.01888845371170647
-0.008993564181935051
-0.001299885706996123
-0.02929287197067414
-0.002159646468565201
-0.001923802015919184
-0.00564985163402603
-0.02548575947018028
-0.008091496440047488
0.00159427360396133
-0.004167391729149616
0.001342789976849809
0.002330588481591833
-0.008952885026717795
-0.128711493849079
-0.002902372803075772
-0.0002289957371561157
-0.04720775901021781
-0.02141470681834194
-0.02347699598940895
-0.01402454230756595
-0.006238521460287566
-0.02116530312363457
-0.04068153566625096
-0.01519438834359333
-0.01268183379153483
-0.01140640609241779
0.007025567683040773
-0.009596369350272908
-0.01309899708833417
-0.01147096595593139
-0.01001748233760803
-0.01025224625257298
-0.01132857322681412
-0.01350049592718035
-0.2894776579340478
0.0584436761526981
-0.01539041079557001
-0.01503776399809265
-0.01235068879741062
-0.01218078462928287
-0.008241288985078952
-0.09869726425050636
0.01336401973143589
-0.01432211786353852
-0.01362423551541071
-0.01052523574267879
-0.05048217408712288
-0.008326506288470375
-0.01375955805329484
-0.01016400099467835
-0.00215250428202255
-0.01169697387723134
-0.01130396934659094
-0.02415259168386547
-0.0154057201884952
-0.01241981500654649
-0.01351111038055428
-0.009593083913613848
-0.01276938428161813
-0.01093243129148761
-0.06036034622698321
-0.01357431379778646
-0.01223231380155489
-0.009248749919535769
-0.01544498640237226
-0.01393842300003383
-0.01565340553695494
-1.363243419257745
-0.1010461988342073
-0.01189843008502976
0.02520992057105381
-0.1604818091235316
-0.09307026643363742
-0.01234522065231059
-0.01423265122320327
-0.2341623847832643
-0.02777063554187157
-0.0172498082220243
-0.01254285233917282
-0.0205987560532808
-0.0104494238898791
-0.03082140807658532
-0.4064903720911395
-0.0120618849982103
-0.01407986508676884
-0.004363672466585387
-0.01100078699877451
-0.009872274553351183
-0.01379196931770188
-0.007269431549483311
-0.02751747127232232
-0.01185897282616247
-0.1740719296921727
0.02073713231761349
-0.007270993877161207
0.004149873156295177
0.01190929197995219
-0.04932202546474338
0.02710512121353249
-0.01306106110847255
-0.1320273766868841
0.2830225080939375
-0.008238492514825949
-0.01365566362031155
-0.007870198831809866
-0.03313623270799249
-0.1265406217450069
-0.01293955853815321
-0.01187532165802133
-0.0176298691934241
-0.01349358247823078
-0.04181418740108503
-0.2214612720288715
-0.008955905712100434
-0.04420322958008582
-0.03810447558496041
-0.1818520316327811
-0.149873182992195
-0.1528598929393154
-0.2290442543026141
-0.002550577886215676
-0.02058578419162384
-0.01550720361797174
-0.01406097439265852
-0.03392439019678759
-0.02454045569444532
-0.01389714113244855
-0.01488083132100511
-1.066223210559783
-0.003168117218018152
-0.01326461591468996
-0.01795080580465979
-0.02125683535512258
0.004698675535588819
-0.01450221647086975
-0.02485891168407324
-0.1520790659896919
-0.01359146723916423
-0.02083387382294783
-0.01468128060587549
0.0001228198375017241
-0.1781134024784351
-0.01243448865913332
-0.1584245328294597
-0.01534893104032791
0.0043690985953343
-0.01391047702161574
-0.02444476403583457
-0.0164094577113978
0.007392514746548262
-0.2640742393869044
-0.02692111209901216
-0.01697106041177456
-0.01634784968341177
-0.01118450351419322
-0.02906942345431254
-0.01362985838357277
-0.02125721167508896
-0.02033842856984486
0.009295255178816094
-0.09685163323741632
-0.02098458140818645
0.009676323842800278
-0.05897491832405814
0.1838604622547401
-0.1073183722161827
-0.3149742824675313
-0.02945823161773384
-0.02601632201831759
0.1517178420338713
0.09165398484925173
-0.003896851495926361
0.05388781313895338
-0.01502514876814557
-0.01308728597181624
0.002798053003954531
0.007070974015637168
-0.06430146200899606
-0.004414713037601099
-0.05555817463864594
-0.02338156923408805
-0.01568186879360233
-0.0365078824202052
-0.03293502424232482
-0.006700859702964119
-0.01454444233980995
-0.03617246267992613
0.03020620445619252
-0.03859924911523988
-0.0139599444523351
-0.120502602745397
-0.0307066341339009
-0.04029852194754886
-0.6663220846800971
0.0139102452428243
-0.01048033255145351
-0.005785613525217293
0.1874021488627667
-0.1041554252845785
-0.03614766148277012
-0.2407263899576166
-0.01505209525584517
-0.01595689720197413
0.08143983946521859
-0.1791588374019246
-0.2327824365326011
-0.1838414367371614
-0.6737927843469054
0.01006589475643915
-0.01774243004841404
-0.01520474332651779
-0.0976777751773015
0.1189320326376621
-0.02188389929409832
-0.2368566446995952
-0.03656104985819908
-0.007062031007689693
0.2801425451680568
-0.01074099181282637
-0.09015151939728176
-0.1540716550831722
-0.004226579046947156
-0.0419488261406153
-0.04767485378539153
-0.1941247859655726
-0.007704726679562813
-0.03926547567564952
-0.003814441631809485
-0.5419510718304804
-0.1921348817137751
-0.1797866196032165
-0.02375794065799416
-0.009402570203022724
-0.06267393410280768
-0.05596178948157855
-0.01565249714665436
-0.07016777054462087
0.005076983116617524
-0.01743038043313674
-0.0944532580458574
-0.2792127395670937
-0.009891951922383103
-0.02463492303213751
-0.02113407235808241
-0.07698854939787424
-0.08836489275295289
-0.09036056149299712
-0.01136603633250997
-0.9040322108113112
0.1625811770670137
-0.08277885411072947
-0.2494059286232259
-0.04099886941664273
-0.009014454255621298
-0.2491463399397155
-0.1993903137522262
-0.0302535167545893
-0.1132111754408325
-0.01804700449143353
0.5631420717776742
-0.0254773236904526
-0.2111566770162359
-0.02476483563927592
-0.003780279899377213
-0.01078883012970351
-1.242244846059064
-0.1802754250602691
-0.2252299736562569
0.005207325670166631
-0.0399551112937364
-0.2326142579279169
-0.06761361403678759
-0.05252006436210568
-0.1473222223435647
-0.1790244437332226
-0.07060847275384627
-1.210831541679973
-0.1619727490040198
-0.5458367319801054
0.0802440701362325
-0.006001144295049076
-0.02076453780917654
-0.04530331783272439
-0.03744511301925266
-0.0274416516190894
-0.1286918840917774
0.0819436469487326
-0.00413049292430161
-0.009938710933342459
-0.5588949910484354
-0.8455639179154696
-0.1728631465160066
-0.007554614082945929
-0.1216355194439779
0.0004679845857994936
-0.0003846085853454727
-0.002969508074138437
-0.06195310685729852
-0.2317938390352526
-0.01328629784836379
-0.1090661481801033
-0.1572895453901729
-0.0130720384802508
-0.03407271150014764
0.03035582408557091
-0.0592590687511499
-0.07274752600840061
-0.4901313625133708
-0.2206316878614891
-0.07923071586644313
-0.07642187101732556
-0.01917040753812091
-0.11008730387736
-0.1672908665965505
-0.08280827278987966
0.02682064068417318
-0.08804253166652591
-0.05106973040540757
-0.01493349358566047
-0.1157204174515073
-0.283372310735869
-0.0602799583704879
-0.01788363012658102
0.001275403249008919
-0.0102246694697355
-0.01041279536245609
-0.2398513203871327
-0.01397871998902919
-0.2151326298733813
-0.0107701848155119
-0.07425848913173812
-0.004175990690446122
-0.02327765135890059
-0.3956282175465642
-0.9332870669619373
-0.01122362355701636
-1.037401821104985
-0.5984114647255517
-0.01054436204399977
-0.6626216518805601
-0.1893838835716169
-0.004955536653559374
-0.1219972368106741
-0.01701799558956033
-0.1265207873710228
-0.06417392500194032
-0.07941697634140854
-0.005575348122821172
-0.003415106417160603
-1.348760276187794
-0.0114792270419893
-0.1859085996169303
0.001134079039572645
-1.003764649113188
-1.253059478083685
-0.07743487488420753
0.01555885769356877
0.1646967880089429
-0.004844903775689142
-0.02294624963539242
-0.004356906052039772
-0.2364878299623258
0.3653491574649726
-0.0426434168831743
-0.2154846346948132
-0.01529618611498051
-0.6495587156383726
-0.07138280850557786
0.188179877282561
-0.3068398123136397
-0.05118795310729466
-0.0708603956076025
-0.0157989605258281
-0.02133630825975343
-0.5979847866609592
-0.1554211893797519
-0.0966452347803701
-0.1168138156260026
-0.5483430752379801
-0.04578077289313118
-0.8994384507824741
-0.0004781620359638257
-0.2458023272385221
-1.057149050967396
0.1648859390532802
0.2891075602218144
-0.170408965715821
-0.1877507519413605
-0.2162703242945978
-0.06559985116372297
0.02565754413151457
0.04473045055295186
0.004800999600206387
-0.1517743968542581
0.0263622340480431
-1.37088318512975
-0.08787483776566403
-0.4814900492487756
-0.3364275564938946
-0.2222726149965916
-0.1818398051722921
-0.01698190467986535
-0.01535065489689882
-0.09172737699216048
0.1745091509139285
0.3841578046497503
-0.2048077807065113
-0.1571791837354772
-0.2196264853549968
-0.06406552662815375
-0.1643457098943865
-0.1743150715076544
-0.1285061013179922
-0.1093762321958838
0.4640022494910658
-0.2857993942824796
0.4331549287142879
-0.5866293137344635
0.07377782758920677
-0.1863100201019138
-0.06848364564114652
-0.07870024778024938
-0.8981027906059507
-0.2159152698232997
-0.1939487926197186
-0.3571560507348162
-0.4688794040700055
0.5695075245144338
-0.2157121946842176
0.003350654972899158
-0.06657969992975402
0.3457147927663315
-0.03417745923061397
-0.1198659469294158
-0.1829515955670925
-0.06461638848383859
-0.01631153868384628
-0.2002664806666838
0.1970409049739343
-0.01260840748963627
-0.09953313245441722
-0.1779643044349274
-0.3202230363907306
-0.3063572649003636
-0.08476598656411689
-0.009571422178337558
-0.08076193913517843
-0.6481367263642257
-0.6765437893345124
-0.3225982394168457
-0.05972058646061497
-0.04881414428189437
-0.02418247361815495
-0.07093523202668901
-0.05415158358814427
-0.3707274601234741
-0.9661527122222573
-0.008611801891950682
-0.08611137916295457
-1.14950036121868
-1.047041288820557
-0.1098624539150022
-0.04250808879399004
-0.0672211639310558
0.3882160609047993
-0.3377729929869278
-0.05110980146002204
-0.6080090793927665
-0.1388283619592468
-0.2469013486363101
-0.2155416000154028
0.4730685654673652
-0.6398918301452503
0.07720262453251313
-0.02815407074580712
-0.573105277743143
-0.05527469511125593
-0.3675278185239613
0.1103876638320211
-0.194842517693563
-0.06202892902410364
-0.1240700006620744
-0.3560995485170712
-0.08335002615499906
0.5155765678709253
0.08755032892456928
0.4692327987348279
-0.1230524684012871
-0.2087587975823742
-0.5064789316497239
-0.1357115806521483
0.02354631070127843
-0.05623377999911902
0.09902355498047841
-0.3021654956884214
0.2364991097071387
0.004217823282587923
-0.002532858880628484
-0.5057783923613229
-0.1803348647087867
-0.1010579161207047
0.5811698577151383
0.1400346847131297
0.3430574101810481
0.2249970857125534
-0.56908921971813
-0.2042641177521875
-0.2211326218302051
-0.2253731326974201
-0.06289966286378985
-0.6849850265441069
-0.1886355669564949
0.3039385635646237
-0.1987069323585183
-0.01127726349585108
-0.1599390226866317
-0.01249892648922983
-0.1724268301062823
-0.4500590667057935
-0.07629408433777018
-0.2087268596358213
-0.07746968498278932
-0.1101626302094182
-0.1303423025353189
-0.07221349754284011
-0.4376191828200944
-0.4085435310230645
-0.02313140447426279
-0.07853189574246348
0.3298456914786722
-0.253912036761589
-0.1696511758613272
0.5238554409692409
-0.1917105937769169
0.02182698017052419
-0.4577228189554386
0.05071618080430329
-0.0587857261678434
-0.1519694097247836
-0.5953046404684545
0.1579718922431263
-0.5727681662958526
-0.5435875863628373
-0.1009456582622692
-0.515210625691116
-0.03574564849529289
-0.1572792227953547
-0.4165730610696276
-0.01601119412457181
0.2885512072044316
0.489916430910283
-0.1690783142698684
-0.004838267967555709
-0.08382529208896183
0.5249551706028761
-0.03179040950051261
-0.4483620430910982
-0.03141644983081768
0.4618533964308249
-0.0181090739802361
-0.5533154468529731
-0.2406391019923115
0.1785849033019444
-0.3174401725279238
-0.1837805480340365
0.0472708941849798
0.03061884117598518
0.05716469781458871
-0.3065622194558225
-0.1600250004873878
0.412824583387618
)
;

boundaryField
{
    FrontBack
    {
        type            empty;
    }
    Top
    {
        type            zeroGradient;
    }
    In
    {
        type            zeroGradient;
    }
    Bottom
    {
        type            zeroGradient;
    }
    Out
    {
        type            fixedValue;
        value           uniform 0;
    }
    circle
    {
        type            zeroGradient;
    }
}


// ************************************************************************* //
