/*--------------------------------*- C++ -*----------------------------------*\
| =========                 |                                                 |
| \\      /  F ield         | OpenFOAM: The Open Source CFD Toolbox           |
|  \\    /   O peration     | Version:  2412                                  |
|   \\  /    A nd           | Website:  www.openfoam.com                      |
|    \\/     M anipulation  |                                                 |
\*---------------------------------------------------------------------------*/
FoamFile
{
    version     2.0;
    format      ascii;
    arch        "LSB;label=32;scalar=64";
    class       surfaceScalarField;
    location    "12.6";
    object      phi;
}
// * * * * * * * * * * * * * * * * * * * * * * * * * * * * * * * * * * * * * //

dimensions      [0 3 -1 0 0 0 0];

oriented        oriented;

internalField   nonuniform List<scalar> 
1171
(
-0.945305
0.945305
0.767449
-1.07949
0.312037
-0.235794
-0.774975
1.01077
0.0546948
-0.0674784
-0.276378
0.343856
-0.767449
0.0853553
0.682094
0.921047
-0.214066
-0.706981
0.82585
-1.03152
0.205671
-0.354986
-0.0384361
0.393422
-0.00307363
0.603597
-0.600523
-0.555124
0.965488
-0.410364
-0.422464
0.98972
-0.16387
0.236287
0.099068
-0.335355
0.976879
0.0128413
0.289277
-0.0529895
0.983479
-0.00660028
0.661276
-0.897069
-0.784911
0.609724
0.175187
0.263217
-0.818341
0.55811
-0.914231
0.356121
-1.07995
0.670263
0.409691
-0.645003
0.641929
0.0322871
-0.251644
0.219357
0.0326435
-0.646825
0.614182
0.466502
-0.504938
-0.839847
0.865616
-0.0257693
0.991835
-0.0083556
0.89122
-1.05396
0.16274
0.990558
0.00127619
-0.696965
-0.0879456
1.22919
-0.801555
-0.427631
0.150711
-0.0760915
-0.411316
0.487407
-0.273897
0.185357
0.0885396
-0.601438
-0.478048
0.955957
-0.0647367
-0.0306996
0.872817
-0.842117
0.540996
0.68819
0.527506
0.0216868
0.444816
-0.787366
-0.108044
0.89541
0.587942
0.229464
-0.817406
0.0285107
0.630749
-0.659259
-0.508763
-0.571191
-0.378787
-0.675173
0.0264955
0.246317
-0.272813
-0.943782
-0.0372572
0.981039
0.372943
0.0204783
0.839338
0.081709
-0.602986
-0.0420168
0.0384057
-0.825772
0.0841707
0.899739
-0.98391
-0.406918
0.0291733
0.377745
-0.711487
-0.232296
-0.680281
0.764452
0.671905
0.293583
-0.578837
0.995721
-0.822436
-0.173286
-0.1207
0.0108265
0.109873
-0.458472
-0.0464663
-0.305677
0.977582
-0.00743431
0.4327
-0.425266
-0.498938
1.08688
0.711544
-0.819588
0.389366
-0.0701016
-0.319265
0.791325
-0.791325
-0.909302
0.0412462
-0.317624
-0.68683
0.656131
-0.0346498
-0.144787
0.179437
0.867701
0.00511623
1.03296
-0.803497
0.223912
-0.320555
0.0966428
0.962184
-0.122846
-0.6754
-0.051418
0.726818
0.149677
-0.231301
0.0816239
0.786265
-1.00033
-0.441133
0.309736
0.131397
0.678976
-0.646332
0.85297
-0.389762
-0.463208
0.474183
-0.693749
0.0360459
0.657703
0.144778
0.666263
0.0452136
-0.711477
0.13674
-0.0954942
-0.511882
0.104963
0.0385223
-0.907483
0.868961
-0.547757
-0.758173
0.0612082
0.499422
-0.0546062
0.275455
-0.832909
0.557454
0.424831
0.575169
0.600171
-0.561766
-0.381932
-0.0151925
0.397124
0.595577
0.195747
-0.681011
0.709521
0.0881058
0.871621
0.00365844
-0.679059
-0.76277
0.801293
0.614845
0.113447
0.347443
-0.46089
-0.155509
0.55739
0.0733582
0.921403
-0.868673
-0.0527304
0.653433
0.342288
-0.431977
0.704559
-0.591113
0.408846
0.149265
-0.0580537
-0.654173
-0.233801
0.887974
-0.154402
-0.636923
-0.613244
0.363273
0.249971
0.660835
-0.657177
0.309206
1.01669
0.0162709
-0.76277
-0.184458
0.0637578
0.711544
0.782141
-0.782141
0.846275
-0.830297
-0.0159778
-0.453712
0.878543
-0.193815
-0.318066
0.76252
-0.669234
-0.0932859
-0.904396
0.250223
0.109677
-0.712663
0.819588
-0.975097
-0.192787
0.177023
0.0157639
0.124314
-0.993112
0.868797
0.5452
-0.0176941
-0.289282
0.594812
-0.30553
-0.643642
0.767957
-0.1616
0.705765
-0.839632
0.133867
1.02721
-0.600282
-0.426928
0.724087
-0.0693351
-0.00990311
0.00839116
0.00151195
-0.80019
-0.847936
0.072961
-0.68683
0.577485
-0.548311
0.16799
0.649021
-0.817011
0.778748
0.166557
0.491917
0.508083
-0.103836
-0.687305
0.791142
0.955941
-0.0345384
-0.724087
0.801293
0.180838
-0.432482
-0.0263695
0.00631525
0.0200542
0.677944
-0.434504
-0.24344
0.682094
-0.0450775
-0.142171
0.56568
0.112264
-0.0140807
0.00134786
0.0127328
0.00445385
-0.014357
0.140926
-0.211027
-0.943741
0.0235784
-0.142449
-0.0518611
0.138922
0.781203
0.74226
-0.167091
0.570933
-0.402943
-0.163567
0.387479
0.627371
0.0547225
0.229804
-1.0601
-0.975097
0.318337
0.656131
-0.162662
0.0178744
-0.804782
0.988623
-0.183842
0.484368
-0.106623
0.799626
0.306251
0.297142
-0.00786513
-0.680681
0.680681
0.229067
0.666343
-0.0189459
0.451646
0.468462
0.0207876
-0.047157
0.545899
-0.000699245
-0.643642
0.570386
0.192134
-0.00423973
0.0126309
-0.627371
0.162724
0.8259
-0.00265376
-0.732909
0.735563
0.760494
-0.822758
0.0622638
-0.778748
-0.0359401
0.0497219
-0.0137818
0.0857689
-0.11831
-0.104174
0.222484
-0.00669759
-0.00738311
0.723303
-0.725957
0.934421
0.0763477
-0.340683
-0.540517
0.8812
-0.00096333
0.00096333
0.161831
0.482757
0.630234
-1.11299
-0.192923
-0.54306
0.735983
-0.0186169
0.198054
0.382305
-0.232628
1.05164
-0.56888
0.79374
1.06791
-0.43768
0.188489
0.767957
0.604086
0.208641
0.656976
-0.636923
0.319319
-0.0104173
-0.00502353
0.0154408
0.900639
0.0662489
-0.966888
-0.597486
0.598762
0.546288
-0.597486
-0.604086
0.598762
-0.00203508
0.977063
-0.0426413
-0.595577
0.526364
0.0692136
0.535092
0.573288
-1.10838
0.505762
0.545875
0.577961
0.498811
-1.07677
0.534133
0.533781
0.526364
-0.503293
-0.485364
-0.604126
-0.541301
-0.190611
-0.00601253
0.00601253
0.541847
0.535506
-1.07681
0.710446
-0.363003
-0.976364
0.376081
-0.690415
0.458119
-0.0300752
-0.882624
0.9127
0.452978
-0.0787951
0.979434
-1.02096
-0.943211
0.0782998
0.864911
0.402698
-0.213379
-0.189319
0.72361
-0.788347
0.944806
-0.904074
-0.0407318
-0.0563946
-0.812278
-0.185963
0.845598
-0.659635
-0.998107
0.941712
-0.641559
0.633546
0.0080138
-0.797741
0.0174845
0.780257
0.00390105
-0.00486439
0.42472
0.0761588
-0.909357
0.833199
-0.803688
0.699851
1.01938
0.0917471
-1.11113
0.0761715
-0.00587663
0.403001
-0.360377
0.0398219
0.896309
-0.926385
-0.721394
-0.85096
0.0386816
-0.129915
-0.912636
0.00856239
0.507693
0.0632398
0.0687346
0.333963
-0.746051
0.763536
0.463208
-0.96142
-0.90636
0.0707028
0.0148869
0.711306
-0.726193
6.34758e-05
-0.706507
0.580047
0.180447
0.0347452
0.944689
1.02001
0.917713
-0.909151
0.0467226
-0.0467226
-0.0806523
-0.186878
-0.0265006
0.33716
-0.0188227
0.252065
0.944753
0.00523112
-0.0119287
0.658562
0.341438
0.798167
-0.601438
-0.748775
-0.659944
-0.572993
0.572993
-0.20772
-0.109904
0.651386
-0.908055
0.256669
-0.495259
-0.545938
0.333477
-1.00865
-0.941116
0.900384
-0.767173
0.805854
0.662429
0.174113
-0.836542
-0.65193
-0.188191
0.847973
-0.659782
-0.00363684
0.00381949
0.00258798
-0.00640747
-0.0792863
-0.107592
0.984863
0.695005
-0.348725
-0.34628
0.505686
0.74834
-0.519273
0.0130143
-0.286911
0.036544
0.78573
-0.822274
-0.346221
-0.0941662
0.14298
-1.02938
0.0624928
-0.733942
0.102723
0.727895
-0.830618
-0.861526
0.127584
0.69431
-0.788476
0.236459
-0.354769
-0.601998
-0.0499326
0.36978
0.729326
-0.0247661
-0.000688046
0.000688046
-0.00466467
0.0231296
-0.0335468
-0.0138846
0.0191157
-0.538758
0.324641
0.764524
-0.809604
0.0450808
-0.669088
0.771811
0.785923
-0.091613
-0.675993
-0.185533
-1.09938
0.0208005
0.0259221
-0.502214
-0.861956
-0.842739
0.415108
-0.157679
0.176275
-0.0185967
-0.403956
-0.0982578
0.518262
0.713256
-0.0453681
-0.00649294
1.07931
0.519243
0.194725
-0.713968
-0.396632
-0.00732409
-0.00495226
0.00877175
0.691375
-0.925176
0.00546273
-0.00546273
-0.729532
0.732864
-0.0033318
-0.327897
-0.119129
-0.688295
0.187985
0.603157
-0.0545571
-0.876486
-0.351621
0.192013
0.159608
0.742974
-0.697893
0.348127
0.261085
-0.609212
-0.170581
-0.689627
-0.140991
-0.210289
-0.163636
0.46916
-0.515626
0.192312
0.723978
-0.91629
0.474183
-0.158443
0.000763903
0.0977598
-0.261396
0.596745
-0.0954133
-0.501332
-0.285695
0.306138
-0.0204422
0.586409
0.124037
0.0962957
-0.311983
0.169917
0.142066
-0.194485
0.0100278
-0.31232
0.0967256
-0.0803219
-0.0164038
0.856233
-0.270881
-0.0570163
0.553984
0.291118
-0.639843
0.483614
-0.483614
-0.232374
-0.485123
-0.241553
-0.485123
-0.696022
-0.849522
0.180288
-0.297382
0.736743
0.0484337
0.142383
0.586942
0.110106
0.119336
0.00951292
-0.128849
-0.105369
0.654988
-0.991377
0.45086
-0.0594982
0.0781424
-0.0186442
-0.751395
-0.176147
-0.58889
0.783615
-0.511901
-0.0624798
-0.198917
-0.338087
-0.080331
0.080331
0.0477946
0.00192736
0.140137
0.186303
-0.728792
0.139902
-0.0645217
0.472525
0.527475
0.796147
0.0228325
0.0100301
-0.0328626
-0.298401
-0.578085
-0.559057
0.114413
-0.119259
0.00484556
-0.111453
-0.41348
-0.127059
0.730216
-0.581139
-0.170255
-0.0516533
0.0165478
0.228339
-0.5012
-0.198207
-0.189651
-0.0213764
-0.477387
0.435493
0.0418945
-0.0753677
0.294416
-0.865607
-0.53629
0.624847
-0.862899
0.692318
0.445769
-0.0288621
0.0527654
-0.0239033
0.0739183
-0.636206
-0.00539488
0.641601
-0.893544
0.649151
-0.729803
-0.0909934
0.00752509
-0.00752509
-0.298969
0.42183
-0.0188288
0.00595158
0.016881
0.590079
0.66213
-0.714861
0.0122668
0.00274115
-0.0034292
0.00485428
-0.00485428
-0.492872
0.616909
0.0147461
-0.0147461
-0.776449
-0.00892436
0.0128254
-0.51752
0.657422
0.613278
-0.61661
0.0696702
-0.0696702
-0.0177877
-0.0293693
0.00840279
-0.985474
0.558546
-0.511469
-0.00486439
0.603316
0.0102517
-0.613568
-0.712248
0.131109
-0.315177
-0.0138311
0.329008
-0.0264182
-0.0189499
-0.607833
-0.0283731
0.0259221
0.00558195
-0.000119217
-0.00331293
0.00331293
-0.285692
0.269289
-0.45817
0.134857
0.66331
-0.127026
0.00327603
-0.00327603
0.508571
-0.167237
0.00848842
0.018397
-1.01041e-05
0.588672
-0.75591
-0.698765
0.641749
-0.0896387
0.329685
0.764362
-0.00466467
-0.0848896
0.0975205
-0.663695
0.553533
-0.328832
-0.108932
-0.0277867
-0.0259212
-0.00385445
0.467762
-0.0855055
-0.415826
0.697434
0.00115825
0.00474952
-0.00474952
-0.177271
-0.0993892
-0.571571
0.620004
-0.133036
0.509307
-0.196516
0.857792
0.782572
0.00558195
-0.738663
0.640401
0.0550621
-0.0133166
-0.0417454
0.566381
0.0878702
-0.0116466
0.0644292
-0.0527826
0.00833368
-0.00833368
-0.778312
0.0229476
-0.0446427
0.0630397
-0.085945
0.085945
0.00274115
-0.00138864
0.720713
0.105186
-0.317099
-0.0963806
-0.520529
0.00340876
-0.0660582
0.0660582
-0.0506503
0.0816371
-0.0816371
0.0258139
-0.0258139
-0.356368
-0.0756083
0.240062
0.0696742
0.0427495
-0.744846
-0.0634814
0.160575
0.0202632
-0.240928
0.0814246
-0.0814246
-0.466131
-0.0494954
0.230158
-0.0108009
0.00226902
-0.657367
0.659402
-0.010017
-0.0406333
0.0576234
-0.0869927
-0.0119669
-0.157389
0.169356
-0.150242
-0.204527
-0.0808132
0.0808132
0.0546546
-0.0546546
-0.0286947
-0.0939522
0.122647
-0.0364416
-0.189053
-0.00585936
0.00243016
-0.184583
0.453872
-0.0256764
0.472838
0.0077531
0.00497974
-0.0501871
0.0501871
-0.735198
0.316904
-0.128415
-0.207912
-0.0233887
-0.0159627
0.0182318
0.19594
0.0265433
-0.00096649
0.000956386
0.0845041
0.0299091
0.055822
0.104753
-0.0150177
0.00852478
-0.00071321
0.00409795
0.00579072
0.00406894
-0.00985966
-0.00200837
0.00891134
0.0277425
-0.0277425
0.0484664
-0.0427363
0.0427363
-0.19046
0.00907769
0.0280335
-0.0751153
0.0174802
0.077491
-0.077491
0.237835
-0.234812
0.0845696
-0.066791
-0.168021
-0.0156191
0.0156191
0.406882
0.250822
-0.519935
-0.0807195
-0.0385392
0.541739
0.0211817
-0.0583463
-0.452641
0.073048
-0.152804
0.169445
-0.0166409
-0.0475819
0.0475819
0.83741
-0.592218
-0.00812739
0.00611902
-0.00561395
-0.286051
-0.000212441
0.00513176
-0.045607
-0.628205
0.570024
-0.668459
0.014755
0.167005
0.0158711
0.0243732
-0.158418
-0.333911
0.258795
-0.0556068
0.0269121
0.171385
0.134752
0.255473
0.263438
-0.247567
0.00567151
-0.114666
-0.221743
0.0677302
-0.0119082
0.159396
-0.135023
-0.0685596
0.153064
-0.407374
0.119574
-0.102093
0.0583038
-0.47413
0.174577
0.178145
-0.246704
0.00794485
-0.178044
0.177831
0.00393369
0.14913
-0.0279902
0.0489977
0.459573
0.0121234
0.0131126
-0.00558089
0.0371186
-0.238384
-0.202514
0.590139
0.16871
0.0614476
0.0763616
-0.0634542
0.0494836
-0.0912291
-0.0303652
0.165943
-0.151188
0.00925812
-0.00569723
-0.105902
-0.0289138
0.0177829
0.251924
-0.00687227
-0.0375091
-0.31115
-0.00987222
0.217966
0.138573
0.178332
0.057303
0.0969705
0.0556789
0.5344
-0.0105729
0.104638
0.0422734
0.0665294
-0.108803
-0.269113
-0.195876
0.0278547
-0.222206
0.283295
)
;

boundaryField
{
    FrontBack
    {
        type            empty;
    }
    Top
    {
        type            calculated;
        value           uniform 0;
    }
    In
    {
        type            calculated;
        value           uniform -1;
    }
    Bottom
    {
        type            calculated;
        value           uniform 0;
    }
    Out
    {
        type            calculated;
        value           nonuniform List<scalar> 10(1.08372 1.03838 1.08949 1.08001 1.0721 1.07508 1.07735 1.0412 0.715989 0.726676);
    }
    circle
    {
        type            calculated;
        value           uniform 0;
    }
}


// ************************************************************************* //
