/*--------------------------------*- C++ -*----------------------------------*\
| =========                 |                                                 |
| \\      /  F ield         | OpenFOAM: The Open Source CFD Toolbox           |
|  \\    /   O peration     | Version:  2412                                  |
|   \\  /    A nd           | Website:  www.openfoam.com                      |
|    \\/     M anipulation  |                                                 |
\*---------------------------------------------------------------------------*/
FoamFile
{
    version     2.0;
    format      ascii;
    arch        "LSB;label=32;scalar=64";
    class       surfaceScalarField;
    location    "1386.5";
    object      phi;
}
// * * * * * * * * * * * * * * * * * * * * * * * * * * * * * * * * * * * * * //

dimensions      [0 3 -1 0 0 0 0];

oriented        oriented;

internalField   nonuniform List<scalar> 
1171
(
-0.9279245579216071
0.9279245578646759
0.787444936772455
-1.099228937843429
0.3117840011387282
-0.1901639112353331
-0.7650110117801853
0.9551749231256663
0.07207543407118991
-0.1169452823262509
-0.2123531803646146
0.3292984625298901
-0.7874449392365048
0.06947626339275589
0.7179686758574279
0.8116791633140098
-0.1779599484353874
-0.6337192148707519
0.8742389871862958
-1.044208535886297
0.1699695487436975
-0.2854645712711766
-0.09750337029771902
0.3829679419469072
-0.03624367806197459
0.5489750319249143
-0.5127313539489459
-0.5041792324527868
0.8247809452591183
-0.3206017129566182
-0.4024098489055913
1.045975232618474
-0.1717362478574613
0.3924747489432444
0.04895594687384609
-0.4414306963933424
1.045965207991727
1.002368802390523e-05
0.4433066398835054
-0.05083189068226716
1.056593298226805
-0.01062809770800389
0.5793694363379623
-0.769533340458452
-0.7242585201611559
0.5567107368776295
0.1675477832260594
0.2169467967690122
-0.7211260337429022
0.5503766772348543
-0.9227813949522958
0.3724047169721529
-1.094189923579562
0.6865274739481687
0.4076624497726684
-0.5955747147208089
0.5593310412627361
0.01775073023341803
-0.2564441009379154
0.2386933694138577
-0.02306318428490322
-0.521969365947797
0.5450325509540941
0.4004457091628222
-0.4979490718983827
-0.9189303742190236
0.9415633810942448
-0.0226330068916586
1.067567893202846
-0.01097459866220396
0.9348618347982156
-1.11666185664836
0.1818000218073377
1.067024740270982
0.0005431454281049249
-0.6644588361603372
-0.05979968850613793
1.262333778803657
-0.8642435718278311
-0.3980902069622635
0.1480943584377171
-0.1095937904435974
-0.3262104640679765
0.4358042548034906
-0.2855918143881654
0.1914641313542255
0.09412768359008386
-0.5836630457538716
-0.5155658888724822
1.014027858017568
-0.07916602404841612
0.009910662953280098
0.8254781146832419
-0.8353887776291167
0.5718204628115863
0.6905133162153009
0.4393812449089289
-0.03048604863353226
0.4309317582548763
-0.8079512945220626
-0.1025059754322961
0.9104572699056604
0.5021153023983995
0.2538032270586691
-0.7559185295050052
0.006913417336191764
0.5274139887715367
-0.5343274062152485
-0.4899403029216632
-0.6042496263520232
-0.4227696308053278
-0.6938922261442304
-0.02705331759763541
0.2703143964235652
-0.2432610781147469
-0.9246990240830356
-0.005065021174897395
0.9297640452788304
0.3087459602818972
0.07422199311671926
0.7618208708144362
0.04985829450605692
-0.5331008881616999
-0.06247382280383038
0.04605653454956835
-0.8540078312620627
0.0750765718842696
0.8634764228426677
-0.9385529947423157
-0.3468795565670828
-0.04133096795812784
0.3882105243589474
-0.6820456127867738
-0.2426534117790179
-0.6336932183419018
0.708769786660334
0.6133786637613244
0.2114022775695695
-0.5432173958300324
0.9456736774737098
-0.7790501251100129
-0.1666235523752787
0.01406627238788867
-0.01357461377951782
-0.0004916604650001385
-0.4033687041557895
-0.09458036664945089
-0.2407968144177803
0.8541754711570705
0.04723455123827779
0.3352744532870691
-0.3825090041684666
-0.4607951174050667
0.9629104207756002
0.6803914982731338
-0.7828974786214578
0.3205210222499358
-0.0172270445996839
-0.3032939788748541
0.9307353770997995
-0.9307353770896254
-0.7813968375948698
0.1106110955432
-0.3229642708381368
-0.7499505411453123
0.7598612029382495
-0.09006847851762857
-0.1434269816834359
0.2334954605551568
0.8649647094661658
-0.03948659568117296
1.054266919303856
-0.8004636933667094
0.1864186755055688
-0.3159049000710064
0.1294862245861859
0.8589117766677562
-0.09709090359124477
-0.6115839275260874
-0.03898383653413975
0.6505677640644528
0.1235634895579807
-0.230797291824969
0.1072338011502452
0.8056544137788796
-0.9836143588877349
-0.4349322129626287
0.3294439081015851
0.1054883046350694
0.5322712149423072
-0.5553344039585996
1.021920700606553
-0.4561868315527152
-0.5657338690786932
0.5991510669578316
-0.7193788134265537
0.06676931641374914
0.6526094974180964
0.1029932492399369
0.5697776948165133
0.05538050977414423
-0.6251582046991342
0.194265865697474
-0.08365476261833868
-0.4926718317244246
0.1457922730490869
0.05024398266719653
-0.8865547814885802
0.8363107987841886
-0.4730134189838174
-0.7133335224732366
0.04887468898128591
0.4372844171717599
-0.006352656026654335
0.2998928360510504
-0.8552432039888267
0.5553503676847922
0.4157396301353928
0.5842603698456107
0.5604608563337121
-0.5144043293542937
-0.3677555740140137
0.037310273570713
0.3304453021837839
0.6813261326991392
0.2494092437428176
-0.5659112855015462
0.5728247058619991
0.1110739478411748
0.8751306801911484
0.01015956036456511
-0.6217434899380609
-0.749146188228761
0.7993901682906356
0.5307938564376774
0.06983759236138826
0.3021197478398265
-0.3719573402940077
-0.1674803646897984
0.4433531588637301
0.08406083054336658
0.875864178617159
-0.8032676067529175
-0.07259657196663764
0.6352835525464451
0.310390120819949
-0.4304220246992168
0.5739885899311036
-0.504151002037868
0.4171814866913972
0.1331951797987957
-0.04676206555801014
-0.5941257369208383
-0.137743173691342
0.7318689106548553
-0.1497842872627343
-0.7809510883516372
-0.6109823491286824
0.3605402298721089
0.2504421202336405
0.6219905142833184
-0.6118309567023279
0.2392299868822506
1.011278686941729
0.04298823429348099
-0.7491461889101694
0.2344844633861849
-0.2204181817651573
0.6803914996926163
0.8017776316901469
-0.8017776316680847
0.837680100326233
-0.8331748633766315
-0.004505237027269488
-0.4453725153514407
0.861112144711612
-0.1473330073043905
-0.3453388220520254
0.7347194497630954
-0.6684991815245204
-0.06622026816491651
-0.7342390964107753
0.1401133603594881
0.1388648176842279
-0.6719657054840433
0.7828974935170598
-0.9503778581477931
-0.3684587703112846
0.2912747858263098
0.07718398433349447
0.1458758278946667
-1.00994285584166
0.8640670279201644
0.4813021785741149
-0.04192093359418114
-0.3081346377673214
0.5864124934353677
-0.2782778557596311
-0.7385330051699095
0.8844088355314953
-0.1570596175601451
0.731513265087045
-0.8436731919583041
0.1121599266714494
0.9760709940995836
-0.5399939691758452
-0.436077024908364
0.755015563942363
-0.06503275260922586
-0.03194623749931596
0.185379097712268
-0.1534328594246088
-0.7758073466718001
-0.8425413349109913
0.07753033033720264
-0.7499505421499679
0.513655583836012
-0.5549865501496175
0.09762068369073612
0.7190393250462757
-0.8166600088588262
0.7536514394865607
0.1742731044792522
0.5029134365316706
0.4970865634884032
-0.05044819648083639
-0.6118883598930155
0.6623365563651136
0.8842856604741568
-0.008421484676644381
-0.755015563953545
0.7993901667591259
0.1913272296748268
-0.4477713327717983
0.01657734937064202
0.003452220648017135
-0.02002957334579176
0.58850736655697
-0.4378065759970994
-0.1507007908311704
0.7179686767903913
0.01070513936927831
-0.1110280684873243
0.4374667256518668
0.1510406364340536
-0.01631789384868515
-0.005876377978577506
0.02219427201558
-0.03115540156352584
-0.0007908287843100164
0.2446279526095249
-0.2618550136134511
-0.9588372516948303
0.001335836066077938
-0.1594470849241661
-0.1238308237668812
0.09437526437339576
0.7221136031588825
0.7290171701965152
-0.1447567978206271
0.6723700349171353
-0.5747493480931009
-0.2117439324463399
0.3981626039989904
0.6955447644211746
0.02242391237946232
0.2417610238861063
-1.074935892502802
-0.9503778565032429
0.3023932950706306
0.7598612020415428
-0.208964415804555
0.06553742990207284
-0.7234494386472796
0.911095546763331
-0.1876461081741296
0.4155779140324216
-0.0273673851287334
0.7712780434148129
0.2806211784875745
0.374259928825815
0.06904672187882037
-0.6586980530942262
0.6586980531163905
0.214611327094354
0.69584593816916
-0.05594649328741505
0.3912209490545446
0.3798577570436696
-0.01575365338302352
0.03233100649436773
0.4487704887950609
0.03253169184769496
-0.738533004333751
0.5340463283561392
0.2006731161317138
0.3028104815389199
-0.117431397722001
-0.6955447667467114
0.1801415099729148
0.7309540384034097
-0.01014168348268532
-0.813702842406682
0.8238445259167859
0.6963443851463321
-0.7920543881982273
0.09571000304450283
-0.75365143223103
-0.1497295035035028
0.2111852457300493
-0.06145574133275077
0.07721860373193927
-0.1794146717224412
-0.1118128447717397
0.2912275161121884
-0.009829090017562683
-0.006488798408588265
0.7062877219152879
-0.7164293993544646
0.8859553376502557
0.06921959217146559
-0.309715643881356
-0.5227894226441694
0.8325050667814218
0.102679544537942
-0.1026795461557276
0.3285850507664705
0.4791791513317074
0.6078198464904178
-1.086998997975153
-0.1941273280471803
-0.5855525797597498
0.7796799077998707
0.01215864653720799
0.2213368046188127
0.3767465974179962
-0.2531831194263768
1.014491496694187
-0.5353123487439915
0.6665293653145629
0.99249716449637
-0.3846773207827028
0.2294135954015007
0.8844088383244058
0.7126725870357776
0.2137816167013712
0.72778175923194
-0.7809510886827391
0.3413019341679703
-0.2834002322244011
0.2564043885794082
0.02699584313516799
0.8520862447964564
-0.01179201695644377
-0.8402942280111051
-0.7020444815261269
0.7025876233852197
0.5546274830900878
-0.7020444849273724
-0.7126725870430385
0.7025876192010704
-0.03364007783634596
0.9051739762800727
-0.01921863481813938
-0.6813261399281537
0.6122589761952021
0.06906716372787731
0.5387819019968562
0.5384761319454749
-1.077258033933627
0.4893750688690447
0.5251164269500559
0.5473409663201717
0.4586215324503487
-1.005962498827272
0.4958172661439099
0.4966798973064117
0.6122589815063469
-0.5256980071538966
-0.466397376177946
-0.5557474282727677
-0.5160576565644364
-0.1246338615047795
-0.01270155585311754
0.01270155678863991
0.509673618510603
0.5241467000153582
-1.040204356712333
0.5735165238443078
-0.271396775913399
-0.883380979929833
0.3433870107741906
-0.6326771234685198
0.3900237104699321
-0.0001187019244408797
-0.8286639780317248
0.8287826799430208
0.4208825364897494
-0.02330118567909173
0.8753874334420735
-0.9434088665571491
-0.8349740898404954
0.05746645421747612
0.7775076356511954
0.5504353463206315
-0.4363580502234162
-0.1140772959479607
0.650049466758299
-0.729215491060487
0.8842201904574334
-0.828380642360575
-0.05583954792918744
-0.01284755323428257
-0.7904200560475203
-0.1109542171991316
0.715671109547008
-0.6047168923436457
-0.9404756274584275
0.9276280741229443
-0.7364107372256746
0.688785385231624
0.04762535200040024
-0.8007792832160383
0.02851881622616934
0.7722604670797751
0.06176436102798395
0.04091518722286468
0.4330880174844511
0.0591886948212116
-0.8496473433596741
0.7904586484032528
-0.6444283280826439
0.5939801233747397
0.8901694746359377
0.07252049385222552
-0.9626899686162398
0.0551953849240578
-0.04976898196529653
0.3802142727625798
-0.3815407724241945
0.06563586462925287
0.8408695258640808
-0.8409882332695774
-0.7315596845543381
-0.8094793137083539
0.01905925688736178
-0.1685352033587509
-0.8481230840420073
0.01974243365756593
0.6242508069546565
0.04811922957429467
0.017193068590324
0.5332422623103129
-0.8139263911706632
0.8424452113362358
0.5657338710841264
-0.8519651723744233
-0.8679551340069318
0.03721884418075358
-0.03475603697152139
0.8345994726848442
-0.7998434356947142
-0.01934041721668548
-0.7663157169562224
0.5443020797885102
0.1520423055356097
-0.02067308537083386
0.8960605177789847
0.9850945278633119
0.8606219625196341
-0.8408795339769038
0.1475118794373476
-0.1475118813226189
-0.1178676843567596
-0.4677408163368095
0.03138275917353174
0.2714350622552526
0.03095823312480036
0.3849650536034042
0.8767201033734853
0.005513707898515376
-0.01534278177221797
0.6586062780444497
0.3413937219787662
0.7835346177862956
-0.5836630455386747
-0.778039775929768
-0.8116354450792846
-0.6799546055662524
0.6799546055603872
-0.1680837084344503
-0.1548805559520929
0.6016989604853892
-0.8113930651136796
0.2096941046449554
-0.493927306748161
-0.5688705444017155
0.2780964216624679
-0.9719886484289203
-0.8990867374127339
0.8432471783744142
-0.8200785752035922
0.8391378329310849
0.6484955761136354
0.1345274746162802
-0.7830230507372545
-0.764010092813238
-0.1462423118538
0.7252924252721256
-0.5790501134036078
0.02236663675125184
-0.01340127515996356
0.01645143120688651
-0.003050154981164415
-0.3530875976800985
-0.1146532172823393
0.8797953833431386
0.737826718863316
-0.238400736922393
-0.4994259821302976
0.6237494252522519
0.6855775988466044
-0.4709662725099679
-0.0004182306396765196
-0.2851735896257622
0.01600676610368607
0.7459752085924334
-0.7619819745863453
-0.3234930718241046
-0.0716036232554469
0.07584900176881308
-0.9657946905261326
0.1255004666862491
-0.6768655886489806
0.05400516096078069
0.6404329361793384
-0.6944380971017259
-0.7566956406027423
0.07983005193487738
0.5894542792965286
-0.6610579024751356
0.156123201031877
-0.3355378785165872
-0.7724273069284759
0.008417214121659182
0.3711718476352776
0.6003678008060134
-0.02637920827528844
0.02249954330896759
-0.02249954500237781
-0.01857792290704246
-0.05285568354863606
-0.2305445319236318
0.02029490717282217
-0.01478122376877032
-0.7243080810604835
0.2794121253928641
0.6784035867369566
-0.6902912302062547
0.01188764363807783
-0.597316031812607
0.6513211928805658
0.6542956302786191
-0.06484135378340374
-0.6312111782617891
-0.125484463400631
-1.049674733900051
0.01124266575267972
0.1362692176653264
-0.7083013164343275
-0.7421653963800502
-0.763891521985224
0.3658013150273818
-0.4077832168069059
0.4686607949600231
-0.06087757805481236
-0.6754536085129721
-0.03284770780703952
0.4996083384819622
0.7306817140173976
-0.2344062581903068
0.110575436130877
0.9573774791942514
0.4460390256150125
0.1326342707530463
-0.5786732964104678
-0.6777255600296118
0.0022719534624492
-0.04451613255639884
0.03111482999027231
0.6376521068088954
-0.775395282447231
-0.00285772314349825
0.00285772258731634
-0.5999718641771838
0.6494333795284342
-0.0494615152827127
-0.6605324901325365
-0.1138420521544265
-0.6718303565058446
0.05237564996965335
0.6099609009715166
-0.1375708764594288
-0.8180726655616964
-0.56293108207015
0.5717744188797403
-0.008843335796591007
0.6319727569039929
-0.6200851116079081
0.3222870070366961
0.2137319969643751
-0.5360190040164603
-0.1045132914210634
-0.6028648807800339
-0.09157321384030041
-0.1539328381724232
-0.5105554463569276
0.4043525738279599
-0.4989329430143457
0.1259619013044454
0.678720018561588
-0.8046819198863486
0.5991510669511106
-0.375012330691292
-0.03277090007602527
0.05924764377878941
-0.5698030911281436
0.5515151879133248
-0.04031085567317323
-0.5112043324529377
-0.3126205251280789
0.3052600926302835
0.007360433792865223
0.4507811746663739
0.1227353443074585
0.05143075272452455
-0.3161097327904083
0.157088754846915
0.1590209781830626
0.2542460494578769
-0.01976159688056067
-0.2971927140868747
-0.3134936941822666
0.3619309250918431
-0.04843722733767215
0.7920298295107486
-0.6294170277539125
-0.03111546242767761
0.499531355463388
0.2847613253660333
-0.5231620676599349
0.5774424728012596
-0.5774424727997493
-0.2897904970861057
-0.5865203137628334
-0.2955180402160399
-0.5865203140198014
-0.5968886522619691
-0.8384802636687632
0.1699810776318698
-0.5980342640663877
0.8212297096257324
-0.0034713676508319
0.1191752816203502
0.4811925200174731
0.0967284542641314
0.1854797099191686
-0.03615136027656575
-0.1493283489204238
-0.02625985477111062
0.5910372488842836
-0.9429020854265565
0.4201126582819085
-0.003215280961914164
-8.380857672459581e-05
0.00329908956897639
-0.6438914641632716
-0.1320954562652418
-0.4657030989184759
0.5983373706378089
-0.5036109262588448
-0.3145214091229863
-0.2552816675982771
-0.2723357479787536
-0.1117160812154034
0.1117160820703279
0.153499873703701
0.05768537712092853
0.1967223789781565
0.4488991961408045
-0.5699564496841367
0.1042533454053
0.2531890922302741
0.4662362411228432
0.5337637595107256
0.645410873080656
0.08073406149742121
0.003309842819979556
-0.08404390502007683
-0.2770085038896358
-0.5410641616546159
-0.5450351845037246
0.1145074430076141
-0.1263983247070478
0.0118908821788704
-0.105873344323126
-0.3856496824118165
-0.04809483677571412
0.6580557518351758
-0.4993780271841036
-0.1445134369630791
-0.3280960127088874
0.2870568333410849
0.12715201426408
-0.6075970523868847
-0.2042350842372172
-0.2624530504661393
0.0005980555064753037
-0.4210003144840556
0.3219727851510786
0.09902752947486437
-0.08915328172995181
0.2916797796064354
-0.8959294073507447
-0.4576104225907023
0.6317958922259511
-0.7730952792836157
0.6685819879115524
0.3414519585449763
-0.1260456485824228
0.2250489969845421
-0.09900334908948603
0.03123607662732135
-0.5861744802497425
0.02893309842478085
0.5572413815974495
-0.9006627934305493
0.5473400388951658
-0.6652077233104386
-0.09965491123586991
0.1090651203964031
-0.1090651229082157
-0.316527970293601
0.3607828559536786
0.01943141209655185
0.02087511963725806
0.05985891188765021
0.5044146491506072
0.6668863455477693
-0.7394829196025553
0.02432733939092566
0.02054662122095898
0.001952908012224487
-0.006297455502216466
0.006297456429132557
-0.4103925642331135
0.5331279042910457
0.0155174525600351
-0.01551745245810466
-0.792574392497305
-0.05992527719786642
0.1216896315828117
-0.4506562326778312
0.5549095735293521
0.449477783277387
-0.4989392994549582
0.1499719588960539
-0.1499719604787088
0.04437335462428244
-0.01204233496896646
-0.0411162244844402
-0.976673042395639
0.5405960180134572
-0.4712701516077173
0.04091518776905091
0.5149592594260668
0.03056539489154227
-0.5455246545024027
-0.6161705698838003
0.1167925430065776
-0.3294853365835697
0.01357822744404749
0.3159071081511986
-0.1540979299988212
-0.08030834474644272
-0.5408740622155512
-0.04530041733914651
0.1362692178422275
-0.04143870715479998
0.03858097922269722
0.08175102911890453
-0.08175102659773942
-0.5313708622548069
0.4829336276387959
-0.4146582153949326
0.1613071638411364
0.6222274539826657
-0.09748078022627825
-0.006048098805899841
0.006048099005537464
0.5330055408681751
-0.07435478432647741
0.006385574713563405
0.02720409750916648
0.03461774570249408
0.6895080042451527
-0.7638627886200217
-0.6630319676001862
0.6319165048731709
-0.1104872834199125
0.3134519724702825
0.7457087020429239
-0.01857792166340545
-0.2657676671371014
0.1483362844495845
-0.744635668825414
0.4839442044448442
-0.4238168710462375
-0.1012113129180015
0.003428017484406381
-0.01469854533638199
0.02360477207196755
0.4123894512060939
-0.1216535324314278
-0.3895508018409479
0.6290953905813578
0.01899898424809211
0.009239574797430299
-0.009239575137871277
-0.3555809064048568
-0.08247166818831456
-0.5604689735412051
0.5569976057660698
-0.2378584973126314
0.4647589663854031
-0.1505798965135947
0.7299493357389104
0.6708672991507038
-0.04143870621855234
-0.6161072856369644
0.5598392308776523
0.2828870043201269
-0.2794841155608235
-0.003402888270109036
0.5427632252487811
0.09343428898049241
-0.03873543156922536
0.1968228030601052
-0.1580873711021083
0.1204864599981601
-0.1204864574390719
-0.8586610406218743
0.002460075193785024
-0.1130676124086819
0.1402717087748642
-0.1317522314876616
0.1317522326708352
0.02054662299646614
-0.02462603511685749
0.6710186933154914
0.0599353450275355
-0.3229256871138076
-0.06272399521221296
-0.471292586860523
-0.04520900944621326
-0.1515640116029334
0.1515640132418603
-0.03967055561316293
0.1434355950039593
-0.1434355964584917
0.1367086829202714
-0.1367086808719654
-0.3159391041604182
-0.1144829205108531
0.2263129573726296
0.1031309510252284
0.03481650990552735
-0.8212160473319587
-0.1974961609676421
0.1701177174514966
0.02120950439981891
-0.2648771098840819
0.1259822468945486
-0.1259822481724922
-0.4142183430030786
-0.08471459708010051
0.2361464371099132
0.002546927914379341
0.04031232830087125
-0.5442653583872855
0.5779054362596123
-0.0266046427234406
-0.01306591248073396
-0.02578754037740053
0.01374518900913065
0.006536349052094738
-0.1844541136715839
0.177917764543836
-0.1076311947822004
-0.2279066862574625
-0.1446241440651689
0.1446241455686406
0.07263784438450349
-0.07263784362054569
-0.01918134908488427
-0.1086399654132325
0.1278213136892021
0.2362249497061205
-0.1831343070499186
-0.02127716234799075
0.02323006447208302
-0.131145578652843
0.6140792094900038
-0.03907823615917872
0.4237639974911819
-0.04108461300802215
0.06327886992882466
-0.153391567962813
0.1533915698788556
-0.6362746248672154
0.3085349886941289
-0.07912139430898117
-0.2344509529060304
0.003653657787208266
-0.1224423351386391
0.1627546642264668
0.1940668958939473
0.09716061213442101
0.09485163551776409
-0.06023388965258672
0.07290237993552399
0.04160506310047493
0.0640246822542679
0.1060930376229449
-0.09864069392174978
0.2092161551239988
0.0120973030988087
-0.1134219172960065
-0.102332287745945
0.09699091440334681
0.005341371885032921
0.01130704457563102
-0.02208562988005943
0.03754269328308414
-0.0375426931556218
0.07438046726450497
-0.05509490397486639
0.05509490429841842
-0.2244520195437198
-0.05014304713416102
0.01171672938519065
-0.1031723729276785
0.01622222370026755
0.1085908394803635
-0.1085908402984817
0.2930944186231657
-0.2711092288085129
0.1634780277047327
-0.05040381955606763
-0.2207054118324866
-0.01712639925206272
0.01712639879150625
0.3673941046169041
0.2852153820930038
-0.5276830390785227
-0.09395055770606237
-0.03244776434758981
0.5287012622742604
0.2104373976839009
-0.1686070508194173
-0.3818840680589287
0.07659404081723944
-0.1474951931671287
0.1871116075948913
-0.03961641398705646
-0.06698579854182095
0.06698579795948406
0.8223027428569719
-0.5604256236072708
-0.002409661536409342
0.0137167058790585
-0.02003614876666984
-0.2869760192720102
-0.01745335563378191
-0.0128719018936554
-0.1319587334650623
-0.5721775853150584
0.5560071845527986
-0.5685910535788853
-0.006939866750154678
0.09939806980649001
-0.001827555061036976
0.01668288909800578
-0.1675313396884783
-0.3364273918868979
0.2332550187565694
-0.05427650990560173
0.03509516069056363
0.1320744968342484
0.173185592358308
0.3397560447637888
0.276359720092822
-0.2781872758648957
-0.06375130807016793
-0.1549015248929768
-0.2208727292188843
0.07469280383803739
-0.01066811879157487
0.2139212040531509
-0.1972383154557581
-0.0862288668495448
0.1591312517949714
-0.3548590627712723
0.2084911876148647
-0.192268963861487
0.08967065758208759
-0.4792214578164697
0.17423971212542
0.170305658494579
-0.2565345378533722
0.07276599808719819
-0.1945470393960742
0.1770936841864967
0.01739140771730916
0.1417398416840902
-0.03957744023502923
0.06608585965580449
0.4669196816677837
0.02041629333632163
-0.07946037220632346
0.05644194055622204
0.1255731597689002
-0.2604891399772079
-0.2309390774071391
0.5597047482043737
0.1573581753290698
0.07878826391341659
0.0753666250189742
-0.03104949036294789
-0.0005954775339170747
-0.002807414154566213
-0.03264385028095866
0.1709534879420755
-0.1778933551950173
-0.05585560295229446
0.02082040217867622
-0.1468682776279713
-0.05280721397315
0.153360537599451
0.2770725148179368
-0.04043210942181182
0.01314971569675086
-0.2552740812123679
-0.1304513828741102
0.2359415199678539
0.1789938009934934
0.1295411846161102
0.02165223175186325
0.08874307403534991
0.05207480386536518
0.4523398452906064
0.01743868508652709
0.09751356248524207
0.04331197653133267
0.07202520932777327
-0.1153371844250845
-0.2424676546101571
-0.2006460380021783
-0.02005937841267129
-0.2021489400964588
0.2753334554522476
)
;

boundaryField
{
    FrontBack
    {
        type            empty;
    }
    Top
    {
        type            calculated;
        value           uniform 0;
    }
    In
    {
        type            calculated;
        value           uniform -1;
    }
    Bottom
    {
        type            calculated;
        value           uniform 0;
    }
    Out
    {
        type            calculated;
        value           nonuniform List<scalar> 10(1.036716035448537 1.064479908827626 1.022144804444536 1.020933694113199 0.9970976632905775 1.012737553876112 1.033820318434453 1.062797851122095 0.8672329733098221 0.8820383540077138);
    }
    circle
    {
        type            calculated;
        value           uniform 0;
    }
}


// ************************************************************************* //
