/*--------------------------------*- C++ -*----------------------------------*\
| =========                 |                                                 |
| \\      /  F ield         | OpenFOAM: The Open Source CFD Toolbox           |
|  \\    /   O peration     | Version:  2412                                  |
|   \\  /    A nd           | Website:  www.openfoam.com                      |
|    \\/     M anipulation  |                                                 |
\*---------------------------------------------------------------------------*/
FoamFile
{
    version     2.0;
    format      ascii;
    arch        "LSB;label=32;scalar=64";
    class       volScalarField;
    location    "1329.5";
    object      yPlus;
}
// * * * * * * * * * * * * * * * * * * * * * * * * * * * * * * * * * * * * * //

dimensions      [0 0 0 0 0 0 0];

internalField   uniform 0;

boundaryField
{
    FrontBack
    {
        type            empty;
    }
    Top
    {
        type            calculated;
        value           nonuniform List<scalar> 
15
(
142.2712494073092
133.5560167095034
138.0662585187171
144.3906758115649
159.764763076041
131.3675861945952
140.1128322968683
135.3475391755514
153.4327653162388
135.7426143632589
136.0859432839037
136.7773293973647
125.237826636749
132.9005511147274
123.9482706520275
)
;
    }
    In
    {
        type            calculated;
        value           uniform 0;
    }
    Bottom
    {
        type            calculated;
        value           nonuniform List<scalar> 
15
(
155.5661424715518
158.1112556411694
141.1018247877953
142.0797816320306
141.1879692784285
148.4559476715066
142.7123615209891
143.1705934801241
143.4233192720914
134.0617659942103
125.7378565797217
141.5580031733493
122.4132111442382
123.4914754296453
124.1450142474641
)
;
    }
    Out
    {
        type            calculated;
        value           uniform 0;
    }
    circle
    {
        type            calculated;
        value           nonuniform List<scalar> 
32
(
56.29946910731901
21.86584033952525
65.27301185450929
24.77634576195152
19.54664094596291
56.243791109455
56.76162204383247
24.16399071299307
22.19998303801436
65.49144010228088
40.13112187476005
63.00161121346117
50.39582958295609
14.61724085908647
23.26923225125475
19.46068307420985
38.9806416946366
59.66846417452878
61.06599388721037
26.0596469339521
65.77098052785078
63.76938586765269
63.01234475152251
59.86541697559336
64.1513006684812
46.04196088069815
66.41505765321465
32.19216388865208
37.90689464599144
55.68467418707169
21.31854017123091
43.08046883886034
)
;
    }
}


// ************************************************************************* //
