/*--------------------------------*- C++ -*----------------------------------*\
| =========                 |                                                 |
| \\      /  F ield         | OpenFOAM: The Open Source CFD Toolbox           |
|  \\    /   O peration     | Version:  2412                                  |
|   \\  /    A nd           | Website:  www.openfoam.com                      |
|    \\/     M anipulation  |                                                 |
\*---------------------------------------------------------------------------*/
FoamFile
{
    version     2.0;
    format      ascii;
    arch        "LSB;label=32;scalar=64";
    class       volScalarField;
    location    "80";
    object      p;
}
// * * * * * * * * * * * * * * * * * * * * * * * * * * * * * * * * * * * * * //

dimensions      [0 2 -2 0 0 0 0];

internalField   nonuniform List<scalar> 
808
(
-0.03596065817307855
0.04504555930519918
-0.01177701654256419
0.03497240052896557
-0.3040561454714565
-0.05466993087599319
-0.01456582525008522
-0.02392942319553292
-0.2003160253962548
-0.08574963494488323
-0.009586852438052773
-0.2579957869227139
-0.03058436520157121
-0.01296614207852796
-0.1210439253712723
-0.01403102934926705
-0.139424177105333
-0.01357220159938049
-0.01238772840230262
-0.05701306252148917
-0.005908616478626241
0.1183767454436457
-0.06078535898339019
-0.07349082875023141
0.1766038791426018
-0.0994191122452793
-0.1554292297500122
-0.0203019284902984
-0.01736124037493621
-0.02596842174274315
-0.02016696514970454
-0.05993396097928372
-0.02292237531513701
-0.01682384012941049
-0.1012674294158945
0.3440019021363615
-0.03855783852115615
-0.01674585074114756
-0.02327333527152954
-0.02656234264122151
-0.09202579124977461
-0.129187247230252
-0.05074049108242935
-0.02067458389517059
-0.05464212986515039
-0.03981445112292147
-0.01232423977505451
-0.187790761473452
-0.02758349858563075
-0.2076695256946291
-0.01615052184642413
-0.06905277725482696
-0.05944695620682646
-0.01462841880954414
-0.190176956891348
-0.02897597725557952
-0.01058156815193454
-0.01407938366108963
-0.1025232186335269
-0.04069558584949569
-0.09769253832185334
-0.1287653753310908
-0.0134047980007768
-0.1306565776854817
-0.01699074366355408
-0.0505528574484678
-0.1676575359821632
-0.03565265319450552
-0.01484704923462146
-0.4464835377841855
-0.026974377139353
-0.308248688810346
-0.02200554385188643
-0.0204155102990233
-0.0675210896196599
-0.01735140214426353
-0.04355256929101695
-0.3588409579301181
-0.0354781111136514
0.04219621374301424
-0.09035103860368403
-0.01727219654435461
0.0568270613326949
0.04339214233645686
-0.0165597063485308
-0.05332360347369509
-0.5493841091915748
-0.2226133993027163
-0.05346763846933193
-0.1114385286190339
-0.05809291353193286
-0.135141932019878
0.04082215251484928
-0.0237370422430203
-0.06049178774951743
-0.1203232613742813
-0.03848871501350477
-0.05194627180601409
-0.11836321137518
-0.1407029020462272
-0.05211706298722985
-0.04843890251627729
-0.05568449132109254
-0.04580698039247116
-0.05793859454885444
-0.07317390534736831
-0.04131132000468567
-0.01119905004721899
-0.04109795634616806
-0.1268784859726886
-0.05127671617780757
0.08344525870031096
-0.04314747169232559
-0.007978046143693809
-0.02781582965422686
0.1801143819176009
-0.03989411187215924
-0.2738513533700679
-0.02032647205577984
-0.05492718170024231
-0.02763435026349335
-0.04780514036549986
0.01257288061071027
-0.05016591027247312
-0.03393958852244284
-0.2139442807831866
-0.0429894347025097
-0.004979819595522634
-0.07784586498808789
-0.06748666997312325
-0.1485201718126458
-0.02096793160498144
-0.0766386559715815
-0.04102477917664737
-0.02275448863258925
-0.01663096385129358
-0.006366666754212501
-0.007406161408193607
-0.05316639668572215
-0.05101485390283086
-0.2085521940848624
-0.05819897236918523
-0.008555779608356115
-0.02276796993816086
-0.1446824542376408
-0.002245325153332528
-0.07786684952474962
-0.02382612867416939
-0.001258136811793144
-0.01033994638315558
-0.03390263514046361
0.09567964255986429
-0.03985023448844443
0.2528037652721967
-0.2639320381090113
-0.1302097226801262
-0.03716043309036585
-0.09127567292417436
-0.009125392925092369
-0.1116571993650591
-0.1856128708560417
-0.2135943959604791
-0.1837257471817192
0.05534448067462299
-0.06177804771346788
-0.02030248331457621
-0.06798325860579411
-0.1732957107520811
-0.02389945587152384
-0.01856287901234311
-0.05339198868006226
-0.01794008653313123
-0.005891257122194933
-0.1106876916650018
-0.02279908089736301
-0.04674410285422243
-0.06871650962449606
-0.1641256403116575
-0.03372042281677719
-0.3964250372180393
-0.01780401521289193
-0.2222433325546545
-0.04550849818636239
0.03047376464749064
-0.1049937816390632
-0.01409789071647658
-0.04155761147092274
-0.1059811554871425
-0.0177172253521004
-0.09721494139239586
-0.2047738428204755
-0.07307985821594509
-0.02373427120742298
-0.04996400774965528
-0.0438861943281813
-0.2037786368835775
-0.02186943365206833
-0.0189686415716617
-0.01137184757780401
-0.05451936175997006
-0.05213117456845501
-0.02244216247464679
-0.02082025397474377
-0.2476039457643216
0.1280853443440489
-0.2002721964592367
-0.208311766271836
-0.01177399407042276
-0.01161199570038224
-0.06770545964800168
-0.009467823273741452
-0.514540771979106
-0.1235173997397938
-0.01897549769465
-0.001422313376089727
-0.02427532156187373
-0.2874450316306115
-0.2734793524674902
-0.007136983021163148
-0.01774005707887432
-0.002178160500298033
-0.3439342106840749
-0.02828173721802206
-0.02917209436703584
-0.01251185392502844
-0.01975613674246554
0.0510912026871652
-0.1098138526121231
-0.01376529185074861
-0.02073719722965901
-0.04286291109002267
-0.01820478284345701
-0.01615139815699113
-0.023363782082194
-0.06681459671586351
-0.01185292265502452
-0.01906109650532262
-0.008550833503146596
-0.0008910950698469431
-0.02954395708625866
-0.001568669808719535
-0.002290653120055196
-0.006096390520687859
-0.02561116591352827
-0.008020512581031626
0.001589898758822912
-0.004145722822761935
0.001138852731779869
0.002499105067816596
-0.008505834027956264
-0.1416348385249794
-0.003029591500294704
-0.001166097265408796
-0.04832381238872088
-0.02148693213594923
-0.0248873525500371
-0.01435767593397146
-0.006087653563636291
-0.02088860738970839
-0.03724250192011168
-0.0140598399712265
-0.0127756682348977
-0.01196085651685471
0.006555884842555354
-0.01021263749645202
-0.01212847559362246
-0.01125829181578379
-0.01071947863114095
-0.01003428663364535
-0.01135030348786011
-0.01411861343169793
-0.3106669627820965
0.0611666581462718
-0.01534079262484486
-0.0167425064396328
-0.01302560634877504
-0.01241482770245577
-0.008710732703363422
-0.09825374355820046
0.008943513007655961
-0.01381909832957313
-0.01475730054744351
-0.0108184704855621
-0.0533966906296482
-0.009689242395679882
-0.01389526920323788
-0.009191849424638238
-0.000852704399457754
-0.009721198361880595
-0.01086212117399456
-0.02487981411241151
-0.01627788167918045
-0.01193074944741163
-0.01331267169055593
-0.008111372327784127
-0.01297208779479904
-0.01152158016853266
-0.05712345322702742
-0.01291697176369895
-0.01144845643388608
-0.008675318822883688
-0.01488947857682769
-0.01402308491456319
-0.01574040174960703
-1.381041649480151
-0.09815774592897163
-0.01300259263642985
0.02309287996405742
-0.1659916889200666
-0.09301991310775626
-0.01134373543908847
-0.01407151237415476
-0.256447057943222
-0.03095936272662166
-0.0206123236582625
-0.01089895226229278
-0.01968786669262686
-0.01106900996539123
-0.03068790954946345
-0.4163427358191514
-0.01224739520015193
-0.01409900408632114
-0.004873699007158014
-0.01052762850684816
-0.009545962165202874
-0.01432758839463063
-0.009334717679145357
-0.02614275194003684
-0.01127301119353195
-0.1608110972877662
0.0174928325893146
-0.007749971608088215
0.0030667649741714
0.01312233142451933
-0.04722972852622011
0.03005351009601059
-0.01283575968964316
-0.1360903167741199
0.2819542802358139
-0.007310833089515798
-0.01314923542194427
-0.008414211112306178
-0.03322840289823306
-0.122125543585657
-0.01306745087938553
-0.01236205422044234
-0.01700163239467674
-0.0135921371769524
-0.04095457644381652
-0.213483854625635
-0.01151317952400207
-0.04102077922201285
-0.03992803842023773
-0.165044562768642
-0.1652974790131791
-0.1431935107947467
-0.2579186309285206
-0.007109038608709586
-0.02128586772556897
-0.01442743655605504
-0.01276682762601137
-0.03281739436795109
-0.02438380616677452
-0.01445941363356697
-0.01504143709320448
-1.083955973824192
-0.005320041398125936
-0.01368573683148219
-0.01845305661828311
-0.0190310755354237
0.002530107351570833
-0.01405704507299371
-0.02799101795016602
-0.1656539107664595
-0.01358538577314515
-0.02210318353253333
-0.01387697269260071
0.001563385313184768
-0.1793849272085423
-0.01334071474420947
-0.1423022742473248
-0.01602614830780777
0.009157197962628863
-0.01456355795130867
-0.02307407267338006
-0.01571813014653369
0.004951484374567013
-0.2790927403355786
-0.02547638246259634
-0.01605439933736678
-0.005732616725806002
-0.009369864893847769
-0.03060167112772229
-0.01436083224505268
-0.0204131483456291
-0.02134802145017978
0.01164719958208087
-0.1013569802222941
-0.02213798897689291
0.009204521230235116
-0.05047657698543623
0.1569852157584941
-0.1025207635420456
-0.3224304507445116
-0.03042764203357864
-0.02540340642760641
0.1488223609346891
0.08625599213947228
-0.003271423515184195
0.04995587474952214
-0.01566558509469013
-0.01466602548257636
0.002230135811684119
0.01202736252066292
-0.06727240428218764
-0.005525202592567431
-0.05773285786352333
-0.02224440042402591
-0.01571181420349926
-0.03652652895101789
-0.03291752011580058
-0.0066424479760741
-0.01497492332250136
-0.03947417883041922
0.03713684508764425
-0.03887670832210112
-0.01353341202000806
-0.1159008728415572
-0.03195960193541297
-0.03842625890848068
-0.6791030532141058
0.01831048097599468
-0.01098486385794875
-0.005300873271117964
0.1615805893671439
-0.08415607577452762
-0.03493889594373214
-0.2478341291852369
-0.01655492950984808
-0.01660626046651174
0.06082583858284028
-0.1856492549499895
-0.2260776093829355
-0.1987025643761831
-0.6882086573134103
0.006004474387693285
-0.01773436327318075
-0.01647663208083626
-0.07880593742733516
0.1176147121374214
-0.02121000611313722
-0.2476114180185415
-0.03489244059933364
-0.006440001070045589
0.2766973522951045
-0.01128259841434971
-0.09417217994555968
-0.1483563908314885
-0.004783526214563606
-0.04033881708650927
-0.0470035929406461
-0.2064959146760547
-0.008885297556126784
-0.04242790495389932
-0.002553826610433838
-0.5525190182628965
-0.2010091563973632
-0.1751461009130456
-0.02270752130810393
-0.006860339353816471
-0.05970466773563018
-0.05842849510347246
-0.01499808216170083
-0.06729268713992979
0.00292680719631612
-0.01837749186460544
-0.09528015974673283
-0.2660385013126008
-0.007729745713260464
-0.02626528793165116
-0.02210178203777718
-0.07396369832930313
-0.09142127795382926
-0.0875322122856708
-0.01157735029025306
-0.9292154747556003
0.1604490507582037
-0.07976183773573574
-0.2582571280747945
-0.04268909148065702
-0.010411254666939
-0.250794442738665
-0.1826848387238982
-0.03351875526609013
-0.1270284783628313
-0.01870534072710233
0.5625495136579118
-0.02378268179023348
-0.2295105024366237
-0.02624026410343773
-0.005287211500905886
-0.0118566282228779
-1.256323567352865
-0.1840143544432985
-0.2348039482113366
0.0054216448126577
-0.0368358614823051
-0.252846213430524
-0.06519416832884115
-0.05082162318481637
-0.1412770222450979
-0.1930192394337534
-0.06751816642099218
-1.232540873151515
-0.1435078688369431
-0.5177932042666457
0.07848507056827768
-0.007037777476157063
-0.02202065248804806
-0.04230553914136229
-0.04099502463319971
-0.02881589074566138
-0.131991087545423
0.07960533532536397
-0.002954849228976892
-0.009716646801938646
-0.5819680279847893
-0.8662844072580657
-0.1871260877415941
-0.00811707900938656
-0.1372482435365865
0.001141494502945309
-0.00074529493281114
-0.001906942497100832
-0.05990260207683834
-0.2399181753946661
-0.01342952789618488
-0.1241197342422183
-0.1547829757297252
-0.01323539899904847
-0.03601276045721813
0.02149056805135652
-0.05711478697551806
-0.0693949678637666
-0.5045737307208625
-0.2441656542738465
-0.08119028876891016
-0.07209138305809711
-0.01994011660261033
-0.1226836780478338
-0.153023039718425
-0.07508839280363433
0.0244043699109155
-0.08401011023599021
-0.04773719077069724
-0.01491174405059782
-0.1078161631973589
-0.2712690365305092
-0.05639208181463839
-0.01853592914516657
0.0007952945590972203
-0.01002628433525075
-0.01115424482080334
-0.2169524800596561
-0.01505196910676565
-0.2233319819726419
-0.01041083341909618
-0.06553900205302314
-0.003661446259795493
-0.02319082359680211
-0.3761243978196667
-0.9058819610214831
-0.01133209944295413
-1.051663609195003
-0.6155039893814237
-0.01070948628150614
-0.6536586836043435
-0.1751454890997393
-0.005704533779237472
-0.1310241537890637
-0.01705331325052216
-0.1210909852465104
-0.06776055165292193
-0.07580994080348401
-0.005144468992281183
-0.002670791081690491
-1.333766641860841
-0.01109533562568366
-0.1861143728665268
0.0005167228483037245
-1.014933979099978
-1.229567163175263
-0.08210813597432799
0.02028531638261067
0.1642932213567262
-0.004731328534593958
-0.02303283257316647
-0.004228733418604556
-0.253664058428433
0.3662535765211313
-0.04071753895407496
-0.2097926510782933
-0.014921883374449
-0.6583695075348849
-0.0755317019573862
0.1915794183379917
-0.2830712096173306
-0.04967224638911436
-0.0685341980200774
-0.01588574507709986
-0.02174003446211921
-0.5728588001693341
-0.1439952980255841
-0.08570863737023354
-0.128296002272367
-0.5580402383511773
-0.04403022084159712
-0.9108606052403999
-0.0002377923107765312
-0.2367598029695108
-1.0454753216851
0.169541793791647
0.2925614236678516
-0.1828369051138917
-0.1940880118449597
-0.2061748987932165
-0.06840711492617031
0.02296833765635653
0.05009294190959069
0.004104600363372282
-0.166222471140278
0.02541604408688666
-1.352052377930663
-0.08480988299875458
-0.4714886233189993
-0.3286320619711484
-0.2028745361914598
-0.1752478942555637
-0.01691525063874192
-0.01545705917579379
-0.1064190517343828
0.1703285406976697
0.3858643556717312
-0.2192402768335809
-0.1406068249526278
-0.2405503271455037
-0.06228478602971798
-0.1503577895827286
-0.1620607064543305
-0.12517624334239
-0.122192769506794
0.4670592923164794
-0.2677598843793614
0.4303548213512028
-0.6015032068888241
0.07017088588438319
-0.2052197348536712
-0.06581006409072808
-0.07348384024514745
-0.8751078623472757
-0.2224815873668134
-0.1892030020041549
-0.3451856991453033
-0.4558346653865387
0.5707348907940845
-0.2051450317240007
-0.0001901613125004294
-0.07126630333614299
0.343083921568558
-0.0379636615872067
-0.1299037378030108
-0.1782728547219747
-0.0636112555717471
-0.01652312100177926
-0.1933976500588555
0.1925130941809851
-0.01279106793756643
-0.09578744665446273
-0.167503202895493
-0.3129306622376858
-0.3145805320791292
-0.06456338078424835
-0.01027751388651041
-0.07694061930303506
-0.6572695972017972
-0.6670152391266906
-0.3394889532205925
-0.05743262903141499
-0.05235960565874899
-0.02548997567229259
-0.06714349944110094
-0.0583307232707919
-0.3571645055191204
-0.9539943083328269
-0.01013854505823298
-0.08248306355866894
-1.134045352820464
-1.02822160631776
-0.1035751774955686
-0.03799725255190249
-0.07036879154455543
0.3911689550455921
-0.345655043500236
-0.05077722298256145
-0.5960635883660407
-0.1226617187691056
-0.2542305012912974
-0.2089168345724124
0.4744417689203049
-0.6251662138838789
0.07246503551913427
-0.02961621100735145
-0.5553113319610523
-0.05096559875447948
-0.3593568993542379
0.1062170752563817
-0.1892759824557036
-0.05951229749149479
-0.1379181892322775
-0.363921536219701
-0.08925475358944346
0.5139356381648248
0.08501250797862002
0.4713665730061943
-0.1081388488176428
-0.1985711802712166
-0.5239465009263223
-0.1295722363606589
0.02734223906024017
-0.05315038767036446
0.1034536012641325
-0.3092219406029578
0.2361930224015572
0.009251871662334871
-0.003233847807946608
-0.5154094247795887
-0.1865796987994976
-0.0843406987305787
0.5814444822765144
0.138177410773691
0.3466453148345048
0.2258746219680229
-0.5589340791941093
-0.2076229273229592
-0.2204792989587998
-0.2381448687860873
-0.05993410783356991
-0.6969264094985598
-0.1952132803436694
0.3066178623449561
-0.2054216308594262
-0.01113865941730883
-0.173247067411405
-0.00903444973107244
-0.1566483695449981
-0.4326572675018663
-0.07683515368335522
-0.1966995690346026
-0.07142194277885096
-0.0895070741813188
-0.1457298482736721
-0.07353605680837687
-0.456524054467097
-0.4169127717610961
-0.02689138508109558
-0.07377429148116123
0.3263473773853153
-0.2455518557895207
-0.1855716739771754
0.5259156914655404
-0.2084715254954154
0.01718139279334153
-0.4472683855217507
0.04557046853503604
-0.06257697153879783
-0.1509391760988325
-0.5800354264869966
0.1625193992787849
-0.5829873554498461
-0.5316887196991785
-0.1067555575424065
-0.5048340994033645
-0.03747006214189152
-0.1401407709051915
-0.4079125374811562
-0.0163360857564641
0.2861215275368915
0.4894373544939293
-0.1575983361334098
-0.008670258912028279
-0.07173065166580456
0.5254030414209488
-0.03352695268281052
-0.4366147446595926
-0.03281922152829386
0.4602362369522031
-0.01432173647697044
-0.5407337820993274
-0.2450154643850001
0.1753845628705417
-0.3083861207076731
-0.1774108514696668
0.05237417701598025
0.03408266198909581
0.05384943553352349
-0.2972209555881817
-0.1570310758220932
0.4127604482564853
)
;

boundaryField
{
    FrontBack
    {
        type            empty;
    }
    Top
    {
        type            zeroGradient;
    }
    In
    {
        type            zeroGradient;
    }
    Bottom
    {
        type            zeroGradient;
    }
    Out
    {
        type            fixedValue;
        value           uniform 0;
    }
    circle
    {
        type            zeroGradient;
    }
}


// ************************************************************************* //
